Title
42785
    1SAPS     N    1   0.464   3.259   6.433  0.1259  0.2372  1.0697
    1SAPS   HN1    2   0.445   3.355   6.398 -0.3579  0.1525  1.0958
    1SAPS   HN2    3   0.562   3.261   6.470  0.0858 -1.6380  1.4016
    1SAPS   HN3    4   0.469   3.187   6.358  0.3862  2.0378 -0.7234
    1SAPS   C12    5   0.367   3.231   6.546  0.0594 -0.0883  0.1320
    1SAPS  H12A    6   0.411   3.144   6.593 -0.7885 -0.3219  0.5186
    1SAPS   C13    7   0.338   3.346   6.648  1.2384  0.0917  1.4997
    1SAPS  O13A    8   0.391   3.460   6.645  0.3871 -0.8327  0.2858
    1SAPS  O13B    9   0.260   3.319   6.738 -0.0009 -0.3845  0.0920
    1SAPS   C11   10   0.228   3.188   6.472 -0.0996 -0.4518 -1.0789
    1SAPS  H11A   11   0.190   3.276   6.416 -0.3291  1.0229  1.2947
    1SAPS  H11B   12   0.152   3.174   6.552  1.3120  0.0818  0.4096
    1SAPS     P   13   0.218   2.928   6.426  0.3598  0.0812  0.4668
    1SAPS   O13   14   0.332   2.853   6.375 -0.2461  0.1472  0.0947
    1SAPS   O14   15   0.187   2.907   6.569  0.9439  0.2643  0.0520
    1SAPS   O12   16   0.236   3.081   6.384  0.2745  0.1231 -0.5069
    1SAPS   O11   17   0.095   2.884   6.337 -0.3024  0.6754  0.3701
    1SAPS    C1   18   0.013   2.975   6.263  0.7072  0.2778  0.1970
    1SAPS    HA   19  -0.089   2.952   6.300  0.3064 -0.5775 -1.3493
    1SAPS    HB   20   0.017   3.084   6.283  1.6492 -0.0863  2.2711
    1SAPS    C2   21   0.027   2.960   6.107  0.4363 -0.3442 -0.7526
    1SAPS    HS   22  -0.053   3.020   6.058  0.1583 -1.1958 -1.3516
    1SAPS   O21   23   0.025   2.823   6.074  0.2291 -0.2009  0.1450
    1SAPS   C21   24  -0.091   2.768   6.074  0.3630  0.9289 -0.4157
    1SAPS   O22   25  -0.199   2.823   6.089  0.1221 -0.5446 -0.1174
    1SAPS   C22   26  -0.073   2.619   6.046 -0.0112 -0.2793  0.3010
    1SAPS   H2R   27   0.034   2.602   6.020  0.0761 -2.2783  1.7499
    1SAPS   H2S   28  -0.078   2.560   6.140 -1.4479 -1.7267 -0.6407
    1SAPS    C3   29   0.165   3.024   6.064  0.0395 -0.9062 -0.1030
    1SAPS    HX   30   0.243   2.971   6.123  1.0985  0.5991 -0.0814
    1SAPS    HY   31   0.159   3.121   6.118  1.1013 -2.0402  2.2031
    1SAPS   O31   32   0.189   3.020   5.927 -0.2853  0.4104  0.2075
    1SAPS   C31   33   0.151   3.127   5.856 -0.4633  0.2145 -0.2659
    1SAPS   O32   34   0.117   3.233   5.902 -0.1335  0.4111 -0.1646
    1SAPS   C32   35   0.125   3.080   5.715  0.0178  0.7339  0.1381
    1SAPS   H2X   36   0.060   2.990   5.720  1.2409 -0.1053  1.3309
    1SAPS   H2Y   37   0.221   3.047   5.670  1.7596  3.3230  1.7211
    1SAPS   C23   38  -0.178   2.555   5.959 -0.0708  0.5309  0.7322
    1SAPS   H3R   39  -0.282   2.580   5.991 -0.9444 -1.1558 -0.6201
    1SAPS   H3S   40  -0.183   2.446   5.976  0.2062  0.3319 -0.3948
    1SAPS   C24   41  -0.166   2.576   5.809  0.2036 -0.1378  0.6581
    1SAPS   H4R   42  -0.132   2.680   5.792 -2.2100  0.4681 -1.1442
    1SAPS   H4S   43  -0.268   2.579   5.765  1.1467  2.0684 -1.6231
    1SAPS   C25   44  -0.079   2.479   5.732  0.3172 -0.6078 -0.6957
    1SAPS   H5R   45  -0.040   2.398   5.795  0.3679 -0.9332 -1.1394
    1SAPS   C26   46  -0.055   2.476   5.603 -0.6467 -0.1873 -0.7458
    1SAPS   H6R   47   0.009   2.395   5.566  0.7612  0.7980 -0.5599
    1SAPS   C27   48  -0.090   2.576   5.493 -0.2807 -0.4007  0.2846
    1SAPS   H7R   49  -0.127   2.665   5.547 -2.0611 -1.6016  1.1452
    1SAPS   H7S   50  -0.171   2.536   5.428  0.5474  1.7458 -2.2182
    1SAPS   C28   51   0.030   2.589   5.404  0.1130 -0.3571 -0.2631
    1SAPS   H8R   52   0.124   2.599   5.461  0.0067  1.1210 -0.3004
    1SAPS   C29   53   0.039   2.572   5.271  0.9785  0.2401  0.3988
    1SAPS   H9R   54   0.141   2.570   5.229  1.4596  0.7714  1.4956
    1SAPS  C210   55  -0.072   2.554   5.177  0.7149  0.2448  1.1059
    1SAPS  H10R   56  -0.171   2.570   5.225 -0.9556 -0.6496 -1.8126
    1SAPS  H10S   57  -0.092   2.449   5.148  0.2808  0.3620  0.9814
    1SAPS  C211   58  -0.058   2.658   5.065  0.3005 -0.5906 -0.3333
    1SAPS  H11R   59  -0.083   2.764   5.082  1.2682 -0.5486  0.9874
    1SAPS  C212   60   0.004   2.629   4.952  0.2136 -0.5563  0.2568
    1SAPS  H12R   61   0.021   2.712   4.881  1.4099  1.9033  3.1686
    1SAPS  C213   62   0.062   2.499   4.911 -0.5349  0.1379  0.6525
    1SAPS  H13R   63  -0.022   2.433   4.880 -0.5118  0.8600 -1.0453
    1SAPS  H13S   64   0.109   2.451   5.000  1.1013  0.5264  0.0363
    1SAPS  C214   65   0.172   2.509   4.811 -0.5227  0.2274 -0.7776
    1SAPS  H14R   66   0.251   2.583   4.830  0.2056 -0.8719  0.6836
    1SAPS  C215   67   0.169   2.450   4.691 -0.9052  0.1704  0.8115
    1SAPS  H15R   68   0.257   2.454   4.626 -0.5866 -0.5715  1.1727
    1SAPS  C216   69   0.055   2.366   4.644 -0.3824 -0.0667 -0.6393
    1SAPS  H16R   70   0.005   2.308   4.725  0.1581 -1.0667 -1.0079
    1SAPS  H16S   71   0.092   2.289   4.572  1.2370 -0.1940  0.2854
    1SAPS  C217   72  -0.049   2.461   4.586  0.1467  0.2420  0.1698
    1SAPS  H17R   73  -0.010   2.513   4.497 -0.0363 -0.9482 -0.6282
    1SAPS  H17S   74  -0.083   2.531   4.666  1.4284 -0.8136  1.7033
    1SAPS  C218   75  -0.175   2.382   4.534 -0.7579  0.2733 -0.9166
    1SAPS  H18R   76  -0.139   2.311   4.456  0.1187  2.0372 -2.1866
    1SAPS  H18S   77  -0.233   2.454   4.472 -2.0827  0.8017  0.8642
    1SAPS  C219   78  -0.271   2.334   4.642 -0.2091 -0.3559 -0.8536
    1SAPS  H19R   79  -0.316   2.410   4.709 -0.2507 -0.8038 -0.3644
    1SAPS  H19S   80  -0.219   2.264   4.711 -3.5206 -3.6938 -1.4124
    1SAPS  C220   81  -0.384   2.253   4.576 -0.4399  0.2616 -0.3938
    1SAPS  H20R   82  -0.348   2.176   4.504  1.9034 -1.0297  1.9908
    1SAPS  H20S   83  -0.446   2.334   4.530  2.3939  0.3768 -4.6363
    1SAPS  H20T   84  -0.448   2.199   4.648  0.7996 -0.2768  0.3355
    1SAPS   C33   85   0.060   3.178   5.615  0.3838 -0.3178 -0.5189
    1SAPS   H3X   86   0.067   3.286   5.640 -1.6046 -0.1165 -0.7127
    1SAPS   H3Y   87  -0.050   3.165   5.610  0.5189 -1.5356 -0.5042
    1SAPS   C34   88   0.091   3.163   5.472 -0.6374  0.0143  0.6226
    1SAPS   H4X   89   0.202   3.170   5.460 -0.6723 -1.5928 -0.9689
    1SAPS   H4Y   90   0.040   3.242   5.414  0.0335  0.9873  1.3164
    1SAPS   C35   91   0.049   3.027   5.416  0.4808  1.2544 -0.0365
    1SAPS   H5X   92  -0.059   3.013   5.436  0.6707 -0.1230  0.1250
    1SAPS   H5Y   93   0.104   2.948   5.471 -0.2138 -0.6714 -1.9624
    1SAPS   C36   94   0.084   3.017   5.266  0.2807  0.1842 -0.2537
    1SAPS   H6X   95   0.087   2.909   5.239 -1.2389 -0.6824  2.6225
    1SAPS   H6Y   96   0.184   3.063   5.248  1.2933 -0.7803  2.4064
    1SAPS   C37   97  -0.019   3.094   5.170  0.0983  0.0401  0.0529
    1SAPS   H7X   98  -0.013   3.199   5.205  0.6292  0.3732 -0.9965
    1SAPS   H7Y   99  -0.126   3.063   5.172  0.1175 -0.2030 -1.4456
    1SAPS   C38  100   0.037   3.093   5.024  0.3425 -0.3508  0.2883
    1SAPS   H8X  101   0.021   2.991   4.983  0.7295 -0.1347 -0.4127
    1SAPS   H8Y  102   0.146   3.111   5.009  0.5437 -1.1227  0.7555
    1SAPS   C39  103  -0.041   3.200   4.944 -0.2277  0.2061  0.5537
    1SAPS   H9X  104  -0.003   3.297   4.983 -1.6118  1.4830 -1.1083
    1SAPS   H9Y  105  -0.151   3.189   4.957 -0.4106 -0.7112 -1.3582
    1SAPS  C310  106  -0.013   3.199   4.790 -0.2201 -0.0684  0.4289
    1SAPS  H10X  107   0.095   3.180   4.780  0.3526  2.6130  0.6909
    1SAPS  H10Y  108  -0.034   3.295   4.738 -0.4656 -0.0080  0.6302
    1SAPS  C311  109  -0.080   3.089   4.716 -0.2402 -0.1002 -0.2935
    1SAPS  H11X  110  -0.188   3.104   4.696 -0.9943  1.1536  3.8052
    1SAPS  H11Y  111  -0.070   2.995   4.775  0.5908  0.1413 -0.0383
    1SAPS  C312  112  -0.014   3.066   4.587 -1.2518 -0.4708  1.2582
    1SAPS  H12X  113   0.095   3.074   4.608 -1.2482  1.6474  0.6790
    1SAPS  H12Y  114  -0.033   3.151   4.517  1.5610 -0.7985 -0.0348
    1SAPS  C313  115  -0.027   2.925   4.522  0.0502 -0.2248  0.5213
    1SAPS  H13X  116  -0.126   2.924   4.470 -0.0677 -0.2119  0.7456
    1SAPS  H13Y  117  -0.010   2.837   4.587 -1.3283 -0.3412  0.7649
    1SAPS  C314  118   0.075   2.902   4.408 -0.4223  0.3855 -0.1125
    1SAPS  H14X  119   0.053   2.799   4.376  0.2510  0.1172  0.2600
    1SAPS  H14Y  120   0.177   2.887   4.450  0.1838  0.7240 -1.4052
    1SAPS  C315  121   0.091   2.999   4.286 -0.2379  0.0098  0.5721
    1SAPS  H15X  122   0.108   3.101   4.328  3.0621 -0.8558  1.6493
    1SAPS  H15Y  123   0.005   2.998   4.217  0.2654  1.9467 -0.1682
    1SAPS  C316  124   0.225   2.957   4.214  1.0362 -0.4281  0.0463
    1SAPS  H16X  125   0.224   2.849   4.187  2.8779  0.2491 -3.3555
    1SAPS  H16Y  126   0.307   2.976   4.286  2.0897  0.5216 -1.3501
    1SAPS  C317  127   0.249   3.028   4.085  0.1565 -0.2073  0.1629
    1SAPS  H17X  128   0.349   2.993   4.053  1.8532  3.3500  1.0580
    1SAPS  H17Y  129   0.268   3.135   4.110  0.3354 -0.5304  1.4971
    1SAPS  C318  130   0.152   3.012   3.969 -0.1651 -0.0340 -0.2939
    1SAPS  H18X  131   0.202   3.056   3.880 -0.8983 -1.2314 -1.3394
    1SAPS  H18Y  132   0.055   3.058   3.996 -0.8754 -2.4203  1.5753
    1SAPS  H18Z  133   0.136   2.904   3.946  2.2719 -0.4973 -0.0221
    2SAPS     N  134   6.586   6.622   6.649 -0.2264 -0.5547 -0.1322
    2SAPS   HN1  135   6.543   6.529   6.666  0.6744 -0.7420  1.3386
    2SAPS   HN2  136   6.602   6.646   6.549  0.0734 -1.5380 -0.3286
    2SAPS   HN3  137   6.677   6.626   6.700 -0.6613 -0.1640  0.6335
    2SAPS   C12  138   6.504   6.733   6.702 -0.4331 -0.4992  0.4353
    2SAPS  H12A  139   6.405   6.703   6.672 -0.3349 -0.7317  0.3394
    2SAPS   C13  140   6.515   6.772   6.848  0.3381  0.5802  0.5463
    2SAPS  O13A  141   6.593   6.714   6.927  0.2260  0.4322  0.5147
    2SAPS  O13B  142   6.457   6.878   6.880 -0.0443 -0.4287  0.0386
    2SAPS   C11  143   6.545   6.865   6.614 -0.2337  0.2195  0.1182
    2SAPS  H11A  144   6.643   6.892   6.657 -0.7562  1.9394  0.2941
    2SAPS  H11B  145   6.474   6.948   6.635  1.5064  1.4883  1.1653
    2SAPS     P  146   6.632   6.933   6.382  0.2844  0.7236 -0.0535
    2SAPS   O13  147   6.600   7.076   6.422 -0.2055  0.4886 -0.2005
    2SAPS   O14  148   6.780   6.906   6.370  0.6181 -0.5333 -0.9328
    2SAPS   O12  149   6.564   6.830   6.478 -0.1605  0.1016 -0.3892
    2SAPS   O11  150   6.554   6.903   6.243  1.0290  0.5347  0.7828
    2SAPS    C1  151   6.410   6.887   6.227 -0.4053 -0.7630  1.0293
    2SAPS    HA  152   6.344   6.903   6.315 -2.7168 -1.7589 -0.4287
    2SAPS    HB  153   6.367   6.951   6.148  0.3148 -2.1079 -0.5179
    2SAPS    C2  154   6.381   6.745   6.192 -0.7874  0.0251  0.4553
    2SAPS    HS  155   6.405   6.676   6.276 -1.1330  0.8282  1.2328
    2SAPS   O21  156   6.453   6.701   6.072 -0.6188  0.0005  0.5379
    2SAPS   C21  157   6.550   6.617   6.079 -0.7536  0.4067 -0.4944
    2SAPS   O22  158   6.576   6.541   6.177 -0.2011 -0.4859  0.2866
    2SAPS   C22  159   6.626   6.626   5.945 -0.2656  1.0443  0.2330
    2SAPS   H2R  160   6.583   6.707   5.883  2.0986  1.7955 -0.5644
    2SAPS   H2S  161   6.733   6.656   5.951  0.5139 -0.7176 -2.7038
    2SAPS    C3  162   6.231   6.730   6.165  0.0840 -0.6365 -0.2773
    2SAPS    HX  163   6.203   6.812   6.096 -1.6074  0.7706  1.9152
    2SAPS    HY  164   6.191   6.752   6.267  0.3729 -1.6665  0.0660
    2SAPS   O31  165   6.183   6.594   6.127  0.0296 -0.1674  0.1932
    2SAPS   C31  166   6.178   6.571   5.996 -0.2235 -0.1552  0.2603
    2SAPS   O32  167   6.215   6.651   5.915 -0.0643  0.5928 -0.5268
    2SAPS   C32  168   6.125   6.435   5.966  0.3709  0.7454  0.1886
    2SAPS   H2X  169   6.057   6.413   6.050  1.4829  2.6560  1.6783
    2SAPS   H2Y  170   6.211   6.365   5.962 -0.5114 -0.3137 -0.6466
    2SAPS   C23  171   6.620   6.485   5.882  0.0797  0.7076 -0.7339
    2SAPS   H3R  172   6.520   6.438   5.896  0.8683 -0.2423  2.3496
    2SAPS   H3S  173   6.689   6.415   5.934 -0.0160  0.1526 -1.3344
    2SAPS   C24  174   6.677   6.482   5.737  0.3616 -0.8717  0.5012
    2SAPS   H4R  175   6.687   6.376   5.706  1.3785 -0.2930 -1.2568
    2SAPS   H4S  176   6.780   6.523   5.736  0.2940 -0.7151 -0.2066
    2SAPS   C25  177   6.591   6.568   5.646 -0.2895  0.0475 -0.2361
    2SAPS   H5R  178   6.626   6.671   5.632  0.1055 -0.3919 -2.9856
    2SAPS   C26  179   6.499   6.527   5.559 -0.3580 -0.6227  0.1192
    2SAPS   H6R  180   6.456   6.610   5.501  1.8298  0.3183 -0.2667
    2SAPS   C27  181   6.462   6.384   5.519 -0.5542 -0.1454  0.1195
    2SAPS   H7R  182   6.534   6.314   5.566  0.0082  0.6919  0.5221
    2SAPS   H7S  183   6.495   6.379   5.413 -0.7032 -0.9987  0.1117
    2SAPS   C28  184   6.320   6.351   5.537 -0.4356  0.1013  0.2554
    2SAPS   H8R  185   6.301   6.312   5.638  3.0442  0.4124  1.1466
    2SAPS   C29  186   6.216   6.372   5.452 -0.2244  0.2155 -0.7411
    2SAPS   H9R  187   6.119   6.336   5.490 -0.2591  0.5669 -0.4904
    2SAPS  C210  188   6.225   6.435   5.315 -0.0093 -0.2763  0.4124
    2SAPS  H10R  189   6.312   6.504   5.306  0.5119 -0.9152  0.4805
    2SAPS  H10S  190   6.140   6.506   5.309  0.9750  1.2981  3.0777
    2SAPS  C211  191   6.240   6.332   5.205  0.3203  0.4165 -0.5653
    2SAPS  H11R  192   6.282   6.237   5.239 -3.2936 -0.9266  0.6972
    2SAPS  C212  193   6.220   6.350   5.071  0.7804  0.1876 -0.2267
    2SAPS  H12R  194   6.234   6.263   5.005 -0.8152  0.7016 -1.2873
    2SAPS  C213  195   6.178   6.476   5.007 -0.0293 -0.0266 -0.5831
    2SAPS  H13R  196   6.238   6.489   4.914  0.2553 -0.7122 -0.5045
    2SAPS  H13S  197   6.192   6.562   5.075 -2.1159 -1.5676  1.9904
    2SAPS  C214  198   6.033   6.476   4.983 -0.5823  0.3188 -0.1757
    2SAPS  H14R  199   5.972   6.419   5.054  0.7246  0.8628  1.4580
    2SAPS  C215  200   5.969   6.533   4.880  0.2725 -0.1346 -0.7777
    2SAPS  H15R  201   5.860   6.525   4.872  0.1258  0.4505  0.5074
    2SAPS  C216  202   6.031   6.625   4.785 -0.3606 -0.2862  0.0200
    2SAPS  H16R  203   6.132   6.661   4.816  0.1321 -1.8715  0.3556
    2SAPS  H16S  204   5.976   6.722   4.775  2.2199  1.1554 -1.4572
    2SAPS  C217  205   6.055   6.558   4.644 -0.4059  0.3131 -0.7595
    2SAPS  H17R  206   5.956   6.541   4.597 -0.2073 -2.2659 -0.3791
    2SAPS  H17S  207   6.096   6.457   4.662 -0.5054  0.3823 -0.1176
    2SAPS  C218  208   6.158   6.633   4.557  0.3616  0.3329 -0.6340
    2SAPS  H18R  209   6.255   6.655   4.606  0.0861 -1.5042  0.8944
    2SAPS  H18S  210   6.116   6.732   4.533  2.4429  1.6398  0.7622
    2SAPS  C219  211   6.179   6.563   4.422  0.8947  0.6448 -0.1234
    2SAPS  H19R  212   6.082   6.576   4.370  1.7256 -0.2436 -2.0208
    2SAPS  H19S  213   6.195   6.453   4.431  1.3263  0.8130  1.4391
    2SAPS  C220  214   6.275   6.620   4.325 -0.2851  0.4179  0.0234
    2SAPS  H20R  215   6.239   6.716   4.281  0.2336 -0.0176 -1.3798
    2SAPS  H20S  216   6.274   6.547   4.242  2.7237  0.9247 -0.5738
    2SAPS  H20T  217   6.375   6.624   4.372 -0.2797  0.7058 -0.0077
    2SAPS   C33  218   6.038   6.425   5.842  0.4188  0.3777  0.9504
    2SAPS   H3X  219   6.076   6.484   5.756 -1.6395 -1.2718 -1.2165
    2SAPS   H3Y  220   5.938   6.462   5.872  0.0740 -0.9625  1.5531
    2SAPS   C34  221   6.036   6.280   5.786  0.3016  0.4838 -0.6986
    2SAPS   H4X  222   6.036   6.205   5.867  2.0818 -0.8524 -1.8647
    2SAPS   H4Y  223   6.132   6.269   5.730  0.5109  0.0823 -0.2618
    2SAPS   C35  224   5.905   6.249   5.705 -0.4438 -0.5525  1.2005
    2SAPS   H5X  225   5.875   6.331   5.637  0.0138 -1.3419  0.0088
    2SAPS   H5Y  226   5.819   6.226   5.772 -0.7746 -1.1278  0.5929
    2SAPS   C36  227   5.925   6.122   5.618  0.5476 -0.5414 -0.4986
    2SAPS   H6X  228   5.943   6.032   5.681 -0.8720 -1.9507 -2.0167
    2SAPS   H6Y  229   6.020   6.130   5.561  2.3034 -0.0773  2.3020
    2SAPS   C37  230   5.799   6.096   5.533 -0.9088 -0.3013  0.1798
    2SAPS   H7X  231   5.804   6.169   5.449  1.0322 -1.0847 -0.4467
    2SAPS   H7Y  232   5.713   6.118   5.599 -0.1676 -1.0018  1.4145
    2SAPS   C38  233   5.784   5.964   5.466  0.9831  0.2279 -0.0002
    2SAPS   H8X  234   5.695   5.971   5.401  0.5355  1.9908  0.7322
    2SAPS   H8Y  235   5.771   5.894   5.552  0.3541  1.0073  0.5530
    2SAPS   C39  236   5.892   5.897   5.382  0.0171  0.8471 -0.3784
    2SAPS   H9X  237   5.867   5.795   5.345 -0.3477  0.8374 -0.1113
    2SAPS   H9Y  238   5.984   5.884   5.444  1.1459  0.8047 -1.9941
    2SAPS  C310  239   5.941   5.977   5.265 -0.2701 -0.6326 -0.4104
    2SAPS  H10X  240   5.993   6.069   5.299  1.0816 -1.7979  0.8389
    2SAPS  H10Y  241   5.849   6.002   5.209 -0.8190 -2.3422 -0.3469
    2SAPS  C311  242   6.030   5.908   5.164  0.5682 -0.3404 -0.2319
    2SAPS  H11X  243   5.975   5.817   5.131  2.2300 -0.6193 -2.4967
    2SAPS  H11Y  244   6.129   5.889   5.212  0.6489 -1.4996 -0.8245
    2SAPS  C312  245   6.043   6.001   5.043  0.0563  0.1229 -0.0575
    2SAPS  H12X  246   6.115   6.082   5.068  1.7214 -1.4603  0.5172
    2SAPS  H12Y  247   5.942   6.041   5.020 -1.2874 -0.5844  3.8099
    2SAPS  C313  248   6.101   5.938   4.914 -0.0781  0.6822  0.4657
    2SAPS  H13X  249   6.029   5.867   4.869  1.8204 -0.9214 -0.1807
    2SAPS  H13Y  250   6.182   5.873   4.953  2.1952  2.7389 -0.5637
    2SAPS  C314  251   6.149   6.029   4.801  0.1133 -0.4991 -0.3758
    2SAPS  H14X  252   6.224   6.096   4.849  0.5855 -1.8759  0.8607
    2SAPS  H14Y  253   6.070   6.092   4.755 -0.6215 -2.1160 -1.3875
    2SAPS  C315  254   6.193   5.948   4.684 -0.0009  0.4645  0.7122
    2SAPS  H15X  255   6.109   5.898   4.632  0.5901  0.4641 -0.2743
    2SAPS  H15Y  256   6.262   5.873   4.728 -0.0617  0.2017  0.3629
    2SAPS  C316  257   6.272   6.044   4.583  0.7358  0.5631 -0.2941
    2SAPS  H16X  258   6.294   5.971   4.503 -2.8325  0.9891 -1.8593
    2SAPS  H16Y  259   6.357   6.089   4.638  0.4998 -0.8282  1.2757
    2SAPS  C317  260   6.189   6.163   4.533  0.9779  0.2571  0.0383
    2SAPS  H17X  261   6.253   6.224   4.466 -0.0922  1.8269  0.3935
    2SAPS  H17Y  262   6.170   6.227   4.622  2.4576 -0.7704  1.1374
    2SAPS  C318  263   6.062   6.117   4.461 -0.4813 -0.1281 -0.1405
    2SAPS  H18X  264   6.001   6.049   4.525  0.8332  0.7629  2.1851
    2SAPS  H18Y  265   6.090   6.066   4.367  1.3756 -1.2161  0.9416
    2SAPS  H18Z  266   6.002   6.207   4.434  2.1699  1.1938 -2.0542
    3SAPS     N  267   0.562   2.761   6.442  0.0583 -0.1302 -0.8275
    3SAPS   HN1  268   0.632   2.825   6.398 -0.5438 -0.0058 -1.6335
    3SAPS   HN2  269   0.569   2.677   6.381  2.3016 -0.5236 -0.1362
    3SAPS   HN3  270   0.468   2.804   6.431  0.7836  1.8571  0.1334
    3SAPS   C12  271   0.589   2.726   6.583  0.4837  0.1065 -0.4167
    3SAPS  H12A  272   0.674   2.659   6.579  1.5108  1.2422  1.1996
    3SAPS   C13  273   0.635   2.836   6.681  0.1715  0.3527 -0.9971
    3SAPS  O13A  274   0.664   2.952   6.637  0.3242  0.3436 -0.0997
    3SAPS  O13B  275   0.674   2.802   6.797 -0.2386  0.4056  0.1241
    3SAPS   C11  276   0.462   2.650   6.649 -0.4426 -0.1865  0.8929
    3SAPS  H11A  277   0.376   2.721   6.647  0.6117  1.1563 -1.6946
    3SAPS  H11B  278   0.497   2.638   6.754 -0.2400 -1.6610  0.6808
    3SAPS     P  279   0.320   2.436   6.645 -0.3247 -0.1791 -0.1951
    3SAPS   O13  280   0.358   2.298   6.651 -0.6267  0.2150 -0.1413
    3SAPS   O14  281   0.278   2.491   6.780 -0.3311  0.1329  0.0802
    3SAPS   O12  282   0.438   2.516   6.587 -0.4671 -0.2679 -0.2708
    3SAPS   O11  283   0.205   2.452   6.551  0.3614 -0.4827 -0.0873
    3SAPS    C1  284   0.201   2.540   6.437 -0.0726  0.3852  0.3281
    3SAPS    HA  285   0.097   2.579   6.433 -0.6478 -0.8940  1.7701
    3SAPS    HB  286   0.278   2.620   6.444  2.7507 -1.9506 -1.2297
    3SAPS    C2  287   0.223   2.470   6.299 -0.0124  0.4839 -0.3042
    3SAPS    HS  288   0.317   2.414   6.316 -0.2883  0.0140 -0.3070
    3SAPS   O21  289   0.251   2.551   6.180  0.8693 -0.1963 -0.2383
    3SAPS   C21  290   0.372   2.603   6.175 -0.2541 -0.1293  0.2900
    3SAPS   O22  291   0.464   2.583   6.254 -0.4894  0.2123 -0.3457
    3SAPS   C22  292   0.388   2.672   6.038  0.0643  0.1499  0.0618
    3SAPS   H2R  293   0.290   2.702   5.995  1.4074  2.2038 -1.8090
    3SAPS   H2S  294   0.423   2.776   6.058 -3.3162  1.8305 -1.8146
    3SAPS    C3  295   0.101   2.387   6.266  0.4492  0.1653  0.0708
    3SAPS    HX  296   0.005   2.444   6.271 -0.4505 -1.2613 -0.2463
    3SAPS    HY  297   0.081   2.308   6.342  0.3825 -0.0365 -0.1586
    3SAPS   O31  298   0.112   2.324   6.140 -0.1488 -0.5089  0.3369
    3SAPS   C31  299   0.219   2.260   6.116  0.5058  0.3247 -1.3981
    3SAPS   O32  300   0.283   2.198   6.197  0.4795  0.2576 -0.0055
    3SAPS   C32  301   0.261   2.288   5.972 -0.1563  0.2949  0.0737
    3SAPS   H2X  302   0.372   2.289   5.969 -0.0381  1.8691  2.4191
    3SAPS   H2Y  303   0.211   2.379   5.930  0.1476  2.0519  3.2213
    3SAPS   C23  304   0.472   2.598   5.937 -0.6747 -0.1567  0.8293
    3SAPS   H3R  305   0.487   2.492   5.967 -1.4166 -0.6647 -0.4967
    3SAPS   H3S  306   0.571   2.647   5.934  0.8996 -3.1596 -0.5598
    3SAPS   C24  307   0.410   2.609   5.794  0.1730  0.3408 -0.0172
    3SAPS   H4R  308   0.429   2.715   5.769 -0.6068  1.5038  3.7555
    3SAPS   H4S  309   0.301   2.589   5.786  0.2312  0.3897 -1.0503
    3SAPS   C25  310   0.472   2.511   5.696 -0.0989  0.3872 -1.0232
    3SAPS   H5R  311   0.429   2.410   5.694 -3.1159  1.5700 -1.5504
    3SAPS   C26  312   0.579   2.549   5.620 -0.0108  1.2653  0.3148
    3SAPS   H6R  313   0.620   2.468   5.558  0.1292  1.8843 -0.4126
    3SAPS   C27  314   0.651   2.681   5.608  0.0775  0.4992 -0.3593
    3SAPS   H7R  315   0.749   2.683   5.661  2.1505 -1.4607 -3.6863
    3SAPS   H7S  316   0.592   2.759   5.659 -1.3367 -3.0357  4.0950
    3SAPS   C28  317   0.669   2.717   5.467 -0.3941  0.4267  0.4292
    3SAPS   H8R  318   0.772   2.718   5.429 -1.4976 -0.0584 -2.9063
    3SAPS   C29  319   0.584   2.758   5.370  0.2842  0.2894 -0.2933
    3SAPS   H9R  320   0.624   2.777   5.269 -1.6678 -0.3287 -1.2459
    3SAPS  C210  321   0.440   2.762   5.379  0.3498 -0.2910  0.2473
    3SAPS  H10R  322   0.408   2.867   5.362 -0.9000 -0.1779  2.7000
    3SAPS  H10S  323   0.404   2.739   5.482 -0.3769  1.0816  0.3275
    3SAPS  C211  324   0.398   2.662   5.273  0.4985 -0.0108  0.2008
    3SAPS  H11R  325   0.351   2.571   5.313 -0.6981  0.4898 -0.0020
    3SAPS  C212  326   0.383   2.688   5.141 -0.3910  1.2365  0.3300
    3SAPS  H12R  327   0.341   2.618   5.066 -1.1864 -0.2792  2.1081
    3SAPS  C213  328   0.427   2.813   5.069  1.1966 -0.2807  1.2137
    3SAPS  H13R  329   0.518   2.801   5.006 -1.0052  0.1287 -2.2932
    3SAPS  H13S  330   0.461   2.892   5.139 -1.0017  0.9495  0.9651
    3SAPS  C214  331   0.309   2.855   4.970 -0.2807  0.2471  0.4587
    3SAPS  H14R  332   0.212   2.869   5.019 -0.5546 -1.2534  0.4017
    3SAPS  C215  333   0.318   2.859   4.838 -0.3426  0.1923  0.3201
    3SAPS  H15R  334   0.222   2.874   4.785 -1.2779 -0.4568  1.7907
    3SAPS  C216  335   0.433   2.838   4.736 -0.3906  0.0507 -0.1206
    3SAPS  H16R  336   0.426   2.736   4.692  2.2102  0.2180 -1.0915
    3SAPS  H16S  337   0.535   2.853   4.779 -0.3568 -1.4954  0.4141
    3SAPS  C217  338   0.428   2.946   4.627  0.6947  0.1964 -0.2457
    3SAPS  H17R  339   0.426   3.042   4.683  0.0011 -0.0120  0.0859
    3SAPS  H17S  340   0.333   2.929   4.573  0.9519  1.2213 -1.0602
    3SAPS  C218  341   0.540   2.930   4.525  0.0896  0.0096  0.1322
    3SAPS  H18R  342   0.628   2.912   4.590 -0.8446  0.2423  1.5018
    3SAPS  H18S  343   0.539   3.019   4.458  0.3608 -0.1157 -0.0366
    3SAPS  C219  344   0.531   2.806   4.435  0.6090 -0.4474 -1.1317
    3SAPS  H19R  345   0.555   2.718   4.498  1.3981  0.4804 -0.0905
    3SAPS  H19S  346   0.425   2.805   4.400  0.2926 -0.2249 -0.2027
    3SAPS  C220  347   0.626   2.819   4.320  0.3275 -0.4921 -0.1008
    3SAPS  H20R  348   0.725   2.866   4.339  0.1454  0.1137 -0.6144
    3SAPS  H20S  349   0.579   2.893   4.251 -1.0586 -0.5038  0.7806
    3SAPS  H20T  350   0.642   2.720   4.274  1.0018 -0.5817  0.3225
    3SAPS   C33  351   0.204   2.174   5.879 -0.1305  0.8074 -0.6996
    3SAPS   H3X  352   0.093   2.172   5.882 -0.1060 -0.5289  0.1677
    3SAPS   H3Y  353   0.234   2.075   5.919 -1.3391  1.5692  2.3613
    3SAPS   C34  354   0.261   2.186   5.740 -0.5475 -0.4045  0.2104
    3SAPS   H4X  355   0.370   2.190   5.764  0.2910  0.8149 -3.2888
    3SAPS   H4Y  356   0.230   2.282   5.692  0.0241  0.8424  2.1904
    3SAPS   C35  357   0.235   2.066   5.651  0.4645  0.4300  0.3247
    3SAPS   H5X  358   0.235   1.976   5.716  0.0795 -1.6296 -2.3299
    3SAPS   H5Y  359   0.131   2.085   5.617  0.8340  1.2701 -0.3905
    3SAPS   C36  360   0.340   2.049   5.536 -0.1785  0.8285 -0.2905
    3SAPS   H6X  361   0.325   1.951   5.485 -2.3333  2.7680 -3.8521
    3SAPS   H6Y  362   0.433   2.050   5.596 -1.3416 -1.6461  1.7373
    3SAPS   C37  363   0.345   2.159   5.426  0.0523 -0.6527  0.0161
    3SAPS   H7X  364   0.262   2.231   5.446 -0.3980 -1.1413 -0.0690
    3SAPS   H7Y  365   0.335   2.113   5.325 -1.2120 -0.5759  0.0817
    3SAPS   C38  366   0.474   2.244   5.413 -0.1076 -0.2378  0.2339
    3SAPS   H8X  367   0.554   2.177   5.452 -0.7341 -1.1871 -0.0834
    3SAPS   H8Y  368   0.464   2.333   5.479  0.9451  1.3577 -1.6455
    3SAPS   C39  369   0.500   2.301   5.276 -0.2445 -0.0355 -0.5513
    3SAPS   H9X  370   0.416   2.367   5.248  0.9132  2.0522  0.6466
    3SAPS   H9Y  371   0.513   2.216   5.206 -0.4522 -0.6747  0.1671
    3SAPS  C310  372   0.630   2.384   5.271 -0.1669 -0.2441  0.7240
    3SAPS  H10X  373   0.710   2.316   5.306  1.1352 -0.3960 -2.2532
    3SAPS  H10Y  374   0.619   2.470   5.340  1.2695  0.6956 -0.1632
    3SAPS  C311  375   0.663   2.422   5.125 -0.0946 -0.0169  0.1837
    3SAPS  H11X  376   0.768   2.458   5.129  0.1360 -0.3449 -1.6534
    3SAPS  H11Y  377   0.595   2.502   5.089  0.6093  0.2482 -0.6014
    3SAPS  C312  378   0.664   2.314   5.017 -0.1135  0.0187  0.0852
    3SAPS  H12X  379   0.568   2.258   5.012 -0.1073  0.0917 -0.9474
    3SAPS  H12Y  380   0.738   2.235   5.045 -0.9370 -0.3831  1.2259
    3SAPS  C313  381   0.694   2.385   4.885  0.0705 -0.3391 -0.1396
    3SAPS  H13X  382   0.805   2.398   4.883  0.0680 -0.2476  0.2254
    3SAPS  H13Y  383   0.653   2.488   4.884  1.7158  0.3907  1.1270
    3SAPS  C314  384   0.652   2.305   4.761  0.6557 -0.4023  0.2809
    3SAPS  H14X  385   0.691   2.201   4.767 -0.2848 -0.8402 -0.8130
    3SAPS  H14Y  386   0.703   2.350   4.674 -4.1458  0.2290 -2.5776
    3SAPS  C315  387   0.501   2.310   4.729 -0.1357  0.2683 -0.1707
    3SAPS  H15X  388   0.477   2.418   4.720 -0.2872  0.1931 -0.6927
    3SAPS  H15Y  389   0.441   2.262   4.810  0.4732 -0.1643  0.0329
    3SAPS  C316  390   0.455   2.246   4.596 -0.2226  0.4767  0.4059
    3SAPS  H16X  391   0.473   2.296   4.499 -0.7837  1.5475  0.8334
    3SAPS  H16Y  392   0.347   2.250   4.621 -0.1333 -2.6288  1.8110
    3SAPS  C317  393   0.482   2.100   4.585  0.0114  0.0474  0.4601
    3SAPS  H17X  394   0.380   2.056   4.592 -0.7320  1.0985 -2.3519
    3SAPS  H17Y  395   0.548   2.065   4.667 -0.8782 -1.5664  0.5302
    3SAPS  C318  396   0.548   2.049   4.461  0.5997  0.1973 -0.1606
    3SAPS  H18X  397   0.649   2.093   4.450 -0.7999  4.5904  2.4253
    3SAPS  H18Y  398   0.493   2.082   4.370  1.0354 -0.9661 -0.8652
    3SAPS  H18Z  399   0.564   1.939   4.450  0.5460  0.1287  0.4120
    4SAPS     N  400   2.970   1.622   7.008  0.0169 -0.3664 -0.8698
    4SAPS   HN1  401   3.000   1.522   7.001 -0.1710 -0.4082 -1.0822
    4SAPS   HN2  402   3.010   1.659   6.920  0.4470 -1.6193 -1.2224
    4SAPS   HN3  403   3.020   1.677   7.080 -0.1883  0.9876 -1.7385
    4SAPS   C12  404   2.822   1.632   6.999 -0.6522  0.5173  0.5872
    4SAPS  H12A  405   2.782   1.536   7.030 -0.8056  0.1846 -0.6003
    4SAPS   C13  406   2.753   1.739   7.086 -1.0573  0.0066  0.0564
    4SAPS  O13A  407   2.818   1.818   7.157  0.1245  0.1351 -0.1740
    4SAPS  O13B  408   2.625   1.730   7.089 -0.1191  0.4124 -0.4167
    4SAPS   C11  409   2.783   1.654   6.850  0.1067 -0.3315 -0.0886
    4SAPS  H11A  410   2.802   1.759   6.821 -0.2740 -0.5953 -1.3368
    4SAPS  H11B  411   2.674   1.635   6.836  0.4776 -0.7175 -2.8668
    4SAPS     P  412   2.784   1.473   6.659 -0.3465 -0.2902  0.0458
    4SAPS   O13  413   2.814   1.332   6.692  0.3544  0.2663 -0.7558
    4SAPS   O14  414   2.639   1.508   6.646 -0.3402 -0.5928 -0.4003
    4SAPS   O12  415   2.850   1.559   6.772  0.3009 -0.1713  0.3345
    4SAPS   O11  416   2.860   1.504   6.526 -0.3682  0.1161  0.1003
    4SAPS    C1  417   2.909   1.635   6.499 -0.8835  0.0250 -0.3071
    4SAPS    HA  418   2.938   1.693   6.589 -1.4791  1.0329 -0.7583
    4SAPS    HB  419   3.007   1.620   6.448 -0.1398 -0.6582  1.2556
    4SAPS    C2  420   2.823   1.718   6.403  0.2940 -0.1900  0.1525
    4SAPS    HS  421   2.719   1.715   6.440  0.0104 -0.1840 -0.6214
    4SAPS   O21  422   2.819   1.655   6.279  0.1187  0.5580  0.5225
    4SAPS   C21  423   2.724   1.684   6.195  0.4497  0.0798  0.1345
    4SAPS   O22  424   2.615   1.734   6.220 -0.5996 -0.5086 -0.0799
    4SAPS   C22  425   2.777   1.662   6.052 -0.2735 -0.0266  0.0448
    4SAPS   H2R  426   2.689   1.652   5.985 -0.7829 -2.8415  1.0031
    4SAPS   H2S  427   2.843   1.750   6.037 -3.2101  2.2261 -0.5818
    4SAPS    C3  428   2.864   1.866   6.382  0.3934 -0.1565  0.3403
    4SAPS    HX  429   2.944   1.900   6.451  2.3815  2.7737 -3.0637
    4SAPS    HY  430   2.778   1.931   6.409  1.2187  0.8029  0.7007
    4SAPS   O31  431   2.909   1.899   6.248  0.4427  0.2610  0.6206
    4SAPS   C31  432   3.027   1.868   6.213 -0.3920 -0.5356 -0.2618
    4SAPS   O32  433   3.113   1.803   6.274  0.0564  0.2856  0.2455
    4SAPS   C32  434   3.055   1.934   6.084 -1.1096 -0.0875  0.9310
    4SAPS   H2X  435   3.019   2.039   6.079  2.0966  1.0634 -2.0275
    4SAPS   H2Y  436   2.996   1.883   6.004 -1.5216  2.0706 -0.2038
    4SAPS   C23  437   2.867   1.535   6.039 -0.0355 -0.4422 -0.5859
    4SAPS   H3R  438   2.829   1.442   6.087 -2.9997  0.2721 -1.3253
    4SAPS   H3S  439   2.960   1.561   6.094 -0.5160 -1.9927  1.0536
    4SAPS   C24  440   2.882   1.508   5.892  0.0005  0.0918 -0.4672
    4SAPS   H4R  441   2.788   1.486   5.836 -0.4867 -0.2838  0.4708
    4SAPS   H4S  442   2.935   1.412   5.885  1.0766  0.3851  2.3252
    4SAPS   C25  443   2.962   1.614   5.817  0.1075  0.0855 -0.2995
    4SAPS   H5R  444   3.066   1.638   5.846 -0.2330  1.4970 -0.1830
    4SAPS   C26  445   2.920   1.673   5.706 -0.4148 -0.1410 -0.1203
    4SAPS   H6R  446   2.978   1.752   5.654  0.6530 -1.3796 -0.8748
    4SAPS   C27  447   2.785   1.656   5.640 -0.0326 -0.0139  0.4273
    4SAPS   H7R  448   2.754   1.756   5.600 -0.8761 -0.3480  0.2082
    4SAPS   H7S  449   2.717   1.632   5.725  2.2267 -3.1502  1.5225
    4SAPS   C28  450   2.777   1.543   5.537  0.4072  0.7431  0.5473
    4SAPS   H8R  451   2.769   1.441   5.577 -0.1521  1.3441  2.0386
    4SAPS   C29  452   2.797   1.554   5.401 -0.8872 -0.0872 -0.1903
    4SAPS   H9R  453   2.799   1.460   5.344  0.6297 -0.7997  0.9388
    4SAPS  C210  454   2.811   1.680   5.321  0.6851  0.2579  0.1746
    4SAPS  H10R  455   2.917   1.681   5.290  1.0889  1.6280  1.5143
    4SAPS  H10S  456   2.807   1.775   5.378  1.5605 -0.5079  1.5548
    4SAPS  C211  457   2.711   1.687   5.212 -0.7027 -0.0357 -0.7254
    4SAPS  H11R  458   2.615   1.713   5.258 -0.6115 -2.1175  0.7730
    4SAPS  C212  459   2.732   1.668   5.084 -0.5142  0.6928  0.4015
    4SAPS  H12R  460   2.640   1.679   5.025  0.2601  1.7253 -0.6598
    4SAPS  C213  461   2.864   1.634   5.016 -0.3652  0.8045  0.0183
    4SAPS  H13R  462   2.928   1.586   5.094 -0.9335 -1.3346 -0.7542
    4SAPS  H13S  463   2.914   1.731   4.997  0.8796  0.4173  1.1280
    4SAPS  C214  464   2.846   1.542   4.902  1.0960 -0.4835  0.1428
    4SAPS  H14R  465   2.814   1.441   4.932 -2.4348  0.4503 -0.0916
    4SAPS  C215  466   2.859   1.573   4.771 -0.4095  0.0950 -0.5315
    4SAPS  H15R  467   2.847   1.493   4.697 -1.8734  0.8623 -1.1718
    4SAPS  C216  468   2.903   1.704   4.713 -0.3341  0.4915  0.2413
    4SAPS  H16R  469   3.013   1.704   4.706 -0.4362  0.4501 -1.9934
    4SAPS  H16S  470   2.875   1.786   4.783 -0.9086  0.5823 -0.0882
    4SAPS  C217  471   2.837   1.748   4.575 -0.0275  0.8148  0.4803
    4SAPS  H17R  472   2.872   1.851   4.550  1.7318  0.6628  2.0733
    4SAPS  H17S  473   2.728   1.764   4.590  0.0802  1.4850  0.5925
    4SAPS  C218  474   2.859   1.641   4.460 -0.2554 -0.1052  0.1861
    4SAPS  H18R  475   2.812   1.687   4.370  0.3717 -1.0876 -0.6693
    4SAPS  H18S  476   2.821   1.540   4.487  0.2552 -0.2471  0.3761
    4SAPS  C219  477   3.006   1.612   4.426  0.3404  0.6688 -0.3724
    4SAPS  H19R  478   3.055   1.580   4.521 -2.6239 -1.4570  0.6141
    4SAPS  H19S  479   3.060   1.705   4.403  0.4232  0.3774 -1.4082
    4SAPS  C220  480   3.007   1.517   4.311  0.4174  0.7281  0.3400
    4SAPS  H20R  481   2.948   1.427   4.336  0.5655  0.8414  1.1337
    4SAPS  H20S  482   3.112   1.494   4.282  0.4723  1.7176 -0.3354
    4SAPS  H20T  483   2.963   1.564   4.220 -0.7472  1.3559  1.2017
    4SAPS   C33  484   3.206   1.941   6.044  0.0118  0.3948 -0.6669
    4SAPS   H3X  485   3.253   1.842   6.060  0.0352  0.8233  2.7150
    4SAPS   H3Y  486   3.247   2.013   6.118 -0.7872 -0.3845  0.5681
    4SAPS   C34  487   3.235   1.990   5.899 -0.1631  0.0416 -0.5847
    4SAPS   H4X  488   3.344   1.996   5.880 -0.1135  1.2110 -0.0180
    4SAPS   H4Y  489   3.181   2.086   5.892 -2.4475 -0.9033  2.2937
    4SAPS   C35  490   3.193   1.893   5.783 -0.7907 -0.1138  0.1281
    4SAPS   H5X  491   3.082   1.896   5.777 -0.8607 -1.5904  0.4109
    4SAPS   H5Y  492   3.221   1.791   5.817  0.8917 -0.1310 -1.1389
    4SAPS   C36  493   3.254   1.924   5.646 -0.5849  0.4364  0.8939
    4SAPS   H6X  494   3.356   1.880   5.651 -0.5684  0.5816  2.4070
    4SAPS   H6Y  495   3.268   2.034   5.640  1.6769  0.1426 -0.1311
    4SAPS   C37  496   3.184   1.874   5.513  0.4102 -0.8138 -0.3263
    4SAPS   H7X  497   3.078   1.907   5.520  0.4068 -1.1385  2.3938
    4SAPS   H7Y  498   3.200   1.765   5.503  4.0193 -0.4982  0.5294
    4SAPS   C38  499   3.248   1.925   5.383  0.4938 -0.4487 -0.1563
    4SAPS   H8X  500   3.344   1.870   5.380  1.0987  0.6253 -1.8586
    4SAPS   H8Y  501   3.272   2.033   5.381 -0.3766 -0.2579 -1.9933
    4SAPS   C39  502   3.160   1.890   5.255 -0.7580 -0.5353 -0.3791
    4SAPS   H9X  503   3.056   1.916   5.282 -0.4914  0.6603 -0.4440
    4SAPS   H9Y  504   3.178   1.782   5.238  0.0298 -0.3775 -0.5775
    4SAPS  C310  505   3.211   1.984   5.144 -0.2283 -0.0278 -0.3055
    4SAPS  H10X  506   3.322   1.983   5.135 -0.0485  1.0048  1.3132
    4SAPS  H10Y  507   3.197   2.087   5.185  1.8222  0.0122  0.4389
    4SAPS  C311  508   3.144   1.951   5.020 -0.0777 -0.9029  0.2355
    4SAPS  H11X  509   3.034   1.953   5.033  0.0015  0.0107  0.8567
    4SAPS  H11Y  510   3.178   1.849   4.991  1.4989  0.1771 -1.9971
    4SAPS  C312  511   3.190   2.053   4.905  0.1821 -0.5096 -0.4411
    4SAPS  H12X  512   3.300   2.045   4.889  1.0795 -0.8543  4.2472
    4SAPS  H12Y  513   3.180   2.158   4.942 -0.4100 -0.6524 -0.1832
    4SAPS  C313  514   3.115   2.043   4.773 -0.1300 -0.1807 -0.7624
    4SAPS  H13X  515   3.016   2.090   4.793  0.6621  0.6158  1.6489
    4SAPS  H13Y  516   3.108   1.940   4.732 -0.3404 -0.8532  0.8797
    4SAPS  C314  517   3.184   2.134   4.663 -0.1036 -0.3452  0.3745
    4SAPS  H14X  518   3.285   2.089   4.657 -0.4418 -2.0276  4.3948
    4SAPS  H14Y  519   3.198   2.237   4.702  2.2540 -0.4359 -0.1075
    4SAPS  C315  520   3.106   2.145   4.536  0.4073 -0.8260  0.1040
    4SAPS  H15X  521   2.999   2.169   4.553  1.0247  0.4414  2.7172
    4SAPS  H15Y  522   3.105   2.049   4.480  3.1267 -2.0605  1.9738
    4SAPS  C316  523   3.157   2.258   4.445 -0.2098 -0.4109  0.1878
    4SAPS  H16X  524   3.249   2.213   4.400  1.1705  1.3136  1.1631
    4SAPS  H16Y  525   3.184   2.350   4.501 -1.7870 -0.1046  0.5036
    4SAPS  C317  526   3.057   2.291   4.334 -0.5394  0.4998  0.1662
    4SAPS  H17X  527   2.963   2.339   4.366  0.0711  1.6537  0.2969
    4SAPS  H17Y  528   3.027   2.195   4.286 -1.0397  0.6762  0.1316
    4SAPS  C318  529   3.125   2.375   4.234  0.4706 -0.5355  0.2089
    4SAPS  H18X  530   3.206   2.325   4.178 -1.0986 -1.2386 -1.5460
    4SAPS  H18Y  531   3.165   2.469   4.277  0.2965 -0.4942  0.2823
    4SAPS  H18Z  532   3.046   2.398   4.159 -0.5157  1.6106  1.7781
    5SAPS     N  533   6.375   5.128   6.722  0.0199  0.5039  0.2712
    5SAPS   HN1  534   6.460   5.145   6.779  0.1004 -2.4215  1.1888
    5SAPS   HN2  535   6.338   5.033   6.743 -0.3008  0.7712  0.9544
    5SAPS   HN3  536   6.392   5.136   6.620 -2.0593  0.0142 -0.1672
    5SAPS   C12  537   6.261   5.226   6.749  0.1948  0.5260  0.6588
    5SAPS  H12A  538   6.259   5.228   6.857 -1.9376 -3.3200  0.8826
    5SAPS   C13  539   6.290   5.375   6.694  0.1128  0.1694 -0.0698
    5SAPS  O13A  540   6.403   5.404   6.655  0.0778  0.4662 -0.4522
    5SAPS  O13B  541   6.203   5.460   6.715  0.0383 -0.5456  0.2025
    5SAPS   C11  542   6.118   5.188   6.683 -0.4619  0.2389  0.3878
    5SAPS  H11A  543   6.114   5.210   6.575  1.4793  0.2082  0.2785
    5SAPS  H11B  544   6.052   5.261   6.735  2.0512  2.3845  0.7364
    5SAPS     P  545   5.989   4.962   6.657 -0.0502  0.0840 -0.0481
    5SAPS   O13  546   6.041   4.829   6.641 -0.3334  0.1005 -0.3056
    5SAPS   O14  547   5.872   4.970   6.746 -0.1876  0.1592 -1.0124
    5SAPS   O12  548   6.101   5.056   6.723  0.7691  0.3407  0.2848
    5SAPS   O11  549   5.958   5.018   6.517 -0.3820  0.1869 -0.2222
    5SAPS    C1  550   6.047   5.014   6.408 -0.1155 -0.6035  0.2432
    5SAPS    HA  551   6.050   5.116   6.364 -0.3838  0.1804  1.9508
    5SAPS    HB  552   6.151   4.994   6.442 -0.6313 -1.5598  1.3267
    5SAPS    C2  553   6.000   4.920   6.293 -0.1718 -0.3351  0.1284
    5SAPS    HS  554   6.078   4.928   6.213 -1.8584 -1.5129 -1.7195
    5SAPS   O21  555   5.874   4.939   6.243 -0.1311  0.1729  0.0274
    5SAPS   C21  556   5.866   5.024   6.148  0.1432 -0.3009 -0.3669
    5SAPS   O22  557   5.958   5.082   6.092 -0.3956 -0.3617  0.5069
    5SAPS   C22  558   5.720   5.044   6.112 -0.4575 -0.7570 -0.5327
    5SAPS   H2R  559   5.657   4.988   6.185 -1.8743  1.0381 -0.2929
    5SAPS   H2S  560   5.705   5.154   6.115 -2.5418 -0.8954 -2.5377
    5SAPS    C3  561   6.014   4.765   6.327  0.3339 -0.0062 -0.0256
    5SAPS    HX  562   5.943   4.750   6.411  1.1340  1.1575  0.8955
    5SAPS    HY  563   6.117   4.759   6.369  0.8500  0.7926 -1.1092
    5SAPS   O31  564   5.996   4.675   6.210 -0.1594  0.4039  0.4429
    5SAPS   C31  565   5.881   4.591   6.222 -0.5229  0.1533  0.2874
    5SAPS   O32  566   5.813   4.591   6.322 -0.3420  0.0750  0.0108
    5SAPS   C32  567   5.854   4.508   6.101  0.4285 -0.8613  0.0465
    5SAPS   H2X  568   5.894   4.556   6.009 -1.5925  0.7436 -0.0687
    5SAPS   H2Y  569   5.743   4.511   6.093  0.2926  0.0798  1.7374
    5SAPS   C23  570   5.683   4.986   5.971  0.1999 -0.5070  0.0150
    5SAPS   H3R  571   5.697   4.876   5.961 -1.8190 -0.6970 -1.4921
    5SAPS   H3S  572   5.749   5.023   5.891 -2.0806 -0.6860 -2.0582
    5SAPS   C24  573   5.540   5.035   5.949 -0.1194 -0.6937  0.2597
    5SAPS   H4R  574   5.517   5.046   5.840  1.0954  2.1757  0.2062
    5SAPS   H4S  575   5.540   5.142   5.982 -1.6804 -1.3746  2.7434
    5SAPS   C25  576   5.439   4.954   6.023  0.3241 -0.2169  0.8829
    5SAPS   H5R  577   5.486   4.895   6.103 -1.1220 -1.8242  0.6057
    5SAPS   C26  578   5.309   4.938   5.998 -0.7271 -0.2728 -0.0205
    5SAPS   H6R  579   5.247   4.867   6.055 -2.9193  1.0538 -0.5993
    5SAPS   C27  580   5.238   4.995   5.875  0.8431 -1.0228  0.3250
    5SAPS   H7R  581   5.158   4.927   5.839  1.1692 -0.6587 -1.1679
    5SAPS   H7S  582   5.310   5.001   5.791 -0.6651  1.2869 -0.9119
    5SAPS   C28  583   5.182   5.133   5.895  0.3346  0.1271 -0.7253
    5SAPS   H8R  584   5.149   5.164   5.996  0.6146 -1.1831 -0.2127
    5SAPS   C29  585   5.155   5.212   5.783 -0.6957 -0.5933  0.0673
    5SAPS   H9R  586   5.095   5.303   5.795  1.3175  0.6490  1.4566
    5SAPS  C210  587   5.197   5.160   5.645  0.6853 -1.0271 -0.0879
    5SAPS  H10R  588   5.170   5.053   5.629  0.7297 -1.1345  0.5318
    5SAPS  H10S  589   5.307   5.174   5.636  0.5969  0.2792  0.6610
    5SAPS  C211  590   5.141   5.263   5.540  0.4108  0.6120 -0.3936
    5SAPS  H11R  591   5.073   5.342   5.576 -0.8851 -1.0242  0.8699
    5SAPS  C212  592   5.157   5.258   5.408 -0.4033 -0.5613  0.0963
    5SAPS  H12R  593   5.102   5.336   5.353 -0.6102 -1.6841 -1.3466
    5SAPS  C213  594   5.242   5.173   5.316  0.0195 -0.6400 -0.3549
    5SAPS  H13R  595   5.314   5.101   5.361  0.3235  0.1917  0.5083
    5SAPS  H13S  596   5.308   5.236   5.253 -0.9852 -0.9897 -1.8154
    5SAPS  C214  597   5.151   5.090   5.227  0.1765  0.0627  0.3498
    5SAPS  H14R  598   5.116   4.995   5.271 -0.5163  0.2628  0.2459
    5SAPS  C215  599   5.111   5.126   5.105  1.0727  0.3714 -0.4405
    5SAPS  H15R  600   5.041   5.054   5.058  2.6579 -0.8626 -0.9838
    5SAPS  C216  601   5.138   5.257   5.038  0.5189  0.5776  0.1842
    5SAPS  H16R  602   5.215   5.237   4.960  0.2563 -3.6900  0.7667
    5SAPS  H16S  603   5.187   5.329   5.106  2.4808 -1.4243  1.0071
    5SAPS  C217  604   5.011   5.312   4.975 -0.2070 -0.8259  0.8067
    5SAPS  H17R  605   5.029   5.411   4.928 -2.1596 -0.0417  1.5951
    5SAPS  H17S  606   4.939   5.335   5.056 -1.4196 -0.5652 -0.3230
    5SAPS  C218  607   4.931   5.232   4.869 -0.9036 -0.3483  0.0211
    5SAPS  H18R  608   4.894   5.138   4.916 -1.4819 -0.3502 -0.4188
    5SAPS  H18S  609   5.008   5.202   4.795 -1.4400 -1.5274 -0.0934
    5SAPS  C219  610   4.831   5.314   4.800  0.1908  0.3679 -0.4388
    5SAPS  H19R  611   4.796   5.384   4.879  1.2942 -0.6186  0.9594
    5SAPS  H19S  612   4.747   5.254   4.760  0.8876 -0.5247 -0.5844
    5SAPS  C220  613   4.889   5.392   4.679 -0.2647  0.1847  0.8716
    5SAPS  H20R  614   4.807   5.450   4.631  0.7335 -0.1161 -1.3180
    5SAPS  H20S  615   4.940   5.317   4.614 -1.2953 -0.6318  0.9830
    5SAPS  H20T  616   4.958   5.465   4.725  1.0467 -1.8114  2.2115
    5SAPS   C33  617   5.893   4.360   6.124 -0.2208  0.0941  0.7226
    5SAPS   H3X  618   5.831   4.315   6.205 -1.9471  2.0979  0.6181
    5SAPS   H3Y  619   6.001   4.359   6.151 -0.1022 -0.0130  0.2525
    5SAPS   C34  620   5.875   4.273   5.997  0.2186 -0.4699 -0.1873
    5SAPS   H4X  621   5.934   4.315   5.912  1.7830  0.2238  1.1779
    5SAPS   H4Y  622   5.770   4.277   5.962  0.5891  0.5552 -1.2727
    5SAPS   C35  623   5.899   4.125   6.021 -0.9722  0.3178  0.9294
    5SAPS   H5X  624   5.842   4.095   6.111  2.7489  0.8417  3.7526
    5SAPS   H5Y  625   6.008   4.112   6.038 -0.1372  1.2315 -2.8562
    5SAPS   C36  626   5.866   4.033   5.903  0.7286  0.1336 -0.1893
    5SAPS   H6X  627   5.936   4.048   5.819  0.3877  3.0912 -0.0634
    5SAPS   H6Y  628   5.779   4.078   5.850  1.1190 -1.0158 -1.8726
    5SAPS   C37  629   5.858   3.891   5.943  0.1619  0.5073 -0.4421
    5SAPS   H7X  630   5.794   3.878   6.033  2.2836  0.1488  1.0991
    5SAPS   H7Y  631   5.954   3.846   5.975 -1.1332 -0.1979  2.8063
    5SAPS   C38  632   5.794   3.801   5.834  0.0515  0.2402  0.2061
    5SAPS   H8X  633   5.684   3.811   5.837  0.1063  1.4059 -0.8023
    5SAPS   H8Y  634   5.814   3.697   5.868  0.6122  0.5523  0.8594
    5SAPS   C39  635   5.850   3.809   5.696  0.0484  0.1518  0.3429
    5SAPS   H9X  636   5.960   3.803   5.707 -0.0646 -3.2030  0.6413
    5SAPS   H9Y  637   5.841   3.910   5.651 -2.5085 -0.5397 -0.9237
    5SAPS  C310  638   5.802   3.704   5.592 -0.9824 -0.4087 -0.0925
    5SAPS  H10X  639   5.691   3.707   5.593 -0.9933  1.9430  1.0005
    5SAPS  H10Y  640   5.839   3.604   5.621  1.8545  0.6470  0.2784
    5SAPS  C311  641   5.853   3.735   5.450  0.1676  0.3423  0.2650
    5SAPS  H11X  642   5.964   3.739   5.448  0.1913 -0.2301  0.2614
    5SAPS  H11Y  643   5.810   3.836   5.433 -0.6235 -0.1881 -1.0294
    5SAPS  C312  644   5.798   3.644   5.339 -0.0153  0.2663 -0.1538
    5SAPS  H12X  645   5.688   3.632   5.338  0.2440 -3.4225  0.7361
    5SAPS  H12Y  646   5.837   3.541   5.355  0.6904  0.2590 -1.6828
    5SAPS  C313  647   5.844   3.693   5.195  0.4798 -0.0896  0.0515
    5SAPS  H13X  648   5.953   3.715   5.203  0.2817  0.2589  2.4126
    5SAPS  H13Y  649   5.792   3.791   5.187  0.3312 -0.0724  1.1484
    5SAPS  C314  650   5.806   3.609   5.080 -0.9391 -0.7053  0.2444
    5SAPS  H14X  651   5.711   3.556   5.099 -0.2665 -1.4204  1.7068
    5SAPS  H14Y  652   5.880   3.527   5.078 -0.5061 -0.4047  2.1051
    5SAPS  C315  653   5.800   3.688   4.943  0.3412  0.1023 -0.2292
    5SAPS  H15X  654   5.889   3.754   4.936  0.6049 -0.3565 -1.6408
    5SAPS  H15Y  655   5.706   3.747   4.942  0.5285  0.4118 -1.1807
    5SAPS  C316  656   5.802   3.601   4.814 -0.1929 -0.5854 -0.5666
    5SAPS  H16X  657   5.863   3.509   4.824  1.3257  0.5588  1.5689
    5SAPS  H16Y  658   5.836   3.672   4.735 -0.3079 -0.2199 -0.2882
    5SAPS  C317  659   5.666   3.543   4.783  0.6130  0.0037 -0.2503
    5SAPS  H17X  660   5.600   3.632   4.772  0.8701 -0.1153 -5.1728
    5SAPS  H17Y  661   5.637   3.482   4.871  0.2880  2.7541  1.6643
    5SAPS  C318  662   5.669   3.463   4.647 -0.2814  0.3552 -0.2382
    5SAPS  H18X  663   5.655   3.529   4.558  1.2420 -0.0963 -0.8527
    5SAPS  H18Y  664   5.586   3.390   4.643 -1.3523  1.2805  2.7979
    5SAPS  H18Z  665   5.770   3.415   4.648 -0.2136  0.4684 -1.0908
    6SAPS     N  666   4.582   4.980   6.717  0.2734 -0.6029 -0.7560
    6SAPS   HN1  667   4.607   5.080   6.702  1.8228 -1.0709 -1.5272
    6SAPS   HN2  668   4.666   4.932   6.755 -0.4585  0.3435  2.3353
    6SAPS   HN3  669   4.545   4.935   6.631 -3.1002  0.6758 -0.1353
    6SAPS   C12  670   4.469   4.991   6.823  0.0435  0.4339 -0.7701
    6SAPS  H12A  671   4.458   4.893   6.868  3.6417 -0.1059 -0.7958
    6SAPS   C13  672   4.490   5.101   6.931 -0.0692  0.2953  0.0347
    6SAPS  O13A  673   4.572   5.195   6.908  0.1934  0.4541 -0.2255
    6SAPS  O13B  674   4.418   5.096   7.032 -0.3405 -0.0198 -0.5087
    6SAPS   C11  675   4.342   5.010   6.739 -0.0913 -0.7101 -0.0844
    6SAPS  H11A  676   4.348   5.102   6.678  0.3723  0.3692  1.5249
    6SAPS  H11B  677   4.264   5.043   6.811  1.4923  1.6758  0.6662
    6SAPS     P  678   4.315   4.831   6.537  0.4787 -0.0686  0.1604
    6SAPS   O13  679   4.461   4.806   6.528 -0.3696  0.4273  0.1122
    6SAPS   O14  680   4.220   4.711   6.526 -0.6023  0.4839  0.3484
    6SAPS   O12  681   4.287   4.891   6.675 -0.4704  0.5302  0.2994
    6SAPS   O11  682   4.278   4.947   6.436  0.4057 -0.4785 -0.1846
    6SAPS    C1  683   4.140   4.995   6.440  0.5981  0.4119 -0.7558
    6SAPS    HA  684   4.074   4.921   6.490  1.3864 -1.0638 -1.8366
    6SAPS    HB  685   4.134   5.083   6.507  0.0500  0.2433 -0.5798
    6SAPS    C2  686   4.080   5.033   6.298 -0.2415  0.6640  0.8034
    6SAPS    HS  687   4.007   4.953   6.270  1.3087 -0.4588 -0.1926
    6SAPS   O21  688   4.180   5.045   6.201 -0.5632  0.3596  0.5367
    6SAPS   C21  689   4.226   4.928   6.155 -0.2163 -0.5634 -0.1189
    6SAPS   O22  690   4.186   4.814   6.179  0.1391 -0.2046  0.3786
    6SAPS   C22  691   4.341   4.961   6.056  0.6458  0.2069  0.2517
    6SAPS   H2R  692   4.305   4.997   5.957 -0.3303  0.1661  0.5863
    6SAPS   H2S  693   4.397   5.043   6.106  1.7775 -1.1938  1.3462
    6SAPS    C3  694   4.007   5.162   6.300 -0.1688 -0.4052  0.4219
    6SAPS    HX  695   4.074   5.237   6.346 -1.5357  1.3465 -0.3197
    6SAPS    HY  696   3.925   5.158   6.375 -0.2636 -0.0189  0.3411
    6SAPS   O31  697   3.964   5.208   6.167  0.0560 -0.4788 -0.0963
    6SAPS   C31  698   3.850   5.148   6.137 -0.6227  0.2636 -0.2367
    6SAPS   O32  699   3.790   5.071   6.208  0.4321 -0.0273  0.3905
    6SAPS   C32  700   3.803   5.181   6.001 -0.0321 -0.0986  1.1971
    6SAPS   H2X  701   3.887   5.241   5.960  1.5048 -1.9881  1.4235
    6SAPS   H2Y  702   3.718   5.251   6.010  1.2954  1.9121 -0.7773
    6SAPS   C23  703   4.435   4.839   6.040 -0.4826 -0.0644 -0.8310
    6SAPS   H3R  704   4.447   4.776   6.130 -0.1486  0.3621 -0.5696
    6SAPS   H3S  705   4.537   4.871   6.010  0.3585  0.2691  2.0576
    6SAPS   C24  706   4.380   4.743   5.926 -0.9215  0.0213  0.1933
    6SAPS   H4R  707   4.276   4.727   5.964 -1.5987 -1.8970 -2.1640
    6SAPS   H4S  708   4.442   4.651   5.934 -1.9784 -0.5391  4.8586
    6SAPS   C25  709   4.385   4.805   5.788  0.0031  0.2647  0.4615
    6SAPS   H5R  710   4.487   4.831   5.757  0.4448 -2.9274 -1.1507
    6SAPS   C26  711   4.286   4.843   5.699 -0.3466  0.4129  0.3094
    6SAPS   H6R  712   4.319   4.890   5.606 -1.6213 -0.5688 -0.6792
    6SAPS   C27  713   4.142   4.813   5.707 -0.1100  0.2793 -0.7262
    6SAPS   H7R  714   4.092   4.887   5.641 -0.1454 -1.1285 -2.3723
    6SAPS   H7S  715   4.103   4.827   5.810  0.8234 -0.0047 -0.3309
    6SAPS   C28  716   4.103   4.676   5.655 -0.0059 -0.0964 -0.6102
    6SAPS   H8R  717   4.116   4.597   5.731 -1.4222 -0.0104 -0.2494
    6SAPS   C29  718   4.054   4.645   5.530 -0.6936 -0.1893 -0.6617
    6SAPS   H9R  719   4.047   4.538   5.502 -0.2411 -0.4860  0.3357
    6SAPS  C210  720   4.042   4.734   5.410 -0.4702 -0.2339 -0.0886
    6SAPS  H10R  721   4.002   4.834   5.437  0.6967 -0.1034  1.2706
    6SAPS  H10S  722   3.963   4.693   5.343 -3.3918  0.2387  2.8657
    6SAPS  C211  723   4.179   4.768   5.345  0.1477  0.3322 -0.3977
    6SAPS  H11R  724   4.260   4.792   5.415  0.2472  2.1003 -1.0746
    6SAPS  C212  725   4.214   4.757   5.214 -0.0320  0.3207  0.4124
    6SAPS  H12R  726   4.320   4.771   5.187 -0.5254  1.6768 -0.9353
    6SAPS  C213  727   4.122   4.716   5.099  0.7806  0.2134 -0.6192
    6SAPS  H13R  728   4.114   4.783   5.010 -2.1945 -0.9204 -1.3151
    6SAPS  H13S  729   4.016   4.732   5.126  0.8343  0.0099 -0.2915
    6SAPS  C214  730   4.140   4.569   5.057 -0.1383 -0.0946 -0.3775
    6SAPS  H14R  731   4.182   4.506   5.137  1.2370 -0.0337 -1.0326
    6SAPS  C215  732   4.102   4.521   4.939 -0.3583  0.3611  0.5222
    6SAPS  H15R  733   4.122   4.416   4.913  0.8608  0.8422 -0.6400
    6SAPS  C216  734   4.038   4.596   4.819 -0.3904 -0.1188 -0.9701
    6SAPS  H16R  735   4.044   4.704   4.843 -1.0057  0.0515 -1.5495
    6SAPS  H16S  736   3.933   4.562   4.811 -0.9795  1.5321 -0.7016
    6SAPS  C217  737   4.108   4.571   4.687 -0.0820  0.7205  0.1700
    6SAPS  H17R  738   4.117   4.462   4.669  1.6762  0.3674  2.5953
    6SAPS  H17S  739   4.205   4.624   4.689  0.0904  0.4033  1.8690
    6SAPS  C218  740   4.021   4.628   4.566  0.0940 -0.0296 -0.4604
    6SAPS  H18R  741   3.915   4.601   4.581  0.0247  0.1200 -0.6926
    6SAPS  H18S  742   4.059   4.585   4.471  0.4260 -1.7248  0.3992
    6SAPS  C219  743   4.045   4.778   4.542 -0.4737 -0.8706  0.6430
    6SAPS  H19R  744   4.148   4.817   4.541 -1.4337  1.9449 -0.7421
    6SAPS  H19S  745   3.993   4.822   4.630 -1.1311 -0.8696  0.2671
    6SAPS  C220  746   3.979   4.825   4.412 -0.5469  0.2802  0.0633
    6SAPS  H20R  747   3.976   4.936   4.401 -0.0268  0.4059  1.0923
    6SAPS  H20S  748   3.871   4.799   4.410 -0.2314 -1.1654 -2.3735
    6SAPS  H20T  749   4.025   4.784   4.319  1.0518  0.0210  0.9346
    6SAPS   C33  750   3.766   5.063   5.908 -0.4990 -0.5099 -0.0410
    6SAPS   H3X  751   3.666   5.027   5.940  0.1038  0.2457  2.9976
    6SAPS   H3Y  752   3.840   4.984   5.933 -0.0635 -0.2738 -0.5756
    6SAPS   C34  753   3.785   5.090   5.758 -0.6163 -0.0359 -0.6606
    6SAPS   H4X  754   3.892   5.095   5.728 -0.6720 -1.5280 -1.1843
    6SAPS   H4Y  755   3.735   5.185   5.731 -0.3177  0.1515 -0.5594
    6SAPS   C35  756   3.734   4.978   5.667 -0.2433 -0.3314 -0.0414
    6SAPS   H5X  757   3.632   4.952   5.702 -0.5800 -2.5940 -2.3645
    6SAPS   H5Y  758   3.804   4.892   5.672  0.9641  0.6703  3.6123
    6SAPS   C36  759   3.733   5.024   5.517 -0.0101  1.0178  0.4056
    6SAPS   H6X  760   3.834   5.040   5.474  0.0663  0.8182  0.5123
    6SAPS   H6Y  761   3.672   5.117   5.519  1.1651  1.7990  0.5316
    6SAPS   C37  762   3.659   4.918   5.436  0.5455  0.0630 -0.4478
    6SAPS   H7X  763   3.556   4.913   5.476  1.0954  3.0281  1.6226
    6SAPS   H7Y  764   3.701   4.815   5.445  1.2134  0.4619  1.2538
    6SAPS   C38  765   3.646   4.951   5.283  0.0707  0.4250  0.7669
    6SAPS   H8X  766   3.684   5.054   5.266  0.3744  0.2919  0.6306
    6SAPS   H8Y  767   3.536   4.952   5.268  0.3646  0.8274 -1.7855
    6SAPS   C39  768   3.708   4.853   5.179  0.0202  0.6787 -0.4377
    6SAPS   H9X  769   3.664   4.751   5.188  0.1357  0.4023 -2.3763
    6SAPS   H9Y  770   3.816   4.850   5.207 -0.0594  1.1274 -0.0810
    6SAPS  C310  771   3.680   4.892   5.038 -0.4910 -0.4523  0.5197
    6SAPS  H10X  772   3.729   4.990   5.021 -1.1064 -0.3696 -0.8174
    6SAPS  H10Y  773   3.572   4.903   5.019 -0.0557  0.3486 -1.7536
    6SAPS  C311  774   3.745   4.797   4.937 -0.4171  0.2379  0.1894
    6SAPS  H11X  775   3.694   4.699   4.946 -0.3531  0.2888  1.2952
    6SAPS  H11Y  776   3.838   4.778   4.994 -0.6452 -0.4439  0.3413
    6SAPS  C312  777   3.754   4.855   4.800  0.0726 -0.4355  0.4467
    6SAPS  H12X  778   3.818   4.790   4.735  1.2870  3.1251 -2.2381
    6SAPS  H12Y  779   3.818   4.945   4.810 -0.4208 -0.1155  0.7981
    6SAPS  C313  780   3.612   4.893   4.756 -0.0610  0.2052  0.0079
    6SAPS  H13X  781   3.577   4.993   4.789  0.3913 -0.1393  1.5855
    6SAPS  H13Y  782   3.540   4.817   4.794 -0.5438  0.3632 -0.5759
    6SAPS  C314  783   3.607   4.900   4.596 -0.4769  0.1747  0.0394
    6SAPS  H14X  784   3.653   4.811   4.548 -1.3578 -0.5038  0.4258
    6SAPS  H14Y  785   3.673   4.980   4.556 -1.2271  0.3210 -0.9635
    6SAPS  C315  786   3.464   4.921   4.537  0.4539 -0.8339 -1.3249
    6SAPS  H15X  787   3.430   5.022   4.568  1.5468 -0.5652 -0.9412
    6SAPS  H15Y  788   3.396   4.845   4.580 -0.8557  0.1427 -1.6254
    6SAPS  C316  789   3.458   4.926   4.386  0.2701  0.5281  0.1037
    6SAPS  H16X  790   3.544   4.864   4.354  2.2253  2.9479  0.4186
    6SAPS  H16Y  791   3.467   5.030   4.350  0.6376  1.4488  2.7027
    6SAPS  C317  792   3.314   4.875   4.338 -0.0496 -1.0398 -0.4348
    6SAPS  H17X  793   3.230   4.939   4.370  0.0571 -1.2026  0.1736
    6SAPS  H17Y  794   3.287   4.783   4.395  0.0543  0.0332  1.4135
    6SAPS  C318  795   3.312   4.837   4.187  0.1288 -0.0402  0.5428
    6SAPS  H18X  796   3.335   4.919   4.116 -1.3846  1.0198  1.2241
    6SAPS  H18Y  797   3.215   4.793   4.160 -0.7811  1.5942  0.9935
    6SAPS  H18Z  798   3.382   4.752   4.171  0.0172  0.0351 -0.3763
    7SAPS     N  799   5.062   0.845   6.734 -0.1433  0.0661  0.6451
    7SAPS   HN1  800   5.050   0.808   6.637  0.0404  1.3692  0.1039
    7SAPS   HN2  801   4.966   0.880   6.757 -1.3405 -0.3460 -2.9446
    7SAPS   HN3  802   5.119   0.931   6.718 -1.8295  1.2779  0.8037
    7SAPS   C12  803   5.137   0.748   6.821  0.2957 -0.1329 -0.7111
    7SAPS  H12A  804   5.240   0.747   6.790  0.9766  0.5036  1.3426
    7SAPS   C13  805   5.139   0.775   6.973 -0.3868 -0.5349 -0.5953
    7SAPS  O13A  806   5.079   0.880   7.017  0.2740 -0.2996  0.4871
    7SAPS  O13B  807   5.172   0.689   7.058 -0.0734 -0.2044 -0.2600
    7SAPS   C11  808   5.083   0.599   6.792  0.4118  0.6905  0.3831
    7SAPS  H11A  809   4.988   0.591   6.848 -1.7041  1.0079 -2.8879
    7SAPS  H11B  810   5.155   0.530   6.842  0.1211 -0.2103 -0.4143
    7SAPS     P  811   5.151   0.484   6.561  0.4101 -0.0364 -0.1468
    7SAPS   O13  812   5.289   0.526   6.579 -0.1415  0.0798  0.0155
    7SAPS   O14  813   5.138   0.340   6.587  0.3313  0.1630 -0.6066
    7SAPS   O12  814   5.049   0.568   6.653 -0.1243  0.1918 -0.3475
    7SAPS   O11  815   5.101   0.508   6.418  0.4945  0.0850  0.7867
    7SAPS    C1  816   4.961   0.530   6.389  0.1113 -0.2370  0.3085
    7SAPS    HA  817   4.905   0.447   6.438 -0.2395  0.2097  0.6772
    7SAPS    HB  818   4.928   0.626   6.434  3.1132  0.1821  1.8117
    7SAPS    C2  819   4.934   0.528   6.241  0.1271  0.1172  0.3219
    7SAPS    HS  820   4.969   0.430   6.201 -1.5266  0.0652 -1.1440
    7SAPS   O21  821   4.992   0.642   6.182  0.0016 -0.3977 -0.3321
    7SAPS   C21  822   5.109   0.626   6.139  0.2126 -0.5852 -0.6462
    7SAPS   O22  823   5.171   0.522   6.129  0.1574 -0.2446 -0.1906
    7SAPS   C22  824   5.164   0.760   6.091 -0.0139  0.7325 -0.6365
    7SAPS   H2R  825   5.100   0.842   6.129  0.6978  1.1179 -0.2571
    7SAPS   H2S  826   5.261   0.775   6.142  0.4041  0.5684 -1.3636
    7SAPS    C3  827   4.783   0.529   6.217  0.1356  0.6164 -0.3316
    7SAPS    HX  828   4.744   0.614   6.278 -2.3858 -2.0934  2.1763
    7SAPS    HY  829   4.741   0.435   6.259  0.4526 -0.2503 -1.9007
    7SAPS   O31  830   4.755   0.534   6.080  0.9229  0.1431  0.6010
    7SAPS   C31  831   4.716   0.648   6.024  0.1204 -0.3528 -0.3481
    7SAPS   O32  832   4.718   0.755   6.088 -0.0188 -0.1431 -0.0750
    7SAPS   C32  833   4.683   0.620   5.871  0.2275  0.5898  0.4943
    7SAPS   H2X  834   4.573   0.600   5.865  0.4045 -0.2279 -0.2890
    7SAPS   H2Y  835   4.744   0.534   5.838 -1.7745 -1.4099  1.7087
    7SAPS   C23  836   5.183   0.763   5.936  0.5769  0.5635 -0.3637
    7SAPS   H3R  837   5.095   0.810   5.887  1.4907 -0.2641 -3.0003
    7SAPS   H3S  838   5.208   0.660   5.903 -0.5837 -0.8103  2.6977
    7SAPS   C24  839   5.295   0.852   5.881 -0.2251  0.1392  0.3561
    7SAPS   H4R  840   5.281   0.959   5.907  0.4678  0.8063 -1.8523
    7SAPS   H4S  841   5.304   0.842   5.771 -1.7678  0.4495  0.1913
    7SAPS   C25  842   5.431   0.823   5.937  0.2181 -0.4250 -0.1626
    7SAPS   H5R  843   5.442   0.784   6.039  1.2588 -0.6902 -0.3661
    7SAPS   C26  844   5.550   0.851   5.873  0.5568  0.3460 -0.2327
    7SAPS   H6R  845   5.646   0.829   5.920  0.4307  0.8852  0.2861
    7SAPS   C27  846   5.575   0.887   5.726 -0.2324 -0.4704 -0.6690
    7SAPS   H7R  847   5.672   0.934   5.700 -1.0265  1.7573  0.1910
    7SAPS   H7S  848   5.504   0.972   5.710 -1.2712 -1.3718 -0.9786
    7SAPS   C28  849   5.558   0.778   5.626 -0.2677 -0.0577  0.1479
    7SAPS   H8R  850   5.623   0.694   5.653 -2.1782 -1.4254  0.7033
    7SAPS   C29  851   5.472   0.778   5.522  0.2169 -0.6148 -0.1720
    7SAPS   H9R  852   5.469   0.691   5.455  3.1391 -2.4429  1.8554
    7SAPS  C210  853   5.368   0.886   5.493 -0.0876  0.0670  0.4028
    7SAPS  H10R  854   5.369   0.916   5.386  0.0623  0.7773  0.6005
    7SAPS  H10S  855   5.387   0.977   5.554  1.1618 -0.0265  0.1884
    7SAPS  C211  856   5.228   0.833   5.516  0.0846 -0.1918 -0.3925
    7SAPS  H11R  857   5.218   0.735   5.564  2.0811 -1.3496 -2.1426
    7SAPS  C212  858   5.117   0.912   5.514 -0.3944  0.4819 -0.7312
    7SAPS  H12R  859   5.022   0.863   5.538 -1.3759  2.2947 -0.7770
    7SAPS  C213  860   5.133   1.055   5.471  0.2463 -0.1648  0.8932
    7SAPS  H13R  861   5.191   1.058   5.376 -2.0430  1.1360 -0.5442
    7SAPS  H13S  862   5.197   1.112   5.541  0.9665  0.4207 -0.2205
    7SAPS  C214  863   4.998   1.115   5.445 -0.5642 -0.1589  0.6733
    7SAPS  H14R  864   4.963   1.117   5.340 -2.0412  0.4580  1.1629
    7SAPS  C215  865   4.918   1.174   5.536  0.0484 -0.2244 -0.2426
    7SAPS  H15R  866   4.817   1.212   5.515  0.3580  0.8472  0.1342
    7SAPS  C216  867   4.948   1.184   5.682  0.2714  0.2872 -0.1386
    7SAPS  H16R  868   4.970   1.292   5.695 -3.0368  0.8791  1.6346
    7SAPS  H16S  869   5.026   1.121   5.731 -1.2625 -0.8902  0.8718
    7SAPS  C217  870   4.826   1.172   5.784  0.7058  0.7567  0.3516
    7SAPS  H17R  871   4.792   1.068   5.762 -0.3316  1.1431  0.0229
    7SAPS  H17S  872   4.749   1.244   5.747 -0.1308 -0.1231  0.3162
    7SAPS  C218  873   4.869   1.199   5.928  0.4667  0.5225 -0.5601
    7SAPS  H18R  874   4.872   1.308   5.951  2.6913  0.2939  0.5254
    7SAPS  H18S  875   4.960   1.141   5.955 -0.5639 -2.3175 -2.5993
    7SAPS  C219  876   4.769   1.162   6.041 -0.2347 -0.1324  0.2700
    7SAPS  H19R  877   4.802   1.195   6.142 -1.5467  0.7097  0.4462
    7SAPS  H19S  878   4.773   1.051   6.047  0.5830 -0.0365  2.4178
    7SAPS  C220  879   4.629   1.222   6.027 -0.1161  0.4933  0.4337
    7SAPS  H20R  880   4.586   1.184   5.932  1.7450  1.4280 -0.8380
    7SAPS  H20S  881   4.636   1.332   6.018 -0.4006  0.5117  0.4253
    7SAPS  H20T  882   4.569   1.204   6.118 -0.8033  2.0894  0.3232
    7SAPS   C33  883   4.693   0.752   5.776 -0.5620  0.2652 -0.3007
    7SAPS   H3X  884   4.799   0.787   5.777 -0.1829 -0.7837 -1.3235
    7SAPS   H3Y  885   4.634   0.832   5.825 -0.2994 -0.9873  2.2133
    7SAPS   C34  886   4.646   0.720   5.632 -0.0675  0.2206  0.1143
    7SAPS   H4X  887   4.548   0.668   5.632 -0.7471  1.4375 -0.8771
    7SAPS   H4Y  888   4.718   0.649   5.584 -1.2572  0.1835 -1.7241
    7SAPS   C35  889   4.627   0.849   5.550 -0.8797  0.4687  0.2031
    7SAPS   H5X  890   4.723   0.900   5.530 -0.8392  0.4843  0.4314
    7SAPS   H5Y  891   4.566   0.923   5.607  0.4692  3.6664 -2.2165
    7SAPS   C36  892   4.538   0.823   5.426 -0.2980  0.5483 -0.1041
    7SAPS   H6X  893   4.432   0.811   5.458 -0.4732  3.0674  0.4713
    7SAPS   H6Y  894   4.581   0.735   5.375 -0.3929  0.9805 -0.9536
    7SAPS   C37  895   4.543   0.941   5.327  0.6952 -0.0312  0.2621
    7SAPS   H7X  896   4.647   0.982   5.322  0.1396  1.6193  1.4836
    7SAPS   H7Y  897   4.479   1.024   5.364 -1.5354 -2.2524  1.6616
    7SAPS   C38  898   4.503   0.908   5.180 -0.3806 -0.3029  0.3640
    7SAPS   H8X  899   4.496   1.005   5.126  3.3406  0.6600  1.2668
    7SAPS   H8Y  900   4.408   0.852   5.167 -0.9009  1.2142 -3.5481
    7SAPS   C39  901   4.611   0.826   5.110  0.0123  0.2612  0.2554
    7SAPS   H9X  902   4.622   0.725   5.156 -0.8595  0.5452  1.1136
    7SAPS   H9Y  903   4.707   0.879   5.127  0.8593 -0.7056 -1.2148
    7SAPS  C310  904   4.582   0.814   4.966  0.1583 -0.6342  0.1696
    7SAPS  H10X  905   4.661   0.762   4.908 -1.0590  0.8984 -3.1238
    7SAPS  H10Y  906   4.583   0.918   4.926  0.0350  0.2483  2.3448
    7SAPS  C311  907   4.451   0.742   4.924  0.3565  0.2574  0.1228
    7SAPS  H11X  908   4.450   0.744   4.812 -0.2700 -0.8126  0.1015
    7SAPS  H11Y  909   4.366   0.806   4.957  1.4932  2.2564 -0.6302
    7SAPS  C312  910   4.447   0.607   4.988  0.2115  0.3096  0.3130
    7SAPS  H12X  911   4.430   0.629   5.095 -1.2992 -0.9819  0.3949
    7SAPS  H12Y  912   4.544   0.554   4.998  1.5100  2.2991 -1.0049
    7SAPS  C313  913   4.331   0.508   4.944 -0.6605  0.8127  0.0250
    7SAPS  H13X  914   4.240   0.546   4.995 -0.6689  0.2944  0.4063
    7SAPS  H13Y  915   4.365   0.415   4.995 -0.1664  2.2216  2.4640
    7SAPS  C314  916   4.324   0.498   4.791  0.1243 -0.2916  0.6659
    7SAPS  H14X  917   4.429   0.498   4.755 -0.6484  2.5279 -1.9520
    7SAPS  H14Y  918   4.279   0.590   4.749  1.1305 -0.4882 -0.9405
    7SAPS  C315  919   4.251   0.376   4.749  0.9476  0.6182  0.5528
    7SAPS  H15X  920   4.159   0.358   4.809 -0.7799  0.2187 -2.0513
    7SAPS  H15Y  921   4.317   0.288   4.756 -0.3903 -0.5253 -0.6983
    7SAPS  C316  922   4.191   0.394   4.604 -0.3151  0.1863  0.6974
    7SAPS  H16X  923   4.271   0.398   4.528  1.3961  1.8220  2.4546
    7SAPS  H16Y  924   4.136   0.489   4.589 -0.1474  0.3609  1.1742
    7SAPS  C317  925   4.106   0.274   4.553 -0.2585 -1.2382 -0.5178
    7SAPS  H17X  926   4.076   0.294   4.448 -0.4147  1.0998 -0.0776
    7SAPS  H17Y  927   4.021   0.270   4.625 -1.1071  0.5155 -1.3749
    7SAPS  C318  928   4.173   0.138   4.566  0.8513 -0.3177  0.3082
    7SAPS  H18X  929   4.201   0.114   4.671  1.6676 -2.3425 -0.3213
    7SAPS  H18Y  930   4.266   0.141   4.504  0.4467  0.2701 -0.2831
    7SAPS  H18Z  931   4.110   0.064   4.512  0.9101  1.2201 -2.0115
    8SAPS     N  932   4.483   0.998   6.749 -0.0641 -0.2031 -0.3027
    8SAPS   HN1  933   4.499   1.100   6.739  1.7937 -0.4310 -0.0194
    8SAPS   HN2  934   4.401   0.971   6.691 -0.0421  0.7391 -0.7843
    8SAPS   HN3  935   4.467   0.985   6.851 -0.6245 -0.4715 -0.4211
    8SAPS   C12  936   4.610   0.937   6.736  0.0668 -0.1131  0.1887
    8SAPS  H12A  937   4.647   0.955   6.636 -0.7110 -2.6411 -0.6486
    8SAPS   C13  938   4.717   0.985   6.840  0.3033  0.0464  0.3608
    8SAPS  O13A  939   4.681   1.080   6.911  0.3336 -0.0391 -0.1494
    8SAPS  O13B  940   4.838   0.953   6.828  0.3714 -0.0714  0.0121
    8SAPS   C11  941   4.586   0.788   6.746 -0.7797 -0.1027 -0.1456
    8SAPS  H11A  942   4.525   0.768   6.837 -0.7794 -0.6436 -0.2584
    8SAPS  H11B  943   4.684   0.736   6.755 -1.1510 -0.7927  0.0335
    8SAPS     P  944   4.614   0.690   6.508  0.3378  0.0429 -0.0835
    8SAPS   O13  945   4.732   0.786   6.489 -0.2366 -0.2068  0.2099
    8SAPS   O14  946   4.655   0.554   6.542 -0.1255  0.2112 -0.2153
    8SAPS   O12  947   4.519   0.746   6.627  0.2246 -0.5955  0.3519
    8SAPS   O11  948   4.530   0.673   6.375  0.1007  0.5536  0.0911
    8SAPS    C1  949   4.395   0.705   6.365  0.4677  0.2151  0.0162
    8SAPS    HA  950   4.338   0.638   6.434 -0.1305 -0.0915 -0.7498
    8SAPS    HB  951   4.364   0.798   6.416  1.5844  0.3347  0.4919
    8SAPS    C2  952   4.339   0.700   6.219  0.2383 -0.4136  0.3325
    8SAPS    HS  953   4.229   0.708   6.231  0.1757  2.6144 -1.2325
    8SAPS   O21  954   4.391   0.587   6.149  0.6718  0.0001  0.1047
    8SAPS   C21  955   4.344   0.477   6.201  0.1084  0.2559  0.4036
    8SAPS   O22  956   4.246   0.473   6.271  0.0898 -0.2470 -0.2959
    8SAPS   C22  957   4.436   0.361   6.175 -0.9199  0.1780  0.5446
    8SAPS   H2R  958   4.504   0.395   6.094 -0.2534 -0.7899  0.6856
    8SAPS   H2S  959   4.503   0.343   6.262  0.3969 -0.4114 -0.5611
    8SAPS    C3  960   4.384   0.837   6.147 -0.2059  1.0588  0.0356
    8SAPS    HX  961   4.494   0.822   6.144 -0.4608 -1.0927 -0.7308
    8SAPS    HY  962   4.367   0.925   6.212 -1.6418  1.1102 -0.3675
    8SAPS   O31  963   4.328   0.837   6.009 -0.3431 -0.0280 -0.6109
    8SAPS   C31  964   4.219   0.906   6.006  0.1002 -0.3691  0.4690
    8SAPS   O32  965   4.150   0.944   6.101  0.2141 -0.2950  0.6075
    8SAPS   C32  966   4.190   0.933   5.862 -0.7795 -0.9218  0.6057
    8SAPS   H2X  967   4.091   0.985   5.859 -0.4871 -0.3144  1.1479
    8SAPS   H2Y  968   4.188   0.839   5.803 -1.3529 -1.3818  1.3410
    8SAPS   C23  969   4.367   0.234   6.140  0.0316 -0.0580  0.4502
    8SAPS   H3R  970   4.266   0.232   6.187  0.4757  0.8520  1.4953
    8SAPS   H3S  971   4.422   0.147   6.181  0.7975  1.1100  2.0203
    8SAPS   C24  972   4.350   0.208   5.991 -0.2459  0.3529  0.0040
    8SAPS   H4R  973   4.311   0.104   5.996  1.6259 -0.3506  2.9287
    8SAPS   H4S  974   4.448   0.198   5.939 -0.6820 -2.1667 -0.4547
    8SAPS   C25  975   4.266   0.318   5.931 -0.2405 -0.3151 -0.0675
    8SAPS   H5R  976   4.319   0.413   5.917 -0.6128 -0.0799  0.0933
    8SAPS   C26  977   4.132   0.317   5.901 -0.0580  0.3660  0.3376
    8SAPS   H6R  978   4.085   0.407   5.858 -6.9283 -3.2503 -1.2224
    8SAPS   C27  979   4.042   0.199   5.921  0.7489  0.2029 -0.3218
    8SAPS   H7R  980   3.942   0.234   5.954  0.7936 -0.3967  0.4881
    8SAPS   H7S  981   4.090   0.133   5.998  0.4780 -1.3920 -1.4729
    8SAPS   C28  982   4.032   0.113   5.791 -0.6989  0.0647 -0.3721
    8SAPS   H8R  983   4.100   0.136   5.708  0.2545  0.4489  0.5039
    8SAPS   C29  984   3.952   0.008   5.775 -0.4968 -0.7501  0.6295
    8SAPS   H9R  985   3.963  -0.048   5.680  0.4616 -0.8332  0.7810
    8SAPS  C210  986   3.866  -0.062   5.879 -0.0355  0.1220 -0.7801
    8SAPS  H10R  987   3.914  -0.052   5.979  0.4887 -1.1911 -0.8840
    8SAPS  H10S  988   3.857  -0.172   5.864 -1.4740  0.2140 -0.6539
    8SAPS  C211  989   3.727   0.001   5.879 -0.3543 -0.0914  1.1700
    8SAPS  H11R  990   3.713   0.066   5.966  1.1097 -1.4127  2.4735
    8SAPS  C212  991   3.619  -0.013   5.794  0.2938 -0.3043  0.4974
    8SAPS  H12R  992   3.533   0.051   5.818  1.6201  1.2464  1.2795
    8SAPS  C213  993   3.611  -0.090   5.665  0.3781  0.2922 -0.5100
    8SAPS  H13R  994   3.534  -0.168   5.682  0.4657  0.2766 -0.1805
    8SAPS  H13S  995   3.706  -0.146   5.651 -0.5008 -1.4118  0.0411
    8SAPS  C214  996   3.564   0.009   5.559 -0.2716  0.0770  0.2427
    8SAPS  H14R  997   3.548   0.115   5.584  1.0709  1.1768 -2.9472
    8SAPS  C215  998   3.554  -0.021   5.427 -0.3777 -0.9355  0.0304
    8SAPS  H15R  999   3.530   0.053   5.350  0.9350  0.0961  0.5699
    8SAPS  C216 1000   3.576  -0.155   5.369  0.1932  0.4669 -0.0539
    8SAPS  H16R 1001   3.479  -0.208   5.376  1.9109 -3.0527 -0.4896
    8SAPS  H16S 1002   3.654  -0.201   5.435 -0.6960  0.2307  0.8639
    8SAPS  C217 1003   3.637  -0.173   5.230  0.0570  0.6356  0.4836
    8SAPS  H17R 1004   3.567  -0.135   5.152 -0.8535 -0.6001  0.6737
    8SAPS  H17S 1005   3.655  -0.281   5.212 -1.2598  0.2372  1.4031
    8SAPS  C218 1006   3.777  -0.099   5.210 -0.3820 -0.1155  0.0882
    8SAPS  H18R 1007   3.847  -0.171   5.257 -0.3765  0.6977  1.3588
    8SAPS  H18S 1008   3.770   0.002   5.256  0.6230  0.3583 -0.7482
    8SAPS  C219 1009   3.797  -0.083   5.068  0.8741  0.2775  0.5521
    8SAPS  H19R 1010   3.709  -0.049   5.008  0.4961 -1.7531 -0.1076
    8SAPS  H19S 1011   3.804  -0.180   5.015 -2.7962  0.3244 -0.2537
    8SAPS  C220 1012   3.930  -0.016   5.039  0.0913  0.0184 -0.2007
    8SAPS  H20R 1013   3.924   0.094   5.055 -0.6141 -0.1582  0.8598
    8SAPS  H20S 1014   3.949  -0.043   4.933 -1.4663  2.2374 -1.1086
    8SAPS  H20T 1015   4.008  -0.060   5.105  0.7864 -0.1856 -1.1498
    8SAPS   C33 1016   4.299   1.035   5.796  0.4569 -0.8087  0.3376
    8SAPS   H3X 1017   4.405   1.005   5.810  1.3669  1.8508 -0.2402
    8SAPS   H3Y 1018   4.296   1.139   5.834 -0.4537  0.3329 -2.5743
    8SAPS   C34 1019   4.280   1.052   5.644  0.5690  0.7136 -0.0880
    8SAPS   H4X 1020   4.309   0.959   5.590 -0.5978 -0.2277  0.8515
    8SAPS   H4Y 1021   4.346   1.137   5.616 -1.1169  1.7230 -1.2007
    8SAPS   C35 1022   4.134   1.072   5.608  0.2348 -0.0901 -0.5496
    8SAPS   H5X 1023   4.094   1.153   5.673 -2.5185 -0.4239 -1.6509
    8SAPS   H5Y 1024   4.074   0.979   5.624  1.3548 -0.8556 -0.7036
    8SAPS   C36 1025   4.113   1.137   5.470 -0.2784  0.4184 -0.6567
    8SAPS   H6X 1026   4.178   1.227   5.481 -1.3441  0.9540  2.0236
    8SAPS   H6Y 1027   4.008   1.174   5.463 -0.5599 -0.0173  0.8527
    8SAPS   C37 1028   4.141   1.055   5.351  0.6888 -0.7386  0.9266
    8SAPS   H7X 1029   4.080   0.963   5.346  0.7158 -0.6977 -2.4607
    8SAPS   H7Y 1030   4.245   1.015   5.352  0.8537 -0.3139  0.9329
    8SAPS   C38 1031   4.113   1.144   5.229 -0.2917 -0.3070 -0.9345
    8SAPS   H8X 1032   4.171   1.238   5.242 -2.2896  0.7794  0.7265
    8SAPS   H8Y 1033   4.008   1.175   5.210 -0.2874 -1.0886 -2.3579
    8SAPS   C39 1034   4.169   1.076   5.106 -0.2254 -0.8049  0.0219
    8SAPS   H9X 1035   4.121   0.979   5.080  1.2247 -1.5219 -0.1197
    8SAPS   H9Y 1036   4.276   1.051   5.121 -0.0668  0.5540  1.3268
    8SAPS  C310 1037   4.170   1.164   4.987  0.0175 -0.0076  0.3432
    8SAPS  H10X 1038   4.224   1.261   4.986  0.4911 -0.2376 -2.0711
    8SAPS  H10Y 1039   4.065   1.194   4.968 -1.3813 -3.3777  1.9553
    8SAPS  C311 1040   4.222   1.083   4.870  0.3408  0.0158  0.1301
    8SAPS  H11X 1041   4.181   0.980   4.863 -0.0768  0.3123 -2.4735
    8SAPS  H11Y 1042   4.327   1.057   4.894 -0.4824 -1.7559  2.2377
    8SAPS  C312 1043   4.207   1.151   4.731  0.4830 -0.7121 -0.3010
    8SAPS  H12X 1044   4.277   1.235   4.715 -1.7223  0.9049 -2.2559
    8SAPS  H12Y 1045   4.109   1.198   4.707  1.5398  0.0500 -3.6566
    8SAPS  C313 1046   4.227   1.061   4.609  0.3085  0.0174  0.0402
    8SAPS  H13X 1047   4.234   1.125   4.519  0.7548 -1.7552 -1.2366
    8SAPS  H13Y 1048   4.139   0.997   4.583 -0.2629  1.6392 -2.3031
    8SAPS  C314 1049   4.352   0.977   4.615  0.6342 -0.6864 -0.3169
    8SAPS  H14X 1050   4.350   0.899   4.695 -0.1352  1.3436  1.7538
    8SAPS  H14Y 1051   4.435   1.045   4.644 -0.3851  0.9261 -1.0605
    8SAPS  C315 1052   4.382   0.909   4.480  0.1412 -0.9656  0.4587
    8SAPS  H15X 1053   4.449   0.972   4.418 -0.9276  0.7134  0.9321
    8SAPS  H15Y 1054   4.287   0.911   4.422  0.6913 -0.5234 -0.4536
    8SAPS  C316 1055   4.424   0.771   4.478  0.0129  0.9171 -0.4128
    8SAPS  H16X 1056   4.354   0.696   4.521 -0.9109  1.9952  0.0211
    8SAPS  H16Y 1057   4.512   0.770   4.546 -0.9162 -0.2550  0.8351
    8SAPS  C317 1058   4.472   0.719   4.341  0.6989  0.0997 -0.0319
    8SAPS  H17X 1059   4.531   0.625   4.348  1.8283  0.8566  1.0623
    8SAPS  H17Y 1060   4.537   0.799   4.301 -0.4632  0.2058 -1.8157
    8SAPS  C318 1061   4.368   0.690   4.234 -0.2279 -0.1165 -0.0086
    8SAPS  H18X 1062   4.404   0.613   4.163 -1.8847  1.6386 -2.9342
    8SAPS  H18Y 1063   4.353   0.781   4.172  2.5952 -0.2942 -1.0520
    8SAPS  H18Z 1064   4.268   0.657   4.270 -0.6429  2.4715  1.4496
    9SAPS     N 1065   2.350   4.598   6.504 -0.1255  0.4193  0.7610
    9SAPS   HN1 1066   2.273   4.652   6.549  0.1722 -1.6655  4.1617
    9SAPS   HN2 1067   2.438   4.653   6.515 -1.2168  2.2079  0.9309
    9SAPS   HN3 1068   2.331   4.590   6.403  3.1524  0.5091  0.0401
    9SAPS   C12 1069   2.379   4.467   6.575 -0.0079  0.2531  0.5974
    9SAPS  H12A 1070   2.459   4.417   6.523  1.4254  3.8045 -0.9240
    9SAPS   C13 1071   2.415   4.491   6.724 -0.4768 -0.3586 -0.1854
    9SAPS  O13A 1072   2.415   4.612   6.764 -0.2521  0.7270 -0.1027
    9SAPS  O13B 1073   2.451   4.390   6.794 -0.1238 -0.2423 -0.4367
    9SAPS   C11 1074   2.252   4.385   6.566 -0.1836  0.2527  0.2099
    9SAPS  H11A 1075   2.271   4.281   6.599  1.1211 -0.7001 -3.1853
    9SAPS  H11B 1076   2.233   4.359   6.459  0.9992  0.1466  0.0178
    9SAPS     P 1077   2.013   4.348   6.656 -0.4573 -0.1425  0.4301
    9SAPS   O13 1078   2.038   4.207   6.618  0.0521  0.1574 -0.4405
    9SAPS   O14 1079   1.956   4.368   6.790 -0.8520 -0.1838 -0.0172
    9SAPS   O12 1080   2.143   4.444   6.641  0.3052  0.5255 -0.1165
    9SAPS   O11 1081   1.903   4.411   6.563  0.5350  0.3616  0.3306
    9SAPS    C1 1082   1.941   4.476   6.438 -0.5238 -0.4753  0.3831
    9SAPS    HA 1083   1.968   4.582   6.459 -3.4191  0.9329 -2.1628
    9SAPS    HB 1084   2.028   4.432   6.384 -1.0188 -1.3044  0.2389
    9SAPS    C2 1085   1.824   4.478   6.338  0.0507 -0.5579  0.5552
    9SAPS    HS 1086   1.735   4.511   6.395 -0.3089  0.6164 -0.6346
    9SAPS   O21 1087   1.803   4.346   6.288 -0.5300  0.5676 -0.2094
    9SAPS   C21 1088   1.691   4.317   6.224 -0.5924 -0.4524 -0.4702
    9SAPS   O22 1089   1.600   4.400   6.219  0.0976  0.1545  0.3774
    9SAPS   C22 1090   1.696   4.176   6.172  0.3089 -0.8001 -0.4984
    9SAPS   H2R 1091   1.797   4.136   6.197 -0.0198  0.7553  4.0545
    9SAPS   H2S 1092   1.620   4.118   6.228 -1.2925  0.4226 -1.3314
    9SAPS    C3 1093   1.838   4.584   6.221  0.1615 -0.5037 -1.3192
    9SAPS    HX 1094   1.858   4.680   6.273 -1.8206 -1.6831  1.8717
    9SAPS    HY 1095   1.746   4.595   6.160 -0.2520  0.8302 -0.5077
    9SAPS   O31 1096   1.952   4.572   6.146  0.0186  0.4367  0.0725
    9SAPS   C31 1097   1.945   4.503   6.029 -0.4740 -0.0279  0.0830
    9SAPS   O32 1098   1.854   4.433   6.000  0.6017 -0.6003  0.3879
    9SAPS   C32 1099   2.070   4.535   5.947 -0.0555  0.1257  0.0606
    9SAPS   H2X 1100   2.158   4.491   5.999 -0.9615 -1.6457  0.1672
    9SAPS   H2Y 1101   2.070   4.646   5.956 -1.7874  0.3201 -1.6266
    9SAPS   C23 1102   1.686   4.168   6.015 -0.2672 -0.1741 -0.3215
    9SAPS   H3R 1103   1.785   4.181   5.967 -0.7813 -0.1849 -1.4326
    9SAPS   H3S 1104   1.617   4.243   5.970  0.3578  0.2337 -0.6065
    9SAPS   C24 1105   1.629   4.036   5.956  0.0946  0.4271  0.0120
    9SAPS   H4R 1106   1.627   4.049   5.846  1.1583  0.3407 -0.0273
    9SAPS   H4S 1107   1.522   4.026   5.985 -0.5142  2.6696 -1.2610
    9SAPS   C25 1108   1.698   3.902   5.988 -0.3626  0.0723  0.7461
    9SAPS   H5R 1109   1.684   3.866   6.091  3.3777 -2.1176  0.6650
    9SAPS   C26 1110   1.781   3.827   5.902  0.1115 -0.7163  0.6450
    9SAPS   H6R 1111   1.819   3.732   5.942  0.6176 -1.4065 -1.3620
    9SAPS   C27 1112   1.820   3.849   5.754  0.1297  0.3895 -0.1625
    9SAPS   H7R 1113   1.920   3.804   5.733  0.3897  1.4591 -1.3447
    9SAPS   H7S 1114   1.838   3.956   5.731  0.1230  0.6242  0.8400
    9SAPS   C28 1115   1.721   3.796   5.658 -0.0744  0.2988  1.1212
    9SAPS   H8R 1116   1.645   3.733   5.705 -0.9298  0.5504  0.1166
    9SAPS   C29 1117   1.719   3.818   5.521 -0.3979 -0.2312 -0.5871
    9SAPS   H9R 1118   1.641   3.776   5.455  1.3601  0.5988 -3.3819
    9SAPS  C210 1119   1.811   3.900   5.434 -0.4424  0.6594  0.7694
    9SAPS  H10R 1120   1.831   3.838   5.344 -0.6701  2.3432 -0.4997
    9SAPS  H10S 1121   1.911   3.907   5.483 -0.2307  0.9657  0.2986
    9SAPS  C211 1122   1.760   4.034   5.397 -0.8791  0.0630 -0.0409
    9SAPS  H11R 1123   1.711   4.090   5.477 -0.7560 -0.1952  0.2149
    9SAPS  C212 1124   1.780   4.096   5.271  0.6017 -0.5207 -0.0683
    9SAPS  H12R 1125   1.739   4.198   5.268  0.0606 -0.7166  0.3609
    9SAPS  C213 1126   1.833   4.051   5.136  0.3755  0.1773 -0.7947
    9SAPS  H13R 1127   1.747   4.035   5.067 -0.9537 -0.3118  0.9078
    9SAPS  H13S 1128   1.888   3.954   5.144  0.0942 -0.2139 -3.0631
    9SAPS  C214 1129   1.935   4.146   5.083  0.1898  0.7156 -0.5794
    9SAPS  H14R 1130   1.904   4.203   4.994 -0.3783  0.7301 -0.3765
    9SAPS  C215 1131   2.067   4.151   5.114  0.0448  0.3378  0.7294
    9SAPS  H15R 1132   2.132   4.211   5.050  0.9962 -1.0210  0.3731
    9SAPS  C216 1133   2.135   4.072   5.224  0.3671  0.2750 -0.1767
    9SAPS  H16R 1134   2.070   4.008   5.286  1.9729 -1.0802  0.1851
    9SAPS  H16S 1135   2.177   4.143   5.299 -0.1302 -0.0773  0.4399
    9SAPS  C217 1136   2.243   3.980   5.170 -0.9777  0.0474  0.3003
    9SAPS  H17R 1137   2.206   3.925   5.081 -0.7184  2.1664 -1.2002
    9SAPS  H17S 1138   2.272   3.912   5.253  1.0098  0.5305  0.0512
    9SAPS  C218 1139   2.382   4.045   5.136  0.4149 -0.1584 -0.5231
    9SAPS  H18R 1140   2.402   4.130   5.205  1.3109 -0.6072 -0.2104
    9SAPS  H18S 1141   2.381   4.094   5.036 -2.6493  4.5466  1.4312
    9SAPS  C219 1142   2.504   3.950   5.136  0.4051  0.3221 -0.1992
    9SAPS  H19R 1143   2.480   3.868   5.066  0.2024  0.4275 -0.2527
    9SAPS  H19S 1144   2.528   3.908   5.236 -1.8559 -0.3132  0.1205
    9SAPS  C220 1145   2.630   4.031   5.093 -0.1639  0.2232 -0.1585
    9SAPS  H20R 1146   2.631   4.132   5.140  1.3840  0.2983 -0.2833
    9SAPS  H20S 1147   2.630   4.030   4.982  2.0338 -2.8786 -0.2571
    9SAPS  H20T 1148   2.734   4.001   5.118  0.4772  2.1936 -0.2651
    9SAPS   C33 1149   2.060   4.507   5.799  0.1486 -0.3519  0.5074
    9SAPS   H3X 1150   1.968   4.552   5.754 -0.2219 -1.3828  0.1962
    9SAPS   H3Y 1151   2.061   4.396   5.792  3.1152 -0.3625  0.1172
    9SAPS   C34 1152   2.185   4.559   5.736  0.1377 -0.4736 -0.0871
    9SAPS   H4X 1153   2.278   4.517   5.781 -0.1858  0.0583  1.0813
    9SAPS   H4Y 1154   2.184   4.669   5.742  0.0471 -0.2556 -2.6844
    9SAPS   C35 1155   2.180   4.535   5.582 -0.0092  0.3984 -0.5854
    9SAPS   H5X 1156   2.233   4.621   5.534 -1.0841  0.2388 -2.1223
    9SAPS   H5Y 1157   2.074   4.535   5.550 -0.6285 -3.1343  0.9763
    9SAPS   C36 1158   2.263   4.413   5.541 -0.0535  0.2754 -0.0209
    9SAPS   H6X 1159   2.239   4.321   5.599  1.7504 -0.1619  0.0971
    9SAPS   H6Y 1160   2.370   4.437   5.558  0.2208 -1.2609  0.6417
    9SAPS   C37 1161   2.250   4.377   5.394 -0.7752 -0.0149  0.1799
    9SAPS   H7X 1162   2.146   4.340   5.380 -0.7285  0.1148 -0.5495
    9SAPS   H7Y 1163   2.320   4.291   5.384 -1.5763 -0.7538  0.7613
    9SAPS   C38 1164   2.292   4.486   5.297 -0.2262  0.1254 -0.7029
    9SAPS   H8X 1165   2.399   4.510   5.315 -1.0647  2.1698  2.1494
    9SAPS   H8Y 1166   2.229   4.576   5.310  1.4640  1.1757  0.6178
    9SAPS   C39 1167   2.281   4.422   5.155  0.2018 -0.4056  0.7164
    9SAPS   H9X 1168   2.175   4.391   5.150  0.7466 -2.7937  2.4849
    9SAPS   H9Y 1169   2.339   4.327   5.146 -0.2271 -0.6568  0.5771
    9SAPS  C310 1170   2.304   4.516   5.032  0.0014  0.1413  0.1911
    9SAPS  H10X 1171   2.414   4.531   5.027  0.2372 -0.9718  1.5538
    9SAPS  H10Y 1172   2.261   4.617   5.053 -0.3297  0.3140 -1.1880
    9SAPS  C311 1173   2.249   4.476   4.897  0.0519 -0.0122  0.7627
    9SAPS  H11X 1174   2.240   4.564   4.829  4.4443 -0.7694 -1.0819
    9SAPS  H11Y 1175   2.144   4.450   4.925 -1.1026  2.6052 -0.7373
    9SAPS  C312 1176   2.327   4.367   4.833  0.0123  0.6496  0.0848
    9SAPS  H12X 1177   2.338   4.290   4.912  0.2069  0.6251  0.0352
    9SAPS  H12Y 1178   2.432   4.396   4.810  0.8236 -2.0687 -0.0682
    9SAPS  C313 1179   2.259   4.299   4.711  0.2517  0.2530  0.4992
    9SAPS  H13X 1180   2.301   4.351   4.622 -0.8751  1.1470  0.4559
    9SAPS  H13Y 1181   2.151   4.322   4.706  0.1522 -0.3409 -0.0992
    9SAPS  C314 1182   2.316   4.162   4.696  0.4443 -0.3477  1.2462
    9SAPS  H14X 1183   2.300   4.099   4.786 -1.8922 -1.3112  0.2420
    9SAPS  H14Y 1184   2.425   4.168   4.678  0.0322 -0.5147 -1.9953
    9SAPS  C315 1185   2.261   4.094   4.569 -0.0084  0.3123  0.2331
    9SAPS  H15X 1186   2.256   4.165   4.483 -1.1461  0.2792  0.2501
    9SAPS  H15Y 1187   2.154   4.066   4.583  0.2240 -1.5232 -1.3285
    9SAPS  C316 1188   2.338   3.966   4.534  0.1545  0.4079  0.0218
    9SAPS  H16X 1189   2.431   3.997   4.483  0.7851 -1.4094 -0.0002
    9SAPS  H16Y 1190   2.287   3.901   4.460  2.9056 -2.3188  0.3327
    9SAPS  C317 1191   2.384   3.864   4.644  0.6770  0.2660 -0.7486
    9SAPS  H17X 1192   2.444   3.920   4.719 -2.5299  0.2400  2.0795
    9SAPS  H17Y 1193   2.450   3.782   4.607  4.1553  0.9886  3.0584
    9SAPS  C318 1194   2.266   3.810   4.728 -0.1242 -0.1906 -0.1184
    9SAPS  H18X 1195   2.207   3.744   4.660 -3.3463  2.9381 -0.6609
    9SAPS  H18Y 1196   2.203   3.888   4.774  0.1097  0.5546 -1.0414
    9SAPS  H18Z 1197   2.304   3.743   4.808  2.7806  0.1479 -1.0672
   10SAPS     N 1198   3.285   3.731   6.518 -0.2715  0.5814 -0.6384
   10SAPS   HN1 1199   3.202   3.782   6.553 -1.4837 -1.4397 -0.3977
   10SAPS   HN2 1200   3.323   3.768   6.429 -2.9318  2.4394 -1.1242
   10SAPS   HN3 1201   3.261   3.631   6.505 -1.4316  0.8173 -0.4414
   10SAPS   C12 1202   3.395   3.743   6.612  0.1581 -0.4427 -0.3790
   10SAPS  H12A 1203   3.482   3.777   6.558 -0.2771 -0.4374 -1.0848
   10SAPS   C13 1204   3.368   3.839   6.723  0.0252 -0.0977  0.2040
   10SAPS  O13A 1205   3.257   3.900   6.723  0.1101 -0.6444 -0.2127
   10SAPS  O13B 1206   3.464   3.875   6.799  0.2006 -0.0434  0.0728
   10SAPS   C11 1207   3.413   3.604   6.684  0.7820  0.5774  0.2723
   10SAPS  H11A 1208   3.320   3.584   6.741  1.9064  1.4639  2.5407
   10SAPS  H11B 1209   3.490   3.618   6.764  0.4384  4.1657  0.1275
   10SAPS     P 1210   3.585   3.429   6.586  0.2057 -0.1893  0.3829
   10SAPS   O13 1211   3.683   3.500   6.667 -0.7570 -0.4554  0.5618
   10SAPS   O14 1212   3.573   3.285   6.606  0.0033 -0.2203 -0.6923
   10SAPS   O12 1213   3.448   3.503   6.591  0.3284 -0.1801  0.2069
   10SAPS   O11 1214   3.616   3.452   6.435  0.3709  0.4065  0.0367
   10SAPS    C1 1215   3.757   3.453   6.379  0.1370  0.3298 -0.2760
   10SAPS    HA 1216   3.795   3.558   6.384 -0.7628  0.6306  0.7925
   10SAPS    HB 1217   3.827   3.399   6.447  1.4943  0.8213 -1.2518
   10SAPS    C2 1218   3.750   3.382   6.241  0.3067 -0.3981  0.4379
   10SAPS    HS 1219   3.848   3.364   6.193  1.1033 -1.2373  2.3024
   10SAPS   O21 1220   3.666   3.462   6.159 -0.2360 -0.6290  0.4848
   10SAPS   C21 1221   3.719   3.576   6.116 -0.0669  0.7053  0.2673
   10SAPS   O22 1222   3.831   3.622   6.143 -0.1480 -0.0535  0.8833
   10SAPS   C22 1223   3.624   3.644   6.024  0.3877 -0.3742  0.2072
   10SAPS   H2R 1224   3.537   3.663   6.090  0.2810 -1.2511  0.3252
   10SAPS   H2S 1225   3.673   3.738   5.989  0.1118  0.1124  1.0929
   10SAPS    C3 1226   3.688   3.238   6.255  0.1283  0.7326 -0.4650
   10SAPS    HX 1227   3.589   3.247   6.304  1.3920 -0.6181  2.5892
   10SAPS    HY 1228   3.751   3.187   6.331  2.0205  0.7178 -1.9586
   10SAPS   O31 1229   3.687   3.177   6.126  0.2608  0.2584 -0.0316
   10SAPS   C31 1230   3.568   3.173   6.074 -0.5241 -0.0972 -0.1685
   10SAPS   O32 1231   3.479   3.250   6.094  0.1188  0.3329 -0.6276
   10SAPS   C32 1232   3.563   3.049   5.985  0.3245 -0.3571 -0.0119
   10SAPS   H2X 1233   3.577   2.962   6.052  0.0348  1.2202  2.1943
   10SAPS   H2Y 1234   3.647   3.050   5.912 -0.5992 -1.7148 -1.1313
   10SAPS   C23 1235   3.601   3.549   5.898 -0.3182  0.7359 -1.1939
   10SAPS   H3R 1236   3.566   3.454   5.943  0.5214  2.0730  2.6581
   10SAPS   H3S 1237   3.698   3.539   5.844 -0.5553  0.9195 -1.6586
   10SAPS   C24 1238   3.498   3.605   5.802  0.4858 -0.2217 -0.2241
   10SAPS   H4R 1239   3.400   3.570   5.841  0.2221  0.4669 -0.2629
   10SAPS   H4S 1240   3.509   3.547   5.708 -0.9068 -0.7119 -0.1066
   10SAPS   C25 1241   3.504   3.751   5.773 -0.0459 -0.4224  0.0223
   10SAPS   H5R 1242   3.479   3.812   5.861 -1.4537 -0.5140 -0.2918
   10SAPS   C26 1243   3.516   3.812   5.653 -0.1945 -0.2084  0.3812
   10SAPS   H6R 1244   3.526   3.921   5.651 -0.4296 -0.1932 -0.2515
   10SAPS   C27 1245   3.533   3.749   5.517  0.9640 -0.4377  0.5991
   10SAPS   H7R 1246   3.521   3.820   5.432  1.4166  0.6583  1.4380
   10SAPS   H7S 1247   3.454   3.672   5.502  0.6589 -0.1680  0.8251
   10SAPS   C28 1248   3.663   3.680   5.491  0.5307 -0.1613  0.3293
   10SAPS   H8R 1249   3.731   3.674   5.577 -0.0012 -1.1647  0.7009
   10SAPS   C29 1250   3.702   3.619   5.378  0.7269  0.3789 -0.0872
   10SAPS   H9R 1251   3.805   3.582   5.371  1.0428  1.5778 -2.6532
   10SAPS  C210 1252   3.619   3.615   5.259 -0.2618 -0.2854  0.3940
   10SAPS  H10R 1253   3.512   3.610   5.289 -0.5835 -2.0993 -0.8804
   10SAPS  H10S 1254   3.624   3.515   5.210  1.8812 -0.0450  0.0082
   10SAPS  C211 1255   3.636   3.725   5.162  0.2957  0.1370 -0.5689
   10SAPS  H11R 1256   3.561   3.805   5.163  0.0434 -0.0623  1.6964
   10SAPS  C212 1257   3.738   3.731   5.078  0.0402  0.7411  0.5293
   10SAPS  H12R 1258   3.741   3.813   5.005  3.9669 -0.7641 -1.2801
   10SAPS  C213 1259   3.843   3.622   5.064 -0.9419  0.5211 -0.1194
   10SAPS  H13R 1260   3.878   3.588   5.164  0.7359  1.2568 -0.4174
   10SAPS  H13S 1261   3.932   3.667   5.014 -1.3326  0.8530 -0.5175
   10SAPS  C214 1262   3.807   3.502   4.977 -0.7185 -0.3718  0.4992
   10SAPS  H14R 1263   3.794   3.416   5.044  0.6896  0.8460  2.4626
   10SAPS  C215 1264   3.794   3.484   4.845  0.2962 -0.0831 -0.0204
   10SAPS  H15R 1265   3.758   3.389   4.804  0.4517  0.3182 -1.1187
   10SAPS  C216 1266   3.812   3.596   4.748  0.0557 -0.0219 -0.3131
   10SAPS  H16R 1267   3.847   3.554   4.651  1.7102 -0.3856  0.4126
   10SAPS  H16S 1268   3.889   3.667   4.785 -0.4932  0.0001  0.8150
   10SAPS  C217 1269   3.687   3.678   4.731  0.0829  0.1781 -0.0130
   10SAPS  H17R 1270   3.663   3.718   4.832 -1.8435  0.0874 -0.3986
   10SAPS  H17S 1271   3.598   3.611   4.721 -1.5270  2.1437  0.4692
   10SAPS  C218 1272   3.699   3.783   4.624 -0.4778 -1.2391 -0.0463
   10SAPS  H18R 1273   3.701   3.738   4.522 -0.7732 -5.0567  1.4881
   10SAPS  H18S 1274   3.797   3.832   4.644  0.4952 -3.1872  0.1580
   10SAPS  C219 1275   3.585   3.885   4.642  0.3323 -0.6151  0.3782
   10SAPS  H19R 1276   3.610   3.940   4.735 -1.3391  1.9091 -0.5407
   10SAPS  H19S 1277   3.495   3.823   4.662  0.5316 -1.3179 -0.8358
   10SAPS  C220 1278   3.555   3.994   4.531 -0.3833 -0.1936  0.1510
   10SAPS  H20R 1279   3.484   4.073   4.563  0.1163  0.2251  0.2424
   10SAPS  H20S 1280   3.513   3.941   4.442 -3.2691  1.4255  0.4224
   10SAPS  H20T 1281   3.651   4.036   4.494  0.0696 -1.5918 -0.3227
   10SAPS   C33 1282   3.426   3.046   5.916 -0.6457  0.5431 -0.3581
   10SAPS   H3X 1283   3.335   3.062   5.976  0.5049  0.9366  1.3506
   10SAPS   H3Y 1284   3.407   2.946   5.873 -0.0693  0.4456 -0.3925
   10SAPS   C34 1285   3.431   3.149   5.793  0.4498  0.2003 -0.9696
   10SAPS   H4X 1286   3.511   3.129   5.719  0.1116  0.3721 -1.3792
   10SAPS   H4Y 1287   3.450   3.249   5.838 -0.0704  0.1366 -0.5909
   10SAPS   C35 1288   3.297   3.146   5.715 -1.1791  0.1958  0.1768
   10SAPS   H5X 1289   3.209   3.133   5.782 -2.7276  3.3407 -1.0244
   10SAPS   H5Y 1290   3.287   3.051   5.659 -1.3203 -0.4702  1.3026
   10SAPS   C36 1291   3.290   3.266   5.612  0.5314 -0.7821  0.8103
   10SAPS   H6X 1292   3.291   3.362   5.668  2.7954 -0.0346 -0.3875
   10SAPS   H6Y 1293   3.190   3.264   5.565  0.2054 -0.7198  1.4998
   10SAPS   C37 1294   3.405   3.283   5.506  1.1204 -0.3946 -0.0176
   10SAPS   H7X 1295   3.501   3.280   5.563  0.2870  0.4542  1.5140
   10SAPS   H7Y 1296   3.400   3.385   5.461  1.1592 -0.4735 -0.1985
   10SAPS   C38 1297   3.405   3.181   5.389 -0.1699  0.1914  0.3490
   10SAPS   H8X 1298   3.309   3.188   5.333 -0.1755  0.5849  0.4088
   10SAPS   H8Y 1299   3.397   3.079   5.433 -2.1612  0.8794  1.7370
   10SAPS   C39 1300   3.524   3.189   5.298 -0.2708  0.4687  0.2124
   10SAPS   H9X 1301   3.617   3.156   5.350 -0.6032 -1.5320 -0.3807
   10SAPS   H9Y 1302   3.531   3.298   5.283  0.3609  0.5420  0.9574
   10SAPS  C310 1303   3.510   3.121   5.167  0.7390 -0.1111 -0.3583
   10SAPS  H10X 1304   3.419   3.160   5.117  0.4567 -1.0027 -0.5519
   10SAPS  H10Y 1305   3.498   3.013   5.190  2.0884 -0.7405 -2.3415
   10SAPS  C311 1306   3.623   3.146   5.072 -0.4003  0.5466 -0.1733
   10SAPS  H11X 1307   3.713   3.104   5.122 -0.3438  0.3710 -0.4193
   10SAPS  H11Y 1308   3.644   3.254   5.055  2.1407  0.1161 -0.1540
   10SAPS  C312 1309   3.603   3.075   4.931  0.4013  0.0076  0.0726
   10SAPS  H12X 1310   3.587   2.966   4.945  1.8353 -0.2596 -0.1297
   10SAPS  H12Y 1311   3.687   3.087   4.859 -0.4182 -5.0966 -2.2450
   10SAPS  C313 1312   3.483   3.136   4.854  0.0497 -0.1366  0.6120
   10SAPS  H13X 1313   3.497   3.246   4.857  0.9054 -0.1440 -1.6760
   10SAPS  H13Y 1314   3.394   3.106   4.914  0.5092  1.8444  2.4268
   10SAPS  C314 1315   3.464   3.090   4.709 -0.1955 -0.4815 -0.1486
   10SAPS  H14X 1316   3.356   3.101   4.688 -0.1572  0.6448  0.1773
   10SAPS  H14Y 1317   3.498   2.984   4.701  3.2453  0.6188 -2.5423
   10SAPS  C315 1318   3.544   3.166   4.594  0.3559 -0.0059 -0.3630
   10SAPS  H15X 1319   3.651   3.155   4.620  0.1471 -2.3609 -0.2764
   10SAPS  H15Y 1320   3.505   3.270   4.607  1.5837  0.5135 -0.7235
   10SAPS  C316 1321   3.514   3.114   4.451 -0.1045 -0.1065 -0.2503
   10SAPS  H16X 1322   3.541   3.187   4.372 -1.2109  0.5450 -0.0428
   10SAPS  H16Y 1323   3.407   3.101   4.424 -1.1075  1.0033  2.7947
   10SAPS  C317 1324   3.608   2.999   4.417  0.3773  0.4182 -0.0536
   10SAPS  H17X 1325   3.569   2.911   4.472 -0.1411  0.6779 -0.0062
   10SAPS  H17Y 1326   3.703   3.031   4.466  1.3191 -0.7679 -1.0256
   10SAPS  C318 1327   3.629   2.966   4.264  0.7321  0.8300 -0.0296
   10SAPS  H18X 1328   3.675   3.056   4.220 -1.6643  1.5012 -1.2691
   10SAPS  H18Y 1329   3.539   2.947   4.202  0.1642 -1.0303  1.2474
   10SAPS  H18Z 1330   3.704   2.883   4.263  1.0526  1.1175  0.1093
   11SAPS     N 1331   5.628   3.317   1.710 -0.1764 -0.0543 -0.6006
   11SAPS   HN1 1332   5.607   3.216   1.703  2.4031 -0.5672 -6.5598
   11SAPS   HN2 1333   5.703   3.341   1.642 -1.6248  0.0626 -2.2291
   11SAPS   HN3 1334   5.673   3.330   1.803  3.1576  3.0555 -2.3700
   11SAPS   C12 1335   5.518   3.414   1.694  0.5994  0.6085  0.1365
   11SAPS  H12A 1336   5.554   3.515   1.704 -0.6055  1.1915 -1.0357
   11SAPS   C13 1337   5.466   3.420   1.545  0.2915 -0.0356 -0.4480
   11SAPS  O13A 1338   5.500   3.333   1.464  0.4122  0.1684 -0.0044
   11SAPS  O13B 1339   5.384   3.509   1.523  0.5818  0.0078  0.3893
   11SAPS   C11 1340   5.396   3.370   1.784 -0.0066 -0.5954 -0.1008
   11SAPS  H11A 1341   5.320   3.450   1.781 -1.2190 -1.6171  1.6079
   11SAPS  H11B 1342   5.444   3.363   1.884  0.3673  1.4802 -0.0939
   11SAPS     P 1343   5.253   3.159   1.856 -0.0740 -0.3583  0.3665
   11SAPS   O13 1344   5.119   3.219   1.884 -0.0460  0.2026 -0.6203
   11SAPS   O14 1345   5.255   3.023   1.798  0.0912  0.1098 -0.2018
   11SAPS   O12 1346   5.331   3.250   1.747  0.4143 -0.2591  0.5562
   11SAPS   O11 1347   5.343   3.169   1.986 -0.1530  0.6190  0.6277
   11SAPS    C1 1348   5.453   3.094   2.037 -0.2382 -0.1110 -0.2011
   11SAPS    HA 1349   5.503   3.039   1.955 -1.7152  1.1627 -2.0595
   11SAPS    HB 1350   5.517   3.165   2.093 -1.3820  0.9809 -0.2367
   11SAPS    C2 1351   5.404   2.994   2.141  0.1370  0.0278  0.4253
   11SAPS    HS 1352   5.319   2.933   2.103  1.5551 -1.9782  0.2810
   11SAPS   O21 1353   5.375   3.060   2.265 -0.5018 -0.2573 -0.1056
   11SAPS   C21 1354   5.262   3.129   2.268  0.4481  0.5391 -0.0266
   11SAPS   O22 1355   5.162   3.105   2.196  0.1447  0.3104  0.1679
   11SAPS   C22 1356   5.260   3.253   2.370  0.1136 -0.2397 -0.4986
   11SAPS   H2R 1357   5.311   3.336   2.317 -2.0849  0.8620 -1.0345
   11SAPS   H2S 1358   5.158   3.287   2.398 -0.3364  0.0510 -2.3894
   11SAPS    C3 1359   5.513   2.881   2.175  0.7745  0.2490  0.0546
   11SAPS    HX 1360   5.594   2.933   2.231 -1.9513  1.5257  3.1640
   11SAPS    HY 1361   5.546   2.830   2.082 -0.5630  0.6966 -0.6969
   11SAPS   O31 1362   5.458   2.772   2.251  0.0746 -0.0319  0.2257
   11SAPS   C31 1363   5.556   2.689   2.303 -0.0386 -0.4729  0.2001
   11SAPS   O32 1364   5.677   2.718   2.303 -0.5968  0.0370  0.6400
   11SAPS   C32 1365   5.492   2.566   2.368  0.2872  0.9732  0.7547
   11SAPS   H2X 1366   5.516   2.482   2.300 -0.6256  2.1840 -1.1479
   11SAPS   H2Y 1367   5.381   2.569   2.364  0.2585 -0.1660  0.3762
   11SAPS   C23 1368   5.346   3.230   2.500  1.1569  0.3572  0.3411
   11SAPS   H3R 1369   5.345   3.333   2.542  1.0083  1.4946 -2.2830
   11SAPS   H3S 1370   5.455   3.223   2.477  1.1727  0.4485  0.3838
   11SAPS   C24 1371   5.291   3.119   2.591  0.3975 -0.5582 -0.2613
   11SAPS   H4R 1372   5.275   3.028   2.530 -0.6192  0.0185 -0.8784
   11SAPS   H4S 1373   5.191   3.152   2.625  1.0865 -1.2936  2.8529
   11SAPS   C25 1374   5.387   3.096   2.713  0.1085 -0.7179  0.2068
   11SAPS   H5R 1375   5.476   3.038   2.684  0.0738 -0.2775 -0.8392
   11SAPS   C26 1376   5.359   3.115   2.841  0.0027 -0.0779 -0.3339
   11SAPS   H6R 1377   5.429   3.077   2.917 -0.8370  0.0601  0.5389
   11SAPS   C27 1378   5.237   3.194   2.895  0.4400  0.3611  0.7937
   11SAPS   H7R 1379   5.144   3.138   2.867  0.7718  0.3748 -0.4093
   11SAPS   H7S 1380   5.230   3.293   2.845 -1.8273  0.1736  0.6065
   11SAPS   C28 1381   5.242   3.221   3.039 -0.3681 -0.1431  0.3125
   11SAPS   H8R 1382   5.274   3.321   3.072  0.4879  0.1361 -1.2608
   11SAPS   C29 1383   5.205   3.135   3.136  0.8140  0.1007  0.1496
   11SAPS   H9R 1384   5.216   3.161   3.242  2.8343  0.2189 -0.0368
   11SAPS  C210 1385   5.160   2.990   3.118  0.9874  0.0520  0.6240
   11SAPS  H10R 1386   5.205   2.917   3.188  1.4506 -0.7737 -0.4941
   11SAPS  H10S 1387   5.228   2.964   3.033 -0.3954 -0.6856 -0.2889
   11SAPS  C211 1388   5.015   2.970   3.098  0.8815 -0.4096 -0.0815
   11SAPS  H11R 1389   4.980   2.978   2.994 -0.9413 -0.7245  0.4739
   11SAPS  C212 1390   4.925   2.937   3.196 -0.1656  0.2050  0.0233
   11SAPS  H12R 1391   4.818   2.927   3.171  0.3309 -0.0857 -2.2100
   11SAPS  C213 1392   4.953   2.907   3.340 -0.1393  0.0271 -0.1199
   11SAPS  H13R 1393   5.056   2.946   3.358 -0.1040  0.0659 -0.4079
   11SAPS  H13S 1394   4.956   2.796   3.348  0.2793 -0.0956 -1.6822
   11SAPS  C214 1395   4.846   2.961   3.442 -0.0309 -0.5456 -0.7360
   11SAPS  H14R 1396   4.764   3.026   3.407  0.4526  2.1056  2.4609
   11SAPS  C215 1397   4.871   2.960   3.571  0.4344  0.5221 -0.3825
   11SAPS  H15R 1398   4.789   3.000   3.633  1.2824  0.5044  0.7748
   11SAPS  C216 1399   4.981   2.894   3.643  0.0182 -1.2159 -0.0770
   11SAPS  H16R 1400   5.065   2.855   3.582 -1.1181 -1.1671 -1.7358
   11SAPS  H16S 1401   4.936   2.821   3.713 -0.7846 -0.6387  0.0227
   11SAPS  C217 1402   5.062   2.996   3.725 -0.4490  0.3900  0.4246
   11SAPS  H17R 1403   5.089   3.087   3.667  0.5119  0.9488  1.7119
   11SAPS  H17S 1404   5.160   2.952   3.754 -0.1610  0.5041 -0.3534
   11SAPS  C218 1405   4.984   3.037   3.847  0.0537  0.0797 -0.3384
   11SAPS  H18R 1406   4.974   2.934   3.887  3.4558 -0.1296  0.3209
   11SAPS  H18S 1407   4.893   3.091   3.813  0.4838  2.1599  1.6301
   11SAPS  C219 1408   5.055   3.124   3.951  0.0305  0.4868  0.4235
   11SAPS  H19R 1409   5.086   3.203   3.879  1.4004  0.1181  0.5761
   11SAPS  H19S 1410   5.157   3.093   3.983  0.0310  1.8808  1.8596
   11SAPS  C220 1411   4.965   3.176   4.053 -0.0078  0.1148 -0.7024
   11SAPS  H20R 1412   4.993   3.271   4.102 -0.5650 -0.0647 -0.0326
   11SAPS  H20S 1413   4.955   3.106   4.138  2.4109  0.0889 -0.3550
   11SAPS  H20T 1414   4.865   3.187   4.007 -0.0699 -0.7705 -0.8039
   11SAPS   C33 1415   5.546   2.547   2.505  0.2327 -0.2370  0.2502
   11SAPS   H3X 1416   5.657   2.546   2.505  0.2820 -2.4581  1.4065
   11SAPS   H3Y 1417   5.529   2.441   2.537 -0.2577  0.0525  0.9862
   11SAPS   C34 1418   5.494   2.654   2.600  0.3541  0.0751  0.7091
   11SAPS   H4X 1419   5.383   2.657   2.602  0.2341 -2.1899  1.1101
   11SAPS   H4Y 1420   5.531   2.755   2.575 -0.4822  0.3570  0.5882
   11SAPS   C35 1421   5.538   2.637   2.745  0.0194  0.4963  0.7860
   11SAPS   H5X 1422   5.648   2.643   2.752  0.1163  1.2618 -0.9527
   11SAPS   H5Y 1423   5.511   2.538   2.789  1.6707  0.1608  1.1038
   11SAPS   C36 1424   5.495   2.755   2.832  0.4372 -0.8359 -0.0713
   11SAPS   H6X 1425   5.385   2.761   2.843  0.5789 -0.0834  1.1698
   11SAPS   H6Y 1426   5.524   2.856   2.797 -1.2755 -0.8696 -1.7534
   11SAPS   C37 1427   5.544   2.735   2.971  0.3537  0.2913 -0.2026
   11SAPS   H7X 1428   5.655   2.739   2.965  0.3162  0.1020 -1.0829
   11SAPS   H7Y 1429   5.508   2.637   3.007  0.7557 -0.0597 -0.7451
   11SAPS   C38 1430   5.496   2.839   3.075  0.8193  0.1140 -0.8877
   11SAPS   H8X 1431   5.385   2.830   3.079  0.7063  0.9546 -1.6978
   11SAPS   H8Y 1432   5.525   2.941   3.042  1.6964 -0.4321 -1.8410
   11SAPS   C39 1433   5.546   2.827   3.226  0.5641  0.5245  0.1379
   11SAPS   H9X 1434   5.652   2.857   3.239  1.3811 -2.2894  0.6223
   11SAPS   H9Y 1435   5.530   2.720   3.252 -3.4199  0.2150 -2.7112
   11SAPS  C310 1436   5.461   2.924   3.317 -0.5325  0.3176  0.2967
   11SAPS  H10X 1437   5.357   2.886   3.320 -0.3211 -0.2144  2.6141
   11SAPS  H10Y 1438   5.461   3.026   3.273  0.5564  0.8391  1.4410
   11SAPS  C311 1439   5.508   2.924   3.465  0.0005  0.4943 -0.0319
   11SAPS  H11X 1440   5.606   2.974   3.452 -0.6705  1.7443 -0.4519
   11SAPS  H11Y 1441   5.507   2.826   3.517 -0.4858  0.0443 -0.8758
   11SAPS  C312 1442   5.420   3.021   3.544 -0.5337 -0.3433 -0.3826
   11SAPS  H12X 1443   5.337   2.971   3.598 -0.3211 -1.8613 -1.4183
   11SAPS  H12Y 1444   5.369   3.096   3.481 -0.4326  2.1381  2.2518
   11SAPS  C313 1445   5.504   3.098   3.655 -0.7281 -0.3538  0.1129
   11SAPS  H13X 1446   5.577   3.167   3.606 -1.1413 -0.0764 -0.1236
   11SAPS  H13Y 1447   5.563   3.015   3.699  1.5269  0.6788 -0.7931
   11SAPS  C314 1448   5.431   3.188   3.762 -0.3930  0.3233 -0.4848
   11SAPS  H14X 1449   5.342   3.124   3.783 -0.2878 -0.1049 -1.2933
   11SAPS  H14Y 1450   5.387   3.282   3.722  0.9633  0.7394 -1.0342
   11SAPS  C315 1451   5.510   3.206   3.898  0.1398 -0.3187 -0.4777
   11SAPS  H15X 1452   5.608   3.256   3.882 -0.2719  0.8058  0.4178
   11SAPS  H15Y 1453   5.532   3.105   3.938  1.7864 -0.1156 -0.7828
   11SAPS  C316 1454   5.441   3.291   4.006  0.1531 -0.4322  0.0262
   11SAPS  H16X 1455   5.339   3.251   4.025 -0.6430  1.2931 -0.4240
   11SAPS  H16Y 1456   5.426   3.390   3.958 -0.4220  1.1481  3.1759
   11SAPS  C317 1457   5.531   3.317   4.131 -0.5460 -0.1663  0.1306
   11SAPS  H17X 1458   5.596   3.405   4.114  0.5832 -0.9846  0.1680
   11SAPS  H17Y 1459   5.597   3.229   4.142 -0.5461  0.0122  1.7207
   11SAPS  C318 1460   5.450   3.342   4.256 -0.6797 -0.0474  0.3244
   11SAPS  H18X 1461   5.359   3.279   4.265 -0.4045 -0.4975  0.0061
   11SAPS  H18Y 1462   5.393   3.437   4.248 -1.9109 -0.8118 -0.3551
   11SAPS  H18Z 1463   5.519   3.345   4.344 -1.6137 -0.7048  1.1000
   12SAPS     N 1464   3.531   2.949   2.176  0.1661  0.7863 -0.5941
   12SAPS   HN1 1465   3.587   2.921   2.094  0.7588 -1.0689  0.3672
   12SAPS   HN2 1466   3.581   3.024   2.228 -1.5091  0.8861  0.9866
   12SAPS   HN3 1467   3.514   2.871   2.243 -1.0956  1.2750 -0.2989
   12SAPS   C12 1468   3.399   3.018   2.135 -0.7750 -0.1956 -0.2109
   12SAPS  H12A 1469   3.387   3.106   2.196 -0.2196 -1.1051  1.2641
   12SAPS   C13 1470   3.415   3.063   1.985 -0.5699 -0.0929  0.2430
   12SAPS  O13A 1471   3.513   3.032   1.912 -0.0505 -0.4350  0.1745
   12SAPS  O13B 1472   3.324   3.138   1.937  0.1203  0.1125 -0.2264
   12SAPS   C11 1473   3.270   2.926   2.139 -0.1032 -0.8051  0.0435
   12SAPS  H11A 1474   3.271   2.846   2.062  0.3287 -0.6605 -0.1031
   12SAPS  H11B 1475   3.187   2.991   2.104  0.3136 -0.3471 -0.0953
   12SAPS     P 1476   3.187   2.959   2.391 -0.5394 -0.3139  0.0210
   12SAPS   O13 1477   3.120   3.073   2.342  0.6143  0.0715  0.1462
   12SAPS   O14 1478   3.118   2.870   2.484  0.0830  0.1255  0.0388
   12SAPS   O12 1479   3.244   2.872   2.271 -0.1408  0.0213 -0.0157
   12SAPS   O11 1480   3.328   3.007   2.454  0.4201 -0.2330 -0.2371
   12SAPS    C1 1481   3.422   2.920   2.512  0.5491  0.3619 -0.1363
   12SAPS    HA 1482   3.431   2.830   2.446  0.6949  0.1375  0.1902
   12SAPS    HB 1483   3.520   2.970   2.511  0.2945  0.8967 -2.0715
   12SAPS    C2 1484   3.377   2.868   2.656 -0.4465  0.3371 -0.1076
   12SAPS    HS 1485   3.298   2.791   2.641 -0.1581 -0.2294  1.1926
   12SAPS   O21 1486   3.345   2.976   2.745 -0.6160 -0.2131 -0.2039
   12SAPS   C21 1487   3.241   2.958   2.821  0.3885  0.5758 -0.6365
   12SAPS   O22 1488   3.176   2.854   2.827  0.1292 -0.4984 -0.4786
   12SAPS   C22 1489   3.208   3.081   2.909  0.2577  0.9819  0.9166
   12SAPS   H2R 1490   3.310   3.109   2.943 -0.1061 -0.6761  3.7264
   12SAPS   H2S 1491   3.169   3.158   2.839 -2.1192 -1.5087 -0.6427
   12SAPS    C3 1492   3.501   2.790   2.718 -0.0492  0.1462 -0.1458
   12SAPS    HX 1493   3.580   2.868   2.715  0.1392  0.0407  1.3203
   12SAPS    HY 1494   3.513   2.708   2.643 -0.5638 -0.5579  0.5261
   12SAPS   O31 1495   3.464   2.742   2.848  0.1453  0.5229  0.0583
   12SAPS   C31 1496   3.509   2.804   2.956  0.9875  0.7125 -0.3946
   12SAPS   O32 1497   3.572   2.904   2.962  0.0630 -0.0821  0.1352
   12SAPS   C32 1498   3.446   2.726   3.073  0.4567 -0.4690 -0.4009
   12SAPS   H2X 1499   3.443   2.616   3.054  1.3273 -0.8884  1.6367
   12SAPS   H2Y 1500   3.347   2.766   3.103  0.3953  0.1560 -1.3787
   12SAPS   C23 1501   3.109   3.068   3.030 -0.7461 -0.3022  0.3237
   12SAPS   H3R 1502   3.099   3.167   3.079 -1.3108 -0.2735  0.1543
   12SAPS   H3S 1503   3.137   3.003   3.115 -1.0529 -0.2693  0.4505
   12SAPS   C24 1504   2.968   3.027   2.982  0.4439 -0.1432  0.0674
   12SAPS   H4R 1505   2.962   2.916   2.985  2.6551 -0.3792 -1.6114
   12SAPS   H4S 1506   2.959   3.043   2.873 -0.9010 -1.0074  0.0282
   12SAPS   C25 1507   2.854   3.090   3.058  0.1613 -0.2074 -1.1125
   12SAPS   H5R 1508   2.837   3.196   3.033  0.2907  0.1152  0.0889
   12SAPS   C26 1509   2.775   3.039   3.148  0.1376  0.1605 -0.1948
   12SAPS   H6R 1510   2.689   3.089   3.193  1.3924  2.5327 -0.2855
   12SAPS   C27 1511   2.793   2.900   3.205  0.3392  0.2213  0.6890
   12SAPS   H7R 1512   2.897   2.901   3.244  0.7209  0.1252 -0.2796
   12SAPS   H7S 1513   2.791   2.820   3.127 -1.2554  0.4256  0.4867
   12SAPS   C28 1514   2.698   2.858   3.311  0.1409  0.1659 -0.0809
   12SAPS   H8R 1515   2.609   2.805   3.272 -0.0657 -1.3364  2.2189
   12SAPS   C29 1516   2.706   2.889   3.439 -0.8977  0.4361 -0.3788
   12SAPS   H9R 1517   2.618   2.867   3.503 -1.1940  0.7578 -0.6747
   12SAPS  C210 1518   2.817   2.965   3.519  0.6170  0.1045  0.2188
   12SAPS  H10R 1519   2.857   3.044   3.451 -0.8631  1.9516  1.3841
   12SAPS  H10S 1520   2.894   2.886   3.534  0.3860 -0.6570 -2.1227
   12SAPS  C211 1521   2.766   3.035   3.640 -0.1655 -0.5574 -0.6134
   12SAPS  H11R 1522   2.702   2.964   3.695  1.3302 -2.9676 -1.7892
   12SAPS  C212 1523   2.777   3.161   3.674  0.1497 -0.4473 -0.0734
   12SAPS  H12R 1524   2.729   3.184   3.771  0.5287  2.6981 -0.5319
   12SAPS  C213 1525   2.854   3.275   3.608  0.5342  0.9025 -0.2639
   12SAPS  H13R 1526   2.865   3.258   3.498  0.2452  0.4848 -0.2305
   12SAPS  H13S 1527   2.957   3.279   3.650  0.1490 -0.7844  0.9318
   12SAPS  C214 1528   2.800   3.410   3.630 -0.8317  0.4146 -1.1252
   12SAPS  H14R 1529   2.773   3.437   3.734  0.1055 -0.2608 -0.6956
   12SAPS  C215 1530   2.769   3.498   3.536 -0.1541 -0.0135 -0.9948
   12SAPS  H15R 1531   2.716   3.591   3.562 -2.3536 -0.8258 -2.2546
   12SAPS  C216 1532   2.772   3.469   3.389 -0.5880  0.6199  0.4892
   12SAPS  H16R 1533   2.679   3.512   3.347  0.5634  1.1909 -1.6000
   12SAPS  H16S 1534   2.771   3.361   3.361 -0.8294  0.0974  2.3843
   12SAPS  C217 1535   2.903   3.525   3.317  0.0165  0.1956 -0.0282
   12SAPS  H17R 1536   2.986   3.485   3.379 -0.4334 -1.1609 -0.2626
   12SAPS  H17S 1537   2.902   3.636   3.322 -0.9743  0.1620  1.2821
   12SAPS  C218 1538   2.907   3.491   3.167 -0.2282 -0.1523  0.4851
   12SAPS  H18R 1539   2.810   3.521   3.121 -0.1902  2.2676  1.8031
   12SAPS  H18S 1540   2.918   3.381   3.166  2.1943 -0.0165  2.4581
   12SAPS  C219 1541   3.024   3.567   3.094  0.5542  0.1064 -0.4688
   12SAPS  H19R 1542   3.117   3.541   3.148 -0.9003 -2.0615  1.1909
   12SAPS  H19S 1543   3.002   3.674   3.113  0.9831 -0.1088  1.4484
   12SAPS  C220 1544   3.037   3.537   2.939  0.1129  0.6249  0.1858
   12SAPS  H20R 1545   2.965   3.602   2.884  0.5351  0.3037 -0.7477
   12SAPS  H20S 1546   3.019   3.430   2.919  3.2702  0.0984 -0.2994
   12SAPS  H20T 1547   3.139   3.567   2.907  0.8790 -1.0707  0.9468
   12SAPS   C33 1548   3.535   2.737   3.199 -0.1201 -0.2232  0.0595
   12SAPS   H3X 1549   3.548   2.836   3.249 -0.7529 -1.2721  2.4587
   12SAPS   H3Y 1550   3.632   2.696   3.166  0.0585  0.8164 -0.7802
   12SAPS   C34 1551   3.491   2.652   3.316  0.1497  0.2717 -0.1494
   12SAPS   H4X 1552   3.457   2.550   3.285 -0.2286  0.1548  0.6098
   12SAPS   H4Y 1553   3.409   2.703   3.371  1.9836  3.3703 -0.0633
   12SAPS   C35 1554   3.603   2.641   3.413  0.7441  0.2919  0.2608
   12SAPS   H5X 1555   3.700   2.664   3.366  0.9536  2.2987  1.5425
   12SAPS   H5Y 1556   3.598   2.536   3.449 -0.4652  0.0509 -0.5301
   12SAPS   C36 1557   3.587   2.728   3.540  0.1264  0.0340 -0.7877
   12SAPS   H6X 1558   3.498   2.693   3.597 -0.1109  0.2663 -1.0156
   12SAPS   H6Y 1559   3.566   2.836   3.524  1.1818  0.2829 -0.5815
   12SAPS   C37 1560   3.696   2.686   3.640 -0.5116 -0.0902  0.2671
   12SAPS   H7X 1561   3.706   2.575   3.641 -2.5006 -0.4075 -2.3735
   12SAPS   H7Y 1562   3.675   2.712   3.746  4.3120  0.2377  1.3360
   12SAPS   C38 1563   3.835   2.751   3.612  0.1390 -0.2764 -0.3881
   12SAPS   H8X 1564   3.869   2.700   3.519 -1.2395  1.7569 -2.0739
   12SAPS   H8Y 1565   3.893   2.716   3.701 -0.9000  0.8647  0.7695
   12SAPS   C39 1566   3.831   2.901   3.598  0.2596  0.2328 -0.1818
   12SAPS   H9X 1567   3.784   2.913   3.498  2.1714  1.5064 -0.9706
   12SAPS   H9Y 1568   3.934   2.940   3.585  1.4410 -2.7796 -0.6733
   12SAPS  C310 1569   3.759   2.985   3.711 -0.0992  0.5861 -0.3347
   12SAPS  H10X 1570   3.778   2.954   3.816 -1.8756  0.0037 -0.1523
   12SAPS  H10Y 1571   3.652   2.962   3.694  0.6986 -2.6815 -1.5560
   12SAPS  C311 1572   3.786   3.132   3.682 -0.0735 -0.2327  0.3301
   12SAPS  H11X 1573   3.769   3.167   3.578  0.7930  0.7193  0.4911
   12SAPS  H11Y 1574   3.895   3.147   3.699  0.0383  0.7428 -1.0354
   12SAPS  C312 1575   3.704   3.224   3.774 -0.0270 -0.0800 -0.4959
   12SAPS  H12X 1576   3.734   3.228   3.881  0.1246  1.8960 -0.5782
   12SAPS  H12Y 1577   3.606   3.175   3.756  0.9649 -1.3082 -3.1140
   12SAPS  C313 1578   3.704   3.370   3.741  0.3887 -0.3824  0.4407
   12SAPS  H13X 1579   3.665   3.381   3.638  1.3716  4.6169  0.3929
   12SAPS  H13Y 1580   3.809   3.405   3.730 -0.3139  1.9064  0.6945
   12SAPS  C314 1581   3.617   3.459   3.830 -0.4725 -1.1661  0.4437
   12SAPS  H14X 1582   3.630   3.431   3.937  0.4285 -1.1869  0.3349
   12SAPS  H14Y 1583   3.506   3.457   3.818 -0.7044  1.7432  1.3103
   12SAPS  C315 1584   3.675   3.610   3.826  0.2120 -0.0617  0.0898
   12SAPS  H15X 1585   3.645   3.658   3.730 -0.8333 -0.3890  0.2418
   12SAPS  H15Y 1586   3.786   3.600   3.818  0.0924 -0.2208 -1.7543
   12SAPS  C316 1587   3.627   3.688   3.951  0.6180 -1.0169  1.1984
   12SAPS  H16X 1588   3.651   3.637   4.047  0.8782 -1.5570  0.8465
   12SAPS  H16Y 1589   3.521   3.712   3.927  0.7812 -0.5483  0.9339
   12SAPS  C317 1590   3.698   3.836   3.972 -0.0628  0.0565 -0.1306
   12SAPS  H17X 1591   3.701   3.895   3.878 -0.3751 -1.2115 -0.9558
   12SAPS  H17Y 1592   3.800   3.803   4.002  0.7634  1.4563 -1.2575
   12SAPS  C318 1593   3.634   3.905   4.092 -0.0312  0.4487 -0.2160
   12SAPS  H18X 1594   3.705   3.981   4.130 -1.5042  0.6549  2.3553
   12SAPS  H18Y 1595   3.617   3.832   4.173  0.0277 -1.4452 -1.8303
   12SAPS  H18Z 1596   3.533   3.945   4.067 -0.3616 -0.0358  0.3399
   13SAPS     N 1597   1.892   2.428   2.048 -0.7960  0.6286 -0.0611
   13SAPS   HN1 1598   1.962   2.504   2.037  0.2881 -0.4174 -0.6071
   13SAPS   HN2 1599   1.801   2.465   2.085  0.1578  1.9576  1.0588
   13SAPS   HN3 1600   1.925   2.373   2.129 -2.1254 -1.8720 -1.1236
   13SAPS   C12 1601   1.874   2.346   1.924  0.3955 -0.6509 -0.1704
   13SAPS  H12A 1602   1.810   2.406   1.861 -1.2401 -1.1000  0.9975
   13SAPS   C13 1603   2.011   2.324   1.859 -0.6737  0.5853 -0.1220
   13SAPS  O13A 1604   2.113   2.376   1.905 -0.4025 -0.2482 -0.3687
   13SAPS  O13B 1605   2.024   2.252   1.760 -0.2787 -0.4248  0.1591
   13SAPS   C11 1606   1.824   2.204   1.949  0.1568  0.3008 -0.1365
   13SAPS  H11A 1607   1.910   2.146   1.989 -1.3310 -0.8118  1.6253
   13SAPS  H11B 1608   1.800   2.148   1.856  1.4000 -2.6525  1.1839
   13SAPS     P 1609   1.564   2.215   1.992  0.1036  0.0408 -0.1857
   13SAPS   O13 1610   1.555   2.353   1.952 -0.0800 -0.2163  0.1192
   13SAPS   O14 1611   1.531   2.112   1.887  0.4411 -0.0911 -0.5291
   13SAPS   O12 1612   1.712   2.193   2.041 -0.0147 -0.2367 -0.1120
   13SAPS   O11 1613   1.465   2.196   2.118 -0.6113  0.3238 -0.0535
   13SAPS    C1 1614   1.505   2.119   2.233 -0.7484  0.1395 -0.4633
   13SAPS    HA 1615   1.611   2.089   2.222 -0.4189  1.6265 -1.7559
   13SAPS    HB 1616   1.507   2.184   2.322  0.1775 -1.2440  0.5659
   13SAPS    C2 1617   1.411   1.995   2.249 -0.1311 -0.8700 -0.6515
   13SAPS    HS 1618   1.380   1.973   2.145 -0.5475  2.2326 -1.2686
   13SAPS   O21 1619   1.296   2.038   2.323  0.0393  0.3027  0.2896
   13SAPS   C21 1620   1.193   1.956   2.306  0.4886 -0.4099 -0.8987
   13SAPS   O22 1621   1.204   1.858   2.232 -0.6795 -0.2069 -0.1448
   13SAPS   C22 1622   1.068   2.009   2.375 -0.4320  0.7301  0.4876
   13SAPS   H2R 1623   1.098   2.047   2.475 -0.8667  0.2859  0.7861
   13SAPS   H2S 1624   1.037   2.100   2.318  0.0636 -0.2115 -1.3911
   13SAPS    C3 1625   1.489   1.881   2.314 -0.0451  0.2552 -0.1533
   13SAPS    HX 1626   1.591   1.873   2.271  1.5392 -1.1548  3.4204
   13SAPS    HY 1627   1.436   1.783   2.306 -0.4798  0.4604  0.1660
   13SAPS   O31 1628   1.516   1.907   2.455  0.0025 -0.5302  0.1073
   13SAPS   C31 1629   1.437   1.851   2.549  0.4073  0.5892 -0.5501
   13SAPS   O32 1630   1.349   1.770   2.527 -0.2635 -0.3334  0.2352
   13SAPS   C32 1631   1.479   1.912   2.691 -0.4331  0.8189  0.0357
   13SAPS   H2X 1632   1.441   2.016   2.684  0.4061  1.1530  0.2310
   13SAPS   H2Y 1633   1.589   1.904   2.704 -0.6215 -1.6109  0.6740
   13SAPS   C23 1634   0.950   1.906   2.389 -0.0070 -0.0292  0.3701
   13SAPS   H3R 1635   0.982   1.824   2.457  0.5754 -0.7067 -0.7057
   13SAPS   H3S 1636   0.926   1.864   2.289  0.2580 -0.2372  0.3928
   13SAPS   C24 1637   0.818   1.965   2.436  0.0803 -0.4721 -0.9456
   13SAPS   H4R 1638   0.791   2.058   2.380 -2.9155 -0.6693  0.0343
   13SAPS   H4S 1639   0.828   1.998   2.541  1.6368  0.2718 -1.2938
   13SAPS   C25 1640   0.708   1.868   2.417  0.4581 -0.1373 -0.4659
   13SAPS   H5R 1641   0.650   1.902   2.330 -0.3413  0.3409  0.2386
   13SAPS   C26 1642   0.663   1.754   2.484 -0.5927 -0.4664 -0.4825
   13SAPS   H6R 1643   0.583   1.694   2.438 -1.1008 -0.6050  0.5366
   13SAPS   C27 1644   0.735   1.699   2.609 -0.1067 -0.8544  0.0820
   13SAPS   H7R 1645   0.845   1.705   2.623 -0.3773  1.6108  1.9321
   13SAPS   H7S 1646   0.710   1.591   2.606  0.9328 -1.1620  1.7033
   13SAPS   C28 1647   0.674   1.756   2.734 -0.0895 -0.4154 -1.0795
   13SAPS   H8R 1648   0.573   1.723   2.763  0.5624 -0.6488  1.1338
   13SAPS   C29 1649   0.738   1.829   2.820  0.0785 -0.2636  0.1102
   13SAPS   H9R 1650   0.678   1.853   2.909  0.9923  0.4903  0.5453
   13SAPS  C210 1651   0.886   1.881   2.829  0.6565  0.0556  0.5852
   13SAPS  H10R 1652   0.885   1.991   2.847 -0.0810  0.1952 -0.2701
   13SAPS  H10S 1653   0.933   1.862   2.730  1.2445  0.1416  0.8460
   13SAPS  C211 1654   0.966   1.806   2.932 -0.8546  0.3541  0.5498
   13SAPS  H11R 1655   1.028   1.735   2.875 -1.6335  1.4743 -1.8275
   13SAPS  C212 1656   0.973   1.831   3.068 -0.0452  0.3064  1.1097
   13SAPS  H12R 1657   1.042   1.771   3.128 -1.6854 -1.0499  1.7167
   13SAPS  C213 1658   0.897   1.929   3.144 -0.2738  0.1743 -0.0545
   13SAPS  H13R 1659   0.854   1.895   3.241  0.1935 -0.4429 -0.0567
   13SAPS  H13S 1660   0.806   1.954   3.085  1.7217  1.7567 -2.7036
   13SAPS  C214 1661   0.969   2.067   3.157 -0.2422 -0.4062 -0.3977
   13SAPS  H14R 1662   1.020   2.098   3.066 -1.5078 -1.5225 -1.5373
   13SAPS  C215 1663   0.963   2.164   3.246 -0.6388 -0.8683  0.4084
   13SAPS  H15R 1664   1.037   2.245   3.252 -1.3848 -0.0888 -0.6350
   13SAPS  C216 1665   0.885   2.145   3.377 -0.5184 -0.5821 -0.4833
   13SAPS  H16R 1666   0.839   2.045   3.391  0.3335 -0.9124 -0.0013
   13SAPS  H16S 1667   0.808   2.225   3.380  0.9880  0.8996  0.1883
   13SAPS  C217 1668   0.975   2.172   3.506  0.1000  0.0075  0.3164
   13SAPS  H17R 1669   1.047   2.253   3.482  0.9470 -0.7348  0.3036
   13SAPS  H17S 1670   1.034   2.080   3.527  2.0734  1.1294 -0.0818
   13SAPS  C218 1671   0.893   2.206   3.625  0.6385 -0.0622  0.4839
   13SAPS  H18R 1672   0.803   2.142   3.609  0.0962  1.2621 -2.6001
   13SAPS  H18S 1673   0.857   2.310   3.608  0.5192  0.0095  1.1566
   13SAPS  C219 1674   0.961   2.189   3.759  1.1243 -0.5979 -0.0860
   13SAPS  H19R 1675   1.055   2.249   3.763  1.6852 -1.5275  1.7157
   13SAPS  H19S 1676   0.981   2.081   3.769  0.1973 -0.7068  0.7804
   13SAPS  C220 1677   0.874   2.229   3.877 -0.2471 -0.8080 -0.3760
   13SAPS  H20R 1678   0.768   2.198   3.882  0.6106 -3.9142  2.2517
   13SAPS  H20S 1679   0.859   2.338   3.881 -2.5514 -1.1007  3.6122
   13SAPS  H20T 1680   0.927   2.186   3.965  0.6872  1.6056  0.3251
   13SAPS   C33 1681   1.419   1.820   2.796 -0.7788 -0.2460  0.0880
   13SAPS   H3X 1682   1.466   1.720   2.788  1.1371  0.6831 -0.7700
   13SAPS   H3Y 1683   1.311   1.807   2.771 -0.8957  0.2003  0.3476
   13SAPS   C34 1684   1.434   1.874   2.939 -0.1806 -0.2099 -0.0401
   13SAPS   H4X 1685   1.346   1.934   2.968  0.5828 -0.1983  2.4804
   13SAPS   H4Y 1686   1.516   1.949   2.940  1.8328 -2.2733 -0.1075
   13SAPS   C35 1687   1.458   1.778   3.056  0.0512 -0.3690  0.9018
   13SAPS   H5X 1688   1.566   1.750   3.053 -0.4205 -2.2179 -0.2482
   13SAPS   H5Y 1689   1.401   1.688   3.024 -1.8295  0.8026  0.8248
   13SAPS   C36 1690   1.403   1.812   3.192  0.4132  0.1763  0.2420
   13SAPS   H6X 1691   1.377   1.709   3.226  3.5459 -0.9046 -0.3211
   13SAPS   H6Y 1692   1.317   1.871   3.153  0.7252 -2.3810 -5.1555
   13SAPS   C37 1693   1.494   1.897   3.279  0.8164 -0.4833  0.4232
   13SAPS   H7X 1694   1.523   1.998   3.243  1.7215  0.4334  3.4412
   13SAPS   H7Y 1695   1.594   1.851   3.283 -0.0604 -2.3780  2.7479
   13SAPS   C38 1696   1.437   1.925   3.413 -0.6507  0.8654 -0.1786
   13SAPS   H8X 1697   1.332   1.959   3.395 -0.5387  0.4368 -1.8226
   13SAPS   H8Y 1698   1.493   2.005   3.465  1.0619 -0.1709 -0.3704
   13SAPS   C39 1699   1.438   1.800   3.504 -0.9954  1.0812 -0.8822
   13SAPS   H9X 1700   1.540   1.756   3.502 -1.9407 -1.6478  2.3597
   13SAPS   H9Y 1701   1.370   1.722   3.465  0.8913 -1.2734  0.2889
   13SAPS  C310 1702   1.403   1.839   3.653 -0.1686  0.6361 -0.3621
   13SAPS  H10X 1703   1.313   1.904   3.647 -0.6866 -0.1521 -1.3307
   13SAPS  H10Y 1704   1.485   1.903   3.691 -0.1502  0.3821  0.0304
   13SAPS  C311 1705   1.373   1.723   3.748 -0.1106  0.5033 -0.5161
   13SAPS  H11X 1706   1.460   1.655   3.740  0.5820  1.2527  0.4362
   13SAPS  H11Y 1707   1.285   1.672   3.702 -0.0281 -0.5734  0.4905
   13SAPS  C312 1708   1.345   1.772   3.892 -0.1119  0.1652 -0.1774
   13SAPS  H12X 1709   1.261   1.842   3.913 -1.4896 -1.9328  1.8604
   13SAPS  H12Y 1710   1.433   1.836   3.916 -0.5251  1.4108 -1.7585
   13SAPS  C313 1711   1.329   1.653   3.995 -0.0781  0.1917 -0.5854
   13SAPS  H13X 1712   1.396   1.569   3.969 -1.6978 -1.1838 -0.4237
   13SAPS  H13Y 1713   1.235   1.598   3.976 -0.5074  0.6203  0.2505
   13SAPS  C314 1714   1.359   1.695   4.136 -0.2529  0.5688  0.4876
   13SAPS  H14X 1715   1.278   1.769   4.152  0.2046  1.2307 -0.2197
   13SAPS  H14Y 1716   1.452   1.757   4.138 -0.7268  1.3447 -0.7090
   13SAPS  C315 1717   1.362   1.577   4.242 -0.5400  0.3229  0.0446
   13SAPS  H15X 1718   1.297   1.491   4.216 -1.5695  0.7924  0.9838
   13SAPS  H15Y 1719   1.325   1.616   4.339 -0.5155 -0.3464  0.3281
   13SAPS  C316 1720   1.503   1.501   4.253 -0.7160  0.0471 -0.3124
   13SAPS  H16X 1721   1.540   1.490   4.149  0.8065 -0.9797  0.2971
   13SAPS  H16Y 1722   1.479   1.398   4.288 -0.9112 -0.4508 -1.8368
   13SAPS  C317 1723   1.612   1.558   4.347  0.5399  0.3876  0.0942
   13SAPS  H17X 1724   1.576   1.555   4.452  0.8494 -0.5586  0.1799
   13SAPS  H17Y 1725   1.627   1.662   4.310  0.7527  0.0036 -0.9181
   13SAPS  C318 1726   1.747   1.482   4.347  0.3864  0.3981 -0.1988
   13SAPS  H18X 1727   1.805   1.524   4.432 -0.4705 -0.4971  0.8483
   13SAPS  H18Y 1728   1.796   1.478   4.247  0.5791 -1.2274 -0.0710
   13SAPS  H18Z 1729   1.749   1.373   4.370  1.6308  0.1955 -1.0884
   14SAPS     N 1730   5.577   5.288   1.950  0.0876  0.3648  0.0561
   14SAPS   HN1 1731   5.667   5.265   1.904 -0.8847 -1.1224 -1.1924
   14SAPS   HN2 1732   5.580   5.354   2.031 -0.4782  0.7781 -0.2536
   14SAPS   HN3 1733   5.532   5.204   1.991  0.9938  1.0800  2.7320
   14SAPS   C12 1734   5.484   5.346   1.847 -0.2372  0.3747 -0.0433
   14SAPS  H12A 1735   5.524   5.321   1.749 -0.2602  1.7744 -0.4319
   14SAPS   C13 1736   5.347   5.272   1.845  0.0124  0.3376 -0.3905
   14SAPS  O13A 1737   5.325   5.171   1.920 -0.0023 -0.0190  0.1744
   14SAPS  O13B 1738   5.259   5.308   1.760  0.0010 -0.1435 -0.0847
   14SAPS   C11 1739   5.486   5.505   1.869  0.0454 -0.0396  0.4173
   14SAPS  H11A 1740   5.416   5.554   1.799  1.3311  0.8778 -0.2477
   14SAPS  H11B 1741   5.583   5.547   1.836  1.3738 -1.8890  1.7198
   14SAPS     P 1742   5.468   5.688   2.054  0.2420  0.2702  0.0942
   14SAPS   O13 1743   5.592   5.746   2.016 -0.5568 -0.0783  0.4965
   14SAPS   O14 1744   5.337   5.751   2.020  0.2173  0.3757 -0.3103
   14SAPS   O12 1745   5.460   5.541   2.004  0.2530  0.2367  0.0675
   14SAPS   O11 1746   5.473   5.662   2.204 -0.2155 -0.1332 -0.5429
   14SAPS    C1 1747   5.359   5.597   2.270 -0.6551 -0.5233 -0.4399
   14SAPS    HA 1748   5.258   5.623   2.231 -0.8871 -1.2280 -0.3178
   14SAPS    HB 1749   5.359   5.490   2.241  2.3060 -0.9808  0.9436
   14SAPS    C2 1750   5.358   5.602   2.424 -0.0074  0.4060  0.4737
   14SAPS    HS 1751   5.322   5.700   2.461 -0.4792 -0.0187  1.1719
   14SAPS   O21 1752   5.488   5.576   2.462 -0.4004  0.3073 -0.5127
   14SAPS   C21 1753   5.518   5.581   2.585 -0.2877 -0.8557 -0.2262
   14SAPS   O22 1754   5.447   5.608   2.683 -0.0529 -0.2880  0.1972
   14SAPS   C22 1755   5.668   5.561   2.596  0.1847 -0.4838 -0.2595
   14SAPS   H2R 1756   5.685   5.499   2.686 -0.3210 -0.9628 -0.4890
   14SAPS   H2S 1757   5.705   5.500   2.511 -0.1287 -2.1965  0.7835
   14SAPS    C3 1758   5.249   5.501   2.475 -0.3704  0.1280 -1.1213
   14SAPS    HX 1759   5.234   5.523   2.583  1.4114  1.1234 -1.0283
   14SAPS    HY 1760   5.302   5.403   2.475 -1.1554 -0.3004 -0.4736
   14SAPS   O31 1761   5.126   5.511   2.404 -0.4530 -0.0838 -0.2308
   14SAPS   C31 1762   5.082   5.412   2.332  0.3101  0.5444  0.9817
   14SAPS   O32 1763   5.148   5.318   2.285  0.2563  0.1016  0.1319
   14SAPS   C32 1764   4.943   5.449   2.279 -0.0940 -0.2413 -0.3960
   14SAPS   H2X 1765   4.942   5.443   2.168 -0.2728  2.5074 -0.6079
   14SAPS   H2Y 1766   4.918   5.555   2.303 -0.5484 -0.4238 -0.0641
   14SAPS   C23 1767   5.753   5.681   2.636 -0.8333 -0.5220 -0.4146
   14SAPS   H3R 1768   5.710   5.746   2.715  0.2133  0.6453 -0.7678
   14SAPS   H3S 1769   5.774   5.746   2.548 -1.3651 -0.1233 -0.2552
   14SAPS   C24 1770   5.892   5.624   2.701  0.1638  0.5126  0.2045
   14SAPS   H4R 1771   5.916   5.532   2.644  0.1899 -0.0268  1.0660
   14SAPS   H4S 1772   5.881   5.596   2.808 -0.9121 -0.3424 -0.1114
   14SAPS   C25 1773   6.004   5.728   2.693  0.4802  0.5797  0.5628
   14SAPS   H5R 1774   6.013   5.766   2.590  0.1744  0.0232  0.3301
   14SAPS   C26 1775   6.069   5.789   2.793 -0.2827 -0.0589  0.2095
   14SAPS   H6R 1776   6.138   5.867   2.756 -1.6176  0.5670 -1.0854
   14SAPS   C27 1777   6.039   5.777   2.943  0.3478 -0.1735  1.2567
   14SAPS   H7R 1778   6.120   5.815   3.009  0.4560  0.4815  0.7493
   14SAPS   H7S 1779   6.038   5.668   2.963  0.4361 -0.3535  0.3045
   14SAPS   C28 1780   5.905   5.828   2.984  0.4806  0.3491 -0.7183
   14SAPS   H8R 1781   5.827   5.768   2.935  0.3566 -0.6532  0.6531
   14SAPS   C29 1782   5.870   5.923   3.075  0.2305  0.2830  0.3307
   14SAPS   H9R 1783   5.761   5.926   3.087  0.2401  1.0432  0.3025
   14SAPS  C210 1784   5.960   6.014   3.161  0.0793 -0.5106 -0.1619
   14SAPS  H10R 1785   5.894   6.092   3.203 -0.3375 -0.2578 -1.2695
   14SAPS  H10S 1786   6.037   6.069   3.104 -0.7698  0.4811 -0.3813
   14SAPS  C211 1787   6.016   5.939   3.277 -0.7221 -0.1725  0.1239
   14SAPS  H11R 1788   6.017   5.829   3.267  0.2101 -0.1587 -0.0457
   14SAPS  C212 1789   6.070   5.990   3.392 -0.0725 -0.9855 -0.5041
   14SAPS  H12R 1790   6.104   5.922   3.472 -1.8595  0.6451  1.7794
   14SAPS  C213 1791   6.081   6.144   3.415 -0.0905  0.7702  0.1889
   14SAPS  H13R 1792   6.043   6.203   3.328  0.0052  4.2426  2.3096
   14SAPS  H13S 1793   6.186   6.179   3.414  0.0158  0.4522  0.1171
   14SAPS  C214 1794   5.996   6.183   3.538 -0.0041  1.5277  0.9006
   14SAPS  H14R 1795   5.898   6.134   3.530 -1.1995  3.9812 -0.7188
   14SAPS  C215 1796   6.022   6.267   3.635  0.0268  0.5946 -0.2774
   14SAPS  H15R 1797   5.942   6.282   3.709  0.3584 -0.6857  0.3677
   14SAPS  C216 1798   6.152   6.334   3.672  0.1673  1.0869  0.3614
   14SAPS  H16R 1799   6.137   6.443   3.657  0.0550  0.8436 -1.5048
   14SAPS  H16S 1800   6.234   6.303   3.604 -0.5682  1.1973 -0.5861
   14SAPS  C217 1801   6.189   6.313   3.820 -0.3057  0.7668 -0.4240
   14SAPS  H17R 1802   6.099   6.334   3.883  0.2972 -0.2258  0.8149
   14SAPS  H17S 1803   6.264   6.387   3.856 -0.1032  0.7491 -0.8036
   14SAPS  C218 1804   6.231   6.164   3.862  0.4784 -0.9765 -0.0098
   14SAPS  H18R 1805   6.337   6.144   3.838  0.1500 -0.9819 -1.5667
   14SAPS  H18S 1806   6.170   6.095   3.801  0.8469  0.4448 -2.0812
   14SAPS  C219 1807   6.225   6.130   4.012  0.1571  0.0438 -0.8001
   14SAPS  H19R 1808   6.240   6.023   4.036 -0.3765  0.0762 -0.2835
   14SAPS  H19S 1809   6.118   6.134   4.043  0.6302  0.1489  0.9459
   14SAPS  C220 1810   6.314   6.209   4.112 -0.1561 -0.3205 -0.7209
   14SAPS  H20R 1811   6.272   6.186   4.212  0.0202  1.3681 -0.2301
   14SAPS  H20S 1812   6.304   6.319   4.095  0.2736 -0.0706  0.5691
   14SAPS  H20T 1813   6.420   6.180   4.105  0.1438 -0.4559  2.6361
   14SAPS   C33 1814   4.832   5.353   2.318 -0.7003 -0.2572 -0.2186
   14SAPS   H3X 1815   4.875   5.251   2.320 -1.3384 -0.5215  0.7183
   14SAPS   H3Y 1816   4.748   5.362   2.246  0.0047 -0.1343 -1.0298
   14SAPS   C34 1817   4.769   5.380   2.460  0.1549  0.0670  0.3447
   14SAPS   H4X 1818   4.756   5.490   2.466 -2.5471 -0.2452  4.2294
   14SAPS   H4Y 1819   4.841   5.353   2.540  1.3660 -0.2092 -0.8032
   14SAPS   C35 1820   4.632   5.310   2.477 -0.3434 -0.0501 -0.2375
   14SAPS   H5X 1821   4.647   5.200   2.478 -2.1443 -0.3778  2.5612
   14SAPS   H5Y 1822   4.570   5.336   2.389 -1.3082  1.8175  0.9269
   14SAPS   C36 1823   4.560   5.356   2.601 -0.5710 -0.3939 -0.1141
   14SAPS   H6X 1824   4.460   5.311   2.613 -0.7333  0.2106  0.8958
   14SAPS   H6Y 1825   4.546   5.465   2.585  2.6205 -0.0667 -1.4558
   14SAPS   C37 1826   4.629   5.322   2.735 -0.1168  0.3968  0.3569
   14SAPS   H7X 1827   4.731   5.366   2.740 -0.2888  0.6762  2.6916
   14SAPS   H7Y 1828   4.634   5.213   2.755 -1.7723  0.3033  0.4267
   14SAPS   C38 1829   4.555   5.384   2.859  0.5255  0.3963  0.2949
   14SAPS   H8X 1830   4.449   5.351   2.857  0.2512  1.2808 -0.3556
   14SAPS   H8Y 1831   4.555   5.495   2.851 -2.0402  0.4811  0.4415
   14SAPS   C39 1832   4.620   5.330   2.988 -0.5659  0.0491  0.0233
   14SAPS   H9X 1833   4.729   5.345   2.977 -0.9394  2.1263 -1.4824
   14SAPS   H9Y 1834   4.609   5.220   2.993 -1.4735  0.1090 -0.4710
   14SAPS  C310 1835   4.567   5.394   3.118 -0.1950  0.2284 -0.1579
   14SAPS  H10X 1836   4.457   5.385   3.131 -0.3072 -1.3009 -1.7565
   14SAPS  H10Y 1837   4.598   5.501   3.119 -0.0649  0.1947  1.0177
   14SAPS  C311 1838   4.627   5.321   3.233 -0.0846 -0.2399 -0.1958
   14SAPS  H11X 1839   4.734   5.301   3.210  0.1776 -0.2184  0.9520
   14SAPS  H11Y 1840   4.575   5.223   3.246 -1.7985  0.8511  1.8313
   14SAPS  C312 1841   4.617   5.407   3.360 -0.2195  0.0917  0.0694
   14SAPS  H12X 1842   4.511   5.438   3.372  0.1476  1.2119  0.6006
   14SAPS  H12Y 1843   4.674   5.502   3.359  2.1405 -1.1666  2.7409
   14SAPS  C313 1844   4.667   5.338   3.488  0.5083 -0.6820 -0.0436
   14SAPS  H13X 1845   4.771   5.298   3.491 -0.1212 -2.3715  3.2903
   14SAPS  H13Y 1846   4.607   5.244   3.495  2.0159 -1.6424  0.4042
   14SAPS  C314 1847   4.658   5.427   3.611  0.0610 -0.2858 -0.0403
   14SAPS  H14X 1848   4.550   5.446   3.627 -0.8236 -1.9037 -3.1375
   14SAPS  H14Y 1849   4.708   5.525   3.595  0.7516 -0.7015 -0.4769
   14SAPS  C315 1850   4.720   5.351   3.730 -0.6065 -0.6565 -0.0118
   14SAPS  H15X 1851   4.830   5.365   3.717 -0.7276 -0.1234 -0.5241
   14SAPS  H15Y 1852   4.700   5.243   3.715 -3.1164 -0.1563 -0.7530
   14SAPS  C316 1853   4.691   5.413   3.869  0.0371 -0.3176  0.8549
   14SAPS  H16X 1854   4.583   5.407   3.893 -0.1945  1.4128  0.3604
   14SAPS  H16Y 1855   4.702   5.523   3.872  1.2314 -0.4278  0.9655
   14SAPS  C317 1856   4.767   5.365   3.995  0.1299 -0.4368 -0.0081
   14SAPS  H17X 1857   4.733   5.428   4.080 -0.9728 -0.1416 -0.6516
   14SAPS  H17Y 1858   4.875   5.382   3.979  0.2840 -0.7873  0.6034
   14SAPS  C318 1859   4.747   5.223   4.022 -0.3337  0.6577  0.2233
   14SAPS  H18X 1860   4.786   5.151   3.947  0.1754  0.3716  0.7468
   14SAPS  H18Y 1861   4.642   5.187   4.019  0.0088 -0.3363 -2.3765
   14SAPS  H18Z 1862   4.788   5.187   4.119  0.8323 -0.3612 -0.6195
   15SAPS     N 1863   0.508   3.473   2.101  0.3489  0.4127 -0.0924
   15SAPS   HN1 1864   0.482   3.399   2.170 -2.2098  0.3537 -1.0043
   15SAPS   HN2 1865   0.541   3.432   2.011 -1.8707  0.6050 -1.0610
   15SAPS   HN3 1866   0.573   3.543   2.140 -0.7321  0.6506  1.3668
   15SAPS   C12 1867   0.379   3.530   2.064  0.2734  0.1392 -0.2773
   15SAPS  H12A 1868   0.382   3.535   1.957  0.2979  1.2523 -0.2326
   15SAPS   C13 1869   0.260   3.449   2.127  0.4782  0.2960  0.3437
   15SAPS  O13A 1870   0.272   3.360   2.216 -0.0245 -0.0858  0.2153
   15SAPS  O13B 1871   0.155   3.458   2.065  0.6537 -0.6887  0.1900
   15SAPS   C11 1872   0.368   3.674   2.106 -0.2454 -0.5334  0.3344
   15SAPS  H11A 1873   0.263   3.709   2.091  0.4984  1.4861 -0.3915
   15SAPS  H11B 1874   0.429   3.745   2.048 -1.4481 -0.9459 -1.5306
   15SAPS     P 1875   0.398   3.832   2.318  0.2643  0.0915  0.5065
   15SAPS   O13 1876   0.493   3.829   2.430  0.5632 -0.0295  0.7145
   15SAPS   O14 1877   0.417   3.941   2.221  0.1089 -0.7508 -0.1202
   15SAPS   O12 1878   0.403   3.698   2.240 -0.0471  0.0718 -0.0643
   15SAPS   O11 1879   0.242   3.835   2.350 -0.4961 -0.0241  0.0403
   15SAPS    C1 1880   0.181   3.728   2.415 -0.0036 -0.2688  0.2285
   15SAPS    HA 1881   0.204   3.630   2.369 -1.2048 -0.4574  0.0020
   15SAPS    HB 1882   0.218   3.720   2.520  0.6761 -1.5728 -0.0920
   15SAPS    C2 1883   0.022   3.748   2.421  0.4151  0.1322  0.5321
   15SAPS    HS 1884   0.007   3.806   2.328 -0.9455  0.9196  1.2041
   15SAPS   O21 1885  -0.003   3.836   2.530 -0.2330 -0.0011 -0.0984
   15SAPS   C21 1886  -0.122   3.896   2.517  0.8345 -0.1393  0.2457
   15SAPS   O22 1887  -0.202   3.883   2.427  0.1126  0.2007 -0.1155
   15SAPS   C22 1888  -0.146   3.983   2.635  0.1821 -0.5906 -0.2925
   15SAPS   H2R 1889  -0.120   3.924   2.726  1.6382  1.6302  0.8242
   15SAPS   H2S 1890  -0.081   4.073   2.638 -1.3406  0.5552  0.3144
   15SAPS    C3 1891  -0.063   3.615   2.424  0.1624  0.2467 -0.0819
   15SAPS    HX 1892  -0.018   3.554   2.342  2.4336  1.1819  0.4129
   15SAPS    HY 1893  -0.164   3.643   2.386  0.4752 -0.9736 -1.9256
   15SAPS   O31 1894  -0.068   3.540   2.542 -0.4715  0.3619 -0.6805
   15SAPS   C31 1895  -0.108   3.418   2.520 -0.2882 -0.3107 -0.4824
   15SAPS   O32 1896  -0.160   3.380   2.415 -0.4201 -0.4018  0.0619
   15SAPS   C32 1897  -0.082   3.331   2.643 -0.2217  0.5398 -0.5610
   15SAPS   H2X 1898   0.011   3.371   2.689 -0.2551 -0.3999  0.3623
   15SAPS   H2Y 1899  -0.072   3.231   2.595 -0.6675 -0.1160  0.6760
   15SAPS   C23 1900  -0.290   4.028   2.645  0.0527  0.0635 -0.2957
   15SAPS   H3R 1901  -0.363   3.945   2.659  0.5761 -0.6645 -1.7514
   15SAPS   H3S 1902  -0.311   4.079   2.549 -0.5354  2.0896  0.8413
   15SAPS   C24 1903  -0.315   4.134   2.761  0.2668 -0.2343 -0.4902
   15SAPS   H4R 1904  -0.422   4.157   2.742  0.0182  0.8506  1.8294
   15SAPS   H4S 1905  -0.267   4.233   2.747 -0.5854  0.2455 -0.1076
   15SAPS   C25 1906  -0.276   4.073   2.888  0.1710 -0.1175 -1.1743
   15SAPS   H5R 1907  -0.171   4.046   2.906 -0.6676 -2.9515  0.1073
   15SAPS   C26 1908  -0.359   4.056   3.000 -0.3111 -0.0186 -0.1245
   15SAPS   H6R 1909  -0.318   4.005   3.088  0.4676 -0.4436 -0.7210
   15SAPS   C27 1910  -0.505   4.087   3.009 -0.0639  0.3236  0.3017
   15SAPS   H7R 1911  -0.530   4.150   2.922 -0.8939  0.2349  0.4631
   15SAPS   H7S 1912  -0.520   4.150   3.099 -0.1281 -0.6469  0.9917
   15SAPS   C28 1913  -0.591   3.969   3.000 -0.4654 -0.2162  0.1148
   15SAPS   H8R 1914  -0.621   3.936   2.899 -2.1738 -0.2565  0.6011
   15SAPS   C29 1915  -0.628   3.900   3.108  0.2035  0.2555  0.5271
   15SAPS   H9R 1916  -0.697   3.815   3.095 -2.7772  2.3368  1.6648
   15SAPS  C210 1917  -0.595   3.921   3.257 -0.0363 -0.1697 -0.2463
   15SAPS  H10R 1918  -0.527   4.009   3.267 -1.1311  0.7075 -0.2385
   15SAPS  H10S 1919  -0.542   3.830   3.291  0.9116  0.4535 -0.0108
   15SAPS  C211 1920  -0.719   3.934   3.340  0.2227 -0.1376 -0.2043
   15SAPS  H11R 1921  -0.739   3.846   3.404  1.3492 -0.7440 -0.6581
   15SAPS  C212 1922  -0.800   4.044   3.352 -0.5327  0.0690 -0.0888
   15SAPS  H12R 1923  -0.887   4.042   3.420 -0.0908  0.8120  0.5237
   15SAPS  C213 1924  -0.801   4.181   3.286  0.1528  0.3831 -0.2431
   15SAPS  H13R 1925  -0.693   4.210   3.289  0.3530 -0.2786 -0.8927
   15SAPS  H13S 1926  -0.857   4.243   3.360 -1.2057 -1.5259  0.3809
   15SAPS  C214 1927  -0.865   4.179   3.147 -0.5190 -0.1625 -0.3895
   15SAPS  H14R 1928  -0.846   4.096   3.077 -1.1715 -0.2002 -0.5310
   15SAPS  C215 1929  -0.966   4.264   3.115  0.5774 -0.5635 -0.0281
   15SAPS  H15R 1930  -1.002   4.267   3.011  2.7469  2.5624 -0.8344
   15SAPS  C216 1931  -1.037   4.372   3.192 -0.2838  0.1884  0.5904
   15SAPS  H16R 1932  -1.067   4.332   3.291  2.6304  1.2641  2.0077
   15SAPS  H16S 1933  -1.127   4.406   3.136  0.3506 -0.3417 -0.7814
   15SAPS  C217 1934  -0.949   4.501   3.223  0.6273  0.7961 -0.6883
   15SAPS  H17R 1935  -0.926   4.553   3.127  0.9340  1.2283 -0.3843
   15SAPS  H17S 1936  -0.855   4.464   3.270  0.7479  1.5886 -0.2866
   15SAPS  C218 1937  -1.006   4.597   3.331  0.8737  0.4484  1.0985
   15SAPS  H18R 1938  -1.102   4.649   3.309  0.4522 -0.2383  1.2576
   15SAPS  H18S 1939  -0.923   4.670   3.342  1.9788 -0.4659 -0.6102
   15SAPS  C219 1940  -1.037   4.532   3.466 -0.1919 -0.1332  0.2152
   15SAPS  H19R 1941  -0.957   4.463   3.498  2.3154  1.8949 -1.3026
   15SAPS  H19S 1942  -1.133   4.477   3.462 -1.3771  1.8005  0.3519
   15SAPS  C220 1943  -1.045   4.640   3.576 -0.0323 -0.1736 -0.5330
   15SAPS  H20R 1944  -0.981   4.728   3.553 -0.2052  0.4122  1.1104
   15SAPS  H20S 1945  -1.009   4.596   3.672  1.1635  1.4485 -0.1939
   15SAPS  H20T 1946  -1.147   4.681   3.587 -0.5202 -1.6103  0.7106
   15SAPS   C33 1947  -0.185   3.336   2.751  0.2979  1.0565  0.1080
   15SAPS   H3X 1948  -0.155   3.267   2.834  0.9720  0.5765 -0.5213
   15SAPS   H3Y 1949  -0.280   3.284   2.726  0.3672 -0.7485  3.0037
   15SAPS   C34 1950  -0.215   3.470   2.810  0.2829 -0.5343  0.3380
   15SAPS   H4X 1951  -0.240   3.543   2.731 -2.8744 -2.4484 -0.6240
   15SAPS   H4Y 1952  -0.128   3.516   2.863  1.5615 -0.7301 -1.5066
   15SAPS   C35 1953  -0.339   3.476   2.907 -0.8324  0.0778 -0.1624
   15SAPS   H5X 1954  -0.423   3.425   2.855  1.6295 -1.5748 -2.8542
   15SAPS   H5Y 1955  -0.361   3.578   2.944 -0.3571  0.7692 -1.7121
   15SAPS   C36 1956  -0.307   3.403   3.038 -0.6216 -0.7102 -0.7574
   15SAPS   H6X 1957  -0.207   3.427   3.080 -1.9578 -1.1904  3.1078
   15SAPS   H6Y 1958  -0.308   3.293   3.027  0.4728 -0.8662  0.5230
   15SAPS   C37 1959  -0.410   3.448   3.142  0.1216  0.2316  0.4035
   15SAPS   H7X 1960  -0.512   3.423   3.107  0.4246 -1.4196  0.6055
   15SAPS   H7Y 1961  -0.404   3.557   3.162 -0.2076  0.3065  0.0920
   15SAPS   C38 1962  -0.387   3.371   3.271  0.3007  0.2874 -0.3983
   15SAPS   H8X 1963  -0.287   3.395   3.312  0.7567 -2.1962  0.0662
   15SAPS   H8Y 1964  -0.400   3.266   3.239  4.3608 -1.2535  2.2157
   15SAPS   C39 1965  -0.504   3.399   3.373 -0.3663  0.7276  0.7540
   15SAPS   H9X 1966  -0.604   3.380   3.328  0.7303 -0.1068 -1.4846
   15SAPS   H9Y 1967  -0.488   3.507   3.394  2.9127  0.3956  0.4169
   15SAPS  C310 1968  -0.483   3.312   3.505 -0.0605 -0.6503  1.0511
   15SAPS  H10X 1969  -0.379   3.334   3.536  0.0523 -1.6888  1.4836
   15SAPS  H10Y 1970  -0.486   3.207   3.467 -0.6688  0.1341 -1.2265
   15SAPS  C311 1971  -0.581   3.342   3.622  0.4112  0.1337  0.4298
   15SAPS  H11X 1972  -0.684   3.325   3.584 -0.8745  2.6204  2.4530
   15SAPS  H11Y 1973  -0.570   3.452   3.639 -0.0667  0.0900  1.0807
   15SAPS  C312 1974  -0.551   3.253   3.748  1.2314 -0.7160 -0.2794
   15SAPS  H12X 1975  -0.591   3.152   3.726  0.6845 -0.1024 -2.2827
   15SAPS  H12Y 1976  -0.601   3.297   3.837  1.0661 -1.4947  0.0216
   15SAPS  C313 1977  -0.405   3.248   3.795  0.6508 -0.2191  0.0559
   15SAPS  H13X 1978  -0.364   3.351   3.790 -0.1470  0.0694 -0.9145
   15SAPS  H13Y 1979  -0.353   3.187   3.719  0.6651 -1.0493  0.7258
   15SAPS  C314 1980  -0.389   3.171   3.923 -0.1874 -0.7868  0.1045
   15SAPS  H14X 1981  -0.440   3.222   4.008  1.4086 -1.1973  1.3529
   15SAPS  H14Y 1982  -0.282   3.162   3.953  0.3974 -1.3633 -2.0217
   15SAPS  C315 1983  -0.424   3.021   3.903  0.6037 -0.2626  0.2036
   15SAPS  H15X 1984  -0.360   2.977   3.824  0.7395 -0.4672  0.4242
   15SAPS  H15Y 1985  -0.530   3.009   3.875 -0.2077 -0.8118  3.1605
   15SAPS  C316 1986  -0.403   2.940   4.024  0.3587  0.6071 -0.0926
   15SAPS  H16X 1987  -0.296   2.939   4.057  0.4714  1.3687 -0.4189
   15SAPS  H16Y 1988  -0.419   2.833   3.998 -0.2277  0.6195  0.1963
   15SAPS  C317 1989  -0.484   2.983   4.146  0.0472 -0.1844  0.1779
   15SAPS  H17X 1990  -0.485   3.093   4.161 -1.0240 -0.0955 -0.4275
   15SAPS  H17Y 1991  -0.444   2.943   4.242 -1.1581 -2.0636 -0.0555
   15SAPS  C318 1992  -0.631   2.950   4.145 -0.0511  0.5109  0.7214
   15SAPS  H18X 1993  -0.697   3.008   4.211 -0.5716  1.4408 -0.5740
   15SAPS  H18Y 1994  -0.638   2.840   4.162 -1.0590  0.6575  1.3220
   15SAPS  H18Z 1995  -0.668   2.977   4.044  0.9226  0.0815  0.2287
   16SAPS     N 1996   3.757   6.677   1.475 -0.2612 -0.0583  0.2627
   16SAPS   HN1 1997   3.839   6.723   1.431 -2.6383  2.4563 -1.9183
   16SAPS   HN2 1998   3.785   6.639   1.568  2.2643  2.2072  0.5569
   16SAPS   HN3 1999   3.745   6.587   1.424  0.6776 -0.1071  0.0996
   16SAPS   C12 2000   3.642   6.770   1.463 -0.4121  0.2260 -0.4956
   16SAPS  H12A 2001   3.676   6.872   1.472 -0.4589  0.2252 -0.3178
   16SAPS   C13 2002   3.587   6.756   1.322  0.3337 -0.2487  0.3951
   16SAPS  O13A 2003   3.629   6.672   1.237  0.0749 -0.7126 -0.0049
   16SAPS  O13B 2004   3.492   6.834   1.288  0.4665 -0.5942  0.3624
   16SAPS   C11 2005   3.532   6.733   1.574 -0.6206 -0.0889  0.2638
   16SAPS  H11A 2006   3.462   6.819   1.578 -0.2647  0.1629  1.8376
   16SAPS  H11B 2007   3.579   6.739   1.674  0.3897 -0.4166 -0.1786
   16SAPS     P 2008   3.476   6.487   1.648 -0.2264 -0.2581  0.4728
   16SAPS   O13 2009   3.410   6.373   1.579  0.4923  0.3256  0.2513
   16SAPS   O14 2010   3.620   6.463   1.690 -0.0710  0.6517  0.1026
   16SAPS   O12 2011   3.464   6.611   1.548  0.3129 -0.4783  0.1390
   16SAPS   O11 2012   3.381   6.548   1.762 -0.0700  0.4669  0.7505
   16SAPS    C1 2013   3.364   6.492   1.890 -0.2653 -0.2993  0.1667
   16SAPS    HA 2014   3.264   6.447   1.911 -0.2577 -0.4163 -0.0484
   16SAPS    HB 2015   3.437   6.409   1.901  1.3482  1.0148 -0.2540
   16SAPS    C2 2016   3.373   6.600   1.995 -0.2726  0.7969 -0.1012
   16SAPS    HS 2017   3.301   6.685   1.989 -0.5606  0.5292 -0.5206
   16SAPS   O21 2018   3.509   6.645   1.985 -0.3564 -0.4546  0.1318
   16SAPS   C21 2019   3.521   6.771   1.923 -0.3845 -0.1148 -0.0554
   16SAPS   O22 2020   3.426   6.838   1.886 -0.1889  0.4146 -0.3957
   16SAPS   C22 2021   3.664   6.822   1.923 -0.1314 -0.2152  0.0373
   16SAPS   H2R 2022   3.719   6.755   1.854 -0.6798 -1.2941  0.6168
   16SAPS   H2S 2023   3.661   6.923   1.877  0.7810 -0.9636 -1.7203
   16SAPS    C3 2024   3.358   6.532   2.137  0.4996  0.1172  0.5959
   16SAPS    HX 2025   3.381   6.624   2.196 -1.3091  2.2728 -1.8270
   16SAPS    HY 2026   3.432   6.449   2.148  1.1443  0.3916 -1.3045
   16SAPS   O31 2027   3.220   6.489   2.151 -0.4507  0.3760  0.4623
   16SAPS   C31 2028   3.162   6.517   2.265 -1.0877  0.4682 -0.7979
   16SAPS   O32 2029   3.220   6.565   2.363 -0.0959 -0.0849 -0.0805
   16SAPS   C32 2030   3.019   6.453   2.260 -0.6670  0.0630  0.4800
   16SAPS   H2X 2031   3.026   6.356   2.206  0.7257 -1.4043  3.0930
   16SAPS   H2Y 2032   2.949   6.529   2.220 -1.9016 -1.3165 -0.0478
   16SAPS   C23 2033   3.720   6.835   2.062  0.2078  0.2756  0.0094
   16SAPS   H3R 2034   3.828   6.857   2.049 -0.1235  1.2955 -1.1974
   16SAPS   H3S 2035   3.712   6.738   2.116 -0.1134 -0.5386 -1.4502
   16SAPS   C24 2036   3.656   6.947   2.149 -0.8452  0.3319 -0.4390
   16SAPS   H4R 2037   3.672   7.048   2.105  0.3107  0.5214  0.3695
   16SAPS   H4S 2038   3.716   6.949   2.242 -0.4249  0.2880 -0.7056
   16SAPS   C25 2039   3.503   6.936   2.168 -0.2238 -0.7889  0.0687
   16SAPS   H5R 2040   3.435   6.971   2.089 -0.8301 -0.9197  0.5257
   16SAPS   C26 2041   3.450   6.872   2.268  0.8103  0.1362 -0.4771
   16SAPS   H6R 2042   3.340   6.870   2.268  0.7606  1.4602  0.8350
   16SAPS   C27 2043   3.522   6.812   2.396 -0.1707  0.1829 -0.0493
   16SAPS   H7R 2044   3.615   6.761   2.363  0.1872  0.2405  0.8469
   16SAPS   H7S 2045   3.455   6.741   2.449 -0.7234 -0.4855 -1.5853
   16SAPS   C28 2046   3.557   6.909   2.507 -0.6497 -0.3855 -0.8122
   16SAPS   H8R 2047   3.573   7.012   2.472 -1.3858 -0.6458 -1.9873
   16SAPS   C29 2048   3.570   6.885   2.641 -1.0658  0.6414  0.2527
   16SAPS   H9R 2049   3.610   6.957   2.714  1.4338 -2.4587  2.2131
   16SAPS  C210 2050   3.557   6.746   2.698 -0.3671 -0.0722 -0.4563
   16SAPS  H10R 2051   3.616   6.664   2.651  1.2440 -0.5143  2.1235
   16SAPS  H10S 2052   3.451   6.718   2.681 -1.3926  2.6293  0.9513
   16SAPS  C211 2053   3.587   6.728   2.846 -0.1526  0.2213  1.3760
   16SAPS  H11R 2054   3.675   6.666   2.870 -0.5583 -0.4838  1.0559
   16SAPS  C212 2055   3.518   6.777   2.946 -0.6507 -0.5036  0.3240
   16SAPS  H12R 2056   3.563   6.755   3.044  0.2451  0.7974  0.2276
   16SAPS  C213 2057   3.392   6.859   2.957 -0.0517  0.0068 -0.7259
   16SAPS  H13R 2058   3.377   6.928   2.872  2.1805  0.8247 -0.5378
   16SAPS  H13S 2059   3.393   6.926   3.046 -0.3249 -0.4020 -0.4109
   16SAPS  C214 2060   3.272   6.768   2.956  0.3790  0.8129 -0.3941
   16SAPS  H14R 2061   3.256   6.718   2.859 -0.9778 -0.1254  0.2871
   16SAPS  C215 2062   3.201   6.737   3.065  0.7973 -0.2675 -0.6022
   16SAPS  H15R 2063   3.125   6.658   3.062 -0.3144  0.6793  0.8959
   16SAPS  C216 2064   3.215   6.768   3.212  0.6494  0.2252  0.4691
   16SAPS  H16R 2065   3.110   6.792   3.238  0.5038 -0.3718  0.4464
   16SAPS  H16S 2066   3.278   6.856   3.238  3.1317 -1.1710 -0.4780
   16SAPS  C217 2067   3.270   6.647   3.287  0.2782 -0.1794  1.0498
   16SAPS  H17R 2068   3.370   6.624   3.243  0.1035  3.5951 -1.7736
   16SAPS  H17S 2069   3.208   6.564   3.246  1.8264 -0.7666 -0.2635
   16SAPS  C218 2070   3.251   6.645   3.437 -0.2403  0.5377  0.1909
   16SAPS  H18R 2071   3.275   6.544   3.477  0.8235  0.0289 -1.6150
   16SAPS  H18S 2072   3.147   6.677   3.462  0.2370  1.2955  1.2747
   16SAPS  C219 2073   3.354   6.735   3.492 -0.0064  0.0512 -0.0580
   16SAPS  H19R 2074   3.341   6.841   3.462 -1.9766  0.1539  0.9832
   16SAPS  H19S 2075   3.457   6.703   3.467  1.2125  0.4219  3.8643
   16SAPS  C220 2076   3.342   6.748   3.641  0.0060  0.3562 -0.0833
   16SAPS  H20R 2077   3.242   6.788   3.666 -0.3563  0.2971 -1.3746
   16SAPS  H20S 2078   3.418   6.819   3.681  2.1176 -1.9944  0.3703
   16SAPS  H20T 2079   3.343   6.647   3.689  1.4770  0.9586  1.2777
   16SAPS   C33 2080   2.985   6.412   2.407  0.1234 -0.0557 -0.9148
   16SAPS   H3X 2081   2.874   6.403   2.411  0.1135 -0.5158 -1.9756
   16SAPS   H3Y 2082   3.024   6.479   2.487  0.9955 -3.1899  1.4851
   16SAPS   C34 2083   3.043   6.269   2.433 -0.1644 -0.5015 -0.1213
   16SAPS   H4X 2084   3.150   6.285   2.459 -0.3063 -1.8479  1.4709
   16SAPS   H4Y 2085   3.045   6.199   2.346 -0.1792 -1.7614  0.8519
   16SAPS   C35 2086   2.978   6.202   2.553 -0.0504 -0.0242 -0.1747
   16SAPS   H5X 2087   3.045   6.115   2.570 -0.8637 -0.9141 -1.3776
   16SAPS   H5Y 2088   2.877   6.157   2.543  0.4490 -1.2611  0.2101
   16SAPS   C36 2089   2.976   6.292   2.677 -0.9018 -0.1613 -0.0465
   16SAPS   H6X 2090   2.871   6.319   2.705 -1.8278 -3.8733  0.6043
   16SAPS   H6Y 2091   3.051   6.372   2.657  0.6200 -1.7711 -0.9948
   16SAPS   C37 2092   3.014   6.214   2.809  0.1265 -0.4515  0.6450
   16SAPS   H7X 2093   3.124   6.198   2.800  0.3064  1.1887 -0.6027
   16SAPS   H7Y 2094   2.984   6.107   2.801  3.5940 -1.5397  0.3703
   16SAPS   C38 2095   2.972   6.286   2.935 -0.2718  1.3828 -0.1459
   16SAPS   H8X 2096   2.867   6.320   2.935 -1.4791 -1.9617 -0.5299
   16SAPS   H8Y 2097   3.037   6.375   2.949  1.3114  0.2161  0.2450
   16SAPS   C39 2098   2.990   6.179   3.049  0.3060 -0.4975 -0.0187
   16SAPS   H9X 2099   3.090   6.131   3.042 -0.1929 -1.4314 -1.0443
   16SAPS   H9Y 2100   2.908   6.106   3.027 -2.2428  2.0256  0.4419
   16SAPS  C310 2101   2.985   6.238   3.187  0.3947  0.1171  0.5497
   16SAPS  H10X 2102   2.884   6.282   3.202 -0.6110 -1.8948 -0.0782
   16SAPS  H10Y 2103   3.057   6.320   3.210 -0.4546  0.8587  0.6097
   16SAPS  C311 2104   3.000   6.132   3.301  0.2014 -0.5571 -0.9289
   16SAPS  H11X 2105   3.097   6.081   3.284  0.3599 -0.4625 -0.3020
   16SAPS  H11Y 2106   2.918   6.058   3.294 -0.4446  0.1993 -1.5491
   16SAPS  C312 2107   2.998   6.196   3.442  0.2511 -0.1920  1.4293
   16SAPS  H12X 2108   2.893   6.227   3.462  1.1865  1.9772  3.4096
   16SAPS  H12Y 2109   3.069   6.281   3.445  2.2569 -1.7329  0.2818
   16SAPS  C313 2110   3.036   6.103   3.552 -0.1415  0.1101 -0.1890
   16SAPS  H13X 2111   3.146   6.089   3.550  0.0611  1.2561  1.3462
   16SAPS  H13Y 2112   2.984   6.005   3.549  0.9289 -0.8666  4.6855
   16SAPS  C314 2113   3.016   6.147   3.703  0.0066 -0.9048  0.7093
   16SAPS  H14X 2114   3.042   6.255   3.712 -1.4117 -0.5439  0.6710
   16SAPS  H14Y 2115   3.089   6.088   3.762  0.0988 -1.1460  0.3607
   16SAPS  C315 2116   2.863   6.134   3.738  0.4573  0.4856  0.2986
   16SAPS  H15X 2117   2.831   6.031   3.712  0.7013  0.7375 -1.1107
   16SAPS  H15Y 2118   2.800   6.203   3.678 -3.8372 -0.1445  3.5886
   16SAPS  C316 2119   2.832   6.178   3.880  0.0817  0.2212 -0.4607
   16SAPS  H16X 2120   2.866   6.283   3.887  0.9404  0.0974 -2.1696
   16SAPS  H16Y 2121   2.892   6.119   3.953 -1.2126 -0.8593 -0.2218
   16SAPS  C317 2122   2.684   6.165   3.920  0.2183 -0.2986  0.2561
   16SAPS  H17X 2123   2.655   6.059   3.930  0.4956 -0.3739  0.2575
   16SAPS  H17Y 2124   2.623   6.190   3.830 -1.9377 -0.5822  1.5690
   16SAPS  C318 2125   2.623   6.257   4.024  0.4805  0.2649  0.5133
   16SAPS  H18X 2126   2.628   6.214   4.126 -2.4725  1.1763  1.1198
   16SAPS  H18Y 2127   2.515   6.268   4.003  0.5929  0.1147 -0.1809
   16SAPS  H18Z 2128   2.668   6.359   4.024 -1.8935  1.3813 -0.7715
   17SAPS     N 2129   2.356   2.260   1.811 -0.0904  0.0696  0.4985
   17SAPS   HN1 2130   2.263   2.302   1.830 -0.5491  0.1733 -1.7311
   17SAPS   HN2 2131   2.426   2.323   1.854  0.5927 -1.1487  1.2273
   17SAPS   HN3 2132   2.372   2.271   1.709 -1.1393  0.0477  0.3270
   17SAPS   C12 2133   2.391   2.121   1.841  0.4020 -0.7384 -0.2505
   17SAPS  H12A 2134   2.302   2.070   1.805 -0.2893  0.2516  0.0122
   17SAPS   C13 2135   2.517   2.061   1.768  0.5033 -0.2936  0.2984
   17SAPS  O13A 2136   2.578   2.127   1.683  0.1658  0.1060  0.5826
   17SAPS  O13B 2137   2.543   1.939   1.784 -0.6672  0.2999 -0.2580
   17SAPS   C11 2138   2.405   2.093   1.991  0.2427 -0.0605 -0.2107
   17SAPS  H11A 2139   2.472   2.173   2.030 -0.3142  0.6483 -0.6625
   17SAPS  H11B 2140   2.464   2.000   2.006 -0.1617 -0.5251 -1.3673
   17SAPS     P 2141   2.183   1.998   2.096 -0.2100  0.7187 -0.0420
   17SAPS   O13 2142   2.077   2.061   2.172  0.2662 -0.4050 -0.0274
   17SAPS   O14 2143   2.152   1.932   1.960  0.0918 -0.3055 -0.1001
   17SAPS   O12 2144   2.288   2.106   2.073 -0.0647  0.0770 -0.3066
   17SAPS   O11 2145   2.272   1.891   2.183  0.1512 -0.5775 -0.2685
   17SAPS    C1 2146   2.342   1.951   2.293  0.4742 -0.1392  0.4697
   17SAPS    HA 2147   2.440   1.990   2.257  0.7781 -1.5876 -0.3635
   17SAPS    HB 2148   2.279   2.027   2.343 -2.0386 -1.1410 -0.9972
   17SAPS    C2 2149   2.360   1.853   2.416 -0.6569  0.0682 -0.1509
   17SAPS    HS 2150   2.372   1.913   2.508  0.8826 -1.7846  0.9353
   17SAPS   O21 2151   2.463   1.751   2.397  0.3710  0.6599 -0.1562
   17SAPS   C21 2152   2.585   1.807   2.413 -0.2071  0.1398 -0.7560
   17SAPS   O22 2153   2.609   1.922   2.450 -0.3719 -0.0040 -0.0303
   17SAPS   C22 2154   2.691   1.694   2.371  0.2174  0.1599 -0.1997
   17SAPS   H2R 2155   2.632   1.603   2.349 -2.4678  1.6955  0.1982
   17SAPS   H2S 2156   2.745   1.729   2.280  0.4631 -1.0553 -0.5350
   17SAPS    C3 2157   2.218   1.780   2.444 -0.2555  0.5115  0.2605
   17SAPS    HX 2158   2.212   1.689   2.381 -1.8059  1.8490 -1.6411
   17SAPS    HY 2159   2.136   1.848   2.413  0.1311  0.0336 -1.9557
   17SAPS   O31 2160   2.212   1.747   2.584  0.6490 -0.2790 -0.1186
   17SAPS   C31 2161   2.233   1.628   2.622  0.0510 -0.1472  0.3552
   17SAPS   O32 2162   2.249   1.525   2.554  0.1492 -0.6244 -0.2589
   17SAPS   C32 2163   2.208   1.618   2.763  0.8820  0.1744 -0.0745
   17SAPS   H2X 2164   2.102   1.643   2.781  0.6753 -0.1220 -0.8451
   17SAPS   H2Y 2165   2.269   1.694   2.817  0.2186 -0.2619  1.3458
   17SAPS   C23 2166   2.790   1.681   2.491  0.4459  0.1096 -0.4101
   17SAPS   H3R 2167   2.836   1.779   2.512 -2.1433  1.9793 -2.7236
   17SAPS   H3S 2168   2.874   1.619   2.453 -0.5407 -1.7616  0.3291
   17SAPS   C24 2169   2.715   1.619   2.617 -0.5591  0.9019  0.8547
   17SAPS   H4R 2170   2.663   1.531   2.572  0.3011  1.1641 -0.7029
   17SAPS   H4S 2171   2.630   1.686   2.641 -0.1072  2.0305 -0.5856
   17SAPS   C25 2172   2.805   1.595   2.736 -0.2431  0.8853  0.8280
   17SAPS   H5R 2173   2.847   1.493   2.746  2.5648  1.3471 -3.5735
   17SAPS   C26 2174   2.834   1.674   2.841 -0.0725  0.1922 -0.9538
   17SAPS   H6R 2175   2.899   1.636   2.921 -0.1158 -0.9991 -1.4599
   17SAPS   C27 2176   2.778   1.809   2.863  0.3239 -0.1519  0.1858
   17SAPS   H7R 2177   2.733   1.823   2.964  2.3210  0.3102  1.0694
   17SAPS   H7S 2178   2.705   1.846   2.789  0.9297 -0.1997 -0.4393
   17SAPS   C28 2179   2.892   1.911   2.851  0.5874  0.2570  0.6004
   17SAPS   H8R 2180   2.904   1.963   2.755  1.8913  0.0343  0.6294
   17SAPS   C29 2181   2.965   1.948   2.953 -0.7398  0.0740  0.2177
   17SAPS   H9R 2182   3.038   2.028   2.934 -0.3223 -0.3195  0.1247
   17SAPS  C210 2183   2.974   1.907   3.097 -0.6493  0.0149  0.4013
   17SAPS  H10R 2184   2.885   1.847   3.123 -1.4314  0.9027 -0.1411
   17SAPS  H10S 2185   2.962   2.007   3.145 -1.8176  0.6040 -1.0414
   17SAPS  C211 2186   3.100   1.839   3.138 -0.6732  0.2408  0.1315
   17SAPS  H11R 2187   3.169   1.815   3.057  0.0558  1.6488  0.2972
   17SAPS  C212 2188   3.136   1.810   3.265 -0.0776  0.0173  0.3357
   17SAPS  H12R 2189   3.225   1.747   3.282 -0.6383 -2.1632 -3.5244
   17SAPS  C213 2190   3.066   1.842   3.396  0.2985 -0.7374 -0.5751
   17SAPS  H13R 2191   2.956   1.846   3.382  0.1898  1.5856  0.4494
   17SAPS  H13S 2192   3.107   1.944   3.415  3.0620 -1.7823 -0.4235
   17SAPS  C214 2193   3.106   1.741   3.505  0.6748 -0.7130 -0.6459
   17SAPS  H14R 2194   3.214   1.739   3.526  1.2567  2.1970 -2.7445
   17SAPS  C215 2195   3.029   1.637   3.550 -0.0142 -0.4475  0.3291
   17SAPS  H15R 2196   3.071   1.579   3.634 -1.1084 -0.0031  1.1990
   17SAPS  C216 2197   2.891   1.605   3.499  0.1070 -0.4759  0.8239
   17SAPS  H16R 2198   2.848   1.672   3.422  1.4307 -0.0178  0.4645
   17SAPS  H16S 2199   2.814   1.624   3.577 -0.8866  3.3721 -0.8636
   17SAPS  C217 2200   2.885   1.461   3.440  0.1350  0.5824  0.8631
   17SAPS  H17R 2201   2.974   1.434   3.380 -1.9762  0.9367 -2.7327
   17SAPS  H17S 2202   2.798   1.453   3.371 -1.4141  0.0682  2.7863
   17SAPS  C218 2203   2.886   1.352   3.547  0.0009  0.4504  0.0268
   17SAPS  H18R 2204   2.782   1.344   3.586 -1.1764  0.6378 -2.8304
   17SAPS  H18S 2205   2.955   1.382   3.629  1.1703 -1.4156 -0.2084
   17SAPS  C219 2206   2.934   1.212   3.487 -0.3704 -0.7352  0.0647
   17SAPS  H19R 2207   3.033   1.218   3.437 -0.9158  1.8704 -0.8060
   17SAPS  H19S 2208   2.862   1.183   3.408  0.8849  0.6080 -1.6426
   17SAPS  C220 2209   2.939   1.103   3.586 -0.3936 -0.2086  0.3071
   17SAPS  H20R 2210   2.974   1.005   3.546  0.8717  0.0298  0.7992
   17SAPS  H20S 2211   2.838   1.085   3.629 -1.0095 -0.0395 -1.0214
   17SAPS  H20T 2212   2.997   1.138   3.674 -1.8244  0.9672  0.8310
   17SAPS   C33 2213   2.237   1.476   2.825 -0.0856  0.2795  0.5177
   17SAPS   H3X 2214   2.347   1.463   2.816  0.1657  1.2206  1.9481
   17SAPS   H3Y 2215   2.177   1.391   2.784  2.1292 -0.9164 -0.4037
   17SAPS   C34 2216   2.220   1.491   2.979  0.2409 -0.1326 -0.4463
   17SAPS   H4X 2217   2.191   1.393   3.025 -0.2879  0.2966  0.1536
   17SAPS   H4Y 2218   2.128   1.549   3.000  0.6826 -0.6081  3.5694
   17SAPS   C35 2219   2.343   1.563   3.041 -0.5194 -0.2019 -0.2922
   17SAPS   H5X 2220   2.364   1.662   2.995 -0.8650  0.8871  1.7768
   17SAPS   H5Y 2221   2.428   1.492   3.039  0.5302  0.9419  1.4089
   17SAPS   C36 2222   2.323   1.588   3.189 -0.2102  0.6308 -0.3781
   17SAPS   H6X 2223   2.308   1.491   3.240 -3.9587  1.8458  1.1815
   17SAPS   H6Y 2224   2.222   1.634   3.201 -0.9277 -0.8869 -0.4006
   17SAPS   C37 2225   2.437   1.672   3.241  0.3893 -0.2823  0.3624
   17SAPS   H7X 2226   2.417   1.782   3.236  1.3955 -0.1040 -0.0520
   17SAPS   H7Y 2227   2.528   1.653   3.179 -0.1982  0.1080 -0.6416
   17SAPS   C38 2228   2.482   1.659   3.389 -0.2195  0.0869 -0.6355
   17SAPS   H8X 2229   2.586   1.696   3.393 -0.8518  2.1245 -1.3318
   17SAPS   H8Y 2230   2.470   1.553   3.419  4.5267 -0.0538  1.5048
   17SAPS   C39 2231   2.399   1.754   3.478  0.8503 -0.3068  0.7484
   17SAPS   H9X 2232   2.290   1.736   3.467  0.4082  1.2683  2.1533
   17SAPS   H9Y 2233   2.413   1.863   3.463 -0.8178  0.0162  1.3835
   17SAPS  C310 2234   2.417   1.728   3.628 -0.7535 -0.1666 -0.4545
   17SAPS  H10X 2235   2.520   1.713   3.667 -1.3533 -1.4957  0.7001
   17SAPS  H10Y 2236   2.366   1.630   3.635  0.8589 -0.9481  1.0195
   17SAPS  C311 2237   2.353   1.830   3.722 -0.0612  0.6175  0.4257
   17SAPS  H11X 2238   2.247   1.846   3.694 -1.0385 -3.2226  1.3778
   17SAPS  H11Y 2239   2.408   1.926   3.708  0.7453 -0.0449 -1.3198
   17SAPS  C312 2240   2.336   1.788   3.873 -0.3941  0.3868  0.6567
   17SAPS  H12X 2241   2.297   1.686   3.895  1.4344 -0.2100  1.2305
   17SAPS  H12Y 2242   2.256   1.856   3.910  1.0637  1.6111  1.6612
   17SAPS  C313 2243   2.462   1.799   3.969 -0.6379  0.4811 -0.3595
   17SAPS  H13X 2244   2.431   1.866   4.052  0.3284  1.9601 -1.1492
   17SAPS  H13Y 2245   2.546   1.850   3.918  1.8867 -2.3845  0.6614
   17SAPS  C314 2246   2.523   1.679   4.048  0.2120  0.0738 -0.1508
   17SAPS  H14X 2247   2.452   1.652   4.130  0.4281 -1.5394 -0.4517
   17SAPS  H14Y 2248   2.620   1.717   4.086 -0.4328  3.2579 -1.4146
   17SAPS  C315 2249   2.538   1.549   3.961  0.1963 -0.5457 -0.6182
   17SAPS  H15X 2250   2.615   1.563   3.883  3.1680 -0.0019  2.1953
   17SAPS  H15Y 2251   2.444   1.529   3.906 -0.2663  0.0454 -0.0676
   17SAPS  C316 2252   2.574   1.432   4.050 -0.3999  0.1596 -0.7665
   17SAPS  H16X 2253   2.671   1.441   4.103 -0.3014  0.4133 -0.9864
   17SAPS  H16Y 2254   2.579   1.351   3.975  0.1825 -0.5056 -0.0202
   17SAPS  C317 2255   2.476   1.398   4.160 -0.1240 -0.2731 -0.5073
   17SAPS  H17X 2256   2.374   1.392   4.117  0.1185  0.9960 -1.3391
   17SAPS  H17Y 2257   2.477   1.481   4.235  1.0861  0.8133 -1.6664
   17SAPS  C318 2258   2.510   1.270   4.238  0.0444 -0.1519 -0.2107
   17SAPS  H18X 2259   2.515   1.177   4.178 -3.6941 -0.8222  0.2705
   17SAPS  H18Y 2260   2.450   1.252   4.330  1.1220  1.4966  0.8650
   17SAPS  H18Z 2261   2.612   1.290   4.277 -0.7548  0.8493  1.4580
   18SAPS     N 2262   4.632   3.758   1.577  0.5927 -0.5221 -0.1059
   18SAPS   HN1 2263   4.722   3.735   1.623  1.5424  1.6867 -0.7188
   18SAPS   HN2 2264   4.575   3.673   1.559 -0.8619  0.2920  0.4382
   18SAPS   HN3 2265   4.648   3.807   1.487 -2.1022  0.9554  0.1018
   18SAPS   C12 2266   4.550   3.850   1.670 -0.0338  0.1221  0.6322
   18SAPS  H12A 2267   4.572   3.951   1.639 -3.2082  0.7794  0.1590
   18SAPS   C13 2268   4.397   3.835   1.655 -0.6757 -0.3991  0.1397
   18SAPS  O13A 2269   4.347   3.768   1.566  0.5825 -0.4271  0.3594
   18SAPS  O13B 2270   4.332   3.918   1.720  0.0836 -0.4654 -0.2853
   18SAPS   C11 2271   4.610   3.831   1.813  0.5193 -0.0858  0.6429
   18SAPS  H11A 2272   4.590   3.729   1.854 -0.8279 -1.8675 -3.8072
   18SAPS  H11B 2273   4.559   3.896   1.887  0.7845  0.7997  0.0555
   18SAPS     P 2274   4.825   3.982   1.820 -0.0202  0.3714 -0.0888
   18SAPS   O13 2275   4.961   3.971   1.766  0.5508  0.5310  0.3361
   18SAPS   O14 2276   4.743   4.088   1.770 -0.0266  0.0552 -0.4119
   18SAPS   O12 2277   4.750   3.848   1.806 -0.0900 -0.7729 -0.5706
   18SAPS   O11 2278   4.827   4.010   1.977 -0.5277 -0.1233 -0.3231
   18SAPS    C1 2279   4.878   3.922   2.080 -0.1606 -0.2500  0.2431
   18SAPS    HA 2280   4.801   3.850   2.117  0.2254 -1.4905 -1.2834
   18SAPS    HB 2281   4.954   3.853   2.038 -1.8239 -1.5802 -0.7434
   18SAPS    C2 2282   4.947   4.001   2.185 -0.2831 -0.1253  0.2213
   18SAPS    HS 2283   4.979   3.934   2.267  0.0140 -0.2038  0.0435
   18SAPS   O21 2284   4.858   4.106   2.232  0.0337 -0.5411  0.1512
   18SAPS   C21 2285   4.741   4.067   2.279 -0.2109  0.5005  0.4828
   18SAPS   O22 2286   4.722   3.955   2.319 -0.0789 -0.4225  0.4820
   18SAPS   C22 2287   4.639   4.179   2.271  0.0631  1.3394  0.6814
   18SAPS   H2R 2288   4.693   4.276   2.270  2.3532  0.1241  0.2426
   18SAPS   H2S 2289   4.594   4.171   2.170 -1.2033  1.1181  1.2432
   18SAPS    C3 2290   5.078   4.075   2.132  0.2966 -0.2015  0.4363
   18SAPS    HX 2291   5.041   4.130   2.043  1.0898 -1.0087 -0.4156
   18SAPS    HY 2292   5.138   3.990   2.093 -1.6766 -1.1215 -0.7203
   18SAPS   O31 2293   5.146   4.157   2.223  0.1257 -0.2040 -0.3262
   18SAPS   C31 2294   5.203   4.104   2.330  0.4622 -0.2361  0.8143
   18SAPS   O32 2295   5.190   3.987   2.360 -0.4416 -0.0017 -0.0371
   18SAPS   C32 2296   5.289   4.210   2.400  0.8528 -0.3478 -0.3062
   18SAPS   H2X 2297   5.246   4.310   2.382  0.0834 -0.3991  1.0531
   18SAPS   H2Y 2298   5.390   4.209   2.355  1.1518  0.7573  0.3074
   18SAPS   C23 2299   4.528   4.176   2.382 -0.2207 -0.4192 -0.6514
   18SAPS   H3R 2300   4.576   4.191   2.481 -0.3178  2.6699 -0.9710
   18SAPS   H3S 2301   4.475   4.080   2.367  1.4839 -1.4600 -0.2809
   18SAPS   C24 2302   4.422   4.288   2.368 -0.2896  0.4320 -0.3805
   18SAPS   H4R 2303   4.359   4.255   2.282  0.4047 -3.8470  0.5408
   18SAPS   H4S 2304   4.471   4.387   2.354  0.7692  0.0162  0.2611
   18SAPS   C25 2305   4.333   4.300   2.490 -1.1246  0.2214 -0.0685
   18SAPS   H5R 2306   4.236   4.248   2.483 -1.1324  0.2827 -0.4345
   18SAPS   C26 2307   4.359   4.376   2.593 -0.2913 -0.5138 -0.2869
   18SAPS   H6R 2308   4.280   4.379   2.670  1.1059  1.1428  1.1581
   18SAPS   C27 2309   4.468   4.477   2.625  0.6371 -0.2026  0.2854
   18SAPS   H7R 2310   4.417   4.576   2.620 -0.6954 -0.9410 -1.4973
   18SAPS   H7S 2311   4.544   4.478   2.544 -1.5612 -0.2105 -1.8665
   18SAPS   C28 2312   4.518   4.453   2.767 -0.0301  0.0516  0.4990
   18SAPS   H8R 2313   4.620   4.414   2.777  0.4754  0.8711 -1.0468
   18SAPS   C29 2314   4.457   4.488   2.883 -0.1662 -0.2639  0.4549
   18SAPS   H9R 2315   4.509   4.467   2.977  0.3756  0.8827  0.4224
   18SAPS  C210 2316   4.318   4.543   2.903  1.0388 -0.9044  0.3373
   18SAPS  H10R 2317   4.251   4.467   2.950  1.5346 -0.3948  1.9453
   18SAPS  H10S 2318   4.271   4.563   2.805 -2.7677  1.4139  2.3961
   18SAPS  C211 2319   4.329   4.671   2.983 -0.5140 -0.0051  0.4831
   18SAPS  H11R 2320   4.309   4.759   2.920  0.9612  0.4499  0.6209
   18SAPS  C212 2321   4.363   4.693   3.112  0.2906  0.4964 -0.1472
   18SAPS  H12R 2322   4.354   4.796   3.149 -1.8380  0.0389  0.7310
   18SAPS  C213 2323   4.397   4.591   3.217  0.1720  0.2803 -0.6348
   18SAPS  H13R 2324   4.504   4.596   3.249  0.5326  0.4507 -1.8093
   18SAPS  H13S 2325   4.388   4.489   3.174  0.3980  0.5991 -1.4801
   18SAPS  C214 2326   4.298   4.612   3.330 -0.6017  0.3691 -0.3777
   18SAPS  H14R 2327   4.192   4.590   3.309 -1.3606  0.8140  2.5513
   18SAPS  C215 2328   4.330   4.627   3.460  0.1605 -0.1652 -0.3517
   18SAPS  H15R 2329   4.249   4.642   3.534  1.4456 -0.7615  1.2366
   18SAPS  C216 2330   4.466   4.660   3.514 -0.2201 -0.3190 -0.7113
   18SAPS  H16R 2331   4.515   4.722   3.435 -0.4048  3.6671  2.0164
   18SAPS  H16S 2332   4.519   4.563   3.522  0.2181 -0.0560 -0.4004
   18SAPS  C217 2333   4.482   4.742   3.639  0.7645 -0.4259 -0.8763
   18SAPS  H17R 2334   4.588   4.752   3.673  0.4021  0.0846  0.1503
   18SAPS  H17S 2335   4.436   4.694   3.728 -0.4346  0.7777 -0.8085
   18SAPS  C218 2336   4.426   4.888   3.632  0.1552 -0.4784  0.1572
   18SAPS  H18R 2337   4.316   4.887   3.646  0.2732 -1.7132  1.1841
   18SAPS  H18S 2338   4.445   4.928   3.530 -2.1672 -0.7771 -0.4383
   18SAPS  C219 2339   4.487   4.978   3.741 -0.0881 -0.9718 -0.5946
   18SAPS  H19R 2340   4.423   5.069   3.745 -0.6833 -1.3488 -1.2030
   18SAPS  H19S 2341   4.586   5.007   3.701 -0.5685  2.5387  0.4347
   18SAPS  C220 2342   4.480   4.916   3.892 -0.2785 -0.2886 -0.0096
   18SAPS  H20R 2343   4.375   4.888   3.918 -0.6487  2.0196  1.2860
   18SAPS  H20S 2344   4.517   4.989   3.968 -1.5946 -0.0986  0.4728
   18SAPS  H20T 2345   4.547   4.828   3.898 -0.3433 -0.2524  1.6135
   18SAPS   C33 2346   5.307   4.188   2.552  0.6530  0.3905  0.6786
   18SAPS   H3X 2347   5.365   4.093   2.562  0.1728 -0.1196 -0.9999
   18SAPS   H3Y 2348   5.211   4.171   2.606 -0.1138  1.2728 -0.3583
   18SAPS   C34 2349   5.392   4.309   2.600 -0.1520 -0.2894  0.1165
   18SAPS   H4X 2350   5.345   4.409   2.583  0.8742  0.0730 -0.6946
   18SAPS   H4Y 2351   5.483   4.311   2.537  0.0724  0.4034  0.4465
   18SAPS   C35 2352   5.447   4.303   2.742  0.5628 -0.0797  0.2063
   18SAPS   H5X 2353   5.530   4.377   2.751  0.9708 -0.4928 -0.0923
   18SAPS   H5Y 2354   5.487   4.201   2.764 -0.0801 -1.0947 -2.8715
   18SAPS   C36 2355   5.351   4.333   2.861  0.3992  0.1853 -0.3631
   18SAPS   H6X 2356   5.267   4.261   2.873 -0.4707  0.4524 -3.8093
   18SAPS   H6Y 2357   5.293   4.425   2.838  0.6157  0.2732 -0.5604
   18SAPS   C37 2358   5.417   4.343   2.995 -0.2915  0.0216 -0.1241
   18SAPS   H7X 2359   5.514   4.398   2.995 -0.3097  0.2407  3.1503
   18SAPS   H7Y 2360   5.428   4.239   3.033 -1.8723 -0.0773  0.1017
   18SAPS   C38 2361   5.330   4.415   3.091 -0.3701  0.6562 -0.4051
   18SAPS   H8X 2362   5.222   4.388   3.089 -0.6811  1.5835  1.7166
   18SAPS   H8Y 2363   5.334   4.520   3.055 -1.8324  0.6006 -0.8034
   18SAPS   C39 2364   5.381   4.407   3.238  0.4653  0.0051  0.2032
   18SAPS   H9X 2365   5.480   4.455   3.248  0.4464  0.8984 -2.7975
   18SAPS   H9Y 2366   5.381   4.309   3.291 -1.9725  0.0497  0.3932
   18SAPS  C310 2367   5.286   4.482   3.335  0.0224  0.4314  0.1849
   18SAPS  H10X 2368   5.201   4.413   3.357  1.2661 -1.1903  0.1239
   18SAPS  H10Y 2369   5.232   4.564   3.282  0.0150 -0.1597 -0.7460
   18SAPS  C311 2370   5.354   4.535   3.462  0.0513 -0.4724 -0.0763
   18SAPS  H11X 2371   5.450   4.578   3.425  0.5798 -0.0275  1.7403
   18SAPS  H11Y 2372   5.396   4.456   3.528  2.1099 -0.0916 -0.8296
   18SAPS  C312 2373   5.285   4.640   3.541 -0.5478 -0.2742  0.5604
   18SAPS  H12X 2374   5.188   4.597   3.574 -0.0919 -0.3458  1.8907
   18SAPS  H12Y 2375   5.264   4.728   3.476 -0.4615 -0.3239  0.4649
   18SAPS  C313 2376   5.362   4.690   3.656  0.9090  1.2591  0.4101
   18SAPS  H13X 2377   5.331   4.788   3.698  0.2444  1.3217 -0.2154
   18SAPS  H13Y 2378   5.468   4.708   3.626  0.5334  2.2999 -0.3577
   18SAPS  C314 2379   5.357   4.581   3.762 -0.2399  0.1948 -0.3519
   18SAPS  H14X 2380   5.438   4.506   3.764 -0.0427  0.3916  1.5297
   18SAPS  H14Y 2381   5.261   4.524   3.760 -0.5531  0.4506  2.5284
   18SAPS  C315 2382   5.359   4.638   3.900 -0.0239 -0.4479 -0.0772
   18SAPS  H15X 2383   5.256   4.639   3.942  0.0287 -0.2871  0.0547
   18SAPS  H15Y 2384   5.378   4.748   3.901 -2.4200  0.1429  3.6965
   18SAPS  C316 2385   5.465   4.581   4.002 -0.1511 -0.2817  0.2353
   18SAPS  H16X 2386   5.460   4.470   4.010  1.6396 -0.2666  2.7192
   18SAPS  H16Y 2387   5.445   4.620   4.104  0.5910 -0.8580  0.6151
   18SAPS  C317 2388   5.608   4.609   3.946  0.2794  0.1213  0.0474
   18SAPS  H17X 2389   5.614   4.715   3.912  1.2147  1.1112  2.9594
   18SAPS  H17Y 2390   5.625   4.546   3.857 -1.7992  0.3815 -0.5689
   18SAPS  C318 2391   5.721   4.600   4.051  0.3510 -0.5947  0.8751
   18SAPS  H18X 2392   5.734   4.501   4.101  3.4799 -1.0753 -0.6720
   18SAPS  H18Y 2393   5.699   4.670   4.135  1.1802  1.8642 -0.8589
   18SAPS  H18Z 2394   5.819   4.635   4.011 -0.0158 -0.6599 -0.0987
   19SAPS     N 2395   5.116   6.477   1.855  0.4785 -0.2982 -0.5471
   19SAPS   HN1 2396   5.190   6.448   1.922  1.1164  1.2638 -0.5267
   19SAPS   HN2 2397   5.019   6.460   1.887  0.1345  0.1900 -1.2878
   19SAPS   HN3 2398   5.137   6.429   1.765  4.1973 -1.8819  0.9606
   19SAPS   C12 2399   5.136   6.627   1.861  0.2717 -0.5851  0.0976
   19SAPS  H12A 2400   5.182   6.650   1.956 -0.1165  1.2161 -0.0992
   19SAPS   C13 2401   5.234   6.673   1.744 -0.2877 -0.6934 -0.0969
   19SAPS  O13A 2402   5.280   6.580   1.673  0.0058 -0.6101  0.1186
   19SAPS  O13B 2403   5.269   6.790   1.738 -0.2979  0.3897  0.9085
   19SAPS   C11 2404   4.999   6.687   1.840  0.2828 -0.1604  0.0804
   19SAPS  H11A 2405   4.947   6.649   1.750 -0.1351 -1.3212  0.7902
   19SAPS  H11B 2406   5.027   6.794   1.832  0.4637 -0.0015  2.1490
   19SAPS     P 2407   4.762   6.690   1.932  0.1765  0.4704  0.2711
   19SAPS   O13 2408   4.742   6.831   1.890  0.3288  0.4468 -0.1463
   19SAPS   O14 2409   4.692   6.583   1.865  0.3918  0.2177  0.2424
   19SAPS   O12 2410   4.916   6.658   1.954  0.2485  0.2003  0.3943
   19SAPS   O11 2411   4.710   6.687   2.081 -0.7855 -0.3355 -0.2816
   19SAPS    C1 2412   4.787   6.627   2.186  0.1080 -0.1598  0.0856
   19SAPS    HA 2413   4.801   6.517   2.176 -0.4826 -0.2989  0.7064
   19SAPS    HB 2414   4.888   6.674   2.191 -0.4999  1.2934 -0.6085
   19SAPS    C2 2415   4.709   6.648   2.325 -0.1466  0.3559 -0.3984
   19SAPS    HS 2416   4.762   6.590   2.404 -1.5400 -0.2015  0.1505
   19SAPS   O21 2417   4.568   6.603   2.326 -0.6816  0.1903 -0.1975
   19SAPS   C21 2418   4.555   6.470   2.335 -0.1873 -0.9182 -0.3989
   19SAPS   O22 2419   4.650   6.393   2.355 -0.1944  0.4490  0.4180
   19SAPS   C22 2420   4.407   6.435   2.326  0.7414  0.1911 -0.7424
   19SAPS   H2R 2421   4.362   6.497   2.245  3.1740  1.6684 -1.0570
   19SAPS   H2S 2422   4.403   6.329   2.292  0.5213 -0.0493  0.0250
   19SAPS    C3 2423   4.716   6.800   2.353  0.5477  0.2433  0.6406
   19SAPS    HX 2424   4.667   6.854   2.270 -0.0028 -0.6431  0.3730
   19SAPS    HY 2425   4.821   6.831   2.374  0.4591 -0.3089  2.0206
   19SAPS   O31 2426   4.639   6.838   2.471 -0.0911 -0.3442 -0.2233
   19SAPS   C31 2427   4.684   6.793   2.595  0.5214  0.2598 -0.3064
   19SAPS   O32 2428   4.790   6.732   2.614 -0.2294 -0.0915  0.1929
   19SAPS   C32 2429   4.574   6.817   2.697 -0.4351 -0.4577 -0.1144
   19SAPS   H2X 2430   4.486   6.764   2.656  0.6245 -1.6903 -0.8579
   19SAPS   H2Y 2431   4.552   6.926   2.694  0.2435 -0.3075 -3.5021
   19SAPS   C23 2432   4.317   6.465   2.450 -0.4531 -0.0985 -0.5868
   19SAPS   H3R 2433   4.210   6.458   2.422 -0.9479  1.6906  0.6279
   19SAPS   H3S 2434   4.343   6.569   2.482 -2.0354  0.6945 -1.7185
   19SAPS   C24 2435   4.341   6.367   2.573 -0.0230 -0.1189 -0.1300
   19SAPS   H4R 2436   4.296   6.271   2.539  2.0416 -1.1364 -0.1465
   19SAPS   H4S 2437   4.275   6.402   2.655 -0.7382  2.2907 -1.6278
   19SAPS   C25 2438   4.482   6.344   2.625  0.3965 -0.1898 -0.0779
   19SAPS   H5R 2439   4.553   6.296   2.557  0.3132 -0.2042 -0.1545
   19SAPS   C26 2440   4.519   6.392   2.751 -0.2347  0.3789 -0.2906
   19SAPS   H6R 2441   4.626   6.384   2.776 -0.2488 -0.7526 -0.5138
   19SAPS   C27 2442   4.437   6.456   2.864  0.1726 -0.1645  0.5025
   19SAPS   H7R 2443   4.369   6.536   2.828 -6.3241 -4.1484  2.1573
   19SAPS   H7S 2444   4.515   6.509   2.922  0.7923  0.5814 -0.9569
   19SAPS   C28 2445   4.354   6.359   2.939  0.1368  0.4554  0.2577
   19SAPS   H8R 2446   4.281   6.300   2.882 -0.2703  0.6202  0.6046
   19SAPS   C29 2447   4.363   6.328   3.069  0.2861 -0.5750  0.4445
   19SAPS   H9R 2448   4.292   6.255   3.111 -1.5182  0.7531 -0.1374
   19SAPS  C210 2449   4.438   6.383   3.178 -1.2732 -0.5609 -0.7180
   19SAPS  H10R 2450   4.507   6.463   3.142  2.2423 -3.9596 -2.2273
   19SAPS  H10S 2451   4.507   6.305   3.217 -1.5860 -0.6012 -0.2355
   19SAPS  C211 2452   4.349   6.450   3.280 -0.5642 -0.4207 -0.4348
   19SAPS  H11R 2453   4.321   6.555   3.265  3.3682  0.6598 -1.3200
   19SAPS  C212 2454   4.309   6.404   3.403  0.3295  0.6373  0.1259
   19SAPS  H12R 2455   4.243   6.469   3.462  0.3041 -0.2286  1.0949
   19SAPS  C213 2456   4.354   6.278   3.471 -0.3094 -0.4142 -0.1383
   19SAPS  H13R 2457   4.371   6.192   3.402  1.0750 -0.7378  0.5699
   19SAPS  H13S 2458   4.274   6.248   3.542 -2.6937  0.5360 -2.2642
   19SAPS  C214 2459   4.489   6.304   3.530 -0.1294  0.0662  0.4758
   19SAPS  H14R 2460   4.576   6.276   3.470 -0.6217 -1.2000  0.3394
   19SAPS  C215 2461   4.513   6.341   3.660  0.0830 -0.6219 -0.0612
   19SAPS  H15R 2462   4.617   6.369   3.682  0.2661 -0.7589 -0.7051
   19SAPS  C216 2463   4.418   6.371   3.767  0.1109 -0.2686 -0.5913
   19SAPS  H16R 2464   4.316   6.333   3.749 -0.4408  0.0074  1.6281
   19SAPS  H16S 2465   4.411   6.482   3.768  1.0050 -0.1279  2.4291
   19SAPS  C217 2466   4.479   6.325   3.898  0.5360 -0.6757 -0.0743
   19SAPS  H17R 2467   4.573   6.380   3.920  0.2859 -0.4731  0.5253
   19SAPS  H17S 2468   4.500   6.216   3.888 -0.8350 -1.0509  0.8594
   19SAPS  C218 2469   4.396   6.338   4.024  0.1936  0.7281 -0.0913
   19SAPS  H18R 2470   4.436   6.284   4.113  0.6812  1.0739 -0.0986
   19SAPS  H18S 2471   4.301   6.293   3.987  0.3091  0.3950  0.0058
   19SAPS  C219 2472   4.354   6.479   4.065  0.5208  0.2495 -0.3774
   19SAPS  H19R 2473   4.292   6.526   3.986 -1.2437  0.9314  1.3250
   19SAPS  H19S 2474   4.444   6.543   4.072  0.3276  0.3912  1.0613
   19SAPS  C220 2475   4.279   6.474   4.198  0.2513 -0.3383 -0.0677
   19SAPS  H20R 2476   4.349   6.446   4.280 -0.3843  1.3770  1.1059
   19SAPS  H20S 2477   4.203   6.393   4.205 -0.6539  0.5343  0.2847
   19SAPS  H20T 2478   4.230   6.572   4.212 -0.5864 -0.8594  0.7476
   19SAPS   C33 2479   4.617   6.782   2.836 -0.7288 -0.3567 -0.6777
   19SAPS   H3X 2480   4.704   6.843   2.866 -1.3314 -0.0790  0.6087
   19SAPS   H3Y 2481   4.642   6.674   2.837 -0.0968 -0.2412  1.5863
   19SAPS   C34 2482   4.504   6.798   2.938  0.0891  0.1497  0.3048
   19SAPS   H4X 2483   4.414   6.736   2.914 -0.1476  0.7577 -0.4646
   19SAPS   H4Y 2484   4.461   6.899   2.918 -1.8649 -0.8915 -1.2641
   19SAPS   C35 2485   4.545   6.779   3.078 -0.2168  0.7064 -0.5388
   19SAPS   H5X 2486   4.626   6.852   3.099  0.3398 -0.0550  0.0044
   19SAPS   H5Y 2487   4.578   6.674   3.087 -2.4865 -0.0811 -0.7064
   19SAPS   C36 2488   4.436   6.815   3.181  0.3877  0.1597 -0.2777
   19SAPS   H6X 2489   4.337   6.765   3.165 -2.1109  4.0986  1.4459
   19SAPS   H6Y 2490   4.398   6.918   3.166 -1.0630 -0.2634  0.3339
   19SAPS   C37 2491   4.477   6.785   3.325 -0.4837  0.1450 -0.1908
   19SAPS   H7X 2492   4.556   6.857   3.356  0.9399 -1.4511  0.0394
   19SAPS   H7Y 2493   4.524   6.686   3.343 -1.2699 -0.3910 -1.0232
   19SAPS   C38 2494   4.366   6.807   3.425 -0.5138 -0.0533  0.2415
   19SAPS   H8X 2495   4.286   6.734   3.401 -0.9305  0.1677  0.9329
   19SAPS   H8Y 2496   4.328   6.911   3.424  2.3299  1.0890  0.6119
   19SAPS   C39 2497   4.406   6.769   3.572 -0.2180 -0.3176  0.4133
   19SAPS   H9X 2498   4.488   6.835   3.607 -0.5451  1.0732 -1.3072
   19SAPS   H9Y 2499   4.447   6.666   3.576 -0.9368 -0.6544 -0.5483
   19SAPS  C310 2500   4.299   6.776   3.683 -0.2699  0.2659  1.4230
   19SAPS  H10X 2501   4.253   6.677   3.702  0.4941 -0.1794  1.0015
   19SAPS  H10Y 2502   4.222   6.842   3.638 -0.6424 -0.5525  0.8440
   19SAPS  C311 2503   4.355   6.831   3.812 -0.4029 -0.4531 -0.9081
   19SAPS  H11X 2504   4.433   6.909   3.799 -1.5005  1.0855  1.1917
   19SAPS  H11Y 2505   4.413   6.748   3.858 -0.5693 -0.2611 -0.3438
   19SAPS  C312 2506   4.250   6.882   3.912 -0.0829 -0.0389 -0.3357
   19SAPS  H12X 2507   4.193   6.787   3.925  2.7354 -2.1064 -1.9976
   19SAPS  H12Y 2508   4.192   6.966   3.869 -1.4623 -1.0197 -0.4446
   19SAPS  C313 2509   4.323   6.916   4.038  0.1315 -0.8448  0.3138
   19SAPS  H13X 2510   4.431   6.900   4.020 -0.4053 -2.6074 -1.8664
   19SAPS  H13Y 2511   4.294   6.849   4.122 -1.5600 -0.1590  0.3288
   19SAPS  C314 2512   4.304   7.056   4.090  0.3104 -0.6341  0.2263
   19SAPS  H14X 2513   4.195   7.080   4.087  0.7749  2.0201  1.6314
   19SAPS  H14Y 2514   4.349   7.138   4.031  1.1516  0.0663  1.7831
   19SAPS  C315 2515   4.355   7.069   4.242  0.4297  0.9085  0.1050
   19SAPS  H15X 2516   4.358   6.968   4.288  0.8482  0.1414 -1.5044
   19SAPS  H15Y 2517   4.283   7.131   4.299 -0.6372 -0.1116 -0.0926
   19SAPS  C316 2518   4.494   7.137   4.246 -0.8343  0.8732  0.0007
   19SAPS  H16X 2519   4.495   7.227   4.182  0.0682 -0.2039 -1.5787
   19SAPS  H16Y 2520   4.561   7.065   4.195 -2.4556 -1.2700  0.7198
   19SAPS  C317 2521   4.547   7.165   4.393  0.6744  0.7238 -0.1157
   19SAPS  H17X 2522   4.543   7.074   4.456 -0.3791 -0.3131 -1.6160
   19SAPS  H17Y 2523   4.481   7.247   4.430  0.9963  2.0212 -2.2171
   19SAPS  C318 2524   4.694   7.206   4.398 -0.3605 -0.2897 -0.2321
   19SAPS  H18X 2525   4.706   7.300   4.341  0.1290  0.2667  0.7609
   19SAPS  H18Y 2526   4.761   7.139   4.339 -0.6820 -0.0613 -0.8674
   19SAPS  H18Z 2527   4.724   7.225   4.503  1.5709 -1.7610 -0.4507
   20SAPS     N 2528   5.316   0.036   1.989 -0.3456  0.7654  0.9928
   20SAPS   HN1 2529   5.369  -0.043   2.033 -1.1446 -1.1508 -1.3089
   20SAPS   HN2 2530   5.231   0.046   2.048 -1.1686 -0.6269  0.0953
   20SAPS   HN3 2531   5.288   0.014   1.892 -2.3000 -0.9966  1.8733
   20SAPS   C12 2532   5.399   0.160   1.976 -0.6578 -0.8132 -0.0247
   20SAPS  H12A 2533   5.493   0.141   1.926  0.2694 -2.2475  2.1322
   20SAPS   C13 2534   5.322   0.279   1.904  0.0619 -0.0640  0.3731
   20SAPS  O13A 2535   5.206   0.262   1.871  0.6427  0.5368  0.1922
   20SAPS  O13B 2536   5.388   0.382   1.873 -0.2297 -0.4823 -0.3416
   20SAPS   C11 2537   5.440   0.211   2.112  0.3056 -0.7607 -0.1902
   20SAPS  H11A 2538   5.350   0.245   2.168  1.4523  0.6323  0.8837
   20SAPS  H11B 2539   5.491   0.309   2.105 -2.8274  1.1990  1.7286
   20SAPS     P 2540   5.670   0.084   2.183  0.3520 -0.0015  0.3159
   20SAPS   O13 2541   5.700  -0.029   2.276  0.3467  0.0993  0.6263
   20SAPS   O14 2542   5.711   0.075   2.040  0.2571  0.1440 -0.1339
   20SAPS   O12 2543   5.516   0.113   2.192 -0.5461  0.1132 -0.1853
   20SAPS   O11 2544   5.733   0.219   2.234  0.4972  0.3886 -0.5037
   20SAPS    C1 2545   5.701   0.273   2.362  0.1208  0.0897  0.5609
   20SAPS    HA 2546   5.716   0.383   2.366 -1.5058  0.3760 -0.4074
   20SAPS    HB 2547   5.591   0.264   2.376 -0.0678  0.0054 -0.7874
   20SAPS    C2 2548   5.781   0.209   2.477  0.1565 -0.6283  0.3912
   20SAPS    HS 2549   5.778   0.098   2.479  0.2269 -0.6143  1.6753
   20SAPS   O21 2550   5.738   0.258   2.605 -0.1616  0.0954 -0.0044
   20SAPS   C21 2551   5.621   0.214   2.652 -0.0157  0.5479  0.6036
   20SAPS   O22 2552   5.555   0.124   2.597  0.2936 -0.6114 -0.0050
   20SAPS   C22 2553   5.590   0.291   2.784 -0.2803 -0.2230 -0.1068
   20SAPS   H2R 2554   5.678   0.279   2.852 -1.4536 -1.9771  1.1852
   20SAPS   H2S 2555   5.574   0.397   2.756  0.5883 -0.0736 -0.0806
   20SAPS    C3 2556   5.932   0.237   2.453 -0.3419 -0.0561  0.3175
   20SAPS    HX 2557   5.938   0.348   2.456  0.4195 -0.0811 -0.1974
   20SAPS    HY 2558   5.948   0.206   2.348  0.0665  1.3807 -0.0680
   20SAPS   O31 2559   6.019   0.161   2.543  0.2705 -0.5922  0.1691
   20SAPS   C31 2560   6.052   0.240   2.649 -0.6628  0.0681 -0.1649
   20SAPS   O32 2561   6.017   0.357   2.658 -0.2548  0.4357 -0.3385
   20SAPS   C32 2562   6.132   0.152   2.745  0.6314 -0.2205  0.0738
   20SAPS   H2X 2563   6.101   0.046   2.728  1.0614 -0.2907 -0.3044
   20SAPS   H2Y 2564   6.093   0.181   2.845  0.1352  0.2836 -0.2585
   20SAPS   C23 2565   5.466   0.233   2.851  0.1393 -0.2019 -0.0607
   20SAPS   H3R 2566   5.486   0.123   2.859  1.9397  0.0774 -0.2732
   20SAPS   H3S 2567   5.381   0.241   2.781  0.7264  0.2285 -0.7335
   20SAPS   C24 2568   5.424   0.312   2.980  0.5598  0.7174  0.3722
   20SAPS   H4R 2569   5.398   0.414   2.944  1.8138  0.0815 -2.6684
   20SAPS   H4S 2570   5.519   0.327   3.035  1.0920  1.0351 -0.6069
   20SAPS   C25 2571   5.306   0.239   3.049  0.0986  0.6611 -0.5958
   20SAPS   H5R 2572   5.217   0.218   2.987  0.5898 -2.4725 -0.3695
   20SAPS   C26 2573   5.292   0.220   3.184  0.2796  0.0805 -0.1828
   20SAPS   H6R 2574   5.209   0.156   3.215 -0.5296  1.2284  0.1004
   20SAPS   C27 2575   5.389   0.259   3.296 -0.4900  0.0884  0.1548
   20SAPS   H7R 2576   5.490   0.223   3.266  0.4445  3.1565 -0.7761
   20SAPS   H7S 2577   5.369   0.197   3.386  0.8966 -0.4448  0.1240
   20SAPS   C28 2578   5.397   0.407   3.320 -0.6655  0.0605  0.9730
   20SAPS   H8R 2579   5.301   0.461   3.313 -0.3784  0.3107 -2.8136
   20SAPS   C29 2580   5.508   0.478   3.358  0.4271  0.1323 -0.4035
   20SAPS   H9R 2581   5.498   0.586   3.376  0.9659  0.3896 -1.5540
   20SAPS  C210 2582   5.650   0.425   3.369  0.0994 -0.6180 -0.1770
   20SAPS  H10R 2583   5.714   0.438   3.280  0.2804  0.2295  0.0621
   20SAPS  H10S 2584   5.661   0.318   3.398  2.6163 -0.2924  0.2676
   20SAPS  C211 2585   5.725   0.503   3.480  0.1682  0.6510 -0.3353
   20SAPS  H11R 2586   5.719   0.612   3.470  1.2423  1.1729  3.3159
   20SAPS  C212 2587   5.794   0.449   3.579  0.1351  0.0844  0.0239
   20SAPS  H12R 2588   5.844   0.516   3.650 -1.0592  0.3867  0.6043
   20SAPS  C213 2589   5.800   0.298   3.621  0.6636  0.2075  0.6355
   20SAPS  H13R 2590   5.902   0.263   3.646  0.7825 -0.0139 -0.1353
   20SAPS  H13S 2591   5.775   0.225   3.541  2.1562  0.4096 -0.0428
   20SAPS  C214 2592   5.716   0.276   3.739 -0.0763 -0.3207  0.2342
   20SAPS  H14R 2593   5.611   0.245   3.727 -0.4043  1.2541 -1.3953
   20SAPS  C215 2594   5.754   0.304   3.868  0.2950 -0.1166  0.0230
   20SAPS  H15R 2595   5.682   0.295   3.950  0.7855 -1.8212  0.3233
   20SAPS  C216 2596   5.888   0.362   3.907 -0.2946 -0.2341  0.2543
   20SAPS  H16R 2597   5.973   0.354   3.836 -1.4215  2.3785 -1.5486
   20SAPS  H16S 2598   5.920   0.299   3.992  0.7420  0.8452  0.6860
   20SAPS  C217 2599   5.871   0.506   3.971  0.1773  0.2925  0.0328
   20SAPS  H17R 2600   5.806   0.576   3.915 -0.0984  1.2817  1.5507
   20SAPS  H17S 2601   5.975   0.545   3.973 -0.0793  0.9691  0.1360
   20SAPS  C218 2602   5.814   0.504   4.117 -0.1862  0.4297 -0.6811
   20SAPS  H18R 2603   5.854   0.422   4.180 -1.5589 -0.8005 -1.3409
   20SAPS  H18S 2604   5.707   0.475   4.102 -0.0363 -0.8466  0.5783
   20SAPS  C219 2605   5.834   0.639   4.184  1.0865 -0.0126  0.0770
   20SAPS  H19R 2606   5.785   0.725   4.132  3.2762  2.2251  1.5202
   20SAPS  H19S 2607   5.939   0.674   4.189  0.9284  0.3997  0.6600
   20SAPS  C220 2608   5.783   0.643   4.326 -0.1656 -0.3900 -0.4838
   20SAPS  H20R 2609   5.834   0.564   4.385  0.1637 -0.8591 -1.3752
   20SAPS  H20S 2610   5.674   0.623   4.324 -0.1975 -0.2035 -0.6675
   20SAPS  H20T 2611   5.788   0.739   4.381  0.9921  0.8549 -2.5953
   20SAPS   C33 2612   6.282   0.188   2.738 -0.6291  0.0303  0.2549
   20SAPS   H3X 2613   6.309   0.173   2.631 -2.1672  0.7628 -0.2682
   20SAPS   H3Y 2614   6.343   0.110   2.789 -0.2926 -0.6462 -1.1368
   20SAPS   C34 2615   6.327   0.323   2.790  0.3108 -0.5110 -0.2076
   20SAPS   H4X 2616   6.284   0.401   2.723 -1.9766 -1.2686  0.3035
   20SAPS   H4Y 2617   6.437   0.326   2.775  0.4084  1.2078  0.5877
   20SAPS   C35 2618   6.296   0.356   2.940  0.1202  0.5144  0.1440
   20SAPS   H5X 2619   6.315   0.263   2.997  0.8449  0.3361 -0.3765
   20SAPS   H5Y 2620   6.188   0.381   2.947 -0.1451 -0.8126  1.2792
   20SAPS   C36 2621   6.396   0.457   2.994  0.2987  1.1390  0.4737
   20SAPS   H6X 2622   6.381   0.560   2.953 -1.8127  0.1074 -1.5963
   20SAPS   H6Y 2623   6.494   0.418   2.960  0.2101  2.3237 -1.3019
   20SAPS   C37 2624   6.392   0.462   3.148  0.1360 -0.1039  0.2342
   20SAPS   H7X 2625   6.415   0.370   3.205  1.9732  0.7415  0.9520
   20SAPS   H7Y 2626   6.292   0.503   3.178  0.6591 -0.3027  2.4853
   20SAPS   C38 2627   6.489   0.563   3.207 -0.0971  0.4402  0.7558
   20SAPS   H8X 2628   6.476   0.666   3.170 -0.3996  0.6249  1.3654
   20SAPS   H8Y 2629   6.591   0.543   3.169 -1.0693  0.4115 -2.0901
   20SAPS   C39 2630   6.489   0.580   3.361  0.2968  0.9138 -0.0964
   20SAPS   H9X 2631   6.502   0.483   3.415  0.9624  0.5253 -0.9199
   20SAPS   H9Y 2632   6.395   0.624   3.400  0.7534  0.7774  1.2172
   20SAPS  C310 2633   6.609   0.652   3.407 -0.3090  0.6013 -0.9143
   20SAPS  H10X 2634   6.612   0.749   3.353 -1.6069  1.1432 -0.0630
   20SAPS  H10Y 2635   6.696   0.593   3.370  0.1381  2.7108 -3.5376
   20SAPS  C311 2636   6.610   0.678   3.563 -0.5618 -0.0391 -0.4218
   20SAPS  H11X 2637   6.599   0.575   3.604  1.5125 -0.8349 -1.6599
   20SAPS  H11Y 2638   6.523   0.729   3.609  0.4784  0.2226  1.3315
   20SAPS  C312 2639   6.748   0.742   3.605 -0.3639 -1.2532  0.4969
   20SAPS  H12X 2640   6.769   0.840   3.557 -1.1622 -1.4037 -0.1733
   20SAPS  H12Y 2641   6.818   0.664   3.571  0.5772 -1.1404  2.0655
   20SAPS  C313 2642   6.754   0.767   3.752  0.4350 -0.2697 -0.6136
   20SAPS  H13X 2643   6.732   0.669   3.799 -0.4728  0.5658  0.7575
   20SAPS  H13Y 2644   6.680   0.845   3.778  1.3169 -0.7072  4.1325
   20SAPS  C314 2645   6.886   0.829   3.798 -0.0738 -0.6977 -1.0618
   20SAPS  H14X 2646   6.882   0.929   3.750  0.8470  0.1385  0.5381
   20SAPS  H14Y 2647   6.969   0.764   3.763 -0.7376 -3.1052  1.4119
   20SAPS  C315 2648   6.905   0.826   3.954  0.1796 -0.4447 -0.7119
   20SAPS  H15X 2649   6.900   0.718   3.979 -2.2257 -0.2367 -0.0539
   20SAPS  H15Y 2650   6.817   0.877   3.999  0.6973  1.1274 -1.4193
   20SAPS  C316 2651   7.044   0.882   4.010  0.2831 -0.1180  0.4985
   20SAPS  H16X 2652   7.055   0.990   3.984  1.1847 -0.5020 -0.7520
   20SAPS  H16Y 2653   7.123   0.823   3.961 -1.6478 -1.3454 -1.3103
   20SAPS  C317 2654   7.055   0.851   4.160  0.6458  0.0244  0.5061
   20SAPS  H17X 2655   7.065   0.743   4.183 -0.1507 -0.2058 -0.1416
   20SAPS  H17Y 2656   6.960   0.886   4.206  0.7562 -1.7566  2.2045
   20SAPS  C318 2657   7.176   0.919   4.229 -0.0149  0.5376  0.3315
   20SAPS  H18X 2658   7.178   0.904   4.339 -1.1903 -1.8490  0.0796
   20SAPS  H18Y 2659   7.161   1.029   4.218  1.2194  0.5472 -1.9453
   20SAPS  H18Z 2660   7.270   0.877   4.187 -0.6059 -0.4820  0.0175
   21CHL1    C3 2661   1.442   1.842   5.945  0.3201 -0.2585  0.2892
   21CHL1    H3 2662   1.367   1.761   5.945  0.7558 -0.8004 -2.9760
   21CHL1    O3 2663   1.515   1.851   6.066  0.3566  0.0155 -0.1427
   21CHL1   H3' 2664   1.601   1.893   6.053  0.6991 -0.6024  0.1108
   21CHL1    C4 2665   1.536   1.797   5.834 -0.3310 -0.1789  0.3591
   21CHL1   H4A 2666   1.621   1.868   5.839  0.9861 -1.7789  1.9620
   21CHL1   H4B 2667   1.578   1.698   5.863  1.4464  0.7187  1.0252
   21CHL1    C5 2668   1.477   1.799   5.694  0.1201  0.4055 -0.3281
   21CHL1    C6 2669   1.486   1.687   5.626  0.3211  0.3673  0.7287
   21CHL1    H6 2670   1.530   1.598   5.674 -0.2884 -0.2396  0.1933
   21CHL1    C7 2671   1.436   1.682   5.482 -0.0793 -0.1826  0.2217
   21CHL1   H7A 2672   1.509   1.617   5.428  0.4499  1.2752 -0.8995
   21CHL1   H7B 2673   1.336   1.636   5.477  0.1695 -0.8451  1.2208
   21CHL1    C8 2674   1.419   1.818   5.410 -0.1089 -0.3411  0.4466
   21CHL1    H8 2675   1.519   1.866   5.406  0.0334 -0.6721  0.0722
   21CHL1   C14 2676   1.348   1.804   5.274  0.7368 -0.3420  0.0071
   21CHL1   H14 2677   1.247   1.760   5.287  0.8938 -0.4717  0.8714
   21CHL1   C15 2678   1.419   1.718   5.165  0.2859 -0.3902  0.2270
   21CHL1  H15A 2679   1.526   1.748   5.157 -0.4634  2.2449 -0.6119
   21CHL1  H15B 2680   1.421   1.608   5.183 -0.5598 -0.0625  2.7441
   21CHL1   C16 2681   1.340   1.756   5.037  0.1239 -0.8111  0.8894
   21CHL1  H16A 2682   1.411   1.782   4.956  0.2889  0.7781  1.5139
   21CHL1  H16B 2683   1.279   1.672   4.999 -3.5210  1.8685  0.2958
   21CHL1   C17 2684   1.256   1.885   5.085 -0.3059  0.2825  0.6394
   21CHL1   H17 2685   1.158   1.845   5.119  0.2803 -0.5491  1.3705
   21CHL1   C13 2686   1.314   1.940   5.213 -0.2779 -0.6235  0.0771
   21CHL1   C18 2687   1.434   2.030   5.176 -0.2156  0.3354 -0.7996
   21CHL1  H18A 2688   1.490   1.988   5.090 -1.0050 -1.7739 -0.3539
   21CHL1  H18B 2689   1.403   2.132   5.146 -0.4176 -0.0345 -1.9355
   21CHL1  H18C 2690   1.505   2.037   5.261 -0.7484  1.2395 -0.4183
   21CHL1   C12 2691   1.220   2.015   5.310  0.0026  0.1928 -0.2465
   21CHL1  H12A 2692   1.205   2.118   5.272  1.7165  0.0968 -1.2975
   21CHL1  H12B 2693   1.128   1.953   5.323 -1.6932  2.5370 -0.3698
   21CHL1   C11 2694   1.280   2.043   5.445 -0.2044 -0.1788  0.1264
   21CHL1  H11A 2695   1.351   2.128   5.440 -1.1583  0.5611 -1.4057
   21CHL1  H11B 2696   1.213   2.087   5.522  0.3924  0.0209  0.5474
   21CHL1    C9 2697   1.339   1.906   5.511  0.6097 -0.0267  0.0810
   21CHL1    H9 2698   1.250   1.849   5.548  0.9873 -1.0229 -0.4966
   21CHL1   C10 2699   1.418   1.929   5.647  0.4390  0.6052  0.1889
   21CHL1   C19 2700   1.526   2.040   5.617  0.4921 -0.1662 -0.3145
   21CHL1  H19A 2701   1.572   2.005   5.522 -0.6228  0.0384 -0.9506
   21CHL1  H19B 2702   1.469   2.135   5.607  2.4663  1.4792  2.6303
   21CHL1  H19C 2703   1.608   2.053   5.691 -0.1839  1.5628  0.1823
   21CHL1    C1 2704   1.330   1.978   5.765  0.6435 -0.1362  0.6231
   21CHL1   H1A 2705   1.297   2.080   5.733 -1.3181 -1.4057 -1.7367
   21CHL1   H1B 2706   1.238   1.917   5.779 -0.0789  0.8358  0.2658
   21CHL1    C2 2707   1.382   1.979   5.907 -0.1988  0.4820 -0.4967
   21CHL1   H2A 2708   1.309   2.008   5.986 -0.9750 -1.8446 -0.3041
   21CHL1   H2B 2709   1.470   2.047   5.911 -0.3590  0.6580  0.2725
   21CHL1   C20 2710   1.227   1.982   4.962  0.4759 -0.6427 -0.3139
   21CHL1   H20 2711   1.328   2.025   4.947  0.2638 -0.4739 -1.3127
   21CHL1   C21 2712   1.121   2.086   5.007 -1.3642  0.0233  0.1315
   21CHL1  H21A 2713   1.159   2.152   5.088  0.0566  0.8915 -1.1848
   21CHL1  H21B 2714   1.034   2.027   5.041 -1.0782 -1.3143 -1.3198
   21CHL1  H21C 2715   1.088   2.149   4.922 -1.1375  0.8459  0.6410
   21CHL1   C22 2716   1.198   1.914   4.831  0.4387 -0.5951  0.5944
   21CHL1  H22A 2717   1.281   1.850   4.796  0.2556 -0.2070 -0.6040
   21CHL1  H22B 2718   1.109   1.849   4.846  0.2798 -0.2588  1.1375
   21CHL1   C23 2719   1.155   2.006   4.714 -0.1007  0.3633  0.1316
   21CHL1  H23A 2720   1.055   2.047   4.740 -0.6168 -1.1917  0.6865
   21CHL1  H23B 2721   1.235   2.081   4.695  2.2586 -2.0793 -0.1148
   21CHL1   C24 2722   1.130   1.930   4.586  0.0407  0.1009 -0.4986
   21CHL1  H24A 2723   1.225   1.880   4.556 -0.3077  0.0634 -1.5755
   21CHL1  H24B 2724   1.055   1.850   4.601  1.0422 -0.5749  1.1500
   21CHL1   C25 2725   1.086   2.021   4.469  0.0942  0.0452  0.1471
   21CHL1   H25 2726   1.131   2.122   4.483  0.9822  0.2054 -3.1032
   21CHL1   C26 2727   1.144   1.964   4.331 -0.0521 -0.1092  0.2951
   21CHL1  H26A 2728   1.249   1.932   4.349 -0.4858 -1.1450  1.1023
   21CHL1  H26B 2729   1.083   1.883   4.285 -1.0361  2.7589 -4.0524
   21CHL1  H26C 2730   1.149   2.055   4.268 -2.0767 -0.2736 -0.1792
   21CHL1   C27 2731   0.929   2.027   4.465 -0.1104  0.1962 -0.2128
   21CHL1  H27A 2732   0.904   2.101   4.385  1.1754 -0.9120 -1.6907
   21CHL1  H27B 2733   0.887   1.928   4.441 -0.8161  0.0053  1.6093
   21CHL1  H27C 2734   0.882   2.066   4.558  0.0110 -2.1085  0.8828
   22CHL1    C3 2735   3.700   2.066   5.791  0.0788 -0.5980  0.2844
   22CHL1    H3 2736   3.688   1.956   5.793 -1.0599 -0.4859  1.6543
   22CHL1    O3 2737   3.709   2.095   5.930  0.1531  0.0414  0.4282
   22CHL1   H3' 2738   3.695   2.190   5.930  1.3392  0.2572 -1.4501
   22CHL1    C4 2739   3.834   2.109   5.723  0.0426  0.5452  0.1325
   22CHL1   H4A 2740   3.854   2.215   5.751  0.2220  0.9177 -1.3139
   22CHL1   H4B 2741   3.908   2.050   5.780 -1.2527 -0.8918  0.3813
   22CHL1    C5 2742   3.834   2.083   5.573 -0.4067  0.3941  0.1445
   22CHL1    C6 2743   3.932   2.014   5.516 -0.1293 -0.2956  0.2298
   22CHL1    H6 2744   4.012   1.973   5.579  0.2213 -0.1368 -0.1053
   22CHL1    C7 2745   3.944   1.990   5.366 -0.5650  0.4349 -0.6713
   22CHL1   H7A 2746   4.049   2.001   5.331  0.5449 -2.4226  1.3589
   22CHL1   H7B 2747   3.931   1.882   5.347  0.6372  0.1577 -0.0777
   22CHL1    C8 2748   3.847   2.087   5.289 -0.0256  0.5175 -0.4894
   22CHL1    H8 2749   3.879   2.193   5.293 -1.2381  0.9589  4.3995
   22CHL1   C14 2750   3.830   2.034   5.146  0.0786  0.6869  0.4459
   22CHL1   H14 2751   3.788   1.933   5.166 -2.0688  0.6641 -3.2657
   22CHL1   C15 2752   3.957   2.002   5.064  0.6216  0.3704  0.1083
   22CHL1  H15A 2753   4.027   2.088   5.063  1.7879 -0.5035 -2.5368
   22CHL1  H15B 2754   4.004   1.905   5.092 -1.9777 -1.1775 -0.5503
   22CHL1   C16 2755   3.895   1.982   4.922  0.0521  0.1538  0.3334
   22CHL1  H16A 2756   3.955   2.053   4.862  0.3805  0.2589  0.7853
   22CHL1  H16B 2757   3.905   1.881   4.877 -2.3724  0.4268 -1.0475
   22CHL1   C17 2758   3.749   2.026   4.921  0.5191 -0.2659  1.0344
   22CHL1   H17 2759   3.690   1.934   4.942 -0.2395  0.4762  2.3065
   22CHL1   C13 2760   3.726   2.107   5.056 -0.3128 -0.4579  0.1698
   22CHL1   C18 2761   3.787   2.253   5.027 -0.1245  0.1296  0.3187
   22CHL1  H18A 2762   3.896   2.249   5.046 -0.2667  1.1961  1.4996
   22CHL1  H18B 2763   3.764   2.303   4.931 -0.1134 -0.3919  0.0398
   22CHL1  H18C 2764   3.751   2.330   5.099 -1.1924 -0.8067  0.8262
   22CHL1   C12 2765   3.591   2.100   5.119  0.1358  0.5281  0.6305
   22CHL1  H12A 2766   3.505   2.142   5.063  0.2536 -1.6012 -1.3301
   22CHL1  H12B 2767   3.562   1.994   5.133  1.5510 -0.0998 -0.7452
   22CHL1   C11 2768   3.601   2.164   5.261  0.5419 -0.1426  0.5097
   22CHL1  H11A 2769   3.631   2.270   5.248  1.1765 -0.2912  0.7453
   22CHL1  H11B 2770   3.503   2.157   5.314 -0.0268  0.3084 -0.4653
   22CHL1    C9 2771   3.709   2.092   5.354 -0.2588  0.1541  0.2024
   22CHL1    H9 2772   3.675   1.986   5.361 -0.3144  0.2252  1.0719
   22CHL1   C10 2773   3.712   2.143   5.499 -0.4896  0.2767 -0.0653
   22CHL1   C19 2774   3.718   2.295   5.496  0.2737  0.0072  0.0389
   22CHL1  H19A 2775   3.735   2.338   5.596  2.5677  1.3816 -0.8744
   22CHL1  H19B 2776   3.804   2.324   5.431  1.4933 -1.2728  1.0206
   22CHL1  H19C 2777   3.631   2.349   5.452 -0.0740  0.0397  0.7577
   22CHL1    C1 2778   3.581   2.104   5.574  0.9789  0.8768 -0.2256
   22CHL1   H1A 2779   3.487   2.145   5.529  1.0191  1.2092 -0.0129
   22CHL1   H1B 2780   3.577   1.993   5.574  0.1178  0.8990  0.1736
   22CHL1    C2 2781   3.582   2.128   5.729  0.5585  0.4579  0.0994
   22CHL1   H2A 2782   3.487   2.089   5.770 -0.1551  0.5418 -1.4119
   22CHL1   H2B 2783   3.585   2.238   5.748  2.2192  0.4426  0.0303
   22CHL1   C20 2784   3.704   2.091   4.792  0.7580  0.0071 -0.6917
   22CHL1   H20 2785   3.771   2.178   4.775 -1.2931  1.1941 -3.2322
   22CHL1   C21 2786   3.559   2.146   4.801 -0.0885  0.6647 -0.1728
   22CHL1  H21A 2787   3.501   2.052   4.812 -0.0674  0.3928 -1.9522
   22CHL1  H21B 2788   3.518   2.188   4.707 -1.2155 -3.0138 -1.5243
   22CHL1  H21C 2789   3.542   2.208   4.891  2.8191  0.9318  0.3068
   22CHL1   C22 2790   3.718   1.982   4.681  0.1492  0.1931 -0.2548
   22CHL1  H22A 2791   3.811   1.921   4.685 -0.8067 -1.3521 -0.8379
   22CHL1  H22B 2792   3.632   1.913   4.692  1.0556 -0.5061  3.7889
   22CHL1   C23 2793   3.738   2.028   4.533  0.0380 -0.4648 -0.3512
   22CHL1  H23A 2794   3.833   2.085   4.534  0.3988 -1.0429 -0.6728
   22CHL1  H23B 2795   3.746   1.930   4.480 -0.4834 -1.6459  1.6336
   22CHL1   C24 2796   3.630   2.126   4.488  0.2160  0.0582  0.2477
   22CHL1  H24A 2797   3.530   2.082   4.505  0.3853 -0.4501 -0.0593
   22CHL1  H24B 2798   3.635   2.218   4.550  1.8409 -0.7934  1.4714
   22CHL1   C25 2799   3.647   2.178   4.346 -0.2534  0.6012  0.5200
   22CHL1   H25 2800   3.757   2.185   4.332 -0.2408 -0.0116  0.2617
   22CHL1   C26 2801   3.594   2.084   4.248 -0.9335 -1.0346 -0.2177
   22CHL1  H26A 2802   3.632   2.104   4.146 -1.6889  1.0455 -0.1350
   22CHL1  H26B 2803   3.632   1.983   4.275 -0.4169 -0.9381 -0.5761
   22CHL1  H26C 2804   3.483   2.082   4.244 -0.8835 -1.9385 -1.7979
   22CHL1   C27 2805   3.574   2.307   4.315 -0.8748  0.6814  0.1375
   22CHL1  H27A 2806   3.466   2.308   4.338 -0.9397  2.1535 -0.1282
   22CHL1  H27B 2807   3.611   2.388   4.382 -1.0759  0.8142  0.0885
   22CHL1  H27C 2808   3.586   2.337   4.209  1.9395 -1.7796 -0.3966
   23CHL1    C3 2809   1.862   2.919   5.850 -0.0010 -1.1161 -0.5120
   23CHL1    H3 2810   1.962   2.965   5.865 -1.0661  1.2433 -0.1751
   23CHL1    O3 2811   1.784   2.922   5.975  0.4770  0.3943 -0.1702
   23CHL1   H3' 2812   1.817   2.854   6.034  0.8776  1.0665  0.3970
   23CHL1    C4 2813   1.798   3.014   5.749 -0.2535  0.3665  0.4024
   23CHL1   H4A 2814   1.689   3.008   5.728 -0.0278  0.6580 -0.8862
   23CHL1   H4B 2815   1.808   3.109   5.805 -1.9139 -0.2625  1.8667
   23CHL1    C5 2816   1.867   3.010   5.615  0.0641  0.1875 -0.1950
   23CHL1    C6 2817   1.915   3.120   5.561 -0.5324 -0.4769  0.2171
   23CHL1    H6 2818   1.915   3.215   5.616  1.1604  0.7423 -1.7251
   23CHL1    C7 2819   1.951   3.132   5.419  0.5672  0.5114  0.6777
   23CHL1   H7A 2820   1.887   3.215   5.381  1.1196  0.8825  0.5517
   23CHL1   H7B 2821   2.058   3.159   5.407  0.1697  1.7380 -0.3007
   23CHL1    C8 2822   1.914   3.009   5.335 -0.2713 -0.1775  0.7571
   23CHL1    H8 2823   1.806   3.007   5.309  0.2565 -0.7920 -1.7168
   23CHL1   C14 2824   1.989   3.012   5.206  0.1364 -0.0140  0.0237
   23CHL1   H14 2825   2.097   3.016   5.234 -0.2014  0.2700  1.3714
   23CHL1   C15 2826   1.965   3.133   5.108 -0.2286  0.9175  0.0234
   23CHL1  H15A 2827   1.857   3.140   5.082 -0.6516  1.5974  1.8686
   23CHL1  H15B 2828   2.012   3.227   5.143  1.3565  0.7662 -1.5387
   23CHL1   C16 2829   2.036   3.087   4.973  0.5529 -0.5306 -0.3548
   23CHL1  H16A 2830   1.957   3.110   4.899 -0.9451 -0.8529  1.0815
   23CHL1  H16B 2831   2.122   3.158   4.976  0.3042 -0.2467  0.5457
   23CHL1   C17 2832   2.076   2.936   5.004 -0.2703 -0.6014  0.2049
   23CHL1   H17 2833   2.172   2.940   5.059 -0.8496  0.7607  1.1942
   23CHL1   C13 2834   1.975   2.884   5.114 -0.2110 -0.3569 -0.6716
   23CHL1   C18 2835   1.833   2.877   5.057 -0.5513  0.1427  0.2351
   23CHL1  H18A 2836   1.822   2.778   5.006  0.2527  1.4349 -2.6875
   23CHL1  H18B 2837   1.768   2.895   5.145 -0.1629  1.4471  0.2618
   23CHL1  H18C 2838   1.821   2.943   4.969  3.0802 -1.2422 -1.5020
   23CHL1   C12 2839   2.019   2.764   5.203  0.6430 -0.2685  0.6062
   23CHL1  H12A 2840   1.992   2.669   5.150 -3.4091 -0.3550  2.4166
   23CHL1  H12B 2841   2.128   2.762   5.224  0.7661  0.2187  0.0349
   23CHL1   C11 2842   1.942   2.753   5.331 -0.0861 -0.5322  0.4837
   23CHL1  H11A 2843   1.837   2.721   5.313  0.1056 -1.7542  1.3610
   23CHL1  H11B 2844   1.963   2.663   5.393 -3.7393 -1.7983  0.1005
   23CHL1    C9 2845   1.950   2.883   5.416 -0.2616  0.1638 -0.2956
   23CHL1    H9 2846   2.055   2.901   5.447 -0.0622  2.9622 -2.1662
   23CHL1   C10 2847   1.871   2.879   5.545 -0.6353  0.4651 -0.0837
   23CHL1   C19 2848   1.734   2.825   5.510 -0.1697  0.2827 -0.3900
   23CHL1  H19A 2849   1.684   2.883   5.429  0.4354  0.8479 -0.3660
   23CHL1  H19B 2850   1.727   2.717   5.486 -1.2393  0.3492 -0.4576
   23CHL1  H19C 2851   1.672   2.838   5.601  2.9972  0.0890  1.9445
   23CHL1    C1 2852   1.942   2.777   5.647 -0.1229  0.1975 -0.1915
   23CHL1   H1A 2853   1.934   2.673   5.607  2.1421 -0.4087  0.7463
   23CHL1   H1B 2854   2.050   2.801   5.643 -0.1602  0.2097 -2.8042
   23CHL1    C2 2855   1.875   2.779   5.791  1.0035  0.7373  0.7919
   23CHL1   H2A 2856   1.942   2.717   5.855  0.8981 -0.5696 -0.3106
   23CHL1   H2B 2857   1.773   2.738   5.778  0.7839  2.0630 -3.0958
   23CHL1   C20 2858   2.090   2.863   4.873 -0.0419  1.2076  0.6307
   23CHL1   H20 2859   1.994   2.880   4.820 -0.8272  0.2650  1.6807
   23CHL1   C21 2860   2.102   2.708   4.893 -0.2391 -0.4317  0.1474
   23CHL1  H21A 2861   2.151   2.658   4.807  0.6650 -0.9714  0.9622
   23CHL1  H21B 2862   2.004   2.661   4.916  0.3129 -0.1525  3.6592
   23CHL1  H21C 2863   2.173   2.685   4.975  0.2055  0.7266  0.1171
   23CHL1   C22 2864   2.215   2.906   4.786  0.1041 -0.5944 -0.0026
   23CHL1  H22A 2865   2.307   2.917   4.847  0.0754  0.1458 -0.0848
   23CHL1  H22B 2866   2.218   2.831   4.704 -1.8145 -0.1232 -0.5729
   23CHL1   C23 2867   2.203   3.030   4.700 -0.4248 -0.0099  0.6988
   23CHL1  H23A 2868   2.101   3.032   4.657 -0.4010  2.5080  0.5734
   23CHL1  H23B 2869   2.203   3.120   4.765  1.1796  0.8019 -0.3289
   23CHL1   C24 2870   2.318   3.040   4.587 -0.0609 -0.1073 -0.4299
   23CHL1  H24A 2871   2.414   3.068   4.635 -0.3569 -3.0253  2.2645
   23CHL1  H24B 2872   2.337   2.943   4.535 -0.8178  0.1241 -1.1565
   23CHL1   C25 2873   2.300   3.143   4.476  0.7453 -0.4159 -0.3253
   23CHL1   H25 2874   2.386   3.146   4.405 -0.8678  0.2400 -2.3686
   23CHL1   C26 2875   2.173   3.094   4.387 -0.2063 -0.0392 -0.3062
   23CHL1  H26A 2876   2.160   3.158   4.297 -0.8609 -0.7222 -0.7214
   23CHL1  H26B 2877   2.183   2.984   4.370 -1.0664 -0.2978  0.7346
   23CHL1  H26C 2878   2.082   3.103   4.451 -0.7942 -2.2458 -0.7145
   23CHL1   C27 2879   2.274   3.288   4.523  0.4860 -0.0565  0.2345
   23CHL1  H27A 2880   2.185   3.295   4.589 -0.6743 -0.7733 -1.1853
   23CHL1  H27B 2881   2.362   3.322   4.581  0.7894 -0.8868  0.2723
   23CHL1  H27C 2882   2.272   3.353   4.433 -1.2183  1.5418  1.3593
   24CHL1    C3 2883   5.200   6.771   5.720 -0.0164 -0.0828 -0.5580
   24CHL1    H3 2884   5.237   6.868   5.680  1.5402 -0.0106  0.8986
   24CHL1    O3 2885   5.216   6.771   5.866 -0.7108 -0.1992  0.1101
   24CHL1   H3' 2886   5.181   6.694   5.911  0.4071 -2.5840 -2.7734
   24CHL1    C4 2887   5.057   6.736   5.687 -0.1679 -0.1442  0.3131
   24CHL1   H4A 2888   5.032   6.647   5.749 -0.7914 -0.6448 -0.6359
   24CHL1   H4B 2889   4.992   6.818   5.721  1.1966  1.5315 -0.9075
   24CHL1    C5 2890   5.034   6.712   5.543 -0.2847  0.1206  0.0277
   24CHL1    C6 2891   4.941   6.784   5.476  0.2532  0.1967  0.4552
   24CHL1    H6 2892   4.886   6.865   5.526 -2.0626 -1.4270  0.6908
   24CHL1    C7 2893   4.916   6.765   5.329 -0.1626  0.4400  0.2270
   24CHL1   H7A 2894   4.807   6.751   5.309 -0.3251 -1.5202  2.1597
   24CHL1   H7B 2895   4.951   6.861   5.284 -1.6697  0.1573 -1.6730
   24CHL1    C8 2896   4.987   6.644   5.262 -0.2698 -0.3638 -0.3086
   24CHL1    H8 2897   4.931   6.550   5.275 -0.4724 -0.2870 -0.6138
   24CHL1   C14 2898   5.002   6.677   5.109  0.3898  1.0934  0.3018
   24CHL1   H14 2899   5.080   6.756   5.114  1.9265 -0.3751  0.7660
   24CHL1   C15 2900   4.869   6.719   5.042 -0.4211 -0.6245  0.3755
   24CHL1  H15A 2901   4.788   6.652   5.079 -0.0596 -0.5085  1.4056
   24CHL1  H15B 2902   4.831   6.821   5.063  2.5215  0.8620 -0.9234
   24CHL1   C16 2903   4.895   6.691   4.889 -0.0842 -0.1686 -0.2466
   24CHL1  H16A 2904   4.815   6.619   4.861  0.8046 -0.2197 -2.8763
   24CHL1  H16B 2905   4.899   6.786   4.831  2.7175  0.4409  0.7910
   24CHL1   C17 2906   5.037   6.620   4.884 -0.2683  0.8169 -0.5729
   24CHL1   H17 2907   5.121   6.692   4.871  1.4168 -1.0271 -0.3078
   24CHL1   C13 2908   5.055   6.564   5.031  0.0159  0.2348 -0.4080
   24CHL1   C18 2909   4.966   6.436   5.048  0.4538 -0.5523  0.7690
   24CHL1  H18A 2910   5.000   6.347   4.991 -3.0624 -1.2244 -0.5423
   24CHL1  H18B 2911   4.971   6.386   5.147  2.2222 -1.8338  0.0888
   24CHL1  H18C 2912   4.858   6.455   5.029  0.0639 -1.7235  1.6416
   24CHL1   C12 2913   5.199   6.531   5.088  0.3671 -0.3923  0.6094
   24CHL1  H12A 2914   5.245   6.446   5.034 -0.4864 -0.3290 -0.2337
   24CHL1  H12B 2915   5.253   6.626   5.067 -3.0608  1.3273 -1.2428
   24CHL1   C11 2916   5.204   6.515   5.240 -0.0772 -0.1680 -0.1226
   24CHL1  H11A 2917   5.159   6.415   5.258 -2.1347  0.7394 -0.0106
   24CHL1  H11B 2918   5.312   6.526   5.262  0.0516 -0.9568 -0.3093
   24CHL1    C9 2919   5.127   6.624   5.314  0.0567 -0.4408 -0.1051
   24CHL1    H9 2920   5.178   6.723   5.308  1.3018 -0.8932  2.0179
   24CHL1   C10 2921   5.130   6.614   5.468  0.7419 -0.0109 -0.1177
   24CHL1   C19 2922   5.092   6.471   5.516 -0.0292  0.2932  0.2777
   24CHL1  H19A 2923   5.107   6.452   5.625 -1.4980  0.5435  0.5411
   24CHL1  H19B 2924   4.986   6.447   5.494 -1.1060  4.4168  0.1795
   24CHL1  H19C 2925   5.155   6.392   5.470 -1.0286 -1.7727  2.2445
   24CHL1    C1 2926   5.276   6.641   5.514  0.0652  0.1491 -0.2431
   24CHL1   H1A 2927   5.342   6.559   5.478 -1.0960 -0.5460 -0.8425
   24CHL1   H1B 2928   5.306   6.733   5.460 -0.2293  1.0631  1.0992
   24CHL1    C2 2929   5.290   6.662   5.666 -0.9182  0.2570 -0.2108
   24CHL1   H2A 2930   5.399   6.681   5.683 -0.6303  0.1458 -1.7897
   24CHL1   H2B 2931   5.263   6.573   5.727 -1.4012  2.0829  2.4057
   24CHL1   C20 2932   5.049   6.522   4.767  0.5228  0.1483 -0.4926
   24CHL1   H20 2933   4.978   6.439   4.790  0.2604 -0.3402 -2.8045
   24CHL1   C21 2934   5.192   6.467   4.761 -0.2947  0.3886  0.0508
   24CHL1  H21A 2935   5.212   6.382   4.830 -0.8934 -1.3492 -1.8056
   24CHL1  H21B 2936   5.260   6.554   4.769  2.1421 -1.2543 -1.4765
   24CHL1  H21C 2937   5.204   6.422   4.659  0.4161  0.0382  0.2841
   24CHL1   C22 2938   5.005   6.577   4.630  0.6023 -0.7005 -0.4206
   24CHL1  H22A 2939   5.007   6.494   4.557 -1.5375 -0.7088 -0.5364
   24CHL1  H22B 2940   4.900   6.613   4.623  1.1962  1.1122 -0.7313
   24CHL1   C23 2941   5.069   6.712   4.595 -0.2937 -0.3654  0.2781
   24CHL1  H23A 2942   5.059   6.800   4.662  1.4463  0.4603 -0.4704
   24CHL1  H23B 2943   5.178   6.693   4.597 -0.4272 -1.5353 -1.4153
   24CHL1   C24 2944   5.031   6.770   4.455 -0.6292  0.0522 -0.1262
   24CHL1  H24A 2945   5.093   6.713   4.382 -1.9175  0.0587 -1.2643
   24CHL1  H24B 2946   4.938   6.740   4.403 -0.6775  0.2813 -0.1755
   24CHL1   C25 2947   5.062   6.922   4.434  0.1363  0.6555  0.1319
   24CHL1   H25 2948   4.992   6.974   4.502 -0.4035 -0.7929  0.7207
   24CHL1   C26 2949   5.204   6.950   4.467  0.1385 -0.0102  0.3354
   24CHL1  H26A 2950   5.234   7.057   4.464  2.6332 -0.6602  0.4504
   24CHL1  H26B 2951   5.235   6.926   4.570  1.4126  0.3042  0.0343
   24CHL1  H26C 2952   5.268   6.894   4.395 -0.3020 -1.5045  1.0743
   24CHL1   C27 2953   5.035   6.952   4.287 -0.1417  0.6884 -0.3515
   24CHL1  H27A 2954   5.090   6.890   4.214  0.4195  1.4019 -0.5529
   24CHL1  H27B 2955   4.926   6.949   4.265 -0.4172  1.6535  0.7570
   24CHL1  H27C 2956   5.084   7.048   4.258 -1.5335  1.8178  0.8090
   25CHL1    C3 2957   1.078   4.591   5.438 -0.4398  0.5433 -0.0354
   25CHL1    H3 2958   1.106   4.691   5.398 -1.8785  0.8239 -0.4214
   25CHL1    O3 2959   0.987   4.605   5.549 -0.0660  0.2594  0.6715
   25CHL1   H3' 2960   1.039   4.606   5.629  1.1267 -0.8105 -0.0566
   25CHL1    C4 2961   1.011   4.514   5.328  0.2241 -0.3711 -0.3585
   25CHL1   H4A 2962   0.977   4.416   5.367 -1.7690  0.9362  1.4334
   25CHL1   H4B 2963   0.912   4.551   5.294  0.2356  0.7411  0.7172
   25CHL1    C5 2964   1.111   4.508   5.212  0.1918 -0.1323 -0.5209
   25CHL1    C6 2965   1.084   4.567   5.097  0.0841 -0.1932 -0.3741
   25CHL1    H6 2966   0.986   4.618   5.090  1.3771  2.5929  0.7283
   25CHL1    C7 2967   1.175   4.579   4.986 -0.5548  0.0830  0.5363
   25CHL1   H7A 2968   1.126   4.578   4.886 -0.0629 -1.0276  0.2853
   25CHL1   H7B 2969   1.219   4.681   4.981  1.9497 -0.9567 -1.2034
   25CHL1    C8 2970   1.298   4.479   4.990  0.0269 -0.4148 -0.0741
   25CHL1    H8 2971   1.256   4.376   4.990  0.6517 -0.6993  1.3572
   25CHL1   C14 2972   1.402   4.510   4.891 -0.7335 -0.0196  0.0334
   25CHL1   H14 2973   1.451   4.606   4.921  0.1024 -0.4430  0.0391
   25CHL1   C15 2974   1.356   4.539   4.751  0.3170  0.0970 -0.0447
   25CHL1  H15A 2975   1.275   4.476   4.709  0.8713 -0.8686  0.2815
   25CHL1  H15B 2976   1.321   4.644   4.745 -3.1967 -1.0249 -1.1786
   25CHL1   C16 2977   1.477   4.506   4.661 -0.3509 -0.0603  0.2736
   25CHL1  H16A 2978   1.440   4.422   4.598 -0.8525 -1.3847  2.2329
   25CHL1  H16B 2979   1.524   4.587   4.602  1.2355 -0.5362  0.8219
   25CHL1   C17 2980   1.588   4.453   4.761  0.1686 -0.2912  0.1499
   25CHL1   H17 2981   1.648   4.540   4.795  1.5160 -1.2314  0.2505
   25CHL1   C13 2982   1.513   4.411   4.889 -0.1930  0.2504 -0.3014
   25CHL1   C18 2983   1.459   4.262   4.870  0.6938 -0.0995  1.2749
   25CHL1  H18A 2984   1.542   4.191   4.852  0.0467 -0.7158  0.6695
   25CHL1  H18B 2985   1.397   4.225   4.955 -0.1969 -0.2423  0.5774
   25CHL1  H18C 2986   1.404   4.264   4.774  0.8270  1.6753  1.2016
   25CHL1   C12 2987   1.588   4.412   5.023  0.3057  0.2740  0.3722
   25CHL1  H12A 2988   1.678   4.346   5.028  0.5778  0.3965 -1.7629
   25CHL1  H12B 2989   1.623   4.516   5.040 -0.1144  0.7881 -1.6419
   25CHL1   C11 2990   1.488   4.399   5.140  0.0462 -0.5312  0.8694
   25CHL1  H11A 2991   1.485   4.289   5.154  2.6256 -0.8206 -0.4223
   25CHL1  H11B 2992   1.544   4.430   5.231  1.6968 -0.9729  0.0301
   25CHL1    C9 2993   1.359   4.482   5.132 -0.6432 -0.5831  0.6978
   25CHL1    H9 2994   1.389   4.588   5.140  1.5723 -1.1093  0.0015
   25CHL1   C10 2995   1.253   4.450   5.241  0.7891 -0.1638 -0.0290
   25CHL1   C19 2996   1.246   4.295   5.270 -0.2926  0.2345 -0.1945
   25CHL1  H19A 2997   1.163   4.272   5.341 -1.4844  2.7696 -0.6829
   25CHL1  H19B 2998   1.215   4.238   5.179  0.0978 -0.8936  0.3515
   25CHL1  H19C 2999   1.343   4.261   5.313 -1.2324 -0.0858  1.7693
   25CHL1    C1 3000   1.304   4.509   5.375 -0.3069  0.4290 -0.3115
   25CHL1   H1A 3001   1.387   4.443   5.404  0.0179  0.0789 -1.9269
   25CHL1   H1B 3002   1.351   4.609   5.363 -1.9237  1.3262  0.4309
   25CHL1    C2 3003   1.207   4.523   5.489  0.6072 -0.1903 -0.0644
   25CHL1   H2A 3004   1.261   4.586   5.563 -0.5392  0.6316  0.1023
   25CHL1   H2B 3005   1.182   4.423   5.531 -0.1033 -0.2158 -0.5337
   25CHL1   C20 3006   1.689   4.357   4.693  0.3256 -0.1329  0.3594
   25CHL1   H20 3007   1.623   4.272   4.666 -1.1713  1.2319 -0.3751
   25CHL1   C21 3008   1.798   4.306   4.793 -0.4335  0.2253  0.6732
   25CHL1  H21A 3009   1.765   4.222   4.858  1.5390 -0.0281  1.4010
   25CHL1  H21B 3010   1.819   4.394   4.858  2.2909 -0.6035  1.0293
   25CHL1  H21C 3011   1.891   4.274   4.742 -1.1111  1.5430 -1.5592
   25CHL1   C22 3012   1.758   4.420   4.568 -0.6513  1.3057  0.2455
   25CHL1  H22A 3013   1.830   4.340   4.540 -2.0515  0.0117  0.2508
   25CHL1  H22B 3014   1.690   4.418   4.480  0.4325 -0.4415 -0.5981
   25CHL1   C23 3015   1.837   4.551   4.583  0.5157 -0.3116  0.1742
   25CHL1  H23A 3016   1.761   4.628   4.608 -0.3929 -0.8795 -0.7768
   25CHL1  H23B 3017   1.911   4.553   4.666 -1.9164  1.1550  2.4528
   25CHL1   C24 3018   1.911   4.572   4.446  0.1283 -0.3323 -0.9685
   25CHL1  H24A 3019   2.000   4.506   4.446 -0.4196 -1.0974 -1.4682
   25CHL1  H24B 3020   1.836   4.559   4.365  0.1008  1.1209 -1.2016
   25CHL1   C25 3021   1.975   4.710   4.431  0.0049  0.2285 -0.1984
   25CHL1   H25 3022   1.893   4.783   4.452  0.7728  0.7467  1.1430
   25CHL1   C26 3023   2.087   4.726   4.537  0.0887 -0.8062 -0.7549
   25CHL1  H26A 3024   2.153   4.815   4.525 -0.5756 -0.1640  0.1689
   25CHL1  H26B 3025   2.045   4.727   4.640  0.1361 -0.7039 -0.7362
   25CHL1  H26C 3026   2.151   4.638   4.514  0.2933 -1.4298  1.8447
   25CHL1   C27 3027   2.041   4.745   4.298  0.4681  0.0557 -0.0619
   25CHL1  H27A 3028   2.073   4.851   4.290 -1.3471  0.4892 -2.8996
   25CHL1  H27B 3029   2.125   4.674   4.278  0.3551 -1.0846  2.9957
   25CHL1  H27C 3030   1.975   4.721   4.212  1.2320 -0.2109 -0.5832
   26CHL1    C3 3031   5.152   3.609   5.842  0.0905 -0.0798  0.1759
   26CHL1    H3 3032   5.204   3.512   5.823  1.1280  0.0784  2.0312
   26CHL1    O3 3033   5.116   3.608   5.977 -0.2626  0.0690 -0.4235
   26CHL1   H3' 3034   5.083   3.696   5.996  2.7437  0.9819  1.2853
   26CHL1    C4 3035   5.240   3.732   5.811  0.3140 -0.1099  0.4429
   26CHL1   H4A 3036   5.184   3.819   5.851  1.7220  1.5034 -0.9311
   26CHL1   H4B 3037   5.337   3.724   5.865 -0.5230 -0.1954  1.9833
   26CHL1    C5 3038   5.272   3.745   5.665 -0.4804 -0.1947 -0.2435
   26CHL1    C6 3039   5.396   3.756   5.623 -0.7964  0.7853  0.7696
   26CHL1    H6 3040   5.480   3.730   5.689  0.0062  0.0315 -0.5147
   26CHL1    C7 3041   5.432   3.787   5.478 -0.2707 -0.2479  0.3698
   26CHL1   H7A 3042   5.500   3.874   5.471 -0.3236 -0.3569 -2.9748
   26CHL1   H7B 3043   5.486   3.702   5.432  0.6178  0.5319 -0.0740
   26CHL1    C8 3044   5.307   3.833   5.395 -0.0873  0.4693 -0.6992
   26CHL1    H8 3045   5.281   3.939   5.416 -0.4833  0.5665 -1.6434
   26CHL1   C14 3046   5.345   3.826   5.250  0.7973 -0.2849  0.5076
   26CHL1   H14 3047   5.371   3.721   5.226  2.1712 -0.3844  2.1800
   26CHL1   C15 3048   5.464   3.905   5.202 -0.1748  0.1617 -0.0840
   26CHL1  H15A 3049   5.478   4.001   5.256 -2.6058  0.2070  0.5956
   26CHL1  H15B 3050   5.559   3.855   5.227  0.4260  0.9533 -0.7285
   26CHL1   C16 3051   5.436   3.929   5.056 -0.3709 -0.1021  0.6263
   26CHL1  H16A 3052   5.419   4.039   5.051  1.2275  0.2728  2.3605
   26CHL1  H16B 3053   5.516   3.895   4.987  0.2527 -1.1145  1.8066
   26CHL1   C17 3054   5.303   3.861   5.021  0.3206  0.6422  0.1399
   26CHL1   H17 3055   5.329   3.753   5.014 -1.8898  0.1538 -2.3225
   26CHL1   C13 3056   5.221   3.863   5.153  0.2197  0.2633  0.2807
   26CHL1   C18 3057   5.168   4.008   5.188  0.2867 -0.5816  0.0857
   26CHL1  H18A 3058   5.094   4.052   5.118 -0.1101 -0.9944  0.2420
   26CHL1  H18B 3059   5.121   4.016   5.288 -0.5538 -1.3690 -0.2329
   26CHL1  H18C 3060   5.259   4.071   5.194 -1.0440  1.3280  1.4226
   26CHL1   C12 3061   5.111   3.756   5.172  0.2812 -0.6989 -0.2621
   26CHL1  H12A 3062   5.013   3.787   5.130  1.0550  0.3694 -1.3362
   26CHL1  H12B 3063   5.147   3.658   5.132 -1.2149 -0.5199 -2.2019
   26CHL1   C11 3064   5.075   3.743   5.319 -0.5298 -0.5348 -0.0510
   26CHL1  H11A 3065   5.024   3.832   5.361  0.0111 -0.1581 -0.1812
   26CHL1  H11B 3066   5.006   3.657   5.335  0.0921 -1.1846 -0.7540
   26CHL1    C9 3067   5.187   3.739   5.427  0.5757  0.4498  0.4430
   26CHL1    H9 3068   5.219   3.633   5.417 -1.8997 -0.5508  2.0803
   26CHL1   C10 3069   5.147   3.741   5.570  0.1006 -0.7786 -1.1396
   26CHL1   C19 3070   5.075   3.874   5.597  0.3489  0.2756  0.2257
   26CHL1  H19A 3071   4.976   3.870   5.546  0.1315  0.7415  0.6044
   26CHL1  H19B 3072   5.054   3.888   5.705 -0.9553  1.9017 -0.1977
   26CHL1  H19C 3073   5.133   3.964   5.570 -0.3942  0.2592 -1.5786
   26CHL1    C1 3074   5.053   3.625   5.609 -0.0133 -0.3770  0.0596
   26CHL1   H1A 3075   4.967   3.632   5.539  1.7830 -2.0613 -2.5229
   26CHL1   H1B 3076   5.098   3.525   5.589  1.1521 -0.8294  4.1179
   26CHL1    C2 3077   5.020   3.607   5.761  0.4195 -0.2041 -0.3807
   26CHL1   H2A 3078   4.977   3.506   5.773 -0.3161 -0.1187 -2.0215
   26CHL1   H2B 3079   4.953   3.687   5.798 -1.6540 -1.3015 -1.5839
   26CHL1   C20 3080   5.223   3.896   4.897  0.0043  0.0792  0.2499
   26CHL1   H20 3081   5.121   3.927   4.926 -0.1530  0.4562 -0.6709
   26CHL1   C21 3082   5.208   3.774   4.805 -0.0212  0.5666 -0.1254
   26CHL1  H21A 3083   5.152   3.698   4.863 -0.9969  0.3000 -1.3784
   26CHL1  H21B 3084   5.305   3.738   4.766  0.0878  1.2657 -0.5299
   26CHL1  H21C 3085   5.144   3.796   4.717  0.4888 -0.2899 -0.7174
   26CHL1   C22 3086   5.299   4.008   4.821 -0.4748 -0.7743 -0.6149
   26CHL1  H22A 3087   5.298   4.097   4.887 -0.5827 -0.9002 -0.4452
   26CHL1  H22B 3088   5.403   3.975   4.803 -0.5938 -0.5083 -1.9337
   26CHL1   C23 3089   5.235   4.056   4.691 -0.1044 -0.1870 -0.6033
   26CHL1  H23A 3090   5.235   3.987   4.604 -0.6582 -0.7842 -0.1420
   26CHL1  H23B 3091   5.131   4.067   4.731  0.0902  0.9844 -0.3806
   26CHL1   C24 3092   5.294   4.196   4.658  0.4404  0.4713  0.0630
   26CHL1  H24A 3093   5.293   4.258   4.750 -0.1585 -0.4377  0.6830
   26CHL1  H24B 3094   5.400   4.190   4.625  0.1542  0.4527 -0.8681
   26CHL1   C25 3095   5.212   4.289   4.561 -0.0391 -0.1274  0.0999
   26CHL1   H25 3096   5.234   4.397   4.573  0.2273  0.1064 -2.1732
   26CHL1   C26 3097   5.246   4.246   4.417 -0.1854  0.0218  0.7935
   26CHL1  H26A 3098   5.348   4.280   4.388 -0.4094  2.3655  2.4718
   26CHL1  H26B 3099   5.235   4.137   4.402 -0.0200  0.3058 -1.7738
   26CHL1  H26C 3100   5.168   4.284   4.348 -0.1378 -1.4630 -0.1241
   26CHL1   C27 3101   5.062   4.275   4.598 -0.3204  0.1301 -1.5116
   26CHL1  H27A 3102   5.040   4.170   4.570  0.6520 -1.8276  3.8267
   26CHL1  H27B 3103   5.054   4.280   4.709  1.3938 -1.9312 -1.2354
   26CHL1  H27C 3104   5.002   4.357   4.552  1.2448  1.7041 -0.8936
   27CHL1    C3 3105   2.276   1.388   5.655  0.2443 -0.2511  0.6136
   27CHL1    H3 3106   2.248   1.494   5.636 -1.5966 -0.4728  1.8515
   27CHL1    O3 3107   2.281   1.364   5.794  0.0729 -0.0526  0.2764
   27CHL1   H3' 3108   2.307   1.273   5.806  3.6277  0.9118  1.0052
   27CHL1    C4 3109   2.178   1.305   5.568  0.1735  0.3834 -0.3699
   27CHL1   H4A 3110   2.202   1.197   5.585 -2.5358 -0.2131  0.1854
   27CHL1   H4B 3111   2.080   1.316   5.619  0.4719 -1.6591  0.7835
   27CHL1    C5 3112   2.185   1.343   5.423  0.1156  0.0574  0.2622
   27CHL1    C6 3113   2.074   1.380   5.359  0.3995  0.8786 -0.2493
   27CHL1    H6 3114   1.977   1.383   5.411 -0.3248  2.1259 -1.5689
   27CHL1    C7 3115   2.064   1.405   5.216 -0.4212 -0.0136  0.3134
   27CHL1   H7A 3116   1.988   1.340   5.169  0.2076  2.1212 -4.2627
   27CHL1   H7B 3117   2.038   1.510   5.192 -1.0805 -0.5758 -1.6426
   27CHL1    C8 3118   2.194   1.370   5.138  0.5317 -0.9273  0.0321
   27CHL1    H8 3119   2.181   1.260   5.125 -1.5039 -0.6730 -0.5237
   27CHL1   C14 3120   2.201   1.437   5.006  0.0147  0.3340  0.3460
   27CHL1   H14 3121   2.204   1.545   5.034 -0.3150  0.8487 -1.4092
   27CHL1   C15 3122   2.073   1.446   4.917 -0.8699 -0.0011  0.4050
   27CHL1  H15A 3123   2.027   1.345   4.916  2.1419 -1.5245 -2.0142
   27CHL1  H15B 3124   2.000   1.517   4.962  0.4214 -0.3788  3.3081
   27CHL1   C16 3125   2.129   1.467   4.776  0.5547 -0.5902 -0.5279
   27CHL1  H16A 3126   2.085   1.397   4.702 -0.6182 -1.5531  0.9966
   27CHL1  H16B 3127   2.095   1.566   4.739 -1.3979 -1.4179 -1.0563
   27CHL1   C17 3128   2.284   1.453   4.781 -0.2334 -0.1887 -0.8198
   27CHL1   H17 3129   2.330   1.555   4.779  0.2495 -0.3700  0.3985
   27CHL1   C13 3130   2.322   1.393   4.915  0.3241  0.5474 -0.0715
   27CHL1   C18 3131   2.332   1.242   4.897 -0.0633  0.0014 -1.0324
   27CHL1  H18A 3132   2.418   1.211   4.833 -1.0207 -1.6954 -1.5534
   27CHL1  H18B 3133   2.344   1.193   4.996  2.0763  1.2123 -0.6254
   27CHL1  H18C 3134   2.237   1.202   4.857 -1.6481 -0.4838  2.7938
   27CHL1   C12 3135   2.448   1.445   4.992  0.3437 -0.4160 -0.3137
   27CHL1  H12A 3136   2.543   1.413   4.945  2.0724 -0.2613  2.8293
   27CHL1  H12B 3137   2.455   1.555   5.007 -1.8225  0.0118 -1.8739
   27CHL1   C11 3138   2.456   1.394   5.133  0.7454 -0.8341  0.8952
   27CHL1  H11A 3139   2.485   1.288   5.118 -0.4955 -1.0452 -0.2317
   27CHL1  H11B 3140   2.536   1.458   5.175 -0.6490  2.1490 -0.6408
   27CHL1    C9 3141   2.319   1.406   5.216  0.0200  0.2653  0.0361
   27CHL1    H9 3142   2.321   1.516   5.229  1.7958  0.5594 -2.0808
   27CHL1   C10 3143   2.321   1.339   5.357 -0.2760  0.7921  0.1180
   27CHL1   C19 3144   2.360   1.188   5.342  0.7571  0.0960 -0.0493
   27CHL1  H19A 3145   2.361   1.122   5.432 -0.4358 -1.5726 -1.2014
   27CHL1  H19B 3146   2.280   1.144   5.279  0.7327  2.1901 -1.5897
   27CHL1  H19C 3147   2.460   1.173   5.296  1.9784 -1.3743  2.7778
   27CHL1    C1 3148   2.427   1.406   5.451 -0.0581 -0.8112  0.2530
   27CHL1   H1A 3149   2.528   1.379   5.415 -0.1773  0.6009 -1.3002
   27CHL1   H1B 3150   2.415   1.517   5.452  0.3822 -0.7605  2.2218
   27CHL1    C2 3151   2.414   1.352   5.593 -0.1139 -0.4490 -0.0437
   27CHL1   H2A 3152   2.495   1.408   5.645  0.1705 -0.6205 -0.2972
   27CHL1   H2B 3153   2.445   1.245   5.605 -2.7710 -1.2268  0.5314
   27CHL1   C20 3154   2.340   1.394   4.650 -0.1377  0.4586 -0.8151
   27CHL1   H20 3155   2.315   1.286   4.645  1.6327  0.0299 -1.0763
   27CHL1   C21 3156   2.496   1.418   4.650  0.0631  0.0533 -0.2797
   27CHL1  H21A 3157   2.528   1.383   4.550 -2.2209  3.2813 -2.3543
   27CHL1  H21B 3158   2.553   1.365   4.730  0.4318 -1.9936 -1.8214
   27CHL1  H21C 3159   2.528   1.524   4.652  0.3475 -0.0378  0.1684
   27CHL1   C22 3160   2.291   1.464   4.526 -0.0598  0.5363 -0.1835
   27CHL1  H22A 3161   2.354   1.439   4.438  1.7414 -0.6369  1.3515
   27CHL1  H22B 3162   2.182   1.443   4.517  0.3827 -2.0591 -0.1554
   27CHL1   C23 3163   2.292   1.623   4.528 -0.5263 -0.0493  0.9662
   27CHL1  H23A 3164   2.222   1.653   4.609 -3.0264 -3.6211  0.3705
   27CHL1  H23B 3165   2.390   1.658   4.568 -0.2520  0.3000  0.0253
   27CHL1   C24 3166   2.256   1.680   4.392 -0.2996 -0.0435  0.0907
   27CHL1  H24A 3167   2.289   1.608   4.314  1.3377  1.2885 -0.5172
   27CHL1  H24B 3168   2.145   1.683   4.389 -0.2697  1.0696 -0.2400
   27CHL1   C25 3169   2.307   1.828   4.371 -0.0818  0.3197 -0.4353
   27CHL1   H25 3170   2.311   1.845   4.261  3.9274  0.3151 -0.4252
   27CHL1   C26 3171   2.214   1.935   4.439 -0.7921  0.0512 -0.3629
   27CHL1  H26A 3172   2.226   2.040   4.403 -2.5730  0.0342 -1.0805
   27CHL1  H26B 3173   2.109   1.903   4.427 -0.0238 -3.2767  0.7266
   27CHL1  H26C 3174   2.238   1.937   4.548 -1.1320 -0.1681 -0.2847
   27CHL1   C27 3175   2.454   1.848   4.416  0.9454  0.7128  0.0512
   27CHL1  H27A 3176   2.498   1.941   4.372  1.9709 -0.3028 -1.1660
   27CHL1  H27B 3177   2.520   1.763   4.387 -0.8926 -0.3730 -1.1157
   27CHL1  H27C 3178   2.465   1.844   4.526 -0.0937 -0.4759  0.1256
   28CHL1    C3 3179   2.317   0.488   5.748  0.2078 -0.3720 -0.1862
   28CHL1    H3 3180   2.212   0.466   5.775 -0.1756 -0.8986 -1.9748
   28CHL1    O3 3181   2.382   0.518   5.869 -0.4362 -0.1947 -0.0686
   28CHL1   H3' 3182   2.449   0.583   5.848 -0.0580 -0.6412 -0.2706
   28CHL1    C4 3183   2.379   0.367   5.673 -0.7415 -0.2713 -0.6999
   28CHL1   H4A 3184   2.485   0.391   5.650 -0.8418  0.2070 -0.6661
   28CHL1   H4B 3185   2.379   0.282   5.744  1.5820 -1.1951 -1.6771
   28CHL1    C5 3186   2.306   0.328   5.549  0.7110  0.5413 -0.6200
   28CHL1    C6 3187   2.252   0.204   5.541 -0.9245  0.2240  0.4350
   28CHL1    H6 3188   2.282   0.131   5.618  1.1436  1.2351  0.6393
   28CHL1    C7 3189   2.170   0.155   5.429 -0.2095  0.2944 -0.0072
   28CHL1   H7A 3190   2.209   0.052   5.412 -0.2266  0.3556 -0.4208
   28CHL1   H7B 3191   2.065   0.150   5.466 -0.1085  0.4232  0.2950
   28CHL1    C8 3192   2.171   0.254   5.305  0.1386  0.1914 -0.3199
   28CHL1    H8 3193   2.265   0.240   5.247 -0.4039  0.7001 -1.3519
   28CHL1   C14 3194   2.054   0.233   5.217 -0.8243 -0.3248  0.0360
   28CHL1   H14 3195   1.964   0.259   5.278 -0.5026 -2.2536  1.4108
   28CHL1   C15 3196   2.024   0.088   5.169 -0.3865 -0.3517 -0.2963
   28CHL1  H15A 3197   2.126   0.049   5.152  0.2006  1.2152 -0.5438
   28CHL1  H15B 3198   1.975   0.040   5.256  0.2018  1.0667  0.8513
   28CHL1   C16 3199   1.932   0.102   5.039  0.1795  0.0075  0.3063
   28CHL1  H16A 3200   1.985   0.064   4.949 -0.4811  2.2233 -1.1098
   28CHL1  H16B 3201   1.832   0.054   5.051 -0.5539  0.5283 -2.8419
   28CHL1   C17 3202   1.919   0.258   5.019 -0.0081  0.2418 -0.3531
   28CHL1   H17 3203   1.827   0.276   5.078 -0.5224 -1.5444 -0.5776
   28CHL1   C13 3204   2.044   0.317   5.088  0.5591 -0.4541  0.0737
   28CHL1   C18 3205   2.169   0.302   4.999 -0.0606 -0.0447  0.4189
   28CHL1  H18A 3206   2.260   0.334   5.054 -1.2303  1.1913  1.7321
   28CHL1  H18B 3207   2.184   0.197   4.967 -1.1744 -1.2102  3.4105
   28CHL1  H18C 3208   2.157   0.367   4.909  2.3818 -1.3353 -0.9502
   28CHL1   C12 3209   2.029   0.466   5.145  0.3674 -0.0062  0.0535
   28CHL1  H12A 3210   2.024   0.532   5.056 -1.6816 -0.3746 -0.1478
   28CHL1  H12B 3211   1.937   0.480   5.207 -0.2750 -0.4162 -0.7890
   28CHL1   C11 3212   2.147   0.504   5.236 -0.2963  0.6468 -0.3359
   28CHL1  H11A 3213   2.247   0.494   5.188 -0.5956 -1.7677 -0.5804
   28CHL1  H11B 3214   2.129   0.609   5.269 -0.2325 -0.0054  1.9384
   28CHL1    C9 3215   2.168   0.406   5.348  0.5551 -0.4123 -0.4627
   28CHL1    H9 3216   2.072   0.410   5.404 -0.5137  1.5352 -2.3090
   28CHL1   C10 3217   2.272   0.447   5.461  0.6376  0.3035  0.3453
   28CHL1   C19 3218   2.405   0.478   5.382 -0.6959  0.1436 -0.2021
   28CHL1  H19A 3219   2.398   0.569   5.318 -2.3156  1.5651  1.8477
   28CHL1  H19B 3220   2.479   0.499   5.463 -2.8488  0.3058  1.8145
   28CHL1  H19C 3221   2.439   0.395   5.316  1.9730  1.2622 -0.3601
   28CHL1    C1 3222   2.225   0.578   5.537  0.9184  0.5422 -0.0499
   28CHL1   H1A 3223   2.222   0.667   5.470 -0.3047  0.6297  0.0992
   28CHL1   H1B 3224   2.122   0.570   5.576  1.5014  1.8839  1.9230
   28CHL1    C2 3225   2.316   0.612   5.654  0.0286  0.0191 -0.5016
   28CHL1   H2A 3226   2.273   0.696   5.713  1.1743  0.3197 -0.0680
   28CHL1   H2B 3227   2.424   0.628   5.634  0.8153 -2.0632  1.6078
   28CHL1   C20 3228   1.875   0.307   4.883 -0.3125  0.3885  0.0086
   28CHL1   H20 3229   1.902   0.414   4.872  1.8187 -0.0055  0.9807
   28CHL1   C21 3230   1.717   0.304   4.891 -0.1165  0.4005  0.4826
   28CHL1  H21A 3231   1.689   0.210   4.942  2.4023 -0.3129  0.7169
   28CHL1  H21B 3232   1.677   0.299   4.787 -0.1648 -1.9977  0.5588
   28CHL1  H21C 3233   1.678   0.391   4.948  0.1544 -0.0056  1.2958
   28CHL1   C22 3234   1.935   0.220   4.763  0.0439 -0.4385  0.6502
   28CHL1  H22A 3235   2.040   0.186   4.775  0.1533 -0.8688 -1.2069
   28CHL1  H22B 3236   1.890   0.119   4.759  3.5372 -2.1975  1.5774
   28CHL1   C23 3237   1.909   0.287   4.625 -0.3212  0.6829  0.4007
   28CHL1  H23A 3238   1.901   0.203   4.553 -1.9767  1.1095  0.0490
   28CHL1  H23B 3239   1.804   0.320   4.608 -1.4502 -2.7029 -0.0225
   28CHL1   C24 3240   2.012   0.394   4.588 -0.4001 -0.0672 -0.2991
   28CHL1  H24A 3241   2.002   0.466   4.672  0.0934  1.5557 -1.5705
   28CHL1  H24B 3242   2.113   0.348   4.587 -0.0399  0.6867 -1.7150
   28CHL1   C25 3243   2.001   0.464   4.451  0.5990 -0.0325 -0.6533
   28CHL1   H25 3244   2.079   0.541   4.430 -1.4824  1.9088 -1.6873
   28CHL1   C26 3245   2.025   0.360   4.335  0.1947  0.2128  0.4256
   28CHL1  H26A 3246   1.939   0.289   4.331 -1.5868  2.2476  0.4751
   28CHL1  H26B 3247   2.037   0.415   4.239  2.4033 -4.2769 -2.1801
   28CHL1  H26C 3248   2.119   0.306   4.357 -0.1404 -0.0686  1.2096
   28CHL1   C27 3249   1.861   0.529   4.436  0.5428 -0.3479  0.2117
   28CHL1  H27A 3250   1.837   0.616   4.501  0.7837 -0.7347  0.8268
   28CHL1  H27B 3251   1.850   0.575   4.336  0.7722  0.5878  0.6083
   28CHL1  H27C 3252   1.789   0.444   4.445  0.3988 -0.3305 -0.6738
   29CHL1    C3 3253   3.141   2.461   6.122 -0.9043 -0.0766  0.0252
   29CHL1    H3 3254   3.249   2.477   6.141 -0.6891 -0.5485 -0.7583
   29CHL1    O3 3255   3.084   2.436   6.248  0.3791 -0.0797  0.4261
   29CHL1   H3' 3256   3.096   2.517   6.299  2.3246  0.7082 -1.1354
   29CHL1    C4 3257   3.076   2.582   6.067 -0.2622 -0.5804 -0.0391
   29CHL1   H4A 3258   2.967   2.569   6.080 -0.3070 -0.0584  0.1306
   29CHL1   H4B 3259   3.096   2.672   6.128  0.2930 -3.1973  4.0588
   29CHL1    C5 3260   3.114   2.605   5.920  0.1330 -0.7510 -0.2200
   29CHL1    C6 3261   3.166   2.721   5.877  0.2983 -0.5881 -0.0692
   29CHL1    H6 3262   3.190   2.797   5.953  2.1303  0.8197 -1.9437
   29CHL1    C7 3263   3.185   2.757   5.731  0.5821  0.0132  0.0159
   29CHL1   H7A 3264   3.131   2.849   5.700  1.6325  0.8002  0.4765
   29CHL1   H7B 3265   3.291   2.782   5.710  0.7775  0.0100  0.9945
   29CHL1    C8 3266   3.137   2.649   5.635  0.0495 -0.2911 -0.1502
   29CHL1    H8 3267   3.029   2.671   5.625  0.0585 -0.5877 -0.9797
   29CHL1   C14 3268   3.213   2.665   5.504  0.1858  0.0181  0.1256
   29CHL1   H14 3269   3.312   2.628   5.538 -0.4445  0.0987  2.1900
   29CHL1   C15 3270   3.236   2.802   5.448 -0.2892  0.1038 -0.1263
   29CHL1  H15A 3271   3.139   2.854   5.462 -0.1125 -0.0764  2.1320
   29CHL1  H15B 3272   3.314   2.856   5.507  1.1793 -2.5456  0.4871
   29CHL1   C16 3273   3.266   2.774   5.303 -0.0610 -0.4459  0.5345
   29CHL1  H16A 3274   3.183   2.805   5.237  0.6167 -1.2777 -0.7577
   29CHL1  H16B 3275   3.358   2.826   5.271 -0.1870  0.9111  2.2447
   29CHL1   C17 3276   3.261   2.620   5.286 -0.1470 -0.4360 -0.0132
   29CHL1   H17 3277   3.360   2.590   5.326 -0.0369 -0.2918 -0.1746
   29CHL1   C13 3278   3.159   2.577   5.388  0.1053  0.0417  0.1586
   29CHL1   C18 3279   3.020   2.626   5.339  0.7948  0.0614 -0.7847
   29CHL1  H18A 3280   3.001   2.734   5.320 -0.5401  0.4122  2.0100
   29CHL1  H18B 3281   2.989   2.566   5.251 -0.5330  0.4804 -0.6277
   29CHL1  H18C 3282   2.941   2.585   5.406 -0.0344  2.2815 -0.2997
   29CHL1   C12 3283   3.170   2.431   5.435 -0.1264 -0.4033  0.2250
   29CHL1  H12A 3284   3.129   2.369   5.352 -0.9633  0.8705 -0.3368
   29CHL1  H12B 3285   3.277   2.408   5.452 -0.2595 -1.6192 -0.4194
   29CHL1   C11 3286   3.095   2.414   5.569  0.0023 -0.3766  0.1495
   29CHL1  H11A 3287   2.988   2.441   5.562  0.0662 -0.3272 -0.6774
   29CHL1  H11B 3288   3.085   2.310   5.606  0.6639 -0.5285 -0.0748
   29CHL1    C9 3289   3.153   2.508   5.682  0.3902 -0.7073 -0.0010
   29CHL1    H9 3290   3.261   2.484   5.691  0.7624  0.9995  0.5299
   29CHL1   C10 3291   3.101   2.490   5.826  0.3753 -0.0005 -0.0720
   29CHL1   C19 3292   2.947   2.469   5.820  0.1180  0.1114 -0.5805
   29CHL1  H19A 3293   2.917   2.385   5.755 -1.5180  0.6433 -0.5733
   29CHL1  H19B 3294   2.924   2.437   5.924  2.7175 -0.0177  0.0279
   29CHL1  H19C 3295   2.893   2.561   5.788  0.5970  0.3830 -0.6137
   29CHL1    C1 3296   3.164   2.359   5.892  0.0586  0.0239  0.4857
   29CHL1   H1A 3297   3.149   2.279   5.816  2.3465 -1.1347  1.1727
   29CHL1   H1B 3298   3.274   2.377   5.897 -0.3478  2.6585  1.8643
   29CHL1    C2 3299   3.127   2.333   6.038  0.3281  0.0867  0.4254
   29CHL1   H2A 3300   3.190   2.244   6.061 -0.0232  0.3237  2.5150
   29CHL1   H2B 3301   3.022   2.301   6.052 -0.4517  1.4527 -1.8590
   29CHL1   C20 3302   3.250   2.557   5.146  0.1781  0.3482 -0.4067
   29CHL1   H20 3303   3.146   2.519   5.136  0.7592 -0.7619 -3.4025
   29CHL1   C21 3304   3.353   2.439   5.148  0.1735 -0.9454  0.1325
   29CHL1  H21A 3305   3.350   2.403   5.043 -0.0512  1.8700 -0.9182
   29CHL1  H21B 3306   3.323   2.361   5.221  1.2534 -2.5870 -1.0850
   29CHL1  H21C 3307   3.456   2.473   5.169  0.1666 -1.4264  0.9783
   29CHL1   C22 3308   3.264   2.647   5.026 -0.0082  0.6066 -0.1791
   29CHL1  H22A 3309   3.188   2.728   5.027 -1.3822 -0.5630 -2.2848
   29CHL1  H22B 3310   3.359   2.703   5.025 -0.2952  1.0949 -1.5767
   29CHL1   C23 3311   3.275   2.587   4.885 -0.1863  0.5809  0.0203
   29CHL1  H23A 3312   3.372   2.534   4.888 -0.9720 -0.8902  0.6276
   29CHL1  H23B 3313   3.192   2.513   4.871  0.6322 -0.2107 -0.8078
   29CHL1   C24 3314   3.266   2.685   4.765  0.5434 -0.3605  0.1561
   29CHL1  H24A 3315   3.168   2.735   4.780  0.8430  0.8841 -1.7099
   29CHL1  H24B 3316   3.351   2.757   4.760 -0.6481  1.0961  0.0824
   29CHL1   C25 3317   3.246   2.616   4.625  0.1320 -1.2360 -0.2151
   29CHL1   H25 3318   3.181   2.527   4.638 -1.8110  0.2176  0.4868
   29CHL1   C26 3319   3.169   2.709   4.534  0.3901 -0.2642 -0.3559
   29CHL1  H26A 3320   3.132   2.659   4.441  0.7274  0.8692 -1.1259
   29CHL1  H26B 3321   3.078   2.751   4.583 -0.2564 -0.7844 -1.0684
   29CHL1  H26C 3322   3.232   2.795   4.504 -0.2565 -0.4965 -2.6470
   29CHL1   C27 3323   3.380   2.569   4.565 -0.0019  0.6631 -0.3130
   29CHL1  H27A 3324   3.441   2.659   4.541  1.6835  0.2536  2.0526
   29CHL1  H27B 3325   3.449   2.503   4.622  1.7956  2.3087 -0.4880
   29CHL1  H27C 3326   3.365   2.521   4.466  0.8036  0.3113 -0.2762
   30CHL1    C3 3327   4.632   3.792   5.728 -0.0665  0.7689 -1.1134
   30CHL1    H3 3328   4.743   3.787   5.724 -0.1354 -2.8132 -2.6182
   30CHL1    O3 3329   4.597   3.791   5.865 -0.6515 -0.0978  0.3964
   30CHL1   H3' 3330   4.511   3.833   5.871 -1.3345 -1.1317 -1.5144
   30CHL1    C4 3331   4.595   3.928   5.678  0.2368  0.5757 -0.3913
   30CHL1   H4A 3332   4.486   3.938   5.692  0.1901 -1.1927  0.8146
   30CHL1   H4B 3333   4.635   4.012   5.740  0.3121  1.9502 -2.2372
   30CHL1    C5 3334   4.639   3.934   5.538  0.3956  0.1550 -0.7190
   30CHL1    C6 3335   4.731   4.029   5.503 -1.0296  0.4163  0.5768
   30CHL1    H6 3336   4.772   4.100   5.576 -0.2438  0.1791  0.3777
   30CHL1    C7 3337   4.779   4.048   5.360  0.3699  0.6052  0.3235
   30CHL1   H7A 3338   4.800   4.154   5.331  0.7348  1.1765  2.4693
   30CHL1   H7B 3339   4.876   3.994   5.353 -0.9000 -1.8505  0.6064
   30CHL1    C8 3340   4.685   3.970   5.260 -0.0622  0.5765  0.0684
   30CHL1    H8 3341   4.586   4.020   5.259 -0.9223 -1.0782 -0.1067
   30CHL1   C14 3342   4.752   3.966   5.130 -0.5419 -1.1526  0.3064
   30CHL1   H14 3343   4.852   3.919   5.135  0.4799  0.8843  0.1323
   30CHL1   C15 3344   4.783   4.103   5.069  0.1497  0.8337  0.0481
   30CHL1  H15A 3345   4.696   4.172   5.072 -0.2158  0.5621 -2.2569
   30CHL1  H15B 3346   4.868   4.152   5.122  2.8408 -0.0412 -3.1443
   30CHL1   C16 3347   4.834   4.067   4.928 -0.1648 -0.7366 -0.2337
   30CHL1  H16A 3348   4.799   4.145   4.856  0.5574 -1.9425 -1.9532
   30CHL1  H16B 3349   4.944   4.061   4.914  0.0443  0.8937  0.4218
   30CHL1   C17 3350   4.773   3.929   4.894 -0.2284  0.4632 -0.3419
   30CHL1   H17 3351   4.848   3.847   4.889 -0.0150  0.7370 -3.7701
   30CHL1   C13 3352   4.680   3.897   5.023 -0.0196  0.5707 -0.7185
   30CHL1   C18 3353   4.537   3.954   5.000 -0.2141 -0.1326 -0.4553
   30CHL1  H18A 3354   4.549   4.053   4.953  2.1641 -1.8048 -3.8368
   30CHL1  H18B 3355   4.483   3.894   4.924  0.8628 -1.3008 -0.3394
   30CHL1  H18C 3356   4.469   3.954   5.088 -1.5370  1.8340 -1.4141
   30CHL1   C12 3357   4.685   3.747   5.061 -0.6687  0.4509  0.0897
   30CHL1  H12A 3358   4.624   3.690   4.988 -0.8544  1.7616 -0.8107
   30CHL1  H12B 3359   4.782   3.691   5.067 -2.1705 -2.1816  2.2042
   30CHL1   C11 3360   4.614   3.724   5.201 -0.0475  0.1868  1.4214
   30CHL1  H11A 3361   4.506   3.738   5.181 -0.0353 -0.2685  1.0255
   30CHL1  H11B 3362   4.625   3.620   5.239  0.2068 -0.7449 -1.0386
   30CHL1    C9 3363   4.666   3.825   5.309  0.0092 -0.3332  0.0003
   30CHL1    H9 3364   4.767   3.788   5.339  0.4560 -1.3602 -2.5325
   30CHL1   C10 3365   4.582   3.829   5.447  0.1901  1.0478  0.5644
   30CHL1   C19 3366   4.440   3.864   5.421 -0.0471 -0.2845  0.0291
   30CHL1  H19A 3367   4.396   3.787   5.354  2.8311 -2.0966  0.0306
   30CHL1  H19B 3368   4.376   3.858   5.512  0.9490 -1.0572  0.7094
   30CHL1  H19C 3369   4.432   3.957   5.361  0.8691 -1.9336 -2.8166
   30CHL1    C1 3370   4.590   3.688   5.508  0.6880  0.1814  0.6138
   30CHL1   H1A 3371   4.529   3.627   5.437  1.1822 -0.4684  0.7388
   30CHL1   H1B 3372   4.694   3.651   5.503  0.9664  0.8448  1.3873
   30CHL1    C2 3373   4.558   3.676   5.660  0.4912  0.0238 -0.1801
   30CHL1   H2A 3374   4.581   3.579   5.709  0.2754 -0.3115 -0.7318
   30CHL1   H2B 3375   4.453   3.704   5.684  1.0607  1.6979  0.4826
   30CHL1   C20 3376   4.717   3.920   4.754  0.2824  0.0205  1.0150
   30CHL1   H20 3377   4.635   3.995   4.748  1.1821  0.9234 -0.6500
   30CHL1   C21 3378   4.654   3.783   4.727 -0.7130  0.2084 -0.1941
   30CHL1  H21A 3379   4.613   3.779   4.624  2.2480 -1.4319 -1.4311
   30CHL1  H21B 3380   4.581   3.750   4.804 -1.4196 -0.5512 -1.1696
   30CHL1  H21C 3381   4.725   3.699   4.719 -0.3314  0.6921 -2.3632
   30CHL1   C22 3382   4.813   3.966   4.643  0.2477 -1.4986 -0.0453
   30CHL1  H22A 3383   4.849   4.066   4.676 -0.0470  0.2698 -4.4085
   30CHL1  H22B 3384   4.901   3.899   4.634  0.2696 -1.4862  0.0696
   30CHL1   C23 3385   4.759   3.992   4.502 -0.2639 -0.1177  0.8217
   30CHL1  H23A 3386   4.836   4.020   4.428 -0.4330  0.8610  0.9939
   30CHL1  H23B 3387   4.718   3.898   4.460  0.4570 -0.2950  0.5156
   30CHL1   C24 3388   4.648   4.099   4.483 -0.3075 -0.1186  0.0663
   30CHL1  H24A 3389   4.568   4.085   4.559 -0.2090 -1.8198 -0.0950
   30CHL1  H24B 3390   4.694   4.199   4.497 -0.0090 -0.5053  2.0370
   30CHL1   C25 3391   4.572   4.109   4.351 -0.3120 -0.6615  0.1131
   30CHL1   H25 3392   4.531   4.212   4.340  1.9342  0.2355 -0.4552
   30CHL1   C26 3393   4.661   4.086   4.224 -0.0189 -0.0671 -0.6658
   30CHL1  H26A 3394   4.600   4.098   4.132 -2.0788 -3.1831  0.1420
   30CHL1  H26B 3395   4.734   4.170   4.222 -0.6222  0.5357  0.8497
   30CHL1  H26C 3396   4.717   3.990   4.230 -1.4037 -0.8847 -0.2336
   30CHL1   C27 3397   4.460   4.004   4.347 -0.9075  0.3649  0.1610
   30CHL1  H27A 3398   4.379   4.032   4.416 -1.8673  1.4396 -1.3305
   30CHL1  H27B 3399   4.417   4.000   4.244 -0.6760  1.6126  0.0068
   30CHL1  H27C 3400   4.509   3.905   4.360 -2.6525 -0.7856 -1.4556
   31CHL1    C3 3401   4.851   5.364   6.003  0.1112  0.3365 -0.5635
   31CHL1    H3 3402   4.925   5.286   5.974 -3.1587 -3.5751  0.6392
   31CHL1    O3 3403   4.872   5.376   6.141 -0.4440 -0.7351 -0.2472
   31CHL1   H3' 3404   4.895   5.287   6.171 -1.8578 -0.6414  1.2320
   31CHL1    C4 3405   4.872   5.501   5.937 -0.3495 -0.1411 -0.5844
   31CHL1   H4A 3406   4.802   5.574   5.985 -0.8620 -0.2609 -1.1447
   31CHL1   H4B 3407   4.965   5.546   5.981  0.0725 -0.5047 -1.0985
   31CHL1    C5 3408   4.848   5.508   5.788  0.4764  0.3003  0.3036
   31CHL1    C6 3409   4.932   5.559   5.697 -0.8004  0.6723  0.5420
   31CHL1    H6 3410   5.030   5.597   5.729 -1.1697  0.4949  1.9764
   31CHL1    C7 3411   4.902   5.570   5.554  0.0984 -0.5969 -0.3039
   31CHL1   H7A 3412   4.930   5.670   5.514  1.3550 -1.3150 -1.3027
   31CHL1   H7B 3413   4.954   5.496   5.490  0.7505 -0.4154  0.0023
   31CHL1    C8 3414   4.756   5.550   5.520  0.2388 -0.1749  0.4593
   31CHL1    H8 3415   4.707   5.649   5.529  1.5976  0.4789  0.9883
   31CHL1   C14 3416   4.741   5.521   5.368 -0.0431 -0.2550  0.1914
   31CHL1   H14 3417   4.790   5.424   5.345  0.9920  0.3367 -0.1324
   31CHL1   C15 3418   4.801   5.623   5.269  0.3758 -0.5934  0.6192
   31CHL1  H15A 3419   4.756   5.721   5.297 -0.4037 -0.3194 -1.4186
   31CHL1  H15B 3420   4.912   5.620   5.273  0.4395  1.1702  1.0163
   31CHL1   C16 3421   4.733   5.588   5.134  0.8399 -0.1004 -0.3358
   31CHL1  H16A 3422   4.691   5.685   5.100  0.1511 -0.1729  0.2734
   31CHL1  H16B 3423   4.804   5.552   5.057  0.0272 -0.3989 -0.9669
   31CHL1   C17 3424   4.624   5.486   5.172  0.0153 -0.1221 -0.8568
   31CHL1   H17 3425   4.665   5.385   5.148 -0.0861  0.2393 -2.6743
   31CHL1   C13 3426   4.598   5.498   5.330 -0.4960  0.6040 -0.0152
   31CHL1   C18 3427   4.497   5.612   5.361  0.1687  0.1471 -0.3374
   31CHL1  H18A 3428   4.514   5.700   5.296 -0.0052  0.7987  0.4868
   31CHL1  H18B 3429   4.392   5.579   5.345 -0.7618  2.7146  0.1223
   31CHL1  H18C 3430   4.500   5.646   5.466  0.6619  1.0431 -0.6351
   31CHL1   C12 3431   4.558   5.365   5.397 -0.0676 -0.3548  0.2998
   31CHL1  H12A 3432   4.450   5.339   5.385 -0.3288 -0.3754  2.4251
   31CHL1  H12B 3433   4.621   5.278   5.367 -0.0098 -0.1541 -0.1788
   31CHL1   C11 3434   4.564   5.395   5.548  0.4177  0.4708 -0.4870
   31CHL1  H11A 3435   4.490   5.473   5.574  0.6053  0.3497  0.4542
   31CHL1  H11B 3436   4.534   5.300   5.598  1.1072 -1.3316 -3.2972
   31CHL1    C9 3437   4.702   5.429   5.593 -0.7541 -0.4972  0.2968
   31CHL1    H9 3438   4.775   5.350   5.567 -0.0943  0.6667 -1.5772
   31CHL1   C10 3439   4.710   5.454   5.745 -0.1185  0.5529  0.2706
   31CHL1   C19 3440   4.599   5.554   5.783 -0.6565  0.2495 -0.3569
   31CHL1  H19A 3441   4.618   5.637   5.712  0.3705 -1.1237 -1.7501
   31CHL1  H19B 3442   4.501   5.505   5.761  0.1528 -1.1095 -1.0339
   31CHL1  H19C 3443   4.612   5.593   5.887  1.8650  1.2102 -0.9637
   31CHL1    C1 3444   4.681   5.320   5.826 -0.3640  0.2318  0.4310
   31CHL1   H1A 3445   4.577   5.285   5.815 -0.0238 -0.7517  0.2686
   31CHL1   H1B 3446   4.745   5.242   5.779 -1.8683  0.5591 -2.3873
   31CHL1    C2 3447   4.708   5.317   5.976 -0.3140 -0.2544 -0.0821
   31CHL1   H2A 3448   4.683   5.216   6.016  0.9449  0.4594  2.7932
   31CHL1   H2B 3449   4.633   5.387   6.017  0.9625 -0.0088  2.0027
   31CHL1   C20 3450   4.503   5.505   5.074  0.3497  0.3692 -0.2942
   31CHL1   H20 3451   4.462   5.608   5.082 -0.8926 -0.0749 -0.7502
   31CHL1   C21 3452   4.394   5.396   5.104 -0.1907 -0.0346 -0.5484
   31CHL1  H21A 3453   4.431   5.295   5.076  0.4953  0.3115 -0.9248
   31CHL1  H21B 3454   4.293   5.422   5.064 -1.1677  0.1649  1.8777
   31CHL1  H21C 3455   4.378   5.396   5.214 -0.0060 -0.7459 -0.5198
   31CHL1   C22 3456   4.551   5.500   4.923  0.0395 -0.5784  0.2077
   31CHL1  H22A 3457   4.616   5.586   4.896  0.5199 -1.4993 -1.7140
   31CHL1  H22B 3458   4.611   5.407   4.922  1.0538  0.0594 -0.6271
   31CHL1   C23 3459   4.449   5.479   4.815 -0.5521 -0.1629 -0.1405
   31CHL1  H23A 3460   4.394   5.383   4.827 -0.8435 -0.0940 -0.8759
   31CHL1  H23B 3461   4.375   5.562   4.817 -2.8128 -2.0972  0.6281
   31CHL1   C24 3462   4.511   5.475   4.673  0.3825 -0.0055  0.0460
   31CHL1  H24A 3463   4.574   5.564   4.655 -1.0355  0.8217 -1.0891
   31CHL1  H24B 3464   4.576   5.385   4.671 -1.0844 -1.1045  0.3415
   31CHL1   C25 3465   4.409   5.481   4.563 -0.4934 -1.0410  0.3827
   31CHL1   H25 3466   4.363   5.581   4.574 -0.2210 -0.7848 -0.7380
   31CHL1   C26 3467   4.474   5.467   4.425 -0.4931 -0.4669  0.3917
   31CHL1  H26A 3468   4.390   5.446   4.356  0.4499 -1.7151 -0.4314
   31CHL1  H26B 3469   4.535   5.554   4.395 -2.2282 -0.1475 -2.5896
   31CHL1  H26C 3470   4.538   5.375   4.420  1.2372  0.6619  0.7857
   31CHL1   C27 3471   4.314   5.367   4.588 -0.1897  0.9548 -0.2830
   31CHL1  H27A 3472   4.258   5.354   4.493  0.0136  1.7693 -0.5237
   31CHL1  H27B 3473   4.371   5.276   4.617 -0.8622  0.9463  1.0579
   31CHL1  H27C 3474   4.242   5.389   4.669 -3.6146 -0.4948 -2.6734
   32CHL1    C3 3475   4.515   2.957   5.944  0.5848 -0.4433 -0.9999
   32CHL1    H3 3476   4.537   3.057   5.901 -0.9978  0.1727 -0.4593
   32CHL1    O3 3477   4.497   2.990   6.082  0.5567 -0.1817  0.3563
   32CHL1   H3' 3478   4.586   3.001   6.116  0.5070 -0.0351  0.4402
   32CHL1    C4 3479   4.376   2.907   5.879 -0.5961 -0.1613 -0.5964
   32CHL1   H4A 3480   4.343   2.817   5.936  0.9893 -0.6727 -0.4174
   32CHL1   H4B 3481   4.305   2.991   5.894  0.1463  0.2186  1.0495
   32CHL1    C5 3482   4.395   2.878   5.729 -0.5381  0.0502  0.7293
   32CHL1    C6 3483   4.324   2.933   5.629 -0.2484  0.4496 -0.6630
   32CHL1    H6 3484   4.231   2.989   5.646 -0.8216  0.0166 -2.2564
   32CHL1    C7 3485   4.347   2.904   5.482  0.0663 -0.5484  0.1371
   32CHL1   H7A 3486   4.252   2.894   5.424 -1.6416  2.4466  2.1505
   32CHL1   H7B 3487   4.399   2.985   5.427  1.3258 -1.9969 -0.8785
   32CHL1    C8 3488   4.428   2.773   5.464 -0.1474  0.1921 -0.5434
   32CHL1    H8 3489   4.354   2.691   5.478  0.3458 -0.7060 -2.7399
   32CHL1   C14 3490   4.486   2.773   5.328  0.2897 -0.1190 -0.1455
   32CHL1   H14 3491   4.560   2.856   5.331 -1.8334  1.8753  0.5185
   32CHL1   C15 3492   4.394   2.812   5.214  0.5738  0.2914 -0.0699
   32CHL1  H15A 3493   4.297   2.757   5.217  0.2677  0.8711  0.9212
   32CHL1  H15B 3494   4.365   2.919   5.213 -0.5743  0.0248  1.0397
   32CHL1   C16 3495   4.473   2.769   5.087  0.0418  0.0019  0.2921
   32CHL1  H16A 3496   4.407   2.702   5.028  0.5103  1.4046 -1.9225
   32CHL1  H16B 3497   4.504   2.847   5.016  2.8710 -1.5407 -0.3119
   32CHL1   C17 3498   4.597   2.692   5.134 -0.3403 -0.5122 -0.0847
   32CHL1   H17 3499   4.677   2.768   5.145 -1.1805  0.3081  0.5377
   32CHL1   C13 3500   4.561   2.653   5.286 -1.1392 -1.0047  1.3436
   32CHL1   C18 3501   4.473   2.526   5.287 -0.0044 -0.1198  0.2404
   32CHL1  H18A 3502   4.532   2.432   5.279 -0.1188 -0.1172 -0.8251
   32CHL1  H18B 3503   4.405   2.510   5.373 -0.1581  0.2580  0.1932
   32CHL1  H18C 3504   4.414   2.514   5.194  1.9360 -2.9472 -0.7524
   32CHL1   C12 3505   4.675   2.636   5.380 -0.1747 -0.5780  0.1245
   32CHL1  H12A 3506   4.714   2.532   5.369  0.1237 -0.5625  0.9529
   32CHL1  H12B 3507   4.762   2.704   5.367  0.0859 -0.5239  1.8387
   32CHL1   C11 3508   4.632   2.644   5.531  0.5532  0.1680  0.6723
   32CHL1  H11A 3509   4.571   2.552   5.541 -0.8203  0.8842 -0.7414
   32CHL1  H11B 3510   4.720   2.651   5.600 -0.9244 -0.5336  2.7479
   32CHL1    C9 3511   4.544   2.756   5.565  0.1065 -0.3788 -0.3582
   32CHL1    H9 3512   4.610   2.843   5.544 -0.1403  0.2182  1.1647
   32CHL1   C10 3513   4.513   2.782   5.711 -0.4666  0.0402 -0.4601
   32CHL1   C19 3514   4.469   2.648   5.754 -0.1172 -0.1830  0.3254
   32CHL1  H19A 3515   4.545   2.567   5.748 -0.4695 -0.4964 -0.0276
   32CHL1  H19B 3516   4.443   2.652   5.862  0.2276 -2.1842  0.5240
   32CHL1  H19C 3517   4.380   2.616   5.696 -0.1976  0.4827  0.0724
   32CHL1    C1 3518   4.644   2.825   5.782  0.4742 -0.3195  0.3609
   32CHL1   H1A 3519   4.713   2.738   5.783 -0.1086 -0.8550 -1.6565
   32CHL1   H1B 3520   4.689   2.920   5.746 -2.0313  0.8972  0.2729
   32CHL1    C2 3521   4.620   2.855   5.929 -0.2073  0.2936 -0.6576
   32CHL1   H2A 3522   4.712   2.909   5.959 -0.5116  2.6651 -3.5470
   32CHL1   H2B 3523   4.599   2.759   5.981  0.6038  0.2294 -0.4375
   32CHL1   C20 3524   4.637   2.581   5.033  0.0418  0.4085  0.7307
   32CHL1   H20 3525   4.567   2.494   5.023  2.4003 -1.4585 -0.6350
   32CHL1   C21 3526   4.775   2.531   5.070  0.1419  0.0016  0.1022
   32CHL1  H21A 3527   4.853   2.609   5.051 -2.5215  2.8488  0.0991
   32CHL1  H21B 3528   4.805   2.440   5.014  1.4659  1.0460 -0.9672
   32CHL1  H21C 3529   4.792   2.514   5.179  0.0022  2.3327  0.5386
   32CHL1   C22 3530   4.640   2.617   4.882 -0.4802  0.4334  0.3505
   32CHL1  H22A 3531   4.539   2.649   4.848 -0.0791  1.2941 -0.0625
   32CHL1  H22B 3532   4.704   2.707   4.870 -1.8954  1.4096 -0.1859
   32CHL1   C23 3533   4.696   2.504   4.789 -0.1734 -0.7359 -0.2520
   32CHL1  H23A 3534   4.806   2.499   4.801 -0.3362 -0.6817  1.5244
   32CHL1  H23B 3535   4.634   2.417   4.822  1.0577 -0.8663  1.8796
   32CHL1   C24 3536   4.670   2.539   4.639 -0.5641 -0.7982 -0.0747
   32CHL1  H24A 3537   4.562   2.561   4.642 -0.7877 -1.8483  0.0171
   32CHL1  H24B 3538   4.728   2.629   4.609  0.6049 -1.3240  0.5152
   32CHL1   C25 3539   4.699   2.429   4.542  0.4906 -0.0867 -0.2611
   32CHL1   H25 3540   4.695   2.478   4.443  0.3000  2.8032  1.0924
   32CHL1   C26 3541   4.847   2.378   4.564 -0.0843  0.3156 -0.4323
   32CHL1  H26A 3542   4.881   2.297   4.496  0.9324  0.9500 -0.7027
   32CHL1  H26B 3543   4.923   2.458   4.549  0.9518 -0.7999 -1.4406
   32CHL1  H26C 3544   4.867   2.341   4.667 -1.8573 -0.1941 -0.2400
   32CHL1   C27 3545   4.601   2.312   4.551 -0.6644  0.0000  0.1674
   32CHL1  H27A 3546   4.634   2.227   4.488  0.4930 -2.0735  3.3312
   32CHL1  H27B 3547   4.595   2.267   4.652 -0.8323 -3.1485 -1.1297
   32CHL1  H27C 3548   4.499   2.341   4.519 -1.1266  1.0182  2.3398
   33CHL1    C3 3549   3.304   0.735   5.552  0.9134 -0.3499 -0.5124
   33CHL1    H3 3550   3.220   0.663   5.559 -1.1889  2.1363  2.7524
   33CHL1    O3 3551   3.342   0.769   5.685 -0.0196 -0.0609 -0.3154
   33CHL1   H3' 3552   3.349   0.688   5.738  0.8812  1.6847  2.4669
   33CHL1    C4 3553   3.428   0.671   5.483  0.0197 -0.3686  0.1487
   33CHL1   H4A 3554   3.515   0.737   5.504  0.9690 -1.8786  1.1993
   33CHL1   H4B 3555   3.453   0.578   5.538  0.0647 -0.2164  0.3866
   33CHL1    C5 3556   3.402   0.646   5.337 -0.3691 -0.6240  0.6145
   33CHL1    C6 3557   3.431   0.531   5.275 -0.4863  0.3967 -0.3514
   33CHL1    H6 3558   3.462   0.447   5.340 -0.8611  1.1125  0.7922
   33CHL1    C7 3559   3.435   0.505   5.127  1.1114 -0.0667 -0.2722
   33CHL1   H7A 3560   3.536   0.460   5.118  0.3378 -2.3358  1.3509
   33CHL1   H7B 3561   3.369   0.418   5.103  1.1180 -0.6428  1.6097
   33CHL1    C8 3562   3.412   0.632   5.038 -0.2786 -0.0819 -0.4166
   33CHL1    H8 3563   3.512   0.679   5.032 -0.2418 -0.2989 -1.9019
   33CHL1   C14 3564   3.365   0.598   4.898 -0.6023 -0.3343  0.1476
   33CHL1   H14 3565   3.261   0.560   4.902 -0.9906  0.2907 -2.4103
   33CHL1   C15 3566   3.434   0.494   4.807 -0.6398 -0.6907 -0.2712
   33CHL1  H15A 3567   3.542   0.521   4.802 -0.9437  0.7131  0.3250
   33CHL1  H15B 3568   3.424   0.391   4.847  0.1114 -0.1397  1.4266
   33CHL1   C16 3569   3.368   0.526   4.671 -0.5012  0.3110 -0.1340
   33CHL1  H16A 3570   3.448   0.530   4.594 -0.2440 -0.9718  0.0474
   33CHL1  H16B 3571   3.301   0.439   4.658 -1.2772  0.6282  1.5504
   33CHL1   C17 3572   3.294   0.657   4.678 -0.3232 -0.2813  0.3961
   33CHL1   H17 3573   3.192   0.626   4.709 -1.9170  2.8187 -1.2597
   33CHL1   C13 3574   3.344   0.727   4.812 -0.4438 -0.6323  0.6549
   33CHL1   C18 3575   3.481   0.791   4.788 -0.1111 -0.2855  0.6341
   33CHL1  H18A 3576   3.543   0.807   4.879 -0.9303 -0.3830  1.2174
   33CHL1  H18B 3577   3.551   0.731   4.726 -1.8619 -1.4741 -0.2573
   33CHL1  H18C 3578   3.469   0.894   4.748 -0.8551 -0.9615 -0.9693
   33CHL1   C12 3579   3.251   0.827   4.880  0.0747 -0.6537 -0.2368
   33CHL1  H12A 3580   3.256   0.921   4.821  0.1294 -1.3267 -1.3296
   33CHL1  H12B 3581   3.145   0.797   4.874 -0.2925 -0.1120  2.4285
   33CHL1   C11 3582   3.288   0.860   5.027 -0.1064  0.3018  0.2799
   33CHL1  H11A 3583   3.384   0.910   5.005  0.6308 -1.9426 -1.9825
   33CHL1  H11B 3584   3.210   0.927   5.069  0.3067  1.5186 -0.8606
   33CHL1    C9 3585   3.314   0.727   5.110  0.0997 -0.3478  0.4817
   33CHL1    H9 3586   3.221   0.666   5.113  2.0503 -3.5905  0.3653
   33CHL1   C10 3587   3.360   0.766   5.252  0.1087  0.5569 -0.4194
   33CHL1   C19 3588   3.460   0.880   5.248  0.2689 -0.3005  0.0141
   33CHL1  H19A 3589   3.413   0.974   5.211 -0.0998 -0.5789 -0.2305
   33CHL1  H19B 3590   3.506   0.888   5.349 -1.2947  0.7200  0.6909
   33CHL1  H19C 3591   3.543   0.851   5.180  0.5461 -0.2674  0.3381
   33CHL1    C1 3592   3.233   0.816   5.324 -0.1149  0.0243  0.5199
   33CHL1   H1A 3593   3.195   0.903   5.267  0.7054 -0.1694 -0.3399
   33CHL1   H1B 3594   3.142   0.752   5.325 -0.7432  0.8671  2.1117
   33CHL1    C2 3595   3.256   0.864   5.474 -0.4765  0.7919 -0.1735
   33CHL1   H2A 3596   3.154   0.896   5.505 -1.6143 -0.5674 -2.2897
   33CHL1   H2B 3597   3.329   0.947   5.467  0.1504  0.2832  0.1921
   33CHL1   C20 3598   3.293   0.727   4.544  0.2306 -0.7825 -0.2373
   33CHL1   H20 3599   3.396   0.747   4.507  0.4185 -0.8759  0.2240
   33CHL1   C21 3600   3.222   0.870   4.550  0.0315  0.3222  0.3473
   33CHL1  H21A 3601   3.121   0.865   4.596 -0.1171  2.6509  0.3963
   33CHL1  H21B 3602   3.221   0.908   4.446  3.7201 -0.9520 -0.2967
   33CHL1  H21C 3603   3.289   0.935   4.611  0.1262  0.0191  0.5696
   33CHL1   C22 3604   3.225   0.639   4.434 -0.0873  0.1945  0.5177
   33CHL1  H22A 3605   3.257   0.680   4.336 -0.0885  0.4922  0.6429
   33CHL1  H22B 3606   3.267   0.536   4.441 -1.1374 -0.2198  0.9335
   33CHL1   C23 3607   3.073   0.643   4.430 -0.7113  0.1941 -0.0164
   33CHL1  H23A 3608   3.042   0.611   4.532 -0.0426 -2.3927 -0.5474
   33CHL1  H23B 3609   3.038   0.742   4.394  0.0174  0.3469 -0.3133
   33CHL1   C24 3610   3.010   0.546   4.326 -0.0288  0.7032 -0.2425
   33CHL1  H24A 3611   3.027   0.591   4.226  0.4647 -1.2560 -1.1067
   33CHL1  H24B 3612   3.050   0.442   4.334 -1.5783  0.0795 -0.2540
   33CHL1   C25 3613   2.852   0.529   4.328 -0.5620 -0.2937  0.4396
   33CHL1   H25 3614   2.836   0.471   4.235  0.6426  1.2940 -0.8281
   33CHL1   C26 3615   2.798   0.442   4.446 -0.3456  1.4280 -0.2573
   33CHL1  H26A 3616   2.815   0.498   4.540 -1.4307 -2.0676  2.2151
   33CHL1  H26B 3617   2.692   0.422   4.420  0.5430 -1.3945 -2.0987
   33CHL1  H26C 3618   2.841   0.340   4.452 -1.5468  0.9791  3.3440
   33CHL1   C27 3619   2.777   0.656   4.317 -0.9437 -0.0690  0.3718
   33CHL1  H27A 3620   2.802   0.714   4.225 -2.7938  0.4911  0.1905
   33CHL1  H27B 3621   2.671   0.626   4.306 -0.3162 -1.9528 -1.3219
   33CHL1  H27C 3622   2.781   0.716   4.410 -1.0434  1.7780 -0.7528
   34CHL1    C3 3623   5.523   3.410   6.083  0.2589  0.0969  0.4525
   34CHL1    H3 3624   5.426   3.463   6.089  0.5270  0.4756  1.8143
   34CHL1    O3 3625   5.570   3.419   6.216  0.0489 -0.7721 -0.1155
   34CHL1   H3' 3626   5.622   3.339   6.216  1.7272  0.2672  0.8259
   34CHL1    C4 3627   5.497   3.269   6.047 -0.6282 -0.0576  0.1434
   34CHL1   H4A 3628   5.577   3.195   6.067 -0.4136 -0.1387 -0.9769
   34CHL1   H4B 3629   5.420   3.225   6.114  0.3193 -2.6766 -0.3788
   34CHL1    C5 3630   5.450   3.255   5.901 -0.1753 -0.4408  0.6277
   34CHL1    C6 3631   5.333   3.194   5.874 -0.2815  0.2381  1.1350
   34CHL1    H6 3632   5.280   3.134   5.949 -1.3640  0.5672  0.6508
   34CHL1    C7 3633   5.270   3.178   5.740 -0.8190  0.5599  0.4325
   34CHL1   H7A 3634   5.253   3.069   5.736  0.7048  0.1720  2.9558
   34CHL1   H7B 3635   5.170   3.226   5.730 -1.5948 -0.8230  1.2767
   34CHL1    C8 3636   5.368   3.228   5.631 -0.0206  0.0496 -0.7430
   34CHL1    H8 3637   5.435   3.142   5.609  0.8806  0.3113  0.8693
   34CHL1   C14 3638   5.293   3.264   5.496  0.1149  0.5204  0.6697
   34CHL1   H14 3639   5.235   3.357   5.511 -2.5173 -1.0230  0.7611
   34CHL1   C15 3640   5.198   3.166   5.437  0.0321 -0.4159  0.2342
   34CHL1  H15A 3641   5.256   3.071   5.443  2.5952  0.9773 -0.7201
   34CHL1  H15B 3642   5.099   3.152   5.484 -1.0299 -0.2101 -1.8467
   34CHL1   C16 3643   5.182   3.212   5.291 -0.8152 -0.5452 -0.5028
   34CHL1  H16A 3644   5.215   3.119   5.240  1.8369 -1.5004  2.5681
   34CHL1  H16B 3645   5.083   3.244   5.254  0.8994  2.2930 -3.0918
   34CHL1   C17 3646   5.285   3.322   5.272  0.1608 -0.0368  0.4558
   34CHL1   H17 3647   5.232   3.415   5.301 -1.4774 -1.1528  1.1496
   34CHL1   C13 3648   5.388   3.297   5.382  0.6734  0.4982 -0.5573
   34CHL1   C18 3649   5.482   3.185   5.338  0.3254 -1.1923  0.4741
   34CHL1  H18A 3650   5.437   3.104   5.277 -1.7281  0.0322  0.2800
   34CHL1  H18B 3651   5.557   3.228   5.268 -2.2840  0.3213 -1.5824
   34CHL1  H18C 3652   5.540   3.144   5.424  0.0073 -0.6248  0.9685
   34CHL1   C12 3653   5.466   3.419   5.429  1.0193 -0.5245 -0.2182
   34CHL1  H12A 3654   5.529   3.453   5.344  1.3539 -1.5365 -0.3981
   34CHL1  H12B 3655   5.393   3.498   5.455  0.6636 -0.6851 -0.7164
   34CHL1   C11 3656   5.553   3.385   5.549 -0.2857 -0.0433  0.1441
   34CHL1  H11A 3657   5.613   3.295   5.527 -0.7356 -0.2642 -0.1893
   34CHL1  H11B 3658   5.618   3.473   5.571 -2.2313  1.1971  1.2159
   34CHL1    C9 3659   5.462   3.340   5.669 -0.3933 -0.5633 -0.2451
   34CHL1    H9 3660   5.389   3.420   5.693 -1.6085 -1.1867 -1.6936
   34CHL1   C10 3661   5.539   3.325   5.799  0.2451 -0.1041  0.0962
   34CHL1   C19 3662   5.660   3.230   5.779 -0.1088 -0.2798  0.0484
   34CHL1  H19A 3663   5.635   3.125   5.750 -0.6390  0.0765 -0.8415
   34CHL1  H19B 3664   5.737   3.273   5.712  0.2999  1.6501  1.6687
   34CHL1  H19C 3665   5.714   3.225   5.876  2.8534  0.5452 -1.4387
   34CHL1    C1 3666   5.583   3.471   5.848  0.0776 -0.3746  0.7675
   34CHL1   H1A 3667   5.665   3.504   5.781 -1.1116 -1.1860 -1.1876
   34CHL1   H1B 3668   5.494   3.536   5.836  0.6330  0.2959  0.1452
   34CHL1    C2 3669   5.627   3.469   5.991  0.8032  0.1926 -0.1958
   34CHL1   H2A 3670   5.630   3.578   6.012  3.0417  0.6955 -2.6080
   34CHL1   H2B 3671   5.726   3.420   6.003  0.7665  0.4053  1.2128
   34CHL1   C20 3672   5.342   3.325   5.130 -0.5229 -0.4133  0.7431
   34CHL1   H20 3673   5.394   3.228   5.112 -0.3622 -0.2979  0.5710
   34CHL1   C21 3674   5.438   3.449   5.110  0.0928 -0.3512 -0.3509
   34CHL1  H21A 3675   5.455   3.466   5.002 -1.2518  1.2426 -0.3548
   34CHL1  H21B 3676   5.535   3.431   5.160 -0.4013  0.5276  0.9763
   34CHL1  H21C 3677   5.395   3.539   5.160  2.9011  2.2372 -2.2054
   34CHL1   C22 3678   5.226   3.328   5.022 -0.2802 -0.1448  0.5802
   34CHL1  H22A 3679   5.170   3.234   5.038 -1.3132  0.4398  0.5021
   34CHL1  H22B 3680   5.170   3.421   5.048 -0.7505 -0.0606 -0.6555
   34CHL1   C23 3681   5.267   3.339   4.873 -0.8924 -0.5034 -0.6515
   34CHL1  H23A 3682   5.326   3.433   4.861  0.0241 -1.2323 -2.1959
   34CHL1  H23B 3683   5.330   3.252   4.843 -2.3791 -1.4062 -1.2503
   34CHL1   C24 3684   5.146   3.340   4.793 -0.0799  0.8323 -0.6393
   34CHL1  H24A 3685   5.101   3.239   4.779  0.4881  0.6362 -1.1033
   34CHL1  H24B 3686   5.069   3.408   4.836 -0.1592  0.8015 -0.7321
   34CHL1   C25 3687   5.166   3.395   4.650  0.1276 -0.1292  0.2157
   34CHL1   H25 3688   5.186   3.503   4.670  1.5186 -0.2140 -0.5971
   34CHL1   C26 3689   5.265   3.330   4.555  0.1846 -0.3431  0.4915
   34CHL1  H26A 3690   5.244   3.359   4.450  2.4826 -0.1738  0.0177
   34CHL1  H26B 3691   5.367   3.369   4.578 -0.2123  0.3588  1.1106
   34CHL1  H26C 3692   5.257   3.220   4.543 -1.9168 -0.0923 -0.8348
   34CHL1   C27 3693   5.028   3.391   4.583  0.0827  0.0797  1.0000
   34CHL1  H27A 3694   4.989   3.287   4.570  1.4823 -0.5081  1.3179
   34CHL1  H27B 3695   4.957   3.449   4.646  0.8013  0.4550  1.4660
   34CHL1  H27C 3696   5.030   3.422   4.476 -3.9858 -3.4279 -0.4262
   35CHL1    C3 3697   5.646   2.104   3.527  0.4710 -0.4319  0.3854
   35CHL1    H3 3698   5.663   1.994   3.519 -0.0633 -0.5040  0.2064
   35CHL1    O3 3699   5.666   2.141   3.660 -0.4771  0.1226  0.2079
   35CHL1   H3' 3700   5.623   2.226   3.667  1.2610  1.0082  0.5034
   35CHL1    C4 3701   5.744   2.178   3.446  0.3645 -0.6606  0.0016
   35CHL1   H4A 3702   5.720   2.287   3.449  2.0331 -0.0322 -3.6784
   35CHL1   H4B 3703   5.841   2.184   3.501  0.7074  2.5513 -0.7120
   35CHL1    C5 3704   5.745   2.151   3.300 -0.0227  0.9665 -0.3789
   35CHL1    C6 3705   5.843   2.075   3.240 -0.1986 -0.7424 -0.1129
   35CHL1    H6 3706   5.928   2.043   3.301  1.0447  1.4206 -0.6177
   35CHL1    C7 3707   5.839   2.049   3.090 -0.2818  0.0051 -0.6549
   35CHL1   H7A 3708   5.936   2.082   3.047 -0.9655 -0.4690 -2.6855
   35CHL1   H7B 3709   5.818   1.943   3.065 -0.3523  0.2105 -1.4732
   35CHL1    C8 3710   5.728   2.129   3.016  0.2161  0.0011 -0.4629
   35CHL1    H8 3711   5.760   2.235   3.004 -0.9673  0.1359 -2.9655
   35CHL1   C14 3712   5.706   2.065   2.878 -0.1988  0.4478  0.3396
   35CHL1   H14 3713   5.676   1.960   2.897  0.1766  0.6990  2.6230
   35CHL1   C15 3714   5.834   2.050   2.791 -0.6957  0.3851 -0.1320
   35CHL1  H15A 3715   5.898   2.140   2.784  0.7217 -0.6542 -1.1739
   35CHL1  H15B 3716   5.901   1.964   2.812  1.4012  1.7851 -0.7806
   35CHL1   C16 3717   5.768   2.024   2.651 -0.3519  0.4801 -0.2381
   35CHL1  H16A 3718   5.806   2.098   2.578  3.4473 -0.4826  0.5291
   35CHL1  H16B 3719   5.794   1.926   2.605  0.9538  0.4457  0.5006
   35CHL1   C17 3720   5.613   2.038   2.666 -0.1093  0.0934 -0.0854
   35CHL1   H17 3721   5.577   1.937   2.695  0.7232  0.1329  1.1375
   35CHL1   C13 3722   5.595   2.126   2.791 -0.1124  0.0861 -0.3674
   35CHL1   C18 3723   5.629   2.280   2.766  0.4875 -0.2507  0.0537
   35CHL1  H18A 3724   5.711   2.294   2.692 -0.7497 -0.5704 -1.4158
   35CHL1  H18B 3725   5.532   2.306   2.720 -0.8077 -2.3674  1.3925
   35CHL1  H18C 3726   5.643   2.339   2.858  1.5402 -0.5375  0.0908
   35CHL1   C12 3727   5.463   2.107   2.881 -0.8068 -0.0950  0.1922
   35CHL1  H12A 3728   5.374   2.136   2.822 -1.1500 -1.4399  0.0105
   35CHL1  H12B 3729   5.447   1.998   2.897  2.1761 -1.0299 -2.1943
   35CHL1   C11 3730   5.473   2.171   3.014  0.1482  1.0460  0.0645
   35CHL1  H11A 3731   5.454   2.280   3.010 -1.2079  0.7942 -0.7816
   35CHL1  H11B 3732   5.377   2.143   3.062  0.5636 -1.6312 -0.4861
   35CHL1    C9 3733   5.596   2.125   3.097  0.6797 -0.0435  0.8194
   35CHL1    H9 3734   5.581   2.018   3.126 -1.9879  0.1557  0.4829
   35CHL1   C10 3735   5.603   2.189   3.243 -0.5818 -0.0210  0.6736
   35CHL1   C19 3736   5.579   2.346   3.224 -0.2761 -0.3216  1.0378
   35CHL1  H19A 3737   5.598   2.403   3.318 -0.2613  1.0337  0.2413
   35CHL1  H19B 3738   5.636   2.385   3.137 -0.1435 -2.1401  0.2788
   35CHL1  H19C 3739   5.473   2.370   3.200  0.1138  0.2792 -0.1551
   35CHL1    C1 3740   5.486   2.122   3.329  0.0546  0.3276  0.5787
   35CHL1   H1A 3741   5.384   2.154   3.296 -0.0359 -1.9050 -1.6551
   35CHL1   H1B 3742   5.479   2.015   3.299  0.9857 -0.3488  2.6441
   35CHL1    C2 3743   5.504   2.139   3.481  0.3731  0.6213  0.4009
   35CHL1   H2A 3744   5.437   2.073   3.540  0.6472 -0.1722 -0.1530
   35CHL1   H2B 3745   5.483   2.245   3.506 -2.6492 -0.1355  1.4698
   35CHL1   C20 3746   5.553   2.078   2.522  0.1160  0.2802 -0.2687
   35CHL1   H20 3747   5.586   2.179   2.490 -1.8451  1.0070 -0.1198
   35CHL1   C21 3748   5.404   2.100   2.548 -0.4165 -0.6555  0.4219
   35CHL1  H21A 3749   5.400   2.189   2.615  2.1654 -0.8445  0.9580
   35CHL1  H21B 3750   5.364   2.020   2.613  1.8995 -1.2173  1.2539
   35CHL1  H21C 3751   5.343   2.124   2.459 -0.1063 -0.7752  0.1738
   35CHL1   C22 3752   5.578   1.973   2.415  0.0966  0.9073  0.3897
   35CHL1  H22A 3753   5.688   1.966   2.398 -0.2059 -2.1585 -0.7945
   35CHL1  H22B 3754   5.564   1.869   2.452  0.6370  0.5082 -0.4993
   35CHL1   C23 3755   5.515   2.017   2.276  0.9097  0.1034  1.0181
   35CHL1  H23A 3756   5.512   1.925   2.214 -1.7419  1.5963 -1.2843
   35CHL1  H23B 3757   5.407   2.031   2.298  0.7837 -1.5969  1.6489
   35CHL1   C24 3758   5.588   2.122   2.198  0.2515  0.2470  0.2895
   35CHL1  H24A 3759   5.554   2.222   2.233  0.0803 -0.1578  1.2939
   35CHL1  H24B 3760   5.694   2.116   2.230 -0.1997  1.0452  2.0374
   35CHL1   C25 3761   5.586   2.104   2.044  0.0189  0.6070 -0.6705
   35CHL1   H25 3762   5.630   2.004   2.028 -2.6248 -0.8052  0.2957
   35CHL1   C26 3763   5.447   2.100   1.979 -0.8338 -0.0345  0.5216
   35CHL1  H26A 3764   5.372   2.042   2.037 -1.5001  0.8445  0.5549
   35CHL1  H26B 3765   5.400   2.201   1.974  0.8360  0.7355 -1.0992
   35CHL1  H26C 3766   5.453   2.070   1.872 -1.1533 -0.1967  0.5496
   35CHL1   C27 3767   5.668   2.195   1.951  0.7103  0.3786  0.1037
   35CHL1  H27A 3768   5.658   2.174   1.842  2.2311 -0.9014  0.1794
   35CHL1  H27B 3769   5.634   2.300   1.952 -0.1996  0.0882  1.4574
   35CHL1  H27C 3770   5.777   2.192   1.970  0.3965 -2.9091  2.1875
   36CHL1    C3 3771   2.264   2.413   5.945  0.1244 -0.2879  0.5772
   36CHL1    H3 3772   2.170   2.374   5.901  0.7684 -1.2755  0.0384
   36CHL1    O3 3773   2.258   2.390   6.086 -0.2593  0.0435  0.1236
   36CHL1   H3' 3774   2.193   2.454   6.116 -0.3782 -0.8456  1.8959
   36CHL1    C4 3775   2.387   2.341   5.887 -0.4620  0.4595  0.3805
   36CHL1   H4A 3776   2.477   2.368   5.947 -0.0119  1.1722 -0.5865
   36CHL1   H4B 3777   2.368   2.233   5.907  0.6059  0.2325  0.2387
   36CHL1    C5 3778   2.416   2.365   5.739 -0.1943 -0.5169 -0.5775
   36CHL1    C6 3779   2.426   2.269   5.648 -1.0185  0.3891 -0.2528
   36CHL1    H6 3780   2.412   2.163   5.673  0.0913  0.9311  3.2045
   36CHL1    C7 3781   2.454   2.286   5.502 -0.7302  0.2627 -0.0294
   36CHL1   H7A 3782   2.531   2.211   5.473 -0.9696  0.1367 -0.3342
   36CHL1   H7B 3783   2.359   2.259   5.451 -0.8836  1.1688 -0.2351
   36CHL1    C8 3784   2.490   2.436   5.464 -0.3431  0.2283  0.3420
   36CHL1    H8 3785   2.595   2.450   5.498  0.3689  1.5166 -2.1703
   36CHL1   C14 3786   2.465   2.463   5.317  0.2133  0.1032 -0.4700
   36CHL1   H14 3787   2.358   2.437   5.309  0.0267  0.5367  0.4615
   36CHL1   C15 3788   2.533   2.376   5.221 -0.4264  1.2543  0.7337
   36CHL1  H15A 3789   2.642   2.374   5.244  0.3078  0.0315 -2.4015
   36CHL1  H15B 3790   2.500   2.271   5.209  1.0364  1.0725 -3.3402
   36CHL1   C16 3791   2.512   2.448   5.083  0.5591  0.1277 -0.1949
   36CHL1  H16A 3792   2.618   2.464   5.053  0.5815  0.3266 -0.0119
   36CHL1  H16B 3793   2.444   2.404   5.007  1.6356 -0.1275 -1.0430
   36CHL1   C17 3794   2.462   2.593   5.121  0.1724 -0.8427 -0.1275
   36CHL1   H17 3795   2.352   2.593   5.107  0.0382 -2.5810  0.6343
   36CHL1   C13 3796   2.495   2.606   5.270 -0.2261 -0.6385 -0.5032
   36CHL1   C18 3797   2.644   2.632   5.280  0.5370  0.1229 -0.3439
   36CHL1  H18A 3798   2.672   2.737   5.255 -0.0444  0.3697  0.0126
   36CHL1  H18B 3799   2.678   2.616   5.384  1.7949 -1.0112 -0.9060
   36CHL1  H18C 3800   2.708   2.569   5.213  0.7201 -0.1696  0.1038
   36CHL1   C12 3801   2.405   2.699   5.352  0.2739  0.0810 -0.2610
   36CHL1  H12A 3802   2.420   2.806   5.328 -1.5180  0.3529 -0.3204
   36CHL1  H12B 3803   2.298   2.672   5.335  0.7743 -2.9025  0.7178
   36CHL1   C11 3804   2.433   2.685   5.502 -0.2525  0.9947  0.3391
   36CHL1  H11A 3805   2.538   2.716   5.525 -0.5643  1.9780  0.4624
   36CHL1  H11B 3806   2.370   2.761   5.552 -1.3109 -0.1310  0.7542
   36CHL1    C9 3807   2.405   2.535   5.547 -0.2575  0.1052 -0.5305
   36CHL1    H9 3808   2.299   2.515   5.518 -0.8246 -2.0535  2.6042
   36CHL1   C10 3809   2.417   2.516   5.704  0.3607 -0.0219  0.0269
   36CHL1   C19 3810   2.551   2.570   5.752 -0.5783  0.0163 -0.5071
   36CHL1  H19A 3811   2.549   2.681   5.740  0.8127  0.1729  0.4256
   36CHL1  H19B 3812   2.561   2.557   5.861 -2.0885 -1.2026 -0.4899
   36CHL1  H19C 3813   2.641   2.531   5.700 -0.2927 -0.5336  0.3850
   36CHL1    C1 3814   2.288   2.579   5.762  0.2027 -0.4236 -0.0830
   36CHL1   H1A 3815   2.285   2.686   5.735  0.2523 -0.7425 -1.4317
   36CHL1   H1B 3816   2.196   2.526   5.728  0.3935 -1.2455  0.6556
   36CHL1    C2 3817   2.273   2.563   5.913 -0.1298 -0.2562  0.5127
   36CHL1   H2A 3818   2.184   2.625   5.938 -0.1212  0.2565 -0.6611
   36CHL1   H2B 3819   2.364   2.606   5.961 -0.1845  2.1457 -1.3449
   36CHL1   C20 3820   2.521   2.698   5.026 -1.0617 -0.0761  0.6535
   36CHL1   H20 3821   2.631   2.699   5.036 -0.7561  0.1529 -2.1763
   36CHL1   C21 3822   2.468   2.836   5.055 -0.0720  0.4329  0.0140
   36CHL1  H21A 3823   2.501   2.913   4.982  2.0898 -0.8843 -0.5043
   36CHL1  H21B 3824   2.503   2.878   5.152 -1.3660  1.1669  0.1776
   36CHL1  H21C 3825   2.357   2.828   5.063 -0.0096 -1.3866 -0.4713
   36CHL1   C22 3826   2.491   2.675   4.874  0.6782  0.3920 -0.0845
   36CHL1  H22A 3827   2.506   2.566   4.859  2.1838  0.6021 -0.2754
   36CHL1  H22B 3828   2.389   2.710   4.850 -0.3833 -1.5054  1.3002
   36CHL1   C23 3829   2.593   2.745   4.782 -0.7489  0.1133 -0.0259
   36CHL1  H23A 3830   2.589   2.855   4.794  0.1570  0.2032 -0.4457
   36CHL1  H23B 3831   2.698   2.722   4.809 -0.8651 -1.6347 -0.9213
   36CHL1   C24 3832   2.566   2.702   4.634 -0.1312 -0.0868  0.5060
   36CHL1  H24A 3833   2.540   2.594   4.634  1.4567 -0.4947 -0.9003
   36CHL1  H24B 3834   2.481   2.762   4.595 -0.1728  0.3283  1.2104
   36CHL1   C25 3835   2.683   2.727   4.536  0.1510  0.3197 -0.4155
   36CHL1   H25 3836   2.657   2.691   4.434 -0.4856  0.5441 -0.3363
   36CHL1   C26 3837   2.731   2.878   4.522  1.1896  0.0888  0.1477
   36CHL1  H26A 3838   2.648   2.943   4.487  1.5517  0.8611  0.7042
   36CHL1  H26B 3839   2.775   2.912   4.618  3.3030 -0.6760 -0.4919
   36CHL1  H26C 3840   2.811   2.885   4.445  0.2737  2.9928 -0.6704
   36CHL1   C27 3841   2.805   2.648   4.574  0.1732 -0.8882  0.0632
   36CHL1  H27A 3842   2.785   2.542   4.604 -2.4830 -1.1072 -2.1282
   36CHL1  H27B 3843   2.869   2.657   4.483 -0.6959 -0.3738 -0.5021
   36CHL1  H27C 3844   2.858   2.695   4.660 -1.0099  0.5140  0.0567
   37CHL1    C3 3845   3.673   0.571   5.976  0.1719 -0.6065 -0.0798
   37CHL1    H3 3846   3.578   0.523   5.943  1.0791 -0.7615 -2.7388
   37CHL1    O3 3847   3.680   0.600   6.116 -0.0762 -0.4225 -0.4287
   37CHL1   H3' 3848   3.733   0.532   6.157  2.4028  2.1217  0.9343
   37CHL1    C4 3849   3.779   0.474   5.918 -0.7921 -0.4555 -0.3163
   37CHL1   H4A 3850   3.876   0.499   5.965 -0.3911 -1.7827 -0.3810
   37CHL1   H4B 3851   3.757   0.373   5.958 -0.0416 -0.5674 -0.1657
   37CHL1    C5 3852   3.797   0.460   5.769  0.1900 -0.3905 -0.9155
   37CHL1    C6 3853   3.776   0.349   5.697  0.1350  0.1682 -0.4098
   37CHL1    H6 3854   3.742   0.260   5.751  0.5057  0.0630 -0.3487
   37CHL1    C7 3855   3.795   0.349   5.545 -0.4074  0.3309  0.5386
   37CHL1   H7A 3856   3.857   0.264   5.508 -3.0638 -1.8235  0.7276
   37CHL1   H7B 3857   3.697   0.325   5.498 -0.4189  1.8393 -0.2745
   37CHL1    C8 3858   3.856   0.481   5.489  0.4572  0.7121  1.1611
   37CHL1    H8 3859   3.966   0.479   5.507  1.2327  0.5275 -2.6232
   37CHL1   C14 3860   3.841   0.483   5.339 -0.2737 -0.1920  0.2765
   37CHL1   H14 3861   3.732   0.474   5.323 -0.6852  3.1282  0.4819
   37CHL1   C15 3862   3.918   0.378   5.261 -0.4591  0.0979  0.3586
   37CHL1  H15A 3863   4.022   0.372   5.299  0.6495 -1.0864 -2.6188
   37CHL1  H15B 3864   3.879   0.275   5.247 -0.5213  0.1829 -0.0866
   37CHL1   C16 3865   3.910   0.431   5.115 -0.2743 -0.3082  0.0702
   37CHL1  H16A 3866   4.016   0.431   5.082 -1.0984  2.9108 -3.1234
   37CHL1  H16B 3867   3.849   0.371   5.045  0.7395 -1.0829 -0.1832
   37CHL1   C17 3868   3.864   0.578   5.117  0.1706 -0.1222 -0.0588
   37CHL1   H17 3869   3.754   0.577   5.106  0.1865 -5.3584 -2.5801
   37CHL1   C13 3870   3.878   0.613   5.266 -0.2509 -0.1643  0.0879
   37CHL1   C18 3871   4.028   0.654   5.295  0.1862  0.1625  0.9243
   37CHL1  H18A 3872   4.028   0.764   5.275  0.1686 -0.1625 -1.1029
   37CHL1  H18B 3873   4.058   0.634   5.400  0.4165 -0.3174  0.7687
   37CHL1  H18C 3874   4.102   0.617   5.221 -1.1784  2.3337 -1.7352
   37CHL1   C12 3875   3.783   0.720   5.325 -0.2182  0.1091 -0.0450
   37CHL1  H12A 3876   3.810   0.825   5.298  1.4769 -0.2867 -0.0113
   37CHL1  H12B 3877   3.679   0.706   5.288  0.8102 -3.5656 -2.0495
   37CHL1   C11 3878   3.791   0.733   5.482  0.1939 -0.2144 -0.1263
   37CHL1  H11A 3879   3.888   0.782   5.504 -1.0966  2.6745 -0.4495
   37CHL1  H11B 3880   3.713   0.808   5.509 -0.0828  0.2935 -2.1548
   37CHL1    C9 3881   3.781   0.598   5.554 -0.0732 -0.1239 -0.5951
   37CHL1    H9 3882   3.676   0.570   5.531 -0.2383  0.4612 -0.5671
   37CHL1   C10 3883   3.808   0.601   5.703  0.3091  0.0355 -0.7806
   37CHL1   C19 3884   3.941   0.663   5.738  0.4323 -0.3524 -0.3230
   37CHL1  H19A 3885   4.015   0.626   5.664 -0.1269 -0.6451 -0.7454
   37CHL1  H19B 3886   3.921   0.769   5.714 -0.0385 -0.4037 -0.1783
   37CHL1  H19C 3887   3.982   0.666   5.841  2.2324  1.7100 -1.0333
   37CHL1    C1 3888   3.695   0.689   5.766  0.1767 -0.8055  0.4751
   37CHL1   H1A 3889   3.700   0.793   5.729 -1.3624 -0.7384  0.3737
   37CHL1   H1B 3890   3.588   0.669   5.741 -0.5824  0.5643  2.3325
   37CHL1    C2 3891   3.690   0.704   5.917  0.1822  0.2204  0.7310
   37CHL1   H2A 3892   3.607   0.776   5.936  0.6052  0.7822  0.4736
   37CHL1   H2B 3893   3.781   0.751   5.958  0.4513 -1.1565  1.8145
   37CHL1   C20 3894   3.939   0.666   5.017 -0.2127 -0.5752 -1.1967
   37CHL1   H20 3895   4.046   0.679   5.044 -0.3240 -0.8213 -0.6116
   37CHL1   C21 3896   3.880   0.805   4.997  0.3644 -0.1575  0.1090
   37CHL1  H21A 3897   3.781   0.794   4.949 -0.2683  0.6609  1.1824
   37CHL1  H21B 3898   3.945   0.879   4.945 -1.4601  0.8868 -0.7817
   37CHL1  H21C 3899   3.861   0.849   5.097 -0.5707  2.1598 -1.0287
   37CHL1   C22 3900   3.945   0.603   4.875 -0.0370  0.1312  0.5127
   37CHL1  H22A 3901   3.986   0.682   4.808  3.5115 -1.3463  0.7134
   37CHL1  H22B 3902   4.012   0.514   4.871 -0.6985 -0.3550 -0.6412
   37CHL1   C23 3903   3.805   0.570   4.809 -0.3951  0.1882 -0.7601
   37CHL1  H23A 3904   3.764   0.481   4.860  1.7771 -0.5053 -0.1453
   37CHL1  H23B 3905   3.735   0.657   4.811 -0.3465  0.2177 -0.1853
   37CHL1   C24 3906   3.813   0.532   4.661  0.4770  0.8690 -0.5579
   37CHL1  H24A 3907   3.863   0.434   4.647  0.3136  0.7672 -0.4236
   37CHL1  H24B 3908   3.709   0.511   4.627  1.1570  0.2896 -2.4171
   37CHL1   C25 3909   3.878   0.640   4.567 -0.0800 -0.1259 -0.1280
   37CHL1   H25 3910   3.984   0.661   4.594  0.1069  0.9463 -1.5735
   37CHL1   C26 3911   3.876   0.591   4.425  0.1811  0.1924 -0.1963
   37CHL1  H26A 3912   3.941   0.659   4.367  0.5582 -0.1020 -0.1236
   37CHL1  H26B 3913   3.911   0.487   4.409  0.0909  0.2726 -0.9305
   37CHL1  H26C 3914   3.773   0.597   4.384 -0.6755  0.1759  1.8295
   37CHL1   C27 3915   3.802   0.772   4.571  0.6709  0.4364  0.2596
   37CHL1  H27A 3916   3.845   0.859   4.517  0.0920 -0.4638 -1.7878
   37CHL1  H27B 3917   3.700   0.747   4.536  0.4068  0.8226  0.7514
   37CHL1  H27C 3918   3.786   0.808   4.674  0.9323  0.5457  0.2614
   38CHL1    C3 3919   3.254   5.628   5.582 -0.5367 -0.3329  0.7061
   38CHL1    H3 3920   3.352   5.575   5.586  0.1225  0.4319 -2.5306
   38CHL1    O3 3921   3.188   5.602   5.700 -0.4322  0.6955  0.3381
   38CHL1   H3' 3922   3.202   5.508   5.713  0.6379  0.7191 -0.4423
   38CHL1    C4 3923   3.270   5.781   5.561 -0.5898 -0.1872  0.4275
   38CHL1   H4A 3924   3.163   5.810   5.566 -0.7344  0.3272 -3.2768
   38CHL1   H4B 3925   3.333   5.820   5.643 -0.4037  0.2126  0.0959
   38CHL1    C5 3926   3.332   5.814   5.431 -1.0831 -0.0816 -0.4972
   38CHL1    C6 3927   3.443   5.889   5.426  0.1457 -0.1492 -0.5370
   38CHL1    H6 3928   3.485   5.912   5.525  0.8801 -1.4231 -0.5298
   38CHL1    C7 3929   3.508   5.926   5.303 -0.0034 -0.7034  0.1047
   38CHL1   H7A 3930   3.532   6.034   5.316 -1.1840 -0.5141  0.7994
   38CHL1   H7B 3931   3.605   5.872   5.296 -0.7089 -1.9098 -0.9386
   38CHL1    C8 3932   3.420   5.908   5.178  0.7634 -0.2423  0.0905
   38CHL1    H8 3933   3.344   5.989   5.176  0.4400 -0.4522  2.2354
   38CHL1   C14 3934   3.510   5.920   5.056 -0.0525 -0.6889  0.4843
   38CHL1   H14 3935   3.570   5.827   5.054  1.3448  0.1821 -1.2999
   38CHL1   C15 3936   3.610   6.034   5.039  0.4502  0.2388 -1.0335
   38CHL1  H15A 3937   3.549   6.122   5.067 -0.1085 -0.3169 -0.4731
   38CHL1  H15B 3938   3.703   6.033   5.100  0.6815  3.6928 -1.1140
   38CHL1   C16 3939   3.645   6.032   4.887  0.1039  0.2115 -0.9678
   38CHL1  H16A 3940   3.620   6.126   4.834  0.1851  0.7517 -0.0634
   38CHL1  H16B 3941   3.748   5.992   4.874  0.6062 -0.3438  3.3290
   38CHL1   C17 3942   3.558   5.913   4.834  0.3739 -0.1937  0.4631
   38CHL1   H17 3943   3.618   5.821   4.853 -1.1174 -1.4656 -0.7808
   38CHL1   C13 3944   3.437   5.905   4.927  0.1910 -0.1665  0.0398
   38CHL1   C18 3945   3.342   6.023   4.911  0.1673 -0.1614 -0.0217
   38CHL1  H18A 3946   3.268   6.027   4.994 -0.4473 -1.2988 -0.4859
   38CHL1  H18B 3947   3.401   6.116   4.907  1.2982 -0.7736  1.5759
   38CHL1  H18C 3948   3.288   6.011   4.814  0.4159 -0.4254 -0.1272
   38CHL1   C12 3949   3.362   5.772   4.924  0.5679  0.4790  0.0347
   38CHL1  H12A 3950   3.303   5.752   4.832  1.4204  2.9492 -1.1233
   38CHL1  H12B 3951   3.433   5.686   4.926  2.3905  1.8840 -1.1272
   38CHL1   C11 3952   3.275   5.757   5.050 -0.2359 -0.5756 -0.3594
   38CHL1  H11A 3953   3.189   5.828   5.051 -0.4099 -0.7896  0.3093
   38CHL1  H11B 3954   3.231   5.655   5.051 -2.6936  0.4215  0.1700
   38CHL1    C9 3955   3.348   5.775   5.182  0.1403 -0.1935 -0.7234
   38CHL1    H9 3956   3.432   5.702   5.177 -0.1250 -0.4186 -3.2430
   38CHL1   C10 3957   3.270   5.755   5.313  0.4977  1.0011  0.9281
   38CHL1   C19 3958   3.138   5.835   5.303 -0.0619  1.2168 -0.1095
   38CHL1  H19A 3959   3.082   5.788   5.218 -1.0822 -0.4361  1.3897
   38CHL1  H19B 3960   3.079   5.817   5.395 -1.3628  3.3745 -0.4534
   38CHL1  H19C 3961   3.143   5.945   5.290  2.1748  1.5128  2.5491
   38CHL1    C1 3962   3.244   5.597   5.326 -0.0402  0.3875  0.4017
   38CHL1   H1A 3963   3.172   5.557   5.251  1.3524  1.8986 -1.8371
   38CHL1   H1B 3964   3.345   5.557   5.303 -0.2146  1.5041 -2.6092
   38CHL1    C2 3965   3.187   5.555   5.462 -0.4154 -0.0469  0.2636
   38CHL1   H2A 3966   3.187   5.446   5.484  0.1840  0.0540  0.7858
   38CHL1   H2B 3967   3.079   5.582   5.470 -0.4640 -0.1726  0.0368
   38CHL1   C20 3968   3.529   5.914   4.684 -0.2271 -0.3251  0.8301
   38CHL1   H20 3969   3.450   5.837   4.665 -1.4542  1.5429 -2.4865
   38CHL1   C21 3970   3.657   5.880   4.620 -0.0211 -0.0546  0.1304
   38CHL1  H21A 3971   3.687   5.780   4.658  0.6230 -0.3259 -1.0428
   38CHL1  H21B 3972   3.738   5.948   4.654 -0.2422  0.6268 -0.6784
   38CHL1  H21C 3973   3.661   5.870   4.510  0.8349 -2.0703  0.3095
   38CHL1   C22 3974   3.473   6.040   4.607  0.5515  0.3522  0.0187
   38CHL1  H22A 3975   3.388   6.081   4.666 -0.1518 -1.5323  0.3648
   38CHL1  H22B 3976   3.545   6.125   4.601 -0.4951  1.2510 -0.1302
   38CHL1   C23 3977   3.421   6.004   4.467 -0.2854  1.5313 -0.5727
   38CHL1  H23A 3978   3.499   6.002   4.388 -0.2341 -0.7712 -0.5466
   38CHL1  H23B 3979   3.369   5.906   4.475 -1.9006  2.4002  0.0570
   38CHL1   C24 3980   3.304   6.098   4.424 -0.6585 -0.0882 -0.0516
   38CHL1  H24A 3981   3.223   6.074   4.495 -0.9642  0.2644 -0.2787
   38CHL1  H24B 3982   3.341   6.203   4.424  0.9119 -0.6114  0.8995
   38CHL1   C25 3983   3.261   6.059   4.282 -0.2536  0.2612  0.1226
   38CHL1   H25 3984   3.248   5.949   4.287  0.2138  0.2298  0.7043
   38CHL1   C26 3985   3.114   6.105   4.251  0.1685 -0.4002 -0.4930
   38CHL1  H26A 3986   3.113   6.215   4.260  1.8214 -0.3402 -0.6209
   38CHL1  H26B 3987   3.090   6.070   4.148  0.4286 -2.6296  0.1343
   38CHL1  H26C 3988   3.042   6.066   4.326 -2.1139  1.0801 -1.8278
   38CHL1   C27 3989   3.352   6.099   4.173 -0.2162 -0.1030 -0.4361
   38CHL1  H27A 3990   3.363   6.210   4.165  2.3795 -0.3343 -0.8010
   38CHL1  H27B 3991   3.460   6.089   4.196 -0.0616  1.4285 -0.3797
   38CHL1  H27C 3992   3.335   6.040   4.081  1.5645 -1.9442  0.3659
   39CHL1    C3 3993   6.221   2.860   5.977 -0.4469  0.0400  0.4958
   39CHL1    H3 3994   6.237   2.751   5.969 -0.2308  0.0422  0.8954
   39CHL1    O3 3995   6.204   2.900   6.115 -0.3298 -0.1234  0.3144
   39CHL1   H3' 3996   6.288   2.894   6.160 -0.3204  1.6480  0.6099
   39CHL1    C4 3997   6.340   2.937   5.917 -0.1993  0.1886 -0.4903
   39CHL1   H4A 3998   6.335   3.047   5.933 -0.8085  0.1475 -0.3803
   39CHL1   H4B 3999   6.424   2.906   5.983  0.4453 -0.5121 -1.6219
   39CHL1    C5 4000   6.358   2.908   5.771  0.3101  0.1826 -0.3693
   39CHL1    C6 4001   6.476   2.861   5.730 -0.1604 -0.2951  0.2093
   39CHL1    H6 4002   6.560   2.846   5.799 -1.0684  0.2808  1.4791
   39CHL1    C7 4003   6.502   2.840   5.584  0.5194 -0.5075 -0.8915
   39CHL1   H7A 4004   6.603   2.883   5.565  0.3515  0.1759 -0.2780
   39CHL1   H7B 4005   6.505   2.729   5.572 -2.8500 -0.9637  1.0277
   39CHL1    C8 4006   6.401   2.901   5.483 -0.2192  0.7508  0.8439
   39CHL1    H8 4007   6.411   3.011   5.482 -0.2997  0.7911 -1.5564
   39CHL1   C14 4008   6.416   2.843   5.343  0.1389 -0.2322 -0.0289
   39CHL1   H14 4009   6.426   2.733   5.351 -1.0880 -0.3331  0.2521
   39CHL1   C15 4010   6.547   2.879   5.267  0.1572  0.5097  0.0075
   39CHL1  H15A 4011   6.574   2.985   5.281  2.0801  0.4362 -2.4906
   39CHL1  H15B 4012   6.627   2.810   5.301  0.1301  0.6143  0.2779
   39CHL1   C16 4013   6.506   2.852   5.120  0.1357  0.1630  0.3859
   39CHL1  H16A 4014   6.530   2.940   5.055 -0.8514  0.0376 -0.1706
   39CHL1  H16B 4015   6.570   2.770   5.081 -0.0089 -0.5243  1.5567
   39CHL1   C17 4016   6.354   2.816   5.117 -0.0497 -0.5078  0.2789
   39CHL1   H17 4017   6.353   2.706   5.133 -0.3428 -0.6065 -0.3679
   39CHL1   C13 4018   6.303   2.873   5.252  0.5388 -0.3891 -0.1670
   39CHL1   C18 4019   6.296   3.021   5.226  0.4102  0.1801 -0.2010
   39CHL1  H18A 4020   6.288   3.073   5.323  0.0532  0.2630 -0.2760
   39CHL1  H18B 4021   6.383   3.063   5.171 -0.0214 -0.4571 -1.4009
   39CHL1  H18C 4022   6.207   3.059   5.173 -1.3084 -2.0378  0.9320
   39CHL1   C12 4023   6.176   2.818   5.304  0.3975 -0.4851 -0.3003
   39CHL1  H12A 4024   6.095   2.862   5.243  1.5363  1.7216 -0.3391
   39CHL1  H12B 4025   6.176   2.707   5.313  0.8390 -0.4563  0.0705
   39CHL1   C11 4026   6.143   2.877   5.446  1.0778 -0.2028  0.2635
   39CHL1  H11A 4027   6.109   2.982   5.448  1.2975 -0.1424  1.1578
   39CHL1  H11B 4028   6.065   2.808   5.485  1.3387 -0.2693  0.6746
   39CHL1    C9 4029   6.266   2.860   5.537 -1.0226  0.2549  0.0697
   39CHL1    H9 4030   6.277   2.752   5.559 -0.6385 -0.4130 -2.9765
   39CHL1   C10 4031   6.235   2.927   5.680  0.0016  0.2460  0.0388
   39CHL1   C19 4032   6.214   3.081   5.661 -0.5492  0.4382 -0.1338
   39CHL1  H19A 4033   6.188   3.135   5.755 -1.0339 -0.5727  0.3365
   39CHL1  H19B 4034   6.308   3.130   5.627 -0.3612  1.5954  1.8431
   39CHL1  H19C 4035   6.126   3.111   5.600  0.9069  2.5407 -1.3152
   39CHL1    C1 4036   6.106   2.862   5.741 -0.5783 -0.0412 -0.5107
   39CHL1   H1A 4037   6.015   2.906   5.695 -0.4993  2.7501  1.7573
   39CHL1   H1B 4038   6.102   2.751   5.733 -1.2572 -0.1547  1.0452
   39CHL1    C2 4039   6.090   2.895   5.891 -0.2950 -0.6773 -0.8343
   39CHL1   H2A 4040   6.009   2.833   5.935  0.6852 -0.6840  1.0663
   39CHL1   H2B 4041   6.059   3.001   5.905 -1.0574 -0.8090 -1.4573
   39CHL1   C20 4042   6.288   2.840   4.986 -1.2419 -0.5434 -0.2637
   39CHL1   H20 4043   6.267   2.949   4.988  1.5956  0.1248 -1.7811
   39CHL1   C21 4044   6.160   2.758   4.977  0.1611  0.4053  0.0265
   39CHL1  H21A 4045   6.083   2.786   5.052  0.7497  2.1602  0.0186
   39CHL1  H21B 4046   6.186   2.651   4.996 -1.1116  0.2295  0.8293
   39CHL1  H21C 4047   6.105   2.770   4.881 -0.3007  2.4860  0.5191
   39CHL1   C22 4048   6.387   2.819   4.864 -0.0548 -0.3916  0.1842
   39CHL1  H22A 4049   6.456   2.905   4.868 -2.3139  1.6494 -1.6630
   39CHL1  H22B 4050   6.443   2.724   4.877 -0.1680 -0.3815  0.7853
   39CHL1   C23 4051   6.321   2.812   4.724 -0.5096  0.1724 -0.5282
   39CHL1  H23A 4052   6.249   2.728   4.726  0.6504 -0.8260  1.0746
   39CHL1  H23B 4053   6.275   2.904   4.681  0.1797  0.8678  0.1877
   39CHL1   C24 4054   6.426   2.770   4.616 -0.6904 -0.1991 -0.3179
   39CHL1  H24A 4055   6.496   2.855   4.608  0.2384 -0.8601  0.5124
   39CHL1  H24B 4056   6.464   2.671   4.649 -0.7155 -0.0601  0.1425
   39CHL1   C25 4057   6.379   2.746   4.471 -0.0172 -0.4666 -0.7781
   39CHL1   H25 4058   6.312   2.829   4.440 -1.4020 -1.0552  0.4703
   39CHL1   C26 4059   6.500   2.717   4.383 -0.4347 -0.3651 -0.2091
   39CHL1  H26A 4060   6.546   2.815   4.359 -0.2576 -0.4324 -0.1509
   39CHL1  H26B 4061   6.574   2.659   4.443  0.3647  0.4455 -0.3970
   39CHL1  H26C 4062   6.475   2.666   4.287  0.6494 -0.1566 -0.6122
   39CHL1   C27 4063   6.299   2.616   4.471 -0.8716  0.1556 -0.2697
   39CHL1  H27A 4064   6.264   2.601   4.366 -0.5724 -1.2926 -0.1788
   39CHL1  H27B 4065   6.369   2.530   4.484 -0.8436  0.2865  0.4742
   39CHL1  H27C 4066   6.217   2.624   4.544 -1.1318 -0.1465 -0.5251
   40CHL1    C3 4067   6.573   4.568   5.628  0.5411 -0.5590  0.1565
   40CHL1    H3 4068   6.669   4.623   5.618  0.0423  0.7409  2.0928
   40CHL1    O3 4069   6.529   4.597   5.759  0.2606  0.4532 -0.0521
   40CHL1   H3' 4070   6.600   4.575   5.820  1.3174 -1.3889 -1.8115
   40CHL1    C4 4071   6.472   4.625   5.532  0.4274  0.7747 -0.1524
   40CHL1   H4A 4072   6.370   4.585   5.552  0.2014  0.7925 -1.1878
   40CHL1   H4B 4073   6.460   4.734   5.553 -1.0650  0.5395  0.3589
   40CHL1    C5 4074   6.492   4.589   5.387  0.7083 -0.3273 -0.0064
   40CHL1    C6 4075   6.504   4.687   5.294  0.4775 -0.6407  0.3918
   40CHL1    H6 4076   6.494   4.795   5.311 -2.2458 -0.5976 -0.8285
   40CHL1    C7 4077   6.512   4.649   5.150 -0.0162 -0.2700  0.0291
   40CHL1   H7A 4078   6.429   4.701   5.097 -0.6263 -2.7053 -1.5562
   40CHL1   H7B 4079   6.603   4.692   5.103  0.1143 -2.5098 -1.9233
   40CHL1    C8 4080   6.490   4.504   5.113  0.3714  0.0602 -0.1902
   40CHL1    H8 4081   6.380   4.486   5.109  0.1016  1.6891 -0.9120
   40CHL1   C14 4082   6.549   4.470   4.977  0.0645 -0.1574  0.1609
   40CHL1   H14 4083   6.658   4.479   4.999  0.3359 -0.2438 -1.0653
   40CHL1   C15 4084   6.531   4.572   4.865 -0.1064 -0.0012  0.9177
   40CHL1  H15A 4085   6.426   4.608   4.864 -0.3990 -0.7703 -1.3581
   40CHL1  H15B 4086   6.590   4.666   4.876 -0.5739  0.4243 -0.1405
   40CHL1   C16 4087   6.558   4.499   4.740 -0.4780 -0.0510  0.0676
   40CHL1  H16A 4088   6.468   4.514   4.676  1.4919  2.1635 -2.4027
   40CHL1  H16B 4089   6.646   4.524   4.677  0.1429  0.0077  0.9499
   40CHL1   C17 4090   6.584   4.346   4.781  0.2128 -0.3254  0.2088
   40CHL1   H17 4091   6.692   4.344   4.808  0.7371  1.3702 -1.5376
   40CHL1   C13 4092   6.515   4.336   4.919 -0.0885  0.6868 -0.1721
   40CHL1   C18 4093   6.367   4.319   4.890  0.6113 -0.2691 -0.0401
   40CHL1  H18A 4094   6.302   4.345   4.976  0.7346 -1.0165  0.2898
   40CHL1  H18B 4095   6.333   4.380   4.804 -1.4372  0.3878  1.1810
   40CHL1  H18C 4096   6.336   4.215   4.868 -3.1408 -0.0926  3.3630
   40CHL1   C12 4097   6.569   4.229   5.016  0.0387  0.4454 -1.1561
   40CHL1  H12A 4098   6.530   4.130   4.987  0.8004 -0.3414  0.3937
   40CHL1  H12B 4099   6.679   4.236   5.002 -0.1001 -0.2736 -2.7924
   40CHL1   C11 4100   6.538   4.259   5.169 -0.4866 -0.4578  0.3993
   40CHL1  H11A 4101   6.440   4.216   5.197  0.8224 -1.3934  4.1505
   40CHL1  H11B 4102   6.614   4.214   5.237 -1.7474 -0.5358  1.8033
   40CHL1    C9 4103   6.549   4.408   5.219 -0.1715  0.3684 -0.4176
   40CHL1    H9 4104   6.657   4.435   5.215  0.6645 -2.6653 -3.2329
   40CHL1   C10 4105   6.495   4.441   5.360 -0.1576  0.0879  0.0557
   40CHL1   C19 4106   6.356   4.375   5.376  0.4681 -0.4823 -0.2811
   40CHL1  H19A 4107   6.298   4.416   5.291  3.0318  0.2827 -1.7655
   40CHL1  H19B 4108   6.372   4.265   5.363  0.1700 -0.4872 -0.6191
   40CHL1  H19C 4109   6.303   4.386   5.473 -0.9532 -2.7182 -0.7231
   40CHL1    C1 4110   6.597   4.375   5.467 -0.1415 -0.0662 -0.4739
   40CHL1   H1A 4111   6.583   4.265   5.462  0.3425 -0.2178  1.0858
   40CHL1   H1B 4112   6.692   4.408   5.421 -0.6979 -0.2540 -1.7925
   40CHL1    C2 4113   6.591   4.419   5.612 -0.1815 -0.8568  0.8771
   40CHL1   H2A 4114   6.680   4.383   5.668  1.2617 -1.3776 -1.6272
   40CHL1   H2B 4115   6.497   4.368   5.643 -0.3062 -0.7998  0.5894
   40CHL1   C20 4116   6.565   4.229   4.673 -0.9313 -0.2836  0.3165
   40CHL1   H20 4117   6.457   4.204   4.682 -1.0503  0.8544  3.1578
   40CHL1   C21 4118   6.664   4.119   4.703  0.3668 -0.0167  0.0849
   40CHL1  H21A 4119   6.666   4.044   4.621 -1.3928  1.2563 -1.1899
   40CHL1  H21B 4120   6.654   4.066   4.800 -0.2683  0.9179  0.5439
   40CHL1  H21C 4121   6.767   4.162   4.708  0.2217  0.1656  2.5633
   40CHL1   C22 4122   6.593   4.291   4.526  0.4633  0.2011  0.3236
   40CHL1  H22A 4123   6.531   4.382   4.517 -1.0112 -0.9069 -1.3057
   40CHL1  H22B 4124   6.691   4.343   4.533  0.7601 -0.1863 -0.6505
   40CHL1   C23 4125   6.570   4.195   4.411  0.0259  0.4623  0.4494
   40CHL1  H23A 4126   6.657   4.127   4.414 -1.6937 -1.8117  2.9277
   40CHL1  H23B 4127   6.480   4.134   4.435  1.7226 -1.7592  1.4571
   40CHL1   C24 4128   6.547   4.258   4.271 -0.1619 -0.1395  0.1017
   40CHL1  H24A 4129   6.459   4.326   4.276  0.0335  0.0572  0.9752
   40CHL1  H24B 4130   6.641   4.316   4.262  0.1035 -0.0583  2.7954
   40CHL1   C25 4131   6.524   4.160   4.163 -0.1034  0.0669  0.4343
   40CHL1   H25 4132   6.422   4.120   4.184  0.3700 -0.4922  1.7377
   40CHL1   C26 4133   6.527   4.227   4.019  0.1042  0.2838  0.2260
   40CHL1  H26A 4134   6.629   4.270   4.002 -0.0222  0.3827 -0.3122
   40CHL1  H26B 4135   6.496   4.160   3.936 -1.3167  1.3165 -0.1145
   40CHL1  H26C 4136   6.459   4.313   3.999  0.9032  0.7757 -0.4652
   40CHL1   C27 4137   6.634   4.047   4.161 -0.3754  0.7371 -0.3754
   40CHL1  H27A 4138   6.615   3.976   4.077 -0.6011 -1.1823  1.2358
   40CHL1  H27B 4139   6.729   4.103   4.148 -1.0502  1.5254 -2.2542
   40CHL1  H27C 4140   6.632   3.994   4.258  1.2017 -1.9448 -1.6971
   41CHL1    C3 4141   1.520   5.040   5.575  0.0970  0.1721  0.4919
   41CHL1    H3 4142   1.610   5.098   5.544 -0.5001  0.8305 -0.0295
   41CHL1    O3 4143   1.518   5.023   5.712  0.6594  0.0335 -0.2289
   41CHL1   H3' 4144   1.450   5.079   5.751  3.2754  2.2713  1.5164
   41CHL1    C4 4145   1.400   5.116   5.522  0.5567 -0.2965  0.2911
   41CHL1   H4A 4146   1.305   5.062   5.544 -0.0055  1.1164  1.5091
   41CHL1   H4B 4147   1.402   5.216   5.570  0.0608  0.5144 -1.3038
   41CHL1    C5 4148   1.407   5.126   5.366 -0.0232 -0.0063 -0.5563
   41CHL1    C6 4149   1.400   5.246   5.303  0.1824  0.0873  0.2011
   41CHL1    H6 4150   1.388   5.332   5.370  2.6600  0.8825 -0.2522
   41CHL1    C7 4151   1.399   5.271   5.158 -0.3115 -0.1945 -0.4761
   41CHL1   H7A 4152   1.318   5.344   5.136  1.5708  2.2460  0.2032
   41CHL1   H7B 4153   1.500   5.312   5.138  0.8549 -1.6885  1.9144
   41CHL1    C8 4154   1.372   5.140   5.071 -0.1235  0.0138 -0.0136
   41CHL1    H8 4155   1.267   5.104   5.076 -0.7283  1.6439 -0.6037
   41CHL1   C14 4156   1.409   5.162   4.923 -0.8176 -0.3365  0.1913
   41CHL1   H14 4157   1.519   5.176   4.923 -1.0110  1.4632 -0.3391
   41CHL1   C15 4158   1.356   5.284   4.856  0.3207 -0.0270  0.0020
   41CHL1  H15A 4159   1.259   5.322   4.892 -0.2181  0.5703 -1.9626
   41CHL1  H15B 4160   1.421   5.372   4.874  1.1462 -0.3805 -1.1010
   41CHL1   C16 4161   1.372   5.250   4.709 -0.3422 -0.4230 -0.0350
   41CHL1  H16A 4162   1.273   5.264   4.662 -0.2331 -2.5149 -1.0108
   41CHL1  H16B 4163   1.439   5.319   4.653 -0.1839  0.4794  1.2247
   41CHL1   C17 4164   1.423   5.109   4.694 -0.0316  0.5672 -0.1574
   41CHL1   H17 4165   1.533   5.107   4.706  0.2109 -0.8341 -2.2650
   41CHL1   C13 4166   1.382   5.050   4.825  0.3698  0.2097 -0.9306
   41CHL1   C18 4167   1.228   5.019   4.828  0.3507  0.0897 -0.4304
   41CHL1  H18A 4168   1.161   5.095   4.783 -0.8615 -1.0776 -0.6656
   41CHL1  H18B 4169   1.230   4.937   4.752  3.8799  1.2123 -1.7878
   41CHL1  H18C 4170   1.192   4.976   4.924 -0.4058  2.6879  0.5198
   41CHL1   C12 4171   1.474   4.938   4.885  0.1466 -0.4336 -0.1898
   41CHL1  H12A 4172   1.449   4.851   4.820 -1.5513 -0.3905  0.3451
   41CHL1  H12B 4173   1.576   4.974   4.859 -0.7415  0.2608 -3.0994
   41CHL1   C11 4174   1.442   4.905   5.034 -0.5533  0.0596  0.4813
   41CHL1  H11A 4175   1.341   4.862   5.046 -1.3851  1.9878  0.8197
   41CHL1  H11B 4176   1.521   4.833   5.063 -1.2955 -0.5596  1.0124
   41CHL1    C9 4177   1.460   5.022   5.130  0.1157  0.2498  1.0212
   41CHL1    H9 4178   1.566   5.055   5.125  1.0828 -2.6576 -3.2211
   41CHL1   C10 4179   1.420   4.991   5.281 -0.5297  0.3495  0.1289
   41CHL1   C19 4180   1.283   4.914   5.290  0.5122 -0.4502 -0.4681
   41CHL1  H19A 4181   1.278   4.819   5.232  0.3532 -0.1295 -0.9879
   41CHL1  H19B 4182   1.279   4.885   5.397  1.0374 -0.7809 -0.5325
   41CHL1  H19C 4183   1.198   4.977   5.257  1.6531  1.6249  0.4025
   41CHL1    C1 4184   1.546   4.921   5.349  0.2146 -0.1781  0.1107
   41CHL1   H1A 4185   1.565   4.826   5.295 -1.0604 -1.6091  2.0662
   41CHL1   H1B 4186   1.627   4.996   5.337  0.5402 -0.8322 -2.5617
   41CHL1    C2 4187   1.531   4.901   5.501 -0.0567 -0.1304 -0.2005
   41CHL1   H2A 4188   1.614   4.843   5.547 -1.4107 -1.2603  0.9437
   41CHL1   H2B 4189   1.436   4.845   5.514 -0.1730 -0.0359 -0.6218
   41CHL1   C20 4190   1.385   5.037   4.560 -0.2915  0.4319  0.4884
   41CHL1   H20 4191   1.275   5.037   4.543 -0.1224  1.1135 -0.7263
   41CHL1   C21 4192   1.439   4.886   4.555  0.2764 -0.2083 -0.9492
   41CHL1  H21A 4193   1.423   4.841   4.455 -1.0200 -0.9837 -0.4088
   41CHL1  H21B 4194   1.382   4.841   4.638  0.5369  1.7382  0.3457
   41CHL1  H21C 4195   1.546   4.893   4.584  0.0774 -0.4898 -0.1294
   41CHL1   C22 4196   1.440   5.121   4.439  0.0001 -0.6698  0.2764
   41CHL1  H22A 4197   1.396   5.222   4.455 -0.9747 -1.1196  0.5294
   41CHL1  H22B 4198   1.550   5.129   4.444 -0.0589  1.0917 -0.5299
   41CHL1   C23 4199   1.408   5.071   4.292 -0.1192 -0.6434 -0.0934
   41CHL1  H23A 4200   1.462   5.138   4.221  1.4257  0.6364  2.1578
   41CHL1  H23B 4201   1.443   4.966   4.284  0.4620 -0.4394 -0.3297
   41CHL1   C24 4202   1.261   5.085   4.254  0.4450 -0.0573 -0.4772
   41CHL1  H24A 4203   1.189   5.034   4.322  1.8972 -1.4194  0.0881
   41CHL1  H24B 4204   1.220   5.188   4.251 -1.3641 -0.7403 -3.0489
   41CHL1   C25 4205   1.234   5.031   4.114 -0.8399 -0.2813  0.5121
   41CHL1   H25 4206   1.278   4.929   4.120  0.0646  0.1276  1.0986
   41CHL1   C26 4207   1.081   5.007   4.091 -0.9328 -0.3766  0.4742
   41CHL1  H26A 4208   1.028   4.999   4.189  1.3190 -1.9442  1.6606
   41CHL1  H26B 4209   1.036   5.094   4.039 -0.5158  1.2596  2.6998
   41CHL1  H26C 4210   1.075   4.918   4.026  3.4794  0.1888 -1.0482
   41CHL1   C27 4211   1.307   5.116   4.006 -0.1339 -0.2711 -0.3345
   41CHL1  H27A 4212   1.273   5.221   4.022 -1.0450 -0.3434 -1.7028
   41CHL1  H27B 4213   1.418   5.115   4.012 -0.1513 -2.4356  0.1719
   41CHL1  H27C 4214   1.279   5.084   3.904 -0.0954  1.3011 -0.8697
   42CHL1    C3 4215   0.474   3.269   6.004  0.1641 -0.1172 -0.1306
   42CHL1    H3 4216   0.376   3.223   5.980  0.5816 -0.8833 -0.3833
   42CHL1    O3 4217   0.502   3.253   6.140 -0.4693  0.5088 -0.4946
   42CHL1   H3' 4218   0.574   3.316   6.147  0.2784 -0.5388  2.5444
   42CHL1    C4 4219   0.580   3.200   5.914 -0.1676 -0.1994 -0.2983
   42CHL1   H4A 4220   0.679   3.238   5.946 -0.5873 -1.3040  2.6361
   42CHL1   H4B 4221   0.578   3.094   5.948  1.6023  0.0813  0.8374
   42CHL1    C5 4222   0.546   3.212   5.766 -0.4895 -0.5265 -0.0606
   42CHL1    C6 4223   0.529   3.109   5.683  0.3146  0.2555 -0.1540
   42CHL1    H6 4224   0.540   3.006   5.722 -0.9702 -0.2715 -1.1382
   42CHL1    C7 4225   0.505   3.110   5.532 -0.1868  0.0298 -0.4388
   42CHL1   H7A 4226   0.574   3.038   5.484 -1.1795 -0.8016 -0.6474
   42CHL1   H7B 4227   0.401   3.079   5.509 -1.6267  4.9678 -1.9464
   42CHL1    C8 4228   0.513   3.253   5.468 -0.1976 -0.1299 -0.0956
   42CHL1    H8 4229   0.624   3.261   5.461 -0.2967  0.3020 -1.4214
   42CHL1   C14 4230   0.460   3.274   5.328 -0.1178 -0.1586 -0.7410
   42CHL1   H14 4231   0.349   3.273   5.331 -0.1048 -0.4318  0.1783
   42CHL1   C15 4232   0.508   3.171   5.234  0.1815  0.5813 -0.1131
   42CHL1  H15A 4233   0.617   3.165   5.251  0.3379  1.3686 -0.8008
   42CHL1  H15B 4234   0.453   3.076   5.252  0.6622  0.4526  0.7075
   42CHL1   C16 4235   0.477   3.228   5.092  0.6807  0.7097  0.1493
   42CHL1  H16A 4236   0.564   3.234   5.022  0.5555  0.4877 -0.0260
   42CHL1  H16B 4237   0.388   3.177   5.049  1.3482 -0.7563  0.4726
   42CHL1   C17 4238   0.433   3.377   5.119  0.3271  0.6216  0.6862
   42CHL1   H17 4239   0.322   3.376   5.130  0.3032 -0.0843  0.4050
   42CHL1   C13 4240   0.486   3.405   5.263  0.2342  0.2824  0.2991
   42CHL1   C18 4241   0.639   3.434   5.247 -0.4222  0.1950  0.0184
   42CHL1  H18A 4242   0.651   3.534   5.199  0.3366 -0.2358 -0.7166
   42CHL1  H18B 4243   0.700   3.441   5.340 -0.4458  1.7538 -0.0520
   42CHL1  H18C 4244   0.682   3.357   5.180 -0.0400  0.1275  0.3338
   42CHL1   C12 4245   0.421   3.512   5.354 -0.0023 -0.3848  0.2507
   42CHL1  H12A 4246   0.449   3.616   5.325  1.5438 -0.4250  1.4436
   42CHL1  H12B 4247   0.314   3.486   5.338  0.7755 -2.4293 -2.4393
   42CHL1   C11 4248   0.464   3.502   5.500 -0.4823  0.5476  0.6643
   42CHL1  H11A 4249   0.563   3.550   5.513  0.1411  0.1770 -2.0789
   42CHL1  H11B 4250   0.399   3.564   5.566 -1.6655  1.2160 -1.0744
   42CHL1    C9 4251   0.461   3.361   5.563 -0.3002 -0.7558 -1.4383
   42CHL1    H9 4252   0.356   3.329   5.577 -0.0701 -0.9815 -0.0549
   42CHL1   C10 4253   0.530   3.351   5.705 -0.1045 -0.5704 -0.5260
   42CHL1   C19 4254   0.670   3.413   5.704  0.0489  0.3055 -0.3368
   42CHL1  H19A 4255   0.738   3.392   5.789  1.1866  0.1302 -1.2748
   42CHL1  H19B 4256   0.718   3.375   5.612 -0.2192  0.4747 -0.5472
   42CHL1  H19C 4257   0.667   3.524   5.699  1.6275  0.3467 -0.6176
   42CHL1    C1 4258   0.437   3.432   5.812 -0.3228 -0.0487 -0.2416
   42CHL1   H1A 4259   0.442   3.541   5.791 -1.5697  0.6207  2.4367
   42CHL1   H1B 4260   0.334   3.398   5.789 -0.0336 -1.1107 -0.0306
   42CHL1    C2 4261   0.473   3.417   5.960  0.1706  0.3816  0.0960
   42CHL1   H2A 4262   0.400   3.468   6.026  1.1946  0.5872  1.1008
   42CHL1   H2B 4263   0.574   3.461   5.977  0.3185 -0.0900  0.4776
   42CHL1   C20 4264   0.471   3.471   5.000 -0.1523 -0.6992  0.3549
   42CHL1   H20 4265   0.581   3.460   4.984 -0.2944 -1.8518  0.0576
   42CHL1   C21 4266   0.439   3.616   5.041 -0.2329 -0.2882 -0.5417
   42CHL1  H21A 4267   0.474   3.691   4.967 -0.0171 -0.4957 -0.6490
   42CHL1  H21B 4268   0.488   3.656   5.132 -1.6104  1.3940 -0.4829
   42CHL1  H21C 4269   0.332   3.640   5.058  0.4031  1.8355  0.8903
   42CHL1   C22 4270   0.415   3.425   4.861 -0.2575 -0.1210 -0.4644
   42CHL1  H22A 4271   0.459   3.332   4.820  1.5928 -0.1388  1.3872
   42CHL1  H22B 4272   0.305   3.409   4.865 -0.5464  1.8744  1.3720
   42CHL1   C23 4273   0.438   3.520   4.745  0.0338 -0.4046  0.1070
   42CHL1  H23A 4274   0.397   3.621   4.767  2.3613  0.3618  1.2529
   42CHL1  H23B 4275   0.548   3.531   4.734 -0.1645  2.9828  0.3182
   42CHL1   C24 4276   0.372   3.478   4.615  0.3162 -0.5697  0.6838
   42CHL1  H24A 4277   0.264   3.453   4.630  0.0944 -0.0748 -0.0319
   42CHL1  H24B 4278   0.383   3.563   4.544 -2.4383 -0.9288 -0.2984
   42CHL1   C25 4279   0.429   3.351   4.549 -0.3097 -0.1698 -0.1192
   42CHL1   H25 4280   0.417   3.259   4.610 -0.7587 -1.8937 -2.6405
   42CHL1   C26 4281   0.356   3.329   4.417 -0.1592 -0.0512  0.3271
   42CHL1  H26A 4282   0.249   3.305   4.433 -0.1394 -1.1433 -1.0113
   42CHL1  H26B 4283   0.380   3.416   4.352  0.1407 -0.0391  0.4532
   42CHL1  H26C 4284   0.385   3.235   4.366 -0.4683  1.7828 -3.6164
   42CHL1   C27 4285   0.575   3.372   4.517  0.4267 -0.1957  0.0018
   42CHL1  H27A 4286   0.628   3.286   4.471 -2.7387 -2.1058 -0.3478
   42CHL1  H27B 4287   0.589   3.459   4.450 -1.8341  1.8751  2.0331
   42CHL1  H27C 4288   0.631   3.413   4.604  0.7642 -0.6532  0.0059
   43CHL1    C3 4289   2.666   1.047   5.605 -0.7149  0.4623  0.3134
   43CHL1    H3 4290   2.568   1.088   5.575 -1.0663 -1.7987 -2.0720
   43CHL1    O3 4291   2.677   1.037   5.745  0.2645  0.2745 -0.1451
   43CHL1   H3' 4292   2.727   0.957   5.764 -0.0646  0.1292  0.1263
   43CHL1    C4 4293   2.668   0.912   5.533  0.3321  0.2761  0.1539
   43CHL1   H4A 4294   2.757   0.853   5.562  0.7933  1.0790  0.3962
   43CHL1   H4B 4295   2.584   0.850   5.572 -1.2689  0.6096 -2.4885
   43CHL1    C5 4296   2.664   0.935   5.383 -0.3955 -0.3934  0.4927
   43CHL1    C6 4297   2.568   0.879   5.311 -1.0849  0.3264 -0.8322
   43CHL1    H6 4298   2.486   0.816   5.348 -3.2018  2.4287 -1.6989
   43CHL1    C7 4299   2.575   0.886   5.158  0.1458  0.2470 -0.2231
   43CHL1   H7A 4300   2.584   0.784   5.116  2.7332  0.7005 -0.9145
   43CHL1   H7B 4301   2.486   0.940   5.119 -0.5556 -0.9832 -0.3680
   43CHL1    C8 4302   2.703   0.949   5.097  0.0809  0.5645 -0.1169
   43CHL1    H8 4303   2.779   0.869   5.108 -1.2745 -0.6861  0.4935
   43CHL1   C14 4304   2.673   0.998   4.957 -0.2050  0.5641  0.3544
   43CHL1   H14 4305   2.594   1.076   4.966 -2.3396 -1.1526 -1.9564
   43CHL1   C15 4306   2.599   0.904   4.861  0.3409 -0.3617 -0.5441
   43CHL1  H15A 4307   2.637   0.800   4.863 -1.2063 -0.9755 -1.1377
   43CHL1  H15B 4308   2.491   0.895   4.887  0.3111 -1.2369 -0.9211
   43CHL1   C16 4309   2.623   0.963   4.726 -0.4729 -0.1385  0.5672
   43CHL1  H16A 4310   2.663   0.887   4.656 -1.2649 -0.2368  0.2183
   43CHL1  H16B 4311   2.529   1.008   4.687 -0.9971  0.4045  2.3552
   43CHL1   C17 4312   2.728   1.082   4.736  0.4106  0.1833  0.9962
   43CHL1   H17 4313   2.680   1.182   4.740 -0.7144 -0.3464  1.0291
   43CHL1   C13 4314   2.790   1.051   4.884 -0.8036 -0.2682 -0.0171
   43CHL1   C18 4315   2.903   0.943   4.866 -0.3931 -0.2753  0.1603
   43CHL1  H18A 4316   2.933   0.905   4.966  2.7226  0.2597 -0.4486
   43CHL1  H18B 4317   2.880   0.853   4.805 -2.0940  0.7855 -0.8311
   43CHL1  H18C 4318   2.996   0.993   4.830  0.3218 -1.5262  0.2159
   43CHL1   C12 4319   2.825   1.180   4.963  0.0404  0.3840  0.2537
   43CHL1  H12A 4320   2.909   1.235   4.915 -0.3336 -0.5463 -1.5809
   43CHL1  H12B 4321   2.741   1.252   4.954  0.2035  0.8011  1.7834
   43CHL1   C11 4322   2.856   1.158   5.105  0.3900 -0.3007 -0.3345
   43CHL1  H11A 4323   2.960   1.120   5.103  0.9010  1.0799 -1.4293
   43CHL1  H11B 4324   2.849   1.259   5.152  0.9194 -0.6222  0.4427
   43CHL1    C9 4325   2.744   1.068   5.176 -0.6324  0.0736 -0.4838
   43CHL1    H9 4326   2.651   1.128   5.174 -0.4440  0.3485 -1.4132
   43CHL1   C10 4327   2.777   1.027   5.322  0.1752 -0.0586 -0.1229
   43CHL1   C19 4328   2.910   0.957   5.332  0.6141  0.0353 -0.6673
   43CHL1  H19A 4329   2.991   1.025   5.297 -0.8598  1.3388 -1.6648
   43CHL1  H19B 4330   2.932   0.948   5.440  2.4289  0.0155 -1.0069
   43CHL1  H19C 4331   2.905   0.860   5.279  0.5382 -0.2513 -0.1399
   43CHL1    C1 4332   2.781   1.160   5.410  0.1506  0.2732  0.8006
   43CHL1   H1A 4333   2.868   1.222   5.379 -0.1380 -0.4661 -1.8029
   43CHL1   H1B 4334   2.692   1.223   5.389  0.7856  0.9402  0.0274
   43CHL1    C2 4335   2.787   1.129   5.563  0.0264  0.5631  0.7267
   43CHL1   H2A 4336   2.784   1.220   5.627 -1.5964 -1.2210  3.4188
   43CHL1   H2B 4337   2.887   1.095   5.598  0.7956  2.7311  0.7409
   43CHL1   C20 4338   2.828   1.086   4.614  0.1960  0.1066 -0.1442
   43CHL1   H20 4339   2.895   0.998   4.623 -1.2209 -1.4502 -3.3377
   43CHL1   C21 4340   2.899   1.219   4.618  0.1388 -0.2047  0.1128
   43CHL1  H21A 4341   2.943   1.240   4.718 -1.8052  2.2518  0.5433
   43CHL1  H21B 4342   2.834   1.297   4.573  0.9310  0.7621  0.5812
   43CHL1  H21C 4343   2.999   1.211   4.570 -0.2232 -1.9891 -0.4090
   43CHL1   C22 4344   2.752   1.080   4.479  0.8513  0.1860  0.0709
   43CHL1  H22A 4345   2.677   0.998   4.476 -2.9581  3.3824 -0.7343
   43CHL1  H22B 4346   2.687   1.169   4.461 -2.1403 -1.6238  1.0573
   43CHL1   C23 4347   2.855   1.048   4.365  0.2972  0.0525 -0.9301
   43CHL1  H23A 4348   2.945   1.113   4.367 -0.6318  1.3912  0.8192
   43CHL1  H23B 4349   2.898   0.949   4.389  0.3257  0.1330 -0.6410
   43CHL1   C24 4350   2.812   1.061   4.229  0.0833 -0.4373 -0.4079
   43CHL1  H24A 4351   2.734   0.982   4.220 -0.9244  0.3585  1.1335
   43CHL1  H24B 4352   2.762   1.157   4.207 -1.3689 -0.6901  1.5837
   43CHL1   C25 4353   2.925   1.038   4.123  0.2465 -0.8953  0.3305
   43CHL1   H25 4354   3.007   1.109   4.147 -0.6165 -0.9526  3.8844
   43CHL1   C26 4355   2.995   0.897   4.125 -0.1364 -0.1132 -0.7462
   43CHL1  H26A 4356   2.920   0.818   4.102 -1.1404  0.1225  1.4636
   43CHL1  H26B 4357   3.085   0.899   4.061  0.4454 -0.6789  0.0351
   43CHL1  H26C 4358   3.026   0.879   4.231  2.7142 -2.5988 -1.8624
   43CHL1   C27 4359   2.876   1.073   3.986 -0.0520 -0.2549  0.1306
   43CHL1  H27A 4360   2.779   1.026   3.959 -0.2516  0.8459 -1.2107
   43CHL1  H27B 4361   2.862   1.183   3.976 -0.8102 -0.4569 -1.2739
   43CHL1  H27C 4362   2.940   1.040   3.902  1.7308 -0.4502  1.4981
   44CHL1    C3 4363   1.136   1.557   6.013  0.1487  0.0351  0.2521
   44CHL1    H3 4364   1.139   1.668   6.003  0.4873  0.0181  0.1794
   44CHL1    O3 4365   1.148   1.522   6.151 -0.1893 -0.3347  0.6823
   44CHL1   H3' 4366   1.231   1.560   6.182  1.0999 -2.6579  0.3550
   44CHL1    C4 4367   1.002   1.494   5.969  0.8060 -0.0013  0.2457
   44CHL1   H4A 4368   1.004   1.387   5.996 -1.8512  0.0969  1.0827
   44CHL1   H4B 4369   0.916   1.532   6.027  1.0483  1.7827 -0.4892
   44CHL1    C5 4370   0.976   1.497   5.815  0.1021 -0.3126  0.0590
   44CHL1    C6 4371   0.857   1.539   5.762  0.0863  0.3382 -0.0731
   44CHL1    H6 4372   0.780   1.581   5.829 -0.4405  0.4395 -0.7336
   44CHL1    C7 4373   0.830   1.544   5.616  0.2082  0.1115  0.3474
   44CHL1   H7A 4374   0.727   1.509   5.595  1.1577 -2.1571 -0.8243
   44CHL1   H7B 4375   0.840   1.648   5.577  0.1065 -0.1535 -0.3939
   44CHL1    C8 4376   0.927   1.456   5.525  0.1850 -0.7521 -0.6652
   44CHL1    H8 4377   0.900   1.349   5.536 -0.0337 -0.5391  1.2384
   44CHL1   C14 4378   0.925   1.484   5.377  0.9231 -0.1804 -0.2715
   44CHL1   H14 4379   0.952   1.592   5.369 -1.9577  0.6859  0.5472
   44CHL1   C15 4380   0.790   1.468   5.305  0.4757 -0.0253 -0.1298
   44CHL1  H15A 4381   0.747   1.369   5.332 -1.6019  0.4214 -1.5815
   44CHL1  H15B 4382   0.713   1.543   5.331 -2.4546 -2.9047  0.1259
   44CHL1   C16 4383   0.824   1.465   5.156 -0.0373  0.3152  0.4884
   44CHL1  H16A 4384   0.795   1.377   5.095  0.3145  0.2579  0.4031
   44CHL1  H16B 4385   0.786   1.558   5.107  1.0244  0.2120 -0.5950
   44CHL1   C17 4386   0.977   1.469   5.149 -0.3249 -0.4847  0.1046
   44CHL1   H17 4387   1.018   1.571   5.165  0.9680 -1.0711  0.7096
   44CHL1   C13 4388   1.026   1.409   5.282 -1.0919  0.2849 -0.2769
   44CHL1   C18 4389   1.003   1.257   5.287  0.3873  0.3786 -0.6126
   44CHL1  H18A 4390   0.896   1.234   5.268  0.7454 -0.0040 -2.3692
   44CHL1  H18B 4391   1.069   1.200   5.218  0.1218  0.3074 -0.8079
   44CHL1  H18C 4392   1.021   1.214   5.388 -2.0876  0.9965  0.1744
   44CHL1   C12 4393   1.177   1.443   5.330  0.6769  0.8125 -0.0878
   44CHL1  H12A 4394   1.248   1.378   5.275 -0.4955  0.4774 -1.2406
   44CHL1  H12B 4395   1.197   1.551   5.312 -0.5836  0.7933 -1.7958
   44CHL1   C11 4396   1.179   1.406   5.480  0.3790  0.2114  0.2467
   44CHL1  H11A 4397   1.176   1.295   5.489  1.5687  0.2106  0.9727
   44CHL1  H11B 4398   1.277   1.433   5.525  1.0103 -0.4015 -0.7115
   44CHL1    C9 4399   1.077   1.474   5.570  0.1431 -0.1387  0.4974
   44CHL1    H9 4400   1.097   1.583   5.557  2.1461 -0.6396 -1.1268
   44CHL1   C10 4401   1.099   1.447   5.724 -0.6472  0.1052 -0.3911
   44CHL1   C19 4402   1.102   1.296   5.746 -0.9323  0.0833  0.1131
   44CHL1  H19A 4403   1.189   1.250   5.695 -0.9830  0.8307 -0.6528
   44CHL1  H19B 4404   1.117   1.256   5.849  0.5722 -1.1405 -0.5359
   44CHL1  H19C 4405   1.015   1.245   5.699 -0.1395  0.7767 -2.2364
   44CHL1    C1 4406   1.226   1.517   5.785  0.4949 -0.7114 -0.1525
   44CHL1   H1A 4407   1.321   1.499   5.731  1.2950  0.9960  0.5933
   44CHL1   H1B 4408   1.222   1.628   5.775  1.6957 -0.4682  1.4881
   44CHL1    C2 4409   1.249   1.491   5.933  0.5852  0.5854 -0.2916
   44CHL1   H2A 4410   1.346   1.531   5.969  1.4954 -1.7585  0.0159
   44CHL1   H2B 4411   1.265   1.382   5.946  0.4232  0.3883 -1.6723
   44CHL1   C20 4412   1.034   1.407   5.015 -0.2515  0.1993  0.5906
   44CHL1   H20 4413   0.977   1.315   4.989  1.2827 -0.7241  0.3474
   44CHL1   C21 4414   1.183   1.363   5.025  0.2902  0.3147 -1.0630
   44CHL1  H21A 4415   1.233   1.340   4.929  0.6031 -0.6836 -0.6677
   44CHL1  H21B 4416   1.191   1.274   5.091 -1.4562  1.6318  1.0789
   44CHL1  H21C 4417   1.237   1.453   5.062 -1.7841  0.5826  1.6958
   44CHL1   C22 4418   1.022   1.506   4.892 -0.2562  0.1144 -1.1453
   44CHL1  H22A 4419   0.926   1.557   4.914 -0.3015 -0.3766 -0.1730
   44CHL1  H22B 4420   1.099   1.585   4.903  0.6083 -0.9839  1.1778
   44CHL1   C23 4421   1.029   1.438   4.757 -0.2327  0.0152  0.1748
   44CHL1  H23A 4422   1.134   1.402   4.747  0.2191  1.1515  0.6549
   44CHL1  H23B 4423   0.973   1.343   4.747  1.5949 -0.9266 -1.8737
   44CHL1   C24 4424   1.005   1.535   4.635 -0.1177 -0.3318  0.1211
   44CHL1  H24A 4425   0.900   1.571   4.633  0.2526  1.0902  2.6026
   44CHL1  H24B 4426   1.068   1.623   4.658 -0.8178 -0.5385  3.3110
   44CHL1   C25 4427   1.051   1.484   4.502 -0.3723  0.0761  0.4684
   44CHL1   H25 4428   0.993   1.390   4.490 -0.4493 -0.3378  3.2496
   44CHL1   C26 4429   1.026   1.591   4.393 -0.5660 -0.1162  0.1733
   44CHL1  H26A 4430   1.058   1.696   4.411  0.5041 -0.2515 -0.8146
   44CHL1  H26B 4431   1.062   1.557   4.293  0.0796  0.7022  0.1111
   44CHL1  H26C 4432   0.917   1.611   4.388 -1.1533 -2.1261  2.9129
   44CHL1   C27 4433   1.196   1.429   4.502 -0.1923 -0.0830  0.0627
   44CHL1  H27A 4434   1.207   1.327   4.544  1.9289 -0.0390 -0.2528
   44CHL1  H27B 4435   1.244   1.419   4.402  0.2572 -1.4697  0.3929
   44CHL1  H27C 4436   1.269   1.489   4.562  0.8590 -1.1968 -0.0673
   45CHL1    C3 4437   0.609   3.967   6.107  0.0980 -0.0887 -0.9544
   45CHL1    H3 4438   0.698   4.032   6.111 -1.0323  1.5306 -0.8983
   45CHL1    O3 4439   0.556   3.953   6.241  0.0235  0.2722 -0.0307
   45CHL1   H3' 4440   0.494   3.879   6.242  2.8023 -2.2722 -1.4613
   45CHL1    C4 4441   0.505   4.035   6.023  0.7217  0.2403  0.1864
   45CHL1   H4A 4442   0.407   3.983   6.022 -0.3569  2.1887  0.1595
   45CHL1   H4B 4443   0.482   4.135   6.066 -0.7079 -0.1009  0.2377
   45CHL1    C5 4444   0.554   4.050   5.880  0.9174  0.0570  0.0009
   45CHL1    C6 4445   0.569   4.173   5.829  0.1657  0.5027 -0.1340
   45CHL1    H6 4446   0.519   4.248   5.892 -2.1550 -1.9363  1.1399
   45CHL1    C7 4447   0.621   4.200   5.688  0.4528  0.5659 -0.0458
   45CHL1   H7A 4448   0.546   4.271   5.646 -1.4814 -2.2199 -1.6115
   45CHL1   H7B 4449   0.719   4.252   5.697  0.1792  1.6035 -2.4443
   45CHL1    C8 4450   0.620   4.065   5.609 -0.4861 -0.0618  0.0089
   45CHL1    H8 4451   0.513   4.044   5.588 -0.4988  0.1917 -0.1829
   45CHL1   C14 4452   0.696   4.093   5.482 -0.3168  0.2586  0.2540
   45CHL1   H14 4453   0.801   4.119   5.506  0.4567 -3.0738  1.0732
   45CHL1   C15 4454   0.649   4.208   5.392  0.3280  0.2498 -0.3604
   45CHL1  H15A 4455   0.539   4.213   5.378  0.5590  0.7108 -2.4373
   45CHL1  H15B 4456   0.695   4.307   5.416 -2.7450  2.7813 -3.7704
   45CHL1   C16 4457   0.704   4.175   5.252 -0.8626  0.6969 -0.5228
   45CHL1  H16A 4458   0.626   4.180   5.173 -0.1979 -3.4608 -1.6743
   45CHL1  H16B 4459   0.795   4.234   5.231  0.8541 -0.7361  2.2985
   45CHL1   C17 4460   0.774   4.033   5.267 -0.1242 -0.5511  0.9214
   45CHL1   H17 4461   0.880   4.054   5.295 -0.3616  1.0930  0.7024
   45CHL1   C13 4462   0.708   3.970   5.395 -0.2493  0.0640  0.7417
   45CHL1   C18 4463   0.568   3.919   5.359  0.5169  0.4527  0.0704
   45CHL1  H18A 4464   0.514   3.987   5.289 -1.4192 -0.2205  0.8385
   45CHL1  H18B 4465   0.560   3.824   5.301  1.0363 -1.4223  2.8519
   45CHL1  H18C 4466   0.514   3.890   5.452 -0.7399  1.2091 -0.4028
   45CHL1   C12 4467   0.799   3.874   5.471 -0.9472  1.0642  0.0230
   45CHL1  H12A 4468   0.817   3.775   5.425 -1.1998  0.6587  0.7946
   45CHL1  H12B 4469   0.901   3.914   5.491  0.0433 -0.9324 -0.7248
   45CHL1   C11 4470   0.734   3.838   5.610  0.3357  0.1885  0.5183
   45CHL1  H11A 4471   0.650   3.767   5.595 -0.0780  0.9039 -0.6738
   45CHL1  H11B 4472   0.809   3.778   5.666  0.0741  0.4176  1.1167
   45CHL1    C9 4473   0.691   3.962   5.690  0.1942 -0.2694 -0.2002
   45CHL1    H9 4474   0.788   4.012   5.715 -1.2304  2.3262  0.5256
   45CHL1   C10 4475   0.606   3.928   5.812  0.3986  0.0065  0.3555
   45CHL1   C19 4476   0.478   3.849   5.777  0.3036 -0.4972 -0.6436
   45CHL1  H19A 4477   0.507   3.746   5.747 -0.3594 -1.1043  0.7090
   45CHL1  H19B 4478   0.417   3.830   5.867  2.1341 -1.3886  0.4641
   45CHL1  H19C 4479   0.410   3.899   5.705 -0.5953  0.9533  1.1495
   45CHL1    C1 4480   0.691   3.853   5.910 -0.5279 -0.0775 -0.3416
   45CHL1   H1A 4481   0.728   3.760   5.863  1.3170  0.9560 -1.0105
   45CHL1   H1B 4482   0.780   3.919   5.906 -0.7410  0.4526  2.1992
   45CHL1    C2 4483   0.651   3.832   6.050  0.1881 -0.8070  0.0256
   45CHL1   H2A 4484   0.739   3.793   6.105  2.1842  2.3904 -0.6373
   45CHL1   H2B 4485   0.562   3.766   6.061 -0.9018  0.9394  2.4926
   45CHL1   C20 4486   0.776   3.955   5.139  0.3665 -0.3124 -0.0619
   45CHL1   H20 4487   0.671   3.921   5.125  0.9626 -1.8004 -1.2899
   45CHL1   C21 4488   0.864   3.834   5.136 -0.4863  0.3018 -0.5172
   45CHL1  H21A 4489   0.837   3.762   5.217 -0.0012 -0.2481 -0.8314
   45CHL1  H21B 4490   0.969   3.869   5.146 -0.0835 -0.7336 -0.9355
   45CHL1  H21C 4491   0.846   3.783   5.039 -0.4990  1.6990 -1.2680
   45CHL1   C22 4492   0.819   4.054   5.021  0.2601 -0.1066  0.1242
   45CHL1  H22A 4493   0.739   4.130   5.007 -1.2464 -1.2648  1.9217
   45CHL1  H22B 4494   0.911   4.105   5.058  0.2726 -1.7118  2.6252
   45CHL1   C23 4495   0.855   4.007   4.877  0.3102  0.5876 -0.2529
   45CHL1  H23A 4496   0.954   3.956   4.886  0.7151  1.1077 -1.5174
   45CHL1  H23B 4497   0.793   3.920   4.846  0.3837  0.4942 -0.1395
   45CHL1   C24 4498   0.843   4.114   4.775  0.0435  0.3119  0.1407
   45CHL1  H24A 4499   0.861   4.072   4.673 -0.9035  1.5189 -0.5569
   45CHL1  H24B 4500   0.740   4.154   4.784 -0.2739 -0.7450  1.3963
   45CHL1   C25 4501   0.942   4.233   4.799  0.1568 -0.0246  0.4635
   45CHL1   H25 4502   0.914   4.279   4.896 -1.1581 -1.3316  0.7502
   45CHL1   C26 4503   1.088   4.185   4.799  0.1644  0.5542  0.1248
   45CHL1  H26A 4504   1.112   4.107   4.724 -0.1796  1.2377 -0.7246
   45CHL1  H26B 4505   1.155   4.272   4.779 -0.3037  0.9192  0.1172
   45CHL1  H26C 4506   1.112   4.149   4.901 -1.4672 -0.8199  0.0517
   45CHL1   C27 4507   0.908   4.330   4.690 -0.9588  0.2117  0.3119
   45CHL1  H27A 4508   0.990   4.403   4.670 -1.8966  0.6000 -2.7054
   45CHL1  H27B 4509   0.880   4.277   4.596  1.9073 -0.4130 -0.2856
   45CHL1  H27C 4510   0.819   4.390   4.719 -1.0023 -0.4348  1.5542
   46CHL1    C3 4511   3.094   4.133   5.724  0.1407 -0.7042  0.3704
   46CHL1    H3 4512   2.988   4.164   5.719  0.5992  1.2367  1.5435
   46CHL1    O3 4513   3.142   4.120   5.857 -0.3215  0.3319 -0.0307
   46CHL1   H3' 4514   3.100   4.042   5.893  2.6801 -1.7776 -0.6546
   46CHL1    C4 4515   3.121   4.003   5.655  0.4312  0.0828  0.9210
   46CHL1   H4A 4516   3.224   3.971   5.680  0.0923  0.6371  3.2989
   46CHL1   H4B 4517   3.066   3.921   5.706  0.8716 -1.5993 -1.1730
   46CHL1    C5 4518   3.090   4.007   5.508 -0.2315 -0.4925  1.1177
   46CHL1    C6 4519   2.993   3.939   5.449 -0.5355 -0.1715  0.6352
   46CHL1    H6 4520   2.933   3.873   5.514 -2.0089  0.8818  0.3854
   46CHL1    C7 4521   2.959   3.929   5.299 -0.4530 -0.6099  0.0137
   46CHL1   H7A 4522   2.959   3.826   5.257 -0.1392 -1.0960  1.1486
   46CHL1   H7B 4523   2.863   3.984   5.291  1.0033  2.0327 -0.4753
   46CHL1    C8 4524   3.067   4.004   5.219 -0.0769  0.1430 -0.0054
   46CHL1    H8 4525   3.155   3.937   5.212  1.3312  2.0372 -1.4261
   46CHL1   C14 4526   3.026   4.023   5.076 -0.0300  0.1537  0.4836
   46CHL1   H14 4527   2.934   4.084   5.086  1.0488  1.9842 -0.2108
   46CHL1   C15 4528   2.980   3.897   4.996 -0.0969  0.2330 -0.4632
   46CHL1  H15A 4529   3.051   3.816   5.023  0.3459  0.5428 -0.6983
   46CHL1  H15B 4530   2.882   3.859   5.034  1.5514 -0.6796  3.3810
   46CHL1   C16 4531   2.978   3.939   4.853  0.4983  0.9827  0.7091
   46CHL1  H16A 4532   3.021   3.859   4.788  1.1065  3.0742 -1.5998
   46CHL1  H16B 4533   2.878   3.963   4.811  0.0259  1.9308  2.3219
   46CHL1   C17 4534   3.066   4.071   4.839 -0.6285  0.0289  0.3289
   46CHL1   H17 4535   2.989   4.151   4.828 -2.0224 -1.4420 -1.0044
   46CHL1   C13 4536   3.125   4.088   4.985 -0.4177  0.7248 -0.7795
   46CHL1   C18 4537   3.257   4.005   4.987 -0.8092 -0.4266  0.2294
   46CHL1  H18A 4538   3.325   4.064   4.922 -1.5009  0.6752  0.4580
   46CHL1  H18B 4539   3.308   4.009   5.085  2.8380 -0.1644 -1.5107
   46CHL1  H18C 4540   3.242   3.905   4.942 -0.2711 -1.0252  1.3698
   46CHL1   C12 4541   3.149   4.234   5.050 -0.3978 -0.6878  0.1814
   46CHL1  H12A 4542   3.217   4.289   4.982 -2.0919  1.6604  0.2742
   46CHL1  H12B 4543   3.047   4.277   5.048 -0.1181 -0.0373 -0.6587
   46CHL1   C11 4544   3.199   4.228   5.198  0.1566 -0.4978  0.4220
   46CHL1  H11A 4545   3.304   4.193   5.191 -0.2701 -1.3763 -3.2028
   46CHL1  H11B 4546   3.204   4.330   5.242  2.2578 -1.1591  1.9331
   46CHL1    C9 4547   3.115   4.139   5.280  0.0777 -0.5011  0.1483
   46CHL1    H9 4548   3.019   4.193   5.293 -0.0727 -0.6599 -0.2833
   46CHL1   C10 4549   3.169   4.118   5.432 -0.4534 -0.1093  0.1493
   46CHL1   C19 4550   3.307   4.058   5.418  0.2072  0.0204  0.1571
   46CHL1  H19A 4551   3.348   4.058   5.521  0.1523  1.1016  0.1906
   46CHL1  H19B 4552   3.308   3.955   5.377  3.3555 -0.8790  2.1133
   46CHL1  H19C 4553   3.377   4.122   5.360 -0.5974  2.1491  1.4238
   46CHL1    C1 4554   3.168   4.247   5.507  0.0087 -0.6453 -0.5444
   46CHL1   H1A 4555   3.253   4.310   5.474  0.5162 -0.9069  0.2339
   46CHL1   H1B 4556   3.076   4.299   5.474 -0.2611  0.2977  1.5544
   46CHL1    C2 4557   3.177   4.244   5.663  0.4210 -0.1935 -0.0077
   46CHL1   H2A 4558   3.142   4.343   5.700  2.2935  1.1483 -1.5921
   46CHL1   H2B 4559   3.286   4.235   5.683  1.2274  0.9468 -3.2474
   46CHL1   C20 4560   3.151   4.085   4.711  0.0789 -0.6407 -0.6249
   46CHL1   H20 4561   3.244   4.025   4.712  1.4457  1.3666 -0.7486
   46CHL1   C21 4562   3.185   4.232   4.695  0.2041 -0.4782  0.2385
   46CHL1  H21A 4563   3.103   4.305   4.679  1.2658  0.9647  1.0988
   46CHL1  H21B 4564   3.262   4.243   4.616 -1.6044  0.3174 -1.4933
   46CHL1  H21C 4565   3.238   4.251   4.791 -0.9701 -1.3343  1.0748
   46CHL1   C22 4566   3.087   4.031   4.572 -0.7051 -0.1685 -0.4757
   46CHL1  H22A 4567   3.068   3.922   4.574 -0.0154 -0.3096 -1.0847
   46CHL1  H22B 4568   2.988   4.080   4.557 -0.4913  0.6923  0.7571
   46CHL1   C23 4569   3.166   4.061   4.443 -0.3206  0.0238 -0.0170
   46CHL1  H23A 4570   3.188   4.169   4.429  0.0518  0.3752  2.6999
   46CHL1  H23B 4571   3.266   4.015   4.463  0.4836  1.4948 -0.4885
   46CHL1   C24 4572   3.120   4.002   4.311 -0.0374 -0.3437 -0.8558
   46CHL1  H24A 4573   3.076   3.902   4.330  0.8921 -0.7435 -0.7649
   46CHL1  H24B 4574   3.041   4.064   4.263 -0.6948 -0.1227  0.4750
   46CHL1   C25 4575   3.238   3.987   4.215 -0.1157 -0.1829  0.0795
   46CHL1   H25 4576   3.310   3.920   4.266  1.3518  2.4927  1.8042
   46CHL1   C26 4577   3.202   3.918   4.082  0.1914 -0.2616  0.4695
   46CHL1  H26A 4578   3.173   3.811   4.093 -0.0132 -0.4320 -1.4701
   46CHL1  H26B 4579   3.113   3.966   4.037 -1.0370 -1.2926  1.6965
   46CHL1  H26C 4580   3.292   3.917   4.017 -0.3110 -0.1019 -0.2359
   46CHL1   C27 4581   3.316   4.113   4.201 -0.0532  0.5971 -0.0846
   46CHL1  H27A 4582   3.256   4.191   4.149 -0.8079 -0.8015 -1.3899
   46CHL1  H27B 4583   3.344   4.162   4.296 -1.1664 -0.9606  1.1018
   46CHL1  H27C 4584   3.400   4.099   4.129 -0.8740  0.5392 -1.0506
   47CHL1    C3 4585   6.555   3.788   6.124 -0.9831  0.2930 -0.2029
   47CHL1    H3 4586   6.646   3.729   6.098 -1.6274 -0.6236 -0.3975
   47CHL1    O3 4587   6.551   3.807   6.265  0.0919  0.1680  0.0947
   47CHL1   H3' 4588   6.615   3.746   6.303  2.8820  2.0702 -1.1912
   47CHL1    C4 4589   6.550   3.920   6.054 -0.2668  0.6206 -0.5386
   47CHL1   H4A 4590   6.458   3.976   6.082 -1.9127 -1.2253 -1.9595
   47CHL1   H4B 4591   6.634   3.989   6.075  0.1100 -0.0033  0.0608
   47CHL1    C5 4592   6.535   3.900   5.902  0.1780  0.4024 -0.4150
   47CHL1    C6 4593   6.627   3.949   5.815  0.5866 -0.2746 -0.2143
   47CHL1    H6 4594   6.721   4.000   5.840  0.5535  0.1310 -0.8858
   47CHL1    C7 4595   6.623   3.944   5.667  0.2332  0.0505 -0.4933
   47CHL1   H7A 4596   6.650   4.045   5.630 -1.3570  0.1478 -1.4734
   47CHL1   H7B 4597   6.700   3.873   5.629  1.5276  1.1171  0.0541
   47CHL1    C8 4598   6.479   3.905   5.609  0.5646  0.5000 -0.2510
   47CHL1    H8 4599   6.401   3.984   5.617 -0.6373 -0.5018 -1.5137
   47CHL1   C14 4600   6.483   3.868   5.462  0.4993 -0.7360  0.1241
   47CHL1   H14 4601   6.536   3.772   5.445 -1.3420 -1.5693 -1.2888
   47CHL1   C15 4602   6.548   3.964   5.357 -0.3936 -0.0949 -0.7858
   47CHL1  H15A 4603   6.496   4.061   5.376 -1.1296 -0.7755  0.9316
   47CHL1  H15B 4604   6.658   3.972   5.361 -0.3860 -0.3854 -0.3920
   47CHL1   C16 4605   6.497   3.907   5.224  0.0289 -0.0680  0.2415
   47CHL1  H16A 4606   6.450   3.982   5.158 -2.1214 -2.9461 -1.7508
   47CHL1  H16B 4607   6.587   3.874   5.167  0.8441  1.6684  0.4562
   47CHL1   C17 4608   6.393   3.803   5.255  0.1939 -0.1891  0.1520
   47CHL1   H17 4609   6.451   3.708   5.259 -0.5055 -0.5884  1.9233
   47CHL1   C13 4610   6.350   3.822   5.400 -0.2442  0.0144 -0.2337
   47CHL1   C18 4611   6.250   3.944   5.407 -0.6662  0.0698 -0.3192
   47CHL1  H18A 4612   6.149   3.920   5.367 -1.8614  1.6801  1.5431
   47CHL1  H18B 4613   6.233   3.981   5.511  0.9708  1.3374 -0.4530
   47CHL1  H18C 4614   6.296   4.028   5.351 -0.3384 -1.1513 -1.9555
   47CHL1   C12 4615   6.305   3.698   5.483  0.5180 -0.5466  0.1678
   47CHL1  H12A 4616   6.209   3.659   5.443  0.7402  0.4718 -1.4805
   47CHL1  H12B 4617   6.380   3.616   5.480  0.9893 -0.1678  1.3052
   47CHL1   C11 4618   6.293   3.735   5.628  0.0204 -0.2623 -0.0152
   47CHL1  H11A 4619   6.211   3.811   5.625  1.0148  0.8057 -1.1204
   47CHL1  H11B 4620   6.272   3.642   5.685 -1.6651  0.4825  0.6669
   47CHL1    C9 4621   6.424   3.791   5.693  0.3320 -0.0265  0.2073
   47CHL1    H9 4622   6.496   3.707   5.687  1.3295  0.7905  0.5871
   47CHL1   C10 4623   6.416   3.822   5.848  0.2292 -0.5777 -0.0659
   47CHL1   C19 4624   6.284   3.892   5.871 -0.3475 -0.0541  0.1355
   47CHL1  H19A 4625   6.277   3.975   5.797  1.0694 -0.6454 -0.7010
   47CHL1  H19B 4626   6.194   3.826   5.867 -0.3044 -0.0709 -0.8477
   47CHL1  H19C 4627   6.284   3.927   5.976  1.0619 -0.4475  0.2820
   47CHL1    C1 4628   6.426   3.694   5.930 -0.3840  0.2488 -0.2731
   47CHL1   H1A 4629   6.343   3.621   5.923  2.2348 -2.9243 -0.7410
   47CHL1   H1B 4630   6.519   3.636   5.911 -0.5294 -0.9555  2.2407
   47CHL1    C2 4631   6.431   3.704   6.080 -0.1936 -0.1505 -0.8383
   47CHL1   H2A 4632   6.443   3.602   6.123  0.3751 -0.5203 -1.8554
   47CHL1   H2B 4633   6.342   3.750   6.128  0.0057  0.2507 -0.8517
   47CHL1   C20 4634   6.291   3.789   5.148  0.5597  0.4643  0.1201
   47CHL1   H20 4635   6.215   3.870   5.149 -0.5981 -0.5888  1.0480
   47CHL1   C21 4636   6.211   3.654   5.163 -0.0241 -0.2603 -0.2850
   47CHL1  H21A 4637   6.279   3.565   5.159  0.4502 -0.1425  2.9586
   47CHL1  H21B 4638   6.140   3.631   5.081  0.2832 -1.1542 -0.3130
   47CHL1  H21C 4639   6.151   3.654   5.256  0.1905  1.2909 -0.1188
   47CHL1   C22 4640   6.350   3.780   5.002  0.1464  0.0568 -0.1342
   47CHL1  H22A 4641   6.431   3.853   4.981 -1.2244  1.5193 -0.4682
   47CHL1  H22B 4642   6.401   3.683   4.981  2.7281  1.3851 -0.3972
   47CHL1   C23 4643   6.246   3.793   4.882 -0.6016 -0.1393  0.1193
   47CHL1  H23A 4644   6.178   3.706   4.872 -1.2729  0.2884  0.8421
   47CHL1  H23B 4645   6.194   3.884   4.919 -0.0913  0.9431 -1.7326
   47CHL1   C24 4646   6.305   3.818   4.738 -1.1861  0.2039 -0.6989
   47CHL1  H24A 4647   6.383   3.897   4.743 -0.9139  0.0387 -1.9039
   47CHL1  H24B 4648   6.344   3.720   4.703 -2.3368 -0.3371 -0.5194
   47CHL1   C25 4649   6.208   3.873   4.631  0.0015  0.2852  0.1162
   47CHL1   H25 4650   6.145   3.955   4.673  1.9510  2.3616 -0.7518
   47CHL1   C26 4651   6.289   3.938   4.518 -0.3286 -0.7861 -0.1485
   47CHL1  H26A 4652   6.360   3.867   4.471  1.1020 -0.4736  1.4450
   47CHL1  H26B 4653   6.223   3.969   4.434 -0.6720 -0.5347  0.2118
   47CHL1  H26C 4654   6.338   4.027   4.563 -1.5754 -1.2389  2.3149
   47CHL1   C27 4655   6.112   3.773   4.582 -0.7085  0.2068 -0.1033
   47CHL1  H27A 4656   6.048   3.735   4.665 -0.0967  0.7423  0.6246
   47CHL1  H27B 4657   6.042   3.818   4.509 -1.0979 -1.0537 -0.5449
   47CHL1  H27C 4658   6.158   3.687   4.529  0.5283  2.2042 -2.4596
   48CHL1    C3 4659   3.688   5.710   5.856 -0.2965 -0.3644  0.6397
   48CHL1    H3 4660   3.594   5.727   5.800  1.4802  0.3122 -2.3725
   48CHL1    O3 4661   3.682   5.700   5.991 -0.5045  0.2271 -0.6849
   48CHL1   H3' 4662   3.695   5.788   6.027 -0.2472 -0.1597  0.2076
   48CHL1    C4 4663   3.736   5.574   5.800 -0.6710  0.6083  0.0468
   48CHL1   H4A 4664   3.826   5.556   5.862 -0.9424 -1.3818 -0.0757
   48CHL1   H4B 4665   3.659   5.503   5.836 -1.9724  1.7739 -0.3316
   48CHL1    C5 4666   3.767   5.580   5.651  0.3733  0.9874 -0.3535
   48CHL1    C6 4667   3.700   5.496   5.570  0.0924  0.7297 -0.0697
   48CHL1    H6 4668   3.626   5.427   5.611 -0.6564  2.3131  1.3579
   48CHL1    C7 4669   3.725   5.477   5.425 -0.2594 -0.5868 -0.5852
   48CHL1   H7A 4670   3.753   5.371   5.409  2.1432 -0.1370  0.2363
   48CHL1   H7B 4671   3.635   5.503   5.364  0.2573  2.0473 -0.3285
   48CHL1    C8 4672   3.846   5.564   5.380 -0.6645 -0.2254  0.6560
   48CHL1    H8 4673   3.940   5.508   5.398  0.1096  1.0016  0.5458
   48CHL1   C14 4674   3.841   5.586   5.220  0.8569 -0.2448 -0.3591
   48CHL1   H14 4675   3.750   5.648   5.211  0.5717 -0.5887  0.1416
   48CHL1   C15 4676   3.830   5.463   5.129  0.1012  0.7190 -0.3253
   48CHL1  H15A 4677   3.891   5.373   5.152  1.0988  0.6078 -3.0267
   48CHL1  H15B 4678   3.724   5.433   5.135 -0.1332  1.7832  1.8892
   48CHL1   C16 4679   3.862   5.515   4.990 -0.3403 -0.2133  0.0846
   48CHL1  H16A 4680   3.942   5.451   4.948  1.0604 -0.2732  2.5905
   48CHL1  H16B 4681   3.767   5.512   4.934 -1.0838 -0.5930  1.3174
   48CHL1   C17 4682   3.910   5.667   5.012  0.5846 -0.1967  0.2684
   48CHL1   H17 4683   3.815   5.724   5.001  0.6927  0.4655  2.2729
   48CHL1   C13 4684   3.947   5.676   5.159  0.0690  0.1241 -0.0195
   48CHL1   C18 4685   4.089   5.615   5.164  0.1856  0.2186  0.5048
   48CHL1  H18A 4686   4.122   5.571   5.261  0.5540  1.2086  0.8410
   48CHL1  H18B 4687   4.105   5.539   5.085  1.0518  0.0049  0.8664
   48CHL1  H18C 4688   4.159   5.701   5.155 -0.4208  0.8276  1.4654
   48CHL1   C12 4689   3.930   5.811   5.224 -0.4064 -0.6118  0.4392
   48CHL1  H12A 4690   4.007   5.882   5.187 -1.8564  0.7002 -0.1873
   48CHL1  H12B 4691   3.831   5.853   5.194  0.9931  1.3067 -1.7856
   48CHL1   C11 4692   3.945   5.799   5.377  0.4130 -0.3198 -0.2754
   48CHL1  H11A 4693   4.051   5.772   5.394  1.0652  2.1216 -0.0231
   48CHL1  H11B 4694   3.941   5.902   5.420  0.2153 -0.1864 -0.6057
   48CHL1    C9 4695   3.842   5.702   5.447 -0.1373 -0.2357 -0.1056
   48CHL1    H9 4696   3.743   5.747   5.423  0.8909  1.4636 -1.2794
   48CHL1   C10 4697   3.857   5.685   5.599  0.6045  0.4426 -0.1244
   48CHL1   C19 4698   3.996   5.628   5.635  0.5883 -0.1091  0.3918
   48CHL1  H19A 4699   4.018   5.535   5.576 -1.2994  0.2995 -1.0603
   48CHL1  H19B 4700   4.072   5.706   5.617 -0.0633  0.0981 -1.7602
   48CHL1  H19C 4701   3.991   5.604   5.743  0.2105  1.0963  0.6458
   48CHL1    C1 4702   3.818   5.821   5.665  0.2133  0.6403 -0.5618
   48CHL1   H1A 4703   3.905   5.890   5.662 -0.7780  2.0748  1.2453
   48CHL1   H1B 4704   3.736   5.880   5.617  1.2437  2.0887 -0.6316
   48CHL1    C2 4705   3.788   5.823   5.823  0.3084  0.6651  0.4187
   48CHL1   H2A 4706   3.746   5.923   5.848  2.9414  2.7166 -2.4785
   48CHL1   H2B 4707   3.887   5.810   5.873  1.3397  2.4900 -0.9988
   48CHL1   C20 4708   4.014   5.707   4.901 -0.5051  0.2715  0.9308
   48CHL1   H20 4709   4.113   5.659   4.920  1.0553  2.1833 -1.7000
   48CHL1   C21 4710   4.029   5.861   4.899  0.3714  0.0652 -0.2522
   48CHL1  H21A 4711   4.096   5.911   4.825 -0.5561  1.4495 -0.1782
   48CHL1  H21B 4712   3.926   5.900   4.886  0.8358  1.1458 -0.7919
   48CHL1  H21C 4713   4.080   5.895   4.991 -0.6704  0.2568  0.2591
   48CHL1   C22 4714   3.968   5.650   4.759  0.3882 -0.5465 -0.2237
   48CHL1  H22A 4715   3.975   5.539   4.766  0.3924 -0.7295 -2.4837
   48CHL1  H22B 4716   3.863   5.673   4.733  0.8496  0.9296 -0.8751
   48CHL1   C23 4717   4.069   5.678   4.640  0.0792 -0.2033 -0.7679
   48CHL1  H23A 4718   4.081   5.789   4.634  0.4025 -0.0604  1.4990
   48CHL1  H23B 4719   4.171   5.638   4.658 -0.5788 -1.0372  1.5029
   48CHL1   C24 4720   4.012   5.634   4.507 -0.2460  0.0580 -0.1154
   48CHL1  H24A 4721   4.013   5.524   4.518  2.0381  0.1164  0.9731
   48CHL1  H24B 4722   3.907   5.668   4.496 -0.3390  0.3320  1.4146
   48CHL1   C25 4723   4.096   5.671   4.379  0.0099  0.0962  0.0827
   48CHL1   H25 4724   4.202   5.661   4.411  0.2272 -1.5198 -1.0502
   48CHL1   C26 4725   4.081   5.564   4.267 -0.3204  0.1938 -0.2003
   48CHL1  H26A 4726   4.086   5.462   4.312  0.9932  0.1745 -0.3648
   48CHL1  H26B 4727   3.981   5.581   4.222 -0.5102  2.0087  0.8532
   48CHL1  H26C 4728   4.148   5.573   4.179 -1.3217  1.8851 -0.8211
   48CHL1   C27 4729   4.069   5.810   4.329 -0.1742 -0.0381  0.0837
   48CHL1  H27A 4730   3.960   5.823   4.315 -0.0020  0.7528 -0.5979
   48CHL1  H27B 4731   4.105   5.890   4.397 -2.6007 -0.1447  1.5964
   48CHL1  H27C 4732   4.120   5.823   4.231  1.6842 -1.2976  0.8225
   49CHL1    C3 4733   3.702   5.433   2.495 -0.0357  0.5417 -0.0638
   49CHL1    H3 4734   3.809   5.401   2.500  0.5059  1.8812 -2.0494
   49CHL1    O3 4735   3.643   5.419   2.369  0.0911 -0.7146  0.4995
   49CHL1   H3' 4736   3.679   5.487   2.312 -0.9151 -0.8916 -0.3819
   49CHL1    C4 4737   3.618   5.350   2.591  0.2724  0.5307  0.7870
   49CHL1   H4A 4738   3.510   5.363   2.567  0.5710 -1.1940 -1.8735
   49CHL1   H4B 4739   3.625   5.240   2.580 -3.5850  0.2483 -0.3400
   49CHL1    C5 4740   3.659   5.387   2.735 -0.1558  0.4490 -0.5958
   49CHL1    C6 4741   3.714   5.289   2.813 -0.0647  0.1343  0.8138
   49CHL1    H6 4742   3.723   5.184   2.783  0.6309  0.1619  0.9120
   49CHL1    C7 4743   3.737   5.319   2.954  0.3048  0.0053 -0.5222
   49CHL1   H7A 4744   3.698   5.232   3.011  0.0728 -0.2948 -1.1204
   49CHL1   H7B 4745   3.845   5.343   2.965  0.1503  0.3122  0.3273
   49CHL1    C8 4746   3.661   5.439   3.016 -0.3156 -0.5420  0.3883
   49CHL1    H8 4747   3.556   5.411   3.036 -1.1659  1.1130 -1.3836
   49CHL1   C14 4748   3.724   5.471   3.150 -0.3588  0.3252  0.1765
   49CHL1   H14 4749   3.832   5.493   3.130 -0.5685  0.9959 -0.2547
   49CHL1   C15 4750   3.723   5.367   3.254  0.2009 -0.1063 -0.4887
   49CHL1  H15A 4751   3.628   5.311   3.251 -0.4432  0.9939 -1.1931
   49CHL1  H15B 4752   3.803   5.291   3.246 -1.1279 -1.6896  0.5685
   49CHL1   C16 4753   3.754   5.438   3.386  0.4354 -0.2867 -0.0912
   49CHL1  H16A 4754   3.687   5.396   3.464 -0.9604 -0.0646 -1.1342
   49CHL1  H16B 4755   3.857   5.417   3.423  0.4424 -0.5667 -0.2685
   49CHL1   C17 4756   3.735   5.589   3.349  0.3142 -0.8551 -0.2850
   49CHL1   H17 4757   3.831   5.642   3.333 -1.6466  3.2792  0.4329
   49CHL1   C13 4758   3.659   5.594   3.215  0.3962  1.0445 -0.8129
   49CHL1   C18 4759   3.505   5.575   3.236 -0.2192 -0.1664  0.2304
   49CHL1  H18A 4760   3.482   5.479   3.286 -0.1381 -0.1618  0.2778
   49CHL1  H18B 4761   3.456   5.663   3.284 -1.9285 -1.1302  0.3287
   49CHL1  H18C 4762   3.459   5.563   3.136 -2.3839 -3.7361  1.4610
   49CHL1   C12 4763   3.691   5.723   3.126 -0.3813  0.5422  0.2767
   49CHL1  H12A 4764   3.636   5.806   3.176 -2.7364  0.8844 -2.6072
   49CHL1  H12B 4765   3.798   5.753   3.125  0.0952 -1.0767  0.4264
   49CHL1   C11 4766   3.637   5.699   2.989 -0.2931 -0.1292  0.3258
   49CHL1  H11A 4767   3.528   5.717   2.982  0.2633  4.6787  0.6613
   49CHL1  H11B 4768   3.683   5.781   2.929 -0.9113 -0.9147 -1.2923
   49CHL1    C9 4769   3.679   5.558   2.925 -0.0161 -0.3188  0.2412
   49CHL1    H9 4770   3.790   5.571   2.928  0.0485 -1.0416  2.6854
   49CHL1   C10 4771   3.626   5.532   2.777 -0.8356  0.3462  0.4608
   49CHL1   C19 4772   3.471   5.559   2.756 -0.0602  0.3480 -0.5771
   49CHL1  H19A 4773   3.425   5.524   2.661 -1.9421 -0.6185  0.6286
   49CHL1  H19B 4774   3.400   5.532   2.837 -0.8168  0.9736 -1.0129
   49CHL1  H19C 4775   3.460   5.670   2.749  0.4897  0.3682 -1.2429
   49CHL1    C1 4776   3.710   5.612   2.676 -0.3873 -0.2973  0.1802
   49CHL1   H1A 4777   3.680   5.718   2.693 -2.6067 -0.8328 -0.1269
   49CHL1   H1B 4778   3.818   5.604   2.698 -0.2060  1.2060 -0.0247
   49CHL1    C2 4779   3.686   5.578   2.531  0.0820  0.2984 -0.3771
   49CHL1   H2A 4780   3.761   5.631   2.468 -2.4865 -0.3454 -4.3082
   49CHL1   H2B 4781   3.586   5.621   2.509  0.0480  0.6391  0.4386
   49CHL1   C20 4782   3.680   5.673   3.469  0.9516  0.3567  0.0192
   49CHL1   H20 4783   3.579   5.629   3.484  0.3247  0.9706 -2.0921
   49CHL1   C21 4784   3.668   5.825   3.448  0.0943 -0.3162 -0.3511
   49CHL1  H21A 4785   3.752   5.875   3.394 -0.2321  1.7524  0.9262
   49CHL1  H21B 4786   3.640   5.885   3.537  2.9393 -0.0359  0.4785
   49CHL1  H21C 4787   3.578   5.837   3.384  0.5057  1.0913 -0.6966
   49CHL1   C22 4788   3.771   5.645   3.591 -0.4946 -0.3019  0.2546
   49CHL1  H22A 4789   3.778   5.539   3.620 -2.1144 -0.0196  1.8900
   49CHL1  H22B 4790   3.871   5.692   3.577 -0.3902 -0.2391  1.1275
   49CHL1   C23 4791   3.706   5.711   3.716  0.1006  0.5013  0.4926
   49CHL1  H23A 4792   3.725   5.820   3.712  0.3422  0.4283 -0.5262
   49CHL1  H23B 4793   3.598   5.686   3.721 -0.0646  0.1690 -2.6583
   49CHL1   C24 4794   3.758   5.662   3.845  0.0848  0.3337 -0.3474
   49CHL1  H24A 4795   3.731   5.556   3.862  1.7466 -0.2048 -0.8654
   49CHL1  H24B 4796   3.868   5.676   3.855 -0.0888  1.2655  0.3686
   49CHL1   C25 4797   3.697   5.735   3.971 -0.3256 -0.0531  0.1787
   49CHL1   H25 4798   3.698   5.844   3.951 -1.7277 -0.0342  0.1401
   49CHL1   C26 4799   3.551   5.696   3.997  0.3317 -0.2927  0.6112
   49CHL1  H26A 4800   3.542   5.589   4.024 -3.0099 -0.7473 -1.6510
   49CHL1  H26B 4801   3.504   5.757   4.078  0.1399  0.1906  0.1455
   49CHL1  H26C 4802   3.480   5.719   3.914  2.3097  1.0922 -0.8180
   49CHL1   C27 4803   3.789   5.703   4.087  0.2610 -0.2443 -0.3357
   49CHL1  H27A 4804   3.763   5.757   4.181  0.8292 -1.6391  0.6663
   49CHL1  H27B 4805   3.794   5.593   4.094 -0.0550 -0.2290  0.2135
   49CHL1  H27C 4806   3.895   5.729   4.065  0.2573 -0.8951 -1.1654
   50CHL1    C3 4807   0.089   1.429   2.658 -0.1163  0.2343 -0.8329
   50CHL1    H3 4808   0.017   1.435   2.742  2.7711  2.5219  1.7296
   50CHL1    O3 4809   0.024   1.417   2.533 -0.4097  0.4759 -0.4117
   50CHL1   H3' 4810  -0.030   1.338   2.542  0.0467 -0.2358 -2.9556
   50CHL1    C4 4811   0.180   1.552   2.672 -0.0788 -0.6016 -0.2953
   50CHL1   H4A 4812   0.252   1.545   2.587  0.3418  1.3834 -0.1503
   50CHL1   H4B 4813   0.123   1.644   2.648  0.4615  0.0821  0.9533
   50CHL1    C5 4814   0.247   1.563   2.813  0.2579 -0.4108 -0.2640
   50CHL1    C6 4815   0.224   1.672   2.895 -0.2287  0.1488 -0.2478
   50CHL1    H6 4816   0.159   1.749   2.850 -0.4178  0.6395  0.8455
   50CHL1    C7 4817   0.281   1.680   3.038  0.0956  0.1228  0.1131
   50CHL1   H7A 4818   0.322   1.781   3.060 -1.5524  0.5563  1.4481
   50CHL1   H7B 4819   0.203   1.662   3.115 -1.7053 -0.7391 -1.7944
   50CHL1    C8 4820   0.388   1.573   3.079 -0.5771  0.1107  1.0112
   50CHL1    H8 4821   0.486   1.611   3.045  0.4776 -1.5936  2.0134
   50CHL1   C14 4822   0.395   1.546   3.226  0.3017  0.4406  0.8335
   50CHL1   H14 4823   0.298   1.494   3.245 -0.5153  0.0963 -3.3685
   50CHL1   C15 4824   0.397   1.665   3.318  0.2919 -0.7331  0.0585
   50CHL1  H15A 4825   0.456   1.748   3.277 -2.5205  1.2194 -0.3189
   50CHL1  H15B 4826   0.293   1.701   3.334 -0.1373 -1.4963 -0.9139
   50CHL1   C16 4827   0.451   1.608   3.447 -0.6856  0.3104 -0.1858
   50CHL1  H16A 4828   0.546   1.657   3.475 -1.1286 -0.5345  3.1545
   50CHL1  H16B 4829   0.382   1.619   3.533  0.2728 -0.2849  0.6795
   50CHL1   C17 4830   0.490   1.463   3.419  0.3962  0.0713 -0.2512
   50CHL1   H17 4831   0.402   1.398   3.442  1.3356 -0.7186  1.3001
   50CHL1   C13 4832   0.510   1.454   3.273  0.3513 -0.6130  0.1573
   50CHL1   C18 4833   0.645   1.520   3.236  0.5054 -0.9586 -0.8156
   50CHL1  H18A 4834   0.722   1.448   3.270 -0.5647 -1.1750  1.3264
   50CHL1  H18B 4835   0.659   1.525   3.126  0.2907  3.1021 -0.8275
   50CHL1  H18C 4836   0.650   1.618   3.289 -1.7895 -0.5486 -1.2405
   50CHL1   C12 4837   0.497   1.324   3.202  0.2753 -0.5203 -0.1972
   50CHL1  H12A 4838   0.585   1.257   3.210  0.7925  0.2162  0.4665
   50CHL1  H12B 4839   0.407   1.266   3.231 -0.4562 -0.2660 -1.8252
   50CHL1   C11 4840   0.479   1.336   3.048 -0.0814  0.2133  0.1301
   50CHL1  H11A 4841   0.569   1.377   2.997 -1.6168  2.1949 -1.1356
   50CHL1  H11B 4842   0.467   1.245   2.986 -0.8524  2.3057 -3.0352
   50CHL1    C9 4843   0.365   1.433   3.010  0.4036 -0.0133 -0.6351
   50CHL1    H9 4844   0.273   1.402   3.064 -0.2675  1.4129 -0.9157
   50CHL1   C10 4845   0.331   1.437   2.862  0.6160  0.2508  0.4353
   50CHL1   C19 4846   0.463   1.450   2.785  0.3297 -0.5498  0.4918
   50CHL1  H19A 4847   0.450   1.463   2.676  0.2175  0.2511  0.5933
   50CHL1  H19B 4848   0.528   1.534   2.818 -0.5087  1.8191 -3.2747
   50CHL1  H19C 4849   0.526   1.359   2.791  0.1369 -0.8735 -1.6476
   50CHL1    C1 4850   0.242   1.312   2.829  0.1782 -0.5349  0.3983
   50CHL1   H1A 4851   0.301   1.218   2.837  1.0978 -0.0899 -0.7492
   50CHL1   H1B 4852   0.159   1.299   2.902 -1.1996 -2.9498 -1.4379
   50CHL1    C2 4853   0.177   1.311   2.687 -0.2134  0.8859 -0.4582
   50CHL1   H2A 4854   0.111   1.222   2.681 -2.2924  2.2088  1.2777
   50CHL1   H2B 4855   0.263   1.298   2.618  0.3097  1.1546  0.1295
   50CHL1   C20 4856   0.598   1.402   3.505 -0.0313 -0.2282  0.4461
   50CHL1   H20 4857   0.701   1.413   3.465 -0.0468  0.2213  0.5256
   50CHL1   C21 4858   0.569   1.252   3.514  0.4315  0.3717 -0.1810
   50CHL1  H21A 4859   0.646   1.198   3.574  0.5360  0.1640 -0.4978
   50CHL1  H21B 4860   0.576   1.199   3.416  2.1747 -0.8773  0.5562
   50CHL1  H21C 4861   0.468   1.233   3.555  0.1370 -0.8715 -1.3993
   50CHL1   C22 4862   0.593   1.457   3.647  0.3357  0.0313 -0.5030
   50CHL1  H22A 4863   0.590   1.567   3.661 -0.4833  0.1342 -1.4025
   50CHL1  H22B 4864   0.500   1.417   3.693 -0.1397  1.2870 -0.3369
   50CHL1   C23 4865   0.718   1.419   3.734 -0.0146 -0.4313 -0.1625
   50CHL1  H23A 4866   0.714   1.312   3.764  0.3813 -0.0403  1.3970
   50CHL1  H23B 4867   0.812   1.434   3.677  0.7831  0.1463  1.2551
   50CHL1   C24 4868   0.732   1.513   3.860 -0.0465 -0.5086  0.0729
   50CHL1  H24A 4869   0.713   1.615   3.821  3.0164 -0.0880 -0.5710
   50CHL1  H24B 4870   0.655   1.498   3.938 -0.8640 -0.1500 -0.6444
   50CHL1   C25 4871   0.876   1.526   3.917 -0.1540  1.0810  1.5923
   50CHL1   H25 4872   0.946   1.536   3.831 -2.0636 -3.9970 -0.9488
   50CHL1   C26 4873   0.884   1.642   4.019 -0.8718 -0.5825  0.8874
   50CHL1  H26A 4874   0.989   1.651   4.055 -0.8321  0.7399  0.4910
   50CHL1  H26B 4875   0.859   1.740   3.974  0.5528 -0.9182 -0.7408
   50CHL1  H26C 4876   0.811   1.613   4.098 -0.5880 -3.8745  0.0699
   50CHL1   C27 4877   0.915   1.392   3.973  0.7404  0.7690  0.0227
   50CHL1  H27A 4878   0.936   1.323   3.888 -2.5470 -1.0533  0.4827
   50CHL1  H27B 4879   1.008   1.399   4.033  1.7256 -0.9874 -1.2234
   50CHL1  H27C 4880   0.832   1.339   4.026  0.5623  1.7919  0.7912
   51CHL1    C3 4881   6.823   2.941   2.458 -0.5643  0.1056  0.7604
   51CHL1    H3 4882   6.786   3.046   2.460  0.4293  0.5454 -1.3041
   51CHL1    O3 4883   6.813   2.891   2.321 -0.1580 -0.3152 -0.0151
   51CHL1   H3' 4884   6.889   2.838   2.296  0.8510  1.3759 -0.6755
   51CHL1    C4 4885   6.961   2.928   2.511 -0.9384  0.0701  0.1573
   51CHL1   H4A 4886   7.006   2.830   2.488 -0.1578  0.4970 -0.1860
   51CHL1   H4B 4887   7.029   2.984   2.443  1.7524 -2.2558  0.7134
   51CHL1    C5 4888   6.976   2.975   2.652 -0.3168  0.1648 -0.0257
   51CHL1    C6 4889   7.063   3.071   2.683 -0.5081 -0.4045 -0.0160
   51CHL1    H6 4890   7.129   3.117   2.609 -1.8376  2.2869  0.3588
   51CHL1    C7 4891   7.083   3.128   2.821 -1.3996 -0.3853  0.1388
   51CHL1   H7A 4892   7.191   3.135   2.845 -0.5076 -0.9613 -3.1497
   51CHL1   H7B 4893   7.057   3.235   2.837 -0.7374 -0.2103  0.0615
   51CHL1    C8 4894   7.016   3.039   2.922 -0.1686  0.6931  0.7442
   51CHL1    H8 4895   7.081   2.949   2.932  1.1698  1.7332  1.8503
   51CHL1   C14 4896   7.011   3.102   3.064  0.6969  0.2480  0.2238
   51CHL1   H14 4897   6.949   3.193   3.050 -0.7554 -0.8838 -0.9696
   51CHL1   C15 4898   7.140   3.125   3.132 -0.3433  0.4207 -0.4749
   51CHL1  H15A 4899   7.211   3.040   3.122  0.1677  0.8079 -0.2164
   51CHL1  H15B 4900   7.180   3.221   3.095 -0.7000  1.2891  1.2841
   51CHL1   C16 4901   7.102   3.147   3.291 -0.4137 -0.0328  0.4904
   51CHL1  H16A 4902   7.158   3.070   3.348 -3.1051 -1.7324  1.0411
   51CHL1  H16B 4903   7.137   3.248   3.322 -0.4521 -0.0927  0.7343
   51CHL1   C17 4904   6.949   3.120   3.297  0.5028 -0.0166 -0.0973
   51CHL1   H17 4905   6.899   3.218   3.282  1.8624  0.3388 -3.0034
   51CHL1   C13 4906   6.928   3.029   3.174  0.6146  0.3687  0.8032
   51CHL1   C18 4907   7.004   2.889   3.198 -0.1392 -0.0281  0.0206
   51CHL1  H18A 4908   6.936   2.826   3.259 -0.6472  0.2690 -0.2245
   51CHL1  H18B 4909   7.019   2.833   3.103  0.1313  1.2736 -0.7407
   51CHL1  H18C 4910   7.102   2.902   3.248  1.4994 -0.8455 -2.7653
   51CHL1   C12 4911   6.785   3.021   3.120  0.1864  0.5321  0.0816
   51CHL1  H12A 4912   6.728   2.965   3.197 -1.0567 -1.3568 -2.1129
   51CHL1  H12B 4913   6.740   3.122   3.108  1.2635  1.0587  0.3075
   51CHL1   C11 4914   6.791   2.924   3.001  0.2390  0.5749 -0.0909
   51CHL1  H11A 4915   6.835   2.829   3.039  1.5770  1.5257  0.8249
   51CHL1  H11B 4916   6.690   2.901   2.960  1.2102 -1.6613 -1.3998
   51CHL1    C9 4917   6.875   2.987   2.883 -0.1454 -0.2041  0.0712
   51CHL1    H9 4918   6.815   3.079   2.870 -1.2456 -0.7179  1.1960
   51CHL1   C10 4919   6.876   2.915   2.753  0.4463  0.1614 -0.0463
   51CHL1   C19 4920   6.916   2.759   2.775  0.8733 -0.0263  0.0618
   51CHL1  H19A 4921   6.836   2.709   2.833  1.5437  1.6460  2.5696
   51CHL1  H19B 4922   6.948   2.706   2.683  1.2186 -0.0991  0.2236
   51CHL1  H19C 4923   6.994   2.760   2.854 -0.6862  1.1466  1.6809
   51CHL1    C1 4924   6.733   2.905   2.693  0.8070  0.1113 -0.2081
   51CHL1   H1A 4925   6.673   2.838   2.758  1.5449 -0.0020  0.3730
   51CHL1   H1B 4926   6.675   2.999   2.705  1.2243  0.2441  0.8796
   51CHL1    C2 4927   6.729   2.858   2.547 -0.7365  0.1238 -0.3440
   51CHL1   H2A 4928   6.624   2.867   2.511 -1.6200  1.4705  2.2421
   51CHL1   H2B 4929   6.766   2.754   2.533 -0.6441  0.3710 -2.0906
   51CHL1   C20 4930   6.907   3.067   3.438 -0.0177 -0.9792  0.8498
   51CHL1   H20 4931   6.945   2.963   3.439  1.5478 -0.4722 -0.6612
   51CHL1   C21 4932   6.758   3.059   3.464  0.2279  0.2867  0.4663
   51CHL1  H21A 4933   6.715   2.969   3.414  2.0930 -0.4266  0.0747
   51CHL1  H21B 4934   6.710   3.145   3.413 -2.3779 -1.0755  0.4293
   51CHL1  H21C 4935   6.731   3.045   3.570  1.5145  0.3070  0.8146
   51CHL1   C22 4936   6.986   3.135   3.559 -0.5904  0.4394  0.8001
   51CHL1  H22A 4937   6.943   3.081   3.646  0.3336  0.3286  1.1991
   51CHL1  H22B 4938   7.093   3.105   3.557 -0.6146  0.3345 -1.3800
   51CHL1   C23 4939   6.968   3.280   3.582  0.8518 -0.3080 -0.1561
   51CHL1  H23A 4940   7.007   3.333   3.492  0.5023  0.2507  0.0156
   51CHL1  H23B 4941   6.859   3.299   3.587  1.0596  1.5322 -1.4326
   51CHL1   C24 4942   7.023   3.322   3.722  0.1147  0.2215  0.0408
   51CHL1  H24A 4943   6.990   3.248   3.797  0.8648  0.5940  0.7530
   51CHL1  H24B 4944   7.133   3.315   3.708 -0.1612 -2.1723 -1.5274
   51CHL1   C25 4945   6.980   3.458   3.778  0.2502 -0.3646  1.0266
   51CHL1   H25 4946   6.869   3.462   3.775  0.1769 -2.0769  0.4710
   51CHL1   C26 4947   7.027   3.479   3.913  0.2751  0.4828  0.2139
   51CHL1  H26A 4948   7.128   3.525   3.905  1.1198 -1.4665 -1.1125
   51CHL1  H26B 4949   6.945   3.530   3.968 -1.5242 -2.3845  0.4125
   51CHL1  H26C 4950   7.040   3.379   3.959  0.9648  0.2715 -0.4236
   51CHL1   C27 4951   7.020   3.580   3.684 -0.2447  0.4616 -0.3435
   51CHL1  H27A 4952   7.130   3.589   3.696 -0.4852  1.2290  1.6947
   51CHL1  H27B 4953   6.990   3.553   3.581 -0.6076  1.1535 -0.4225
   51CHL1  H27C 4954   6.967   3.674   3.709  0.7592  1.6463 -2.4253
   52CHL1    C3 4955   3.407   6.075   2.257 -0.5139  0.1480  0.1678
   52CHL1    H3 4956   3.301   6.105   2.246 -1.3023 -2.5364 -0.1393
   52CHL1    O3 4957   3.458   6.054   2.123 -0.4578 -0.4403  0.8625
   52CHL1   H3' 4958   3.545   6.016   2.140 -0.4410 -0.8012 -0.0021
   52CHL1    C4 4959   3.490   6.190   2.321  0.7247 -0.1989 -0.6915
   52CHL1   H4A 4960   3.595   6.158   2.306  0.5330 -1.5371  0.5477
   52CHL1   H4B 4961   3.474   6.279   2.258  0.9452  0.4986  0.2179
   52CHL1    C5 4962   3.476   6.201   2.471 -0.1461 -0.3996  0.1976
   52CHL1    C6 4963   3.445   6.325   2.524  0.2105 -0.6100 -0.4205
   52CHL1    H6 4964   3.448   6.411   2.455  1.7204 -0.1084  0.2321
   52CHL1    C7 4965   3.449   6.352   2.669  0.3914  0.1821 -0.2354
   52CHL1   H7A 4966   3.505   6.443   2.700  1.9472 -0.2255 -1.7291
   52CHL1   H7B 4967   3.347   6.378   2.706  0.8340  2.5658 -0.5480
   52CHL1    C8 4968   3.497   6.226   2.752  0.1645 -0.5449  0.4724
   52CHL1    H8 4969   3.608   6.223   2.739  0.0878 -0.6809 -0.2076
   52CHL1   C14 4970   3.446   6.251   2.894  0.1989 -0.4354  0.6820
   52CHL1   H14 4971   3.337   6.271   2.894  0.8677  4.5205  1.2330
   52CHL1   C15 4972   3.499   6.379   2.961  0.4074 -0.5440 -0.4102
   52CHL1  H15A 4973   3.607   6.403   2.945  1.1719 -2.1498  1.8532
   52CHL1  H15B 4974   3.447   6.472   2.928 -0.0578 -0.1016  1.4737
   52CHL1   C16 4975   3.481   6.357   3.108 -0.4642 -0.6116 -0.2622
   52CHL1  H16A 4976   3.578   6.376   3.160  0.0872 -1.0906 -1.0886
   52CHL1  H16B 4977   3.417   6.434   3.157  1.9562  0.3070  1.7370
   52CHL1   C17 4978   3.433   6.215   3.125  0.3593  0.3630 -0.0553
   52CHL1   H17 4979   3.323   6.228   3.124  0.5447  2.9359  1.5309
   52CHL1   C13 4980   3.489   6.146   2.995 -0.5892 -0.6033 -0.1667
   52CHL1   C18 4981   3.639   6.133   3.009 -0.4165 -0.5874  0.2937
   52CHL1  H18A 4982   3.697   6.097   2.921 -0.1736 -0.4770  0.4067
   52CHL1  H18B 4983   3.689   6.226   3.044 -0.4506  0.6070 -2.5550
   52CHL1  H18C 4984   3.653   6.054   3.086 -1.7040 -0.9572  0.1681
   52CHL1   C12 4985   3.418   6.022   2.940  0.4950 -0.4198 -0.0964
   52CHL1  H12A 4986   3.444   5.937   3.006  1.7884 -0.7423 -0.9912
   52CHL1  H12B 4987   3.310   6.047   2.933  0.8009  1.3462  0.7924
   52CHL1   C11 4988   3.455   5.985   2.789  0.1176  0.1397 -0.1415
   52CHL1  H11A 4989   3.558   5.943   2.789  0.0044 -0.2028 -2.0092
   52CHL1  H11B 4990   3.383   5.903   2.769 -0.3393  0.4697  0.1254
   52CHL1    C9 4991   3.435   6.094   2.697 -0.0523 -0.1722 -0.4287
   52CHL1    H9 4992   3.325   6.109   2.692 -0.0558  0.4578  0.9881
   52CHL1   C10 4993   3.481   6.074   2.554 -0.2286 -0.0127  0.1882
   52CHL1   C19 4994   3.625   6.012   2.556  0.1588  0.2985 -0.2313
   52CHL1  H19A 4995   3.625   5.908   2.595 -0.5348  0.5238  0.3848
   52CHL1  H19B 4996   3.647   6.012   2.447 -0.6440  2.8696 -0.4375
   52CHL1  H19C 4997   3.692   6.083   2.608  0.9142  0.0989 -0.8939
   52CHL1    C1 4998   3.387   5.974   2.485  0.4890  0.2834 -0.2789
   52CHL1   H1A 4999   3.390   5.879   2.542 -3.2479 -0.4896 -1.1057
   52CHL1   H1B 5000   3.280   6.001   2.495  0.9725  2.2726 -0.1423
   52CHL1    C2 5001   3.416   5.941   2.335 -0.7594 -0.0933 -0.5779
   52CHL1   H2A 5002   3.343   5.873   2.288 -1.1446  0.9124 -1.4888
   52CHL1   H2B 5003   3.516   5.896   2.319 -1.8706 -2.7699 -0.4140
   52CHL1   C20 5004   3.466   6.148   3.262  0.2854 -0.5422  0.5418
   52CHL1   H20 5005   3.575   6.130   3.273 -0.0855 -2.5699  1.2447
   52CHL1   C21 5006   3.401   6.011   3.262 -0.2257 -0.1012  0.2486
   52CHL1  H21A 5007   3.293   6.005   3.237 -0.6585  0.9190  1.7942
   52CHL1  H21B 5008   3.401   5.961   3.361 -2.1045 -1.4501 -0.3780
   52CHL1  H21C 5009   3.455   5.947   3.188  1.4697  1.1523  0.3414
   52CHL1   C22 5010   3.405   6.219   3.383  0.5369  0.5918 -0.3969
   52CHL1  H22A 5011   3.441   6.324   3.391 -0.8811  1.1119 -0.5271
   52CHL1  H22B 5012   3.294   6.228   3.387  0.4557 -0.6217  1.7661
   52CHL1   C23 5013   3.462   6.155   3.520 -0.4800 -0.6776 -0.2019
   52CHL1  H23A 5014   3.423   6.055   3.546  1.0827 -1.0264  1.0124
   52CHL1  H23B 5015   3.570   6.135   3.500  0.1745  1.6777  0.6832
   52CHL1   C24 5016   3.440   6.248   3.647  0.4694  0.3216 -0.7233
   52CHL1  H24A 5017   3.479   6.348   3.616 -2.5535  2.0056  0.4858
   52CHL1  H24B 5018   3.334   6.264   3.676  0.3491  1.1914 -1.5767
   52CHL1   C25 5019   3.524   6.194   3.769 -0.4094 -0.0492  0.3909
   52CHL1   H25 5020   3.631   6.182   3.742 -0.8242  0.5434 -1.6989
   52CHL1   C26 5021   3.520   6.305   3.873 -0.9219 -0.6263 -1.1862
   52CHL1  H26A 5022   3.568   6.276   3.969 -3.8809 -1.6045  0.1143
   52CHL1  H26B 5023   3.576   6.394   3.837 -1.0251 -0.7345 -1.6219
   52CHL1  H26C 5024   3.420   6.343   3.901 -0.1427  0.7425 -0.1614
   52CHL1   C27 5025   3.488   6.055   3.819 -0.0445 -0.4504  0.4236
   52CHL1  H27A 5026   3.495   5.988   3.730  2.9276 -0.4875  0.5662
   52CHL1  H27B 5027   3.553   6.013   3.899 -0.5976 -2.3109 -0.0442
   52CHL1  H27C 5028   3.383   6.048   3.855 -1.2527 -2.4207 -2.9991
   53CHL1    C3 5029   3.852   4.673   2.884  0.4280 -0.0199 -0.3869
   53CHL1    H3 5030   3.950   4.703   2.928  0.3213  1.5159 -1.1243
   53CHL1    O3 5031   3.875   4.597   2.772 -0.2565  0.5148  0.5235
   53CHL1   H3' 5032   3.792   4.552   2.754  0.4106 -0.9841  0.9969
   53CHL1    C4 5033   3.769   4.577   2.970 -0.6495 -0.1561  0.0248
   53CHL1   H4A 5034   3.678   4.568   2.907  0.2031  0.5559 -1.3797
   53CHL1   H4B 5035   3.816   4.479   2.990  1.8843  1.0377  0.3658
   53CHL1    C5 5036   3.725   4.640   3.098  0.8057  0.1192 -0.4088
   53CHL1    C6 5037   3.758   4.583   3.223 -0.3126  0.3182  1.0800
   53CHL1    H6 5038   3.794   4.479   3.215 -2.5607 -0.3970 -0.8186
   53CHL1    C7 5039   3.720   4.644   3.358  0.2983  0.0711 -0.0909
   53CHL1   H7A 5040   3.688   4.568   3.432  1.7664 -0.9325 -0.4238
   53CHL1   H7B 5041   3.806   4.701   3.400 -1.5595  0.5576  3.4360
   53CHL1    C8 5042   3.613   4.754   3.336 -0.4828 -0.5649 -0.5470
   53CHL1    H8 5043   3.512   4.713   3.317 -1.5267  1.0394  1.1758
   53CHL1   C14 5044   3.598   4.850   3.461  0.0210  1.0437  0.2491
   53CHL1   H14 5045   3.698   4.898   3.461 -0.3246  1.8567  2.0407
   53CHL1   C15 5046   3.583   4.776   3.602  0.2705  0.1195  0.7505
   53CHL1  H15A 5047   3.504   4.699   3.587 -0.4090  0.7141  1.1977
   53CHL1  H15B 5048   3.683   4.733   3.622  0.0909 -0.1971  0.9762
   53CHL1   C16 5049   3.548   4.896   3.689 -0.2264  0.3875 -0.2766
   53CHL1  H16A 5050   3.450   4.880   3.738 -0.6354  1.0591 -0.8487
   53CHL1  H16B 5051   3.628   4.908   3.765  0.3962 -1.3219 -0.6082
   53CHL1   C17 5052   3.521   5.012   3.598  0.0301  0.2497  0.9125
   53CHL1   H17 5053   3.609   5.079   3.595 -0.1804  0.5928  2.0742
   53CHL1   C13 5054   3.505   4.961   3.453  0.2998 -0.5268 -0.2720
   53CHL1   C18 5055   3.359   4.900   3.429  0.4824 -0.2609  0.5747
   53CHL1  H18A 5056   3.363   4.844   3.334  2.6386 -0.4535  0.7255
   53CHL1  H18B 5057   3.319   4.838   3.512  0.7611  0.0818  0.9712
   53CHL1  H18C 5058   3.291   4.980   3.392  1.5252  0.9000  1.0515
   53CHL1   C12 5059   3.552   5.053   3.334  0.2374 -0.6397 -0.5564
   53CHL1  H12A 5060   3.493   5.145   3.316  3.0264  1.3602 -0.1295
   53CHL1  H12B 5061   3.654   5.092   3.353 -0.6755  1.1164  1.1480
   53CHL1   C11 5062   3.549   4.973   3.208  0.4535  0.3622 -0.2303
   53CHL1  H11A 5063   3.447   4.938   3.180  1.1879 -0.5407 -1.9657
   53CHL1  H11B 5064   3.583   5.041   3.127 -0.8559  0.8720 -0.3689
   53CHL1    C9 5065   3.643   4.849   3.219 -0.2487  0.5714  0.6533
   53CHL1    H9 5066   3.739   4.904   3.236 -0.7723  0.9289  2.8258
   53CHL1   C10 5067   3.652   4.771   3.077  0.5459 -0.8062 -0.7366
   53CHL1   C19 5068   3.507   4.751   3.027  0.2806 -0.2296  0.5929
   53CHL1  H19A 5069   3.456   4.671   3.085  2.1943 -2.5395 -0.7328
   53CHL1  H19B 5070   3.451   4.846   3.011 -0.4170 -0.7783 -0.3372
   53CHL1  H19C 5071   3.514   4.717   2.921  1.2144  0.2097  0.5048
   53CHL1    C1 5072   3.720   4.868   2.972 -0.3565  0.6227  0.2256
   53CHL1   H1A 5073   3.657   4.958   2.955 -2.5541 -0.7111  0.9102
   53CHL1   H1B 5074   3.816   4.906   3.013  0.0957  0.3478 -0.5413
   53CHL1    C2 5075   3.763   4.797   2.842 -0.3583  0.4206 -0.2591
   53CHL1   H2A 5076   3.824   4.869   2.784  1.9931 -0.5948  0.8382
   53CHL1   H2B 5077   3.679   4.762   2.778 -0.3432  0.9138 -0.5536
   53CHL1   C20 5078   3.415   5.107   3.659 -0.2507  0.2181 -0.1241
   53CHL1   H20 5079   3.328   5.047   3.692  1.0933 -1.8664 -0.1820
   53CHL1   C21 5080   3.376   5.218   3.564 -0.2446  0.2845 -0.1186
   53CHL1  H21A 5081   3.311   5.294   3.612  1.2554  0.8195  1.1197
   53CHL1  H21B 5082   3.320   5.176   3.478  0.9977  0.5982 -1.0980
   53CHL1  H21C 5083   3.472   5.263   3.535 -0.8613  3.7877  2.6319
   53CHL1   C22 5084   3.475   5.171   3.784  0.0559  0.5742  0.2533
   53CHL1  H22A 5085   3.525   5.092   3.845 -1.9021 -0.6145  0.4121
   53CHL1  H22B 5086   3.559   5.240   3.764  0.6860  0.1643  1.3585
   53CHL1   C23 5087   3.372   5.227   3.874 -0.0217  0.4736 -0.3868
   53CHL1  H23A 5088   3.329   5.321   3.834 -1.5422  0.1400  0.3660
   53CHL1  H23B 5089   3.298   5.145   3.888  2.0598 -1.4036  0.4121
   53CHL1   C24 5090   3.426   5.261   4.014 -0.3788 -0.5137  0.0385
   53CHL1  H24A 5091   3.477   5.170   4.050 -0.1312 -1.0870 -1.6795
   53CHL1  H24B 5092   3.510   5.331   3.996 -1.5578  0.8288 -0.4553
   53CHL1   C25 5093   3.319   5.318   4.112 -0.0494 -0.2374 -0.2230
   53CHL1   H25 5094   3.270   5.406   4.068  0.2855  0.4857  0.8065
   53CHL1   C26 5095   3.212   5.214   4.151 -0.0037  0.0297 -0.0783
   53CHL1  H26A 5096   3.144   5.265   4.223 -2.4431 -1.9739 -0.8225
   53CHL1  H26B 5097   3.146   5.181   4.068 -0.5423  1.6973 -0.3483
   53CHL1  H26C 5098   3.261   5.123   4.192  0.8160  0.3419 -0.3443
   53CHL1   C27 5099   3.385   5.366   4.241  0.3987  0.2375  0.2321
   53CHL1  H27A 5100   3.308   5.407   4.309 -0.6964 -0.8393 -0.3041
   53CHL1  H27B 5101   3.443   5.285   4.290  1.3652  0.8366  0.1038
   53CHL1  H27C 5102   3.455   5.447   4.212 -0.7478  1.1656 -0.0320
   54CHL1    C3 5103   2.692   4.360   2.712  0.1856 -1.2609  0.4673
   54CHL1    H3 5104   2.792   4.408   2.710  0.7600 -2.3922 -2.2847
   54CHL1    O3 5105   2.681   4.317   2.578 -0.0466 -0.0233  0.0259
   54CHL1   H3' 5106   2.772   4.289   2.564 -0.3418 -0.8576 -0.2761
   54CHL1    C4 5107   2.669   4.239   2.804 -0.0630 -0.7581 -0.1815
   54CHL1   H4A 5108   2.576   4.184   2.778  0.7348 -1.3744 -1.9050
   54CHL1   H4B 5109   2.746   4.167   2.768 -0.5876 -1.4530  0.0568
   54CHL1    C5 5110   2.682   4.280   2.950  0.1932 -0.5137  0.2332
   54CHL1    C6 5111   2.778   4.219   3.027 -0.8462 -0.3256 -0.2140
   54CHL1    H6 5112   2.839   4.143   2.977 -1.7059 -1.3056  0.1987
   54CHL1    C7 5113   2.797   4.268   3.173  0.0069 -0.3048 -0.4398
   54CHL1   H7A 5114   2.810   4.184   3.244 -1.3315  1.2772  1.7964
   54CHL1   H7B 5115   2.892   4.325   3.181  0.0901 -0.5509  0.3863
   54CHL1    C8 5116   2.671   4.340   3.230  0.3617  0.2318 -0.3790
   54CHL1    H8 5117   2.585   4.269   3.232  0.2717  0.3205 -0.8845
   54CHL1   C14 5118   2.701   4.392   3.374 -0.1834 -0.5075  0.3690
   54CHL1   H14 5119   2.788   4.461   3.369 -1.0607  0.7050  1.1470
   54CHL1   C15 5120   2.731   4.290   3.480 -0.0754 -0.4128 -0.6676
   54CHL1  H15A 5121   2.665   4.202   3.469 -1.1562  0.2228  0.4403
   54CHL1  H15B 5122   2.838   4.260   3.476 -0.2704 -1.0884 -0.8695
   54CHL1   C16 5123   2.709   4.355   3.610 -0.2699  0.0104 -0.2249
   54CHL1  H16A 5124   2.654   4.292   3.684  0.7542 -0.9359 -0.2448
   54CHL1  H16B 5125   2.808   4.380   3.655 -0.7597  1.7301 -0.0247
   54CHL1   C17 5126   2.649   4.503   3.579  0.0348 -0.3104  0.4096
   54CHL1   H17 5127   2.740   4.566   3.571 -1.1018  1.3397  0.2187
   54CHL1   C13 5128   2.590   4.481   3.436  0.1805 -0.4296 -0.1988
   54CHL1   C18 5129   2.453   4.403   3.453  0.1677  0.3829 -0.3865
   54CHL1  H18A 5130   2.395   4.456   3.532  0.8068 -1.7950  1.6869
   54CHL1  H18B 5131   2.391   4.396   3.361  0.6333 -0.4724 -0.6446
   54CHL1  H18C 5132   2.476   4.297   3.479 -1.4599  0.0888  0.0042
   54CHL1   C12 5133   2.570   4.602   3.342 -0.0873  0.2364  0.2138
   54CHL1  H12A 5134   2.478   4.657   3.372 -1.1515 -0.6785 -1.2667
   54CHL1  H12B 5135   2.659   4.667   3.356  0.3799 -0.5542  0.9307
   54CHL1   C11 5136   2.533   4.556   3.199 -0.0717 -0.1733  0.1486
   54CHL1  H11A 5137   2.430   4.514   3.195 -0.4109  0.6551  0.1397
   54CHL1  H11B 5138   2.533   4.648   3.137  0.5923 -0.8016 -0.8139
   54CHL1    C9 5139   2.633   4.459   3.138 -0.0716  0.0241  0.0323
   54CHL1    H9 5140   2.725   4.519   3.127  1.5496 -2.6671 -2.6464
   54CHL1   C10 5141   2.594   4.410   2.993  0.3485 -0.0047 -0.2420
   54CHL1   C19 5142   2.445   4.367   2.995 -0.2692  0.2867 -0.7273
   54CHL1  H19A 5143   2.375   4.448   3.023  1.4815  1.1381  1.4969
   54CHL1  H19B 5144   2.413   4.317   2.901  0.6105 -0.2708 -0.7372
   54CHL1  H19C 5145   2.434   4.291   3.075  4.2619 -2.1565 -2.1002
   54CHL1    C1 5146   2.607   4.521   2.889  0.3510  0.1445  0.1010
   54CHL1   H1A 5147   2.526   4.594   2.909 -0.5943 -1.2526  1.6743
   54CHL1   H1B 5148   2.712   4.558   2.882  0.3323  0.2813  0.5288
   54CHL1    C2 5149   2.584   4.470   2.741  0.1875  0.1468 -0.9436
   54CHL1   H2A 5150   2.572   4.544   2.659 -0.8580  0.8628 -0.1733
   54CHL1   H2B 5151   2.480   4.431   2.748  0.4312 -0.4270 -0.3922
   54CHL1   C20 5152   2.561   4.557   3.694  0.0307  0.4946  0.2006
   54CHL1   H20 5153   2.462   4.507   3.688 -0.4236  1.5544 -2.4387
   54CHL1   C21 5154   2.552   4.709   3.672 -0.3669  0.2884  0.4265
   54CHL1  H21A 5155   2.475   4.763   3.730 -1.2324  2.6436 -2.6461
   54CHL1  H21B 5156   2.511   4.735   3.572 -0.6987  2.7875  1.1513
   54CHL1  H21C 5157   2.649   4.760   3.690 -0.5487  1.2419 -1.1003
   54CHL1   C22 5158   2.606   4.528   3.838 -0.1329  0.6827  0.0839
   54CHL1  H22A 5159   2.660   4.432   3.847  0.1064  0.7777 -0.3141
   54CHL1  H22B 5160   2.676   4.608   3.871  1.5288 -0.7886  0.2375
   54CHL1   C23 5161   2.489   4.519   3.942 -0.2921  0.1579  0.1127
   54CHL1  H23A 5162   2.425   4.609   3.933 -2.8593 -1.6508 -0.6548
   54CHL1  H23B 5163   2.419   4.438   3.914 -2.7768  0.2796  4.9364
   54CHL1   C24 5164   2.546   4.491   4.084  0.1952 -0.0941  0.7040
   54CHL1  H24A 5165   2.590   4.389   4.077  1.4349  0.4722 -0.0026
   54CHL1  H24B 5166   2.624   4.569   4.094  1.2379 -0.9266 -0.5102
   54CHL1   C25 5167   2.431   4.507   4.196  0.3376  0.3767 -0.6892
   54CHL1   H25 5168   2.405   4.615   4.204 -0.2110  0.2465 -0.6794
   54CHL1   C26 5169   2.305   4.423   4.181 -0.0486 -0.9917 -0.0072
   54CHL1  H26A 5170   2.314   4.314   4.161  1.9753 -0.6122 -1.5233
   54CHL1  H26B 5171   2.236   4.437   4.267 -1.9546  0.7647 -1.7229
   54CHL1  H26C 5172   2.249   4.475   4.100  1.5558 -1.6752 -1.6427
   54CHL1   C27 5173   2.488   4.469   4.333  0.5833 -0.1128 -0.0357
   54CHL1  H27A 5174   2.484   4.359   4.346  2.3362 -0.1619  0.3673
   54CHL1  H27B 5175   2.598   4.489   4.335  1.2040 -2.4206 -3.0747
   54CHL1  H27C 5176   2.436   4.523   4.415  0.6512  1.1546 -0.7952
   55CHL1    C3 5177   2.616   4.849   2.608  0.9759 -0.1277 -0.5309
   55CHL1    H3 5178   2.540   4.779   2.650  1.2456  1.0880  2.2206
   55CHL1    O3 5179   2.643   4.807   2.477 -0.1691  0.5961 -0.0777
   55CHL1   H3' 5180   2.737   4.826   2.465  0.4141 -1.0252  1.4419
   55CHL1    C4 5181   2.571   4.993   2.611 -0.2304  0.8059 -0.3127
   55CHL1   H4A 5182   2.660   5.052   2.581  0.5483  1.7796  3.3400
   55CHL1   H4B 5183   2.491   5.011   2.536  1.2181 -1.1933 -2.4744
   55CHL1    C5 5184   2.539   5.046   2.750  0.1918 -0.4981  0.8372
   55CHL1    C6 5185   2.425   5.109   2.776  0.0101  0.3690  0.5656
   55CHL1    H6 5186   2.353   5.131   2.696  0.3678 -1.7461 -0.4149
   55CHL1    C7 5187   2.396   5.168   2.907 -0.3402  0.3597 -0.0949
   55CHL1   H7A 5188   2.379   5.277   2.896 -1.6603  0.0742 -1.1915
   55CHL1   H7B 5189   2.309   5.111   2.947  0.6476 -0.7666  0.5423
   55CHL1    C8 5190   2.505   5.159   3.015  1.0035  0.0296 -0.7212
   55CHL1    H8 5191   2.569   5.248   2.999 -0.3478  1.1713 -0.0146
   55CHL1   C14 5192   2.442   5.150   3.155 -0.1068 -0.0337 -0.1596
   55CHL1   H14 5193   2.392   5.051   3.163  1.0782 -0.5451  1.6396
   55CHL1   C15 5194   2.335   5.260   3.183 -0.0676  0.3061 -0.9135
   55CHL1  H15A 5195   2.370   5.356   3.141 -1.7937  0.8042 -1.2874
   55CHL1  H15B 5196   2.234   5.245   3.137 -0.9949 -2.5308  1.6812
   55CHL1   C16 5197   2.333   5.273   3.337  0.2038 -0.7266 -0.3354
   55CHL1  H16A 5198   2.349   5.381   3.358  0.6558 -0.4317 -1.9996
   55CHL1  H16B 5199   2.232   5.245   3.372  0.9615 -3.2992  0.0022
   55CHL1   C17 5200   2.439   5.174   3.394  0.2573  0.3106 -0.0365
   55CHL1   H17 5201   2.400   5.072   3.411 -1.1442  1.0958  1.9203
   55CHL1   C13 5202   2.539   5.152   3.273 -1.0591 -0.2668  0.1965
   55CHL1   C18 5203   2.631   5.279   3.268 -0.0125  0.4008  0.3779
   55CHL1  H18A 5204   2.682   5.282   3.170 -0.0558  0.1137  0.3454
   55CHL1  H18B 5205   2.577   5.373   3.293 -3.2244 -1.2203 -0.0621
   55CHL1  H18C 5206   2.715   5.268   3.340  0.1195  3.2928  0.7949
   55CHL1   C12 5207   2.627   5.028   3.261 -0.0335 -0.6060  0.1307
   55CHL1  H12A 5208   2.716   5.034   3.328  1.1306 -0.1272 -1.4082
   55CHL1  H12B 5209   2.562   4.944   3.295 -0.1165 -0.0730  1.3202
   55CHL1   C11 5210   2.678   4.999   3.120 -0.2396 -0.2491 -0.1793
   55CHL1  H11A 5211   2.771   5.054   3.094 -1.2796  0.7451 -1.9715
   55CHL1  H11B 5212   2.705   4.891   3.126 -1.2565 -0.5038 -0.1048
   55CHL1    C9 5213   2.583   5.025   3.001 -0.6776  0.1498  0.2786
   55CHL1    H9 5214   2.505   4.947   3.006  0.5055 -0.9988  1.8527
   55CHL1   C10 5215   2.642   5.008   2.853 -0.2848 -0.0839 -0.2869
   55CHL1   C19 5216   2.766   5.099   2.835 -0.3974 -0.1779  0.1650
   55CHL1  H19A 5217   2.856   5.085   2.900 -0.1863  0.4534  0.0099
   55CHL1  H19B 5218   2.806   5.084   2.733 -0.5419 -0.4337  0.1436
   55CHL1  H19C 5219   2.738   5.206   2.833  0.3308  0.0119 -0.5850
   55CHL1    C1 5220   2.700   4.861   2.848  0.1732  0.0620 -0.1997
   55CHL1   H1A 5221   2.778   4.838   2.924  2.1659 -1.0311 -2.4438
   55CHL1   H1B 5222   2.611   4.804   2.882 -0.6008  1.3694  0.0546
   55CHL1    C2 5223   2.736   4.818   2.702  0.1069  0.3601 -0.0131
   55CHL1   H2A 5224   2.741   4.707   2.701 -0.0840  0.3220 -2.3607
   55CHL1   H2B 5225   2.835   4.862   2.674  0.3166 -0.6263 -0.8672
   55CHL1   C20 5226   2.499   5.229   3.526 -0.2464  0.1994  0.3672
   55CHL1   H20 5227   2.571   5.312   3.507  1.0550 -0.9897 -0.0658
   55CHL1   C21 5228   2.582   5.111   3.591  0.3330  0.0440  0.4582
   55CHL1  H21A 5229   2.611   5.129   3.696  0.6843  2.1486  0.0297
   55CHL1  H21B 5230   2.665   5.077   3.525 -0.6746 -0.7414 -0.4620
   55CHL1  H21C 5231   2.512   5.024   3.595  2.9554 -2.2459 -0.5625
   55CHL1   C22 5232   2.391   5.279   3.632  0.4388  0.7290  0.0684
   55CHL1  H22A 5233   2.335   5.359   3.578  2.3200  0.9618 -1.6646
   55CHL1  H22B 5234   2.321   5.197   3.661 -0.8901  2.3204  1.6080
   55CHL1   C23 5235   2.441   5.349   3.752  0.0694  0.3533  0.2146
   55CHL1  H23A 5236   2.497   5.278   3.816 -1.7846 -2.2984 -0.9562
   55CHL1  H23B 5237   2.500   5.440   3.727 -0.7763  1.1697  1.0821
   55CHL1   C24 5238   2.320   5.376   3.845 -0.1875 -0.1810  0.2967
   55CHL1  H24A 5239   2.243   5.426   3.783  0.9141 -0.3180 -1.2656
   55CHL1  H24B 5240   2.287   5.280   3.889  0.6610  1.4597  5.0797
   55CHL1   C25 5241   2.354   5.470   3.958 -0.0367  0.0667 -0.1301
   55CHL1   H25 5242   2.381   5.566   3.908  1.8150 -0.2039  0.2940
   55CHL1   C26 5243   2.232   5.479   4.056  0.3869  0.1132  0.0814
   55CHL1  H26A 5244   2.214   5.375   4.090  2.5065 -0.6519 -0.9947
   55CHL1  H26B 5245   2.250   5.541   4.147 -1.3245 -0.8641  1.1385
   55CHL1  H26C 5246   2.135   5.495   4.004 -1.0534 -1.5600  2.0840
   55CHL1   C27 5247   2.478   5.435   4.040  0.9179  0.4142  0.2464
   55CHL1  H27A 5248   2.486   5.517   4.116 -1.4910  1.1791 -0.2339
   55CHL1  H27B 5249   2.476   5.334   4.087  0.0664  0.0649 -0.5056
   55CHL1  H27C 5250   2.574   5.445   3.986  0.2353  1.5632 -0.7958
   56CHL1    C3 5251   0.369   3.624   2.880  0.0387  0.4241  0.4073
   56CHL1    H3 5252   0.434   3.594   2.964 -1.3270 -1.7460  0.7738
   56CHL1    O3 5253   0.443   3.596   2.763 -0.1707  0.9341  0.5423
   56CHL1   H3' 5254   0.498   3.670   2.738  3.3083 -2.4347 -3.2249
   56CHL1    C4 5255   0.237   3.544   2.894  0.9540  0.1561  0.2701
   56CHL1   H4A 5256   0.175   3.557   2.803  0.1913 -0.8393  0.6364
   56CHL1   H4B 5257   0.259   3.435   2.891  0.5920  0.0605  0.9335
   56CHL1    C5 5258   0.164   3.592   3.018  0.3553  0.0425 -0.0328
   56CHL1    C6 5259   0.153   3.504   3.115 -0.0261 -0.2286 -0.1638
   56CHL1    H6 5260   0.189   3.402   3.096  0.5292  0.3584 -2.6072
   56CHL1    C7 5261   0.078   3.538   3.247 -0.1561 -0.3213 -0.1784
   56CHL1   H7A 5262   0.002   3.459   3.266 -1.3281  1.1513  1.5489
   56CHL1   H7B 5263   0.149   3.538   3.332 -0.6178  0.6615  0.2161
   56CHL1    C8 5264  -0.001   3.670   3.238 -1.1257 -0.3138 -0.2192
   56CHL1    H8 5265  -0.092   3.643   3.181 -1.5623  2.3810 -0.9371
   56CHL1   C14 5266  -0.042   3.711   3.372  0.5585 -0.5197 -0.1930
   56CHL1   H14 5267   0.055   3.728   3.423  1.0554 -0.2266 -1.1919
   56CHL1   C15 5268  -0.118   3.610   3.451  0.0227 -0.6174  0.6067
   56CHL1  H15A 5269  -0.204   3.579   3.388  0.9402  0.6479 -1.3403
   56CHL1  H15B 5270  -0.063   3.515   3.471 -0.5006 -1.1424 -0.4016
   56CHL1   C16 5271  -0.173   3.692   3.564 -0.5048  0.8187  0.3071
   56CHL1  H16A 5272  -0.274   3.649   3.579  0.4370 -1.3538  0.8315
   56CHL1  H16B 5273  -0.108   3.669   3.651  0.5761  1.4394 -0.3092
   56CHL1   C17 5274  -0.163   3.841   3.532 -0.4169 -0.0187 -0.1901
   56CHL1   H17 5275  -0.070   3.873   3.584  0.4544 -1.8332 -0.5594
   56CHL1   C13 5276  -0.126   3.843   3.377 -0.4217 -0.1167 -0.6168
   56CHL1   C18 5277  -0.248   3.829   3.290  0.6000  0.1069  0.5003
   56CHL1  H18A 5278  -0.306   3.924   3.285  3.4874  2.0718  1.8860
   56CHL1  H18B 5279  -0.214   3.807   3.187  1.6336  3.0359  0.1333
   56CHL1  H18C 5280  -0.319   3.752   3.329  1.8381 -1.6325 -0.5331
   56CHL1   C12 5281  -0.029   3.952   3.321  0.2513 -0.3787  0.5429
   56CHL1  H12A 5282  -0.090   4.044   3.327 -0.3847 -0.7912  0.4804
   56CHL1  H12B 5283   0.066   3.964   3.378  0.2383  0.6657  0.3587
   56CHL1   C11 5284   0.013   3.911   3.178 -0.0655 -0.0113 -0.4243
   56CHL1  H11A 5285  -0.077   3.921   3.113 -0.6683 -0.2751  0.3477
   56CHL1  H11B 5286   0.066   3.998   3.134 -0.5401  0.6532  0.2880
   56CHL1    C9 5287   0.078   3.782   3.170 -0.3750 -0.5205 -0.0438
   56CHL1    H9 5288   0.162   3.790   3.243 -0.3138 -1.8717  0.0577
   56CHL1   C10 5289   0.128   3.748   3.021  0.1170 -0.0036  0.1816
   56CHL1   C19 5290   0.014   3.787   2.921 -0.5570 -0.2876  0.0566
   56CHL1  H19A 5291  -0.079   3.733   2.946  0.2399 -1.8655 -0.2545
   56CHL1  H19B 5292   0.009   3.898   2.922  1.9610 -0.1032  0.1489
   56CHL1  H19C 5293   0.029   3.765   2.813 -1.0283 -0.1842 -0.0320
   56CHL1    C1 5294   0.261   3.827   2.989 -0.0970 -0.6484  0.4773
   56CHL1   H1A 5295   0.232   3.934   2.981 -1.0504 -0.9920 -0.9630
   56CHL1   H1B 5296   0.328   3.819   3.078  1.3640  1.2580 -0.3740
   56CHL1    C2 5297   0.336   3.775   2.870 -0.5638 -0.1183 -0.2471
   56CHL1   H2A 5298   0.430   3.833   2.878 -0.0108 -1.1834  1.5074
   56CHL1   H2B 5299   0.288   3.798   2.772 -1.3280 -0.3864  0.0503
   56CHL1   C20 5300  -0.286   3.915   3.569 -0.0524 -0.0674  0.2662
   56CHL1   H20 5301  -0.365   3.876   3.502 -1.7847 -0.2529  2.3000
   56CHL1   C21 5302  -0.282   4.061   3.545  0.4941 -0.0427  0.1891
   56CHL1  H21A 5303  -0.208   4.117   3.606  0.9618  0.0448 -0.4485
   56CHL1  H21B 5304  -0.379   4.115   3.555 -0.3953 -1.8586  2.3232
   56CHL1  H21C 5305  -0.262   4.094   3.441 -2.8497  0.7107 -0.3211
   56CHL1   C22 5306  -0.336   3.884   3.719 -0.4375  0.3263  0.3170
   56CHL1  H22A 5307  -0.307   3.783   3.754  0.1280  0.1854 -0.5530
   56CHL1  H22B 5308  -0.289   3.956   3.789 -0.7336  0.9197 -0.0878
   56CHL1   C23 5309  -0.484   3.905   3.742 -0.0035  0.1985  0.0355
   56CHL1  H23A 5310  -0.524   3.998   3.697 -0.7745  0.7108  1.7083
   56CHL1  H23B 5311  -0.538   3.818   3.697 -1.5978  0.3944  1.4608
   56CHL1   C24 5312  -0.525   3.902   3.890 -0.3639  0.8566  0.1584
   56CHL1  H24A 5313  -0.455   3.961   3.953 -1.0524 -1.1617  2.9786
   56CHL1  H24B 5314  -0.626   3.945   3.908 -0.6908 -0.3694  1.3754
   56CHL1   C25 5315  -0.520   3.761   3.962  0.6011  0.3432  0.0878
   56CHL1   H25 5316  -0.430   3.706   3.926  0.9636 -0.0739  1.5789
   56CHL1   C26 5317  -0.505   3.781   4.113  1.2825 -0.0123  0.1990
   56CHL1  H26A 5318  -0.412   3.831   4.148  0.9032  0.3391  0.7294
   56CHL1  H26B 5319  -0.595   3.835   4.150  0.8204 -1.2220  0.8922
   56CHL1  H26C 5320  -0.507   3.689   4.174 -2.4561  0.4800  1.0733
   56CHL1   C27 5321  -0.638   3.676   3.919 -0.3594 -0.8357 -0.2535
   56CHL1  H27A 5322  -0.631   3.572   3.957 -0.4874 -1.3397 -1.5853
   56CHL1  H27B 5323  -0.731   3.725   3.955 -1.0763  0.4562 -3.4987
   56CHL1  H27C 5324  -0.644   3.670   3.808 -2.6967 -0.0589 -0.2202
   57CHL1    C3 5325   6.374   6.757   2.947  0.4422  0.2576  0.5122
   57CHL1    H3 5326   6.417   6.859   2.950 -1.7178  1.2362 -0.0650
   57CHL1    O3 5327   6.358   6.722   2.808  0.3334 -0.5297  0.2868
   57CHL1   H3' 5328   6.353   6.626   2.804  0.3722 -0.4778 -1.8831
   57CHL1    C4 5329   6.471   6.652   2.996  0.0554  0.2079 -0.2732
   57CHL1   H4A 5330   6.427   6.552   2.982 -3.4720  1.3567  1.3433
   57CHL1   H4B 5331   6.566   6.672   2.941 -0.6969  2.0756 -0.9611
   57CHL1    C5 5332   6.499   6.675   3.143 -0.0170  0.4762  0.5305
   57CHL1    C6 5333   6.621   6.700   3.186  0.3105 -0.3490 -0.9235
   57CHL1    H6 5334   6.712   6.695   3.124 -0.0353 -0.8228 -1.4026
   57CHL1    C7 5335   6.653   6.710   3.337 -0.1267 -0.1108  0.5697
   57CHL1   H7A 5336   6.737   6.644   3.368 -0.6037 -1.1611 -0.2869
   57CHL1   H7B 5337   6.680   6.817   3.347  1.5140 -0.1183 -2.6433
   57CHL1    C8 5338   6.536   6.668   3.426 -0.2058 -0.1048  0.5866
   57CHL1    H8 5339   6.535   6.557   3.430 -0.1322 -0.0865  1.2048
   57CHL1   C14 5340   6.559   6.736   3.562 -0.5642 -0.5630 -0.4849
   57CHL1   H14 5341   6.539   6.842   3.539 -1.0961 -1.3196 -4.1236
   57CHL1   C15 5342   6.699   6.724   3.618  0.2989  0.1184  0.4125
   57CHL1  H15A 5343   6.726   6.616   3.617 -1.3021 -0.3082  0.1417
   57CHL1  H15B 5344   6.771   6.789   3.564 -0.1578  0.8860  0.7142
   57CHL1   C16 5345   6.683   6.769   3.767  0.3896  0.3333 -0.5439
   57CHL1  H16A 5346   6.729   6.683   3.821 -0.5243  0.2808  0.1869
   57CHL1  H16B 5347   6.736   6.864   3.789  2.0749 -0.5671 -0.5493
   57CHL1   C17 5348   6.537   6.784   3.796  0.0252  0.2588 -0.2627
   57CHL1   H17 5349   6.504   6.885   3.761 -1.4399 -0.2034 -0.2873
   57CHL1   C13 5350   6.470   6.698   3.681 -0.6536 -0.0498 -0.2833
   57CHL1   C18 5351   6.481   6.546   3.713  0.8254 -0.3153 -0.1203
   57CHL1  H18A 5352   6.430   6.494   3.629 -0.4548 -0.1192  0.5184
   57CHL1  H18B 5353   6.582   6.505   3.736  1.5670  1.2390 -0.4480
   57CHL1  H18C 5354   6.415   6.526   3.800  1.0158  1.7444  0.5539
   57CHL1   C12 5355   6.327   6.741   3.634  0.3003  0.5017  0.3172
   57CHL1  H12A 5356   6.247   6.698   3.697  0.6062 -1.6551 -0.6559
   57CHL1  H12B 5357   6.312   6.851   3.631  2.8978  1.0123  2.3693
   57CHL1   C11 5358   6.295   6.689   3.488 -0.1212  0.0748  0.0610
   57CHL1  H11A 5359   6.286   6.579   3.499  1.0093 -0.1929 -1.3067
   57CHL1  H11B 5360   6.198   6.725   3.450 -0.7303 -0.4203  1.1077
   57CHL1    C9 5361   6.405   6.719   3.377  0.7436 -0.8826 -0.1546
   57CHL1    H9 5362   6.425   6.828   3.368  0.4372 -0.9414 -1.9471
   57CHL1   C10 5363   6.373   6.674   3.231 -0.2681  0.6089  0.1038
   57CHL1   C19 5364   6.315   6.530   3.239  0.4461  0.5901  0.2332
   57CHL1  H19A 5365   6.375   6.462   3.304  2.9678  0.3240 -2.1608
   57CHL1  H19B 5366   6.216   6.535   3.288  0.4640  3.0128  0.1147
   57CHL1  H19C 5367   6.303   6.479   3.141 -2.5249 -1.5936  1.5790
   57CHL1    C1 5368   6.272   6.771   3.169 -0.0474 -0.4893  0.1178
   57CHL1   H1A 5369   6.173   6.762   3.219 -1.3305 -1.0565 -2.3769
   57CHL1   H1B 5370   6.318   6.872   3.171 -0.0027 -0.4659 -1.0988
   57CHL1    C2 5371   6.239   6.749   3.026 -0.9552 -0.2110  0.0212
   57CHL1   H2A 5372   6.176   6.831   2.986 -1.1901  0.3562  1.5007
   57CHL1   H2B 5373   6.185   6.652   3.021  1.3116 -1.5000 -1.0071
   57CHL1   C20 5374   6.502   6.761   3.941 -0.2237 -0.0798  0.0494
   57CHL1   H20 5375   6.518   6.656   3.975 -0.5721 -1.4628 -3.5607
   57CHL1   C21 5376   6.353   6.790   3.971  0.4201 -0.1255 -0.3115
   57CHL1  H21A 5377   6.329   6.892   3.936  0.0939  0.2745  1.0217
   57CHL1  H21B 5378   6.317   6.783   4.076  0.4694 -2.5939 -0.4082
   57CHL1  H21C 5379   6.294   6.714   3.916 -1.9086  1.5713 -0.3175
   57CHL1   C22 5380   6.594   6.846   4.037  0.1927  0.0313  0.0452
   57CHL1  H22A 5381   6.582   6.807   4.140 -0.2321 -0.3554 -0.1484
   57CHL1  H22B 5382   6.698   6.818   4.011 -0.3186  0.5422 -2.8634
   57CHL1   C23 5383   6.579   6.993   4.042 -0.3262 -0.5313 -0.8496
   57CHL1  H23A 5384   6.600   7.016   3.936  1.7698 -0.5830 -0.4796
   57CHL1  H23B 5385   6.480   7.034   4.072  0.3850  0.3317  0.4334
   57CHL1   C24 5386   6.677   7.060   4.145  0.5518  0.4289  0.6899
   57CHL1  H24A 5387   6.706   6.999   4.234  0.2122 -0.2941  0.3143
   57CHL1  H24B 5388   6.769   7.068   4.084  0.8411  0.9452  1.1901
   57CHL1   C25 5389   6.631   7.204   4.181  0.0117  0.5339 -0.3794
   57CHL1   H25 5390   6.567   7.247   4.101  0.3960 -0.9260 -1.5081
   57CHL1   C26 5391   6.555   7.207   4.310  0.7766  0.0919 -0.2915
   57CHL1  H26A 5392   6.516   7.307   4.339  1.7662  0.1000  1.0971
   57CHL1  H26B 5393   6.461   7.149   4.297  0.6230 -0.0815  1.4234
   57CHL1  H26C 5394   6.623   7.172   4.390 -0.2977 -0.2473  0.5022
   57CHL1   C27 5395   6.763   7.295   4.184 -0.0075 -0.3201  0.0992
   57CHL1  H27A 5396   6.809   7.303   4.083  0.8932 -0.4858  0.4845
   57CHL1  H27B 5397   6.730   7.394   4.223  0.7856 -0.3281  0.8416
   57CHL1  H27C 5398   6.846   7.248   4.242  1.5470  0.4661 -1.4078
   58CHL1    C3 5399   4.472   0.348   2.763  0.1488  0.4001 -0.2106
   58CHL1    H3 5400   4.443   0.241   2.756  0.1542  0.4547 -1.0564
   58CHL1    O3 5401   4.461   0.397   2.631 -0.0352 -0.0284  0.4927
   58CHL1   H3' 5402   4.510   0.480   2.635  0.7516 -0.4388 -0.2147
   58CHL1    C4 5403   4.366   0.417   2.850 -0.3108 -0.7954 -0.7115
   58CHL1   H4A 5404   4.381   0.526   2.831 -1.7413 -0.7485 -1.7142
   58CHL1   H4B 5405   4.268   0.387   2.807 -0.6288  1.1553 -1.4377
   58CHL1    C5 5406   4.380   0.390   2.999 -0.0312  0.0398 -0.1445
   58CHL1    C6 5407   4.281   0.357   3.075 -0.0061  0.3091 -0.4885
   58CHL1    H6 5408   4.183   0.335   3.030  0.6921 -4.6856 -0.1958
   58CHL1    C7 5409   4.294   0.345   3.225 -0.1593 -0.3089  0.0609
   58CHL1   H7A 5410   4.219   0.401   3.286 -0.1225 -0.5674  0.3432
   58CHL1   H7B 5411   4.281   0.238   3.250 -2.7223  0.2573  1.5362
   58CHL1    C8 5412   4.432   0.403   3.282 -0.3635  0.2989 -0.1560
   58CHL1    H8 5413   4.409   0.512   3.286 -1.3856  0.2148 -2.4544
   58CHL1   C14 5414   4.460   0.343   3.422 -0.0491  0.1146  0.0942
   58CHL1   H14 5415   4.471   0.234   3.410  1.9404  0.2878  0.0533
   58CHL1   C15 5416   4.356   0.363   3.530 -0.6394  0.2883 -0.3087
   58CHL1  H15A 5417   4.320   0.468   3.526  2.2293  1.3784 -0.4657
   58CHL1  H15B 5418   4.279   0.290   3.497  1.6132 -2.8327  0.8221
   58CHL1   C16 5419   4.438   0.339   3.656 -0.1712 -0.4968 -0.1123
   58CHL1  H16A 5420   4.428   0.426   3.724 -0.3838 -2.8802  3.1315
   58CHL1  H16B 5421   4.398   0.259   3.721  0.5374  0.8911  2.1477
   58CHL1   C17 5422   4.579   0.309   3.611 -0.4147  0.0558 -0.0269
   58CHL1   H17 5423   4.580   0.199   3.593  0.4707 -0.1809  1.3563
   58CHL1   C13 5424   4.596   0.385   3.482  0.3174  0.3063  0.6316
   58CHL1   C18 5425   4.598   0.537   3.507  0.1298 -0.4210 -0.1788
   58CHL1  H18A 5426   4.694   0.576   3.546 -1.1117  3.7329 -0.7781
   58CHL1  H18B 5427   4.582   0.595   3.414 -0.3872  1.1185  0.8271
   58CHL1  H18C 5428   4.517   0.566   3.578 -1.3278 -2.4873 -0.9002
   58CHL1   C12 5429   4.713   0.343   3.388  0.4299  0.4042 -0.9695
   58CHL1  H12A 5430   4.812   0.365   3.432 -0.4363  0.3900  1.1051
   58CHL1  H12B 5431   4.687   0.235   3.385  0.9689  0.2599 -0.5209
   58CHL1   C11 5432   4.689   0.399   3.248  0.0289  0.0662 -0.3700
   58CHL1  H11A 5433   4.692   0.510   3.257  1.6901  0.0396 -0.3768
   58CHL1  H11B 5434   4.770   0.375   3.177  1.5944 -0.6343  1.5647
   58CHL1    C9 5435   4.551   0.364   3.188  0.3720  0.4802 -0.3002
   58CHL1    H9 5436   4.555   0.253   3.189 -0.4040  0.4439  0.7807
   58CHL1   C10 5437   4.530   0.413   3.047  0.1424  1.0228 -0.1571
   58CHL1   C19 5438   4.572   0.563   3.044  0.7137  0.1414 -0.2695
   58CHL1  H19A 5439   4.550   0.604   2.943  2.0673 -0.8306 -0.9918
   58CHL1  H19B 5440   4.521   0.609   3.131 -1.3875 -0.8653 -0.8987
   58CHL1  H19C 5441   4.681   0.578   3.061  0.9730 -1.1987 -0.6361
   58CHL1    C1 5442   4.625   0.325   2.960  0.6045 -0.2148  0.7162
   58CHL1   H1A 5443   4.732   0.347   2.983  0.7747 -0.8647  0.5557
   58CHL1   H1B 5444   4.611   0.215   2.968  2.1592 -0.6532 -1.6626
   58CHL1    C2 5445   4.615   0.362   2.814  0.4198  0.1437 -0.4120
   58CHL1   H2A 5446   4.687   0.298   2.759 -0.4799 -4.2809  2.9553
   58CHL1   H2B 5447   4.633   0.470   2.795 -0.2451  0.4432  0.5792
   58CHL1   C20 5448   4.688   0.320   3.727  0.5897 -0.7724  0.0163
   58CHL1   H20 5449   4.783   0.339   3.672  0.1378  1.1618 -0.1635
   58CHL1   C21 5450   4.673   0.184   3.809  0.0085  0.0957 -0.2329
   58CHL1  H21A 5451   4.692   0.104   3.734 -1.5910  0.6270 -1.2770
   58CHL1  H21B 5452   4.582   0.176   3.873  1.7646  2.3200  2.7747
   58CHL1  H21C 5453   4.758   0.182   3.880  0.0686  2.5267 -0.1528
   58CHL1   C22 5454   4.686   0.442   3.820 -0.2708 -0.8156 -0.2214
   58CHL1  H22A 5455   4.649   0.526   3.758  1.8074 -1.1643 -2.0136
   58CHL1  H22B 5456   4.598   0.437   3.889  1.4770 -0.7931  2.1394
   58CHL1   C23 5457   4.829   0.495   3.888  0.6981  0.4879 -0.0038
   58CHL1  H23A 5458   4.890   0.405   3.910 -0.3000 -0.7022 -1.9023
   58CHL1  H23B 5459   4.877   0.559   3.811  0.2986  0.9032  0.0915
   58CHL1   C24 5460   4.806   0.571   4.017  0.5300 -0.2601 -0.8524
   58CHL1  H24A 5461   4.782   0.673   3.980  2.0493  0.2647 -0.4535
   58CHL1  H24B 5462   4.728   0.516   4.073 -0.9968  2.0463 -0.5946
   58CHL1   C25 5463   4.926   0.584   4.117 -0.1386  0.4775  0.5188
   58CHL1   H25 5464   4.953   0.478   4.138 -3.8815 -1.1204 -1.8618
   58CHL1   C26 5465   5.047   0.663   4.060  0.8002 -0.4726  0.5383
   58CHL1  H26A 5466   5.135   0.654   4.127  1.6759 -0.3073 -0.5668
   58CHL1  H26B 5467   5.068   0.628   3.957  0.4715 -2.5986  1.1432
   58CHL1  H26C 5468   5.017   0.770   4.062  2.1311 -0.0839  1.2231
   58CHL1   C27 5469   4.886   0.662   4.250  0.3408 -0.3436  0.2132
   58CHL1  H27A 5470   4.806   0.611   4.308 -0.2746 -0.5963 -0.8301
   58CHL1  H27B 5471   4.972   0.686   4.317 -0.1155  3.7002 -0.3992
   58CHL1  H27C 5472   4.850   0.765   4.233  0.1924 -0.3936  0.2191
   59CHL1    C3 5473   1.653   6.164   2.427 -0.0946  0.8803 -0.0236
   59CHL1    H3 5474   1.754   6.209   2.444  0.5737 -0.3421 -0.6006
   59CHL1    O3 5475   1.628   6.161   2.290 -0.5601 -0.6814  0.1912
   59CHL1   H3' 5476   1.545   6.112   2.292 -0.2877 -1.1546  0.0523
   59CHL1    C4 5477   1.650   6.020   2.487 -0.2249  0.1985 -0.3024
   59CHL1   H4A 5478   1.556   5.969   2.456  1.1475 -1.4650 -1.9787
   59CHL1   H4B 5479   1.728   5.960   2.436 -0.4308 -0.4516  0.1330
   59CHL1    C5 5480   1.673   6.039   2.636 -0.0555 -0.2815 -0.2523
   59CHL1    C6 5481   1.771   5.985   2.701 -0.2497 -0.3047 -0.2221
   59CHL1    H6 5482   1.834   5.920   2.638  0.9952 -0.7762  1.4273
   59CHL1    C7 5483   1.808   5.988   2.848  0.4005 -0.9066 -0.0758
   59CHL1   H7A 5484   1.838   5.886   2.880  0.1071 -0.1351  2.9806
   59CHL1   H7B 5485   1.891   6.059   2.868 -0.8608 -0.1594  3.2220
   59CHL1    C8 5486   1.681   6.031   2.925  0.4755  0.9206  0.2371
   59CHL1    H8 5487   1.614   5.943   2.914  0.5190  0.8873  0.2393
   59CHL1   C14 5488   1.716   6.052   3.069  0.0329 -0.0910 -0.3639
   59CHL1   H14 5489   1.775   6.145   3.056 -1.6749  0.6868 -3.6045
   59CHL1   C15 5490   1.799   5.947   3.147 -0.2378 -0.1046  0.3572
   59CHL1  H15A 5491   1.772   5.842   3.122  2.9336 -1.0520  0.4426
   59CHL1  H15B 5492   1.907   5.953   3.125  0.0340  1.5249  1.8578
   59CHL1   C16 5493   1.774   5.970   3.297 -0.0235 -0.7155  0.0798
   59CHL1  H16A 5494   1.729   5.879   3.342 -1.3070  0.1786  0.6666
   59CHL1  H16B 5495   1.870   5.996   3.345 -0.4570 -1.1178  1.2073
   59CHL1   C17 5496   1.672   6.082   3.296 -0.0529  0.3875  0.1117
   59CHL1   H17 5497   1.733   6.174   3.285  1.9755 -0.9817 -0.7218
   59CHL1   C13 5498   1.596   6.089   3.158  0.3302 -0.0466  0.5893
   59CHL1   C18 5499   1.490   5.975   3.157  0.4751 -0.0715  0.4923
   59CHL1  H18A 5500   1.407   6.008   3.223 -2.3770 -0.4410 -2.5850
   59CHL1  H18B 5501   1.434   5.956   3.062 -1.8170  2.3091  1.2240
   59CHL1  H18C 5502   1.537   5.880   3.189 -0.5668 -1.1512 -1.0242
   59CHL1   C12 5503   1.530   6.219   3.101  0.2843  0.5764  0.4695
   59CHL1  H12A 5504   1.438   6.249   3.155  0.4151  0.2988  0.8570
   59CHL1  H12B 5505   1.609   6.294   3.120  2.1797 -1.6224  1.8821
   59CHL1   C11 5506   1.496   6.198   2.952  0.0801 -0.3329 -0.0015
   59CHL1  H11A 5507   1.413   6.126   2.938 -0.9388  0.3765  2.0669
   59CHL1  H11B 5508   1.458   6.291   2.905  2.0380  0.2836 -0.4782
   59CHL1    C9 5509   1.612   6.151   2.865  0.1350  0.3214  0.0399
   59CHL1    H9 5510   1.686   6.233   2.875  0.8815 -0.3614  0.2343
   59CHL1   C10 5511   1.576   6.128   2.714 -0.2063 -0.0463  0.4388
   59CHL1   C19 5512   1.439   6.056   2.696  0.0764  0.1929 -0.0694
   59CHL1  H19A 5513   1.356   6.119   2.737  0.5167  0.2342  0.7840
   59CHL1  H19B 5514   1.420   6.027   2.590  0.3363 -0.9605  0.1867
   59CHL1  H19C 5515   1.434   5.968   2.763  0.6426  0.0367 -0.2279
   59CHL1    C1 5516   1.562   6.268   2.650  0.6199 -0.3785  0.2615
   59CHL1   H1A 5517   1.470   6.317   2.687  0.5081  0.3720 -0.9362
   59CHL1   H1B 5518   1.639   6.341   2.683  1.0087 -0.2388 -0.8863
   59CHL1    C2 5519   1.545   6.261   2.495  0.0668 -0.2748  0.3410
   59CHL1   H2A 5520   1.557   6.367   2.464  3.0300  0.7660  4.1737
   59CHL1   H2B 5521   1.446   6.226   2.460 -0.7401  0.8114  1.4344
   59CHL1   C20 5522   1.597   6.088   3.429 -0.6621 -0.6000  0.0932
   59CHL1   H20 5523   1.526   6.003   3.420  1.2603 -2.2038 -0.4637
   59CHL1   C21 5524   1.515   6.220   3.428  0.2698 -0.0208  0.0598
   59CHL1  H21A 5525   1.428   6.212   3.360  0.5875  2.2111 -0.6911
   59CHL1  H21B 5526   1.571   6.310   3.395 -1.1771  1.8578  2.4492
   59CHL1  H21C 5527   1.495   6.242   3.535  1.3241  1.5468 -0.0302
   59CHL1   C22 5528   1.689   6.071   3.555  0.1305  0.0013 -0.3487
   59CHL1  H22A 5529   1.754   5.982   3.543 -0.2609 -0.2716 -0.4846
   59CHL1  H22B 5530   1.744   6.166   3.572  0.5895 -0.3250  0.0191
   59CHL1   C23 5531   1.608   6.050   3.683  0.0169  0.2741 -0.1019
   59CHL1  H23A 5532   1.546   6.140   3.704  1.1093  0.8465  0.7529
   59CHL1  H23B 5533   1.530   5.974   3.662  1.0247 -0.9213  0.3628
   59CHL1   C24 5534   1.694   5.992   3.795  0.3635 -0.3745 -0.5272
   59CHL1  H24A 5535   1.768   5.917   3.760 -0.5570 -1.0594 -1.0786
   59CHL1  H24B 5536   1.755   6.078   3.831  1.6968 -1.6234  0.3192
   59CHL1   C25 5537   1.611   5.946   3.922 -0.6876 -0.2418  0.2429
   59CHL1   H25 5538   1.536   5.874   3.883 -1.3547  0.1739  0.7446
   59CHL1   C26 5539   1.694   5.864   4.018 -0.1934  0.1224 -0.1642
   59CHL1  H26A 5540   1.628   5.820   4.097  1.0802  0.4932  1.1490
   59CHL1  H26B 5541   1.759   5.791   3.966  1.5526 -0.2858  2.4047
   59CHL1  H26C 5542   1.762   5.941   4.061 -0.6680  1.0253 -0.9999
   59CHL1   C27 5543   1.515   6.038   3.993 -0.0651 -0.4360  0.1628
   59CHL1  H27A 5544   1.448   5.990   4.068  0.3387 -1.1281  0.0789
   59CHL1  H27B 5545   1.571   6.123   4.037  1.0709 -1.5239  0.8797
   59CHL1  H27C 5546   1.448   6.090   3.921  0.6396 -0.8407 -0.7935
   60CHL1    C3 5547   5.769   4.787   2.725 -0.0885  0.2428  0.2652
   60CHL1    H3 5548   5.684   4.845   2.683 -0.7548 -0.3026  0.8367
   60CHL1    O3 5549   5.795   4.670   2.647 -0.1239 -0.0803 -0.4459
   60CHL1   H3' 5550   5.821   4.700   2.560  0.8262  1.3598  0.2937
   60CHL1    C4 5551   5.895   4.880   2.722  0.0131  0.0040 -0.2366
   60CHL1   H4A 5552   5.985   4.820   2.747  1.2796  1.9223  0.0350
   60CHL1   H4B 5553   5.918   4.921   2.621 -0.3234  0.1433 -0.2577
   60CHL1    C5 5554   5.889   4.996   2.820  0.6198  0.4012  0.1798
   60CHL1    C6 5555   5.896   5.126   2.782 -0.4775  0.7174 -0.1754
   60CHL1    H6 5556   5.930   5.145   2.680 -1.6670 -1.9030 -1.1642
   60CHL1    C7 5557   5.895   5.246   2.882  0.0371  0.1802 -0.1470
   60CHL1   H7A 5558   5.975   5.320   2.862 -0.2156  1.2359  2.3302
   60CHL1   H7B 5559   5.800   5.303   2.892 -0.5517 -0.9887  1.3750
   60CHL1    C8 5560   5.919   5.202   3.026 -0.5780 -0.0173 -0.5409
   60CHL1    H8 5561   6.022   5.162   3.041 -0.5537  0.4333  0.5875
   60CHL1   C14 5562   5.897   5.319   3.124 -0.5047  0.0545  0.4316
   60CHL1   H14 5563   5.787   5.338   3.116 -0.7656 -1.4466  0.1742
   60CHL1   C15 5564   5.975   5.452   3.103  0.3911 -0.1428  0.3270
   60CHL1  H15A 5565   6.078   5.431   3.069  0.0525  0.4656 -1.1484
   60CHL1  H15B 5566   5.931   5.499   3.012 -0.3919  0.0398  0.7825
   60CHL1   C16 5567   5.958   5.527   3.231 -0.0746 -0.6196 -0.1012
   60CHL1  H16A 5568   6.060   5.560   3.264  1.1325 -2.4003 -1.8185
   60CHL1  H16B 5569   5.902   5.622   3.219  0.9625 -0.1606 -1.5528
   60CHL1   C17 5570   5.886   5.431   3.328 -0.4034  0.9403 -0.9739
   60CHL1   H17 5571   5.778   5.451   3.315 -0.2713  1.4994 -1.2267
   60CHL1   C13 5572   5.911   5.286   3.273  0.6407  0.0529  0.3092
   60CHL1   C18 5573   6.059   5.250   3.302  0.5765 -0.2628  0.4493
   60CHL1  H18A 5574   6.101   5.170   3.237  1.6469  0.8556 -0.2840
   60CHL1  H18B 5575   6.127   5.335   3.280  1.3795 -1.0431 -0.1736
   60CHL1  H18C 5576   6.079   5.218   3.407  0.2447  0.2655  0.6771
   60CHL1   C12 5577   5.814   5.169   3.301 -0.0122 -0.2188  0.3683
   60CHL1  H12A 5578   5.836   5.145   3.407  2.0707 -0.8470 -0.1614
   60CHL1  H12B 5579   5.716   5.218   3.284  0.6778  0.6992 -1.1555
   60CHL1   C11 5580   5.826   5.051   3.210 -0.2043  0.9411 -0.2895
   60CHL1  H11A 5581   5.919   4.997   3.234 -1.3894 -1.3568 -0.6156
   60CHL1  H11B 5582   5.738   4.993   3.245 -0.0844  1.2617  0.5641
   60CHL1    C9 5583   5.829   5.084   3.058 -0.1949  0.4538 -0.6741
   60CHL1    H9 5584   5.729   5.121   3.028  0.3445  1.5228 -1.1840
   60CHL1   C10 5585   5.863   4.954   2.968  0.0511 -0.5850  0.2009
   60CHL1   C19 5586   5.977   4.870   3.028  0.1585 -0.3786  0.6654
   60CHL1  H19A 5587   6.067   4.933   3.045  0.5300 -0.5118 -0.7193
   60CHL1  H19B 5588   5.943   4.830   3.126 -0.4795  2.1138  1.5272
   60CHL1  H19C 5589   6.013   4.786   2.965  1.5836  1.7537 -1.5228
   60CHL1    C1 5590   5.733   4.870   2.962 -0.7663 -0.3044  1.2056
   60CHL1   H1A 5591   5.704   4.840   3.065 -1.3917 -3.0877  0.3234
   60CHL1   H1B 5592   5.651   4.936   2.926  0.3125 -0.5096 -1.9681
   60CHL1    C2 5593   5.745   4.741   2.872  0.6818  0.1083  0.2648
   60CHL1   H2A 5594   5.655   4.677   2.878  0.7225 -0.3382 -2.5556
   60CHL1   H2B 5595   5.822   4.672   2.913 -1.5149 -0.7024  3.3173
   60CHL1   C20 5596   5.919   5.468   3.477 -0.8025 -0.3836  0.0174
   60CHL1   H20 5597   6.029   5.483   3.471 -1.1880  2.7198 -1.4308
   60CHL1   C21 5598   5.875   5.359   3.571  0.6341 -0.5530  0.0393
   60CHL1  H21A 5599   5.930   5.268   3.538  0.8788 -0.4628  0.1936
   60CHL1  H21B 5600   5.765   5.352   3.567  0.4736  1.0923  0.6333
   60CHL1  H21C 5601   5.905   5.370   3.678  0.8631  1.1508 -0.1799
   60CHL1   C22 5602   5.864   5.610   3.519 -0.1788  0.4745 -0.0601
   60CHL1  H22A 5603   5.898   5.688   3.448 -1.3413  1.4935  0.4679
   60CHL1  H22B 5604   5.754   5.607   3.500 -0.2193 -1.4723  0.3089
   60CHL1   C23 5605   5.886   5.650   3.663  0.3019  0.6218 -0.5305
   60CHL1  H23A 5606   5.804   5.611   3.727  0.0916  1.3028 -0.3736
   60CHL1  H23B 5607   5.976   5.596   3.699 -1.4457 -0.7352  2.1252
   60CHL1   C24 5608   5.897   5.799   3.680  0.6903  0.7591 -0.1085
   60CHL1  H24A 5609   6.000   5.828   3.648  0.8465 -0.2471 -0.5541
   60CHL1  H24B 5610   5.820   5.851   3.618 -0.5153  0.6386  1.2401
   60CHL1   C25 5611   5.867   5.854   3.823 -0.1556 -0.0228  0.1011
   60CHL1   H25 5612   5.763   5.824   3.850 -0.4904 -0.6338 -1.7205
   60CHL1   C26 5613   5.947   5.790   3.931  0.0688  0.2635 -0.6444
   60CHL1  H26A 5614   6.056   5.808   3.919  0.2649 -0.2871  0.2273
   60CHL1  H26B 5615   5.924   5.837   4.029 -2.0647  1.1547 -1.5264
   60CHL1  H26C 5616   5.937   5.680   3.932 -1.2622  0.3756 -0.1951
   60CHL1   C27 5617   5.879   6.004   3.833  0.5592 -0.0244  0.3875
   60CHL1  H27A 5618   5.982   6.028   3.798  0.7232 -0.5676  0.4876
   60CHL1  H27B 5619   5.813   6.064   3.767  1.7496  1.5073  0.5496
   60CHL1  H27C 5620   5.871   6.036   3.939  1.0356 -0.3280  0.5207
   61CHL1    C3 5621   6.703   0.653   2.640  0.2982  0.6299  0.8091
   61CHL1    H3 5622   6.643   0.736   2.682 -0.0487  0.2562  1.0605
   61CHL1    O3 5623   6.669   0.603   2.511  0.2969 -0.6543  0.9396
   61CHL1   H3' 5624   6.751   0.573   2.471 -1.1955  0.8802 -3.8959
   61CHL1    C4 5625   6.846   0.713   2.631 -0.0007  0.2966 -0.3474
   61CHL1   H4A 5626   6.911   0.635   2.585 -2.3583 -1.7737 -0.3406
   61CHL1   H4B 5627   6.842   0.795   2.556 -0.4701  1.0364  0.4660
   61CHL1    C5 5628   6.917   0.746   2.759 -0.4857 -0.5025 -0.4418
   61CHL1    C6 5629   6.967   0.872   2.769  0.1287 -0.4470 -0.6573
   61CHL1    H6 5630   6.966   0.944   2.686  0.9081  1.1045  0.6146
   61CHL1    C7 5631   7.033   0.917   2.898 -0.8792  0.4484  0.4183
   61CHL1   H7A 5632   7.122   0.978   2.870 -0.2027 -0.0361  1.4391
   61CHL1   H7B 5633   6.965   0.990   2.948  0.9673  1.5684  1.4292
   61CHL1    C8 5634   7.062   0.805   3.000  0.3326  0.0528 -1.1384
   61CHL1    H8 5635   7.158   0.760   2.966  0.5734 -0.7693  0.4974
   61CHL1   C14 5636   7.098   0.862   3.138 -0.4378  0.4299 -0.9266
   61CHL1   H14 5637   7.006   0.907   3.182 -0.1190  0.7507 -0.5724
   61CHL1   C15 5638   7.203   0.971   3.147  0.1376 -0.0049 -0.2157
   61CHL1  H15A 5639   7.288   0.923   3.096  0.3373  3.5046 -3.6698
   61CHL1  H15B 5640   7.187   1.067   3.094 -1.2951  0.4250  0.9230
   61CHL1   C16 5641   7.233   0.974   3.297  0.0545 -0.5282 -0.5439
   61CHL1  H16A 5642   7.341   0.971   3.321 -0.6458  0.5074  3.6726
   61CHL1  H16B 5643   7.201   1.064   3.355  0.9096  0.4621 -1.5697
   61CHL1   C17 5644   7.175   0.844   3.362  0.1009  0.2394  0.6420
   61CHL1   H17 5645   7.089   0.887   3.416  0.2619  2.2797 -0.6178
   61CHL1   C13 5646   7.134   0.756   3.240 -0.8995 -0.3509 -0.2582
   61CHL1   C18 5647   7.259   0.673   3.199 -0.2204  0.0147  0.2779
   61CHL1  H18A 5648   7.235   0.615   3.108 -2.6932  1.8352 -0.3357
   61CHL1  H18B 5649   7.342   0.744   3.180  0.7673 -1.1269  0.2062
   61CHL1  H18C 5650   7.291   0.601   3.278 -1.2419  0.0666  0.7587
   61CHL1   C12 5651   7.005   0.668   3.261 -0.0269  0.5077  0.4862
   61CHL1  H12A 5652   7.019   0.588   3.337  0.9450 -3.1239 -3.1532
   61CHL1  H12B 5653   6.925   0.741   3.284 -0.7274  1.2137 -3.5373
   61CHL1   C11 5654   6.973   0.598   3.127  0.1077 -0.8233 -0.7745
   61CHL1  H11A 5655   7.052   0.522   3.107 -0.7224 -1.8738 -0.1474
   61CHL1  H11B 5656   6.885   0.534   3.146  2.0334 -3.4015  0.0722
   61CHL1    C9 5657   6.939   0.706   3.021 -0.3641  0.3965  0.5765
   61CHL1    H9 5658   6.857   0.766   3.065 -1.7837 -1.0725  0.0361
   61CHL1   C10 5659   6.905   0.648   2.880  0.4935  0.0980 -0.0522
   61CHL1   C19 5660   6.995   0.528   2.842 -0.1281  0.6737  0.5577
   61CHL1  H19A 5661   7.100   0.557   2.865 -0.3508  0.6814  1.6191
   61CHL1  H19B 5662   6.956   0.440   2.898 -0.5803 -0.1639 -1.0192
   61CHL1  H19C 5663   6.989   0.497   2.736 -0.8648 -2.7668  1.4781
   61CHL1    C1 5664   6.761   0.602   2.886  0.1813  0.5418  0.5032
   61CHL1   H1A 5665   6.743   0.530   2.968  1.4522  1.0643  1.2680
   61CHL1   H1B 5666   6.698   0.690   2.912 -1.6668 -0.9195  1.2049
   61CHL1    C2 5667   6.711   0.546   2.748 -0.2524  0.5126 -0.0295
   61CHL1   H2A 5668   6.610   0.501   2.756 -0.4556  1.0569  0.5798
   61CHL1   H2B 5669   6.781   0.473   2.701  0.6132  2.2297 -1.5348
   61CHL1   C20 5670   7.267   0.783   3.471  0.5864  0.2246 -0.1833
   61CHL1   H20 5671   7.367   0.759   3.428 -0.0685 -0.2720 -1.4974
   61CHL1   C21 5672   7.201   0.651   3.533  0.1284  0.3989 -0.3471
   61CHL1  H21A 5673   7.206   0.563   3.465  1.4650 -0.2104  0.5053
   61CHL1  H21B 5674   7.094   0.677   3.551  0.4456  1.7258 -0.2912
   61CHL1  H21C 5675   7.251   0.630   3.630  2.1333  1.9350 -0.9741
   61CHL1   C22 5676   7.280   0.895   3.583  0.1141 -0.3438  0.0027
   61CHL1  H22A 5677   7.323   0.984   3.533  0.6794 -1.1436 -0.9937
   61CHL1  H22B 5678   7.184   0.915   3.635 -0.8568 -2.7027 -0.7500
   61CHL1   C23 5679   7.388   0.863   3.693  0.2436  0.1309 -0.2538
   61CHL1  H23A 5680   7.371   0.772   3.754  0.6094  1.8527  2.5631
   61CHL1  H23B 5681   7.479   0.840   3.634  0.0172  0.7044 -0.8468
   61CHL1   C24 5682   7.405   0.981   3.784 -0.0218  0.2541 -0.1294
   61CHL1  H24A 5683   7.423   1.073   3.725  0.1778  1.3462  1.5582
   61CHL1  H24B 5684   7.318   0.989   3.852  0.8282  3.2864  0.7453
   61CHL1   C25 5685   7.521   0.971   3.886  0.1699  0.5010  0.2030
   61CHL1   H25 5686   7.500   0.872   3.932 -0.2123 -0.5642 -2.1493
   61CHL1   C26 5687   7.667   0.975   3.838 -0.7108 -0.6636 -0.6057
   61CHL1  H26A 5688   7.681   1.067   3.778 -3.5298  1.5305  1.7858
   61CHL1  H26B 5689   7.737   0.969   3.924  0.4759  1.4189 -1.3533
   61CHL1  H26C 5690   7.688   0.893   3.766  0.4670 -1.4939  0.6218
   61CHL1   C27 5691   7.512   1.088   3.984 -0.0334 -0.0946 -0.5217
   61CHL1  H27A 5692   7.595   1.083   4.057  0.6329 -1.0492 -1.3162
   61CHL1  H27B 5693   7.521   1.181   3.924 -1.3383 -0.5460 -1.4567
   61CHL1  H27C 5694   7.423   1.086   4.049  1.6750 -1.3915  1.9256
   62CHL1    C3 5695   3.508   0.793   2.525 -0.7107  0.1015  0.3419
   62CHL1    H3 5696   3.550   0.693   2.549 -1.2430 -0.3835 -0.6910
   62CHL1    O3 5697   3.430   0.794   2.402 -0.2918  0.0357  0.0949
   62CHL1   H3' 5698   3.378   0.873   2.389 -0.0260 -0.0982 -2.0205
   62CHL1    C4 5699   3.408   0.828   2.641  0.2407 -0.7567  0.4638
   62CHL1   H4A 5700   3.334   0.906   2.612  0.7113 -0.3497  0.3384
   62CHL1   H4B 5701   3.336   0.745   2.657 -0.6916  0.0549  0.5850
   62CHL1    C5 5702   3.474   0.854   2.778 -1.0561 -0.2896  0.1975
   62CHL1    C6 5703   3.446   0.783   2.887  0.5137  0.0648 -0.6473
   62CHL1    H6 5704   3.358   0.718   2.886  0.5269  0.0400 -1.6908
   62CHL1    C7 5705   3.503   0.810   3.020 -1.0823  0.0699 -0.6728
   62CHL1   H7A 5706   3.432   0.824   3.104 -2.0105  0.9087 -1.5808
   62CHL1   H7B 5707   3.580   0.735   3.049 -0.6423  1.0468  0.7593
   62CHL1    C8 5708   3.590   0.942   3.028  0.3720 -0.0334  0.4790
   62CHL1    H8 5709   3.517   1.022   3.052  0.4147 -0.1352  0.9499
   62CHL1   C14 5710   3.686   0.954   3.142 -0.0476  0.4729 -0.8304
   62CHL1   H14 5711   3.769   0.883   3.121 -0.1418  0.8254 -2.5397
   62CHL1   C15 5712   3.641   0.910   3.283  0.5852  0.2530 -0.2108
   62CHL1  H15A 5713   3.540   0.952   3.302 -0.4454 -1.8168 -0.7466
   62CHL1  H15B 5714   3.642   0.802   3.308 -1.1389 -0.2276 -1.9793
   62CHL1   C16 5715   3.731   0.986   3.376  0.1719  0.1935 -0.0299
   62CHL1  H16A 5716   3.677   1.061   3.438 -2.3102 -1.6580  0.2234
   62CHL1  H16B 5717   3.785   0.911   3.438  1.2981  1.3595  0.4368
   62CHL1   C17 5718   3.827   1.068   3.289 -0.0355 -0.1913 -0.0560
   62CHL1   H17 5719   3.905   0.991   3.271 -0.7335 -1.2928  1.4110
   62CHL1   C13 5720   3.755   1.093   3.157 -0.5191 -0.1070  1.0006
   62CHL1   C18 5721   3.660   1.214   3.182  0.3130  0.0376  0.8698
   62CHL1  H18A 5722   3.705   1.315   3.183  1.7249 -0.4479 -2.2815
   62CHL1  H18B 5723   3.577   1.221   3.109 -0.1468 -1.3965  1.2152
   62CHL1  H18C 5724   3.605   1.197   3.277  1.9173 -1.0755  1.6491
   62CHL1   C12 5725   3.846   1.101   3.034  0.1680  0.1578 -0.1339
   62CHL1  H12A 5726   3.923   1.181   3.022  0.2416  0.0400 -0.4822
   62CHL1  H12B 5727   3.915   1.014   3.032  0.5900  0.4827 -1.7933
   62CHL1   C11 5728   3.764   1.095   2.903  0.2326  0.6873  0.4024
   62CHL1  H11A 5729   3.715   1.195   2.905  1.3819  1.2707  0.1657
   62CHL1  H11B 5730   3.828   1.087   2.813  0.4303 -0.4433  0.6291
   62CHL1    C9 5731   3.673   0.969   2.901  0.2588  0.4866  0.4462
   62CHL1    H9 5732   3.753   0.892   2.901 -0.7683 -0.6286 -0.5230
   62CHL1   C10 5733   3.590   0.963   2.768  0.0651  0.7345  0.3526
   62CHL1   C19 5734   3.512   1.097   2.741 -0.2106 -0.7601  0.5944
   62CHL1  H19A 5735   3.577   1.172   2.691 -2.4838  0.9825  0.0876
   62CHL1  H19B 5736   3.427   1.088   2.671 -0.6730 -2.3911  1.3110
   62CHL1  H19C 5737   3.496   1.156   2.834  0.2040  1.6524 -0.7877
   62CHL1    C1 5738   3.681   0.941   2.651  0.5467  0.4936 -0.1746
   62CHL1   H1A 5739   3.745   1.031   2.641 -1.2786  1.9215  0.4322
   62CHL1   H1B 5740   3.749   0.855   2.668  1.2933  0.9862 -0.5957
   62CHL1    C2 5741   3.611   0.903   2.514  0.4771 -0.0787 -0.1931
   62CHL1   H2A 5742   3.682   0.874   2.434  0.1582  1.8328 -1.2523
   62CHL1   H2B 5743   3.556   0.992   2.476 -1.0986 -0.5729  0.8469
   62CHL1   C20 5744   3.884   1.192   3.364  0.8384  0.4713  0.0267
   62CHL1   H20 5745   3.802   1.250   3.411  1.3803  0.4549  1.0066
   62CHL1   C21 5746   3.970   1.283   3.289 -0.0918  0.1528 -0.2375
   62CHL1  H21A 5747   3.922   1.322   3.196  0.7859 -0.4178 -0.9414
   62CHL1  H21B 5748   4.056   1.229   3.244  1.2941  0.5605  1.8268
   62CHL1  H21C 5749   4.000   1.365   3.357 -2.0934  0.5399  0.2371
   62CHL1   C22 5750   3.965   1.139   3.483 -0.1877 -0.2011 -1.1485
   62CHL1  H22A 5751   3.914   1.048   3.521 -0.7636 -0.4165 -2.4136
   62CHL1  H22B 5752   4.066   1.106   3.451  0.6080  0.1700  0.8128
   62CHL1   C23 5753   3.975   1.241   3.597  0.2800 -0.4024 -0.4085
   62CHL1  H23A 5754   4.040   1.189   3.671  0.8366 -1.2878 -1.4850
   62CHL1  H23B 5755   4.031   1.330   3.561 -0.7006 -0.4413 -2.1393
   62CHL1   C24 5756   3.845   1.272   3.675  0.0424 -0.1561  0.3272
   62CHL1  H24A 5757   3.797   1.366   3.640  3.0771  1.9238  1.3387
   62CHL1  H24B 5758   3.779   1.185   3.653 -0.3581 -0.0090  0.9182
   62CHL1   C25 5759   3.852   1.275   3.824  0.6326  0.3014 -0.1812
   62CHL1   H25 5760   3.903   1.181   3.852 -2.0572 -1.5467 -1.0776
   62CHL1   C26 5761   3.939   1.389   3.881 -0.2823  0.4928 -0.2883
   62CHL1  H26A 5762   4.038   1.395   3.833 -0.4671 -0.2253 -0.7762
   62CHL1  H26B 5763   3.879   1.480   3.859 -0.5818  1.2319  3.0117
   62CHL1  H26C 5764   3.959   1.387   3.990  0.4784  0.8487 -0.4175
   62CHL1   C27 5765   3.717   1.283   3.894  0.4316 -0.0405 -0.1770
   62CHL1  H27A 5766   3.733   1.319   3.998 -0.0202 -1.9355  0.5785
   62CHL1  H27B 5767   3.656   1.352   3.831  0.1560 -2.6449 -2.9793
   62CHL1  H27C 5768   3.667   1.184   3.894 -0.6145  0.4815 -0.5892
   63CHL1    C3 5769   5.362   5.928   2.852  0.1920 -0.1060 -0.5018
   63CHL1    H3 5770   5.301   6.020   2.841  0.1099 -0.3462 -2.2044
   63CHL1    O3 5771   5.372   5.868   2.728 -0.5512 -0.0576 -0.1408
   63CHL1   H3' 5772   5.361   5.774   2.740  1.4305 -0.1746  1.3444
   63CHL1    C4 5773   5.499   5.973   2.892  0.4843  0.1484 -0.4719
   63CHL1   H4A 5774   5.569   5.887   2.886 -0.2963 -0.3805 -3.6430
   63CHL1   H4B 5775   5.533   6.054   2.824  1.3546 -0.2049 -0.4652
   63CHL1    C5 5776   5.480   6.028   3.037  0.7251 -0.2240 -0.2199
   63CHL1    C6 5777   5.519   6.157   3.070  0.5078 -0.3762 -0.2352
   63CHL1    H6 5778   5.569   6.222   2.996  1.4697  1.0285  1.5437
   63CHL1    C7 5779   5.524   6.200   3.215  0.0631 -0.2708 -0.4899
   63CHL1   H7A 5780   5.617   6.258   3.233  0.0706  0.0401 -1.4612
   63CHL1   H7B 5781   5.442   6.273   3.232  1.0648  0.9291 -0.6727
   63CHL1    C8 5782   5.499   6.100   3.327  0.1373  0.4622 -0.5380
   63CHL1    H8 5783   5.589   6.035   3.339 -0.0935 -0.4055 -2.8455
   63CHL1   C14 5784   5.459   6.165   3.450 -0.3510  1.2262 -0.5402
   63CHL1   H14 5785   5.357   6.207   3.436 -2.2918 -2.3273  1.6067
   63CHL1   C15 5786   5.550   6.278   3.508  0.8476 -0.2108 -0.1959
   63CHL1  H15A 5787   5.654   6.244   3.492  1.5932  1.2254  1.2647
   63CHL1  H15B 5788   5.546   6.369   3.445 -0.0935  0.2567  0.5098
   63CHL1   C16 5789   5.506   6.290   3.653 -0.5732 -0.5675 -0.1987
   63CHL1  H16A 5790   5.592   6.289   3.724 -0.7886  0.4402  0.0914
   63CHL1  H16B 5791   5.462   6.388   3.678 -0.4082 -0.9215  1.5947
   63CHL1   C17 5792   5.411   6.178   3.680  0.3656  0.3743  0.0634
   63CHL1   H17 5793   5.312   6.214   3.646  0.1521 -2.1233 -2.3026
   63CHL1   C13 5794   5.434   6.072   3.569  0.2312 -0.5140 -0.3611
   63CHL1   C18 5795   5.559   5.991   3.597  0.0498 -0.2983 -0.1851
   63CHL1  H18A 5796   5.569   5.917   3.515  3.9427 -1.2571  0.9533
   63CHL1  H18B 5797   5.653   6.051   3.595  1.0438 -1.8059 -1.7748
   63CHL1  H18C 5798   5.557   5.928   3.688 -0.5614 -0.5481 -0.3635
   63CHL1   C12 5799   5.320   5.978   3.531  0.1660  0.0922 -0.0182
   63CHL1  H12A 5800   5.324   5.896   3.606  0.5735 -0.6789 -0.8555
   63CHL1  H12B 5801   5.226   6.036   3.535  0.4907  0.6680 -0.5540
   63CHL1   C11 5802   5.336   5.912   3.392 -0.3010 -0.4865  0.1152
   63CHL1  H11A 5803   5.409   5.831   3.414 -1.0947 -0.7189  2.1193
   63CHL1  H11B 5804   5.247   5.856   3.358 -1.0130  0.0205  1.0994
   63CHL1    C9 5805   5.383   6.007   3.280 -0.9278 -0.2083 -0.0999
   63CHL1    H9 5806   5.297   6.073   3.259 -0.0896  0.8269 -0.3621
   63CHL1   C10 5807   5.415   5.936   3.145  0.5028  0.4464  1.1115
   63CHL1   C19 5808   5.515   5.814   3.174  1.0324 -0.3071  0.0110
   63CHL1  H19A 5809   5.460   5.721   3.197  1.7200 -0.5163  0.8723
   63CHL1  H19B 5810   5.576   5.796   3.083  0.4886 -0.5881 -0.3019
   63CHL1  H19C 5811   5.582   5.841   3.259  2.3415 -0.2620 -0.9942
   63CHL1    C1 5812   5.284   5.877   3.080  1.2067  0.2993 -0.4774
   63CHL1   H1A 5813   5.243   5.790   3.136  3.2649  1.2034  2.7012
   63CHL1   H1B 5814   5.213   5.962   3.072  0.7419 -0.0959 -0.5896
   63CHL1    C2 5815   5.296   5.821   2.939 -0.4019  0.4245 -0.0516
   63CHL1   H2A 5816   5.202   5.796   2.885 -1.3114  3.8318 -0.2997
   63CHL1   H2B 5817   5.360   5.730   2.938 -0.6202  0.2673 -1.3353
   63CHL1   C20 5818   5.407   6.145   3.826  0.9747  0.7035  0.3413
   63CHL1   H20 5819   5.503   6.100   3.859 -0.2951 -0.3620  2.8837
   63CHL1   C21 5820   5.286   6.048   3.849 -0.6291 -0.4073 -0.6229
   63CHL1  H21A 5821   5.274   6.032   3.958  2.3018  0.9500  0.0051
   63CHL1  H21B 5822   5.311   5.952   3.799  0.2623 -0.3876 -0.2286
   63CHL1  H21C 5823   5.191   6.079   3.801 -0.7126 -0.0178 -0.2144
   63CHL1   C22 5824   5.392   6.276   3.907 -0.0818  0.3958 -0.2266
   63CHL1  H22A 5825   5.497   6.311   3.911  0.6140 -1.3856 -1.5083
   63CHL1  H22B 5826   5.320   6.342   3.854 -0.7687  1.0804  1.4776
   63CHL1   C23 5827   5.332   6.274   4.053 -0.0991 -0.0080 -0.0873
   63CHL1  H23A 5828   5.227   6.238   4.057  0.1485 -0.6554  0.9501
   63CHL1  H23B 5829   5.402   6.214   4.115  0.2511 -2.1401 -2.3986
   63CHL1   C24 5830   5.333   6.419   4.107  0.4550  0.6368 -0.3237
   63CHL1  H24A 5831   5.430   6.465   4.078  0.7485  0.3497  0.1813
   63CHL1  H24B 5832   5.255   6.470   4.046  1.4802  0.5704 -1.7467
   63CHL1   C25 5833   5.303   6.438   4.260 -0.4015  0.2055 -0.3321
   63CHL1   H25 5834   5.383   6.377   4.308 -0.8520  0.1556  0.3738
   63CHL1   C26 5835   5.321   6.590   4.295 -0.3543  0.8310  0.5123
   63CHL1  H26A 5836   5.249   6.640   4.227 -0.0519 -2.3590 -2.4000
   63CHL1  H26B 5837   5.315   6.612   4.404 -1.0893 -1.0022  0.8901
   63CHL1  H26C 5838   5.419   6.625   4.258 -0.6354  1.7737  0.6332
   63CHL1   C27 5839   5.166   6.388   4.295  0.9059  0.2339 -0.2308
   63CHL1  H27A 5840   5.158   6.277   4.304 -0.1840  0.1775 -1.4916
   63CHL1  H27B 5841   5.155   6.440   4.392  0.7855  2.4811 -1.3787
   63CHL1  H27C 5842   5.082   6.426   4.233 -1.0599  0.4409  2.3937
   64CHL1    C3 5843   4.688   4.905   2.477  0.5462  0.5968  0.2974
   64CHL1    H3 5844   4.640   5.004   2.487  1.2115  0.9797 -0.2604
   64CHL1    O3 5845   4.671   4.862   2.339  0.2779  0.1037 -0.5176
   64CHL1   H3' 5846   4.701   4.940   2.291  0.8365 -0.0046 -0.3541
   64CHL1    C4 5847   4.833   4.922   2.516 -0.1909 -0.0827  0.0486
   64CHL1   H4A 5848   4.872   4.822   2.489  0.7641  0.7752 -1.9728
   64CHL1   H4B 5849   4.863   5.001   2.443 -3.3360  1.2302  0.0269
   64CHL1    C5 5850   4.856   4.959   2.661  0.3029  0.1512 -0.2604
   64CHL1    C6 5851   4.924   5.064   2.696 -0.0082  0.1118 -1.1275
   64CHL1    H6 5852   4.977   5.112   2.613 -0.0289  0.4953 -0.9208
   64CHL1    C7 5853   4.961   5.092   2.835  0.0031 -0.0021  0.0177
   64CHL1   H7A 5854   5.068   5.122   2.837 -0.1344  0.6051 -1.1824
   64CHL1   H7B 5855   4.896   5.170   2.880  1.2669 -0.2718  2.4783
   64CHL1    C8 5856   4.925   4.980   2.942  0.4109  0.4300  0.4796
   64CHL1    H8 5857   5.002   4.901   2.936 -1.2075 -1.2870  1.2265
   64CHL1   C14 5858   4.914   5.034   3.082  0.5845  0.2562  0.4289
   64CHL1   H14 5859   4.826   5.102   3.090  0.3311 -0.1326  1.0046
   64CHL1   C15 5860   5.031   5.119   3.127 -0.8750  0.5237 -0.1133
   64CHL1  H15A 5861   5.123   5.070   3.091 -0.2255  1.6785 -0.0614
   64CHL1  H15B 5862   5.031   5.220   3.081  1.9465  0.0622 -1.3268
   64CHL1   C16 5863   5.027   5.110   3.278  0.0317  0.4492 -0.2622
   64CHL1  H16A 5864   5.122   5.069   3.317 -2.3184 -2.4017  3.1433
   64CHL1  H16B 5865   5.017   5.210   3.325  0.0674  0.2684  0.1326
   64CHL1   C17 5866   4.913   5.011   3.316  0.2824 -0.2042  0.4209
   64CHL1   H17 5867   4.824   5.078   3.329  1.0045  0.5391  1.6969
   64CHL1   C13 5868   4.884   4.931   3.191 -1.3982 -0.4163 -0.3361
   64CHL1   C18 5869   4.996   4.825   3.189 -0.2833 -0.5151 -0.0600
   64CHL1  H18A 5870   5.097   4.858   3.220 -0.5551  0.1563  0.1284
   64CHL1  H18B 5871   4.981   4.742   3.261  0.8742 -1.3708 -0.7647
   64CHL1  H18C 5872   5.003   4.768   3.094 -0.9563 -1.0391  0.1912
   64CHL1   C12 5873   4.748   4.870   3.164  0.5526 -0.2341 -0.2895
   64CHL1  H12A 5874   4.728   4.785   3.233 -1.1260  0.3535 -0.0002
   64CHL1  H12B 5875   4.670   4.949   3.170  0.4590 -0.3097 -0.4932
   64CHL1   C11 5876   4.740   4.815   3.026 -0.4735  0.0804 -0.0965
   64CHL1  H11A 5877   4.810   4.730   3.018 -1.6983 -0.8819 -0.9639
   64CHL1  H11B 5878   4.634   4.791   3.002 -0.2631 -1.7324  0.6395
   64CHL1    C9 5879   4.781   4.921   2.915 -0.3813  0.0878  0.4387
   64CHL1    H9 5880   4.710   5.006   2.925 -0.4096  0.2452 -0.9542
   64CHL1   C10 5881   4.778   4.865   2.765  0.9608  0.5899  0.4340
   64CHL1   C19 5882   4.857   4.734   2.755 -0.3634  0.6569  0.5473
   64CHL1  H19A 5883   4.870   4.700   2.650 -1.0029  2.3511 -0.1198
   64CHL1  H19B 5884   4.957   4.734   2.802 -0.5507 -2.4710  1.1607
   64CHL1  H19C 5885   4.805   4.654   2.812  0.7009 -0.3595  0.1309
   64CHL1    C1 5886   4.627   4.848   2.716 -0.0686  0.3580 -0.6570
   64CHL1   H1A 5887   4.569   4.778   2.780  0.7774 -1.5295 -1.8699
   64CHL1   H1B 5888   4.580   4.948   2.723  1.0488  0.7976  1.8585
   64CHL1    C2 5889   4.627   4.800   2.572 -0.0286 -0.0126  0.4437
   64CHL1   H2A 5890   4.521   4.782   2.548 -0.7730  2.5238  1.4378
   64CHL1   H2B 5891   4.684   4.706   2.556  0.4617  0.3217  0.1706
   64CHL1   C20 5892   4.937   4.954   3.458 -0.4743 -0.0120 -0.8217
   64CHL1   H20 5893   5.015   4.876   3.445 -0.6588 -0.7202  1.7763
   64CHL1   C21 5894   4.813   4.870   3.503 -0.3988  0.4525 -0.6179
   64CHL1  H21A 5895   4.720   4.930   3.492  0.1163  1.5950  0.8607
   64CHL1  H21B 5896   4.830   4.853   3.612  1.2834  1.1495 -0.7292
   64CHL1  H21C 5897   4.800   4.779   3.441 -0.8499  1.7056 -2.4238
   64CHL1   C22 5898   4.988   5.052   3.565  0.0654  0.0359  0.6060
   64CHL1  H22A 5899   5.065   5.122   3.524 -0.8811 -0.2201 -1.8043
   64CHL1  H22B 5900   4.907   5.123   3.591 -0.2345  0.7368 -1.9711
   64CHL1   C23 5901   5.046   4.988   3.695 -0.3977 -0.4532  0.6840
   64CHL1  H23A 5902   4.972   4.920   3.741  1.9103 -2.3808  1.8111
   64CHL1  H23B 5903   5.141   4.942   3.662 -0.2040 -0.0197  0.6203
   64CHL1   C24 5904   5.082   5.098   3.791  0.0659 -0.9637 -0.4614
   64CHL1  H24A 5905   5.146   5.172   3.738  2.2389 -3.2487 -1.2408
   64CHL1  H24B 5906   4.990   5.155   3.817  1.3778  2.2915 -2.2343
   64CHL1   C25 5907   5.164   5.059   3.913  0.6430  0.9333  0.2921
   64CHL1   H25 5908   5.247   4.995   3.877 -0.9983 -0.6407 -0.8549
   64CHL1   C26 5909   5.221   5.167   4.006  0.3841  0.4356  0.4343
   64CHL1  H26A 5910   5.145   5.235   4.052 -0.4710  0.9729 -1.6544
   64CHL1  H26B 5911   5.277   5.114   4.086 -0.4507 -0.6803  0.3013
   64CHL1  H26C 5912   5.284   5.234   3.945 -1.1532  0.0870 -1.6590
   64CHL1   C27 5913   5.083   4.956   4.000  0.1866 -0.0935 -0.2947
   64CHL1  H27A 5914   4.984   5.001   4.020 -0.2159 -0.4173 -1.4910
   64CHL1  H27B 5915   5.078   4.858   3.947  0.5026  0.4262 -1.3140
   64CHL1  H27C 5916   5.148   4.946   4.090 -0.3621  1.0837  0.2442
   65CHL1    C3 5917   3.547   1.510   2.604 -0.5994  0.7120  0.2959
   65CHL1    H3 5918   3.504   1.426   2.663  0.2288  1.2446  1.7188
   65CHL1    O3 5919   3.518   1.470   2.471 -0.5161 -0.1231 -0.2451
   65CHL1   H3' 5920   3.427   1.498   2.458 -0.5722 -0.2777 -0.1878
   65CHL1    C4 5921   3.490   1.646   2.642 -1.0375 -0.8462 -0.0711
   65CHL1   H4A 5922   3.539   1.724   2.580  0.9801 -0.9347  1.2998
   65CHL1   H4B 5923   3.382   1.662   2.623 -1.4651 -0.3299  2.3754
   65CHL1    C5 5924   3.535   1.677   2.785 -0.2862  0.5250  0.7010
   65CHL1    C6 5925   3.442   1.713   2.876  0.1976 -0.0127 -0.1704
   65CHL1    H6 5926   3.340   1.733   2.841  0.3278  2.5077  0.7186
   65CHL1    C7 5927   3.462   1.745   3.018 -0.3334 -0.1288 -0.3471
   65CHL1   H7A 5928   3.425   1.842   3.057  2.3627  0.4414  0.9861
   65CHL1   H7B 5929   3.418   1.663   3.079  0.2344 -2.4426 -2.8566
   65CHL1    C8 5930   3.614   1.760   3.056  0.0164 -0.6877 -0.2410
   65CHL1    H8 5931   3.638   1.862   3.020 -1.3754  0.6060  2.3197
   65CHL1   C14 5932   3.639   1.744   3.205 -0.2148 -0.6099  0.7111
   65CHL1   H14 5933   3.633   1.636   3.229  1.4284 -0.6828  0.9486
   65CHL1   C15 5934   3.553   1.817   3.307 -0.3783 -0.3678 -0.1996
   65CHL1  H15A 5935   3.560   1.924   3.280  0.3907 -0.5026 -0.5605
   65CHL1  H15B 5936   3.444   1.792   3.309 -0.4683  0.0599  0.5765
   65CHL1   C16 5937   3.629   1.794   3.441  0.4545 -0.0420  0.1098
   65CHL1  H16A 5938   3.646   1.891   3.494 -1.5385  1.5855 -2.0055
   65CHL1  H16B 5939   3.579   1.727   3.513  0.7452 -0.0605  0.2950
   65CHL1   C17 5940   3.759   1.728   3.406 -0.3094  0.2706  0.1228
   65CHL1   H17 5941   3.745   1.618   3.413  2.9552 -0.1991  0.7811
   65CHL1   C13 5942   3.786   1.756   3.253 -0.4822  0.3352  0.2088
   65CHL1   C18 5943   3.839   1.890   3.228 -0.3349 -0.2874 -0.6238
   65CHL1  H18A 5944   3.948   1.886   3.250  0.2370  0.9970 -2.8715
   65CHL1  H18B 5945   3.828   1.922   3.122  1.4640 -0.2695 -0.8491
   65CHL1  H18C 5946   3.794   1.969   3.291  1.3075  1.2454 -1.2872
   65CHL1   C12 5947   3.867   1.643   3.177  0.6913 -1.1266  0.0152
   65CHL1  H12A 5948   3.975   1.655   3.200  0.9110  0.9001 -1.7712
   65CHL1  H12B 5949   3.826   1.543   3.202 -1.8356  0.0337  0.9016
   65CHL1   C11 5950   3.847   1.666   3.023 -0.2360  0.5097  0.2096
   65CHL1  H11A 5951   3.893   1.761   2.990  2.2955 -1.5718 -2.9331
   65CHL1  H11B 5952   3.915   1.596   2.969  0.6853  1.0867  0.5865
   65CHL1    C9 5953   3.704   1.660   2.976 -0.1259  0.6352 -0.4529
   65CHL1    H9 5954   3.664   1.567   3.022  1.5275  0.5754  0.9798
   65CHL1   C10 5955   3.685   1.661   2.820 -0.2898 -0.4291  0.1663
   65CHL1   C19 5956   3.761   1.780   2.755  0.1169  0.3516  0.4893
   65CHL1  H19A 5957   3.744   1.879   2.802  0.9338  0.4982  0.4956
   65CHL1  H19B 5958   3.869   1.757   2.758 -0.2023 -1.2076  0.5675
   65CHL1  H19C 5959   3.732   1.787   2.647 -2.6538 -3.5249  0.7866
   65CHL1    C1 5960   3.733   1.524   2.764  0.1033 -0.1187  0.3203
   65CHL1   H1A 5961   3.844   1.524   2.772  0.2038 -0.3564 -0.8739
   65CHL1   H1B 5962   3.692   1.436   2.818  1.2355 -1.6408 -1.1966
   65CHL1    C2 5963   3.698   1.510   2.615 -0.0922  0.3939 -0.1658
   65CHL1   H2A 5964   3.743   1.420   2.569 -0.7360 -1.3165  2.3034
   65CHL1   H2B 5965   3.732   1.603   2.564 -2.8520  2.0690  0.7665
   65CHL1   C20 5966   3.873   1.756   3.508 -0.7464 -0.1627 -0.3541
   65CHL1   H20 5967   3.911   1.858   3.483  0.4832 -0.9105 -1.7063
   65CHL1   C21 5968   4.004   1.679   3.475 -0.6154  0.0506  0.2716
   65CHL1  H21A 5969   3.972   1.573   3.463  0.0181  0.0154 -1.4854
   65CHL1  H21B 5970   4.084   1.705   3.547 -0.7926 -0.9910  0.8675
   65CHL1  H21C 5971   4.038   1.711   3.374 -0.7248 -0.6711  0.0002
   65CHL1   C22 5972   3.827   1.743   3.656  0.2923  0.4727  0.5607
   65CHL1  H22A 5973   3.739   1.807   3.676  0.5008  0.2701  2.3394
   65CHL1  H22B 5974   3.791   1.640   3.677  0.5864  0.9262  3.7480
   65CHL1   C23 5975   3.939   1.792   3.747 -0.6697 -0.0249  0.3114
   65CHL1  H23A 5976   4.012   1.710   3.765 -1.8302 -0.5814  2.9894
   65CHL1  H23B 5977   3.997   1.872   3.697 -1.2891  0.3606  0.2019
   65CHL1   C24 5978   3.895   1.831   3.886 -0.3533 -0.3482 -0.0046
   65CHL1  H24A 5979   3.812   1.904   3.891 -0.4314 -0.4520  0.2479
   65CHL1  H24B 5980   3.850   1.742   3.936 -3.0123  0.2559 -1.1344
   65CHL1   C25 5981   4.012   1.887   3.963  1.1906  0.0124 -0.1663
   65CHL1   H25 5982   4.027   1.993   3.931 -0.5504  0.0597 -0.9766
   65CHL1   C26 5983   3.968   1.892   4.112  0.4397 -0.1224 -0.2598
   65CHL1  H26A 5984   4.032   1.966   4.165  1.2180 -0.4507 -0.7293
   65CHL1  H26B 5985   3.863   1.923   4.131  0.6007  1.3564 -1.6231
   65CHL1  H26C 5986   3.988   1.796   4.165  1.1349  0.2274  0.1209
   65CHL1   C27 5987   4.138   1.801   3.949  0.5262  0.3148  0.2927
   65CHL1  H27A 5988   4.218   1.847   4.011 -0.0448  0.0674  1.2488
   65CHL1  H27B 5989   4.110   1.702   3.992 -0.5928 -0.7816 -2.6972
   65CHL1  H27C 5990   4.172   1.788   3.844 -1.3272 -1.7733 -0.1420
   66CHL1    C3 5991   5.100   3.718   2.572 -0.3821 -0.6203  0.4593
   66CHL1    H3 5992   5.038   3.631   2.602  0.7698 -1.2697  0.9642
   66CHL1    O3 5993   5.116   3.741   2.434  0.3563  0.1532  0.1670
   66CHL1   H3' 5994   5.138   3.834   2.424 -1.0590  0.7415  1.8278
   66CHL1    C4 5995   5.033   3.849   2.620  0.4561 -0.1852 -0.0930
   66CHL1   H4A 5996   5.096   3.935   2.586 -0.5763 -0.1796 -2.1633
   66CHL1   H4B 5997   4.935   3.859   2.568 -0.2096  0.1690  1.1826
   66CHL1    C5 5998   5.016   3.848   2.764  0.5132  0.6558  0.0034
   66CHL1    C6 5999   4.889   3.858   2.813 -0.2573 -0.1517  0.4613
   66CHL1    H6 6000   4.804   3.861   2.743  0.9734  2.7320 -1.0970
   66CHL1    C7 6001   4.857   3.868   2.961  0.0294 -0.3748 -0.3203
   66CHL1   H7A 6002   4.776   3.941   2.981  0.7172  0.2498  0.2732
   66CHL1   H7B 6003   4.827   3.767   2.996 -2.5627  0.2537 -0.4936
   66CHL1    C8 6004   4.983   3.901   3.045 -0.4359  0.0255  0.5002
   66CHL1    H8 6005   5.010   4.008   3.036 -0.2662 -0.1054 -0.7766
   66CHL1   C14 6006   4.953   3.866   3.196  0.0305 -0.9339 -0.2843
   66CHL1   H14 6007   4.919   3.760   3.201  0.5061 -1.1118 -0.7863
   66CHL1   C15 6008   4.844   3.952   3.267 -0.3069 -0.4701  0.5261
   66CHL1  H15A 6009   4.860   4.056   3.232  0.9524 -0.5793  0.7450
   66CHL1  H15B 6010   4.741   3.920   3.240 -0.5144  0.0360  0.7088
   66CHL1   C16 6011   4.873   3.924   3.414  0.7033 -0.0910 -0.9042
   66CHL1  H16A 6012   4.889   4.025   3.458 -1.4780  0.4475 -1.2057
   66CHL1  H16B 6013   4.795   3.871   3.472  2.2265 -0.6122  0.7451
   66CHL1   C17 6014   5.007   3.842   3.426 -0.4265 -0.2220 -0.3909
   66CHL1   H17 6015   4.976   3.736   3.415 -0.2148 -0.1892 -1.4693
   66CHL1   C13 6016   5.076   3.875   3.290 -0.7320  0.2915 -0.2576
   66CHL1   C18 6017   5.130   4.021   3.295  0.5191  0.0950 -0.3553
   66CHL1  H18A 6018   5.112   4.078   3.202 -2.0665 -0.2057 -0.1276
   66CHL1  H18B 6019   5.083   4.077   3.379  1.0670  1.8566 -1.1783
   66CHL1  H18C 6020   5.238   4.019   3.321  0.0369  1.4322  2.0580
   66CHL1   C12 6021   5.177   3.767   3.241 -0.3395  0.0144 -0.4591
   66CHL1  H12A 6022   5.261   3.756   3.313 -1.6037  0.2692  1.0993
   66CHL1  H12B 6023   5.123   3.670   3.249 -2.2147  1.1156  1.1702
   66CHL1   C11 6024   5.220   3.803   3.096  0.2398  0.5243 -0.3795
   66CHL1  H11A 6025   5.283   3.893   3.112  0.5031  0.0749  1.3798
   66CHL1  H11B 6026   5.290   3.730   3.052  0.9526  1.3810 -0.6982
   66CHL1    C9 6027   5.100   3.815   3.000  0.3156 -0.4741  0.0406
   66CHL1    H9 6028   5.063   3.711   3.005 -1.0878  0.0593  2.6800
   66CHL1   C10 6029   5.140   3.833   2.850 -0.8361  0.0905  0.7567
   66CHL1   C19 6030   5.233   3.947   2.841 -0.4192 -0.6193  0.5539
   66CHL1  H19A 6031   5.329   3.940   2.895 -0.1958  3.7029  1.0512
   66CHL1  H19B 6032   5.277   3.975   2.743  0.4377  0.5607  1.2549
   66CHL1  H19C 6033   5.183   4.042   2.868  0.1878  0.2883 -1.3595
   66CHL1    C1 6034   5.222   3.713   2.794  0.2169 -0.2369 -0.0726
   66CHL1   H1A 6035   5.325   3.715   2.835  0.3993 -2.6871 -0.2338
   66CHL1   H1B 6036   5.180   3.613   2.821  2.0211 -0.7981  0.7926
   66CHL1    C2 6037   5.234   3.715   2.636 -0.0420  0.3722  0.0050
   66CHL1   H2A 6038   5.284   3.620   2.607  0.7711  1.0734 -0.9915
   66CHL1   H2B 6039   5.303   3.796   2.605  0.1818  1.1346  2.2756
   66CHL1   C20 6040   5.083   3.874   3.558 -0.1376  0.1310  0.1508
   66CHL1   H20 6041   5.108   3.982   3.561 -0.3074  0.2445 -1.7556
   66CHL1   C21 6042   5.221   3.798   3.569  0.9330 -0.2894 -0.9648
   66CHL1  H21A 6043   5.284   3.853   3.496  0.1776  2.5179  0.3676
   66CHL1  H21B 6044   5.210   3.691   3.539 -0.9847 -0.4140  0.0358
   66CHL1  H21C 6045   5.256   3.807   3.674  1.4588 -0.1182 -1.1493
   66CHL1   C22 6046   4.999   3.852   3.689  0.1075  0.1211  0.2936
   66CHL1  H22A 6047   4.897   3.895   3.683 -0.4558 -0.8422  2.1222
   66CHL1  H22B 6048   4.985   3.741   3.690  1.3691 -0.0984 -1.6761
   66CHL1   C23 6049   5.066   3.897   3.821  0.2952  0.2993  0.3784
   66CHL1  H23A 6050   5.158   3.840   3.845  0.8401  0.7715 -0.5424
   66CHL1  H23B 6051   5.103   3.999   3.795  0.1759  0.5529  1.1577
   66CHL1   C24 6052   4.965   3.904   3.938 -0.0619  0.2560  0.1371
   66CHL1  H24A 6053   4.874   3.959   3.906  1.1548  0.9886 -2.3202
   66CHL1  H24B 6054   4.938   3.797   3.940  0.9236 -0.0324 -0.7323
   66CHL1   C25 6055   5.004   3.956   4.078  0.4040  0.1583  0.5921
   66CHL1   H25 6056   4.929   3.927   4.154  0.6567 -0.7866  0.4917
   66CHL1   C26 6057   5.146   3.908   4.117  0.1119  0.7210  0.4114
   66CHL1  H26A 6058   5.224   3.941   4.045 -0.1678  0.3653 -0.0598
   66CHL1  H26B 6059   5.196   3.942   4.211 -0.3866  2.3773  0.1048
   66CHL1  H26C 6060   5.146   3.797   4.112 -0.6304  0.6844  1.0494
   66CHL1   C27 6061   5.010   4.112   4.076 -0.2140  1.2383  0.3027
   66CHL1  H27A 6062   4.924   4.157   4.021 -1.9035 -0.8954  1.0431
   66CHL1  H27B 6063   5.112   4.130   4.035  0.9631  0.3096  2.6636
   66CHL1  H27C 6064   5.012   4.145   4.182  0.6545 -2.8463  1.7522
   67CHL1    C3 6065   5.104   6.166   2.640 -0.1156 -0.8724 -0.2197
   67CHL1    H3 6066   5.183   6.098   2.680 -0.4850 -1.1649  0.0161
   67CHL1    O3 6067   5.104   6.169   2.498 -0.1089  0.6566 -0.4732
   67CHL1   H3' 6068   5.057   6.245   2.465  0.3956  1.8109  1.3128
   67CHL1    C4 6069   4.965   6.144   2.702  0.8246  0.2259 -0.3491
   67CHL1   H4A 6070   4.904   6.224   2.655 -1.0695 -1.0586 -0.1786
   67CHL1   H4B 6071   4.919   6.046   2.677  3.7427 -1.4863  0.4687
   67CHL1    C5 6072   4.967   6.154   2.852  0.4669 -0.5820 -0.4183
   67CHL1    C6 6073   4.925   6.052   2.931  0.6140 -0.0080 -0.0061
   67CHL1    H6 6074   4.885   5.962   2.881 -1.8959  0.8709  0.3227
   67CHL1    C7 6075   4.912   6.059   3.077 -0.0959 -0.8825  0.5277
   67CHL1   H7A 6076   4.809   6.034   3.110 -0.2046 -0.8662  0.1987
   67CHL1   H7B 6077   4.985   5.991   3.125  3.1758  1.5160 -0.6820
   67CHL1    C8 6078   4.935   6.207   3.133  0.0956  0.5128  0.3849
   67CHL1    H8 6079   4.838   6.259   3.119 -0.3087  0.6273  3.1325
   67CHL1   C14 6080   4.972   6.201   3.278 -0.0952  0.1272  0.1403
   67CHL1   H14 6081   5.068   6.146   3.289  2.3492  4.2891  2.3349
   67CHL1   C15 6082   4.871   6.117   3.364 -0.3566 -0.3462 -0.6505
   67CHL1  H15A 6083   4.769   6.147   3.330 -0.5918 -1.1365 -0.6566
   67CHL1  H15B 6084   4.878   6.010   3.337 -2.3622 -0.0029 -2.9034
   67CHL1   C16 6085   4.901   6.172   3.504 -0.2195 -0.0269  0.0584
   67CHL1  H16A 6086   4.802   6.217   3.526  0.6905  2.1659 -0.1073
   67CHL1  H16B 6087   4.942   6.097   3.575  0.9553  0.0869 -0.4753
   67CHL1   C17 6088   5.001   6.289   3.490 -0.3596 -1.0292 -0.3075
   67CHL1   H17 6089   5.098   6.241   3.512 -0.1859 -0.6481 -0.2298
   67CHL1   C13 6090   4.992   6.339   3.346 -0.4265  0.3385 -0.4752
   67CHL1   C18 6091   4.862   6.421   3.332  0.3868  0.1828  0.7031
   67CHL1  H18A 6092   4.773   6.358   3.355  0.8634 -0.3675  1.0659
   67CHL1  H18B 6093   4.870   6.514   3.392  3.6797  0.7515 -0.4162
   67CHL1  H18C 6094   4.863   6.444   3.223 -0.9631 -2.6099  0.0024
   67CHL1   C12 6095   5.123   6.396   3.285  0.5762  0.2121  0.2477
   67CHL1  H12A 6096   5.134   6.500   3.323  1.8970 -0.7181  2.5978
   67CHL1  H12B 6097   5.207   6.335   3.324  0.1162  0.3477  1.4727
   67CHL1   C11 6098   5.116   6.399   3.134 -0.5887 -0.0861  0.9980
   67CHL1  H11A 6099   5.046   6.482   3.108  1.5660  1.1444 -1.2684
   67CHL1  H11B 6100   5.216   6.415   3.089 -0.4739 -0.7004  1.0237
   67CHL1    C9 6101   5.051   6.275   3.063  0.0926  0.4051  0.9610
   67CHL1    H9 6102   5.132   6.199   3.071  0.0035 -0.1360 -2.1105
   67CHL1   C10 6103   5.027   6.286   2.906 -0.4200  0.3523  0.0092
   67CHL1   C19 6104   4.930   6.399   2.885 -0.6422  0.2548  0.0458
   67CHL1  H19A 6105   4.902   6.395   2.778 -3.9123 -1.2507  0.8556
   67CHL1  H19B 6106   4.834   6.378   2.936 -0.2086 -0.4101  0.6100
   67CHL1  H19C 6107   4.978   6.497   2.908  0.3860 -0.4537  1.0359
   67CHL1    C1 6108   5.168   6.312   2.833  0.1621 -0.0519 -0.0932
   67CHL1   H1A 6109   5.208   6.410   2.866  0.4848  0.5443 -2.1107
   67CHL1   H1B 6110   5.246   6.243   2.871 -0.8478 -0.7909  0.7168
   67CHL1    C2 6111   5.162   6.303   2.683  0.2382 -0.5079  0.0964
   67CHL1   H2A 6112   5.268   6.294   2.649  0.9481  1.2705  1.6581
   67CHL1   H2B 6113   5.105   6.388   2.641  1.5561  0.7172  0.6803
   67CHL1   C20 6114   4.994   6.398   3.606  0.2060  0.7236  0.4208
   67CHL1   H20 6115   4.914   6.468   3.574 -0.2065 -0.0412 -0.2400
   67CHL1   C21 6116   5.127   6.484   3.615  0.0467 -0.0373  0.1698
   67CHL1  H21A 6117   5.139   6.547   3.524 -0.0373  0.3807  0.4459
   67CHL1  H21B 6118   5.218   6.421   3.624  0.2843  0.4821  1.5296
   67CHL1  H21C 6119   5.136   6.556   3.699  2.6543 -0.0848  0.0077
   67CHL1   C22 6120   4.950   6.336   3.745 -0.9305 -0.5189 -0.5828
   67CHL1  H22A 6121   4.858   6.275   3.735 -1.2280 -0.2091  0.2026
   67CHL1  H22B 6122   5.040   6.277   3.773 -0.8523 -0.0446  0.1873
   67CHL1   C23 6123   4.939   6.438   3.862  0.1035  0.1246 -0.2443
   67CHL1  H23A 6124   4.917   6.368   3.946 -0.0559  1.5915  0.9809
   67CHL1  H23B 6125   5.043   6.477   3.875  0.2184 -0.1856 -0.2229
   67CHL1   C24 6126   4.822   6.545   3.855  0.4167  0.3364  0.3581
   67CHL1  H24A 6127   4.843   6.607   3.766 -0.3090 -2.7242 -2.1029
   67CHL1  H24B 6128   4.726   6.495   3.832  1.6595 -2.5176  0.9048
   67CHL1   C25 6129   4.816   6.635   3.974  0.5400  0.2306  0.0883
   67CHL1   H25 6130   4.739   6.715   3.967  0.4244  0.1866  0.8096
   67CHL1   C26 6131   4.779   6.563   4.105 -0.4940 -0.3876  0.4797
   67CHL1  H26A 6132   4.679   6.517   4.091 -1.3067  0.4492  2.9814
   67CHL1  H26B 6133   4.853   6.489   4.142 -1.4362 -1.5853  0.0384
   67CHL1  H26C 6134   4.770   6.631   4.193 -0.9276  0.0558  0.1002
   67CHL1   C27 6135   4.947   6.712   3.974 -0.2591  0.1665  0.9471
   67CHL1  H27A 6136   5.033   6.642   3.978 -1.3257 -1.2889 -0.4211
   67CHL1  H27B 6137   4.945   6.768   3.878 -3.5672 -1.0990  0.1547
   67CHL1  H27C 6138   4.951   6.775   4.066  1.1920 -0.7574  1.5624
   68CHL1    C3 6139   1.470   5.540   2.504  0.4211  0.3294 -0.2707
   68CHL1    H3 6140   1.379   5.481   2.527  0.4449  0.8832  1.4020
   68CHL1    O3 6141   1.489   5.567   2.370  0.4410 -0.0695  0.2696
   68CHL1   H3' 6142   1.475   5.486   2.321  0.5820  0.6137 -0.9418
   68CHL1    C4 6143   1.475   5.669   2.586 -0.5235  0.4535  0.8661
   68CHL1   H4A 6144   1.571   5.723   2.572  0.5265 -1.4872  0.1946
   68CHL1   H4B 6145   1.394   5.741   2.560 -1.5255  0.0151  2.5692
   68CHL1    C5 6146   1.464   5.647   2.730  0.0307 -0.1418 -0.1263
   68CHL1    C6 6147   1.353   5.690   2.796  0.0551  0.0053 -0.0067
   68CHL1    H6 6148   1.287   5.754   2.735  0.1053 -0.5463 -0.6441
   68CHL1    C7 6149   1.326   5.673   2.941  0.2478 -0.0433 -1.1875
   68CHL1   H7A 6150   1.299   5.772   2.983  0.0774 -0.4097 -0.4122
   68CHL1   H7B 6151   1.240   5.607   2.968 -0.2719  1.3391  0.7214
   68CHL1    C8 6152   1.436   5.609   3.021 -0.1932  0.1091  0.2334
   68CHL1    H8 6153   1.512   5.690   3.028 -1.0329  1.1067 -1.4833
   68CHL1   C14 6154   1.386   5.545   3.150 -0.5726  0.0015  1.0644
   68CHL1   H14 6155   1.328   5.459   3.110  0.9907 -1.0435  0.9586
   68CHL1   C15 6156   1.295   5.633   3.233  0.0787 -0.5859 -0.0836
   68CHL1  H15A 6157   1.338   5.734   3.254  1.2763 -0.8852 -0.9564
   68CHL1  H15B 6158   1.192   5.641   3.192  1.0027 -2.1630 -2.9965
   68CHL1   C16 6159   1.285   5.558   3.369  0.0470  0.4277 -0.1408
   68CHL1  H16A 6160   1.318   5.624   3.453 -0.4533  1.3439 -0.6424
   68CHL1  H16B 6161   1.189   5.506   3.383  0.8708 -0.7923  1.2815
   68CHL1   C17 6162   1.399   5.445   3.353 -0.3221  0.4379 -0.9378
   68CHL1   H17 6163   1.347   5.356   3.313  0.1696 -0.6559  0.7491
   68CHL1   C13 6164   1.492   5.488   3.240 -0.5056  0.5735 -0.2321
   68CHL1   C18 6165   1.595   5.587   3.286 -0.3787  0.1493 -0.6778
   68CHL1  H18A 6166   1.657   5.622   3.200 -1.1439 -0.0894 -1.3339
   68CHL1  H18B 6167   1.543   5.676   3.327 -2.5808 -0.9961 -0.8823
   68CHL1  H18C 6168   1.671   5.553   3.360 -1.3070  0.5265  0.4745
   68CHL1   C12 6169   1.570   5.379   3.160  0.1170  0.3527 -0.1980
   68CHL1  H12A 6170   1.668   5.359   3.208  0.0012  2.3710  0.9656
   68CHL1  H12B 6171   1.507   5.287   3.165  1.0298 -0.3410 -0.9672
   68CHL1   C11 6172   1.609   5.429   3.017  0.3719 -0.7489 -0.4870
   68CHL1  H11A 6173   1.688   5.506   3.026 -2.1091  1.8655  0.8002
   68CHL1  H11B 6174   1.629   5.339   2.955 -1.6198 -0.1164 -2.1768
   68CHL1    C9 6175   1.503   5.503   2.937  0.3510  0.2066  0.0143
   68CHL1    H9 6176   1.426   5.426   2.911  0.3200  0.6844 -1.3856
   68CHL1   C10 6177   1.561   5.551   2.796 -0.3875 -0.7496 -0.6160
   68CHL1   C19 6178   1.696   5.630   2.812  0.0582 -0.4499  0.6954
   68CHL1  H19A 6179   1.728   5.675   2.715 -0.4499 -0.5255  0.4892
   68CHL1  H19B 6180   1.692   5.705   2.893 -0.8580  0.5796 -0.2735
   68CHL1  H19C 6181   1.772   5.555   2.845  0.1855  0.0187  1.4953
   68CHL1    C1 6182   1.586   5.427   2.699 -0.7779  0.2994  0.5392
   68CHL1   H1A 6183   1.686   5.382   2.714 -1.1986 -0.7795  0.2412
   68CHL1   H1B 6184   1.520   5.342   2.725  2.0024 -2.6074 -1.2036
   68CHL1    C2 6185   1.596   5.459   2.546  0.5551  0.8781 -0.2171
   68CHL1   H2A 6186   1.597   5.368   2.483 -0.6291  1.3081 -0.8871
   68CHL1   H2B 6187   1.688   5.521   2.533  2.0825 -1.5525 -1.6799
   68CHL1   C20 6188   1.467   5.398   3.487 -0.6292  0.7492  0.5508
   68CHL1   H20 6189   1.555   5.335   3.462 -1.6012  0.6323 -3.0967
   68CHL1   C21 6190   1.376   5.289   3.546  0.2066  0.0195  0.1670
   68CHL1  H21A 6191   1.374   5.207   3.471  0.0757  2.2556 -2.4218
   68CHL1  H21B 6192   1.273   5.332   3.539  0.6622  0.8954 -1.8265
   68CHL1  H21C 6193   1.399   5.242   3.644 -0.3281 -0.0238  0.2783
   68CHL1   C22 6194   1.507   5.498   3.585  0.6196 -0.4508 -0.5975
   68CHL1  H22A 6195   1.560   5.581   3.534  0.6354 -0.7227 -1.0302
   68CHL1  H22B 6196   1.413   5.538   3.628 -0.3803  0.9057 -3.7537
   68CHL1   C23 6197   1.606   5.437   3.687 -0.2186  0.1192 -0.0026
   68CHL1  H23A 6198   1.554   5.350   3.732 -0.3666  0.0100 -0.3833
   68CHL1  H23B 6199   1.692   5.402   3.627 -0.1722  2.2275 -1.2783
   68CHL1   C24 6200   1.642   5.533   3.801  0.4479  0.2768 -0.5015
   68CHL1  H24A 6201   1.715   5.611   3.768  2.8592 -2.6252 -2.6597
   68CHL1  H24B 6202   1.544   5.576   3.829 -0.5466 -1.2902 -1.4208
   68CHL1   C25 6203   1.682   5.460   3.934  0.0633  0.1581 -0.6842
   68CHL1   H25 6204   1.718   5.549   3.991 -1.1338  0.9521 -1.1201
   68CHL1   C26 6205   1.570   5.394   4.007  0.0590 -0.2420 -0.3236
   68CHL1  H26A 6206   1.622   5.348   4.094  1.5220  1.7816 -0.0679
   68CHL1  H26B 6207   1.487   5.461   4.038  0.2691 -0.6658  1.2423
   68CHL1  H26C 6208   1.522   5.309   3.954 -1.8834  0.6915 -0.1627
   68CHL1   C27 6209   1.795   5.364   3.897  0.5546  0.2588  0.4225
   68CHL1  H27A 6210   1.839   5.310   3.984  1.1178 -0.1243 -0.0867
   68CHL1  H27B 6211   1.764   5.288   3.823 -1.5136  0.1364  1.3477
   68CHL1  H27C 6212   1.885   5.416   3.857  1.6484 -0.1953  2.1775
   69CHL1    C3 6213   4.151   1.974   2.647 -0.0241 -0.3237  0.2805
   69CHL1    H3 6214   4.063   2.037   2.671 -0.3775 -0.8991  0.5203
   69CHL1    O3 6215   4.151   1.924   2.511 -0.0441 -0.2319 -0.3471
   69CHL1   H3' 6216   4.236   1.881   2.499  0.8526  1.6659 -1.1649
   69CHL1    C4 6217   4.275   2.058   2.677 -0.6628  0.6460  0.3877
   69CHL1   H4A 6218   4.358   1.986   2.658 -0.2409  1.4691 -1.0058
   69CHL1   H4B 6219   4.293   2.142   2.607  1.8767 -0.5019 -0.5022
   69CHL1    C5 6220   4.284   2.099   2.823 -0.0315  0.7806  0.3879
   69CHL1    C6 6221   4.296   2.227   2.867 -0.4017 -0.0920 -0.3770
   69CHL1    H6 6222   4.307   2.303   2.788  0.0483 -0.7800 -0.9872
   69CHL1    C7 6223   4.315   2.266   3.010  0.1900 -0.1125  1.2028
   69CHL1   H7A 6224   4.403   2.332   3.025  0.4143 -0.4372  1.3163
   69CHL1   H7B 6225   4.224   2.319   3.045 -1.0240 -2.2193  1.4307
   69CHL1    C8 6226   4.344   2.148   3.102  0.2363  0.1996 -0.3390
   69CHL1    H8 6227   4.450   2.125   3.078  0.1971  2.1077 -2.6386
   69CHL1   C14 6228   4.339   2.177   3.253 -0.0661 -0.6949  0.1759
   69CHL1   H14 6229   4.238   2.218   3.275  0.6072  0.4938  1.2021
   69CHL1   C15 6230   4.435   2.286   3.309 -0.2309 -0.7177 -0.7547
   69CHL1  H15A 6231   4.539   2.263   3.279  1.7690  1.1066  3.8650
   69CHL1  H15B 6232   4.413   2.392   3.284  0.0713 -0.5240 -0.2222
   69CHL1   C16 6233   4.447   2.256   3.460  0.0529  0.5648 -0.1002
   69CHL1  H16A 6234   4.554   2.226   3.473 -0.6568 -2.4250 -0.3095
   69CHL1  H16B 6235   4.434   2.341   3.530  0.3742  0.9619 -0.5202
   69CHL1   C17 6236   4.353   2.139   3.484  0.3235  0.8941 -0.2422
   69CHL1   H17 6237   4.249   2.176   3.499 -0.6816 -1.1612 -1.5595
   69CHL1   C13 6238   4.352   2.059   3.347 -0.4203 -0.2845 -0.2036
   69CHL1   C18 6239   4.492   1.985   3.341 -0.4999 -1.1094 -0.1856
   69CHL1  H18A 6240   4.520   1.941   3.243  1.7514 -0.5609  0.1670
   69CHL1  H18B 6241   4.573   2.060   3.344 -0.8210 -0.6322 -2.1226
   69CHL1  H18C 6242   4.502   1.908   3.420 -1.7669 -0.8844  0.2282
   69CHL1   C12 6243   4.241   1.959   3.317  0.0444 -0.3241  0.0266
   69CHL1  H12A 6244   4.242   1.872   3.386 -1.1029 -0.4707 -0.1102
   69CHL1  H12B 6245   4.142   2.009   3.327  0.0706 -0.1504 -0.5264
   69CHL1   C11 6246   4.242   1.910   3.176 -0.1736  0.2625  0.0026
   69CHL1  H11A 6247   4.324   1.836   3.168  0.4882  0.9107  0.6300
   69CHL1  H11B 6248   4.146   1.856   3.160  0.5090 -1.0845  0.3144
   69CHL1    C9 6249   4.253   2.023   3.065 -0.0616 -0.5426  0.0444
   69CHL1    H9 6250   4.148   2.060   3.066 -0.5771 -1.9421 -0.6053
   69CHL1   C10 6251   4.268   1.979   2.917 -0.3847 -0.3131  0.2681
   69CHL1   C19 6252   4.399   1.902   2.909  0.9311  0.1928 -0.7166
   69CHL1  H19A 6253   4.493   1.953   2.940  0.9517  1.3519 -2.5547
   69CHL1  H19B 6254   4.384   1.808   2.967  1.1597  1.6611  1.8753
   69CHL1  H19C 6255   4.417   1.857   2.809  1.2008 -1.7837  0.1786
   69CHL1    C1 6256   4.147   1.900   2.878 -0.0999  0.1952 -0.5594
   69CHL1   H1A 6257   4.153   1.810   2.943  0.5440  0.0786 -0.7644
   69CHL1   H1B 6258   4.053   1.957   2.891 -0.7720 -1.1141  0.5800
   69CHL1    C2 6259   4.149   1.852   2.735 -0.0058 -0.4373  0.8321
   69CHL1   H2A 6260   4.061   1.790   2.708  0.0228 -0.1519  0.0615
   69CHL1   H2B 6261   4.235   1.782   2.720  1.2303  1.2348 -0.2746
   69CHL1   C20 6262   4.379   2.070   3.616  0.4206  0.1475  0.8092
   69CHL1   H20 6263   4.483   2.035   3.601 -0.9628 -3.8885 -0.8462
   69CHL1   C21 6264   4.280   1.948   3.628  0.2202 -0.0270  0.4712
   69CHL1  H21A 6265   4.308   1.868   3.556 -1.2307  0.5620 -0.7866
   69CHL1  H21B 6266   4.172   1.976   3.624  0.1855 -0.3348 -1.8941
   69CHL1  H21C 6267   4.298   1.908   3.730 -2.1944  0.3395  1.0967
   69CHL1   C22 6268   4.364   2.165   3.736 -1.0777  0.5121  0.3776
   69CHL1  H22A 6269   4.425   2.256   3.715 -1.9600  1.6038  2.3032
   69CHL1  H22B 6270   4.263   2.206   3.758 -1.0785 -0.1565  1.7093
   69CHL1   C23 6271   4.411   2.100   3.871 -0.7501  0.3818  0.0681
   69CHL1  H23A 6272   4.358   2.002   3.884  1.8780 -1.1859 -0.4008
   69CHL1  H23B 6273   4.515   2.064   3.862 -1.3762 -1.9296  1.2274
   69CHL1   C24 6274   4.395   2.196   3.985  0.3099  0.8179  0.5689
   69CHL1  H24A 6275   4.456   2.286   3.962  0.2238  0.1666 -2.7640
   69CHL1  H24B 6276   4.287   2.225   3.985  0.1816  0.3434  1.0814
   69CHL1   C25 6277   4.440   2.136   4.118 -0.3064 -0.6616  0.5729
   69CHL1   H25 6278   4.397   2.034   4.126 -3.6287  0.6656  1.2568
   69CHL1   C26 6279   4.593   2.152   4.137  0.8337 -0.3829  0.0297
   69CHL1  H26A 6280   4.644   2.115   4.046  1.2965  0.5910 -0.1231
   69CHL1  H26B 6281   4.605   2.262   4.151  0.8983 -0.4736  0.7240
   69CHL1  H26C 6282   4.637   2.102   4.226  2.0167 -1.8083 -1.3043
   69CHL1   C27 6283   4.372   2.217   4.230  0.3252  0.3417  0.2629
   69CHL1  H27A 6284   4.261   2.215   4.218  0.1876  1.6861  1.1128
   69CHL1  H27B 6285   4.397   2.193   4.335  2.6674  0.4434 -0.2165
   69CHL1  H27C 6286   4.392   2.326   4.219  1.0211  0.0436 -1.8838
   70CHL1    C3 6287   6.317   1.095   2.709  0.4804  0.2746  0.3385
   70CHL1    H3 6288   6.249   1.154   2.774  0.5806  0.7039  0.0537
   70CHL1    O3 6289   6.242   1.069   2.589  0.3193  0.5025  0.1881
   70CHL1   H3' 6290   6.240   1.147   2.533  0.2917 -1.2034 -2.3542
   70CHL1    C4 6291   6.446   1.171   2.668 -0.2783  0.6938  0.4395
   70CHL1   H4A 6292   6.515   1.106   2.610 -1.7901 -0.1390 -0.4960
   70CHL1   H4B 6293   6.419   1.255   2.602  0.0014 -0.0449 -0.6475
   70CHL1    C5 6294   6.518   1.220   2.794 -0.0748 -0.1034  0.0077
   70CHL1    C6 6295   6.531   1.348   2.828  0.5803 -0.6113 -0.8063
   70CHL1    H6 6296   6.490   1.427   2.764 -0.1900 -0.2301  0.1395
   70CHL1    C7 6297   6.608   1.394   2.947  0.0322  0.2622  0.7100
   70CHL1   H7A 6298   6.684   1.473   2.928  0.6311 -0.4719  0.0092
   70CHL1   H7B 6299   6.536   1.440   3.018  0.2547  1.6608  0.0536
   70CHL1    C8 6300   6.692   1.278   3.018  0.6265  0.0517 -0.5309
   70CHL1    H8 6301   6.788   1.262   2.965 -0.2566 -2.8749 -1.4244
   70CHL1   C14 6302   6.723   1.317   3.165 -0.2450  0.1287 -0.2963
   70CHL1   H14 6303   6.624   1.323   3.214 -0.0968  2.8723 -0.1446
   70CHL1   C15 6304   6.790   1.451   3.194 -0.0623 -0.2607  0.7541
   70CHL1  H15A 6305   6.881   1.469   3.132  0.7655 -3.1640  0.9953
   70CHL1  H15B 6306   6.724   1.540   3.182 -1.3772 -1.0365  2.0146
   70CHL1   C16 6307   6.840   1.441   3.341 -0.2359 -0.3058 -0.0413
   70CHL1  H16A 6308   6.949   1.461   3.334  0.2213 -3.0091 -2.6872
   70CHL1  H16B 6309   6.798   1.501   3.425  0.7820 -1.0853  1.0706
   70CHL1   C17 6310   6.823   1.294   3.386  0.3397 -0.1480  0.1307
   70CHL1   H17 6311   6.723   1.281   3.434 -0.3210  1.2112 -0.8157
   70CHL1   C13 6312   6.808   1.214   3.248  0.5055 -0.0371  0.6385
   70CHL1   C18 6313   6.945   1.190   3.187 -0.1124  0.2584 -0.6602
   70CHL1  H18A 6314   7.017   1.141   3.256 -1.1341  0.0360  0.2912
   70CHL1  H18B 6315   6.947   1.129   3.094  1.0077 -0.1825 -0.3577
   70CHL1  H18C 6316   6.996   1.287   3.168  1.3122 -0.2241  0.5446
   70CHL1   C12 6317   6.720   1.080   3.253 -0.1741 -0.5198  0.0255
   70CHL1  H12A 6318   6.781   1.006   3.309 -0.4741 -0.8123 -0.0281
   70CHL1  H12B 6319   6.636   1.109   3.319  0.6606  2.1359  0.0289
   70CHL1   C11 6320   6.691   1.036   3.110  0.3858  0.2124 -0.2366
   70CHL1  H11A 6321   6.783   1.000   3.060 -0.7621 -3.1834 -0.1492
   70CHL1  H11B 6322   6.625   0.947   3.120 -0.7156  1.2104  2.1962
   70CHL1    C9 6323   6.618   1.149   3.022  0.6443  0.1975  0.4671
   70CHL1    H9 6324   6.527   1.174   3.081  1.2873  0.2154  1.4734
   70CHL1   C10 6325   6.564   1.099   2.882  0.4220  0.4080 -0.4855
   70CHL1   C19 6326   6.681   1.027   2.815  0.1649 -0.4634  0.1692
   70CHL1  H19A 6327   6.711   0.934   2.869 -1.8402 -0.6850  0.9900
   70CHL1  H19B 6328   6.647   0.983   2.719 -1.0355  0.9421 -0.0901
   70CHL1  H19C 6329   6.758   1.099   2.779 -1.2154  1.4497  0.8799
   70CHL1    C1 6330   6.447   0.999   2.907 -0.4666  0.7032  0.2904
   70CHL1   H1A 6331   6.477   0.904   2.956  0.1050  1.1608  0.8304
   70CHL1   H1B 6332   6.382   1.045   2.984 -0.6400  1.7677 -0.4712
   70CHL1    C2 6333   6.350   0.965   2.788 -0.7036 -1.0143 -0.0671
   70CHL1   H2A 6334   6.262   0.910   2.828 -1.1479  0.7003  1.4341
   70CHL1   H2B 6335   6.401   0.898   2.716 -0.1926 -0.5276 -0.1621
   70CHL1   C20 6336   6.927   1.262   3.492 -0.4976  0.2291 -0.6411
   70CHL1   H20 6337   7.022   1.255   3.435 -0.4913 -0.0023 -0.6048
   70CHL1   C21 6338   6.918   1.118   3.541 -0.4030  0.1500 -0.6062
   70CHL1  H21A 6339   6.953   1.052   3.458  1.5155  0.4929 -0.1233
   70CHL1  H21B 6340   6.818   1.079   3.569 -0.1890 -1.1378 -1.5070
   70CHL1  H21C 6341   6.975   1.089   3.632 -0.2243 -3.8200 -1.7682
   70CHL1   C22 6342   6.936   1.359   3.611 -0.1076 -0.2254  0.2813
   70CHL1  H22A 6343   6.969   1.460   3.576  0.3229 -0.5159 -0.1572
   70CHL1  H22B 6344   6.836   1.370   3.660 -0.0300  0.1712  0.3567
   70CHL1   C23 6345   7.025   1.314   3.728  0.3390  0.6131  1.0654
   70CHL1  H23A 6346   6.966   1.240   3.786 -1.5742  1.9202  0.8826
   70CHL1  H23B 6347   7.121   1.268   3.697 -0.3143 -0.6152  0.7619
   70CHL1   C24 6348   7.063   1.434   3.817  0.3874  0.1910  0.2626
   70CHL1  H24A 6349   7.104   1.510   3.746  1.1904 -1.6075 -1.2841
   70CHL1  H24B 6350   6.975   1.476   3.869 -0.9282 -1.0200 -0.8950
   70CHL1   C25 6351   7.174   1.395   3.922 -0.6086  0.4300 -0.1621
   70CHL1   H25 6352   7.248   1.323   3.881 -1.9066 -1.3094  0.4494
   70CHL1   C26 6353   7.237   1.524   3.969 -0.9502 -0.9347  0.3185
   70CHL1  H26A 6354   7.325   1.517   4.036 -0.7005  1.6425  0.3730
   70CHL1  H26B 6355   7.265   1.584   3.880 -1.4230 -0.8220  0.2409
   70CHL1  H26C 6356   7.172   1.599   4.019 -0.6197 -0.0137 -0.5996
   70CHL1   C27 6357   7.105   1.331   4.043 -1.1079 -0.6706  0.3681
   70CHL1  H27A 6358   7.024   1.394   4.085  0.2473  1.2917  0.1738
   70CHL1  H27B 6359   7.060   1.237   4.006  0.0771 -0.1547 -2.7369
   70CHL1  H27C 6360   7.171   1.324   4.132  1.5098  2.0913 -1.1674
   71CHL1    C3 6361   6.393   6.193   2.939  0.6612  0.6014 -0.1235
   71CHL1    H3 6362   6.355   6.280   2.996  1.3554  0.3700  0.7056
   71CHL1    O3 6363   6.341   6.181   2.806 -0.2062 -0.5473  0.3938
   71CHL1   H3' 6364   6.303   6.269   2.801  3.0523  0.9391 -1.8901
   71CHL1    C4 6365   6.543   6.211   2.933 -0.2762  0.1791  0.5536
   71CHL1   H4A 6366   6.598   6.123   2.895  0.3543 -0.1100  2.0346
   71CHL1   H4B 6367   6.568   6.301   2.872  0.5043  0.2741  0.9920
   71CHL1    C5 6368   6.602   6.231   3.072 -0.0770 -0.3855  0.3039
   71CHL1    C6 6369   6.667   6.352   3.092 -0.4629  0.1292 -0.1912
   71CHL1    H6 6370   6.699   6.415   3.008  2.3984 -1.3733 -0.3345
   71CHL1    C7 6371   6.725   6.368   3.227  0.1036  0.1736  0.2143
   71CHL1   H7A 6372   6.834   6.388   3.214  0.9647 -3.1669  1.2689
   71CHL1   H7B 6373   6.672   6.454   3.273 -0.5117  0.8048 -1.5682
   71CHL1    C8 6374   6.716   6.241   3.323 -1.5290  0.5629  0.0407
   71CHL1    H8 6375   6.794   6.168   3.292 -1.0429 -0.0209  2.4451
   71CHL1   C14 6376   6.747   6.280   3.462 -0.4572  0.3078 -0.7390
   71CHL1   H14 6377   6.659   6.346   3.479 -1.5739 -0.9060 -1.6590
   71CHL1   C15 6378   6.875   6.356   3.505 -0.0251  0.1281  0.5334
   71CHL1  H15A 6379   6.968   6.308   3.470  0.8417  0.1689  2.6111
   71CHL1  H15B 6380   6.855   6.456   3.460 -0.2732 -1.1544 -2.4616
   71CHL1   C16 6381   6.871   6.346   3.660  0.4849  0.4200  0.7918
   71CHL1  H16A 6382   6.963   6.297   3.698 -0.5148 -1.3127  1.0825
   71CHL1  H16B 6383   6.864   6.444   3.711  2.3575  0.4157  1.1255
   71CHL1   C17 6384   6.757   6.239   3.700 -0.1730 -0.0178 -0.3806
   71CHL1   H17 6385   6.661   6.292   3.718 -1.6166 -2.4131 -0.5734
   71CHL1   C13 6386   6.731   6.161   3.573 -0.6662  0.4849  0.2578
   71CHL1   C18 6387   6.841   6.050   3.546 -0.0842  0.2347 -0.4018
   71CHL1  H18A 6388   6.937   6.091   3.584  0.5847 -0.2932 -1.4924
   71CHL1  H18B 6389   6.824   5.956   3.603  0.5551 -1.4485 -2.8491
   71CHL1  H18C 6390   6.842   6.028   3.438  1.0812  1.8212 -0.7559
   71CHL1   C12 6391   6.583   6.102   3.557 -0.3994  0.6322  0.5855
   71CHL1  H12A 6392   6.577   6.018   3.629 -1.3417  1.1387  1.1180
   71CHL1  H12B 6393   6.510   6.180   3.589 -1.4221  0.3552 -0.9435
   71CHL1   C11 6394   6.564   6.047   3.415 -0.1521  0.8958  0.8779
   71CHL1  H11A 6395   6.627   5.956   3.402 -3.6789 -1.6173  0.0915
   71CHL1  H11B 6396   6.460   6.008   3.419 -0.6121  1.8800 -0.5741
   71CHL1    C9 6397   6.587   6.163   3.310  0.2472  0.2349 -0.3257
   71CHL1    H9 6398   6.509   6.238   3.336  2.5000  2.1863  1.2212
   71CHL1   C10 6399   6.557   6.126   3.170  0.0650  0.0844 -0.8448
   71CHL1   C19 6400   6.643   6.000   3.137 -0.4452 -0.2561 -0.2058
   71CHL1  H19A 6401   6.626   5.914   3.206  1.7257  0.0382  0.7675
   71CHL1  H19B 6402   6.640   5.970   3.030  0.2369  2.1835 -0.9558
   71CHL1  H19C 6403   6.752   6.023   3.140 -0.0995 -1.8726  0.6977
   71CHL1    C1 6404   6.407   6.080   3.167  0.5537  0.1736  0.3358
   71CHL1   H1A 6405   6.406   5.981   3.218 -0.0557  0.7741  1.5050
   71CHL1   H1B 6406   6.339   6.145   3.225 -1.4090 -0.1624 -1.4231
   71CHL1    C2 6407   6.362   6.064   3.022 -0.5228  0.2023 -0.1227
   71CHL1   H2A 6408   6.257   6.031   3.012 -0.0889 -1.0949 -0.6838
   71CHL1   H2B 6409   6.418   5.979   2.975  0.6055  1.1583 -0.5705
   71CHL1   C20 6410   6.792   6.170   3.836  0.8911  0.0192 -0.4703
   71CHL1   H20 6411   6.883   6.107   3.828 -0.3335 -2.4212  2.5053
   71CHL1   C21 6412   6.676   6.077   3.877  1.1992 -0.2703 -0.1645
   71CHL1  H21A 6413   6.678   5.980   3.823 -0.1566 -0.0593 -0.6129
   71CHL1  H21B 6414   6.578   6.121   3.850  1.1314  0.3163  0.9519
   71CHL1  H21C 6415   6.688   6.064   3.987 -0.0282  2.6701  0.4176
   71CHL1   C22 6416   6.817   6.274   3.948  0.0125  0.2373 -1.0085
   71CHL1  H22A 6417   6.864   6.229   4.038 -1.3100  1.9923  0.6243
   71CHL1  H22B 6418   6.909   6.332   3.923 -0.2352  2.8164  3.1703
   71CHL1   C23 6419   6.708   6.380   3.976 -0.0507  0.1709  0.8522
   71CHL1  H23A 6420   6.693   6.427   3.876  2.2075 -1.7032 -0.4557
   71CHL1  H23B 6421   6.610   6.336   4.004 -2.3983  4.4209  0.2661
   71CHL1   C24 6422   6.742   6.478   4.086 -0.2738  0.5972  0.4340
   71CHL1  H24A 6423   6.826   6.535   4.041  1.7759 -1.5973  1.2999
   71CHL1  H24B 6424   6.668   6.560   4.096 -0.5482  0.3121  0.7878
   71CHL1   C25 6425   6.769   6.436   4.233  0.3210  0.3129 -0.2734
   71CHL1   H25 6426   6.748   6.526   4.294 -1.1399 -0.3556  0.2671
   71CHL1   C26 6427   6.659   6.337   4.270 -0.0308  0.0742  0.1844
   71CHL1  H26A 6428   6.559   6.363   4.231 -0.2347 -1.3740 -0.3509
   71CHL1  H26B 6429   6.681   6.234   4.234 -0.6171 -0.1592  0.4819
   71CHL1  H26C 6430   6.654   6.330   4.380  2.8613  1.4850  0.4877
   71CHL1   C27 6431   6.912   6.395   4.263 -0.1647  0.4197  0.1766
   71CHL1  H27A 6432   6.991   6.463   4.224 -0.2914  0.5060  0.0693
   71CHL1  H27B 6433   6.920   6.363   4.369  0.9811 -0.7694 -0.2430
   71CHL1  H27C 6434   6.944   6.302   4.211  1.0850  1.6634 -1.3935
   72CHL1    C3 6435   0.754   4.145   2.864 -0.4680  0.3668  0.0784
   72CHL1    H3 6436   0.771   4.249   2.900  0.9623  0.3210 -0.3985
   72CHL1    O3 6437   0.804   4.148   2.735 -0.4988  0.5558  0.3562
   72CHL1   H3' 6438   0.826   4.058   2.708  0.7871  0.0820  2.7267
   72CHL1    C4 6439   0.836   4.044   2.944 -0.2008 -0.6311 -0.5142
   72CHL1   H4A 6440   0.815   3.951   2.887  2.4052 -0.8809 -1.1809
   72CHL1   H4B 6441   0.945   4.062   2.931 -0.2869 -0.6772 -1.3552
   72CHL1    C5 6442   0.789   4.040   3.089 -0.3491  1.0334  1.1603
   72CHL1    C6 6443   0.869   4.079   3.190  0.4778  0.0222 -0.0430
   72CHL1    H6 6444   0.974   4.105   3.173  1.1562 -1.7459  1.1707
   72CHL1    C7 6445   0.822   4.081   3.334  0.2816 -0.4242 -0.5152
   72CHL1   H7A 6446   0.899   4.052   3.408  0.9914  0.0332 -1.0672
   72CHL1   H7B 6447   0.807   4.188   3.359  0.0746 -0.1928 -1.6030
   72CHL1    C8 6448   0.692   4.008   3.357  1.1523  0.4640  0.3670
   72CHL1    H8 6449   0.704   3.897   3.359 -0.5480  0.2615  1.6636
   72CHL1   C14 6450   0.630   4.044   3.486 -0.5985 -0.0042 -0.0857
   72CHL1   H14 6451   0.598   4.150   3.484 -1.9562 -0.3109  1.9587
   72CHL1   C15 6452   0.731   4.043   3.605  1.1566  0.0046 -0.4523
   72CHL1  H15A 6453   0.789   3.948   3.600  1.8725  0.3596  0.7935
   72CHL1  H15B 6454   0.782   4.141   3.607  3.1984 -1.0109 -0.5749
   72CHL1   C16 6455   0.634   4.028   3.725  0.2851 -0.4076  0.4881
   72CHL1  H16A 6456   0.651   3.935   3.784  0.6298 -0.1568  0.7885
   72CHL1  H16B 6457   0.648   4.113   3.794  0.3705 -0.7182  0.8569
   72CHL1   C17 6458   0.489   4.018   3.668 -0.0511  0.9907 -0.0265
   72CHL1   H17 6459   0.444   4.120   3.669 -1.3116  0.4516  0.2741
   72CHL1   C13 6460   0.507   3.963   3.526  0.5812 -0.0082 -0.1657
   72CHL1   C18 6461   0.542   3.811   3.535 -0.6227 -0.0916 -0.8993
   72CHL1  H18A 6462   0.632   3.790   3.596 -0.9842  0.8653 -0.0041
   72CHL1  H18B 6463   0.451   3.757   3.568 -1.3105  0.6451 -1.5405
   72CHL1  H18C 6464   0.559   3.765   3.435 -0.1897 -1.4296 -0.2344
   72CHL1   C12 6465   0.392   3.998   3.429  0.0692  0.5010 -0.3800
   72CHL1  H12A 6466   0.299   3.951   3.467 -0.4066  1.1423 -0.7331
   72CHL1  H12B 6467   0.369   4.106   3.439 -0.3960  0.3366  0.5142
   72CHL1   C11 6468   0.446   3.976   3.282 -0.3431 -0.1158 -0.3305
   72CHL1  H11A 6469   0.451   3.865   3.274  1.0667 -0.0272 -1.0255
   72CHL1  H11B 6470   0.362   4.002   3.215  0.1270 -0.1194 -0.9327
   72CHL1    C9 6471   0.589   4.040   3.247 -0.4893  1.2244  0.0215
   72CHL1    H9 6472   0.573   4.150   3.252 -0.4426  1.2406 -0.2050
   72CHL1   C10 6473   0.640   4.006   3.109  0.1559 -0.3443  0.3610
   72CHL1   C19 6474   0.633   3.859   3.071 -0.2852 -0.0665 -0.4059
   72CHL1  H19A 6475   0.535   3.810   3.088  1.0671 -2.6630  0.4857
   72CHL1  H19B 6476   0.662   3.832   2.967  2.9560  2.3380 -0.3051
   72CHL1  H19C 6477   0.687   3.800   3.149 -1.0939  0.7397  0.8050
   72CHL1    C1 6478   0.551   4.090   3.002 -0.8828 -0.0298 -0.2796
   72CHL1   H1A 6479   0.446   4.054   2.992 -0.2757 -1.6842 -1.2072
   72CHL1   H1B 6480   0.549   4.192   3.045 -1.0664 -0.2900  0.3348
   72CHL1    C2 6481   0.610   4.099   2.863  0.1779 -0.8298  0.1388
   72CHL1   H2A 6482   0.547   4.161   2.796  2.2957  2.0375  0.6371
   72CHL1   H2B 6483   0.612   3.996   2.820  2.3547 -1.5755  1.8487
   72CHL1   C20 6484   0.397   3.932   3.768  0.2008 -0.6975  0.0358
   72CHL1   H20 6485   0.425   3.824   3.771 -0.1840 -0.7796  1.4765
   72CHL1   C21 6486   0.245   3.930   3.719  0.0820  0.4291 -0.1764
   72CHL1  H21A 6487   0.218   4.033   3.685 -0.7822  0.9382  1.8990
   72CHL1  H21B 6488   0.183   3.900   3.806  2.1896  2.1045  2.0333
   72CHL1  H21C 6489   0.232   3.858   3.635  0.4802  0.5949 -0.3804
   72CHL1   C22 6490   0.400   3.990   3.913 -0.6774 -0.2261  0.4291
   72CHL1  H22A 6491   0.504   4.001   3.948 -1.1017 -0.0555  1.6774
   72CHL1  H22B 6492   0.343   4.085   3.922 -1.2374 -0.6301  1.2470
   72CHL1   C23 6493   0.340   3.898   4.026 -0.0683 -0.0953 -0.4462
   72CHL1  H23A 6494   0.342   3.952   4.123  0.8842  0.8825 -0.9826
   72CHL1  H23B 6495   0.235   3.874   3.997 -0.1129 -0.1342 -0.2477
   72CHL1   C24 6496   0.411   3.762   4.037 -0.5440 -0.6273 -0.2165
   72CHL1  H24A 6497   0.386   3.703   3.947  1.0738  0.0000 -1.1158
   72CHL1  H24B 6498   0.520   3.781   4.025  0.0214 -0.8246  3.4662
   72CHL1   C25 6499   0.397   3.689   4.172 -0.8904  0.9313  0.0482
   72CHL1   H25 6500   0.426   3.588   4.137 -0.5951  1.0909 -0.1733
   72CHL1   C26 6501   0.494   3.743   4.273  0.0043 -0.0777 -0.3636
   72CHL1  H26A 6502   0.490   3.852   4.293  1.1061 -0.4025  2.0306
   72CHL1  H26B 6503   0.488   3.689   4.370  0.9055 -0.1299 -0.3318
   72CHL1  H26C 6504   0.591   3.724   4.221 -0.9343  0.1358 -2.2712
   72CHL1   C27 6505   0.256   3.682   4.229  0.3748 -0.1244  0.0973
   72CHL1  H27A 6506   0.258   3.620   4.321  0.2572 -0.5395 -0.1772
   72CHL1  H27B 6507   0.206   3.775   4.265 -0.4536 -1.0193  1.3290
   72CHL1  H27C 6508   0.198   3.626   4.153 -0.6769 -1.0807  1.5483
   73CHL1    C3 6509   1.126   4.586   2.782 -0.3255  0.4016  0.2558
   73CHL1    H3 6510   1.180   4.682   2.793 -0.9120  0.7981 -0.2151
   73CHL1    O3 6511   1.117   4.530   2.651 -0.2297  0.4142 -0.0209
   73CHL1   H3' 6512   1.207   4.522   2.621 -0.0786  2.4858 -0.2314
   73CHL1    C4 6513   1.206   4.478   2.858 -0.0354 -0.3967 -0.5779
   73CHL1   H4A 6514   1.154   4.380   2.848 -0.8775 -0.0456  0.1464
   73CHL1   H4B 6515   1.308   4.464   2.817  0.1897  0.2740 -0.2611
   73CHL1    C5 6516   1.208   4.509   3.006 -0.2843 -0.2077  0.0599
   73CHL1    C6 6517   1.324   4.517   3.073 -0.0338 -0.2712  1.1267
   73CHL1    H6 6518   1.416   4.501   3.015 -0.6622  1.7002 -0.5503
   73CHL1    C7 6519   1.334   4.525   3.225 -0.3146 -0.0362  0.5284
   73CHL1   H7A 6520   1.410   4.460   3.273  0.3332  2.1068  2.5518
   73CHL1   H7B 6521   1.358   4.629   3.253  2.3672 -0.1586 -0.9837
   73CHL1    C8 6522   1.199   4.501   3.300 -0.0743  0.5046  0.7189
   73CHL1    H8 6523   1.184   4.391   3.301  0.5145  0.3808 -1.1480
   73CHL1   C14 6524   1.206   4.553   3.447  0.3817  0.1590 -0.2711
   73CHL1   H14 6525   1.231   4.660   3.425 -0.6036  0.0073 -2.3909
   73CHL1   C15 6526   1.320   4.509   3.538  0.1901 -0.1823 -0.3761
   73CHL1  H15A 6527   1.323   4.398   3.527  0.8290 -0.1555 -0.5372
   73CHL1  H15B 6528   1.412   4.557   3.497  0.6309  0.5191  1.3393
   73CHL1   C16 6529   1.280   4.548   3.683 -0.8106  0.3200  0.5500
   73CHL1  H16A 6530   1.294   4.466   3.757  3.5559  0.4323  0.0957
   73CHL1  H16B 6531   1.346   4.633   3.708 -0.4049 -0.8380  4.0168
   73CHL1   C17 6532   1.135   4.599   3.676  0.2151  0.2913 -0.0948
   73CHL1   H17 6533   1.154   4.705   3.649  0.0948  0.0024 -1.3703
   73CHL1   C13 6534   1.086   4.539   3.532 -1.2516 -0.1575 -0.0598
   73CHL1   C18 6535   1.045   4.395   3.571  0.5094 -0.2735  0.5083
   73CHL1  H18A 6536   0.944   4.398   3.618 -0.0548 -0.6749 -0.6493
   73CHL1  H18B 6537   1.047   4.341   3.474  4.1607 -0.9134  0.8150
   73CHL1  H18C 6538   1.117   4.349   3.642 -0.2219  0.9105  2.0794
   73CHL1   C12 6539   0.973   4.622   3.455 -0.1298 -0.1619  0.4615
   73CHL1  H12A 6540   0.875   4.616   3.507 -0.0308 -0.5940  0.6067
   73CHL1  H12B 6541   0.999   4.730   3.445  1.3727 -0.4688  0.8219
   73CHL1   C11 6542   0.951   4.562   3.312 -0.3902  0.0573 -0.8952
   73CHL1  H11A 6543   0.918   4.457   3.323  1.5693 -0.5834 -0.9173
   73CHL1  H11B 6544   0.875   4.623   3.259  1.6875  1.7178 -2.0965
   73CHL1    C9 6545   1.082   4.563   3.228  0.0176 -0.4794  0.4473
   73CHL1    H9 6546   1.095   4.674   3.229  0.0241 -0.4486 -0.8191
   73CHL1   C10 6547   1.073   4.521   3.076 -0.0914 -0.6053  0.3775
   73CHL1   C19 6548   0.983   4.396   3.074  0.2262 -0.3930  0.6477
   73CHL1  H19A 6549   0.985   4.351   2.972  2.9656 -0.0431  0.4726
   73CHL1  H19B 6550   1.009   4.326   3.156  0.4711 -0.4290  0.5421
   73CHL1  H19C 6551   0.876   4.417   3.092  0.4332  1.1206  0.2552
   73CHL1    C1 6552   0.999   4.630   2.997 -0.1331  0.1353  0.1130
   73CHL1   H1A 6553   0.896   4.650   3.036 -0.3477 -1.7062  0.5618
   73CHL1   H1B 6554   1.061   4.722   3.001  0.5359 -0.3189  0.2588
   73CHL1    C2 6555   0.990   4.592   2.844  0.0050 -0.9428 -0.6151
   73CHL1   H2A 6556   0.939   4.672   2.785  0.1899 -0.5693 -0.2706
   73CHL1   H2B 6557   0.934   4.497   2.832 -0.2241 -0.8811 -0.0986
   73CHL1   C20 6558   1.045   4.584   3.804  0.4529  0.3796  0.1868
   73CHL1   H20 6559   1.022   4.479   3.829 -0.7307  0.5075 -0.2675
   73CHL1   C21 6560   0.918   4.676   3.793  0.3594  0.5324 -0.2530
   73CHL1  H21A 6561   0.930   4.786   3.788 -0.9659  0.7505  0.7589
   73CHL1  H21B 6562   0.838   4.646   3.864  2.4400 -2.4032  1.0383
   73CHL1  H21C 6563   0.873   4.639   3.698  1.2182 -0.7586 -0.1768
   73CHL1   C22 6564   1.123   4.636   3.932 -0.0332  0.3182  0.1100
   73CHL1  H22A 6565   1.210   4.568   3.945 -0.2867 -0.0313  0.0129
   73CHL1  H22B 6566   1.159   4.737   3.906 -0.8500  0.1195 -2.0200
   73CHL1   C23 6567   1.028   4.648   4.056  0.5528 -0.5627 -0.8260
   73CHL1  H23A 6568   0.961   4.736   4.067 -2.1650 -2.4543 -1.2174
   73CHL1  H23B 6569   0.966   4.557   4.067  0.5168 -0.5165 -0.6445
   73CHL1   C24 6570   1.113   4.657   4.180 -0.0923  0.3727  0.6083
   73CHL1  H24A 6571   1.170   4.562   4.183 -1.7183 -0.9908 -3.4877
   73CHL1  H24B 6572   1.175   4.749   4.187  3.3590 -1.6755 -0.3958
   73CHL1   C25 6573   1.030   4.660   4.305 -0.1072  0.0893  0.4390
   73CHL1   H25 6574   0.968   4.751   4.298  1.8816  1.4048 -1.3545
   73CHL1   C26 6575   0.951   4.533   4.331 -0.1205  0.8759 -0.1544
   73CHL1  H26A 6576   1.019   4.445   4.337 -1.6825 -0.5683 -2.3061
   73CHL1  H26B 6577   0.901   4.548   4.429  0.2016  2.7399 -0.2390
   73CHL1  H26C 6578   0.879   4.509   4.250  0.0731 -0.0775 -0.0596
   73CHL1   C27 6579   1.128   4.697   4.424  0.3629 -0.5698  0.0380
   73CHL1  H27A 6580   1.167   4.801   4.421 -0.3834 -0.2974 -0.8656
   73CHL1  H27B 6581   1.078   4.693   4.523  0.5962 -1.4024  0.1323
   73CHL1  H27C 6582   1.206   4.617   4.425 -1.2531 -2.1981  0.6017
   74CHL1    C3 6583   2.824   2.579   2.788  0.1983  0.7594  0.5790
   74CHL1    H3 6584   2.816   2.688   2.806 -1.7399  0.7451 -0.0537
   74CHL1    O3 6585   2.821   2.544   2.644 -0.0549 -0.8264 -0.1406
   74CHL1   H3' 6586   2.906   2.570   2.606  0.1230  0.9860  1.3544
   74CHL1    C4 6587   2.959   2.519   2.838  0.3386 -0.4926 -0.2699
   74CHL1   H4A 6588   2.976   2.413   2.808  0.3123  0.0189 -2.2053
   74CHL1   H4B 6589   3.041   2.573   2.785  1.9574 -0.2158  2.3340
   74CHL1    C5 6590   2.981   2.539   2.988 -0.1089  0.0256  0.3432
   74CHL1    C6 6591   3.083   2.608   3.032 -0.2365 -0.2974  0.1891
   74CHL1    H6 6592   3.153   2.647   2.956  0.5160  1.5945  1.7758
   74CHL1    C7 6593   3.113   2.617   3.179  0.1391  0.0176 -0.1958
   74CHL1   H7A 6594   3.222   2.596   3.190  0.0057 -1.3192 -1.2207
   74CHL1   H7B 6595   3.094   2.721   3.214 -0.1016  1.0475 -3.1437
   74CHL1    C8 6596   3.025   2.524   3.274 -0.6175  0.2210 -0.1538
   74CHL1    H8 6597   3.065   2.422   3.253  0.7732  0.3982  1.4230
   74CHL1   C14 6598   3.021   2.565   3.421 -0.4562 -0.1497 -0.4621
   74CHL1   H14 6599   2.970   2.663   3.428  0.3749  0.2578  0.1006
   74CHL1   C15 6600   3.158   2.620   3.483  0.4831 -0.2510 -0.3564
   74CHL1  H15A 6601   3.233   2.541   3.458 -0.2834 -1.1543  0.1681
   74CHL1  H15B 6602   3.187   2.720   3.444 -0.0410 -0.3227 -0.9403
   74CHL1   C16 6603   3.124   2.611   3.632 -0.3163  0.0364  0.2012
   74CHL1  H16A 6604   3.198   2.554   3.692 -2.6065 -2.7190  0.5781
   74CHL1  H16B 6605   3.121   2.712   3.679 -1.2045  0.0875  0.0453
   74CHL1   C17 6606   2.987   2.548   3.646  0.4451 -0.5702  0.1721
   74CHL1   H17 6607   2.923   2.639   3.643 -0.2657 -1.0586  0.4311
   74CHL1   C13 6608   2.951   2.481   3.514 -0.1191 -0.3630 -0.1310
   74CHL1   C18 6609   3.012   2.340   3.516 -0.4302 -0.1897  0.3082
   74CHL1  H18A 6610   3.105   2.331   3.576  0.7140  2.4108 -0.9265
   74CHL1  H18B 6611   2.940   2.276   3.572 -1.6785  1.2734  0.4167
   74CHL1  H18C 6612   3.027   2.293   3.416 -1.5876 -1.1865  0.5749
   74CHL1   C12 6613   2.803   2.481   3.467  0.3414  0.5827 -0.0402
   74CHL1  H12A 6614   2.735   2.424   3.534  0.0129  1.0037 -0.0076
   74CHL1  H12B 6615   2.768   2.587   3.475 -0.2661  0.7039 -3.2318
   74CHL1   C11 6616   2.791   2.434   3.324 -0.9344 -0.0771 -0.3956
   74CHL1  H11A 6617   2.815   2.326   3.320 -0.4477  0.0627 -2.5271
   74CHL1  H11B 6618   2.685   2.438   3.292 -0.4404  0.7683 -2.1071
   74CHL1    C9 6619   2.879   2.513   3.228  0.1729 -0.7608 -0.0035
   74CHL1    H9 6620   2.827   2.612   3.229  0.6593 -0.4601 -1.3846
   74CHL1   C10 6621   2.870   2.470   3.080  0.6868  0.3307 -0.3833
   74CHL1   C19 6622   2.894   2.315   3.067  0.1466  0.4923 -0.3974
   74CHL1  H19A 6623   2.819   2.257   3.126 -1.0715  1.1423 -1.2668
   74CHL1  H19B 6624   2.869   2.292   2.962 -3.5167 -1.8434  0.7995
   74CHL1  H19C 6625   2.995   2.285   3.102  0.0582  2.4571  1.8146
   74CHL1    C1 6626   2.737   2.513   3.019  0.1151  0.4005 -0.5340
   74CHL1   H1A 6627   2.645   2.471   3.066  0.2885 -1.0317 -1.4315
   74CHL1   H1B 6628   2.731   2.622   3.044 -3.0693  0.3105 -0.5175
   74CHL1    C2 6629   2.716   2.506   2.860 -0.9789 -0.8438  0.2292
   74CHL1   H2A 6630   2.619   2.559   2.845  0.2460  1.3292 -0.4138
   74CHL1   H2B 6631   2.716   2.401   2.821 -0.1786 -0.1346 -1.8423
   74CHL1   C20 6632   2.956   2.479   3.780  0.0120 -0.3437 -0.0846
   74CHL1   H20 6633   3.025   2.392   3.784  1.5339  0.7550 -1.1979
   74CHL1   C21 6634   2.811   2.420   3.791  0.3239  0.5949  0.5122
   74CHL1  H21A 6635   2.738   2.493   3.749 -1.5342 -1.1622  0.5569
   74CHL1  H21B 6636   2.786   2.404   3.898  1.6788 -0.1587  0.7386
   74CHL1  H21C 6637   2.800   2.326   3.734 -0.8164  1.3653 -0.5779
   74CHL1   C22 6638   3.000   2.558   3.902  0.1594 -0.1828  0.4078
   74CHL1  H22A 6639   2.967   2.497   3.989  0.3256 -0.4852  0.2599
   74CHL1  H22B 6640   3.110   2.564   3.910  0.1154 -0.6487  1.6128
   74CHL1   C23 6641   2.931   2.696   3.911 -0.8361  0.7102 -0.4701
   74CHL1  H23A 6642   2.929   2.764   3.824 -2.0745 -0.5279 -1.4390
   74CHL1  H23B 6643   2.825   2.666   3.926 -0.8533  0.3779 -1.2210
   74CHL1   C24 6644   2.965   2.785   4.038  0.4666 -0.3791  1.0746
   74CHL1  H24A 6645   2.943   2.736   4.135  0.9293 -0.8680  0.9365
   74CHL1  H24B 6646   3.073   2.811   4.039  0.3134  0.2608  1.4116
   74CHL1   C25 6647   2.892   2.925   4.037 -1.0556  0.4926  0.3576
   74CHL1   H25 6648   2.798   2.908   3.979 -0.8571 -1.3734  0.5209
   74CHL1   C26 6649   2.878   2.966   4.182  0.8636  0.0476 -0.2567
   74CHL1  H26A 6650   2.973   2.986   4.236  0.4089  2.1983 -0.1969
   74CHL1  H26B 6651   2.819   3.060   4.179 -0.1905 -0.6135 -1.0822
   74CHL1  H26C 6652   2.803   2.898   4.227  0.7808 -1.6545 -2.7129
   74CHL1   C27 6653   2.964   3.033   3.948 -0.5114  0.7432 -0.5276
   74CHL1  H27A 6654   2.971   2.998   3.843  1.5354  1.2952 -0.6011
   74CHL1  H27B 6655   2.915   3.132   3.963 -0.8621  0.2934  1.5878
   74CHL1  H27C 6656   3.066   3.032   3.991 -2.0059 -0.8196  3.4154
   75CHL1    C3 6657   1.788   2.248   2.584 -0.5165  0.6095 -0.2703
   75CHL1    H3 6658   1.686   2.269   2.621  0.6044  3.3767  1.6249
   75CHL1    O3 6659   1.794   2.288   2.448  0.6848 -0.0649  0.1176
   75CHL1   H3' 6660   1.886   2.273   2.425  0.6986 -1.2782  0.8378
   75CHL1    C4 6661   1.883   2.344   2.663  0.0000 -0.2240 -0.8118
   75CHL1   H4A 6662   1.988   2.334   2.626  0.0957 -0.6378 -0.4343
   75CHL1   H4B 6663   1.841   2.446   2.654  1.2188  0.2771 -0.9749
   75CHL1    C5 6664   1.886   2.298   2.811 -0.0073  0.9211  0.4025
   75CHL1    C6 6665   1.845   2.381   2.904 -0.4933  0.1265 -0.2665
   75CHL1    H6 6666   1.830   2.485   2.871 -1.4162 -0.3528 -1.4694
   75CHL1    C7 6667   1.832   2.343   3.054  0.0171 -0.0394  0.7958
   75CHL1   H7A 6668   1.875   2.423   3.117  2.0931 -1.2416  1.0094
   75CHL1   H7B 6669   1.724   2.326   3.075 -1.0957  2.8075 -1.8314
   75CHL1    C8 6670   1.915   2.215   3.089 -0.1642  0.3356 -0.0821
   75CHL1    H8 6671   2.024   2.233   3.087 -0.0942 -0.0995 -0.2290
   75CHL1   C14 6672   1.873   2.177   3.227  0.2818 -0.4951  0.3441
   75CHL1   H14 6673   1.765   2.158   3.208  0.3832  0.9721 -2.0865
   75CHL1   C15 6674   1.867   2.278   3.339  0.3668  0.2633  0.0132
   75CHL1  H15A 6675   1.960   2.339   3.343  0.7076 -0.2148 -0.5363
   75CHL1  H15B 6676   1.787   2.356   3.342  1.1785  1.1323 -0.2825
   75CHL1   C16 6677   1.857   2.192   3.466 -0.4281  0.4227 -0.1746
   75CHL1  H16A 6678   1.945   2.210   3.530 -0.4291 -0.7742  0.1916
   75CHL1  H16B 6679   1.762   2.219   3.518  0.0004  0.6466  0.5031
   75CHL1   C17 6680   1.852   2.041   3.419 -0.5988 -0.2971  0.4351
   75CHL1   H17 6681   1.744   2.016   3.408 -0.6673 -1.6678  3.2739
   75CHL1   C13 6682   1.926   2.043   3.286  1.1231 -0.1129 -0.4252
   75CHL1   C18 6683   2.078   2.069   3.311  0.4351 -0.0204  0.2418
   75CHL1  H18A 6684   2.124   1.972   3.342  2.5450  0.0860 -2.2949
   75CHL1  H18B 6685   2.135   2.084   3.217  0.6811 -3.2179 -0.2532
   75CHL1  H18C 6686   2.101   2.159   3.372 -1.4073  2.0368 -1.9104
   75CHL1   C12 6687   1.898   1.930   3.191  0.6014 -0.4315  0.1173
   75CHL1  H12A 6688   1.955   1.840   3.224  2.1016 -0.1544 -1.4994
   75CHL1  H12B 6689   1.791   1.900   3.193  0.6164 -0.8766 -2.3558
   75CHL1   C11 6690   1.946   1.971   3.043  0.1141  0.1868 -0.1007
   75CHL1  H11A 6691   2.054   1.998   3.046  0.2648 -0.4511  0.4419
   75CHL1  H11B 6692   1.952   1.882   2.978  1.0427 -0.2398  0.5502
   75CHL1    C9 6693   1.880   2.103   2.993  0.1046 -0.6054 -0.0053
   75CHL1    H9 6694   1.770   2.091   3.000 -0.1597  0.6879 -1.3796
   75CHL1   C10 6695   1.907   2.141   2.842  0.9145 -0.1063 -0.4239
   75CHL1   C19 6696   2.054   2.118   2.822  0.2720  0.1565  0.1334
   75CHL1  H19A 6697   2.100   2.145   2.725  1.0086 -0.1745  0.3844
   75CHL1  H19B 6698   2.106   2.170   2.906  0.6523 -0.3960  0.2523
   75CHL1  H19C 6699   2.074   2.010   2.839  0.4026  0.0219 -0.8345
   75CHL1    C1 6700   1.809   2.060   2.752 -0.6861  0.0011  0.6662
   75CHL1   H1A 6701   1.825   1.950   2.749 -0.3886  0.0458  0.5341
   75CHL1   H1B 6702   1.704   2.071   2.786 -0.8624  0.5671 -0.0347
   75CHL1    C2 6703   1.828   2.103   2.602  0.1883  0.7447  0.6171
   75CHL1   H2A 6704   1.768   2.039   2.534  1.1943 -1.2321  1.5068
   75CHL1   H2B 6705   1.932   2.081   2.572  0.9001  3.4071  0.8452
   75CHL1   C20 6706   1.908   1.950   3.536 -0.0465  0.3299 -0.3893
   75CHL1   H20 6707   1.999   1.997   3.577 -0.7369  0.6529  0.8331
   75CHL1   C21 6708   1.943   1.808   3.495  0.1337  0.1988 -0.1120
   75CHL1  H21A 6709   1.857   1.746   3.461  1.4143 -1.8387  0.2133
   75CHL1  H21B 6710   1.983   1.753   3.584  1.2159  1.0785 -0.0311
   75CHL1  H21C 6711   2.031   1.804   3.428  0.0114  2.8039 -0.5251
   75CHL1   C22 6712   1.808   1.949   3.663  0.0637 -0.0005 -0.0631
   75CHL1  H22A 6713   1.795   2.056   3.691  1.1016  0.5492 -1.5772
   75CHL1  H22B 6714   1.709   1.904   3.638 -0.9081  1.0725  1.6619
   75CHL1   C23 6715   1.861   1.882   3.796 -0.1248 -0.3493 -0.0085
   75CHL1  H23A 6716   1.870   1.772   3.778  3.8227 -0.1926  0.1262
   75CHL1  H23B 6717   1.965   1.915   3.817 -0.0623 -0.9015  0.6106
   75CHL1   C24 6718   1.772   1.916   3.919 -0.6160 -0.4458 -0.0092
   75CHL1  H24A 6719   1.741   2.022   3.912  1.1342  0.1332  0.7149
   75CHL1  H24B 6720   1.679   1.856   3.904 -2.0865  1.9182 -1.0074
   75CHL1   C25 6721   1.840   1.899   4.055  0.5264  0.9130  0.3054
   75CHL1   H25 6722   1.929   1.965   4.060  0.3742  1.3313 -1.5973
   75CHL1   C26 6723   1.748   1.935   4.171  0.0931 -0.0720 -0.1029
   75CHL1  H26A 6724   1.659   1.869   4.164  1.4405 -1.9169 -0.6656
   75CHL1  H26B 6725   1.800   1.919   4.268 -0.8504 -0.0026  0.4307
   75CHL1  H26C 6726   1.714   2.041   4.171  1.4183  0.3957  1.4780
   75CHL1   C27 6727   1.886   1.746   4.071  0.7057 -0.2034 -0.1460
   75CHL1  H27A 6728   1.795   1.686   4.091  0.9381 -0.8869 -1.0475
   75CHL1  H27B 6729   1.926   1.706   3.975 -0.3630 -1.2361 -0.1888
   75CHL1  H27C 6730   1.961   1.739   4.152  2.1261 -1.3241 -1.4824
   76CHL1    C3 6731   0.749   5.019   2.746 -0.8225 -0.8030  0.1175
   76CHL1    H3 6732   0.644   5.013   2.711 -1.3086  1.6150  0.9919
   76CHL1    O3 6733   0.827   5.002   2.630 -0.5127 -0.2489 -0.3666
   76CHL1   H3' 6734   0.812   5.072   2.566  0.5260 -0.6914 -1.1168
   76CHL1    C4 6735   0.776   5.160   2.819  0.1056  0.4318 -0.2845
   76CHL1   H4A 6736   0.886   5.165   2.837 -0.1852 -1.4159  2.6443
   76CHL1   H4B 6737   0.751   5.237   2.742 -1.0528  1.1490  0.7853
   76CHL1    C5 6738   0.707   5.174   2.952 -0.2517 -0.4419 -0.0254
   76CHL1    C6 6739   0.627   5.277   2.976  0.2609 -0.0109  0.6064
   76CHL1    H6 6740   0.625   5.367   2.913  0.6121  0.6435  1.4992
   76CHL1    C7 6741   0.552   5.307   3.103 -0.7923 -0.9730  0.3589
   76CHL1   H7A 6742   0.556   5.415   3.127 -2.3401 -0.7255 -0.3600
   76CHL1   H7B 6743   0.445   5.289   3.076 -0.0010 -1.9278 -2.5329
   76CHL1    C8 6744   0.588   5.204   3.220  0.0796  0.3914  0.4517
   76CHL1    H8 6745   0.682   5.244   3.264  1.0332 -1.7302  0.4432
   76CHL1   C14 6746   0.481   5.204   3.324  0.3487  0.9356  0.6303
   76CHL1   H14 6747   0.385   5.169   3.280 -1.2205  1.5400  3.3130
   76CHL1   C15 6748   0.435   5.343   3.384 -0.1565 -0.4223 -0.3682
   76CHL1  H15A 6749   0.522   5.407   3.410 -0.5866  0.4502 -1.0294
   76CHL1  H15B 6750   0.369   5.395   3.311  0.7800 -0.2699 -1.1290
   76CHL1   C16 6751   0.362   5.302   3.510 -0.1313 -0.0940 -0.6379
   76CHL1  H16A 6752   0.420   5.351   3.591 -1.0154  0.1074 -0.1212
   76CHL1  H16B 6753   0.261   5.342   3.531  0.3008  0.3328  0.6951
   76CHL1   C17 6754   0.383   5.151   3.533 -0.0337 -0.1854 -0.6847
   76CHL1   H17 6755   0.297   5.101   3.484 -0.6456  0.0455  0.1248
   76CHL1   C13 6756   0.502   5.105   3.439  0.1297 -0.3159  0.1487
   76CHL1   C18 6757   0.626   5.157   3.514 -0.2731  0.1106  0.4970
   76CHL1  H18A 6758   0.666   5.068   3.567  1.5801  0.2133 -0.6481
   76CHL1  H18B 6759   0.712   5.202   3.459  1.2769 -0.6709  2.1537
   76CHL1  H18C 6760   0.599   5.232   3.592  0.7379 -0.7177  1.7001
   76CHL1   C12 6761   0.507   4.966   3.380  0.0337 -0.3858 -0.4731
   76CHL1  H12A 6762   0.534   4.900   3.466 -2.6339  0.9150  1.5262
   76CHL1  H12B 6763   0.407   4.940   3.339  0.0628 -1.7488  0.2662
   76CHL1   C11 6764   0.623   4.954   3.279  0.1839  0.1055 -0.0986
   76CHL1  H11A 6765   0.713   4.977   3.339  0.1158  1.2848 -0.4171
   76CHL1  H11B 6766   0.625   4.846   3.251 -1.8242  0.0766 -0.2906
   76CHL1    C9 6767   0.610   5.066   3.167  0.0030  0.0429  0.4019
   76CHL1    H9 6768   0.513   5.043   3.119  0.8825  0.4250 -1.6846
   76CHL1   C10 6769   0.715   5.054   3.049 -0.4045  0.0561 -0.7074
   76CHL1   C19 6770   0.855   5.048   3.118  0.3821  0.1014  0.3250
   76CHL1  H19A 6771   0.868   4.947   3.161  0.5173  1.3557  3.5218
   76CHL1  H19B 6772   0.940   5.073   3.051  0.0618 -0.6690 -0.3879
   76CHL1  H19C 6773   0.862   5.116   3.205  1.8269 -2.0698  2.0135
   76CHL1    C1 6774   0.690   4.918   2.976 -0.1678  0.4300  0.2037
   76CHL1   H1A 6775   0.710   4.830   3.041 -0.4941 -0.1599 -0.4838
   76CHL1   H1B 6776   0.583   4.919   2.946  0.0949 -0.7387 -0.8470
   76CHL1    C2 6777   0.765   4.896   2.840  0.1298  0.8361 -0.2133
   76CHL1   H2A 6778   0.752   4.798   2.791  0.1297  0.0644  1.2669
   76CHL1   H2B 6779   0.876   4.898   2.854 -0.1123 -1.6693  3.2352
   76CHL1   C20 6780   0.372   5.100   3.683 -0.0846  0.3336  0.4005
   76CHL1   H20 6781   0.466   5.138   3.727 -1.1036  0.4619  2.5746
   76CHL1   C21 6782   0.357   4.947   3.676  0.3569 -0.0846  0.4665
   76CHL1  H21A 6783   0.346   4.905   3.778 -2.1314  0.1051  0.3397
   76CHL1  H21B 6784   0.454   4.901   3.647 -0.3843 -2.8710  1.9426
   76CHL1  H21C 6785   0.272   4.908   3.615 -1.6039 -0.0462  3.0035
   76CHL1   C22 6786   0.267   5.164   3.769 -0.9466 -0.0386  0.7006
   76CHL1  H22A 6787   0.261   5.271   3.739 -0.4486  0.2355  1.5545
   76CHL1  H22B 6788   0.166   5.126   3.744 -2.1692  3.1638  0.2271
   76CHL1   C23 6789   0.299   5.156   3.921  0.1448  0.3434  0.3050
   76CHL1  H23A 6790   0.325   5.049   3.935  0.7961  0.4493 -0.0339
   76CHL1  H23B 6791   0.375   5.235   3.938 -0.2330  0.4791  1.4816
   76CHL1   C24 6792   0.173   5.186   4.012  0.1604 -0.6283  0.0513
   76CHL1  H24A 6793   0.120   5.273   3.968  0.0822  0.6349  2.4557
   76CHL1  H24B 6794   0.101   5.101   4.015 -2.6292  1.5376 -1.0451
   76CHL1   C25 6795   0.212   5.246   4.153  0.0613  0.2940  0.4436
   76CHL1   H25 6796   0.279   5.332   4.131  0.6969  0.2388  2.0349
   76CHL1   C26 6797   0.085   5.307   4.229  0.0678  0.2645  0.3746
   76CHL1  H26A 6798   0.024   5.365   4.156  1.0990 -2.0826 -2.5489
   76CHL1  H26B 6799   0.022   5.221   4.258  1.0544 -2.0218 -3.5275
   76CHL1  H26C 6800   0.110   5.362   4.323  1.1221 -2.7351  1.9783
   76CHL1   C27 6801   0.290   5.140   4.236  0.5156 -0.2213  0.2463
   76CHL1  H27A 6802   0.376   5.090   4.186 -0.6087 -0.2056 -1.8125
   76CHL1  H27B 6803   0.335   5.174   4.331  2.5254  0.6823 -0.9649
   76CHL1  H27C 6804   0.216   5.062   4.261  1.5356 -1.8813 -1.6020
   77SOPE     N 6805   4.045   4.184   6.660 -0.3549  0.4713 -0.1502
   77SOPE   HN1 6806   4.146   4.178   6.636 -0.4788  1.1306 -0.8570
   77SOPE   HN2 6807   4.020   4.285   6.662  1.0612  0.8661 -1.0008
   77SOPE   HN3 6808   4.023   4.142   6.753 -1.4215  1.9930  0.3244
   77SOPE   C12 6809   3.970   4.097   6.561  0.0904 -0.2477  0.5024
   77SOPE  H12A 6810   3.903   4.169   6.508  0.4667 -1.8083 -2.2696
   77SOPE  H12B 6811   3.911   4.026   6.623  1.5898 -1.2995  0.7880
   77SOPE   C11 6812   4.050   4.019   6.460 -0.4408  0.2640 -0.0238
   77SOPE  H11A 6813   4.080   4.085   6.375  2.1896 -0.1080  0.5349
   77SOPE  H11B 6814   3.984   3.939   6.420 -0.2121  0.7149 -1.3726
   77SOPE     P 6815   4.286   3.910   6.421  0.0276 -0.5415  0.1884
   77SOPE   O13 6816   4.386   3.825   6.494  0.2907  0.3249 -0.0143
   77SOPE   O14 6817   4.330   4.037   6.347  0.4459 -0.4448  0.2958
   77SOPE   O12 6818   4.165   3.954   6.522 -0.3971  0.0974  0.3830
   77SOPE   O11 6819   4.200   3.815   6.323  0.1938 -0.5868  0.1934
   77SOPE    C1 6820   4.257   3.688   6.271 -0.0846 -1.3632 -0.1009
   77SOPE    HA 6821   4.170   3.621   6.258 -1.2745 -0.5169  2.6470
   77SOPE    HB 6822   4.320   3.645   6.352  0.8481 -0.5330 -0.3731
   77SOPE    C2 6823   4.318   3.707   6.130  0.2838  0.6042 -0.1095
   77SOPE    HS 6824   4.414   3.764   6.133  0.6143  0.1112  3.3852
   77SOPE   O21 6825   4.226   3.764   6.036  0.4501 -0.4468 -0.6517
   77SOPE   C21 6826   4.250   3.860   5.949 -0.2263  0.0716  0.3488
   77SOPE   O22 6827   4.358   3.915   5.939 -0.8724  0.2096  0.2085
   77SOPE   C22 6828   4.125   3.887   5.867 -0.0724 -0.1824  0.0873
   77SOPE   H2R 6829   4.141   3.966   5.789 -0.4101 -0.2407 -0.0445
   77SOPE   H2S 6830   4.041   3.928   5.928 -2.1273  0.4071 -2.9103
   77SOPE    C3 6831   4.357   3.571   6.081  0.0975  0.3986 -0.7731
   77SOPE    HX 6832   4.427   3.532   6.158  0.8206  1.7470 -0.7072
   77SOPE    HY 6833   4.421   3.564   5.991  1.2023 -1.9076  0.1037
   77SOPE   O31 6834   4.244   3.484   6.074  0.0032  0.0653 -0.4080
   77SOPE   C31 6835   4.228   3.411   5.969 -0.3096  0.2528  0.1259
   77SOPE   O32 6836   4.309   3.404   5.877  0.5920 -0.1051  0.0770
   77SOPE   C32 6837   4.090   3.348   5.972 -0.1264  0.1800  0.1221
   77SOPE   H2X 6838   4.014   3.427   5.988  0.3381  0.4333  1.1397
   77SOPE   H2Y 6839   4.090   3.284   6.063  3.0305  1.2498  1.0033
   77SOPE   C23 6840   4.070   3.764   5.794 -0.5167 -0.0324  0.3739
   77SOPE   H3R 6841   3.964   3.789   5.772 -1.0075 -1.3316  1.1725
   77SOPE   H3S 6842   4.072   3.665   5.844 -0.8397 -0.5394 -0.5966
   77SOPE   C24 6843   4.124   3.752   5.651  0.0494 -0.2136  0.8199
   77SOPE   H4R 6844   4.135   3.851   5.602  2.0639 -0.8803 -0.2043
   77SOPE   H4S 6845   4.230   3.722   5.667  0.3698 -0.0349 -0.7858
   77SOPE   C25 6846   4.043   3.654   5.568  0.0429  0.0785  0.5039
   77SOPE   H5R 6847   4.026   3.563   5.628  1.6256 -0.1404  0.6491
   77SOPE   H5S 6848   3.948   3.708   5.545  0.2857  0.6563  0.8294
   77SOPE   C26 6849   4.124   3.617   5.431  0.2611 -0.0257 -0.8980
   77SOPE   H6R 6850   4.055   3.555   5.370  0.4528 -2.1512  0.9531
   77SOPE   H6S 6851   4.151   3.711   5.378  1.7760 -1.2790 -2.4367
   77SOPE   C27 6852   4.242   3.521   5.453  0.9481 -0.7848  0.4621
   77SOPE   H7R 6853   4.318   3.570   5.517  1.7867  1.0405 -1.8055
   77SOPE   H7S 6854   4.208   3.432   5.512  0.8309  0.6031  2.5971
   77SOPE   C28 6855   4.301   3.482   5.316 -0.4410  0.0755 -0.5279
   77SOPE   H8R 6856   4.362   3.566   5.276  0.6215 -1.1014 -1.4711
   77SOPE   H8S 6857   4.377   3.407   5.348 -2.1778 -0.7555  1.8858
   77SOPE   C29 6858   4.199   3.420   5.218  0.0501 -0.4524  0.6592
   77SOPE   H91 6859   4.133   3.341   5.255 -0.3896 -1.2021 -1.5905
   77SOPE  C210 6860   4.195   3.447   5.088 -0.8649  0.0110  0.4128
   77SOPE  H101 6861   4.114   3.419   5.019  0.0192  3.1211 -2.1314
   77SOPE  C211 6862   4.292   3.535   5.016 -0.0613 -0.6261 -0.0610
   77SOPE  H11R 6863   4.347   3.487   4.933  1.9380  0.6268  0.4618
   77SOPE  H11S 6864   4.381   3.564   5.075 -1.1950 -0.8668  1.8463
   77SOPE  C212 6865   4.252   3.671   4.956  0.3065  0.4780 -0.2548
   77SOPE  H12R 6866   4.343   3.734   4.959  0.1705  0.6564  0.1604
   77SOPE  H12S 6867   4.185   3.718   5.031  2.7591  0.5731  2.0419
   77SOPE  C213 6868   4.191   3.659   4.817  0.3948 -0.0534 -0.8034
   77SOPE  H13R 6869   4.144   3.756   4.791  0.7184  0.2591 -0.2365
   77SOPE  H13S 6870   4.114   3.579   4.825  1.0170 -0.5892 -0.1042
   77SOPE  C214 6871   4.294   3.626   4.711 -0.2221 -0.0347 -0.0266
   77SOPE  H14R 6872   4.373   3.554   4.742 -1.1569 -0.8115  0.6482
   77SOPE  H14S 6873   4.342   3.725   4.702 -1.2848  0.6023  0.9588
   77SOPE  C215 6874   4.226   3.583   4.575 -0.2264  0.0741 -0.2368
   77SOPE  H15R 6875   4.165   3.492   4.593 -0.8004  0.2592 -1.1472
   77SOPE  H15S 6876   4.315   3.565   4.512  0.7274  1.7217  0.5587
   77SOPE  C216 6877   4.146   3.696   4.509  0.1428 -0.9056  0.1090
   77SOPE  H16R 6878   4.206   3.790   4.506 -1.1837  0.0025  0.9587
   77SOPE  H16S 6879   4.053   3.723   4.562  0.9561  0.9857  0.6823
   77SOPE  C217 6880   4.108   3.679   4.359 -0.0363 -0.1625  0.6982
   77SOPE  H17R 6881   4.029   3.758   4.356 -0.2190 -0.3559  0.3746
   77SOPE  H17S 6882   4.045   3.589   4.345 -2.2080  1.6154 -2.4395
   77SOPE  C218 6883   4.214   3.680   4.247  0.0117 -0.1744 -0.4876
   77SOPE  H18R 6884   4.179   3.677   4.142  0.9460 -1.4178 -0.7866
   77SOPE  H18S 6885   4.281   3.592   4.251  0.6001  0.3076  1.2497
   77SOPE  H18T 6886   4.272   3.772   4.271 -0.5903  0.3770 -1.1047
   77SOPE   C33 6887   4.066   3.265   5.840 -0.6255  0.4342  0.1231
   77SOPE   H3X 6888   4.147   3.191   5.826 -1.9591 -1.1048  0.2652
   77SOPE   H3Y 6889   4.066   3.338   5.756 -1.5493 -0.6715 -0.8877
   77SOPE   C34 6890   3.930   3.203   5.842  0.1216  0.3004 -0.1645
   77SOPE   H4X 6891   3.855   3.283   5.822  2.5900  3.1043  1.1177
   77SOPE   H4Y 6892   3.911   3.173   5.948  0.0785  1.9876  0.3378
   77SOPE   C35 6893   3.914   3.094   5.735  0.5663  0.1558  0.1290
   77SOPE   H5X 6894   3.804   3.082   5.725  0.4526  0.2438  1.1732
   77SOPE   H5Y 6895   3.962   2.996   5.755 -2.4982 -1.1019  2.0658
   77SOPE   C36 6896   3.967   3.141   5.597  0.5719  0.8021 -0.4676
   77SOPE   H6X 6897   4.077   3.132   5.606  0.4629  0.3526  0.5345
   77SOPE   H6Y 6898   3.940   3.248   5.582  1.4290  1.1638  0.4667
   77SOPE   C37 6899   3.924   3.060   5.472  0.3782 -0.4508  0.0144
   77SOPE   H7X 6900   3.814   3.046   5.476  0.2419  0.7745  2.3234
   77SOPE   H7Y 6901   3.969   2.959   5.485 -0.1903 -0.7101 -0.0377
   77SOPE   C38 6902   3.979   3.113   5.335  0.1958 -0.4900 -0.8665
   77SOPE   H8X 6903   4.085   3.143   5.350 -0.2102  0.2390  0.7636
   77SOPE   H8Y 6904   3.922   3.207   5.321  1.9028  0.7024 -0.1510
   77SOPE   C39 6905   3.976   3.014   5.220  0.2660  0.4997  0.5608
   77SOPE   H9X 6906   3.870   3.003   5.189  0.4763  0.3920 -0.1532
   77SOPE   H9Y 6907   4.017   2.915   5.248  0.4890  0.9567  1.8965
   77SOPE  C310 6908   4.054   3.050   5.090  0.1074 -0.0766 -0.0132
   77SOPE  H10X 6909   4.160   3.052   5.124  0.2702 -2.0041 -0.2916
   77SOPE  H10Y 6910   4.046   3.153   5.050 -0.3336  0.4312  1.3272
   77SOPE  C311 6911   4.015   2.958   4.975  0.3952 -0.1269  0.7870
   77SOPE  H11X 6912   3.906   2.975   4.962  0.7012  1.0951 -0.4186
   77SOPE  H11Y 6913   4.017   2.850   5.001 -2.0140 -0.4253  0.0221
   77SOPE  C312 6914   4.083   2.998   4.841  0.6729  0.2827 -0.8063
   77SOPE  H12X 6915   4.045   3.098   4.813  2.3423  0.7866 -1.3648
   77SOPE  H12Y 6916   4.049   2.924   4.766 -2.4224 -0.7824  1.4118
   77SOPE  C313 6917   4.230   3.013   4.858 -0.0318 -0.5298  0.4860
   77SOPE  H13X 6918   4.271   2.920   4.903  0.5049  0.1417  1.4214
   77SOPE  H13Y 6919   4.260   3.085   4.937 -0.8374 -0.8447  1.0940
   77SOPE  C314 6920   4.304   3.057   4.725  0.0751  0.1120 -0.0962
   77SOPE  H14X 6921   4.411   3.075   4.747 -0.4635 -0.9207  4.2027
   77SOPE  H14Y 6922   4.277   3.152   4.673 -1.1726 -0.5309 -0.6787
   77SOPE  C315 6923   4.302   2.933   4.626 -0.0993  0.4931  0.2322
   77SOPE  H15X 6924   4.219   2.938   4.552  0.8549 -0.0812 -0.9069
   77SOPE  H15Y 6925   4.278   2.846   4.689 -0.3379  0.8860  0.6877
   77SOPE  C316 6926   4.437   2.918   4.555 -0.1577 -0.5655 -0.2348
   77SOPE  H16X 6927   4.513   2.916   4.636 -0.9829  1.6469  0.6776
   77SOPE  H16Y 6928   4.461   3.007   4.492  2.0778  0.0542  1.3564
   77SOPE  C317 6929   4.446   2.790   4.472  0.0481 -0.3345 -0.7961
   77SOPE  H17X 6930   4.354   2.792   4.409 -0.3407  3.4473 -0.3577
   77SOPE  H17Y 6931   4.439   2.702   4.538 -0.9853 -0.2750 -0.7984
   77SOPE  C318 6932   4.572   2.766   4.390  0.4687 -0.3159  0.0614
   77SOPE  H18X 6933   4.662   2.804   4.444  0.1036 -0.6531  0.9186
   77SOPE  H18Y 6934   4.572   2.823   4.295 -0.8122 -0.1754  0.1361
   77SOPE  H18Z 6935   4.581   2.660   4.358 -1.6749 -1.2445  2.2147
   78SOPE     N 6936   3.545   2.828   6.783 -0.2944  0.2756 -0.2205
   78SOPE   HN1 6937   3.591   2.875   6.703  0.6670  1.0592  0.7665
   78SOPE   HN2 6938   3.446   2.822   6.753 -0.6315  1.0912  0.6702
   78SOPE   HN3 6939   3.552   2.879   6.874  1.0557  0.3934 -0.3691
   78SOPE   C12 6940   3.601   2.691   6.792  0.1218 -0.0536 -0.2414
   78SOPE  H12A 6941   3.542   2.622   6.857 -0.4420  0.3399 -0.3237
   78SOPE  H12B 6942   3.701   2.701   6.839 -0.3303 -1.6838  1.1665
   78SOPE   C11 6943   3.602   2.641   6.648  0.2315 -0.2760  0.6696
   78SOPE  H11A 6944   3.500   2.621   6.610  0.9484 -1.5904 -0.6482
   78SOPE  H11B 6945   3.653   2.543   6.648 -1.2388 -1.0699  0.1696
   78SOPE     P 6946   3.814   2.732   6.528  0.1773 -0.5263  0.1405
   78SOPE   O13 6947   3.890   2.633   6.601  0.0457  0.0110  0.0658
   78SOPE   O14 6948   3.854   2.873   6.522 -0.7979  0.3627  0.5356
   78SOPE   O12 6949   3.663   2.730   6.553  0.0131 -0.1043 -0.0354
   78SOPE   O11 6950   3.816   2.694   6.371 -0.5703 -0.1140  0.3848
   78SOPE    C1 6951   3.736   2.602   6.294 -0.2015 -0.8049 -0.0918
   78SOPE    HA 6952   3.687   2.649   6.206 -1.2674 -2.5859 -0.4953
   78SOPE    HB 6953   3.658   2.561   6.362  1.0718 -1.5057  1.0031
   78SOPE    C2 6954   3.814   2.479   6.246  0.4736 -0.0055  0.6843
   78SOPE    HS 6955   3.872   2.456   6.337  1.6063 -1.6851 -0.4152
   78SOPE   O21 6956   3.905   2.515   6.140  0.1345 -0.0759  0.3306
   78SOPE   C21 6957   4.011   2.441   6.131 -0.0839 -0.5740  0.1554
   78SOPE   O22 6958   4.035   2.341   6.195 -0.1176  0.6591  0.0915
   78SOPE   C22 6959   4.089   2.491   6.013  0.0254 -0.0733  0.2560
   78SOPE   H2R 6960   4.196   2.486   6.044  0.7904  1.1600 -1.9827
   78SOPE   H2S 6961   4.062   2.597   5.997  2.4919  1.2572  3.5857
   78SOPE    C3 6962   3.714   2.373   6.203 -0.8408  0.3911 -0.2052
   78SOPE    HX 6963   3.671   2.325   6.293  0.5263 -2.0412 -0.7635
   78SOPE    HY 6964   3.762   2.288   6.151 -1.5100 -0.3529  0.3822
   78SOPE   O31 6965   3.613   2.435   6.125  0.4767 -0.3012 -0.2729
   78SOPE   C31 6966   3.632   2.447   5.998  0.4440  0.5831  0.2538
   78SOPE   O32 6967   3.698   2.368   5.927 -0.9957  0.7305  0.1920
   78SOPE   C32 6968   3.537   2.553   5.949 -0.2227  0.2068 -0.2233
   78SOPE   H2X 6969   3.500   2.620   6.029  0.6216 -0.0371  0.3768
   78SOPE   H2Y 6970   3.458   2.516   5.880 -4.0701  1.7646  2.9300
   78SOPE   C23 6971   4.058   2.413   5.882  0.5439 -0.0819 -0.2060
   78SOPE   H3R 6972   3.951   2.420   5.853  0.8488  1.2473 -1.1197
   78SOPE   H3S 6973   4.077   2.304   5.895  0.6085 -0.1065 -0.4894
   78SOPE   C24 6974   4.143   2.457   5.766 -0.0877 -0.5070  0.1780
   78SOPE   H4R 6975   4.156   2.567   5.751  1.7082 -0.7382 -0.2664
   78SOPE   H4S 6976   4.251   2.444   5.791 -0.1300 -0.7136  0.2499
   78SOPE   C25 6977   4.105   2.394   5.630 -0.0030 -0.1387 -0.5012
   78SOPE   H5R 6978   4.085   2.286   5.645  3.8524 -0.9228 -0.0025
   78SOPE   H5S 6979   4.005   2.439   5.610  0.1791  0.4476 -0.1101
   78SOPE   C26 6980   4.206   2.411   5.517 -0.2102 -0.2339 -0.4366
   78SOPE   H6R 6981   4.229   2.518   5.500 -0.0238 -0.1125  0.5195
   78SOPE   H6S 6982   4.301   2.365   5.553  0.1566  0.1578 -0.8936
   78SOPE   C27 6983   4.156   2.348   5.384 -0.1470 -0.6308 -0.2561
   78SOPE   H7R 6984   4.241   2.355   5.312 -0.1877 -0.1586 -0.2603
   78SOPE   H7S 6985   4.125   2.243   5.401 -1.0902 -0.3888 -0.4792
   78SOPE   C28 6986   4.052   2.434   5.311 -0.2634 -0.2612  0.6032
   78SOPE   H8R 6987   3.998   2.378   5.232  0.0935 -1.8436  1.4477
   78SOPE   H8S 6988   3.985   2.463   5.395 -1.1672 -0.3108 -0.0925
   78SOPE   C29 6989   4.105   2.558   5.241  0.3414  0.0731 -0.4241
   78SOPE   H91 6990   4.087   2.643   5.309  0.2781 -1.2572  1.2713
   78SOPE  C210 6991   4.122   2.580   5.109  2.1625  0.1377  0.4270
   78SOPE  H101 6992   4.169   2.672   5.071  1.4352 -0.3965 -1.9438
   78SOPE  C211 6993   4.125   2.466   5.016  0.5344  0.7033 -0.3579
   78SOPE  H11R 6994   4.042   2.482   4.943 -0.4615  1.4874  0.8950
   78SOPE  H11S 6995   4.118   2.364   5.060  2.5948  0.2181 -1.0484
   78SOPE  C212 6996   4.254   2.443   4.938  0.0279  0.1118  0.8342
   78SOPE  H12R 6997   4.336   2.419   5.008  0.1324  0.9404  1.0065
   78SOPE  H12S 6998   4.287   2.537   4.888  1.8437 -0.2346  1.3379
   78SOPE  C213 6999   4.257   2.338   4.825  0.0154 -0.0295 -0.0297
   78SOPE  H13R 7000   4.363   2.331   4.792  0.3367  2.7332  0.1821
   78SOPE  H13S 7001   4.202   2.388   4.742 -0.1814 -0.7124 -0.3172
   78SOPE  C214 7002   4.213   2.201   4.859  0.2609  0.2765 -0.0792
   78SOPE  H14R 7003   4.104   2.209   4.878  0.0334 -0.3444 -1.0108
   78SOPE  H14S 7004   4.268   2.170   4.951 -0.8216 -1.9133 -0.1098
   78SOPE  C215 7005   4.232   2.095   4.751  0.0437 -0.4033  0.5959
   78SOPE  H15R 7006   4.213   1.994   4.793 -0.1799 -0.4715  0.3315
   78SOPE  H15S 7007   4.338   2.090   4.719  0.2722 -1.0389  1.4195
   78SOPE  C216 7008   4.156   2.107   4.619  0.0278 -0.0157 -0.0059
   78SOPE  H16R 7009   4.189   2.199   4.566 -0.1479  1.0109  1.5781
   78SOPE  H16S 7010   4.047   2.122   4.639  0.0010 -1.2932  0.9455
   78SOPE  C217 7011   4.169   1.981   4.519 -0.7342  0.5216 -0.0482
   78SOPE  H17R 7012   4.117   2.001   4.423 -0.8688  0.0211 -0.0823
   78SOPE  H17S 7013   4.112   1.893   4.556 -0.9129 -0.3460 -2.2273
   78SOPE  C218 7014   4.309   1.925   4.499 -0.7336 -0.1158 -0.2209
   78SOPE  H18R 7015   4.368   2.009   4.459 -2.1981 -0.1361 -2.6007
   78SOPE  H18S 7016   4.307   1.843   4.424  0.7217 -0.4771  0.0921
   78SOPE  H18T 7017   4.348   1.876   4.591 -0.9965 -1.6175 -0.8705
   78SOPE   C33 7018   3.621   2.665   5.873  0.0763 -0.3688  0.0561
   78SOPE   H3X 7019   3.686   2.707   5.953  0.7918 -3.0624  0.9895
   78SOPE   H3Y 7020   3.560   2.753   5.842  1.0841  0.6013  0.7697
   78SOPE   C34 7021   3.697   2.615   5.746 -0.6205 -0.3267 -0.2058
   78SOPE   H4X 7022   3.632   2.567   5.670  0.2922  0.1066 -1.2906
   78SOPE   H4Y 7023   3.769   2.538   5.781  0.2547 -0.1376 -1.5078
   78SOPE   C35 7024   3.787   2.733   5.689  0.2576  0.3230  0.0619
   78SOPE   H5X 7025   3.869   2.757   5.759 -0.1986  1.7973  0.1314
   78SOPE   H5Y 7026   3.726   2.826   5.689  0.6686  0.6339 -1.7003
   78SOPE   C36 7027   3.839   2.705   5.547 -0.0462  0.3644  0.2617
   78SOPE   H6X 7028   3.887   2.606   5.534  1.2555  1.1754 -1.5701
   78SOPE   H6Y 7029   3.924   2.774   5.531  0.1868  0.1277  0.4823
   78SOPE   C37 7030   3.729   2.745   5.437 -0.0225  0.8289 -0.5358
   78SOPE   H7X 7031   3.717   2.855   5.432  0.6983  0.9137 -0.4595
   78SOPE   H7Y 7032   3.640   2.687   5.471  0.5520  0.4202  0.3117
   78SOPE   C38 7033   3.775   2.698   5.299 -0.6151 -0.0577 -0.1935
   78SOPE   H8X 7034   3.798   2.590   5.303 -2.6504 -0.5437 -0.5540
   78SOPE   H8Y 7035   3.869   2.756   5.288  1.8995 -3.6546  0.6346
   78SOPE   C39 7036   3.684   2.729   5.181  0.4042  0.3217 -0.0186
   78SOPE   H9X 7037   3.672   2.839   5.179  0.2674  0.3012 -1.6414
   78SOPE   H9Y 7038   3.579   2.692   5.180  0.9390 -1.3424 -2.1569
   78SOPE  C310 7039   3.741   2.682   5.038 -0.6084 -0.6782  0.1277
   78SOPE  H10X 7040   3.798   2.587   5.051 -1.9166 -1.4617  0.2511
   78SOPE  H10Y 7041   3.820   2.757   5.014  1.0115 -2.2041  0.4120
   78SOPE  C311 7042   3.650   2.672   4.912  0.0936 -0.5613 -0.0261
   78SOPE  H11X 7043   3.603   2.764   4.871  3.0183  0.3482 -1.6641
   78SOPE  H11Y 7044   3.563   2.607   4.932  0.8751 -1.5883  0.1332
   78SOPE  C312 7045   3.727   2.607   4.793  0.4293 -0.2078 -0.4506
   78SOPE  H12X 7046   3.656   2.574   4.715  3.0281 -0.9562 -2.6135
   78SOPE  H12Y 7047   3.775   2.514   4.831 -0.2996 -0.9048 -1.2157
   78SOPE  C313 7048   3.849   2.692   4.746  0.4280 -0.4861  0.3519
   78SOPE  H13X 7049   3.914   2.730   4.828 -1.1083  1.0008  0.9373
   78SOPE  H13Y 7050   3.812   2.784   4.697 -2.1131 -1.4960  0.2771
   78SOPE  C314 7051   3.927   2.605   4.647 -0.5145  0.5449  0.4356
   78SOPE  H14X 7052   3.944   2.508   4.697  0.0618 -1.4553 -3.2591
   78SOPE  H14Y 7053   4.028   2.647   4.627  0.1339 -1.4930 -0.8696
   78SOPE  C315 7054   3.843   2.577   4.524  0.3445 -0.4251  0.0030
   78SOPE  H15X 7055   3.813   2.680   4.494  2.2035  0.3239  0.5705
   78SOPE  H15Y 7056   3.753   2.516   4.547  0.3070 -0.6077 -0.5876
   78SOPE  C316 7057   3.913   2.505   4.410  0.0878  0.7999  1.2019
   78SOPE  H16X 7058   4.008   2.560   4.394  2.5450 -3.4349 -0.2801
   78SOPE  H16Y 7059   3.838   2.502   4.328 -1.6371 -0.0419  2.7249
   78SOPE  C317 7060   3.953   2.361   4.430 -0.1969 -0.9237  0.0665
   78SOPE  H17X 7061   3.856   2.313   4.455 -1.4411  2.2167  1.7406
   78SOPE  H17Y 7062   4.026   2.361   4.514  0.5628  1.3432 -0.5268
   78SOPE  C318 7063   4.018   2.294   4.308  0.1766 -0.2608  0.5742
   78SOPE  H18X 7064   4.102   2.364   4.289  0.4673 -0.5511  0.7870
   78SOPE  H18Y 7065   3.955   2.299   4.216  1.1981 -0.5991 -0.1695
   78SOPE  H18Z 7066   4.044   2.190   4.337 -0.8443 -0.6810  0.0353
   79SOPE     N 7067   6.592   0.461   6.495  0.8312  0.2698  0.0079
   79SOPE   HN1 7068   6.627   0.494   6.587 -1.0921 -2.5178  1.9392
   79SOPE   HN2 7069   6.489   0.473   6.483  0.8696  1.0766  0.4672
   79SOPE   HN3 7070   6.613   0.359   6.492  0.5725  0.2363 -2.4740
   79SOPE   C12 7071   6.655   0.509   6.368 -0.4445  0.5665 -0.3602
   79SOPE  H12A 7072   6.636   0.618   6.370 -4.6345  0.0454 -1.7574
   79SOPE  H12B 7073   6.606   0.472   6.276  1.1063  2.7220 -2.1650
   79SOPE   C11 7074   6.805   0.476   6.365 -0.9539 -0.5443  0.2053
   79SOPE  H11A 7075   6.843   0.487   6.261 -1.5735  0.5421  0.0878
   79SOPE  H11B 7076   6.818   0.367   6.385 -0.0349 -0.8821 -1.8612
   79SOPE     P 7077   6.997   0.506   6.537 -0.2961 -0.1778 -0.2590
   79SOPE   O13 7078   7.029   0.364   6.509  0.1964 -0.1693 -0.2886
   79SOPE   O14 7079   6.979   0.544   6.680 -0.6792  0.1338 -0.1475
   79SOPE   O12 7080   6.868   0.564   6.459 -1.0856  0.1044  0.7104
   79SOPE   O11 7081   7.107   0.594   6.466 -0.1260 -0.5790 -0.0859
   79SOPE    C1 7082   7.131   0.574   6.322  0.0566  0.2487  0.2429
   79SOPE    HA 7083   7.107   0.470   6.289  0.6212  0.6094 -1.3540
   79SOPE    HB 7084   7.237   0.586   6.292  0.1376 -0.3938  0.2531
   79SOPE    C2 7085   7.067   0.698   6.247  0.6880  0.8242 -0.1930
   79SOPE    HS 7086   6.977   0.737   6.299 -0.4751 -1.8318 -0.0538
   79SOPE   O21 7087   7.031   0.640   6.122 -0.1294 -0.2559 -0.6248
   79SOPE   C21 7088   6.924   0.694   6.069  0.0036  0.7600  0.1484
   79SOPE   O22 7089   6.855   0.779   6.128  0.4662 -0.4082 -0.6838
   79SOPE   C22 7090   6.906   0.644   5.926 -0.9380  0.5309  0.1248
   79SOPE   H2R 7091   6.810   0.681   5.883 -0.3414  1.5147 -0.4042
   79SOPE   H2S 7092   6.886   0.536   5.941  0.2980  0.5440  2.1840
   79SOPE    C3 7093   7.160   0.820   6.228 -0.3596 -0.5536 -0.0408
   79SOPE    HX 7094   7.255   0.790   6.178  1.6442  1.8086  2.0397
   79SOPE    HY 7095   7.194   0.844   6.331  0.0796 -0.8160 -0.1211
   79SOPE   O31 7096   7.095   0.929   6.162  0.1531  0.4003  0.0268
   79SOPE   C31 7097   7.140   0.976   6.050  0.8785  0.2012  0.0173
   79SOPE   O32 7098   7.243   0.948   5.998  0.5879 -0.3409 -0.2038
   79SOPE   C32 7099   7.026   1.054   5.976 -0.2363 -0.6126 -0.6859
   79SOPE   H2X 7100   6.943   1.078   6.046 -1.3327 -2.2788 -1.3381
   79SOPE   H2Y 7101   6.985   0.978   5.906 -0.1230 -0.5909 -0.7763
   79SOPE   C23 7102   7.027   0.666   5.838 -0.3413 -0.3044  0.1189
   79SOPE   H3R 7103   7.110   0.594   5.856 -0.8492 -0.8215  0.4488
   79SOPE   H3S 7104   7.074   0.763   5.861  0.7137 -0.9881  0.9609
   79SOPE   C24 7105   6.991   0.668   5.687  0.2576 -0.3819 -0.5040
   79SOPE   H4R 7106   6.943   0.570   5.665 -2.8812  1.2323 -1.4066
   79SOPE   H4S 7107   6.917   0.744   5.655  0.4001 -0.6780 -1.5821
   79SOPE   C25 7108   7.124   0.683   5.599 -0.7931 -0.2832 -0.2420
   79SOPE   H5R 7109   7.145   0.792   5.605 -0.1628 -0.2751 -1.9164
   79SOPE   H5S 7110   7.205   0.616   5.634 -1.9133  0.1657  3.6921
   79SOPE   C26 7111   7.093   0.663   5.454  0.2262  0.1643  0.3223
   79SOPE   H6R 7112   7.094   0.554   5.428  1.0221 -0.0310  1.1424
   79SOPE   H6S 7113   6.993   0.708   5.435  0.5063  0.4007 -0.6275
   79SOPE   C27 7114   7.199   0.733   5.365  0.1766  0.3487 -0.1774
   79SOPE   H7R 7115   7.188   0.842   5.382 -0.2472  0.1140  1.1531
   79SOPE   H7S 7116   7.300   0.690   5.385 -0.1557  0.1760  1.2249
   79SOPE   C28 7117   7.174   0.702   5.214 -1.0299 -0.0836  0.0689
   79SOPE   H8R 7118   7.164   0.591   5.212  0.8449 -0.2958  0.4954
   79SOPE   H8S 7119   7.080   0.745   5.173 -0.1710  0.7086 -1.1471
   79SOPE   C29 7120   7.299   0.737   5.127 -1.0023 -0.2931 -0.1433
   79SOPE   H91 7121   7.390   0.675   5.135  0.0250  0.9960 -1.4083
   79SOPE  C210 7122   7.292   0.838   5.030 -0.0634 -0.4760 -0.3226
   79SOPE  H101 7123   7.390   0.871   4.992 -0.3327  0.4478 -0.2262
   79SOPE  C211 7124   7.170   0.923   5.002  0.2433  0.1292 -0.1073
   79SOPE  H11R 7125   7.197   1.024   4.963 -1.8154  0.6269 -0.3526
   79SOPE  H11S 7126   7.126   0.941   5.103 -0.7224 -0.1788 -0.4697
   79SOPE  C212 7127   7.067   0.851   4.910 -0.3905 -0.2319 -0.8748
   79SOPE  H12R 7128   6.976   0.914   4.905 -1.2539 -0.7959  3.7619
   79SOPE  H12S 7129   7.055   0.751   4.957 -1.7252  0.3490  0.0728
   79SOPE  C213 7130   7.116   0.831   4.763  0.3968  0.2357 -0.2493
   79SOPE  H13R 7131   7.034   0.781   4.708  0.9079  0.1416 -0.9381
   79SOPE  H13S 7132   7.197   0.756   4.776 -0.2278 -0.3501  0.3987
   79SOPE  C214 7133   7.169   0.960   4.698  0.7506  0.0348 -0.5455
   79SOPE  H14R 7134   7.163   0.932   4.590 -1.5668 -2.0603  0.0175
   79SOPE  H14S 7135   7.271   0.993   4.724  0.1109  0.5603  1.5045
   79SOPE  C215 7136   7.079   1.083   4.716  0.1975  0.0644  0.4960
   79SOPE  H15R 7137   7.108   1.147   4.801  0.8397  0.1364  0.2241
   79SOPE  H15S 7138   6.971   1.056   4.725  0.8637 -3.2279  0.1400
   79SOPE  C216 7139   7.087   1.172   4.593 -0.1084  0.3525 -0.0108
   79SOPE  H16R 7140   7.050   1.118   4.504  2.1428  0.3222 -0.9985
   79SOPE  H16S 7141   7.195   1.181   4.567 -0.2391 -2.9321 -2.1704
   79SOPE  C217 7142   7.025   1.314   4.620  0.0914  0.6159  0.1944
   79SOPE  H17R 7143   7.068   1.381   4.542  2.2813  0.0627  0.8627
   79SOPE  H17S 7144   7.046   1.349   4.723 -1.9668  0.7614  0.6029
   79SOPE  C218 7145   6.873   1.311   4.596  0.7296 -0.1408 -0.2741
   79SOPE  H18R 7146   6.860   1.259   4.499 -1.8816 -1.3120  0.6255
   79SOPE  H18S 7147   6.829   1.413   4.593  0.7643 -0.1131  0.0761
   79SOPE  H18T 7148   6.833   1.252   4.681  1.6515  0.2845  0.4892
   79SOPE   C33 7149   7.079   1.169   5.891  0.4244  0.2312 -0.0490
   79SOPE   H3X 7150   7.141   1.124   5.809 -0.8199 -0.3786 -0.6813
   79SOPE   H3Y 7151   7.146   1.235   5.951  0.8179 -0.1128 -0.1020
   79SOPE   C34 7152   6.962   1.261   5.833 -0.2356 -0.2365  0.1305
   79SOPE   H4X 7153   7.011   1.344   5.777  0.8038 -1.5062 -0.9096
   79SOPE   H4Y 7154   6.905   1.304   5.918 -1.7086 -1.3567 -0.2461
   79SOPE   C35 7155   6.874   1.194   5.734 -0.3577 -0.4557  0.3797
   79SOPE   H5X 7156   6.803   1.264   5.684 -0.0455  0.6117  1.3850
   79SOPE   H5Y 7157   6.809   1.119   5.784 -2.7256  0.1630 -1.5423
   79SOPE   C36 7158   6.939   1.131   5.610 -0.2689  0.7097  0.1568
   79SOPE   H6X 7159   7.000   1.043   5.639  1.0501  1.0687 -1.3690
   79SOPE   H6Y 7160   7.005   1.205   5.561  1.9947 -1.5875 -0.4951
   79SOPE   C37 7161   6.834   1.081   5.508  0.2094 -0.5191 -0.1079
   79SOPE   H7X 7162   6.795   1.168   5.452 -0.1802 -0.1348  0.7445
   79SOPE   H7Y 7163   6.747   1.040   5.564 -2.5590  2.3384 -1.9396
   79SOPE   C38 7164   6.881   0.961   5.431 -0.7731  0.4283 -0.6434
   79SOPE   H8X 7165   6.916   0.895   5.513  1.5975  1.2933 -0.8769
   79SOPE   H8Y 7166   6.967   0.995   5.368 -0.8979  0.4660 -0.7933
   79SOPE   C39 7167   6.775   0.892   5.342  0.3921  1.1007  1.0817
   79SOPE   H9X 7168   6.685   0.865   5.402 -1.0811  1.1885 -0.9944
   79SOPE   H9Y 7169   6.812   0.800   5.293 -1.6334  0.9411 -0.2538
   79SOPE  C310 7170   6.704   0.985   5.235 -0.8886  0.2410 -0.0521
   79SOPE  H10X 7171   6.764   1.078   5.219 -0.7037 -0.1960 -2.1080
   79SOPE  H10Y 7172   6.606   1.023   5.272 -0.9703 -1.0458  1.1423
   79SOPE  C311 7173   6.675   0.909   5.105  0.0719  0.3775  0.7117
   79SOPE  H11X 7174   6.611   0.821   5.123  0.8636 -0.4917 -0.5348
   79SOPE  H11Y 7175   6.769   0.868   5.063  0.4820  0.8406  1.1576
   79SOPE  C312 7176   6.605   0.997   4.996  0.0208  0.0939  0.3564
   79SOPE  H12X 7177   6.681   1.073   4.969 -1.2583  1.1746 -0.3219
   79SOPE  H12Y 7178   6.518   1.054   5.036  0.1656  1.3539 -1.0446
   79SOPE  C313 7179   6.560   0.909   4.880 -0.1132  0.1724  0.6356
   79SOPE  H13X 7180   6.462   0.861   4.900  1.2785 -2.9577  0.4607
   79SOPE  H13Y 7181   6.643   0.836   4.873 -0.2156  0.1687 -0.9974
   79SOPE  C314 7182   6.552   0.988   4.751  0.0364  0.0254 -0.1354
   79SOPE  H14X 7183   6.639   1.053   4.728 -1.1629  1.8574  0.2970
   79SOPE  H14Y 7184   6.477   1.068   4.767  1.5814  1.3113  1.1342
   79SOPE  C315 7185   6.534   0.906   4.620 -0.4051 -0.2167  0.2239
   79SOPE  H15X 7186   6.436   0.855   4.621 -0.0889 -0.8457 -0.4725
   79SOPE  H15Y 7187   6.615   0.831   4.633  0.0532 -0.0614 -1.5440
   79SOPE  C316 7188   6.573   0.985   4.497  0.2111  0.5942 -0.2680
   79SOPE  H16X 7189   6.659   1.055   4.509  0.3739  0.5068 -0.8679
   79SOPE  H16Y 7190   6.498   1.062   4.470 -0.2350  0.4679  0.5753
   79SOPE  C317 7191   6.593   0.899   4.375 -0.6378 -0.1283 -0.1949
   79SOPE  H17X 7192   6.570   0.952   4.280  0.5050 -1.4048 -1.2104
   79SOPE  H17Y 7193   6.527   0.811   4.390 -0.1932 -0.1990  1.5815
   79SOPE  C318 7194   6.736   0.849   4.359  0.3873  0.3001 -1.0922
   79SOPE  H18X 7195   6.799   0.937   4.336 -3.2497  3.0897 -1.1823
   79SOPE  H18Y 7196   6.744   0.763   4.289  1.4483 -0.5184 -0.0187
   79SOPE  H18Z 7197   6.768   0.805   4.456 -1.5882  2.9519  0.9189
   80SOPE     N 7198   3.560   4.393   6.797  0.6978 -0.1635  0.1753
   80SOPE   HN1 7199   3.659   4.418   6.817  0.8896  0.0267 -0.9342
   80SOPE   HN2 7200   3.492   4.470   6.813  0.2381 -1.0456  3.1566
   80SOPE   HN3 7201   3.523   4.317   6.858  1.6352 -0.0324  0.9389
   80SOPE   C12 7202   3.568   4.358   6.650 -1.1964 -0.0153  0.6473
   80SOPE  H12A 7203   3.477   4.304   6.616 -1.1801  1.2816 -1.7036
   80SOPE  H12B 7204   3.662   4.300   6.638 -1.2833 -0.1544  0.6401
   80SOPE   C11 7205   3.588   4.477   6.552  0.0874 -0.3807  1.1123
   80SOPE  H11A 7206   3.591   4.446   6.445  4.0688  2.4517  0.1423
   80SOPE  H11B 7207   3.689   4.522   6.562 -0.1192  0.1642  0.7770
   80SOPE     P 7208   3.517   4.724   6.624  0.0276 -0.1949 -0.1563
   80SOPE   O13 7209   3.636   4.722   6.711  0.7279  0.4978 -0.3469
   80SOPE   O14 7210   3.393   4.785   6.683 -0.4888 -0.1584  0.1107
   80SOPE   O12 7211   3.488   4.578   6.575  0.3606 -0.1519  0.5608
   80SOPE   O11 7212   3.551   4.798   6.487  0.1790 -0.6271  0.4827
   80SOPE    C1 7213   3.468   4.809   6.374  0.0872 -0.7250 -0.6187
   80SOPE    HA 7214   3.488   4.911   6.334  0.9479 -0.2215  0.9836
   80SOPE    HB 7215   3.360   4.808   6.401 -0.3470  0.5531 -2.1459
   80SOPE    C2 7216   3.501   4.701   6.272 -0.2128  0.0144  0.3880
   80SOPE    HS 7217   3.475   4.598   6.304 -0.4074 -0.0493  0.0360
   80SOPE   O21 7218   3.639   4.707   6.225  0.3085 -0.4838 -0.4671
   80SOPE   C21 7219   3.700   4.597   6.185 -0.9016 -0.0225  0.5041
   80SOPE   O22 7220   3.650   4.484   6.172  0.4502 -0.6101 -0.3032
   80SOPE   C22 7221   3.841   4.644   6.144  0.8483  0.4291  0.1881
   80SOPE   H2R 7222   3.893   4.663   6.240 -1.1826 -0.0764  1.4732
   80SOPE   H2S 7223   3.822   4.738   6.088 -1.5343  0.5532  1.0909
   80SOPE    C3 7224   3.407   4.709   6.149  0.1741  0.4700 -0.3432
   80SOPE    HX 7225   3.410   4.813   6.112  0.4494  1.2212  1.6891
   80SOPE    HY 7226   3.302   4.707   6.187  0.0663  0.4453 -0.6399
   80SOPE   O31 7227   3.415   4.620   6.036  0.1045  0.1408  0.6090
   80SOPE   C31 7228   3.458   4.659   5.923 -0.2095  0.8115  0.1301
   80SOPE   O32 7229   3.510   4.764   5.900 -0.3641  0.1184  0.6742
   80SOPE   C32 7230   3.453   4.541   5.826 -0.8105 -0.6574  0.5680
   80SOPE   H2X 7231   3.350   4.501   5.818 -1.0552 -0.0534  0.6191
   80SOPE   H2Y 7232   3.514   4.459   5.869 -0.3619  0.4055  2.0330
   80SOPE   C23 7233   3.914   4.536   6.061  0.0609  0.4955 -0.0484
   80SOPE   H3R 7234   3.942   4.449   6.125 -2.5385 -1.7880 -1.7916
   80SOPE   H3S 7235   4.009   4.585   6.030  0.9443 -1.4552 -0.5724
   80SOPE   C24 7236   3.854   4.496   5.928  0.4981 -0.1091  0.1377
   80SOPE   H4R 7237   3.754   4.451   5.947  0.6849 -0.3020  0.6869
   80SOPE   H4S 7238   3.841   4.582   5.859 -0.7558 -2.5134 -2.8683
   80SOPE   C25 7239   3.928   4.378   5.863  0.1045  0.1012  0.5770
   80SOPE   H5R 7240   4.028   4.414   5.831 -0.3647  1.3079  0.4370
   80SOPE   H5S 7241   3.947   4.307   5.946  0.7055 -0.3123  0.0972
   80SOPE   C26 7242   3.863   4.308   5.734 -0.1333 -0.0800 -0.2822
   80SOPE   H6R 7243   3.752   4.310   5.741 -0.1021  0.2306  0.1581
   80SOPE   H6S 7244   3.889   4.350   5.634 -2.5301 -1.7362 -1.7234
   80SOPE   C27 7245   3.911   4.157   5.718  0.6319  0.3571 -0.3564
   80SOPE   H7R 7246   4.019   4.155   5.693  0.9389 -2.7075  0.8226
   80SOPE   H7S 7247   3.897   4.118   5.821  1.3682  0.2287 -0.3019
   80SOPE   C28 7248   3.828   4.084   5.613 -0.0452  0.1667 -0.4495
   80SOPE   H8R 7249   3.883   3.988   5.600  1.1519  0.5086  1.7385
   80SOPE   H8S 7250   3.724   4.065   5.649 -0.6531  0.8990 -1.7410
   80SOPE   C29 7251   3.821   4.149   5.480 -0.0027  0.4866  0.1038
   80SOPE   H91 7252   3.722   4.196   5.470 -0.8349 -0.8822  1.3381
   80SOPE  C210 7253   3.920   4.161   5.389  0.0269  0.2167  0.3833
   80SOPE  H101 7254   3.892   4.201   5.290 -1.5154  0.7249  1.0039
   80SOPE  C211 7255   4.061   4.107   5.397 -0.5126 -0.0927 -0.0866
   80SOPE  H11R 7256   4.082   4.063   5.497  1.0340  0.0423 -0.3224
   80SOPE  H11S 7257   4.140   4.184   5.381 -1.5677  0.9719 -0.3062
   80SOPE  C212 7258   4.085   3.984   5.304  0.7726 -0.8205 -1.0112
   80SOPE  H12R 7259   3.991   3.926   5.302 -0.5035  1.1109  0.0106
   80SOPE  H12S 7260   4.166   3.917   5.341  1.3260  0.5601  0.4237
   80SOPE  C213 7261   4.115   4.002   5.158  0.2730 -0.4244 -0.1396
   80SOPE  H13R 7262   4.158   3.908   5.116 -2.5762 -1.7622 -0.2984
   80SOPE  H13S 7263   4.198   4.074   5.143 -0.9107  1.4742  1.8574
   80SOPE  C214 7264   3.999   4.033   5.069 -0.0059  0.8922  0.1994
   80SOPE  H14R 7265   3.970   4.139   5.082 -1.0578  0.6571 -0.1667
   80SOPE  H14S 7266   3.910   3.971   5.090  0.0172  0.8628  0.2111
   80SOPE  C215 7267   4.021   4.016   4.914  0.4731 -0.6787 -0.5644
   80SOPE  H15R 7268   3.920   4.018   4.867  0.6486 -0.5067 -0.9381
   80SOPE  H15S 7269   4.053   3.918   4.873  0.6888 -0.3703 -1.1449
   80SOPE  C216 7270   4.104   4.132   4.863 -0.5486  0.4284 -1.0080
   80SOPE  H16R 7271   4.210   4.119   4.891 -0.6395 -0.1101 -0.9057
   80SOPE  H16S 7272   4.054   4.219   4.910 -0.0181 -0.8167  2.0938
   80SOPE  C217 7273   4.096   4.144   4.712  0.1262  0.3255 -0.2195
   80SOPE  H17R 7274   4.155   4.234   4.683  1.5324 -0.8554 -1.1598
   80SOPE  H17S 7275   3.989   4.169   4.692 -0.5328  0.9439  3.3951
   80SOPE  C218 7276   4.158   4.022   4.639  0.7077 -0.7579  0.5273
   80SOPE  H18R 7277   4.251   3.979   4.681  0.2630 -2.2933 -0.0066
   80SOPE  H18S 7278   4.197   4.054   4.540  1.4808 -0.1250  1.0216
   80SOPE  H18T 7279   4.085   3.939   4.629 -0.5498  0.1049  2.0307
   80SOPE   C33 7280   3.520   4.573   5.683  0.1119 -0.1667  0.2285
   80SOPE   H3X 7281   3.629   4.593   5.693 -0.4798  3.2983  1.1276
   80SOPE   H3Y 7282   3.476   4.665   5.640  0.5508  0.4663  1.1083
   80SOPE   C34 7283   3.508   4.452   5.591  0.7021 -0.0307  0.1861
   80SOPE   H4X 7284   3.405   4.454   5.549  0.6583 -1.6667  0.1851
   80SOPE   H4Y 7285   3.527   4.357   5.644  0.0718  0.7177  1.8634
   80SOPE   C35 7286   3.592   4.466   5.466 -0.0679 -0.1267 -0.0683
   80SOPE   H5X 7287   3.693   4.431   5.496 -0.3416 -0.4017  0.5506
   80SOPE   H5Y 7288   3.602   4.566   5.419 -1.7449 -0.0843 -0.3774
   80SOPE   C36 7289   3.541   4.374   5.354 -0.4670 -0.2700  0.3460
   80SOPE   H6X 7290   3.433   4.390   5.330 -0.7205 -2.3361 -0.0952
   80SOPE   H6Y 7291   3.548   4.264   5.371 -1.5678 -0.7548 -2.0071
   80SOPE   C37 7292   3.623   4.392   5.224 -0.2138 -0.8340 -0.3458
   80SOPE   H7X 7293   3.733   4.390   5.241  0.2010  0.8097 -2.4950
   80SOPE   H7Y 7294   3.600   4.493   5.183 -1.9696 -1.1362 -0.1770
   80SOPE   C38 7295   3.589   4.282   5.120  0.4614  0.3244  0.1624
   80SOPE   H8X 7296   3.480   4.270   5.099  0.5000 -0.3937  0.3702
   80SOPE   H8Y 7297   3.625   4.187   5.163  0.4651 -0.6738 -1.9436
   80SOPE   C39 7298   3.640   4.304   4.983  0.7956 -0.0855  0.6423
   80SOPE   H9X 7299   3.751   4.309   4.996  0.6609 -0.5784  2.1468
   80SOPE   H9Y 7300   3.611   4.405   4.947 -1.5995 -1.5592 -1.8724
   80SOPE  C310 7301   3.613   4.207   4.873  0.6626  0.3012  0.7220
   80SOPE  H10X 7302   3.503   4.203   4.856  0.8125  0.1884 -0.2770
   80SOPE  H10Y 7303   3.648   4.103   4.892  1.2370 -0.4458 -3.3664
   80SOPE  C311 7304   3.677   4.241   4.740  0.4604 -0.8578  0.6955
   80SOPE  H11X 7305   3.700   4.149   4.682 -0.5403 -1.3707  1.0813
   80SOPE  H11Y 7306   3.780   4.281   4.741  0.2531  0.0708 -2.4583
   80SOPE  C312 7307   3.607   4.353   4.657  0.0473  0.1209 -0.4331
   80SOPE  H12X 7308   3.594   4.443   4.723  1.3720  0.7376 -0.9755
   80SOPE  H12Y 7309   3.510   4.319   4.616 -0.4504 -1.1749  1.6329
   80SOPE  C313 7310   3.694   4.401   4.543  0.1010  0.2541  0.3953
   80SOPE  H13X 7311   3.717   4.299   4.506  0.2492  0.0598  1.0026
   80SOPE  H13Y 7312   3.787   4.454   4.574  2.0201 -2.3606 -0.5077
   80SOPE  C314 7313   3.620   4.480   4.439  0.4023  0.0162  0.7240
   80SOPE  H14X 7314   3.603   4.577   4.491  2.8191  0.0822  1.5106
   80SOPE  H14Y 7315   3.522   4.429   4.422 -0.2835  1.3397  0.5985
   80SOPE  C315 7316   3.683   4.494   4.298  0.1902 -0.8789 -0.2325
   80SOPE  H15X 7317   3.742   4.403   4.277  0.3818 -0.0504 -3.9032
   80SOPE  H15Y 7318   3.751   4.582   4.296  0.5526 -0.9569  3.1249
   80SOPE  C316 7319   3.571   4.509   4.195 -0.3006  0.1604 -0.3011
   80SOPE  H16X 7320   3.488   4.565   4.244  1.9781  1.0893  2.7923
   80SOPE  H16Y 7321   3.537   4.408   4.165  0.4652  0.6575 -3.2009
   80SOPE  C317 7322   3.606   4.578   4.064 -0.3462 -0.2157 -0.4282
   80SOPE  H17X 7323   3.696   4.528   4.022 -0.4988  0.1507 -1.2009
   80SOPE  H17Y 7324   3.622   4.687   4.078  0.3245 -0.4298  0.6077
   80SOPE  C318 7325   3.494   4.548   3.959 -0.0190  0.0730  0.2219
   80SOPE  H18X 7326   3.524   4.592   3.862  2.6098  0.7089  1.2188
   80SOPE  H18Y 7327   3.395   4.590   3.983 -1.1192 -0.7010 -2.6201
   80SOPE  H18Z 7328   3.472   4.439   3.951  2.9666 -0.6802  0.8179
   81SOPE     N 7329   6.306   5.610   6.476 -0.0623  0.2223 -0.7140
   81SOPE   HN1 7330   6.319   5.517   6.520  1.9645 -0.4532 -2.5189
   81SOPE   HN2 7331   6.217   5.647   6.513 -0.4471  1.8730 -3.0353
   81SOPE   HN3 7332   6.287   5.595   6.375 -2.3295  3.4229 -0.9182
   81SOPE   C12 7333   6.437   5.692   6.498  0.0835 -0.3676 -0.0533
   81SOPE  H12A 7334   6.469   5.733   6.399  0.2989 -0.5612 -0.0671
   81SOPE  H12B 7335   6.516   5.624   6.536  0.7295  0.0115 -0.6825
   81SOPE   C11 7336   6.428   5.806   6.597  0.5555  0.4759 -0.0978
   81SOPE  H11A 7337   6.528   5.852   6.614  1.3963 -1.7048  1.1502
   81SOPE  H11B 7338   6.383   5.782   6.695 -0.7782 -1.8304 -1.1700
   81SOPE     P 7339   6.341   6.059   6.569 -0.4834  0.0573  0.0032
   81SOPE   O13 7340   6.327   6.070   6.720  0.4794  0.3029 -0.1627
   81SOPE   O14 7341   6.235   6.134   6.492 -0.6336 -0.0927  0.3413
   81SOPE   O12 7342   6.347   5.907   6.537  0.3441 -0.1060  0.3204
   81SOPE   O11 7343   6.485   6.113   6.525 -0.1865  0.0184 -0.1071
   81SOPE    C1 7344   6.519   6.213   6.426  0.0486  0.0502 -0.3006
   81SOPE    HA 7345   6.614   6.262   6.458 -0.4110 -0.4028  1.8941
   81SOPE    HB 7346   6.438   6.288   6.419  1.0625  1.2278  0.1102
   81SOPE    C2 7347   6.531   6.144   6.282 -0.3243 -0.0216 -0.4170
   81SOPE    HS 7348   6.446   6.073   6.269  1.1654 -1.4698 -3.1462
   81SOPE   O21 7349   6.654   6.070   6.287  0.0818 -0.9099  0.0552
   81SOPE   C21 7350   6.640   5.951   6.232  0.4183  0.2556 -0.0805
   81SOPE   O22 7351   6.537   5.905   6.185 -0.3569  0.9342  0.6761
   81SOPE   C22 7352   6.771   5.874   6.235 -0.0547  0.0387 -0.0440
   81SOPE   H2R 7353   6.797   5.830   6.334 -0.3264  0.7148  0.3301
   81SOPE   H2S 7354   6.858   5.938   6.207 -0.8043 -0.0158 -2.8008
   81SOPE    C3 7355   6.523   6.238   6.160  0.1033 -0.1333  0.1315
   81SOPE    HX 7356   6.604   6.308   6.190  0.2367 -0.2965  0.1541
   81SOPE    HY 7357   6.430   6.298   6.165 -0.2397 -0.5132 -1.2590
   81SOPE   O31 7358   6.553   6.188   6.032  0.3679  0.4544  0.7469
   81SOPE   C31 7359   6.450   6.124   5.988  0.6785  0.4023  0.3208
   81SOPE   O32 7360   6.342   6.112   6.042  0.5527 -0.3392  0.0650
   81SOPE   C32 7361   6.487   6.071   5.842  0.3759 -0.0293  0.5263
   81SOPE   H2X 7362   6.589   6.029   5.847 -0.0103 -1.1402 -0.3835
   81SOPE   H2Y 7363   6.490   6.156   5.770 -1.9218 -1.4304 -1.4054
   81SOPE   C23 7364   6.762   5.753   6.136  0.1553  0.0785 -0.5609
   81SOPE   H3R 7365   6.671   5.690   6.148 -1.5780  2.5805  0.3097
   81SOPE   H3S 7366   6.845   5.689   6.171  0.2900 -0.6521 -2.1431
   81SOPE   C24 7367   6.778   5.789   5.990  0.6794 -0.5001 -0.8298
   81SOPE   H4R 7368   6.713   5.872   5.955  0.9516 -0.8238 -2.1706
   81SOPE   H4S 7369   6.885   5.815   5.973  0.5426 -0.3966 -1.5732
   81SOPE   C25 7370   6.742   5.666   5.909  0.3623  0.2888 -0.5423
   81SOPE   H5R 7371   6.774   5.573   5.962 -2.0838 -1.9660 -2.7213
   81SOPE   H5S 7372   6.632   5.651   5.908  0.2637  0.8591  0.5812
   81SOPE   C26 7373   6.792   5.676   5.767 -0.2077 -0.3761  0.4270
   81SOPE   H6R 7374   6.902   5.690   5.756 -0.3355  0.1814 -0.2306
   81SOPE   H6S 7375   6.760   5.587   5.709  2.6451 -0.7556 -0.7157
   81SOPE   C27 7376   6.725   5.790   5.680  0.1181  0.1056 -0.2356
   81SOPE   H7R 7377   6.622   5.803   5.718  1.5200  0.4213  4.0446
   81SOPE   H7S 7378   6.777   5.885   5.703  0.3291 -0.1287  0.2719
   81SOPE   C28 7379   6.723   5.757   5.526  0.5218 -0.0416 -0.4849
   81SOPE   H8R 7380   6.667   5.663   5.508 -1.6116  1.3672 -1.7163
   81SOPE   H8S 7381   6.667   5.839   5.476 -0.6682 -0.8574 -0.5283
   81SOPE   C29 7382   6.863   5.747   5.471 -0.2392  0.5378 -0.6205
   81SOPE   H91 7383   6.919   5.840   5.461  5.3230 -2.3828 -0.3267
   81SOPE  C210 7384   6.933   5.633   5.424  0.4772  1.0122 -0.1962
   81SOPE  H101 7385   7.037   5.649   5.390  0.9880 -1.4203  0.0348
   81SOPE  C211 7386   6.877   5.502   5.412  0.1140 -0.4307  0.4100
   81SOPE  H11R 7387   6.799   5.486   5.489  0.1367  1.5428  0.8838
   81SOPE  H11S 7388   6.949   5.419   5.432  2.1283  1.4313  1.2694
   81SOPE  C212 7389   6.821   5.485   5.275 -0.1217 -0.0047  0.0860
   81SOPE  H12R 7390   6.747   5.564   5.251  0.0240 -0.3301 -1.4935
   81SOPE  H12S 7391   6.760   5.393   5.267 -1.5943  0.9820 -0.4303
   81SOPE  C213 7392   6.923   5.482   5.167 -0.4404  0.4160  0.6858
   81SOPE  H13R 7393   7.016   5.425   5.189 -0.4624  0.7519  1.6985
   81SOPE  H13S 7394   6.964   5.585   5.165 -0.0398  0.2524  0.3728
   81SOPE  C214 7395   6.866   5.436   5.029  0.4127 -0.0912 -0.1808
   81SOPE  H14R 7396   6.829   5.336   5.057 -1.9479  0.7696  0.0381
   81SOPE  H14S 7397   6.949   5.421   4.957  1.6056  2.3989  0.5491
   81SOPE  C215 7398   6.760   5.525   4.969  0.0574  0.4223 -0.3444
   81SOPE  H15R 7399   6.796   5.620   4.924  3.0584 -0.5977 -0.3467
   81SOPE  H15S 7400   6.701   5.575   5.049  0.0916  1.2493 -0.8270
   81SOPE  C216 7401   6.664   5.464   4.868  0.2128 -0.2569 -0.1716
   81SOPE  H16R 7402   6.593   5.541   4.830 -1.5453 -1.7942 -0.1285
   81SOPE  H16S 7403   6.601   5.381   4.906 -1.3794  0.1413 -1.7601
   81SOPE  C217 7404   6.742   5.408   4.742  0.1337 -0.6980 -0.5497
   81SOPE  H17R 7405   6.818   5.337   4.781 -0.7119 -0.2249  2.2318
   81SOPE  H17S 7406   6.793   5.493   4.694 -0.0990 -0.6179 -0.6584
   81SOPE  C218 7407   6.660   5.345   4.635  0.0535  0.0067  0.0049
   81SOPE  H18R 7408   6.605   5.258   4.675 -2.1025  1.8173  1.1627
   81SOPE  H18S 7409   6.717   5.319   4.543  1.6280 -0.1474  0.9842
   81SOPE  H18T 7410   6.582   5.417   4.604 -0.7310 -0.9486 -0.2843
   81SOPE   C33 7411   6.392   5.975   5.777  0.1874 -0.5911  0.2495
   81SOPE   H3X 7412   6.291   6.004   5.813 -0.7150 -0.0064 -2.5330
   81SOPE   H3Y 7413   6.414   5.869   5.800 -0.9345 -0.6275  1.2334
   81SOPE   C34 7414   6.401   5.972   5.623  0.2513 -0.5077  0.1567
   81SOPE   H4X 7415   6.502   5.946   5.584 -0.4922 -0.4834 -1.9035
   81SOPE   H4Y 7416   6.372   6.070   5.579 -4.4604 -1.8000 -0.1386
   81SOPE   C35 7417   6.301   5.866   5.559 -0.2396  0.4645 -0.1394
   81SOPE   H5X 7418   6.200   5.911   5.548 -1.1785 -1.1668  1.4164
   81SOPE   H5Y 7419   6.299   5.790   5.640  1.8646  0.2897 -0.1977
   81SOPE   C36 7420   6.341   5.796   5.435 -0.1908  0.3932 -0.1738
   81SOPE   H6X 7421   6.446   5.762   5.438 -0.3236 -0.1527 -1.1799
   81SOPE   H6Y 7422   6.327   5.877   5.360  1.1921  1.2025  0.3976
   81SOPE   C37 7423   6.249   5.682   5.403  0.2198 -0.6189 -0.2773
   81SOPE   H7X 7424   6.141   5.690   5.431  0.1109 -0.6090 -0.6976
   81SOPE   H7Y 7425   6.275   5.600   5.473 -0.4149  1.6724  2.8607
   81SOPE   C38 7426   6.246   5.619   5.263  0.3225  0.1668  0.0331
   81SOPE   H8X 7427   6.191   5.672   5.183  0.5819 -1.0739 -0.9916
   81SOPE   H8Y 7428   6.190   5.529   5.295 -2.1651  1.2034 -1.1694
   81SOPE   C39 7429   6.384   5.563   5.210  0.4876  0.6553 -0.3761
   81SOPE   H9X 7430   6.429   5.509   5.296  2.8106  1.2071 -1.1557
   81SOPE   H9Y 7431   6.450   5.649   5.184  0.7057  0.2635 -1.1392
   81SOPE  C310 7432   6.379   5.472   5.090  0.2583  0.8595 -0.2049
   81SOPE  H10X 7433   6.315   5.383   5.108  0.1823  1.2077  1.4072
   81SOPE  H10Y 7434   6.480   5.428   5.074 -0.1357  0.1629 -0.8018
   81SOPE  C311 7435   6.337   5.545   4.957  0.3746  0.0945  0.1789
   81SOPE  H11X 7436   6.400   5.634   4.933 -0.0348  0.1611 -0.7179
   81SOPE  H11Y 7437   6.235   5.585   4.976  0.4316 -0.2547  1.2560
   81SOPE  C312 7438   6.326   5.448   4.838  0.4052  0.3772 -0.0972
   81SOPE  H12X 7439   6.374   5.353   4.870 -0.9008 -0.2392  0.1163
   81SOPE  H12Y 7440   6.380   5.488   4.750 -0.8141  2.1879 -0.0762
   81SOPE  C313 7441   6.191   5.406   4.779 -0.3073 -0.4103 -0.0305
   81SOPE  H13X 7442   6.128   5.362   4.859  0.0787  0.5302  0.8223
   81SOPE  H13Y 7443   6.200   5.330   4.699  2.8541 -0.0276 -0.1595
   81SOPE  C314 7444   6.116   5.535   4.727 -0.6503  0.6749 -0.3846
   81SOPE  H14X 7445   6.137   5.618   4.797  0.2326 -0.3288  0.5762
   81SOPE  H14Y 7446   6.014   5.495   4.746 -0.8144  1.5741  0.7869
   81SOPE  C315 7447   6.153   5.581   4.585  0.2419 -0.4726  0.2830
   81SOPE  H15X 7448   6.264   5.584   4.577  0.3245 -2.5586  0.1519
   81SOPE  H15Y 7449   6.112   5.683   4.564  1.4556 -0.0211 -0.0118
   81SOPE  C316 7450   6.107   5.483   4.468 -0.1527  0.3388  0.1900
   81SOPE  H16X 7451   6.001   5.456   4.485  0.7631 -3.3863  0.8975
   81SOPE  H16Y 7452   6.161   5.386   4.463  1.8502  1.4118 -0.2141
   81SOPE  C317 7453   6.120   5.545   4.326 -0.3402 -0.4355  0.4550
   81SOPE  H17X 7454   6.224   5.558   4.288 -1.1342 -0.2802 -1.8401
   81SOPE  H17Y 7455   6.086   5.650   4.339  0.6626  0.0944 -0.9422
   81SOPE  C318 7456   6.037   5.473   4.220 -0.2209  0.7764 -0.3002
   81SOPE  H18X 7457   6.056   5.521   4.122  1.5858  0.3057 -0.2140
   81SOPE  H18Y 7458   5.928   5.468   4.240  0.3133 -0.3630  2.9456
   81SOPE  H18Z 7459   6.074   5.369   4.211  2.0824  1.7106 -2.5785
   82SOPE     N 7460   3.815   6.674   6.726 -0.2243  0.5208  0.2206
   82SOPE   HN1 7461   3.797   6.746   6.799 -1.0723 -0.8267  1.3985
   82SOPE   HN2 7462   3.741   6.662   6.653  0.6553 -2.3739 -0.3193
   82SOPE   HN3 7463   3.818   6.579   6.768 -3.3008  0.0820 -0.2966
   82SOPE   C12 7464   3.941   6.692   6.651  0.1949  0.1478  0.2825
   82SOPE  H12A 7465   4.016   6.615   6.680 -0.7603 -0.8619  0.1030
   82SOPE  H12B 7466   3.973   6.797   6.672  1.0870  0.1902 -1.1645
   82SOPE   C11 7467   3.924   6.680   6.498  0.4159  0.0617 -0.1093
   82SOPE  H11A 7468   4.023   6.670   6.449 -0.6042  0.4621 -2.4327
   82SOPE  H11B 7469   3.879   6.777   6.468  2.0309  0.0072 -3.0602
   82SOPE     P 7470   3.871   6.419   6.505 -0.0250  0.0632 -0.2061
   82SOPE   O13 7471   3.794   6.335   6.411 -0.0257  0.9875  0.0142
   82SOPE   O14 7472   3.850   6.400   6.648  0.3823 -0.1576  0.3341
   82SOPE   O12 7473   3.848   6.566   6.458  0.3935 -0.4128  0.0270
   82SOPE   O11 7474   4.025   6.401   6.483  0.2412 -0.4395 -0.1168
   82SOPE    C1 7475   4.078   6.413   6.355 -0.6834  0.2698  0.6356
   82SOPE    HA 7476   4.155   6.493   6.363 -1.5554  1.2527 -0.2320
   82SOPE    HB 7477   3.998   6.441   6.282 -2.4762 -0.4259  2.2647
   82SOPE    C2 7478   4.145   6.282   6.316 -0.8840  0.0681  0.3180
   82SOPE    HS 7479   4.239   6.264   6.374  0.7993  0.0487 -2.2350
   82SOPE   O21 7480   4.172   6.283   6.170 -0.1715 -0.1609 -0.2437
   82SOPE   C21 7481   4.284   6.345   6.137  0.3875 -0.5166 -0.3984
   82SOPE   O22 7482   4.362   6.396   6.217 -0.3752  0.3100 -0.3027
   82SOPE   C22 7483   4.281   6.351   5.990 -0.1432  0.0010 -0.2793
   82SOPE   H2R 7484   4.229   6.262   5.949  0.4068 -0.4276 -0.0547
   82SOPE   H2S 7485   4.388   6.341   5.961 -0.3864  0.5516 -1.4253
   82SOPE    C3 7486   4.057   6.154   6.330 -0.3143 -0.2668  0.1042
   82SOPE    HX 7487   3.976   6.169   6.255 -0.1077  0.1737 -0.0350
   82SOPE    HY 7488   4.001   6.151   6.426 -0.9967 -0.9549 -0.2959
   82SOPE   O31 7489   4.122   6.037   6.294 -0.0512 -0.0328  0.5163
   82SOPE   C31 7490   4.042   5.924   6.279  0.1946  0.4472  0.0969
   82SOPE   O32 7491   3.926   5.916   6.318  0.5000  0.0070 -0.4343
   82SOPE   C32 7492   4.130   5.814   6.214 -0.3541  0.0458 -0.1434
   82SOPE   H2X 7493   4.142   5.733   6.289 -3.3725  0.3196  0.7672
   82SOPE   H2Y 7494   4.229   5.854   6.185  0.2938  0.1753  2.0906
   82SOPE   C23 7495   4.222   6.487   5.938  0.6722  0.6143 -0.0073
   82SOPE   H3R 7496   4.277   6.571   5.985  0.2160 -0.0529  1.8298
   82SOPE   H3S 7497   4.116   6.483   5.974  0.3735 -1.6941 -0.9921
   82SOPE   C24 7498   4.223   6.481   5.786  0.0650 -0.1036  0.8264
   82SOPE   H4R 7499   4.329   6.463   5.758 -0.5631 -1.1209 -1.0526
   82SOPE   H4S 7500   4.165   6.392   5.753  0.7675 -0.7979  1.4384
   82SOPE   C25 7501   4.177   6.600   5.700 -0.2335 -0.4937 -0.0168
   82SOPE   H5R 7502   4.072   6.624   5.725 -0.0467  1.1372 -0.7019
   82SOPE   H5S 7503   4.233   6.695   5.713 -0.8858 -0.0995 -0.0428
   82SOPE   C26 7504   4.181   6.572   5.548 -0.5962  0.2568 -0.6157
   82SOPE   H6R 7505   4.288   6.556   5.520 -1.2289 -0.6335 -2.7401
   82SOPE   H6S 7506   4.135   6.473   5.528 -1.3323  0.4406  0.1132
   82SOPE   C27 7507   4.120   6.689   5.471  0.2353  0.6040 -0.5117
   82SOPE   H7R 7508   4.106   6.653   5.367 -1.0709 -2.5334  0.6242
   82SOPE   H7S 7509   4.017   6.707   5.507  1.5492  2.4276  2.8390
   82SOPE   C28 7510   4.207   6.818   5.469 -0.4549 -0.3270  0.0768
   82SOPE   H8R 7511   4.207   6.866   5.569  2.8256  0.4768 -0.2114
   82SOPE   H8S 7512   4.314   6.788   5.466 -0.0393  1.1595 -1.4493
   82SOPE   C29 7513   4.169   6.900   5.349 -0.1631 -0.5509  0.4524
   82SOPE   H91 7514   4.071   6.949   5.361 -0.1588 -0.6082  0.7135
   82SOPE  C210 7515   4.237   6.920   5.231 -0.1962  0.0396 -0.2154
   82SOPE  H101 7516   4.209   7.002   5.162  0.8276  0.8949  0.3564
   82SOPE  C211 7517   4.379   6.856   5.214  0.1844 -0.6395 -0.4006
   82SOPE  H11R 7518   4.379   6.766   5.279 -0.1776  0.7117  1.5434
   82SOPE  H11S 7519   4.464   6.914   5.255  0.1016  0.0252 -1.1536
   82SOPE  C212 7520   4.402   6.829   5.064  0.6958 -0.0249 -0.1054
   82SOPE  H12R 7521   4.308   6.800   5.012 -0.4259  2.3117  0.4978
   82SOPE  H12S 7522   4.470   6.741   5.056 -1.6381 -1.8247 -1.2411
   82SOPE  C213 7523   4.486   6.937   4.998 -0.1357  0.1496  0.1103
   82SOPE  H13R 7524   4.565   6.966   5.070 -1.0912  0.6306  1.0080
   82SOPE  H13S 7525   4.427   7.031   4.989  1.1201  0.8551 -1.1131
   82SOPE  C214 7526   4.562   6.903   4.867  0.0055 -0.5652 -0.0127
   82SOPE  H14R 7527   4.622   6.813   4.895  0.1387 -0.0505  1.4320
   82SOPE  H14S 7528   4.639   6.980   4.846 -0.0255 -0.6182 -0.3175
   82SOPE  C215 7529   4.480   6.877   4.741  0.1886  0.5882 -0.4084
   82SOPE  H15R 7530   4.420   6.963   4.704  0.8939  1.7625  1.0491
   82SOPE  H15S 7531   4.407   6.798   4.769  0.2593  0.4420 -0.6358
   82SOPE  C216 7532   4.577   6.832   4.631 -0.7243  0.1585  0.6224
   82SOPE  H16R 7533   4.638   6.749   4.672  0.6691  0.0195 -1.5585
   82SOPE  H16S 7534   4.647   6.913   4.600 -0.3114 -0.7045 -0.7633
   82SOPE  C217 7535   4.501   6.780   4.508 -0.1398  0.7147  0.5198
   82SOPE  H17R 7536   4.421   6.852   4.484  0.9046  1.4087 -1.0174
   82SOPE  H17S 7537   4.466   6.679   4.539 -1.9435  1.1974  0.1267
   82SOPE  C218 7538   4.591   6.751   4.382 -0.3632 -0.2172 -0.2615
   82SOPE  H18R 7539   4.656   6.663   4.404  2.2500  2.0350  1.9471
   82SOPE  H18S 7540   4.649   6.843   4.360  1.8847 -1.6832 -0.8050
   82SOPE  H18T 7541   4.521   6.737   4.297  0.5933  1.6102 -1.4290
   82SOPE   C33 7542   4.061   5.763   6.083  0.1222 -0.7968  0.4645
   82SOPE   H3X 7543   3.998   5.844   6.042  1.5838 -0.4897 -1.3050
   82SOPE   H3Y 7544   3.993   5.681   6.112 -0.5006 -0.9079 -1.2199
   82SOPE   C34 7545   4.157   5.728   5.976  0.3123 -0.3047 -0.2948
   82SOPE   H4X 7546   4.108   5.653   5.911  0.4828 -0.3999 -0.3156
   82SOPE   H4Y 7547   4.250   5.692   6.026  0.3348 -2.2648 -1.6056
   82SOPE   C35 7548   4.193   5.837   5.879  0.1475  0.2492  0.4529
   82SOPE   H5X 7549   4.209   5.923   5.948 -2.7872 -1.0680  3.0289
   82SOPE   H5Y 7550   4.104   5.873   5.824  1.9819  1.9620 -1.5700
   82SOPE   C36 7551   4.305   5.786   5.784 -0.4822  0.0820 -0.0163
   82SOPE   H6X 7552   4.265   5.698   5.729 -0.3754 -0.5290  0.8752
   82SOPE   H6Y 7553   4.389   5.759   5.851 -1.1743  1.6133  1.5535
   82SOPE   C37 7554   4.348   5.889   5.682  0.3214 -0.4726  0.2670
   82SOPE   H7X 7555   4.401   5.837   5.600  2.8592  0.4265  1.2474
   82SOPE   H7Y 7556   4.411   5.962   5.737  0.2816  1.0758 -1.6176
   82SOPE   C38 7557   4.228   5.967   5.622  0.1149  0.2060  0.6499
   82SOPE   H8X 7558   4.175   6.035   5.691 -2.1790 -1.3769  0.5653
   82SOPE   H8Y 7559   4.145   5.896   5.599  0.2759 -0.4431  1.9440
   82SOPE   C39 7560   4.262   6.058   5.496 -0.6754  0.3857 -0.1428
   82SOPE   H9X 7561   4.336   6.134   5.530 -1.0056  0.2065  1.0153
   82SOPE   H9Y 7562   4.173   6.114   5.463 -0.1853  1.2840  0.0266
   82SOPE  C310 7563   4.323   5.969   5.384  0.3045 -0.1859 -0.2503
   82SOPE  H10X 7564   4.237   5.905   5.357  0.0570  0.1656 -0.3047
   82SOPE  H10Y 7565   4.409   5.911   5.424  0.6276  0.1500 -0.4520
   82SOPE  C311 7566   4.366   6.051   5.258  0.6246 -0.1549 -0.5142
   82SOPE  H11X 7567   4.465   6.099   5.276 -0.1983  1.8089 -1.0048
   82SOPE  H11Y 7568   4.286   6.120   5.226  2.2271  2.4339  0.7165
   82SOPE  C312 7569   4.398   5.956   5.144  0.7954 -0.1274 -0.7030
   82SOPE  H12X 7570   4.301   5.904   5.126  1.2239 -1.8181  1.3682
   82SOPE  H12Y 7571   4.465   5.877   5.185  2.6605  1.7165 -0.0626
   82SOPE  C313 7572   4.446   6.020   5.015 -0.1772  0.8947  0.8126
   82SOPE  H13X 7573   4.546   6.068   5.026  0.0803  0.5343  0.1078
   82SOPE  H13Y 7574   4.376   6.104   4.994  0.2711  1.1772  0.4107
   82SOPE  C314 7575   4.438   5.917   4.906  0.1788  0.0175  0.6548
   82SOPE  H14X 7576   4.339   5.868   4.896  0.8621 -1.5627  1.2899
   82SOPE  H14Y 7577   4.504   5.835   4.944 -0.1723 -1.0298 -0.9153
   82SOPE  C315 7578   4.486   5.957   4.766  0.0825  0.0458  0.3464
   82SOPE  H15X 7579   4.597   5.966   4.771 -0.1038  3.4857  0.0602
   82SOPE  H15Y 7580   4.441   6.056   4.745  0.9670  0.4177  0.1297
   82SOPE  C316 7581   4.446   5.853   4.659 -0.1751 -0.7898 -0.2878
   82SOPE  H16X 7582   4.338   5.829   4.664 -0.9672  2.1911 -1.1160
   82SOPE  H16Y 7583   4.507   5.766   4.690 -1.7718 -1.1345  2.2284
   82SOPE  C317 7584   4.502   5.905   4.522 -0.1195 -1.7314  0.2224
   82SOPE  H17X 7585   4.513   5.819   4.452 -2.0031 -0.2711 -2.0026
   82SOPE  H17Y 7586   4.599   5.959   4.529  0.2071 -2.2555 -0.1851
   82SOPE  C318 7587   4.405   5.999   4.457  0.3796  1.0844 -0.6765
   82SOPE  H18X 7588   4.336   5.933   4.400  2.5004 -1.7256 -0.1610
   82SOPE  H18Y 7589   4.453   6.069   4.385  0.3002  1.6742 -0.1649
   82SOPE  H18Z 7590   4.349   6.059   4.532  2.1159  0.4913  1.1798
   83SOPE     N 7591   2.955   2.771   2.155 -0.3813 -0.2889 -0.1852
   83SOPE   HN1 7592   2.995   2.813   2.068 -0.6210 -0.3802 -0.3424
   83SOPE   HN2 7593   2.948   2.846   2.226  1.7783  0.0288 -0.2136
   83SOPE   HN3 7594   3.036   2.712   2.184  1.6998  2.8227  0.7710
   83SOPE   C12 7595   2.824   2.708   2.131  0.5087  0.2910 -0.3194
   83SOPE  H12A 7596   2.735   2.771   2.153  0.7573  0.5378 -0.0072
   83SOPE  H12B 7597   2.817   2.620   2.197  1.4598 -1.7378 -2.7566
   83SOPE   C11 7598   2.817   2.656   1.986 -0.8497  1.0448  0.2647
   83SOPE  H11A 7599   2.913   2.602   1.968 -1.5687 -0.1050 -0.1779
   83SOPE  H11B 7600   2.812   2.744   1.919  0.3938 -0.1666 -1.4948
   83SOPE     P 7601   2.578   2.607   1.913  0.0703  0.3143 -0.1308
   83SOPE   O13 7602   2.491   2.488   1.885 -0.3696  0.0495  0.4226
   83SOPE   O14 7603   2.611   2.692   1.794 -0.1686  0.1389 -0.1157
   83SOPE   O12 7604   2.710   2.559   1.969 -0.2655  0.4519 -0.7917
   83SOPE   O11 7605   2.513   2.696   2.025 -0.1314 -0.0556  0.1854
   83SOPE    C1 7606   2.466   2.642   2.148 -0.8631  0.2052  0.2373
   83SOPE    HA 7607   2.467   2.724   2.223 -0.1642  0.2970  0.1321
   83SOPE    HB 7608   2.527   2.559   2.190 -0.0214  0.9099  0.4300
   83SOPE    C2 7609   2.318   2.587   2.140 -0.3436 -0.3604  0.5323
   83SOPE    HS 7610   2.273   2.629   2.047 -0.9892  1.4053  1.5928
   83SOPE   O21 7611   2.242   2.632   2.255 -0.4753  0.3186  0.3433
   83SOPE   C21 7612   2.228   2.763   2.278 -0.6998 -0.3284  0.4717
   83SOPE   O22 7613   2.252   2.854   2.199 -0.1882  0.3653  0.3638
   83SOPE   C22 7614   2.178   2.794   2.410  0.1127 -0.8994 -0.6614
   83SOPE   H2R 7615   2.068   2.797   2.400 -0.0864  2.1752  1.1858
   83SOPE   H2S 7616   2.215   2.897   2.429  1.0130 -1.2828 -0.2678
   83SOPE    C3 7617   2.299   2.426   2.139 -0.9912 -0.0193  0.6185
   83SOPE    HX 7618   2.331   2.394   2.038  0.9231  1.1224  0.7942
   83SOPE    HY 7619   2.196   2.387   2.146 -0.9734 -0.1240  0.2840
   83SOPE   O31 7620   2.386   2.367   2.242 -0.5117  0.2381  0.1483
   83SOPE   C31 7621   2.331   2.336   2.352  0.9138 -0.6155  0.7062
   83SOPE   O32 7622   2.212   2.357   2.379 -0.1079 -0.1974 -0.2036
   83SOPE   C32 7623   2.435   2.264   2.439  0.5948  0.1007  0.1872
   83SOPE   H2X 7624   2.543   2.291   2.432  0.9931 -0.8256  1.9812
   83SOPE   H2Y 7625   2.416   2.157   2.413 -0.9005  0.3661  0.1165
   83SOPE   C23 7626   2.210   2.688   2.517 -0.4238  0.3468 -0.2996
   83SOPE   H3R 7627   2.320   2.681   2.516 -0.4878 -2.4314  1.4856
   83SOPE   H3S 7628   2.177   2.588   2.483 -0.7325  0.8455 -1.5060
   83SOPE   C24 7629   2.161   2.739   2.655 -0.1003  0.1482 -0.3895
   83SOPE   H4R 7630   2.199   2.839   2.684 -1.6642  0.4824  0.6577
   83SOPE   H4S 7631   2.050   2.741   2.644 -0.2401  0.5426  0.8926
   83SOPE   C25 7632   2.183   2.639   2.772 -0.1946 -0.4356 -0.4155
   83SOPE   H5R 7633   2.140   2.541   2.741  0.1605 -0.3824 -1.0772
   83SOPE   H5S 7634   2.290   2.611   2.777 -0.7544 -2.6104  0.5094
   83SOPE   C26 7635   2.129   2.684   2.909 -0.1627  0.4084 -0.5615
   83SOPE   H6R 7636   2.178   2.778   2.940 -0.9778  1.1936 -1.5725
   83SOPE   H6S 7637   2.026   2.711   2.876 -0.1988  0.9904  0.0126
   83SOPE   C27 7638   2.126   2.571   3.011  0.3803 -0.2108  0.1792
   83SOPE   H7R 7639   2.078   2.613   3.102 -0.5563  0.7801 -0.7483
   83SOPE   H7S 7640   2.071   2.482   2.973  1.7362 -1.1651  0.3627
   83SOPE   C28 7641   2.271   2.537   3.056  0.2538 -1.1076 -0.0477
   83SOPE   H8R 7642   2.332   2.543   2.963 -2.1690  1.7219 -1.6136
   83SOPE   H8S 7643   2.307   2.623   3.117  1.7556 -0.9173 -1.1250
   83SOPE   C29 7644   2.294   2.405   3.127 -0.0988 -0.5086  0.0514
   83SOPE   H91 7645   2.288   2.315   3.064 -2.3100 -1.2015  1.1530
   83SOPE  C210 7646   2.293   2.387   3.259  0.6369  0.2901 -0.1705
   83SOPE  H101 7647   2.308   2.287   3.304 -2.3821  0.3782  1.3178
   83SOPE  C211 7648   2.273   2.488   3.370 -0.0513 -0.1030  0.1527
   83SOPE  H11R 7649   2.182   2.468   3.429  0.6684  0.3507  1.4582
   83SOPE  H11S 7650   2.260   2.588   3.323  0.9549 -1.6988 -3.9481
   83SOPE  C212 7651   2.401   2.499   3.464 -0.2685  0.0297  0.6441
   83SOPE  H12R 7652   2.407   2.599   3.514  1.4505  0.2463  0.0568
   83SOPE  H12S 7653   2.480   2.497   3.386 -0.0172  0.5360  0.8752
   83SOPE  C213 7654   2.426   2.381   3.560 -0.4982 -0.4529 -0.2532
   83SOPE  H13R 7655   2.530   2.385   3.597 -0.4448  3.4198 -0.4099
   83SOPE  H13S 7656   2.413   2.285   3.505  2.7389 -1.3436  0.3256
   83SOPE  C214 7657   2.326   2.374   3.677  0.4540  0.4975 -0.1368
   83SOPE  H14R 7658   2.228   2.352   3.629 -0.4934 -1.3880  2.4525
   83SOPE  H14S 7659   2.315   2.477   3.717  2.7070  0.3283  1.0683
   83SOPE  C215 7660   2.356   2.281   3.800 -0.4107 -0.1621 -0.5211
   83SOPE  H15R 7661   2.455   2.303   3.845  0.0501  1.3749 -2.1391
   83SOPE  H15S 7662   2.359   2.179   3.756  1.7466 -0.1118 -0.6217
   83SOPE  C216 7663   2.256   2.299   3.917  0.8468  0.1501 -0.6646
   83SOPE  H16R 7664   2.155   2.307   3.872  1.8351  1.4059 -2.8237
   83SOPE  H16S 7665   2.278   2.400   3.960 -0.2405  0.7052 -1.3650
   83SOPE  C217 7666   2.279   2.194   4.027  0.2595  0.5490  0.6078
   83SOPE  H17R 7667   2.375   2.224   4.076  0.3449 -0.4448  1.0636
   83SOPE  H17S 7668   2.297   2.094   3.982 -0.0593 -0.1539  1.9811
   83SOPE  C218 7669   2.159   2.182   4.122 -0.2966  0.3263  0.4574
   83SOPE  H18R 7670   2.144   2.280   4.174  1.5430 -0.1357  2.0079
   83SOPE  H18S 7671   2.187   2.099   4.189  1.8986 -0.0034 -0.7635
   83SOPE  H18T 7672   2.067   2.157   4.065  0.8825  0.1300 -1.4566
   83SOPE   C33 7673   2.399   2.285   2.595 -0.2337 -0.1945 -0.3193
   83SOPE   H3X 7674   2.291   2.262   2.601 -0.1148 -0.8438 -0.5456
   83SOPE   H3Y 7675   2.411   2.393   2.618  1.8211 -0.4358  0.0057
   83SOPE   C34 7676   2.496   2.203   2.679 -0.0054 -0.1325  0.2797
   83SOPE   H4X 7677   2.601   2.232   2.655  0.9223 -2.3867  1.2553
   83SOPE   H4Y 7678   2.490   2.094   2.660 -2.1231 -0.4984  2.5702
   83SOPE   C35 7679   2.460   2.207   2.826 -0.1450  0.2148  0.7324
   83SOPE   H5X 7680   2.350   2.213   2.837 -0.2969 -0.6457 -0.1597
   83SOPE   H5Y 7681   2.497   2.302   2.871  0.3369 -0.8057  2.5812
   83SOPE   C36 7682   2.519   2.094   2.918  0.6998 -0.9286 -0.8761
   83SOPE   H6X 7683   2.624   2.077   2.884  0.0058 -1.5039 -2.8923
   83SOPE   H6Y 7684   2.457   2.004   2.896 -1.1465 -0.5808  2.3893
   83SOPE   C37 7685   2.529   2.132   3.067  0.7377 -0.1404 -0.2398
   83SOPE   H7X 7686   2.426   2.143   3.108  0.5272 -1.5343 -0.3517
   83SOPE   H7Y 7687   2.578   2.232   3.066  1.6577 -0.5848  0.1288
   83SOPE   C38 7688   2.601   2.036   3.165  0.2031 -0.1363  0.7229
   83SOPE   H8X 7689   2.708   2.039   3.136  0.1490  0.8889  0.5870
   83SOPE   H8Y 7690   2.569   1.931   3.150 -0.3327  0.0091  0.8022
   83SOPE   C39 7691   2.596   2.092   3.309  0.6756 -0.6038  0.1584
   83SOPE   H9X 7692   2.490   2.080   3.340  0.4146 -0.1498 -0.5289
   83SOPE   H9Y 7693   2.624   2.199   3.309 -0.0482 -0.4109  0.5864
   83SOPE  C310 7694   2.697   2.025   3.405  0.5572  0.1488  0.3533
   83SOPE  H10X 7695   2.796   2.052   3.363  1.1461 -3.2125 -0.7332
   83SOPE  H10Y 7696   2.682   1.915   3.395  1.0584  0.2613 -2.4303
   83SOPE  C311 7697   2.692   2.061   3.556 -0.1517  0.1844  0.7596
   83SOPE  H11X 7698   2.595   2.042   3.606 -0.1591 -0.2985  0.5758
   83SOPE  H11Y 7699   2.710   2.169   3.569  1.8284  0.1352 -1.1515
   83SOPE  C312 7700   2.801   1.979   3.626 -0.2343  0.3816  0.5973
   83SOPE  H12X 7701   2.899   1.970   3.574 -0.9946  1.2517 -1.0226
   83SOPE  H12Y 7702   2.760   1.876   3.630 -0.0145  0.1883 -1.3350
   83SOPE  C313 7703   2.811   2.022   3.773  0.7644 -0.2231 -0.0946
   83SOPE  H13X 7704   2.711   2.046   3.816  1.3751 -0.7815  1.7551
   83SOPE  H13Y 7705   2.873   2.114   3.777 -0.1120  0.3577  0.8352
   83SOPE  C314 7706   2.863   1.910   3.869  0.5382  0.4532 -0.2309
   83SOPE  H14X 7707   2.808   1.814   3.858  1.3351 -0.0646  0.1682
   83SOPE  H14Y 7708   2.830   1.941   3.970 -1.4560  1.1311 -1.0367
   83SOPE  C315 7709   3.015   1.888   3.859 -0.1919  0.6639 -0.2327
   83SOPE  H15X 7710   3.051   1.906   3.756  0.0524  0.5486 -0.1677
   83SOPE  H15Y 7711   3.050   1.786   3.883  0.4016  0.3321 -2.3133
   83SOPE  C316 7712   3.098   1.987   3.941  0.0034  0.0810 -0.6988
   83SOPE  H16X 7713   3.074   2.088   3.900 -0.2102  0.3039 -0.0421
   83SOPE  H16Y 7714   3.206   1.965   3.932  0.2219 -0.0720  1.6138
   83SOPE  C317 7715   3.073   1.991   4.100  0.1592 -0.1566  0.0672
   83SOPE  H17X 7716   2.967   2.022   4.107 -0.6738 -2.8178  0.1098
   83SOPE  H17Y 7717   3.132   2.079   4.135 -1.5254  0.0934  2.5201
   83SOPE  C318 7718   3.092   1.858   4.180  0.1980  0.1194  0.3764
   83SOPE  H18X 7719   3.094   1.876   4.290  0.5590  2.8670 -0.0089
   83SOPE  H18Y 7720   3.182   1.804   4.143 -0.2349 -0.7433  0.5666
   83SOPE  H18Z 7721   3.013   1.780   4.182 -2.3038  2.5165 -0.0549
   84SOPE     N 7722   1.099   0.410   2.095  0.0626 -0.7069  0.3583
   84SOPE   HN1 7723   1.058   0.337   2.156 -1.5580  0.4184  0.6757
   84SOPE   HN2 7724   1.049   0.497   2.122 -1.1493 -1.4898  0.7574
   84SOPE   HN3 7725   1.086   0.380   1.996 -0.4945  1.1295 -0.1658
   84SOPE   C12 7726   1.245   0.424   2.133 -0.0287  0.9078 -0.3568
   84SOPE  H12A 7727   1.273   0.509   2.067  1.4808  0.0444 -0.8775
   84SOPE  H12B 7728   1.296   0.333   2.094 -1.4850  0.0894 -0.3996
   84SOPE   C11 7729   1.274   0.439   2.281  0.3373  0.8524 -1.1484
   84SOPE  H11A 7730   1.379   0.427   2.316 -0.1715  4.1209  2.1169
   84SOPE  H11B 7731   1.205   0.366   2.329  1.3071  1.7499  1.7802
   84SOPE     P 7732   1.296   0.698   2.309 -0.0059 -0.3212 -0.1940
   84SOPE   O13 7733   1.199   0.805   2.276 -0.1664  0.2923  0.0538
   84SOPE   O14 7734   1.419   0.674   2.229  0.0264  0.2412 -0.7409
   84SOPE   O12 7735   1.222   0.562   2.318  0.3604 -0.5154  0.1357
   84SOPE   O11 7736   1.338   0.711   2.460  0.1137 -0.4021 -0.3096
   84SOPE    C1 7737   1.458   0.644   2.507  0.3130 -0.3183  0.4526
   84SOPE    HA 7738   1.537   0.719   2.485  0.2442 -0.5068 -0.4800
   84SOPE    HB 7739   1.472   0.549   2.453  0.9948  1.5488 -2.9179
   84SOPE    C2 7740   1.443   0.609   2.653  0.0817  0.0006  0.0394
   84SOPE    HS 7741   1.400   0.698   2.703  0.6310  0.9263 -1.0757
   84SOPE   O21 7742   1.571   0.570   2.709 -0.4867 -0.2166 -0.5823
   84SOPE   C21 7743   1.596   0.607   2.833 -0.0051  0.1295  0.3092
   84SOPE   O22 7744   1.524   0.684   2.895 -0.3188  0.1355  0.2010
   84SOPE   C22 7745   1.734   0.561   2.874  0.9748 -0.1362 -0.8764
   84SOPE   H2R 7746   1.804   0.580   2.790  0.4361  1.5286 -0.9754
   84SOPE   H2S 7747   1.720   0.453   2.897  1.1861  0.2114  1.0430
   84SOPE    C3 7748   1.333   0.495   2.671  0.2989 -0.4994  0.0046
   84SOPE    HX 7749   1.362   0.416   2.598  0.6523 -1.7000  1.3888
   84SOPE    HY 7750   1.236   0.540   2.639  1.3838  1.7282 -0.3455
   84SOPE   O31 7751   1.333   0.441   2.803 -0.1080 -0.2502 -0.5814
   84SOPE   C31 7752   1.251   0.494   2.887 -0.0454  0.2991  0.2217
   84SOPE   O32 7753   1.165   0.580   2.859 -0.7876  0.0167 -0.2250
   84SOPE   C32 7754   1.278   0.444   3.036  0.1713 -0.8772  0.7793
   84SOPE   H2X 7755   1.372   0.385   3.032  0.7351  0.0458 -0.1931
   84SOPE   H2Y 7756   1.197   0.371   3.058 -0.3177 -0.2723  0.9968
   84SOPE   C23 7757   1.774   0.631   3.010  0.2655  0.4772  0.5118
   84SOPE   H3R 7758   1.690   0.645   3.081  0.2924  1.7488  0.3189
   84SOPE   H3S 7759   1.809   0.731   2.975  0.2005  0.4519  0.3720
   84SOPE   C24 7760   1.892   0.560   3.082 -0.3679  0.4135  0.5213
   84SOPE   H4R 7761   1.964   0.511   3.013 -0.5779  0.8716 -0.0309
   84SOPE   H4S 7762   1.956   0.632   3.138  1.2077  0.1624 -0.8767
   84SOPE   C25 7763   1.845   0.440   3.171  0.6120 -0.8793  0.3053
   84SOPE   H5R 7764   1.763   0.479   3.235  0.9479  0.7903 -0.2098
   84SOPE   H5S 7765   1.814   0.346   3.121  1.5267 -2.1613  2.0486
   84SOPE   C26 7766   1.969   0.382   3.244 -0.0587  0.1239 -0.4753
   84SOPE   H6R 7767   2.039   0.335   3.172  2.4640  0.5985  1.5006
   84SOPE   H6S 7768   2.032   0.464   3.286  0.7054 -0.2827 -0.8115
   84SOPE   C27 7769   1.946   0.273   3.350 -1.4440 -0.6539  0.2059
   84SOPE   H7R 7770   1.882   0.316   3.430 -0.3497  1.1750  0.1565
   84SOPE   H7S 7771   1.887   0.204   3.287 -1.6219  1.1644 -1.7518
   84SOPE   C28 7772   2.087   0.225   3.407  0.8591 -0.2056  0.7512
   84SOPE   H8R 7773   2.064   0.132   3.463  0.4271 -1.1417 -0.9123
   84SOPE   H8S 7774   2.155   0.186   3.327  0.6088  0.9720 -0.0607
   84SOPE   C29 7775   2.159   0.322   3.495 -0.0007  1.0138  0.6573
   84SOPE   H91 7776   2.217   0.397   3.439  0.2868  1.4780  1.5509
   84SOPE  C210 7777   2.138   0.333   3.631 -0.7369  0.3740  0.3657
   84SOPE  H101 7778   2.186   0.415   3.686 -1.4899  1.7933 -0.9951
   84SOPE  C211 7779   2.055   0.256   3.732  0.3939  0.3127  0.3697
   84SOPE  H11R 7780   1.998   0.176   3.681  0.0211  0.8044 -0.0005
   84SOPE  H11S 7781   1.977   0.323   3.774 -1.1444 -1.6322  0.7669
   84SOPE  C212 7782   2.135   0.190   3.845  0.5173 -0.5807  0.1086
   84SOPE  H12R 7783   2.202   0.274   3.875 -1.3907  2.6368 -3.6919
   84SOPE  H12S 7784   2.191   0.104   3.803 -0.6975 -1.2105 -0.2776
   84SOPE  C213 7785   2.052   0.138   3.968 -0.3020 -0.7530  0.1414
   84SOPE  H13R 7786   1.962   0.087   3.928 -1.1344  0.7034  0.0463
   84SOPE  H13S 7787   2.020   0.222   4.035 -0.0396 -0.4117 -0.1569
   84SOPE  C214 7788   2.124   0.030   4.050 -0.4044  0.0939 -0.1469
   84SOPE  H14R 7789   2.225   0.074   4.065 -1.1916  1.5827  1.2022
   84SOPE  H14S 7790   2.124  -0.064   3.991  3.3793 -0.8350  1.0552
   84SOPE  C215 7791   2.053   0.013   4.188  0.4451  0.3513 -0.5391
   84SOPE  H15R 7792   1.960  -0.045   4.175  1.2495 -1.3122  0.7377
   84SOPE  H15S 7793   2.045   0.110   4.242  1.4060 -0.8309  1.8836
   84SOPE  C216 7794   2.129  -0.085   4.280 -0.1433 -0.3449  0.0064
   84SOPE  H16R 7795   2.236  -0.056   4.290 -0.1610 -0.7224  1.4432
   84SOPE  H16S 7796   2.125  -0.179   4.222 -0.4278 -0.3332  0.0067
   84SOPE  C217 7797   2.068  -0.093   4.420 -0.4929  0.9650 -0.3590
   84SOPE  H17R 7798   1.960  -0.118   4.411 -0.3350  0.2974 -0.4850
   84SOPE  H17S 7799   2.081  -0.001   4.481  0.4552  0.4956  0.1717
   84SOPE  C218 7800   2.152  -0.188   4.507 -0.4932 -0.2704  0.4212
   84SOPE  H18R 7801   2.136  -0.294   4.479  2.8441 -0.5173 -1.0156
   84SOPE  H18S 7802   2.147  -0.168   4.617 -3.0823 -0.8767  0.4742
   84SOPE  H18T 7803   2.260  -0.173   4.485 -1.2186  2.7858 -1.6911
   84SOPE   C33 7804   1.303   0.564   3.144  0.3670 -0.3309  0.2575
   84SOPE   H3X 7805   1.221   0.637   3.127 -1.6168 -1.5916  3.4975
   84SOPE   H3Y 7806   1.404   0.602   3.116  0.2402 -0.3786 -0.2868
   84SOPE   C34 7807   1.306   0.529   3.291  0.0779  0.5531 -0.1394
   84SOPE   H4X 7808   1.403   0.481   3.315 -1.0117 -1.1044  1.1122
   84SOPE   H4Y 7809   1.216   0.468   3.316 -0.6857  2.2128  1.4549
   84SOPE   C35 7810   1.303   0.652   3.379 -0.3911 -0.6527 -0.3248
   84SOPE   H5X 7811   1.213   0.714   3.359  0.9434  2.5118  2.6554
   84SOPE   H5Y 7812   1.398   0.707   3.365 -0.5463  0.1586  1.5300
   84SOPE   C36 7813   1.292   0.621   3.530 -0.7946 -0.3310  0.2708
   84SOPE   H6X 7814   1.375   0.563   3.576 -0.1265  0.3682 -0.0182
   84SOPE   H6Y 7815   1.194   0.576   3.556 -0.5462 -0.4410  1.0250
   84SOPE   C37 7816   1.307   0.757   3.609 -0.8139 -0.2604 -0.1258
   84SOPE   H7X 7817   1.232   0.835   3.581 -1.4560 -0.5625  0.6908
   84SOPE   H7Y 7818   1.404   0.799   3.575 -0.1945 -0.6803  1.0520
   84SOPE   C38 7819   1.296   0.730   3.756 -0.7933 -0.1889 -0.8788
   84SOPE   H8X 7820   1.395   0.692   3.790 -0.7692 -1.0980 -1.9076
   84SOPE   H8Y 7821   1.241   0.642   3.794  2.4295 -1.0855  2.2942
   84SOPE   C39 7822   1.271   0.863   3.832 -0.5801  0.1873  0.3143
   84SOPE   H9X 7823   1.178   0.900   3.785 -0.2476 -0.4898 -0.9211
   84SOPE   H9Y 7824   1.360   0.925   3.807  1.1045 -1.3600  2.0483
   84SOPE  C310 7825   1.249   0.837   3.986  0.0868 -0.3118  0.4012
   84SOPE  H10X 7826   1.169   0.760   3.980 -0.5768  0.4494 -0.9522
   84SOPE  H10Y 7827   1.204   0.925   4.037 -0.4584 -0.4471  0.1570
   84SOPE  C311 7828   1.370   0.784   4.052  0.2674  0.4090  0.3689
   84SOPE  H11X 7829   1.459   0.840   4.017 -0.5662 -0.2784 -3.1977
   84SOPE  H11Y 7830   1.379   0.679   4.018 -1.9737  0.1059  0.5730
   84SOPE  C312 7831   1.358   0.775   4.204 -0.0796 -0.0787 -0.3852
   84SOPE  H12X 7832   1.281   0.699   4.229 -0.5274  0.7941  0.9380
   84SOPE  H12Y 7833   1.345   0.872   4.255  1.9774  0.1344 -0.1936
   84SOPE  C313 7834   1.488   0.701   4.245 -0.1559 -0.2105  0.1758
   84SOPE  H13X 7835   1.580   0.754   4.213 -0.4001 -1.1494 -2.2706
   84SOPE  H13Y 7836   1.496   0.601   4.197 -1.5721  0.9724 -2.7090
   84SOPE  C314 7837   1.508   0.702   4.397 -0.7092  0.4096  0.0778
   84SOPE  H14X 7838   1.468   0.791   4.451 -1.0655 -0.6082  1.5817
   84SOPE  H14Y 7839   1.617   0.706   4.419 -0.4749  4.0802 -1.1923
   84SOPE  C315 7840   1.455   0.574   4.471 -0.1463 -0.4381  0.7435
   84SOPE  H15X 7841   1.515   0.488   4.433 -0.5795 -0.9058  1.1037
   84SOPE  H15Y 7842   1.352   0.565   4.430 -0.4256  2.1714  0.7400
   84SOPE  C316 7843   1.447   0.588   4.622 -0.4115  0.1398  0.2316
   84SOPE  H16X 7844   1.362   0.654   4.648 -1.6990 -0.3714 -2.4315
   84SOPE  H16Y 7845   1.541   0.637   4.658 -0.3223 -0.2285  0.5047
   84SOPE  C317 7846   1.435   0.454   4.700 -0.1167 -0.6969 -0.2112
   84SOPE  H17X 7847   1.442   0.480   4.808  0.6374  0.9862 -0.6236
   84SOPE  H17Y 7848   1.518   0.387   4.668  0.3700 -1.3053  2.0968
   84SOPE  C318 7849   1.301   0.391   4.668  0.7734  0.2831  0.1548
   84SOPE  H18X 7850   1.303   0.292   4.718 -0.1933  0.0315 -0.2963
   84SOPE  H18Y 7851   1.276   0.376   4.561 -0.6516 -0.1085  0.5258
   84SOPE  H18Z 7852   1.224   0.458   4.711 -0.3735  0.0175 -1.4010
   85SOPE     N 7853   6.055   2.915   1.806  0.5416 -0.3170 -0.2672
   85SOPE   HN1 7854   6.109   3.002   1.825 -0.3568 -0.1053  1.5465
   85SOPE   HN2 7855   5.953   2.928   1.820  0.5307 -1.0729  0.4090
   85SOPE   HN3 7856   6.087   2.840   1.870 -0.5584 -0.5181  0.0533
   85SOPE   C12 7857   6.097   2.880   1.665 -0.2190  0.1206  0.0859
   85SOPE  H12A 7858   6.070   2.960   1.593 -3.9283 -0.4828  0.5791
   85SOPE  H12B 7859   6.050   2.784   1.633  2.1980 -0.5787 -1.6668
   85SOPE   C11 7860   6.248   2.853   1.656 -0.1892 -0.9566  0.4390
   85SOPE  H11A 7861   6.297   2.949   1.683  1.1187 -0.8118 -2.1550
   85SOPE  H11B 7862   6.266   2.833   1.548  1.2549  3.2317 -0.2732
   85SOPE     P 7863   6.434   2.745   1.800  0.0896 -0.2199  0.1246
   85SOPE   O13 7864   6.445   2.844   1.913 -0.0076  0.5991  0.0292
   85SOPE   O14 7865   6.528   2.755   1.688 -0.0932  0.0277  0.1963
   85SOPE   O12 7866   6.280   2.747   1.749 -0.3593 -0.0726  0.4133
   85SOPE   O11 7867   6.430   2.596   1.858  0.0065 -0.8474 -0.0728
   85SOPE    C1 7868   6.356   2.542   1.964 -1.0127  0.7729  0.2850
   85SOPE    HA 7869   6.351   2.431   1.951 -0.8680  0.7310  0.5812
   85SOPE    HB 7870   6.255   2.587   1.961 -2.0297 -1.4106 -1.7192
   85SOPE    C2 7871   6.409   2.575   2.110  0.5595  0.1757 -0.2791
   85SOPE    HS 7872   6.405   2.685   2.095 -1.9891  0.0992 -0.6797
   85SOPE   O21 7873   6.533   2.507   2.131  0.2103 -0.0892  0.3047
   85SOPE   C21 7874   6.618   2.560   2.218  0.4619 -0.0538 -0.5960
   85SOPE   O22 7875   6.605   2.670   2.266  0.0276  0.4841  0.4777
   85SOPE   C22 7876   6.721   2.449   2.257 -0.1773  0.5881 -0.4722
   85SOPE   H2R 7877   6.800   2.462   2.180 -1.2156  0.6090 -1.5670
   85SOPE   H2S 7878   6.694   2.346   2.227  1.6350  0.5285 -2.0934
   85SOPE    C3 7879   6.310   2.539   2.224 -0.5283  0.0848 -0.2495
   85SOPE    HX 7880   6.275   2.434   2.218 -0.1887  0.0562 -2.5024
   85SOPE    HY 7881   6.227   2.609   2.199 -1.1325 -0.6473 -0.3128
   85SOPE   O31 7882   6.359   2.566   2.360 -0.1180  0.1321  0.1367
   85SOPE   C31 7883   6.324   2.680   2.417 -0.1539  0.0364  0.4280
   85SOPE   O32 7884   6.268   2.776   2.363 -0.0578  0.7310 -0.4102
   85SOPE   C32 7885   6.369   2.679   2.562  0.2160  0.1268 -0.2058
   85SOPE   H2X 7886   6.478   2.698   2.568  0.3435 -0.6409  0.0133
   85SOPE   H2Y 7887   6.352   2.579   2.609 -1.0866 -0.0630 -1.0418
   85SOPE   C23 7888   6.775   2.464   2.398 -0.8381 -0.1445 -0.0497
   85SOPE   H3R 7889   6.784   2.573   2.420 -2.6904  0.6214 -2.5920
   85SOPE   H3S 7890   6.877   2.420   2.404  0.2393  1.8016 -2.3784
   85SOPE   C24 7891   6.681   2.411   2.506  0.3508  0.4901 -0.0762
   85SOPE   H4R 7892   6.589   2.474   2.508  0.6425  0.9459 -0.5694
   85SOPE   H4S 7893   6.654   2.308   2.473  1.2548  0.1258  0.3133
   85SOPE   C25 7894   6.735   2.410   2.644  0.9126  0.6108 -0.4066
   85SOPE   H5R 7895   6.808   2.325   2.643  1.9656  1.4569 -2.6166
   85SOPE   H5S 7896   6.792   2.503   2.665  0.1891  0.6525  1.5337
   85SOPE   C26 7897   6.631   2.398   2.757 -0.3948 -0.6120  0.0925
   85SOPE   H6R 7898   6.548   2.468   2.733 -0.5402 -0.5987  0.6169
   85SOPE   H6S 7899   6.581   2.299   2.757 -1.0545 -0.4205 -3.6389
   85SOPE   C27 7900   6.682   2.438   2.899  0.7068 -0.6694  0.2171
   85SOPE   H7R 7901   6.737   2.363   2.959 -0.0376 -1.7295 -0.3878
   85SOPE   H7S 7902   6.749   2.527   2.898  1.9546 -1.5378  1.7773
   85SOPE   C28 7903   6.555   2.477   2.990  0.7508  0.3562 -0.6523
   85SOPE   H8R 7904   6.583   2.458   3.096 -0.2982 -0.6427 -0.5313
   85SOPE   H8S 7905   6.553   2.588   2.987 -1.2626  0.5136  2.4053
   85SOPE   C29 7906   6.419   2.431   2.964  0.4063  0.1304  0.3391
   85SOPE   H91 7907   6.392   2.478   2.869  2.1578  0.8314  0.1425
   85SOPE  C210 7908   6.338   2.361   3.042 -0.2041  0.6669  0.3034
   85SOPE  H101 7909   6.234   2.353   3.007 -0.1935 -0.1116  0.4336
   85SOPE  C211 7910   6.361   2.305   3.180 -0.0844  0.7583 -0.4659
   85SOPE  H11R 7911   6.467   2.321   3.207  0.0189  1.1480 -1.0745
   85SOPE  H11S 7912   6.357   2.194   3.178 -0.3294  0.4797  4.1595
   85SOPE  C212 7913   6.269   2.365   3.287  0.2019 -0.2385 -0.3519
   85SOPE  H12R 7914   6.173   2.314   3.260 -0.9847 -0.0633  3.0762
   85SOPE  H12S 7915   6.257   2.475   3.277  0.6674 -0.1975 -0.4781
   85SOPE  C213 7916   6.302   2.338   3.433  0.4864 -0.8167  0.0277
   85SOPE  H13R 7917   6.238   2.396   3.502  0.8428  0.1736 -0.4616
   85SOPE  H13S 7918   6.405   2.378   3.447  0.2494 -0.6862  1.5119
   85SOPE  C214 7919   6.296   2.191   3.465  0.0380  0.4059  0.0498
   85SOPE  H14R 7920   6.358   2.119   3.408 -2.8114 -3.8529  1.8494
   85SOPE  H14S 7921   6.189   2.160   3.465  0.0815  0.2599 -0.3863
   85SOPE  C215 7922   6.333   2.172   3.614 -0.6976 -0.1274  0.0191
   85SOPE  H15R 7923   6.314   2.064   3.633  2.3246 -0.8169 -0.4533
   85SOPE  H15S 7924   6.286   2.249   3.679 -1.0384  0.3982 -0.8223
   85SOPE  C216 7925   6.490   2.203   3.634  0.2898 -0.0476 -0.0286
   85SOPE  H16R 7926   6.502   2.313   3.623 -0.4758  0.1994  1.4296
   85SOPE  H16S 7927   6.537   2.146   3.551 -1.4370 -0.3177 -0.8845
   85SOPE  C217 7928   6.546   2.163   3.771  1.0951 -0.4997 -0.4558
   85SOPE  H17R 7929   6.533   2.053   3.781  0.7457 -0.5408 -1.3335
   85SOPE  H17S 7930   6.484   2.206   3.853  2.2871 -0.7844  0.6227
   85SOPE  C218 7931   6.691   2.195   3.801 -0.2268  0.2330  0.8112
   85SOPE  H18R 7932   6.730   2.133   3.884 -0.8331  0.3932  1.2209
   85SOPE  H18S 7933   6.710   2.303   3.815  1.6282 -0.0274  0.5561
   85SOPE  H18T 7934   6.756   2.174   3.714  0.1334  0.2722  1.0683
   85SOPE   C33 7935   6.297   2.779   2.651  0.6936 -0.6074  0.5854
   85SOPE   H3X 7936   6.188   2.760   2.643  1.1579 -2.5420 -2.6456
   85SOPE   H3Y 7937   6.331   2.882   2.626  0.4827  0.0262  2.7099
   85SOPE   C34 7938   6.334   2.765   2.798  0.0056 -0.4934  0.0271
   85SOPE   H4X 7939   6.431   2.814   2.820  1.7030 -3.8823  0.7624
   85SOPE   H4Y 7940   6.346   2.655   2.809  0.5362 -0.4424 -0.0174
   85SOPE   C35 7941   6.219   2.819   2.886 -0.3304  0.6020  0.8364
   85SOPE   H5X 7942   6.126   2.768   2.851  1.4606 -1.6413 -0.9466
   85SOPE   H5Y 7943   6.203   2.927   2.868 -1.9655  0.1173 -0.9833
   85SOPE   C36 7944   6.234   2.779   3.042 -0.4428  0.8767  0.0143
   85SOPE   H6X 7945   6.275   2.677   3.048 -0.9603  0.7455  2.6591
   85SOPE   H6Y 7946   6.142   2.792   3.104  1.4892  0.9156  3.0790
   85SOPE   C37 7947   6.339   2.865   3.112 -0.9840 -0.1440 -0.1496
   85SOPE   H7X 7948   6.308   2.971   3.095  2.0058  1.0166  1.0106
   85SOPE   H7Y 7949   6.437   2.853   3.061 -0.6578  0.8663  0.2242
   85SOPE   C38 7950   6.356   2.851   3.263  0.6107 -0.5477 -0.2402
   85SOPE   H8X 7951   6.434   2.917   3.306  0.1205  1.1082 -1.7918
   85SOPE   H8Y 7952   6.386   2.746   3.286  0.7032 -0.6465 -0.8073
   85SOPE   C39 7953   6.230   2.881   3.347 -0.3126 -0.1833 -0.0269
   85SOPE   H9X 7954   6.145   2.814   3.324 -0.4625 -0.1656  0.4729
   85SOPE   H9Y 7955   6.189   2.982   3.325  2.0527  0.7349 -0.6068
   85SOPE  C310 7956   6.262   2.884   3.496 -1.0784  0.3798 -0.3563
   85SOPE  H10X 7957   6.184   2.949   3.541  0.9041  3.0514 -0.5244
   85SOPE  H10Y 7958   6.361   2.928   3.524 -1.4002  0.3247  0.9663
   85SOPE  C311 7959   6.276   2.742   3.562  0.6149  0.1302  0.2653
   85SOPE  H11X 7960   6.357   2.683   3.514  0.0050  0.3278 -1.0432
   85SOPE  H11Y 7961   6.182   2.695   3.527  0.9263 -0.3500  0.0636
   85SOPE  C312 7962   6.298   2.733   3.710  0.5236  0.4721 -0.3865
   85SOPE  H12X 7963   6.231   2.811   3.753 -1.3807 -1.5060  0.4011
   85SOPE  H12Y 7964   6.396   2.766   3.749 -1.0288  1.8633  2.6396
   85SOPE  C313 7965   6.258   2.597   3.764  0.4226  0.2403 -0.7160
   85SOPE  H13X 7966   6.332   2.525   3.723  0.2085  0.3523 -1.3018
   85SOPE  H13Y 7967   6.152   2.571   3.742 -0.8825  2.6305  2.0030
   85SOPE  C314 7968   6.261   2.601   3.916  0.0601  0.0134 -0.4973
   85SOPE  H14X 7969   6.168   2.638   3.964 -0.1155 -0.6426 -0.3252
   85SOPE  H14Y 7970   6.345   2.662   3.957  0.0585 -0.5470  0.3611
   85SOPE  C315 7971   6.302   2.467   3.983 -0.1340 -0.7438  0.1841
   85SOPE  H15X 7972   6.394   2.419   3.942 -0.4525 -0.4930 -0.8581
   85SOPE  H15Y 7973   6.227   2.395   3.942  0.5471 -1.9324  0.9477
   85SOPE  C316 7974   6.305   2.466   4.135 -0.4989  0.2807  0.3061
   85SOPE  H16X 7975   6.199   2.458   4.169 -0.3879 -0.9035  0.4257
   85SOPE  H16Y 7976   6.334   2.570   4.160 -2.0531  0.8874 -0.2686
   85SOPE  C317 7977   6.389   2.355   4.203 -0.0859  0.0548 -0.7525
   85SOPE  H17X 7978   6.384   2.363   4.313  0.3137 -0.2700 -0.7068
   85SOPE  H17Y 7979   6.494   2.383   4.182 -0.5330  1.6489 -0.9632
   85SOPE  C318 7980   6.369   2.213   4.160  0.1974  0.0081 -0.3793
   85SOPE  H18X 7981   6.414   2.203   4.060 -0.0119  0.5818 -0.5350
   85SOPE  H18Y 7982   6.265   2.173   4.153  0.1939 -0.1379  0.3628
   85SOPE  H18Z 7983   6.415   2.142   4.233  1.3617  0.3010 -0.8173
   86SOPE     N 7984   0.028   6.667   2.380  1.0406 -0.1959 -0.7031
   86SOPE   HN1 7985   0.014   6.601   2.460 -2.2862 -0.1992 -1.1362
   86SOPE   HN2 7986   0.108   6.623   2.330  2.2311  0.0446  0.8775
   86SOPE   HN3 7987   0.055   6.761   2.413  3.9960  0.0646 -3.3699
   86SOPE   C12 7988  -0.094   6.686   2.303  0.7912  0.1917 -0.3422
   86SOPE  H12A 7989  -0.147   6.589   2.292  0.2074  0.1894  2.0596
   86SOPE  H12B 7990  -0.072   6.708   2.196 -0.6060 -1.8152 -1.1108
   86SOPE   C11 7991  -0.172   6.797   2.362  0.3735 -0.2664  0.2030
   86SOPE  H11A 7992  -0.195   6.781   2.469  1.7780  0.5671  0.6584
   86SOPE  H11B 7993  -0.277   6.812   2.329  0.2372  0.0491  0.7751
   86SOPE     P 7994  -0.099   7.012   2.220  0.0963  0.0381 -0.1051
   86SOPE   O13 7995  -0.152   7.140   2.269 -0.1239 -0.2896  0.3369
   86SOPE   O14 7996  -0.178   6.937   2.120  0.7954 -0.0513 -0.1732
   86SOPE   O12 7997  -0.091   6.926   2.353  0.1742 -0.2004 -0.2454
   86SOPE   O11 7998   0.055   7.034   2.185 -0.1222  0.1670  0.1862
   86SOPE    C1 7999   0.163   6.958   2.236  0.2926 -0.3945 -0.0571
   86SOPE    HA 8000   0.238   6.942   2.156 -0.7049 -3.0995 -0.5636
   86SOPE    HB 8001   0.129   6.857   2.265 -0.1149 -0.0723  0.6197
   86SOPE    C2 8002   0.243   7.030   2.346 -0.4346  0.3658  0.4742
   86SOPE    HS 8003   0.326   6.962   2.375 -0.6635  0.7266  2.0534
   86SOPE   O21 8004   0.167   7.067   2.459 -0.3580 -0.4040 -0.7942
   86SOPE   C21 8005   0.125   6.971   2.541  0.4688  0.6843  0.0198
   86SOPE   O22 8006   0.155   6.851   2.538 -0.0069 -0.0530 -0.1166
   86SOPE   C22 8007   0.033   7.035   2.642 -0.4376 -0.0058 -0.0399
   86SOPE   H2R 8008  -0.050   7.091   2.594  0.4536  1.2490 -0.1778
   86SOPE   H2S 8009   0.091   7.107   2.703 -0.3749 -0.7035  0.7460
   86SOPE    C3 8010   0.321   7.149   2.294 -0.7682  0.1967 -0.5725
   86SOPE    HX 8011   0.256   7.211   2.230  0.8212  1.2920 -1.2001
   86SOPE    HY 8012   0.395   7.114   2.219  1.5137  0.7192  1.2799
   86SOPE   O31 8013   0.384   7.220   2.406 -0.0091 -0.3857  0.6435
   86SOPE   C31 8014   0.342   7.346   2.427  0.0285 -0.0044  0.7808
   86SOPE   O32 8015   0.243   7.394   2.379 -0.4014  0.1771  0.0070
   86SOPE   C32 8016   0.448   7.422   2.503 -0.4379 -0.1438  0.5386
   86SOPE   H2X 8017   0.539   7.431   2.440  0.5196  1.7897  2.0628
   86SOPE   H2Y 8018   0.480   7.362   2.591  0.8117 -0.4508 -0.1003
   86SOPE   C23 8019  -0.037   6.928   2.731  0.5385 -0.1537  0.5285
   86SOPE   H3R 8020   0.035   6.863   2.786 -1.6066 -2.0094  1.2762
   86SOPE   H3S 8021  -0.105   6.856   2.681  0.6803  0.8118 -1.1198
   86SOPE   C24 8022  -0.121   6.971   2.862 -0.5446  0.2586 -0.0952
   86SOPE   H4R 8023  -0.182   7.060   2.833  0.7775  1.5080  0.7993
   86SOPE   H4S 8024  -0.192   6.890   2.887 -2.1579  1.2501 -1.2269
   86SOPE   C25 8025  -0.022   7.008   2.971 -0.3503  0.4178 -0.2861
   86SOPE   H5R 8026   0.052   6.926   2.986 -0.0003  0.5708 -1.1110
   86SOPE   H5S 8027   0.043   7.090   2.934 -0.3590  0.7527  0.4118
   86SOPE   C26 8028  -0.108   7.047   3.097 -0.8644 -0.7464  0.1842
   86SOPE   H6R 8029  -0.189   7.115   3.063 -2.4361 -2.0342  1.2425
   86SOPE   H6S 8030  -0.161   6.955   3.127  0.9920 -1.7229  0.6394
   86SOPE   C27 8031  -0.021   7.107   3.210  0.5489 -0.3217 -0.4545
   86SOPE   H7R 8032   0.038   7.025   3.256  1.1716 -2.1782 -4.2247
   86SOPE   H7S 8033   0.058   7.164   3.156  0.4263  1.0160  0.7043
   86SOPE   C28 8034  -0.097   7.194   3.315  0.4955 -0.4766 -0.6957
   86SOPE   H8R 8035  -0.022   7.264   3.357 -0.6994  0.1306  0.5069
   86SOPE   H8S 8036  -0.152   7.270   3.255  0.3229  0.2205  0.3258
   86SOPE   C29 8037  -0.181   7.111   3.414  0.1217 -1.2160  0.0257
   86SOPE   H91 8038  -0.273   7.073   3.366  0.3643  1.0453 -2.4932
   86SOPE  C210 8039  -0.153   7.109   3.547  0.0161 -0.1784 -0.5424
   86SOPE  H101 8040  -0.214   7.051   3.618  0.2760  0.7799  0.4914
   86SOPE  C211 8041  -0.038   7.169   3.615 -0.8239 -0.3436 -0.2232
   86SOPE  H11R 8042   0.001   7.267   3.580  0.5914 -0.6418  0.4164
   86SOPE  H11S 8043   0.051   7.104   3.600  0.5715  0.8452  2.2343
   86SOPE  C212 8044  -0.054   7.180   3.767  0.7962 -0.1836 -0.2718
   86SOPE  H12R 8045  -0.118   7.100   3.811  1.1776  0.4457  1.5096
   86SOPE  H12S 8046  -0.115   7.271   3.785  0.8066  0.0595 -1.4241
   86SOPE  C213 8047   0.082   7.174   3.835  0.7378  0.0111  0.0863
   86SOPE  H13R 8048   0.124   7.072   3.822 -1.6588 -0.9414 -0.6657
   86SOPE  H13S 8049   0.063   7.181   3.945  1.3615  1.1435  0.1444
   86SOPE  C214 8050   0.177   7.290   3.811  0.0984 -0.1050  0.4973
   86SOPE  H14R 8051   0.110   7.378   3.819 -2.6815 -2.0269 -0.0791
   86SOPE  H14S 8052   0.215   7.279   3.707 -0.1119  1.7930  0.1933
   86SOPE  C215 8053   0.267   7.303   3.930  0.1011  0.1503 -0.3314
   86SOPE  H15R 8054   0.285   7.202   3.973  1.0551  0.3599 -0.2148
   86SOPE  H15S 8055   0.226   7.354   4.020  1.4773  2.8289 -1.1207
   86SOPE  C216 8056   0.394   7.381   3.908 -0.5434 -0.2827 -0.5776
   86SOPE  H16R 8057   0.362   7.487   3.910 -1.8888 -0.6434 -1.4259
   86SOPE  H16S 8058   0.448   7.362   3.813  2.0063 -0.0293  0.7414
   86SOPE  C217 8059   0.513   7.360   4.004 -0.1627  0.1632 -0.1617
   86SOPE  H17R 8060   0.572   7.451   3.978 -0.6169  0.6271  0.4066
   86SOPE  H17S 8061   0.580   7.275   3.980  0.0749 -0.4456  2.3539
   86SOPE  C218 8062   0.485   7.367   4.153  0.4967 -0.1304 -0.2570
   86SOPE  H18R 8063   0.426   7.275   4.175  0.3061  0.2174  0.7806
   86SOPE  H18S 8064   0.426   7.457   4.182 -0.3510 -0.5757 -0.5659
   86SOPE  H18T 8065   0.577   7.377   4.213  0.2131 -1.9056  0.5289
   86SOPE   C33 8066   0.406   7.563   2.548  0.5276 -0.9137  0.2489
   86SOPE   H3X 8067   0.306   7.561   2.596 -0.0350 -0.0621 -0.8519
   86SOPE   H3Y 8068   0.410   7.643   2.471 -0.2062 -0.6468  0.4794
   86SOPE   C34 8069   0.508   7.611   2.646  0.5963  0.9537  0.2103
   86SOPE   H4X 8070   0.605   7.614   2.592 -0.1316  2.8467 -1.1143
   86SOPE   H4Y 8071   0.518   7.539   2.730 -2.3044  1.7598  1.3553
   86SOPE   C35 8072   0.495   7.754   2.697 -0.0262 -0.0046  0.0694
   86SOPE   H5X 8073   0.393   7.764   2.740 -1.1675 -0.1769 -2.4618
   86SOPE   H5Y 8074   0.497   7.831   2.617 -1.0013  0.4383  0.4584
   86SOPE   C36 8075   0.610   7.788   2.791 -0.0201 -0.1408 -0.7959
   86SOPE   H6X 8076   0.705   7.789   2.734  0.5115  2.0562  0.0184
   86SOPE   H6Y 8077   0.608   7.716   2.875  0.3753  0.2791 -0.4227
   86SOPE   C37 8078   0.616   7.927   2.851 -0.0200  0.1489  0.2950
   86SOPE   H7X 8079   0.519   7.926   2.906 -0.5928 -1.2848 -0.6967
   86SOPE   H7Y 8080   0.605   8.011   2.781 -0.5851 -1.6817 -1.9269
   86SOPE   C38 8081   0.731   7.957   2.945 -0.6653 -0.7581 -0.5266
   86SOPE   H8X 8082   0.729   8.065   2.973 -2.6838 -0.2802 -2.2878
   86SOPE   H8Y 8083   0.824   7.924   2.895 -0.7368 -2.3851  0.3659
   86SOPE   C39 8084   0.720   7.878   3.074 -0.4516  0.3412  0.0691
   86SOPE   H9X 8085   0.760   7.776   3.057  0.7792  0.7981  0.1332
   86SOPE   H9Y 8086   0.615   7.874   3.110 -0.6375  2.1591 -0.1668
   86SOPE  C310 8087   0.823   7.925   3.183 -0.6689  0.2705 -0.5036
   86SOPE  H10X 8088   0.819   8.035   3.169 -0.5300  0.0808 -2.3994
   86SOPE  H10Y 8089   0.926   7.892   3.157 -0.0451 -0.5006  2.6052
   86SOPE  C311 8090   0.790   7.884   3.328 -0.0533  0.0733 -0.5705
   86SOPE  H11X 8091   0.805   7.775   3.343  0.0263  0.4486  3.2063
   86SOPE  H11Y 8092   0.682   7.911   3.333 -0.1906 -0.2358 -1.6237
   86SOPE  C312 8093   0.865   7.965   3.441 -0.1094  0.5062 -0.5471
   86SOPE  H12X 8094   0.815   7.929   3.534 -1.7517 -2.1411 -2.3281
   86SOPE  H12Y 8095   0.851   8.073   3.421  1.2323  0.8941  0.4525
   86SOPE  C313 8096   1.017   7.951   3.446  0.1735  0.4673  0.0022
   86SOPE  H13X 8097   1.072   7.971   3.351  0.5682 -2.7259 -0.5433
   86SOPE  H13Y 8098   1.040   7.846   3.473  1.4558  0.6782 -0.2117
   86SOPE  C314 8099   1.070   8.038   3.551 -0.5987  0.7821  0.2121
   86SOPE  H14X 8100   1.034   8.006   3.652  0.1828 -1.3926 -0.1403
   86SOPE  H14Y 8101   1.043   8.145   3.540 -0.5144  0.7470 -0.3429
   86SOPE  C315 8102   1.230   8.040   3.569 -0.0653 -0.2610  0.0026
   86SOPE  H15X 8103   1.276   8.100   3.488  1.0461 -0.0350  0.7832
   86SOPE  H15Y 8104   1.270   7.937   3.556  1.6449  0.3658  0.1678
   86SOPE  C316 8105   1.288   8.106   3.703 -0.3316 -1.1365 -0.1406
   86SOPE  H16X 8106   1.254   8.055   3.795  1.6143  0.1143  1.3748
   86SOPE  H16Y 8107   1.249   8.210   3.715 -0.5051 -1.3534  1.3302
   86SOPE  C317 8108   1.441   8.116   3.708  0.2021 -0.4236 -0.0784
   86SOPE  H17X 8109   1.470   8.168   3.615 -1.6408  0.3230 -0.2896
   86SOPE  H17Y 8110   1.486   8.016   3.697  0.4483 -0.4000  0.6311
   86SOPE  C318 8111   1.491   8.194   3.833 -0.1334 -0.0901 -0.6002
   86SOPE  H18X 8112   1.451   8.141   3.922 -0.6469  1.4282  0.1047
   86SOPE  H18Y 8113   1.443   8.294   3.830 -1.9248 -0.8597  0.5048
   86SOPE  H18Z 8114   1.601   8.199   3.847 -0.1873  0.8625 -0.4684
   87SOPE     N 8115   6.052   6.755   2.293 -0.2741  0.5185  0.8522
   87SOPE   HN1 8116   6.022   6.846   2.253 -0.0554  0.9674  1.6835
   87SOPE   HN2 8117   6.088   6.691   2.219 -0.2039  2.8481 -1.2499
   87SOPE   HN3 8118   5.967   6.711   2.334 -1.8317  1.0367 -1.5933
   87SOPE   C12 8119   6.149   6.752   2.404 -0.1611 -0.1562  0.4142
   87SOPE  H12A 8120   6.111   6.815   2.487 -3.3678 -1.5952  0.1761
   87SOPE  H12B 8121   6.247   6.795   2.374 -0.2590 -0.5493 -0.5108
   87SOPE   C11 8122   6.159   6.613   2.469 -0.3221 -0.2405  0.2937
   87SOPE  H11A 8123   6.078   6.614   2.545 -1.5110  0.5087 -0.9440
   87SOPE  H11B 8124   6.250   6.604   2.533 -0.2300 -0.9786  0.0669
   87SOPE     P 8125   6.215   6.368   2.421 -0.1888 -0.4008 -0.2330
   87SOPE   O13 8126   6.364   6.364   2.439  0.0649 -0.4018  0.0655
   87SOPE   O14 8127   6.166   6.273   2.322 -0.7265  0.0658  0.4870
   87SOPE   O12 8128   6.168   6.509   2.377  0.0780 -0.3842 -0.2521
   87SOPE   O11 8129   6.146   6.331   2.561 -0.1724  0.0289 -0.1826
   87SOPE    C1 8130   6.002   6.300   2.564 -0.3346  0.1444  0.1441
   87SOPE    HA 8131   5.996   6.190   2.548  1.7935  0.1685 -1.2810
   87SOPE    HB 8132   5.948   6.348   2.479  0.2086  0.0390 -0.2676
   87SOPE    C2 8133   5.926   6.337   2.694  0.4974 -0.1995  0.3814
   87SOPE    HS 8134   5.818   6.318   2.679  0.3850  0.8041 -0.1094
   87SOPE   O21 8135   5.946   6.476   2.720 -0.7648  0.2117 -0.3884
   87SOPE   C21 8136   5.854   6.536   2.788  0.4502 -0.0132 -0.3149
   87SOPE   O22 8137   5.743   6.489   2.815 -0.5552  0.1068 -0.2542
   87SOPE   C22 8138   5.902   6.678   2.822  0.6981  0.1264 -0.1159
   87SOPE   H2R 8139   5.892   6.728   2.723  2.3667  0.6751 -0.0393
   87SOPE   H2S 8140   6.008   6.680   2.854  1.3391  0.4063 -2.1063
   87SOPE    C3 8141   5.965   6.244   2.811 -0.7239 -0.2525  0.4046
   87SOPE    HX 8142   6.076   6.236   2.809 -0.7693 -1.2672 -2.3788
   87SOPE    HY 8143   5.927   6.143   2.784  0.6805 -0.2419 -1.9799
   87SOPE   O31 8144   5.905   6.276   2.934 -0.4408 -0.0971  0.4608
   87SOPE   C31 8145   5.976   6.363   3.013 -0.4278  0.0118 -0.0555
   87SOPE   O32 8146   6.083   6.410   2.992 -0.0849  0.1250 -0.5814
   87SOPE   C32 8147   5.878   6.400   3.123  0.4723  0.9808  0.3420
   87SOPE   H2X 8148   5.842   6.308   3.175  0.0991 -0.2351 -1.9396
   87SOPE   H2Y 8149   5.794   6.454   3.074  0.7066 -0.0645 -1.2945
   87SOPE   C23 8150   5.818   6.745   2.930 -0.0152 -0.2384 -0.5697
   87SOPE   H3R 8151   5.849   6.699   3.027 -2.2489 -1.2275 -0.2634
   87SOPE   H3S 8152   5.713   6.728   2.899 -0.4518 -1.1036  1.2465
   87SOPE   C24 8153   5.836   6.892   2.951 -0.0892 -0.9126  0.6416
   87SOPE   H4R 8154   5.942   6.925   2.943 -0.4857  0.3254  0.1787
   87SOPE   H4S 8155   5.784   6.944   2.867 -2.6832  1.3885  3.4533
   87SOPE   C25 8156   5.771   6.955   3.076  0.0487 -0.0682 -0.5499
   87SOPE   H5R 8157   5.746   7.062   3.062  0.8624  0.5729  2.3633
   87SOPE   H5S 8158   5.678   6.902   3.104 -0.7125  2.1976  1.4849
   87SOPE   C26 8159   5.852   6.945   3.207 -0.1636  0.3663 -0.1078
   87SOPE   H6R 8160   5.780   6.977   3.285  0.5990  2.1900 -0.1062
   87SOPE   H6S 8161   5.898   6.845   3.225  0.6966  1.1668  2.4298
   87SOPE   C27 8162   5.965   7.047   3.210 -0.8583 -0.1421  0.6863
   87SOPE   H7R 8163   6.030   7.020   3.125  0.5975  1.5842  1.1823
   87SOPE   H7S 8164   5.919   7.147   3.193 -0.2106  0.4923  2.3859
   87SOPE   C28 8165   6.039   7.055   3.338  0.0183 -0.1053 -0.0428
   87SOPE   H8R 8166   5.962   7.087   3.412 -0.3276  0.7982 -0.7684
   87SOPE   H8S 8167   6.082   6.957   3.368  3.2288  1.5526  1.2817
   87SOPE   C29 8168   6.138   7.168   3.345 -0.3410 -0.1356 -0.9691
   87SOPE   H91 8169   6.148   7.217   3.247 -1.2738  0.5840 -0.7236
   87SOPE  C210 8170   6.188   7.224   3.457  0.2400  0.5196  0.3181
   87SOPE  H101 8171   6.259   7.307   3.444  2.2734 -0.9666  1.4614
   87SOPE  C211 8172   6.162   7.169   3.593  0.3282 -0.2527  0.8459
   87SOPE  H11R 8173   6.113   7.069   3.593 -0.4725  0.1165 -0.8958
   87SOPE  H11S 8174   6.089   7.239   3.637  2.3141  1.5517  1.4467
   87SOPE  C212 8175   6.294   7.176   3.666 -0.5939  0.1229 -0.0900
   87SOPE  H12R 8176   6.376   7.152   3.596 -0.0641  0.3569  0.4453
   87SOPE  H12S 8177   6.301   7.100   3.746  3.0958  1.4029  1.0033
   87SOPE  C213 8178   6.329   7.311   3.723 -0.7491  0.2622  0.0668
   87SOPE  H13R 8179   6.238   7.356   3.768 -0.9670  0.3786 -0.4784
   87SOPE  H13S 8180   6.353   7.391   3.649 -1.4816  0.1293 -0.3243
   87SOPE  C214 8181   6.423   7.299   3.847  0.7594 -0.7992 -0.1927
   87SOPE  H14R 8182   6.520   7.263   3.807  1.3381  0.8718 -0.3772
   87SOPE  H14S 8183   6.390   7.234   3.931  1.7886 -1.6379 -0.4079
   87SOPE  C215 8184   6.465   7.440   3.895 -1.1963  0.0646  0.9221
   87SOPE  H15R 8185   6.517   7.490   3.811 -1.8068  0.6016  0.8525
   87SOPE  H15S 8186   6.551   7.423   3.963  0.1079  2.7557  0.1020
   87SOPE  C216 8187   6.356   7.525   3.957  0.6048  0.1403  0.0866
   87SOPE  H16R 8188   6.309   7.476   4.045  1.4972 -1.1674 -0.1425
   87SOPE  H16S 8189   6.287   7.570   3.883  1.8094  0.9210 -0.6011
   87SOPE  C217 8190   6.419   7.656   4.015  0.2721  0.2903 -0.4216
   87SOPE  H17R 8191   6.460   7.715   3.931  4.1180  1.9113  2.2536
   87SOPE  H17S 8192   6.510   7.630   4.075  0.5878  1.0683 -0.5591
   87SOPE  C218 8193   6.317   7.727   4.100  0.1750  0.1474  0.2716
   87SOPE  H18R 8194   6.232   7.760   4.035  1.4085  3.8166  0.2613
   87SOPE  H18S 8195   6.363   7.818   4.144  0.9625 -0.0571 -0.1153
   87SOPE  H18T 8196   6.277   7.659   4.178 -1.4795  1.2951  0.4748
   87SOPE   C33 8197   5.939   6.496   3.223  0.4378 -0.0523  1.1585
   87SOPE   H3X 8198   5.968   6.592   3.174 -1.1750 -1.0395 -2.0405
   87SOPE   H3Y 8199   6.029   6.444   3.262 -1.0531 -1.1333  3.3708
   87SOPE   C34 8200   5.841   6.528   3.337 -0.2685  0.4131  0.5203
   87SOPE   H4X 8201   5.808   6.426   3.367 -2.2678  1.4994  2.2791
   87SOPE   H4Y 8202   5.755   6.582   3.292 -0.3363  0.3445  0.5671
   87SOPE   C35 8203   5.915   6.611   3.445  0.0715 -0.5165 -0.0336
   87SOPE   H5X 8204   5.978   6.686   3.394 -1.6615  1.4068  0.4781
   87SOPE   H5Y 8205   5.985   6.541   3.496 -0.0777 -0.5983  0.0620
   87SOPE   C36 8206   5.817   6.684   3.540  0.4518  0.4826  0.2043
   87SOPE   H6X 8207   5.742   6.610   3.575 -1.1590  1.5029 -0.9193
   87SOPE   H6Y 8208   5.768   6.765   3.481  1.1658  0.9102  0.1863
   87SOPE   C37 8209   5.887   6.745   3.658 -0.0913 -0.2454 -0.1567
   87SOPE   H7X 8210   5.833   6.834   3.697 -0.4790 -1.1443  1.4330
   87SOPE   H7Y 8211   5.984   6.780   3.617 -0.1014  1.2623  0.9973
   87SOPE   C38 8212   5.910   6.647   3.770  0.3232 -0.7093  0.0249
   87SOPE   H8X 8213   5.959   6.557   3.727 -0.4280 -0.6766 -0.9339
   87SOPE   H8Y 8214   5.818   6.609   3.819  0.1732 -0.5353 -0.1186
   87SOPE   C39 8215   5.990   6.710   3.882 -0.3107  0.5058 -0.0072
   87SOPE   H9X 8216   6.061   6.776   3.827  0.1824 -0.3844 -0.4531
   87SOPE   H9Y 8217   6.050   6.637   3.939  1.1770  1.1371 -0.6966
   87SOPE  C310 8218   5.909   6.797   3.973  0.4290 -0.1426  0.1863
   87SOPE  H10X 8219   5.811   6.751   3.995  0.0704  1.3292  1.9315
   87SOPE  H10Y 8220   5.884   6.890   3.918 -1.7686 -0.0846  1.1909
   87SOPE  C311 8221   5.966   6.833   4.107  0.3215 -0.0380 -0.2477
   87SOPE  H11X 8222   6.058   6.895   4.096  0.2302  0.2814  0.7027
   87SOPE  H11Y 8223   5.992   6.740   4.162 -1.4628  0.2087  1.1138
   87SOPE  C312 8224   5.891   6.926   4.206  0.2220  0.0435  0.2599
   87SOPE  H12X 8225   5.783   6.899   4.201  0.3924 -0.3846 -1.6890
   87SOPE  H12Y 8226   5.899   7.029   4.167 -1.6301  0.4559  0.8654
   87SOPE  C313 8227   5.958   6.932   4.346 -0.2256 -0.1871 -0.4006
   87SOPE  H13X 8228   6.054   6.989   4.335  0.4879 -1.4619 -1.0125
   87SOPE  H13Y 8229   5.981   6.829   4.378  1.5346  0.5265  0.7920
   87SOPE  C314 8230   5.867   6.986   4.458 -0.0296 -1.1663 -0.5237
   87SOPE  H14X 8231   5.926   6.991   4.552 -1.6164  1.1340  0.4426
   87SOPE  H14Y 8232   5.780   6.918   4.474 -0.8122  0.2014  1.5250
   87SOPE  C315 8233   5.811   7.128   4.421  0.2071  0.0566 -0.4347
   87SOPE  H15X 8234   5.782   7.132   4.314  0.7703  0.1257 -0.5867
   87SOPE  H15Y 8235   5.899   7.195   4.432  1.5018 -1.4836 -0.9874
   87SOPE  C316 8236   5.689   7.177   4.510 -0.3465  0.7384 -0.7763
   87SOPE  H16X 8237   5.634   7.259   4.458  1.8742  1.8960 -1.4218
   87SOPE  H16Y 8238   5.729   7.221   4.603  1.7497 -0.6229 -0.9784
   87SOPE  C317 8239   5.572   7.077   4.543 -1.0452 -0.1000  0.5571
   87SOPE  H17X 8240   5.602   6.974   4.572  0.5024  0.6785  1.8490
   87SOPE  H17Y 8241   5.519   7.068   4.445  0.1409  1.0649 -0.2267
   87SOPE  C318 8242   5.480   7.148   4.649 -0.2007  0.2105  0.0770
   87SOPE  H18X 8243   5.411   7.220   4.600 -0.3329  1.3794  1.9080
   87SOPE  H18Y 8244   5.542   7.207   4.719  1.9405  1.0931 -2.4078
   87SOPE  H18Z 8245   5.427   7.070   4.709 -0.8503  1.6325  1.4131
   88SOPE     N 8246   6.341   5.881   2.390  0.5714  0.7330  1.0427
   88SOPE   HN1 8247   6.397   5.931   2.318  0.1666  0.3317  0.4275
   88SOPE   HN2 8248   6.342   5.784   2.352  0.0195  0.5422  1.5062
   88SOPE   HN3 8249   6.245   5.921   2.385 -0.5382 -1.8491 -0.6549
   88SOPE   C12 8250   6.393   5.878   2.529 -0.5005  0.2589  0.2464
   88SOPE  H12A 8251   6.328   5.838   2.610 -2.4345  0.5480 -1.0992
   88SOPE  H12B 8252   6.383   5.984   2.559  3.3897  0.3406  1.8095
   88SOPE   C11 8253   6.538   5.819   2.536  0.1152  0.1417 -0.5211
   88SOPE  H11A 8254   6.530   5.709   2.530  0.3045 -0.0685  1.9072
   88SOPE  H11B 8255   6.569   5.844   2.640 -2.8745  0.6479  0.3304
   88SOPE     P 8256   6.756   5.817   2.409 -0.2029  0.1248  0.4240
   88SOPE   O13 8257   6.809   5.885   2.287 -0.1345 -0.2371  0.0823
   88SOPE   O14 8258   6.757   5.670   2.396  0.0176  0.7138 -0.5988
   88SOPE   O12 8259   6.620   5.886   2.438  0.0404 -0.2266  0.3935
   88SOPE   O11 8260   6.844   5.852   2.523 -0.2709  0.1143  0.4289
   88SOPE    C1 8261   6.837   5.988   2.572 -0.1150  0.2881  0.0584
   88SOPE    HA 8262   6.737   6.034   2.564  0.4602  1.5516 -0.2305
   88SOPE    HB 8263   6.905   6.051   2.510  0.6764  0.6368  1.2326
   88SOPE    C2 8264   6.887   5.991   2.721 -0.0222 -0.0396  0.4221
   88SOPE    HS 8265   6.994   5.964   2.715 -0.1729 -0.5421 -0.0739
   88SOPE   O21 8266   6.812   5.888   2.797 -0.2579  0.2271 -0.1902
   88SOPE   C21 8267   6.875   5.776   2.813 -0.7190  1.4518 -0.2981
   88SOPE   O22 8268   6.994   5.757   2.787  0.2913  0.5073  0.3609
   88SOPE   C22 8269   6.783   5.663   2.869  0.1060 -0.2413 -0.3854
   88SOPE   H2R 8270   6.770   5.589   2.787  1.8752  0.2063 -1.1227
   88SOPE   H2S 8271   6.685   5.710   2.889  0.1373 -0.9209  1.5800
   88SOPE    C3 8272   6.871   6.126   2.796  0.3822 -0.2433 -0.9111
   88SOPE    HX 8273   6.766   6.161   2.791  0.4362  0.1730  0.3692
   88SOPE    HY 8274   6.927   6.199   2.733 -0.7136 -0.6864 -2.4388
   88SOPE   O31 8275   6.910   6.119   2.933 -0.1590 -0.4464 -0.0950
   88SOPE   C31 8276   7.046   6.120   2.947 -0.4191  0.8576  0.3662
   88SOPE   O32 8277   7.123   6.100   2.858 -0.5460  0.6800  0.4362
   88SOPE   C32 8278   7.084   6.152   3.094  0.7253  0.5855  0.6136
   88SOPE   H2X 8279   7.055   6.062   3.151  0.0109 -0.5682 -1.4807
   88SOPE   H2Y 8280   7.013   6.227   3.136 -0.7473 -0.8513  0.7512
   88SOPE   C23 8281   6.826   5.586   2.995  0.2830  0.8371  0.0525
   88SOPE   H3R 8282   6.735   5.558   3.052  1.5313 -1.5600  0.9940
   88SOPE   H3S 8283   6.869   5.660   3.066 -1.3925  0.8416  1.1119
   88SOPE   C24 8284   6.918   5.464   2.977 -0.1138 -0.7560  0.3239
   88SOPE   H4R 8285   6.867   5.387   2.915 -0.8764 -0.9159  1.1434
   88SOPE   H4S 8286   7.006   5.510   2.927 -1.5092  2.3650  0.5052
   88SOPE   C25 8287   6.963   5.391   3.107  0.6803 -0.4930  0.1678
   88SOPE   H5R 8288   7.004   5.294   3.070 -0.7350  0.5762 -5.1270
   88SOPE   H5S 8289   7.050   5.448   3.144 -0.1123  0.1912  1.0174
   88SOPE   C26 8290   6.853   5.380   3.203  0.6843 -0.9117  0.0072
   88SOPE   H6R 8291   6.816   5.477   3.242 -0.5512 -1.6616  0.8116
   88SOPE   H6S 8292   6.770   5.335   3.145 -1.6070  0.6874  1.8255
   88SOPE   C27 8293   6.905   5.296   3.327 -0.2729  0.3669 -0.7730
   88SOPE   H7R 8294   6.927   5.195   3.288 -4.1793 -1.0430  0.2227
   88SOPE   H7S 8295   6.998   5.340   3.370  1.0241 -2.9425  0.0519
   88SOPE   C28 8296   6.801   5.268   3.435 -0.2336 -0.6870 -0.2583
   88SOPE   H8R 8297   6.698   5.256   3.394 -1.2599  1.6019  1.4299
   88SOPE   H8S 8298   6.820   5.170   3.485  2.2640 -0.4027 -0.5261
   88SOPE   C29 8299   6.790   5.388   3.524 -0.1551 -0.3083 -0.5125
   88SOPE   H91 8300   6.819   5.481   3.474 -1.1022  0.0877 -0.3381
   88SOPE  C210 8301   6.776   5.398   3.656  0.6541  0.5711  0.2151
   88SOPE  H101 8302   6.754   5.498   3.696 -0.1673  0.3656  0.2964
   88SOPE  C211 8303   6.742   5.291   3.751  0.0104  0.1972  0.3566
   88SOPE  H11R 8304   6.776   5.325   3.851  0.4623 -0.1472  0.3248
   88SOPE  H11S 8305   6.802   5.199   3.729 -0.9279  0.0370 -1.8794
   88SOPE  C212 8306   6.595   5.261   3.735  0.1266  0.3281 -0.0980
   88SOPE  H12R 8307   6.586   5.228   3.629  1.8021 -0.4956 -0.0260
   88SOPE  H12S 8308   6.534   5.353   3.739 -0.0612  0.2907 -1.5120
   88SOPE  C213 8309   6.526   5.171   3.834 -0.4216  0.4011  0.4722
   88SOPE  H13R 8310   6.559   5.192   3.939 -1.4362 -1.8877  1.3137
   88SOPE  H13S 8311   6.568   5.075   3.798 -1.2323  1.1283 -2.7218
   88SOPE  C214 8312   6.377   5.134   3.835 -0.0515 -0.2464  0.3894
   88SOPE  H14R 8313   6.361   5.059   3.915 -1.2081  0.7124  1.1025
   88SOPE  H14S 8314   6.343   5.082   3.743 -1.4250  0.1666  0.6464
   88SOPE  C215 8315   6.290   5.251   3.875 -0.6305  0.2382  0.4519
   88SOPE  H15R 8316   6.181   5.234   3.886 -1.0616  1.1230 -1.7584
   88SOPE  H15S 8317   6.297   5.317   3.785 -2.0387 -1.0840 -0.6789
   88SOPE  C216 8318   6.344   5.310   4.011 -0.7543 -0.3156 -0.5072
   88SOPE  H16R 8319   6.280   5.394   4.046  1.2269  0.5814  1.1938
   88SOPE  H16S 8320   6.449   5.345   4.005 -0.2964 -1.7460 -1.4259
   88SOPE  C217 8321   6.344   5.212   4.134  0.5119  0.3662  1.0037
   88SOPE  H17R 8322   6.395   5.116   4.115  2.4291  1.6840 -0.9837
   88SOPE  H17S 8323   6.240   5.177   4.153  0.0928 -0.6252 -2.4689
   88SOPE  C218 8324   6.411   5.277   4.249  0.0949 -0.4454  0.0310
   88SOPE  H18R 8325   6.517   5.244   4.250  0.5058  0.6287  2.8965
   88SOPE  H18S 8326   6.364   5.259   4.348 -1.0555  0.4539 -0.3305
   88SOPE  H18T 8327   6.410   5.388   4.248 -1.0840 -0.3934  1.7133
   88SOPE   C33 8328   7.225   6.190   3.133 -0.1324  0.5314  0.0676
   88SOPE   H3X 8329   7.272   6.283   3.093 -2.6071  1.8675  0.0848
   88SOPE   H3Y 8330   7.291   6.105   3.105  2.0110  1.3639  2.1882
   88SOPE   C34 8331   7.228   6.200   3.289 -0.1397  0.0570 -0.1667
   88SOPE   H4X 8332   7.185   6.108   3.334 -1.4754  0.0576 -1.3778
   88SOPE   H4Y 8333   7.163   6.287   3.313 -0.5354 -1.3117  4.7049
   88SOPE   C35 8334   7.371   6.212   3.352 -0.1285 -0.7398 -0.7845
   88SOPE   H5X 8335   7.439   6.284   3.302 -1.6291  1.2994 -0.0236
   88SOPE   H5Y 8336   7.436   6.122   3.349  1.2230  0.2290 -2.4431
   88SOPE   C36 8337   7.362   6.265   3.502 -0.6775 -0.2973  0.2712
   88SOPE   H6X 8338   7.291   6.349   3.493 -0.1579 -0.0369 -1.8465
   88SOPE   H6Y 8339   7.459   6.301   3.541 -1.5601  1.3766  1.0015
   88SOPE   C37 8340   7.291   6.157   3.588 -0.3078 -0.3672 -0.4516
   88SOPE   H7X 8341   7.352   6.065   3.576 -2.1527 -1.7169  0.1010
   88SOPE   H7Y 8342   7.185   6.142   3.558 -1.0570  3.3457 -0.1211
   88SOPE   C38 8343   7.285   6.186   3.735  0.0395 -0.5799  0.2286
   88SOPE   H8X 8344   7.207   6.261   3.760 -1.1000 -2.3597  2.4416
   88SOPE   H8Y 8345   7.389   6.215   3.761  0.8423 -1.6682 -1.5572
   88SOPE   C39 8346   7.241   6.062   3.818 -0.2894  0.1906 -0.5031
   88SOPE   H9X 8347   7.309   5.976   3.805 -2.6425 -2.0501  0.9910
   88SOPE   H9Y 8348   7.149   6.023   3.770 -0.8818  2.2022 -1.1141
   88SOPE  C310 8349   7.209   6.096   3.964  0.0182 -0.4121  0.1645
   88SOPE  H10X 8350   7.144   6.186   3.968 -0.5438 -0.5521 -3.1319
   88SOPE  H10Y 8351   7.307   6.117   4.012 -0.6283  0.9136  0.9446
   88SOPE  C311 8352   7.135   5.981   4.037 -0.5110 -0.9397 -0.0395
   88SOPE  H11X 8353   7.216   5.907   4.055  0.0339  0.0293  1.7328
   88SOPE  H11Y 8354   7.054   5.938   3.976 -1.0845  0.2139 -0.1230
   88SOPE  C312 8355   7.066   6.039   4.164  1.1184  0.2503 -0.4254
   88SOPE  H12X 8356   6.986   6.113   4.142  1.2597  0.5086 -0.0812
   88SOPE  H12Y 8357   7.140   6.105   4.215 -0.1387  0.3943  1.2880
   88SOPE  C313 8358   7.007   5.928   4.249 -0.8087 -0.0156 -0.6964
   88SOPE  H13X 8359   6.949   5.858   4.186  1.3114 -1.4418 -1.1870
   88SOPE  H13Y 8360   6.935   5.968   4.323 -1.3319 -0.8819 -0.7260
   88SOPE  C314 8361   7.124   5.865   4.334  0.3168 -0.1812  0.0696
   88SOPE  H14X 8362   7.145   5.948   4.406  0.2377  1.2805 -1.5346
   88SOPE  H14Y 8363   7.199   5.853   4.253  0.8405  1.9794  0.1619
   88SOPE  C315 8364   7.077   5.735   4.396  0.2112  0.3056 -0.7953
   88SOPE  H15X 8365   7.028   5.674   4.317 -0.4985 -0.5951  0.3085
   88SOPE  H15Y 8366   7.003   5.758   4.476  0.1391  0.4586 -0.9059
   88SOPE  C316 8367   7.179   5.632   4.446 -0.5608 -0.9824  0.4086
   88SOPE  H16X 8368   7.235   5.590   4.360  0.3330  0.9747 -0.0164
   88SOPE  H16Y 8369   7.119   5.550   4.491 -0.6376 -1.7146 -0.9828
   88SOPE  C317 8370   7.282   5.672   4.542  0.0345 -0.0588 -0.1073
   88SOPE  H17X 8371   7.223   5.710   4.628 -0.2051 -3.0496  1.1793
   88SOPE  H17Y 8372   7.334   5.755   4.489  0.1869 -1.2817 -1.9756
   88SOPE  C318 8373   7.367   5.553   4.583  0.3788 -0.0123  0.6528
   88SOPE  H18X 8374   7.309   5.459   4.593 -2.0029  1.2558 -0.2959
   88SOPE  H18Y 8375   7.422   5.577   4.677 -0.2057  1.1378  0.7176
   88SOPE  H18Z 8376   7.443   5.533   4.505  0.0669  0.3725  0.2458
   89SAPC     N 8377   5.048   3.304   6.627 -0.1760  0.1404  0.7269
   89SAPC   C12 8378   5.121   3.175   6.658  0.6551 -0.5364  0.0805
   89SAPC  H12A 8379   5.201   3.165   6.586  2.2153  0.3449  1.6088
   89SAPC  H12B 8380   5.052   3.093   6.646 -2.3903  1.8395  0.1210
   89SAPC   C13 8381   4.930   3.312   6.714  0.4214 -0.1593 -0.0179
   89SAPC  H13A 8382   4.959   3.311   6.818  0.7823  0.7290 -0.1008
   89SAPC  H13B 8383   4.866   3.398   6.700 -0.7985 -0.7746  1.4956
   89SAPC  H13C 8384   4.861   3.229   6.706 -0.0250  0.1605  0.4343
   89SAPC   C14 8385   5.138   3.426   6.660  0.3805 -0.1385 -0.1463
   89SAPC  H14A 8386   5.162   3.421   6.765  0.5422  0.9241 -0.1141
   89SAPC  H14B 8387   5.232   3.427   6.607  1.6264  1.3693  1.9003
   89SAPC  H14C 8388   5.083   3.517   6.641  2.2324  0.6042 -2.4122
   89SAPC   C15 8389   5.002   3.312   6.487 -0.3168  0.2099 -0.4368
   89SAPC  H15A 8390   4.922   3.244   6.462  0.9213 -1.6352  0.4330
   89SAPC  H15B 8391   4.953   3.408   6.476 -2.0960 -0.5238  0.7466
   89SAPC  H15C 8392   5.081   3.292   6.416  0.4960  1.9080 -0.0661
   89SAPC   C11 8393   5.176   3.157   6.807  0.4080  0.8654 -0.3972
   89SAPC  H11A 8394   5.095   3.171   6.881  0.0962 -0.3070 -0.5024
   89SAPC  H11B 8395   5.247   3.239   6.832  1.2425 -0.2315  1.0049
   89SAPC     P 8396   5.369   2.988   6.754  0.2792 -0.3446 -0.1182
   89SAPC   O13 8397   5.459   3.108   6.779 -0.0412 -0.0450  0.2513
   89SAPC   O14 8398   5.422   2.857   6.800  0.9392  0.0968  0.8081
   89SAPC   O12 8399   5.233   3.024   6.835 -0.1637 -0.1963  0.0149
   89SAPC   O11 8400   5.323   2.982   6.605  0.3921 -0.1991  0.2504
   89SAPC    C1 8401   5.250   2.862   6.561  0.1601 -0.3873  0.2644
   89SAPC    HA 8402   5.195   2.813   6.645 -0.9864 -1.5340 -1.1124
   89SAPC    HB 8403   5.175   2.897   6.488  1.1079 -0.6868 -0.8790
   89SAPC    C2 8404   5.332   2.760   6.482  0.1812  0.3097  0.3736
   89SAPC    HS 8405   5.421   2.733   6.544  1.4034  1.0264 -0.9919
   89SAPC   O21 8406   5.371   2.804   6.352 -0.0749  0.1089  0.1061
   89SAPC   C21 8407   5.470   2.884   6.344 -0.6095 -0.1627  0.1491
   89SAPC   O22 8408   5.543   2.917   6.436 -0.2847  0.0393  0.3615
   89SAPC   C22 8409   5.480   2.928   6.198 -0.3548 -0.3057  0.2591
   89SAPC   H2R 8410   5.384   2.949   6.148  1.0989  0.6031 -2.3430
   89SAPC   H2S 8411   5.538   3.022   6.207  0.4586 -0.9529  2.6519
   89SAPC    C3 8412   5.248   2.630   6.467 -0.4765 -0.5009 -0.2173
   89SAPC    HX 8413   5.145   2.647   6.429 -0.7277 -0.4863  0.4619
   89SAPC    HY 8414   5.245   2.586   6.569 -0.4595  0.8267  0.3758
   89SAPC   O31 8415   5.315   2.532   6.382  0.2980  0.3529  0.1448
   89SAPC   C31 8416   5.255   2.513   6.268  0.0828 -0.3002 -0.4825
   89SAPC   O32 8417   5.159   2.575   6.224 -0.1990  0.4926 -0.1794
   89SAPC   C32 8418   5.310   2.382   6.205 -0.2033  0.1621 -0.6553
   89SAPC   H2X 8419   5.217   2.325   6.182 -0.3443  0.2082 -0.2034
   89SAPC   H2Y 8420   5.374   2.338   6.284  0.5695 -1.2120 -1.9873
   89SAPC   C23 8421   5.565   2.828   6.113  0.0752 -0.3485 -0.4449
   89SAPC   H3R 8422   5.523   2.725   6.112 -1.1441  0.1413 -0.7591
   89SAPC   H3S 8423   5.662   2.823   6.168 -0.5272 -1.3491  0.5828
   89SAPC   C24 8424   5.591   2.883   5.977  0.1944 -0.1869  0.4064
   89SAPC   H4R 8425   5.594   2.994   5.977 -1.9566 -0.0359 -1.9346
   89SAPC   H4S 8426   5.499   2.865   5.916  0.2120 -0.5626  0.4880
   89SAPC   C25 8427   5.708   2.822   5.906 -0.0808  0.0337 -0.1242
   89SAPC   H5R 8428   5.794   2.803   5.971  0.1244 -0.9206 -0.6567
   89SAPC   C26 8429   5.728   2.779   5.779  0.5051 -0.7841 -0.2388
   89SAPC   H6R 8430   5.825   2.735   5.754  1.4224  0.1796  1.4003
   89SAPC   C27 8431   5.629   2.798   5.661 -0.3343  0.4275 -0.0659
   89SAPC   H7R 8432   5.533   2.851   5.684 -0.5198  0.3588 -0.6626
   89SAPC   H7S 8433   5.611   2.702   5.608  0.3522 -0.3052  0.9983
   89SAPC   C28 8434   5.704   2.880   5.554  0.1134 -0.1176  0.0036
   89SAPC   H8R 8435   5.759   2.967   5.592  0.1695  0.4502 -1.3424
   89SAPC   C29 8436   5.712   2.854   5.422  1.0622 -0.5404 -0.0778
   89SAPC   H9R 8437   5.765   2.924   5.355 -1.9752  0.9317 -1.1447
   89SAPC  C210 8438   5.664   2.733   5.345 -0.8730 -0.9010 -0.1690
   89SAPC  H10R 8439   5.641   2.644   5.407  1.3679 -1.4164  0.0167
   89SAPC  H10S 8440   5.755   2.694   5.293  0.9293 -1.4880  3.1217
   89SAPC  C211 8441   5.562   2.781   5.244 -0.7430 -0.2059  0.6409
   89SAPC  H11R 8442   5.459   2.789   5.281 -1.8780  0.6088 -2.4111
   89SAPC  C212 8443   5.579   2.818   5.115  0.0997  0.9752 -0.8955
   89SAPC  H12R 8444   5.485   2.830   5.058 -0.1421 -0.0976 -0.7429
   89SAPC  C213 8445   5.702   2.826   5.032  0.5284  0.7855  0.2397
   89SAPC  H13R 8446   5.797   2.826   5.090  1.7286 -3.4289 -1.3548
   89SAPC  H13S 8447   5.690   2.912   4.963 -2.8304 -0.9462 -1.5797
   89SAPC  C214 8448   5.713   2.702   4.941 -1.0026 -0.8948 -0.3913
   89SAPC  H14R 8449   5.699   2.606   4.994 -2.7535 -0.6374 -0.3111
   89SAPC  C215 8450   5.725   2.705   4.812  0.2794  0.6116  0.2594
   89SAPC  H15R 8451   5.742   2.614   4.755 -1.1696  0.6607 -0.3042
   89SAPC  C216 8452   5.753   2.823   4.726 -0.0841  0.5463  0.3603
   89SAPC  H16R 8453   5.853   2.815   4.679 -0.7167 -0.2916 -0.8954
   89SAPC  H16S 8454   5.755   2.921   4.779  1.0884  1.7242 -1.7521
   89SAPC  C217 8455   5.657   2.847   4.609 -0.4991  0.2293 -0.2140
   89SAPC  H17R 8456   5.664   2.747   4.561  0.7486 -0.8503  2.0268
   89SAPC  H17S 8457   5.699   2.932   4.552  0.8225  0.4308  1.0011
   89SAPC  C218 8458   5.512   2.874   4.644 -0.3219  0.2775  0.5459
   89SAPC  H18R 8459   5.478   2.786   4.702  0.7572 -0.9188 -0.5765
   89SAPC  H18S 8460   5.450   2.883   4.552  1.4168  2.9232 -0.5082
   89SAPC  C219 8461   5.490   3.000   4.736 -0.4349  0.7744  0.2294
   89SAPC  H19R 8462   5.524   2.971   4.838 -1.9703 -2.2649  0.0100
   89SAPC  H19S 8463   5.380   3.001   4.753 -0.3554 -1.4312  1.2917
   89SAPC  C220 8464   5.547   3.139   4.693 -0.9800  0.2816 -0.1844
   89SAPC  H20R 8465   5.538   3.201   4.786  0.7547  2.1023 -1.1602
   89SAPC  H20S 8466   5.498   3.183   4.604  0.5062 -0.2809 -1.3181
   89SAPC  H20T 8467   5.654   3.137   4.665 -0.3713  2.3073  1.6711
   89SAPC   C33 8468   5.402   2.407   6.081 -0.3046 -0.5611  0.6489
   89SAPC   H3X 8469   5.439   2.310   6.044  3.6100  0.9990  0.0010
   89SAPC   H3Y 8470   5.486   2.475   6.108 -1.9294  1.2631  1.4515
   89SAPC   C34 8471   5.325   2.469   5.967 -0.1320  0.0836  0.4885
   89SAPC   H4X 8472   5.287   2.569   5.998 -0.9904 -0.6067  1.7541
   89SAPC   H4Y 8473   5.237   2.416   5.926  0.0362 -0.2156  0.5078
   89SAPC   C35 8474   5.403   2.489   5.832 -0.3648 -0.3190 -0.4288
   89SAPC   H5X 8475   5.501   2.531   5.863  0.6599 -2.4307 -0.6281
   89SAPC   H5Y 8476   5.358   2.570   5.770  1.1367  0.6692 -0.2890
   89SAPC   C36 8477   5.416   2.356   5.753  0.0996 -0.0714 -0.0558
   89SAPC   H6X 8478   5.323   2.296   5.743 -0.0018  0.1417 -0.3764
   89SAPC   H6Y 8479   5.494   2.290   5.797  0.3096 -1.9038 -2.9398
   89SAPC   C37 8480   5.464   2.380   5.608  0.4463  0.6884 -0.1877
   89SAPC   H7X 8481   5.531   2.294   5.590 -2.4237 -1.7160 -0.0932
   89SAPC   H7Y 8482   5.519   2.475   5.591  0.5515  0.6715  0.0507
   89SAPC   C38 8483   5.358   2.353   5.502  0.9890 -0.0633 -0.2885
   89SAPC   H8X 8484   5.266   2.383   5.555  2.2744  0.2989  1.8837
   89SAPC   H8Y 8485   5.345   2.245   5.480  2.2451 -0.6315  1.4991
   89SAPC   C39 8486   5.369   2.429   5.374 -0.7648 -0.8239  0.4735
   89SAPC   H9X 8487   5.373   2.537   5.400  0.7791 -1.0096  1.1167
   89SAPC   H9Y 8488   5.270   2.407   5.329 -0.2364 -3.2045  0.3383
   89SAPC  C310 8489   5.477   2.387   5.280  0.0439 -0.5418  0.1756
   89SAPC  H10X 8490   5.474   2.276   5.281  0.2519 -0.5466  1.1079
   89SAPC  H10Y 8491   5.570   2.431   5.324 -1.0347  3.7234 -1.3086
   89SAPC  C311 8492   5.460   2.444   5.134 -0.7625 -0.3906 -0.3200
   89SAPC  H11X 8493   5.487   2.551   5.147 -1.7529 -0.1632 -0.0360
   89SAPC  H11Y 8494   5.355   2.434   5.100 -0.4043 -0.6184 -1.4018
   89SAPC  C312 8495   5.542   2.375   5.027  0.1456  0.3227  0.1180
   89SAPC  H12X 8496   5.513   2.268   5.021 -0.4016  0.5053 -0.5395
   89SAPC  H12Y 8497   5.650   2.388   5.051  0.5948 -0.3978 -1.4126
   89SAPC  C313 8498   5.513   2.439   4.883 -0.2387  0.0289 -0.1363
   89SAPC  H13X 8499   5.601   2.426   4.816 -0.0793 -0.3430  0.1408
   89SAPC  H13Y 8500   5.493   2.546   4.903 -1.4418 -0.0219 -0.9755
   89SAPC  C314 8501   5.387   2.394   4.803  0.4217  0.5224 -0.1142
   89SAPC  H14X 8502   5.290   2.403   4.857  0.5393 -0.1445  0.2137
   89SAPC  H14Y 8503   5.407   2.287   4.781 -1.1161  0.0652  0.5840
   89SAPC  C315 8504   5.368   2.486   4.678 -0.6776 -0.4462  0.0237
   89SAPC  H15X 8505   5.470   2.506   4.639  0.3576  2.7221  3.6407
   89SAPC  H15Y 8506   5.342   2.585   4.722  1.8002  0.5053 -0.4523
   89SAPC  C316 8507   5.281   2.424   4.576  0.1816 -0.0839 -0.4481
   89SAPC  H16X 8508   5.205   2.366   4.633  1.2249  1.7703  3.0991
   89SAPC  H16Y 8509   5.348   2.357   4.518  0.1370  0.0529 -0.6609
   89SAPC  C317 8510   5.225   2.530   4.483  0.1198  0.3578  0.5061
   89SAPC  H17X 8511   5.157   2.586   4.550  1.2165 -1.0515  2.9646
   89SAPC  H17Y 8512   5.159   2.471   4.416 -0.8029  0.6003  1.1867
   89SAPC  C318 8513   5.334   2.606   4.403 -0.3026 -0.1400 -0.2206
   89SAPC  H18X 8514   5.388   2.525   4.350 -3.0258 -0.5457 -2.6729
   89SAPC  H18Y 8515   5.403   2.662   4.470 -0.4705 -3.4322  3.0424
   89SAPC  H18Z 8516   5.297   2.680   4.329  2.2601 -0.6929 -2.1704
   90SAPC     N 8517   4.994   4.518   6.986  0.4283 -0.6749  0.7728
   90SAPC   C12 8518   5.001   4.487   6.840 -0.0493 -0.3612 -0.0943
   90SAPC  H12A 8519   4.897   4.488   6.814 -0.1533 -0.3076  0.3162
   90SAPC  H12B 8520   5.044   4.389   6.829 -0.4060 -0.3286 -1.9223
   90SAPC   C13 8521   4.927   4.409   7.063 -0.1066 -0.0703  0.4412
   90SAPC  H13A 8522   4.984   4.319   7.044 -0.4862  0.4635 -4.2869
   90SAPC  H13B 8523   4.925   4.425   7.170  0.5131  0.7182  0.3356
   90SAPC  H13C 8524   4.820   4.401   7.049 -0.3524  0.7719  1.6930
   90SAPC   C14 8525   5.134   4.523   7.040 -0.4976 -0.4868 -0.4774
   90SAPC  H14A 8526   5.141   4.543   7.146 -1.6508  4.0830 -1.0554
   90SAPC  H14B 8527   5.185   4.428   7.031  1.8723  0.6042  0.5865
   90SAPC  H14C 8528   5.189   4.600   6.987  0.3404  0.3021  1.4623
   90SAPC   C15 8529   4.922   4.644   7.016 -0.0597  0.4029  0.4613
   90SAPC  H15A 8530   4.913   4.662   7.122 -1.2872  1.8174  0.1462
   90SAPC  H15B 8531   4.970   4.728   6.969 -0.0487  0.5747  0.7746
   90SAPC  H15C 8532   4.824   4.646   6.971 -0.0669 -0.9301  0.3645
   90SAPC   C11 8533   5.066   4.586   6.740 -0.3905 -0.0883 -0.5103
   90SAPC  H11A 8534   5.071   4.546   6.637 -0.3714 -0.3097 -0.4237
   90SAPC  H11B 8535   5.168   4.602   6.781 -0.5538 -0.4888  0.0687
   90SAPC     P 8536   4.869   4.752   6.675 -0.4147 -0.3473  0.6317
   90SAPC   O13 8537   4.805   4.628   6.629 -0.0077 -0.3857  0.0199
   90SAPC   O14 8538   4.798   4.844   6.758 -0.5005  0.1401  0.5593
   90SAPC   O12 8539   4.999   4.713   6.744 -0.1218 -0.1115 -0.1916
   90SAPC   O11 8540   4.923   4.816   6.543  0.0147 -0.3421  0.0528
   90SAPC    C1 8541   5.018   4.928   6.546 -0.0690 -0.6564  0.4272
   90SAPC    HA 8542   5.005   4.995   6.634 -0.4287  0.3323 -0.3607
   90SAPC    HB 8543   5.122   4.893   6.562  0.6988  0.5041 -1.6132
   90SAPC    C2 8544   5.009   5.012   6.410 -0.0437  0.4202  0.0827
   90SAPC    HS 8545   4.923   5.082   6.420 -1.4343 -1.4628  2.7380
   90SAPC   O21 8546   4.986   4.929   6.288 -0.0601 -0.1734 -0.0197
   90SAPC   C21 8547   4.931   4.987   6.187  0.4922  0.0525  0.6681
   90SAPC   O22 8548   4.896   5.108   6.193 -0.2550  0.7520  0.1608
   90SAPC   C22 8549   4.916   4.882   6.071 -0.4746 -0.4985  0.7365
   90SAPC   H2R 8550   5.016   4.837   6.059 -0.4347 -0.2596  0.1760
   90SAPC   H2S 8551   4.843   4.805   6.103  1.4345 -2.9420 -0.5392
   90SAPC    C3 8552   5.144   5.079   6.391 -0.4160  0.0279 -0.6512
   90SAPC    HX 8553   5.210   5.016   6.328  2.4874  1.7353  0.4554
   90SAPC    HY 8554   5.190   5.092   6.491 -1.1196 -0.3536 -0.2774
   90SAPC   O31 8555   5.131   5.215   6.337  0.5319 -0.5753 -0.4747
   90SAPC   C31 8556   5.248   5.263   6.312 -0.2421 -0.8332  0.1084
   90SAPC   O32 8557   5.349   5.201   6.334 -0.2755 -0.0944  0.0519
   90SAPC   C32 8558   5.226   5.403   6.255 -0.2072 -0.1405  0.5218
   90SAPC   H2X 8559   5.177   5.463   6.335 -1.0550 -0.2591  0.1030
   90SAPC   H2Y 8560   5.151   5.398   6.173 -1.5702  1.4407  1.6200
   90SAPC   C23 8561   4.861   4.941   5.937  0.0573  0.0070 -0.5054
   90SAPC   H3R 8562   4.930   5.018   5.896 -0.7453  0.2350 -1.4701
   90SAPC   H3S 8563   4.765   4.989   5.966  1.5262  2.5990  0.4201
   90SAPC   C24 8564   4.822   4.839   5.833 -0.3764  0.5525 -0.5846
   90SAPC   H4R 8565   4.742   4.876   5.765 -0.1556  0.5185 -0.8668
   90SAPC   H4S 8566   4.777   4.758   5.893 -0.4787 -0.1086 -1.5315
   90SAPC   C25 8567   4.940   4.790   5.759 -0.5056 -0.5287  0.9058
   90SAPC   H5R 8568   5.012   4.726   5.811  0.5438  0.0335  0.1941
   90SAPC   C26 8569   4.970   4.814   5.630  0.0882  0.2076  0.3668
   90SAPC   H6R 8570   5.062   4.765   5.592 -0.5142  0.0432 -0.9261
   90SAPC   C27 8571   4.885   4.897   5.543 -0.1949 -0.1034  0.1631
   90SAPC   H7R 8572   4.953   4.921   5.459  1.5200 -1.1828  1.1892
   90SAPC   H7S 8573   4.845   4.991   5.588 -0.3737  0.8131 -1.7839
   90SAPC   C28 8574   4.765   4.820   5.489 -0.5885  0.4724 -0.1300
   90SAPC   H8R 8575   4.721   4.745   5.556 -0.5120 -0.0095 -0.6168
   90SAPC   C29 8576   4.706   4.821   5.372  0.2397 -0.3889  0.2387
   90SAPC   H9R 8577   4.618   4.756   5.361  0.0459  0.1891 -2.3249
   90SAPC  C210 8578   4.735   4.892   5.243  0.6470 -0.3486 -0.2043
   90SAPC  H10R 8579   4.753   4.821   5.159  0.3460  0.3065 -0.8399
   90SAPC  H10S 8580   4.835   4.938   5.253 -0.4039  2.6008 -2.0411
   90SAPC  C211 8581   4.634   5.002   5.230 -0.1830 -0.3648  0.2028
   90SAPC  H11R 8582   4.594   5.036   5.327  0.2659  0.1188  0.2194
   90SAPC  C212 8583   4.568   5.031   5.118 -0.3596 -0.1827 -0.8149
   90SAPC  H12R 8584   4.486   5.105   5.120 -0.0413  0.2129  2.0022
   90SAPC  C213 8585   4.598   4.980   4.981  0.0531 -0.0412  0.2488
   90SAPC  H13R 8586   4.597   4.869   4.983 -3.8584 -0.1277  1.3350
   90SAPC  H13S 8587   4.705   5.001   4.960  0.3841 -2.8519 -1.4335
   90SAPC  C214 8588   4.510   5.023   4.860 -0.3162  0.6277  0.1490
   90SAPC  H14R 8589   4.421   5.084   4.881  0.7065  2.3561 -0.3626
   90SAPC  C215 8590   4.530   4.979   4.732 -0.1844 -0.4042 -0.0026
   90SAPC  H15R 8591   4.473   5.024   4.649  2.1782  2.6988 -0.1574
   90SAPC  C216 8592   4.647   4.889   4.682 -0.0130  0.0818  0.3075
   90SAPC  H16R 8593   4.602   4.800   4.634 -0.7039  0.1119  0.8823
   90SAPC  H16S 8594   4.724   4.863   4.758  1.0144  2.2377  0.0910
   90SAPC  C217 8595   4.714   4.968   4.567  0.1887 -0.2773 -0.3504
   90SAPC  H17R 8596   4.758   5.062   4.606 -0.4544 -1.1800  2.8391
   90SAPC  H17S 8597   4.632   5.004   4.502 -0.1025  1.4014  0.8717
   90SAPC  C218 8598   4.820   4.894   4.482 -0.2659 -0.4477  0.1153
   90SAPC  H18R 8599   4.780   4.790   4.473 -0.9913 -0.2828  1.2482
   90SAPC  H18S 8600   4.917   4.898   4.536  0.5553  0.2015 -1.3604
   90SAPC  C219 8601   4.834   4.959   4.348  0.6600 -0.3077  0.7802
   90SAPC  H19R 8602   4.737   4.966   4.295  0.8843 -0.9359  0.2627
   90SAPC  H19S 8603   4.893   4.891   4.282 -0.5562 -0.0820 -0.5885
   90SAPC  C220 8604   4.920   5.084   4.339 -0.0042 -0.0534 -0.5639
   90SAPC  H20R 8605   5.024   5.050   4.359 -1.0658 -4.6840 -1.8775
   90SAPC  H20S 8606   4.883   5.164   4.408 -0.5040  0.4692 -1.4248
   90SAPC  H20T 8607   4.918   5.125   4.236 -1.9555 -1.8052 -1.2958
   90SAPC   C33 8608   5.353   5.479   6.209 -0.0359 -0.5886 -0.0955
   90SAPC   H3X 8609   5.426   5.483   6.292 -2.4263  2.0267  2.1027
   90SAPC   H3Y 8610   5.329   5.586   6.187  0.7404 -0.3231  0.3290
   90SAPC   C34 8611   5.410   5.417   6.078  0.1563  0.5967  0.1468
   90SAPC   H4X 8612   5.403   5.306   6.069  0.0197  0.5753  0.4924
   90SAPC   H4Y 8613   5.519   5.435   6.082  0.3449 -0.5099  0.4010
   90SAPC   C35 8614   5.346   5.472   5.945 -0.3086  0.0085  0.7671
   90SAPC   H5X 8615   5.334   5.582   5.955  0.1357 -0.0086  1.5714
   90SAPC   H5Y 8616   5.244   5.435   5.924  0.1899 -0.4018 -1.0873
   90SAPC   C36 8617   5.429   5.446   5.821  0.0386 -0.4220  0.0978
   90SAPC   H6X 8618   5.433   5.335   5.810 -0.3740 -0.4085 -0.1961
   90SAPC   H6Y 8619   5.533   5.486   5.829 -0.6295  0.9908  3.2701
   90SAPC   C37 8620   5.369   5.507   5.692  0.1092  0.1341  0.2876
   90SAPC   H7X 8621   5.260   5.491   5.685  0.2780 -1.1019  0.2898
   90SAPC   H7Y 8622   5.418   5.447   5.613 -2.0627  0.1800 -1.1589
   90SAPC   C38 8623   5.388   5.658   5.660  0.2459  0.6682  0.1715
   90SAPC   H8X 8624   5.495   5.680   5.641  0.4325 -1.4561 -1.6088
   90SAPC   H8Y 8625   5.351   5.715   5.748 -2.2674 -1.2528  0.5025
   90SAPC   C39 8626   5.316   5.719   5.539 -0.3352 -0.2377 -0.5481
   90SAPC   H9X 8627   5.349   5.825   5.538 -1.8853  0.2835  0.3897
   90SAPC   H9Y 8628   5.212   5.725   5.576 -0.2426 -0.9344 -0.1522
   90SAPC  C310 8629   5.325   5.634   5.420  0.1760 -0.2163  0.0816
   90SAPC  H10X 8630   5.289   5.529   5.429 -1.1501  0.2094 -0.0842
   90SAPC  H10Y 8631   5.432   5.624   5.392  0.5034 -0.1362  1.2652
   90SAPC  C311 8632   5.241   5.688   5.298  0.6443 -0.1458 -0.6473
   90SAPC  H11X 8633   5.254   5.796   5.278  3.5079 -0.2897  0.0636
   90SAPC  H11Y 8634   5.135   5.667   5.323  0.5133  2.1734  1.0301
   90SAPC  C312 8635   5.282   5.615   5.168  0.0940  0.4264 -0.9108
   90SAPC  H12X 8636   5.271   5.509   5.201 -0.7218  0.9831  0.7495
   90SAPC  H12Y 8637   5.392   5.627   5.160  0.6192 -1.4197  2.0718
   90SAPC  C313 8638   5.206   5.657   5.040  0.0459 -0.4072  0.2595
   90SAPC  H13X 8639   5.207   5.767   5.028  0.0021 -0.1567  2.2044
   90SAPC  H13Y 8640   5.099   5.639   5.061 -0.2868  1.5316  0.4100
   90SAPC  C314 8641   5.273   5.599   4.918 -0.3170 -0.0059 -0.0383
   90SAPC  H14X 8642   5.276   5.488   4.919  3.1461 -0.0348  0.6717
   90SAPC  H14Y 8643   5.382   5.620   4.920 -0.0218 -1.3580  2.2276
   90SAPC  C315 8644   5.223   5.656   4.788 -0.5633  0.2463  0.9121
   90SAPC  H15X 8645   5.187   5.758   4.812  1.5241  1.3502 -0.4431
   90SAPC  H15Y 8646   5.135   5.601   4.747  0.3847  0.9607 -2.3418
   90SAPC  C316 8647   5.332   5.662   4.683 -0.1276  0.0237  0.6319
   90SAPC  H16X 8648   5.282   5.686   4.587 -2.0291 -1.2536  1.2409
   90SAPC  H16Y 8649   5.372   5.559   4.667 -0.0919 -0.1008  1.4980
   90SAPC  C317 8650   5.437   5.773   4.705 -0.6876 -0.2267 -0.2291
   90SAPC  H17X 8651   5.498   5.740   4.793  1.4556 -0.0496 -1.5818
   90SAPC  H17Y 8652   5.380   5.864   4.735  2.1673  1.8559 -0.6979
   90SAPC  C318 8653   5.524   5.814   4.597 -0.3270  0.0241  0.1815
   90SAPC  H18X 8654   5.586   5.727   4.566 -0.2873 -0.0351  0.4242
   90SAPC  H18Y 8655   5.598   5.896   4.612 -1.2944  0.8982  0.3104
   90SAPC  H18Z 8656   5.469   5.831   4.502  1.0547 -5.0091 -1.8333
   91SAPC     N 8657   3.655   5.424   6.744 -0.0444 -0.1983  0.6077
   91SAPC   C12 8658   3.700   5.361   6.606 -0.8084  0.0009 -0.1528
   91SAPC  H12A 8659   3.784   5.295   6.617  0.0081  1.0525  0.0069
   91SAPC  H12B 8660   3.729   5.441   6.540  0.6515 -0.6277 -0.2990
   91SAPC   C13 8661   3.766   5.507   6.808 -0.1644  0.0929  0.2391
   91SAPC  H13A 8662   3.764   5.605   6.762 -0.0024  0.5327  1.1551
   91SAPC  H13B 8663   3.749   5.526   6.912  0.8409  1.0767  0.2407
   91SAPC  H13C 8664   3.859   5.458   6.784  0.8217  2.7423 -1.9231
   91SAPC   C14 8665   3.538   5.519   6.733 -0.7565 -0.4486 -0.0803
   91SAPC  H14A 8666   3.453   5.473   6.685 -0.3593  0.1700 -1.4186
   91SAPC  H14B 8667   3.510   5.571   6.824 -0.8812 -0.1821 -0.2677
   91SAPC  H14C 8668   3.575   5.604   6.677  0.6582 -1.7241 -1.1573
   91SAPC   C15 8669   3.624   5.311   6.838 -0.4499 -0.1981  0.3708
   91SAPC  H15A 8670   3.586   5.356   6.928 -3.4896 -0.6665 -0.5733
   91SAPC  H15B 8671   3.543   5.256   6.794  0.7079 -0.5009 -1.5037
   91SAPC  H15C 8672   3.706   5.244   6.856 -1.9173 -2.0279  0.5119
   91SAPC   C11 8673   3.596   5.279   6.533 -1.1405 -0.0931 -0.4904
   91SAPC  H11A 8674   3.567   5.186   6.587 -1.0538 -0.0704 -0.4060
   91SAPC  H11B 8675   3.638   5.233   6.441 -0.6454  1.1563 -0.9100
   91SAPC     P 8676   3.341   5.282   6.451  0.2657 -0.2017  0.3012
   91SAPC   O13 8677   3.302   5.192   6.562  0.1949 -0.1766 -0.2054
   91SAPC   O14 8678   3.242   5.378   6.418  0.0815  0.1215  0.3082
   91SAPC   O12 8679   3.480   5.359   6.504  0.0544 -0.0879 -0.2645
   91SAPC   O11 8680   3.383   5.189   6.326  0.1386 -0.1714 -0.3530
   91SAPC    C1 8681   3.464   5.246   6.219  0.2222  0.2905  0.2743
   91SAPC    HA 8682   3.556   5.296   6.254 -0.7368  1.4414  1.2310
   91SAPC    HB 8683   3.508   5.160   6.164 -1.2848  0.6396 -1.6063
   91SAPC    C2 8684   3.375   5.346   6.134  0.4998  0.1489 -0.1240
   91SAPC    HS 8685   3.364   5.431   6.205 -1.3955  1.0591 -1.4268
   91SAPC   O21 8686   3.245   5.281   6.102 -0.5511  0.3991 -0.2392
   91SAPC   C21 8687   3.143   5.373   6.095 -0.6390  0.0032  0.5832
   91SAPC   O22 8688   3.157   5.493   6.106 -0.2970 -0.2437  0.1332
   91SAPC   C22 8689   3.009   5.307   6.052  0.6644 -0.0221 -0.7067
   91SAPC   H2R 8690   3.020   5.197   6.043  0.1466 -0.0587 -0.8959
   91SAPC   H2S 8691   2.944   5.318   6.140  2.0103  1.6955  0.1444
   91SAPC    C3 8692   3.430   5.408   6.009 -0.1395 -0.3493  0.4166
   91SAPC    HX 8693   3.524   5.455   6.045  0.1919 -0.2508 -0.5426
   91SAPC    HY 8694   3.374   5.494   5.966 -0.7439 -0.6701  0.5535
   91SAPC   O31 8695   3.457   5.299   5.913  0.8460  0.0346  0.0655
   91SAPC   C31 8696   3.358   5.271   5.823 -0.0623  0.3463  0.2810
   91SAPC   O32 8697   3.269   5.345   5.785  0.0867 -0.0328 -1.4538
   91SAPC   C32 8698   3.378   5.126   5.770 -0.5940 -0.0959 -0.8487
   91SAPC   H2X 8699   3.414   5.068   5.857 -1.5180  1.0833  0.3594
   91SAPC   H2Y 8700   3.465   5.144   5.703 -0.1539  0.8039 -0.0524
   91SAPC   C23 8701   2.942   5.373   5.937 -0.0386 -0.0589  0.0004
   91SAPC   H3R 8702   3.002   5.374   5.844  0.4470 -0.2275  0.3095
   91SAPC   H3S 8703   2.919   5.479   5.960 -2.0377 -0.3092 -0.6120
   91SAPC   C24 8704   2.811   5.293   5.886 -0.2419 -0.7640 -1.0602
   91SAPC   H4R 8705   2.744   5.357   5.825 -1.6183 -2.5044 -1.4568
   91SAPC   H4S 8706   2.754   5.288   5.981 -1.3553 -2.4997 -1.7669
   91SAPC   C25 8707   2.846   5.165   5.823  0.0585  0.5358 -0.0349
   91SAPC   H5R 8708   2.875   5.085   5.892  0.4315 -1.0272 -1.9243
   91SAPC   C26 8709   2.820   5.137   5.697  0.3715 -0.1557  1.0633
   91SAPC   H6R 8710   2.845   5.037   5.657 -0.0781 -0.0832  0.5798
   91SAPC   C27 8711   2.751   5.225   5.593 -0.6700 -0.4481 -0.4147
   91SAPC   H7R 8712   2.737   5.328   5.634  1.6774  0.2021 -1.0684
   91SAPC   H7S 8713   2.650   5.187   5.567 -1.0090  1.5258 -2.3034
   91SAPC   C28 8714   2.839   5.236   5.475 -0.8779 -0.4659  0.3312
   91SAPC   H8R 8715   2.910   5.155   5.451  0.5408  0.7167  0.3895
   91SAPC   C29 8716   2.831   5.337   5.379  0.9424  0.6964 -0.2871
   91SAPC   H9R 8717   2.911   5.344   5.304  1.8508 -0.3819  0.5398
   91SAPC  C210 8718   2.729   5.443   5.377  0.1963 -0.0878 -0.3192
   91SAPC  H10R 8719   2.686   5.463   5.477 -0.9897 -1.1870 -0.5874
   91SAPC  H10S 8720   2.648   5.399   5.315  1.9810 -2.0516 -1.3998
   91SAPC  C211 8721   2.775   5.576   5.318 -0.5413  0.7549  0.7721
   91SAPC  H11R 8722   2.787   5.663   5.385 -0.5753  1.4257 -0.0652
   91SAPC  C212 8723   2.801   5.593   5.182  0.9588 -0.2963 -0.4170
   91SAPC  H12R 8724   2.832   5.694   5.154  2.3370 -0.7974 -0.7979
   91SAPC  C213 8725   2.798   5.497   5.063  0.3768 -0.0803 -0.3832
   91SAPC  H13R 8726   2.763   5.565   4.982  1.9609  0.4376 -0.6497
   91SAPC  H13S 8727   2.726   5.414   5.084  2.1267 -1.0658  2.2572
   91SAPC  C214 8728   2.934   5.458   5.017 -0.0162 -0.0594  0.4751
   91SAPC  H14R 8729   3.012   5.533   5.037 -0.7640  1.5173 -2.0835
   91SAPC  C215 8730   2.966   5.367   4.923 -0.1795  0.2102 -0.0867
   91SAPC  H15R 8731   3.073   5.351   4.901  0.5248  0.8032  2.4959
   91SAPC  C216 8732   2.873   5.267   4.858  0.2584 -0.2512  0.6366
   91SAPC  H16R 8733   2.907   5.243   4.755 -3.1610 -0.0014 -0.6688
   91SAPC  H16S 8734   2.771   5.309   4.849 -0.7599 -2.6762  0.1576
   91SAPC  C217 8735   2.864   5.136   4.941  0.9373 -0.8506 -0.6319
   91SAPC  H17R 8736   2.769   5.099   4.897  0.5753  0.2500 -0.7906
   91SAPC  H17S 8737   2.832   5.167   5.043  0.0034  0.2038 -1.2283
   91SAPC  C218 8738   2.980   5.038   4.938  0.2057  0.0060  0.5867
   91SAPC  H18R 8739   3.078   5.084   4.963  0.9616 -1.5595  0.6446
   91SAPC  H18S 8740   2.989   4.992   4.838 -0.2614  1.0526  0.0557
   91SAPC  C219 8741   2.949   4.927   5.031  0.1399 -0.5911 -0.1283
   91SAPC  H19R 8742   3.015   4.840   5.011  0.4261 -0.9647  2.2138
   91SAPC  H19S 8743   2.844   4.899   5.006 -0.2836  1.7091 -1.2234
   91SAPC  C220 8744   2.973   4.953   5.180 -0.1069 -0.3776  0.5973
   91SAPC  H20R 8745   2.922   5.050   5.198 -0.5598 -0.5910  0.4877
   91SAPC  H20S 8746   3.082   4.957   5.201 -0.3810  2.1542  1.9399
   91SAPC  H20T 8747   2.918   4.872   5.232  0.2819 -0.9962  0.0652
   91SAPC   C33 8748   3.267   5.055   5.696  0.1333  0.6899 -0.0072
   91SAPC   H3X 8749   3.185   5.034   5.767 -0.0146  1.0732 -0.0569
   91SAPC   H3Y 8750   3.311   4.957   5.670 -0.3305  0.7263 -0.9825
   91SAPC   C34 8751   3.210   5.108   5.566 -0.4480 -0.0564 -0.1274
   91SAPC   H4X 8752   3.136   5.186   5.595 -1.5370 -1.1862  0.2099
   91SAPC   H4Y 8753   3.152   5.028   5.516  0.9883 -0.8302 -0.6078
   91SAPC   C35 8754   3.336   5.163   5.491  0.7072 -0.6950 -0.6742
   91SAPC   H5X 8755   3.419   5.089   5.491 -0.3820 -2.0768  2.6206
   91SAPC   H5Y 8756   3.356   5.265   5.529 -2.0457  0.7167 -2.6458
   91SAPC   C36 8757   3.308   5.186   5.339  0.6796 -0.2299  0.4363
   91SAPC   H6X 8758   3.217   5.251   5.336  0.8213 -0.0812 -1.9051
   91SAPC   H6Y 8759   3.274   5.098   5.281  1.7477  1.2084 -2.5903
   91SAPC   C37 8760   3.414   5.251   5.259  0.2506 -0.1858  0.7388
   91SAPC   H7X 8761   3.511   5.198   5.250 -0.5982 -1.5894 -0.7687
   91SAPC   H7Y 8762   3.431   5.353   5.300 -3.0705  1.2137 -0.9323
   91SAPC   C38 8763   3.375   5.274   5.111 -0.4159 -0.2131 -0.9905
   91SAPC   H8X 8764   3.276   5.321   5.097 -0.4439 -0.2068 -0.7781
   91SAPC   H8Y 8765   3.379   5.176   5.060  0.1170 -0.0525 -1.2685
   91SAPC   C39 8766   3.471   5.364   5.029  0.2385  0.4075  0.5049
   91SAPC   H9X 8767   3.564   5.304   5.023 -0.5965 -1.0391  1.4843
   91SAPC   H9Y 8768   3.497   5.454   5.090 -0.8237 -0.3654  2.1569
   91SAPC  C310 8769   3.418   5.413   4.898 -0.0360 -0.5851  0.6523
   91SAPC  H10X 8770   3.485   5.492   4.859 -0.1231 -1.4707 -1.4954
   91SAPC  H10Y 8771   3.320   5.464   4.909  0.4010  0.3497  0.2988
   91SAPC  C311 8772   3.416   5.296   4.795  0.2613 -0.1400 -0.0077
   91SAPC  H11X 8773   3.352   5.211   4.827  0.1530  0.6685  2.0307
   91SAPC  H11Y 8774   3.518   5.252   4.796 -0.4929 -2.1508 -2.2739
   91SAPC  C312 8775   3.388   5.337   4.652  0.1084 -1.1549 -0.1601
   91SAPC  H12X 8776   3.427   5.257   4.586  3.1643 -0.3795  0.5381
   91SAPC  H12Y 8777   3.463   5.417   4.637 -0.0380 -0.9703  0.0798
   91SAPC  C313 8778   3.239   5.380   4.616 -0.4662  0.0289 -0.1814
   91SAPC  H13X 8779   3.247   5.457   4.536  1.9011  0.4603  0.3941
   91SAPC  H13Y 8780   3.195   5.420   4.710 -0.3161 -1.4962  0.5689
   91SAPC  C314 8781   3.160   5.259   4.566  0.0176 -0.3807 -0.3144
   91SAPC  H14X 8782   3.133   5.194   4.652  0.2185  1.0409  0.8626
   91SAPC  H14Y 8783   3.221   5.206   4.490  1.0616  1.6170 -0.9572
   91SAPC  C315 8784   3.031   5.300   4.501  0.2840 -0.1796  0.5560
   91SAPC  H15X 8785   3.047   5.362   4.410 -0.6661 -0.9825 -0.1863
   91SAPC  H15Y 8786   2.974   5.366   4.570 -0.4682 -0.8295  0.5741
   91SAPC  C316 8787   2.960   5.170   4.459 -0.2673 -0.6255 -0.0404
   91SAPC  H16X 8788   2.937   5.106   4.546  0.0443 -0.1196  0.4145
   91SAPC  H16Y 8789   3.030   5.117   4.391  1.7315  2.9583 -1.0358
   91SAPC  C317 8790   2.827   5.208   4.386 -0.1691  0.2054  0.2938
   91SAPC  H17X 8791   2.857   5.263   4.295  2.4877  1.9481  2.0622
   91SAPC  H17Y 8792   2.773   5.281   4.449 -0.1192  0.7380 -0.2759
   91SAPC  C318 8793   2.744   5.089   4.346  0.1598  0.4083 -0.3804
   91SAPC  H18X 8794   2.801   5.044   4.262 -0.6516  1.0737 -1.3049
   91SAPC  H18Y 8795   2.641   5.124   4.326 -0.2123  0.1373  0.9827
   91SAPC  H18Z 8796   2.741   5.016   4.430 -1.4880 -0.6714 -1.3237
   92SAPC     N 8797   0.245   5.423   6.336  0.3815  0.1396  0.3068
   92SAPC   C12 8798   0.151   5.426   6.213 -0.8741 -0.0206  0.1096
   92SAPC  H12A 8799   0.198   5.363   6.139 -1.8416  1.1382 -1.5488
   92SAPC  H12B 8800   0.154   5.529   6.181 -0.2619 -0.0248  0.1421
   92SAPC   C13 8801   0.376   5.483   6.306  0.0979 -0.3403 -0.1345
   92SAPC  H13A 8802   0.425   5.446   6.217  1.2509 -0.7950  0.6521
   92SAPC  H13B 8803   0.367   5.590   6.304 -1.2377 -0.4059  0.8668
   92SAPC  H13C 8804   0.453   5.476   6.382  1.6095  2.0575 -1.3530
   92SAPC   C14 8805   0.175   5.484   6.452 -0.1886 -0.5609  0.0779
   92SAPC  H14A 8806   0.243   5.476   6.536 -1.5739  1.0031  1.4261
   92SAPC  H14B 8807   0.151   5.587   6.427  1.4947  0.7029  3.1013
   92SAPC  H14C 8808   0.084   5.430   6.470  0.5847 -1.6079  0.9662
   92SAPC   C15 8809   0.267   5.279   6.364 -0.3187 -0.0735 -0.7111
   92SAPC  H15A 8810   0.330   5.231   6.290 -0.7834 -0.8708 -0.6068
   92SAPC  H15B 8811   0.310   5.260   6.461 -1.9590  1.7948  0.4346
   92SAPC  H15C 8812   0.174   5.224   6.362  0.2473 -1.0483 -1.8199
   92SAPC   C11 8813   0.006   5.376   6.224 -0.0382  0.2450  0.1288
   92SAPC  H11A 8814  -0.055   5.402   6.135 -1.9778  0.8088  1.5572
   92SAPC  H11B 8815  -0.046   5.433   6.305  1.5713  1.6191  0.2404
   92SAPC     P 8816  -0.076   5.161   6.352  0.0959 -0.1429  0.0633
   92SAPC   O13 8817  -0.000   5.139   6.480 -0.5876 -0.4928  0.1709
   92SAPC   O14 8818  -0.205   5.233   6.365  0.2108 -0.3271 -0.4951
   92SAPC   O12 8819   0.009   5.236   6.248  0.0469  0.1956  0.0484
   92SAPC   O11 8820  -0.102   5.027   6.273 -0.2412 -0.2813 -0.4751
   92SAPC    C1 8821  -0.198   5.019   6.170 -0.4373  0.3417  0.6403
   92SAPC    HA 8822  -0.228   4.913   6.162  0.8766  0.0677 -1.3345
   92SAPC    HB 8823  -0.284   5.085   6.192 -1.3227  0.2098 -2.0576
   92SAPC    C2 8824  -0.129   5.055   6.039 -0.2773  0.4192  0.1494
   92SAPC    HS 8825  -0.093   5.160   6.050  1.3504 -0.3300  3.1921
   92SAPC   O21 8826  -0.215   5.033   5.923  0.1757 -0.2381 -0.5933
   92SAPC   C21 8827  -0.316   5.120   5.910  0.6457  0.1097 -0.2227
   92SAPC   O22 8828  -0.338   5.213   5.985  0.0611  0.4663 -0.1509
   92SAPC   C22 8829  -0.397   5.082   5.795  0.0316  0.0457 -0.6472
   92SAPC   H2R 8830  -0.349   5.098   5.696 -1.5914 -1.0863 -1.6705
   92SAPC   H2S 8831  -0.404   4.971   5.803  0.8300  0.0928  0.9045
   92SAPC    C3 8832   0.009   4.976   6.029  0.5237 -0.4870  0.3821
   92SAPC    HX 8833  -0.028   4.872   6.020 -3.1910  0.7902 -1.2258
   92SAPC    HY 8834   0.069   4.993   6.121  1.2182 -2.2076  0.2655
   92SAPC   O31 8835   0.084   5.016   5.910 -0.5940 -0.0755 -0.1888
   92SAPC   C31 8836   0.173   5.115   5.911  0.5120 -0.1698  0.2993
   92SAPC   O32 8837   0.216   5.177   6.010 -0.3886 -0.1925  0.5108
   92SAPC   C32 8838   0.217   5.148   5.761 -0.1637  0.0613  0.2385
   92SAPC   H2X 8839   0.250   5.055   5.710 -0.8530 -0.2187  0.2949
   92SAPC   H2Y 8840   0.298   5.223   5.773 -1.0192  0.8667  1.1731
   92SAPC   C23 8841  -0.537   5.146   5.781  0.7002 -0.4876  0.5062
   92SAPC   H3R 8842  -0.589   5.156   5.879  0.1598  5.6558  0.0078
   92SAPC   H3S 8843  -0.600   5.092   5.707  1.0806  0.5314 -0.5907
   92SAPC   C24 8844  -0.539   5.303   5.757 -0.2968 -0.0275  0.1731
   92SAPC   H4R 8845  -0.501   5.343   5.854 -1.0817 -0.3697  0.6326
   92SAPC   H4S 8846  -0.643   5.343   5.760 -0.9409 -1.6850  0.8575
   92SAPC   C25 8847  -0.461   5.324   5.633 -0.5892 -0.0911  0.1241
   92SAPC   H5R 8848  -0.360   5.363   5.647  0.1902 -1.9603 -0.0605
   92SAPC   C26 8849  -0.494   5.303   5.502  0.0353 -0.2713  0.3625
   92SAPC   H6R 8850  -0.417   5.317   5.424 -0.8752  4.0458  0.0031
   92SAPC   C27 8851  -0.633   5.261   5.459  0.3318 -0.0412  0.2560
   92SAPC   H7R 8852  -0.667   5.339   5.387 -1.1544  0.1213  1.0994
   92SAPC   H7S 8853  -0.707   5.256   5.541 -0.5964  1.3471 -0.4375
   92SAPC   C28 8854  -0.637   5.118   5.403 -0.1188 -0.7673 -0.3801
   92SAPC   H8R 8855  -0.589   5.050   5.475  0.4134  0.4737  0.4899
   92SAPC   C29 8856  -0.667   5.087   5.279 -0.0275 -0.0081 -0.3198
   92SAPC   H9R 8857  -0.641   4.988   5.237  1.2235  1.1442 -2.4356
   92SAPC  C210 8858  -0.739   5.174   5.182 -0.1079 -0.6319  0.4491
   92SAPC  H10R 8859  -0.688   5.167   5.083 -0.8183 -1.2470  0.1235
   92SAPC  H10S 8860  -0.735   5.282   5.209 -3.2615 -0.8796  2.3982
   92SAPC  C211 8861  -0.882   5.128   5.180  0.1137  0.1704 -0.2716
   92SAPC  H11R 8862  -0.941   5.150   5.271 -2.0068  1.1272 -1.8034
   92SAPC  C212 8863  -0.954   5.065   5.083  0.1447  0.3208  0.8218
   92SAPC  H12R 8864  -1.058   5.032   5.100  0.3829 -0.2591  1.1935
   92SAPC  C213 8865  -0.902   5.020   4.945  0.1036 -0.1951 -0.3170
   92SAPC  H13R 8866  -0.954   4.928   4.910  2.1795 -1.8372  0.7226
   92SAPC  H13S 8867  -0.798   4.981   4.954  0.5020  0.9921  0.4326
   92SAPC  C214 8868  -0.897   5.127   4.840 -0.2505  0.0875 -0.1700
   92SAPC  H14R 8869  -0.884   5.228   4.882 -2.1143 -1.0756  3.7669
   92SAPC  C215 8870  -0.890   5.102   4.704  0.2494  0.1347 -0.4719
   92SAPC  H15R 8871  -0.884   5.184   4.631  0.5707  0.0625 -0.5277
   92SAPC  C216 8872  -0.879   4.973   4.630 -0.3345  0.3340  0.4587
   92SAPC  H16R 8873  -0.835   4.895   4.695 -1.9697 -1.0675 -0.0431
   92SAPC  H16S 8874  -0.811   4.979   4.543 -0.5332  2.1442  0.3862
   92SAPC  C217 8875  -1.013   4.926   4.576 -0.4952  0.4404 -0.5309
   92SAPC  H17R 8876  -1.095   4.941   4.650 -0.9476 -2.3256 -0.3491
   92SAPC  H17S 8877  -1.000   4.817   4.559  0.5919  0.2827  1.1128
   92SAPC  C218 8878  -1.058   4.982   4.441 -0.1944  0.1613 -0.1647
   92SAPC  H18R 8879  -0.973   4.972   4.370 -0.0815  2.4538 -0.4156
   92SAPC  H18S 8880  -1.073   5.090   4.461 -3.4349 -0.7277  3.4306
   92SAPC  C219 8881  -1.189   4.923   4.385  0.2163 -0.0667  0.0440
   92SAPC  H19R 8882  -1.265   4.947   4.462 -0.0167  0.8346 -0.4572
   92SAPC  H19S 8883  -1.164   4.817   4.365 -1.1704  0.0464 -2.8343
   92SAPC  C220 8884  -1.227   4.977   4.248  0.5021  0.2649 -0.3977
   92SAPC  H20R 8885  -1.137   4.989   4.184  1.2379 -1.7008  0.1874
   92SAPC  H20S 8886  -1.259   5.082   4.265  1.0632  0.2396  0.9819
   92SAPC  H20T 8887  -1.309   4.925   4.194 -1.9964  1.2294  2.1756
   92SAPC   C33 8888   0.106   5.220   5.680  0.4240 -0.3485  0.4576
   92SAPC   H3X 8889   0.153   5.280   5.600 -0.6174 -0.3814 -0.1949
   92SAPC   H3Y 8890   0.039   5.281   5.744  0.4751 -0.4611  0.6208
   92SAPC   C34 8891   0.028   5.116   5.605 -0.1685  0.1562 -0.9302
   92SAPC   H4X 8892  -0.049   5.078   5.675 -0.6742  2.6728 -0.0073
   92SAPC   H4Y 8893   0.095   5.033   5.574 -0.0963 -0.2207  0.1933
   92SAPC   C35 8894  -0.047   5.166   5.476  0.3663  0.0756 -0.0550
   92SAPC   H5X 8895   0.032   5.187   5.400 -0.9956  0.7578 -1.3268
   92SAPC   H5Y 8896  -0.096   5.263   5.501 -0.0830  0.7153 -3.0238
   92SAPC   C36 8897  -0.147   5.065   5.415 -0.4869 -0.3354 -0.5091
   92SAPC   H6X 8898  -0.222   5.037   5.491 -0.5732  1.1934  0.0039
   92SAPC   H6Y 8899  -0.098   4.967   5.394 -0.0696 -0.5819  1.4808
   92SAPC   C37 8900  -0.204   5.127   5.283  0.6014  0.0726 -0.9555
   92SAPC   H7X 8901  -0.114   5.167   5.232  1.0252  0.3971  0.0242
   92SAPC   H7Y 8902  -0.274   5.210   5.309 -1.3242 -1.4740 -0.9243
   92SAPC   C38 8903  -0.281   5.026   5.204  0.2191 -0.1043  0.4933
   92SAPC   H8X 8904  -0.373   5.006   5.262 -0.1438 -1.6524 -0.5763
   92SAPC   H8Y 8905  -0.224   4.931   5.199 -0.0896 -0.3740  1.7312
   92SAPC   C39 8906  -0.335   5.081   5.069 -0.2113 -0.1900 -0.2102
   92SAPC   H9X 8907  -0.243   5.135   5.037  0.1661  0.5574  1.9915
   92SAPC   H9Y 8908  -0.418   5.153   5.082  0.2212  0.6490 -1.7615
   92SAPC  C310 8909  -0.382   4.978   4.969  0.5986  0.2715 -0.3995
   92SAPC  H10X 8910  -0.478   4.926   4.991 -0.1130  0.9162 -1.8939
   92SAPC  H10Y 8911  -0.307   4.900   4.948  0.3516 -0.7715  2.1635
   92SAPC  C311 8912  -0.430   5.040   4.837 -0.2172 -0.3466  0.2712
   92SAPC  H11X 8913  -0.342   5.085   4.786 -1.3629  0.9510 -0.6198
   92SAPC  H11Y 8914  -0.486   5.136   4.843  3.0122  1.8934 -2.0698
   92SAPC  C312 8915  -0.486   4.935   4.741  0.8553 -0.1638 -0.7138
   92SAPC  H12X 8916  -0.588   4.909   4.778  0.8676  0.9789  0.1922
   92SAPC  H12Y 8917  -0.431   4.840   4.758 -0.0171 -0.5413  0.0553
   92SAPC  C313 8918  -0.491   4.976   4.593 -0.5765  0.5800 -0.2020
   92SAPC  H13X 8919  -0.385   4.998   4.566 -0.0794 -0.6298  0.6528
   92SAPC  H13Y 8920  -0.542   5.074   4.585 -1.3037  0.4843  2.3947
   92SAPC  C314 8921  -0.547   4.864   4.510  0.8383 -0.3172  0.8869
   92SAPC  H14X 8922  -0.655   4.847   4.530  0.6904 -1.8697 -0.9643
   92SAPC  H14Y 8923  -0.494   4.770   4.534  4.3012  1.0311 -0.8476
   92SAPC  C315 8924  -0.539   4.875   4.356  0.1333 -0.6048 -0.2340
   92SAPC  H15X 8925  -0.433   4.887   4.324  0.3965 -0.7909  0.5548
   92SAPC  H15Y 8926  -0.604   4.957   4.318 -1.3365 -1.3796  0.5142
   92SAPC  C316 8927  -0.586   4.747   4.285 -0.1458 -0.9366  0.1301
   92SAPC  H16X 8928  -0.679   4.708   4.332 -0.4764 -0.9864 -0.5509
   92SAPC  H16Y 8929  -0.517   4.661   4.291 -0.0455 -0.7769  1.8672
   92SAPC  C317 8930  -0.603   4.749   4.128 -0.1672 -0.3366 -0.1710
   92SAPC  H17X 8931  -0.523   4.803   4.073 -1.3151  0.1485 -1.4073
   92SAPC  H17Y 8932  -0.690   4.815   4.106 -0.0858  0.0619  0.6237
   92SAPC  C318 8933  -0.644   4.612   4.065 -0.2360 -0.0626  0.6067
   92SAPC  H18X 8934  -0.730   4.580   4.129 -0.5608 -0.6828 -0.1227
   92SAPC  H18Y 8935  -0.565   4.535   4.069 -0.4007 -0.2168  0.9960
   92SAPC  H18Z 8936  -0.677   4.617   3.959  1.3945  3.3414  0.1005
   93SAPC     N 8937   4.560   6.319   6.646  0.3873 -0.9058  0.4403
   93SAPC   C12 8938   4.586   6.432   6.749  0.3430 -0.1653  0.0942
   93SAPC  H12A 8939   4.677   6.416   6.806  1.1071 -1.0662 -1.3280
   93SAPC  H12B 8940   4.500   6.444   6.813  0.7796  0.5671  0.5656
   93SAPC   C13 8941   4.685   6.296   6.574  0.2195 -0.0936  0.1744
   93SAPC  H13A 8942   4.756   6.235   6.628  0.1124 -0.6975 -0.3522
   93SAPC  H13B 8943   4.660   6.242   6.484  1.1917  0.7019 -0.5916
   93SAPC  H13C 8944   4.729   6.392   6.554 -0.9486  0.4718  0.2181
   93SAPC   C14 8945   4.523   6.196   6.729  0.2820 -0.2033  0.2224
   93SAPC  H14A 8946   4.446   6.208   6.804 -2.2172 -2.3832 -1.8161
   93SAPC  H14B 8947   4.490   6.121   6.659 -1.8641  0.5036  0.4048
   93SAPC  H14C 8948   4.612   6.162   6.780  0.0795 -0.1601  0.6077
   93SAPC   C15 8949   4.455   6.366   6.550 -0.9616  0.3028 -0.1703
   93SAPC  H15A 8950   4.484   6.462   6.510  1.1934 -0.8256 -1.4799
   93SAPC  H15B 8951   4.446   6.303   6.462 -3.1674  1.3702 -0.7779
   93SAPC  H15C 8952   4.353   6.364   6.586 -0.8344  1.9032  0.3319
   93SAPC   C11 8953   4.609   6.584   6.695  0.7293 -0.1866 -0.1470
   93SAPC  H11A 8954   4.665   6.639   6.773 -0.7601  1.1175  0.0583
   93SAPC  H11B 8955   4.507   6.628   6.688  1.1768  1.3112  1.7860
   93SAPC     P 8956   4.676   6.703   6.478  0.7514 -0.3185  0.0804
   93SAPC   O13 8957   4.526   6.711   6.443 -0.2254 -0.4489  0.4787
   93SAPC   O14 8958   4.734   6.825   6.534 -0.1011 -0.2513 -0.6194
   93SAPC   O12 8959   4.687   6.589   6.586  0.3920  0.3667  0.9428
   93SAPC   O11 8960   4.754   6.651   6.356  0.3518  0.1007  0.3315
   93SAPC    C1 8961   4.733   6.520   6.306 -0.2156  0.2556 -0.3902
   93SAPC    HA 8962   4.814   6.457   6.348 -1.5926 -1.6973 -0.5625
   93SAPC    HB 8963   4.637   6.473   6.336  1.4642 -2.2332  1.4849
   93SAPC    C2 8964   4.756   6.521   6.158 -0.4806  0.0296 -0.2400
   93SAPC    HS 8965   4.858   6.562   6.143 -0.0133 -1.5507 -1.6376
   93SAPC   O21 8966   4.656   6.608   6.098  0.0558 -0.3114  0.8474
   93SAPC   C21 8967   4.700   6.715   6.028  0.2434 -0.1965 -0.1195
   93SAPC   O22 8968   4.819   6.740   6.007 -0.3096 -0.0994 -0.4799
   93SAPC   C22 8969   4.578   6.809   5.998 -0.0097  0.6294 -0.3885
   93SAPC   H2R 8970   4.508   6.797   6.083  2.7988 -0.0993  1.9790
   93SAPC   H2S 8971   4.611   6.914   5.991  0.3744  0.5642  0.3304
   93SAPC    C3 8972   4.771   6.391   6.081  0.2521  0.5654  0.2048
   93SAPC    HX 8973   4.679   6.329   6.084  1.5266 -1.5877 -1.9275
   93SAPC    HY 8974   4.851   6.333   6.132  1.1411 -0.6438 -2.3679
   93SAPC   O31 8975   4.811   6.398   5.940 -0.5786  0.0924 -0.6312
   93SAPC   C31 8976   4.722   6.371   5.853  0.5946  0.2672 -0.1388
   93SAPC   O32 8977   4.614   6.319   5.875 -0.2983 -0.0305  0.5997
   93SAPC   C32 8978   4.772   6.407   5.719  0.0636  0.1717  0.6264
   93SAPC   H2X 8979   4.844   6.328   5.690 -2.1953 -1.6972 -0.2085
   93SAPC   H2Y 8980   4.830   6.500   5.736 -1.0192  0.8425  0.7882
   93SAPC   C23 8981   4.514   6.786   5.858 -0.2585 -0.2844  0.6057
   93SAPC   H3R 8982   4.409   6.821   5.854 -1.0505 -2.6528 -1.5577
   93SAPC   H3S 8983   4.488   6.680   5.840 -1.9887  0.0805  0.7356
   93SAPC   C24 8984   4.597   6.853   5.745  0.0864 -0.7067 -1.1257
   93SAPC   H4R 8985   4.569   6.809   5.646  0.7786  1.4241 -2.3368
   93SAPC   H4S 8986   4.702   6.821   5.761  0.2738 -0.3602 -1.6455
   93SAPC   C25 8987   4.598   7.005   5.730  0.9857 -0.0457 -0.0949
   93SAPC   H5R 8988   4.499   7.037   5.696  1.1550  0.0743 -0.4734
   93SAPC   C26 8989   4.681   7.098   5.781 -0.5143  0.1961  0.2276
   93SAPC   H6R 8990   4.663   7.206   5.767 -0.8884  0.2038  0.7288
   93SAPC   C27 8991   4.814   7.057   5.833 -0.0296  0.5988  0.0687
   93SAPC   H7R 8992   4.881   7.022   5.752 -0.0214 -2.2323  1.1653
   93SAPC   H7S 8993   4.806   6.964   5.893 -1.0582  0.6427  0.0220
   93SAPC   C28 8994   4.878   7.162   5.910 -0.9629  0.3465  0.0241
   93SAPC   H8R 8995   4.812   7.216   5.979 -0.4423  0.9495  0.0571
   93SAPC   C29 8996   5.001   7.208   5.894 -0.7158 -0.5547 -0.0122
   93SAPC   H9R 8997   5.032   7.285   5.966  1.7982 -0.9835 -0.5513
   93SAPC  C210 8998   5.106   7.163   5.797 -0.1231  0.0183 -0.0790
   93SAPC  H10R 8999   5.089   7.067   5.744 -1.3940  0.1960 -0.0296
   93SAPC  H10S 9000   5.200   7.144   5.853  0.5907  2.0877 -0.4664
   93SAPC  C211 9001   5.138   7.277   5.696 -0.3151  0.4918  0.2483
   93SAPC  H11R 9002   5.237   7.325   5.709  0.1804 -1.0507  2.9149
   93SAPC  C212 9003   5.066   7.318   5.590  0.1157 -0.4832 -0.1318
   93SAPC  H12R 9004   5.099   7.393   5.517  1.3930 -2.5058 -1.7445
   93SAPC  C213 9005   4.936   7.249   5.549 -0.6874  0.0751 -0.1437
   93SAPC  H13R 9006   4.856   7.324   5.567 -0.9296  0.3359 -2.1574
   93SAPC  H13S 9007   4.914   7.164   5.617  3.1102 -0.2734  0.8911
   93SAPC  C214 9008   4.943   7.201   5.408  0.3765  0.1091  0.4587
   93SAPC  H14R 9009   5.033   7.144   5.379  1.4886  1.8094  0.4117
   93SAPC  C215 9010   4.873   7.241   5.304 -0.3775 -0.2330  0.1810
   93SAPC  H15R 9011   4.901   7.196   5.208  2.1166  1.8239 -0.1616
   93SAPC  C216 9012   4.760   7.335   5.289 -0.5433 -0.5911 -0.3555
   93SAPC  H16R 9013   4.789   7.402   5.206 -0.2467 -0.8911 -0.4932
   93SAPC  H16S 9014   4.729   7.401   5.373 -0.7480 -2.4418  1.0910
   93SAPC  C217 9015   4.631   7.263   5.254  0.2625  0.0978  0.6466
   93SAPC  H17R 9016   4.648   7.198   5.165  0.9075 -0.2629  1.0279
   93SAPC  H17S 9017   4.569   7.344   5.209 -0.4733 -0.6535  0.2825
   93SAPC  C218 9018   4.548   7.202   5.364 -0.7873  0.6321  0.2506
   93SAPC  H18R 9019   4.616   7.154   5.437 -0.9419 -1.3876 -0.8649
   93SAPC  H18S 9020   4.497   7.119   5.311  1.4866 -0.4774 -0.3039
   93SAPC  C219 9021   4.450   7.295   5.428  0.3294 -0.1580  0.3672
   93SAPC  H19R 9022   4.377   7.319   5.347  0.5480  3.3886  1.0518
   93SAPC  H19S 9023   4.497   7.391   5.455  2.0512 -0.3586 -1.6614
   93SAPC  C220 9024   4.360   7.248   5.539  0.3834  0.6395 -0.0629
   93SAPC  H20R 9025   4.269   7.310   5.554  0.7811  1.1294  0.3283
   93SAPC  H20S 9026   4.410   7.237   5.637 -0.6850 -0.7327  0.3662
   93SAPC  H20T 9027   4.317   7.151   5.505 -1.4796  1.6275 -0.6785
   93SAPC   C33 9028   4.659   6.433   5.610 -0.4753  0.0376 -0.0968
   93SAPC   H3X 9029   4.597   6.519   5.646  0.6353  0.2219  1.4586
   93SAPC   H3Y 9030   4.587   6.349   5.601  0.7851 -0.9608 -1.3485
   93SAPC   C34 9031   4.712   6.472   5.469  1.2993 -0.4710 -0.0893
   93SAPC   H4X 9032   4.763   6.382   5.428  0.3059 -0.2641 -1.8943
   93SAPC   H4Y 9033   4.767   6.568   5.471  0.6324 -0.0794  0.0992
   93SAPC   C35 9034   4.600   6.531   5.374 -0.2066 -0.3003 -0.2509
   93SAPC   H5X 9035   4.640   6.586   5.287 -0.5827 -0.7580 -0.7188
   93SAPC   H5Y 9036   4.533   6.604   5.425  1.6203  0.3929  1.2879
   93SAPC   C36 9037   4.516   6.409   5.323  0.4772 -0.0395  0.2890
   93SAPC   H6X 9038   4.445   6.386   5.405 -1.3988  0.9471 -0.9770
   93SAPC   H6Y 9039   4.582   6.323   5.301  1.5883  0.5683  1.1195
   93SAPC   C37 9040   4.426   6.445   5.207  0.0483 -0.5131  0.0624
   93SAPC   H7X 9041   4.376   6.544   5.213 -0.3423 -0.6510 -0.7005
   93SAPC   H7Y 9042   4.350   6.367   5.188 -0.7676 -0.0175  1.1890
   93SAPC   C38 9043   4.503   6.435   5.078 -0.2060  0.5819 -0.4944
   93SAPC   H8X 9044   4.543   6.331   5.072  0.2961  0.6773  0.9008
   93SAPC   H8Y 9045   4.595   6.496   5.093  0.3606  0.5587 -3.3506
   93SAPC   C39 9046   4.431   6.471   4.947 -0.1513 -0.1370 -0.8523
   93SAPC   H9X 9047   4.398   6.577   4.949 -1.5157 -0.5381 -1.2581
   93SAPC   H9Y 9048   4.341   6.406   4.943 -2.4994  2.8517 -0.0107
   93SAPC  C310 9049   4.514   6.460   4.819 -0.1451 -0.1719  0.6582
   93SAPC  H10X 9050   4.608   6.518   4.818 -0.4763  0.3797  0.7362
   93SAPC  H10Y 9051   4.454   6.495   4.732  0.2051 -1.1438  0.0028
   93SAPC  C311 9052   4.548   6.311   4.789  0.7270  0.2801 -0.3151
   93SAPC  H11X 9053   4.458   6.251   4.765  1.7097 -0.5691 -2.1032
   93SAPC  H11Y 9054   4.592   6.259   4.877  2.4867 -0.9873 -1.8726
   93SAPC  C312 9055   4.640   6.294   4.670  0.1449 -0.0754  0.4847
   93SAPC  H12X 9056   4.664   6.192   4.634 -1.5214 -0.4901  0.4761
   93SAPC  H12Y 9057   4.735   6.350   4.682  0.0064  0.1385  0.6090
   93SAPC  C313 9058   4.594   6.377   4.547 -1.0321  0.0681  0.2230
   93SAPC  H13X 9059   4.591   6.482   4.583  2.5091 -0.1706  1.5770
   93SAPC  H13Y 9060   4.494   6.341   4.515 -1.4447  1.1776  0.2285
   93SAPC  C314 9061   4.694   6.377   4.424  0.3486  0.4826  0.4339
   93SAPC  H14X 9062   4.792   6.420   4.454  0.6804 -1.3390  2.1638
   93SAPC  H14Y 9063   4.644   6.429   4.339 -1.7081 -1.0130  0.6465
   93SAPC  C315 9064   4.748   6.240   4.378 -0.5764 -0.1412 -0.1101
   93SAPC  H15X 9065   4.670   6.162   4.385 -1.1320  0.0755 -2.7783
   93SAPC  H15Y 9066   4.826   6.204   4.449 -0.7336 -0.2681 -0.0021
   93SAPC  C316 9067   4.792   6.235   4.224  0.3457  0.2577 -0.4603
   93SAPC  H16X 9068   4.883   6.299   4.219  0.6402 -0.0955  0.3197
   93SAPC  H16Y 9069   4.709   6.278   4.163 -1.2814  1.5972  2.4919
   93SAPC  C317 9070   4.839   6.100   4.169  0.1126  0.0520 -0.4493
   93SAPC  H17X 9071   4.761   6.027   4.200 -0.7140  1.7654  1.7968
   93SAPC  H17Y 9072   4.927   6.065   4.227 -0.0550  0.1843 -0.1108
   93SAPC  C318 9073   4.877   6.110   4.022  0.0769  0.0086 -0.0370
   93SAPC  H18X 9074   4.898   6.012   3.973 -0.2914 -0.6014  1.0089
   93SAPC  H18Y 9075   4.971   6.169   4.015  0.7234 -0.8875  0.8781
   93SAPC  H18Z 9076   4.787   6.155   3.975 -2.9308  0.6595  5.5715
   94SAPC     N 9077   1.581   5.464   6.154 -0.0350 -0.1369  0.1324
   94SAPC   C12 9078   1.583   5.357   6.045  0.5813  0.7071 -0.3171
   94SAPC  H12A 9079   1.684   5.321   6.031 -0.0727 -2.5927  2.2192
   94SAPC  H12B 9080   1.547   5.409   5.958 -1.2568  0.9184  0.5285
   94SAPC   C13 9081   1.442   5.530   6.167 -0.4611  0.0678  0.7813
   94SAPC  H13A 9082   1.376   5.446   6.158  0.2725 -0.6343  1.6982
   94SAPC  H13B 9083   1.435   5.588   6.258 -0.6604 -1.5945  1.8600
   94SAPC  H13C 9084   1.423   5.599   6.086  0.5839  0.0202  0.4790
   94SAPC   C14 9085   1.613   5.405   6.280  0.2905  0.0027  0.8314
   94SAPC  H14A 9086   1.535   5.354   6.334  1.3580  0.2257  2.6610
   94SAPC  H14B 9087   1.698   5.340   6.265  0.0596  0.0465 -0.9582
   94SAPC  H14C 9088   1.640   5.480   6.353 -0.6843  0.2429  0.9577
   94SAPC   C15 9089   1.686   5.571   6.118  0.7141  0.1448 -0.0611
   94SAPC  H15A 9090   1.673   5.611   6.019  1.1106 -0.9261 -0.5654
   94SAPC  H15B 9091   1.682   5.656   6.184 -0.0964  1.0478 -1.2506
   94SAPC  H15C 9092   1.787   5.532   6.110  0.8161  0.6833 -1.7473
   94SAPC   C11 9093   1.495   5.227   6.066  0.3359 -0.3301 -0.1633
   94SAPC  H11A 9094   1.534   5.188   6.162  1.8643 -1.2676 -1.1318
   94SAPC  H11B 9095   1.521   5.161   5.980  0.7940  0.3258 -0.5343
   94SAPC     P 9096   1.281   5.282   5.929 -0.1798 -0.0185 -0.2254
   94SAPC   O13 9097   1.275   5.154   5.856  0.2596  0.1136  0.7576
   94SAPC   O14 9098   1.154   5.349   5.948  0.2181  0.5911  0.0473
   94SAPC   O12 9099   1.350   5.259   6.065  0.0709 -0.1678 -1.2213
   94SAPC   O11 9100   1.378   5.374   5.850 -0.9370 -0.1152 -0.0778
   94SAPC    C1 9101   1.342   5.508   5.838 -0.0751  0.7204  0.8477
   94SAPC    HA 9102   1.247   5.540   5.887 -2.3351 -2.2532 -1.2084
   94SAPC    HB 9103   1.414   5.575   5.889 -0.6358  1.2720  0.9256
   94SAPC    C2 9104   1.330   5.560   5.686 -0.0325  0.6158  0.1069
   94SAPC    HS 9105   1.279   5.657   5.668 -1.1859  0.3892  1.8506
   94SAPC   O21 9106   1.276   5.455   5.598 -0.6957 -0.2809  0.3182
   94SAPC   C21 9107   1.148   5.445   5.603 -0.5954  0.0891 -0.4396
   94SAPC   O22 9108   1.079   5.516   5.675 -0.3982  0.1351  0.4027
   94SAPC   C22 9109   1.092   5.347   5.500 -0.5617  0.0411  0.1683
   94SAPC   H2R 9110   1.025   5.395   5.425  0.5577 -1.6000 -1.9953
   94SAPC   H2S 9111   1.184   5.319   5.445 -0.8603  2.5153 -1.7964
   94SAPC    C3 9112   1.471   5.595   5.630  0.1896 -0.3041 -0.0026
   94SAPC    HX 9113   1.525   5.498   5.624  0.0263 -0.4931  1.2313
   94SAPC    HY 9114   1.526   5.662   5.699  1.6064  1.1025 -2.3809
   94SAPC   O31 9115   1.461   5.660   5.499  0.0494  0.7275  0.1893
   94SAPC   C31 9116   1.545   5.613   5.403  0.7629 -0.6609  0.2617
   94SAPC   O32 9117   1.618   5.518   5.416  0.6549  0.7513  0.2256
   94SAPC   C32 9118   1.506   5.696   5.279 -0.0184  0.5708  0.5420
   94SAPC   H2X 9119   1.495   5.806   5.293  0.1170  0.6816 -0.1989
   94SAPC   H2Y 9120   1.408   5.651   5.250  1.6493 -2.4383 -0.9009
   94SAPC   C23 9121   1.026   5.221   5.559  0.4357  0.3756  0.3116
   94SAPC   H3R 9122   0.923   5.239   5.596 -0.2937 -3.5437  0.6358
   94SAPC   H3S 9123   1.081   5.195   5.652 -2.5414  1.0999  2.4292
   94SAPC   C24 9124   1.001   5.112   5.446  0.3856 -0.2214  0.5348
   94SAPC   H4R 9125   1.105   5.096   5.411  1.4547  2.1893  2.2841
   94SAPC   H4S 9126   0.945   5.158   5.362  1.3043 -2.2051 -1.2484
   94SAPC   C25 9127   0.947   4.985   5.496  0.1445  0.3562 -0.2341
   94SAPC   H5R 9128   1.023   4.920   5.542  1.2216 -0.6512 -3.1711
   94SAPC   C26 9129   0.818   4.953   5.488 -0.6687 -0.3190 -0.1212
   94SAPC   H6R 9130   0.785   4.856   5.527 -0.6710 -0.8307 -1.3544
   94SAPC   C27 9131   0.713   5.043   5.423 -0.2016  0.7038 -0.1449
   94SAPC   H7R 9132   0.690   5.001   5.323  0.9725  2.2198 -1.1053
   94SAPC   H7S 9133   0.735   5.150   5.399  0.7175  0.4813 -0.3206
   94SAPC   C28 9134   0.579   5.035   5.506  0.0333  0.0028  0.7346
   94SAPC   H8R 9135   0.586   5.027   5.616 -0.8546  0.0857  0.7982
   94SAPC   C29 9136   0.456   5.051   5.457  0.1748  1.1939 -0.4950
   94SAPC   H9R 9137   0.372   5.040   5.527 -0.0502  0.4852 -0.8614
   94SAPC  C210 9138   0.421   5.068   5.312 -0.2440 -0.6435 -0.0408
   94SAPC  H10R 9139   0.492   5.015   5.246  0.4591 -1.6396  1.4520
   94SAPC  H10S 9140   0.433   5.175   5.287  2.3586 -1.1724 -1.4231
   94SAPC  C211 9141   0.282   5.024   5.275  0.1180  0.1837  0.5563
   94SAPC  H11R 9142   0.232   4.961   5.349 -3.3205  1.1304 -0.7543
   94SAPC  C212 9143   0.216   5.061   5.167 -0.6598  0.2438  0.5913
   94SAPC  H12R 9144   0.118   5.012   5.161  0.8564 -2.8405 -0.7736
   94SAPC  C213 9145   0.253   5.148   5.054 -0.4499  0.0358 -0.5148
   94SAPC  H13R 9146   0.303   5.239   5.093  0.1153 -0.3928 -0.2327
   94SAPC  H13S 9147   0.160   5.183   5.004 -0.9728  1.8229  1.5929
   94SAPC  C214 9148   0.349   5.092   4.956  0.0239 -0.3390 -0.8430
   94SAPC  H14R 9149   0.424   5.026   5.001 -0.0837 -0.5879 -1.0251
   94SAPC  C215 9150   0.338   5.098   4.827 -0.2632 -0.1461  0.7114
   94SAPC  H15R 9151   0.422   5.054   4.772  1.3182  2.3483  0.9855
   94SAPC  C216 9152   0.233   5.181   4.754  0.1259  0.1340  0.2648
   94SAPC  H16R 9153   0.257   5.289   4.746 -1.1261  0.2716 -2.7925
   94SAPC  H16S 9154   0.133   5.172   4.802  0.1293  2.3998  0.8309
   94SAPC  C217 9155   0.192   5.125   4.611 -0.0528 -0.0568  0.6074
   94SAPC  H17R 9156   0.283   5.108   4.549 -0.2911  0.1748  0.1915
   94SAPC  H17S 9157   0.137   5.208   4.561 -0.6453  0.0028  1.3424
   94SAPC  C218 9158   0.113   4.991   4.614  0.1428  0.1108 -0.2476
   94SAPC  H18R 9159   0.141   4.926   4.700 -0.7248  1.6157  1.2410
   94SAPC  H18S 9160   0.126   4.934   4.520 -0.2971  1.7257 -1.3374
   94SAPC  C219 9161  -0.042   5.011   4.630 -0.1763 -0.6963  0.2459
   94SAPC  H19R 9162  -0.081   5.070   4.544  0.8246  0.5441  0.6041
   94SAPC  H19S 9163  -0.051   5.080   4.717 -2.8160 -0.5925 -0.0447
   94SAPC  C220 9164  -0.117   4.885   4.671  0.6607  0.5089  0.1227
   94SAPC  H20R 9165  -0.087   4.794   4.615 -1.8271 -2.3068  3.0128
   94SAPC  H20S 9166  -0.226   4.910   4.674 -0.0342 -2.3216  0.7422
   94SAPC  H20T 9167  -0.103   4.865   4.779  0.4790 -0.4413 -0.0264
   94SAPC   C33 9168   1.612   5.675   5.167 -0.1513  0.0260  0.1498
   94SAPC   H3X 9169   1.600   5.570   5.134 -2.1371  0.7728 -1.7409
   94SAPC   H3Y 9170   1.716   5.704   5.192  0.0247 -1.0037  0.6403
   94SAPC   C34 9171   1.578   5.769   5.051 -0.0121  0.8354  0.3902
   94SAPC   H4X 9172   1.639   5.744   4.962 -1.8341  1.7871 -1.2159
   94SAPC   H4Y 9173   1.609   5.874   5.071  1.1454  0.4333  0.7606
   94SAPC   C35 9174   1.425   5.772   5.011  0.1771  0.2486 -0.4754
   94SAPC   H5X 9175   1.408   5.847   4.931 -0.8164 -0.0048 -0.5214
   94SAPC   H5Y 9176   1.379   5.818   5.101 -2.3552 -0.5191 -1.2756
   94SAPC   C36 9177   1.356   5.641   4.981  0.1191  0.0232  0.2473
   94SAPC   H6X 9178   1.344   5.570   5.066  0.8738 -0.6542 -0.1968
   94SAPC   H6Y 9179   1.438   5.600   4.919  0.0083 -1.2157  0.8895
   94SAPC   C37 9180   1.217   5.663   4.915  0.4893 -0.1566 -0.1818
   94SAPC   H7X 9181   1.151   5.710   4.991  0.6708  0.5313 -0.4471
   94SAPC   H7Y 9182   1.172   5.561   4.910 -1.3721  0.6383 -0.1093
   94SAPC   C38 9183   1.206   5.744   4.786  0.3107 -0.3335  0.5921
   94SAPC   H8X 9184   1.222   5.851   4.812  1.2662 -0.5210  0.8289
   94SAPC   H8Y 9185   1.106   5.726   4.742  0.9989  0.4364 -1.4243
   94SAPC   C39 9186   1.304   5.703   4.677  0.1911 -0.2646 -0.2894
   94SAPC   H9X 9187   1.308   5.592   4.675  0.0560 -0.3432  1.6301
   94SAPC   H9Y 9188   1.402   5.749   4.702 -0.1007  0.5015 -0.5271
   94SAPC  C310 9189   1.277   5.749   4.536 -0.3397  0.5444  0.5028
   94SAPC  H10X 9190   1.278   5.860   4.545  3.1211  0.5133  1.9729
   94SAPC  H10Y 9191   1.177   5.722   4.495 -0.3144  0.8557  0.2280
   94SAPC  C311 9192   1.382   5.717   4.430 -0.0885 -0.3873 -0.0400
   94SAPC  H11X 9193   1.394   5.610   4.402  0.5637 -0.4230  0.3352
   94SAPC  H11Y 9194   1.481   5.732   4.478 -0.0185 -1.4225  0.1753
   94SAPC  C312 9195   1.354   5.796   4.294 -0.1244  0.5881 -0.4160
   94SAPC  H12X 9196   1.439   5.780   4.224 -0.2455 -1.4771 -0.1489
   94SAPC  H12Y 9197   1.354   5.906   4.310  0.6719  0.8207 -1.8032
   94SAPC  C313 9198   1.229   5.752   4.226 -0.3844  0.1895  0.2459
   94SAPC  H13X 9199   1.202   5.647   4.249  0.0679  0.2706  1.1578
   94SAPC  H13Y 9200   1.252   5.782   4.121  2.9115  0.5699  0.9650
   94SAPC  C314 9201   1.105   5.851   4.258  0.2561 -0.4950 -0.5263
   94SAPC  H14X 9202   1.126   5.948   4.208 -0.6767 -0.7468 -1.4421
   94SAPC  H14Y 9203   1.104   5.873   4.367 -0.8744  0.7743 -0.7690
   94SAPC  C315 9204   0.964   5.804   4.234 -0.6954 -0.1720  0.0147
   94SAPC  H15X 9205   0.948   5.729   4.314 -0.6117  0.7774  0.9489
   94SAPC  H15Y 9206   0.953   5.760   4.133  1.3948 -2.3097  0.6288
   94SAPC  C316 9207   0.859   5.913   4.249  0.4402 -0.7126 -0.7529
   94SAPC  H16X 9208   0.839   5.980   4.163 -3.1024 -1.6492 -0.8398
   94SAPC  H16Y 9209   0.902   5.982   4.325 -1.0754 -1.0648  0.4827
   94SAPC  C317 9210   0.719   5.865   4.287  0.3932 -0.8544  0.8902
   94SAPC  H17X 9211   0.719   5.793   4.373  1.0651 -0.9875  0.7824
   94SAPC  H17Y 9212   0.684   5.812   4.196  0.5303 -1.3026  1.0947
   94SAPC  C318 9213   0.627   5.978   4.335  0.3371  0.1945  0.3587
   94SAPC  H18X 9214   0.661   6.042   4.419 -0.7404  2.3357 -0.7680
   94SAPC  H18Y 9215   0.528   5.936   4.365 -0.5024  2.0133  0.2442
   94SAPC  H18Z 9216   0.605   6.042   4.247  0.8206  0.2433  0.2752
   95SAPC     N 9217   3.135   0.791   1.606  0.0614  0.4544  0.2975
   95SAPC   C12 9218   3.068   0.887   1.702 -1.0500  1.0270  0.5118
   95SAPC  H12A 9219   3.025   0.833   1.786 -1.2050  0.2780 -0.0438
   95SAPC  H12B 9220   2.974   0.908   1.653 -0.2599  1.9110 -0.6525
   95SAPC   C13 9221   3.180   0.867   1.484 -0.0734 -0.0334 -0.1682
   95SAPC  H13A 9222   3.264   0.930   1.508 -1.2336  1.8352 -0.7545
   95SAPC  H13B 9223   3.213   0.797   1.410  0.8262 -0.6851  0.8225
   95SAPC  H13C 9224   3.100   0.922   1.436 -0.6388 -0.1486  0.6186
   95SAPC   C14 9225   3.244   0.722   1.667 -0.5826  0.1192 -0.1256
   95SAPC  H14A 9226   3.304   0.798   1.716  0.0035  1.0174 -2.1079
   95SAPC  H14B 9227   3.210   0.644   1.733 -0.5704  1.7715  1.9578
   95SAPC  H14C 9228   3.320   0.683   1.600  1.9181  1.1120  1.9439
   95SAPC   C15 9229   3.034   0.683   1.565 -0.2293  0.1143  0.6599
   95SAPC  H15A 9230   3.007   0.620   1.649 -0.5173 -0.9364 -0.1928
   95SAPC  H15B 9231   2.941   0.732   1.542  0.0347  0.9709  1.3914
   95SAPC  H15C 9232   3.065   0.629   1.476 -1.9662  1.5141 -0.8789
   95SAPC   C11 9233   3.152   1.007   1.748 -0.1017  0.1801 -0.4633
   95SAPC  H11A 9234   3.071   1.066   1.795 -1.9608 -2.6826  0.1597
   95SAPC  H11B 9235   3.196   1.074   1.670  0.8252  0.4015  0.2228
   95SAPC     P 9236   3.239   0.992   1.994  0.2681  0.2143  0.3564
   95SAPC   O13 9237   3.368   0.962   2.058 -0.5335 -0.1263  0.6613
   95SAPC   O14 9238   3.189   1.126   2.018 -0.2253  0.5678 -0.8723
   95SAPC   O12 9239   3.252   0.969   1.837  0.1427 -0.0049  0.5085
   95SAPC   O11 9240   3.122   0.890   2.027  0.2851 -1.1731  0.6758
   95SAPC    C1 9241   3.156   0.753   2.037  0.2534  0.3500 -0.6274
   95SAPC    HA 9242   3.132   0.702   1.941  1.2377  0.7064 -1.0801
   95SAPC    HB 9243   3.262   0.721   2.049  0.2677  1.0907  1.7185
   95SAPC    C2 9244   3.065   0.701   2.150 -0.0988  0.7903  0.2784
   95SAPC    HS 9245   2.961   0.736   2.134  0.0585  2.0301  1.7368
   95SAPC   O21 9246   3.117   0.748   2.280  0.0137  0.4714 -0.1831
   95SAPC   C21 9247   3.028   0.796   2.363 -0.0367  0.0374  0.3715
   95SAPC   O22 9248   2.908   0.809   2.343 -0.3369  0.2878  0.0028
   95SAPC   C22 9249   3.088   0.827   2.496 -0.8226  0.3351 -0.2573
   95SAPC   H2R 9250   3.155   0.743   2.526 -0.6895  0.4710 -0.1717
   95SAPC   H2S 9251   3.144   0.923   2.493 -1.0156  0.4729  0.3738
   95SAPC    C3 9252   3.055   0.541   2.149 -0.2860  0.3328  0.1877
   95SAPC    HX 9253   3.162   0.511   2.154 -0.2571  0.1753 -1.0499
   95SAPC    HY 9254   3.005   0.506   2.057 -1.8249  3.6396 -0.3796
   95SAPC   O31 9255   2.982   0.504   2.265  0.3668  0.1747 -0.2454
   95SAPC   C31 9256   2.853   0.521   2.255  0.6493  0.3079  0.5954
   95SAPC   O32 9257   2.796   0.561   2.155 -0.3169  0.0114  0.4611
   95SAPC   C32 9258   2.784   0.473   2.382 -0.7482  0.0824  0.6120
   95SAPC   H2X 9259   2.806   0.366   2.404  1.4567  0.7371  1.9747
   95SAPC   H2Y 9260   2.676   0.485   2.361 -0.4744  1.5737 -0.0586
   95SAPC   C23 9261   2.987   0.863   2.610 -0.1490  0.0550  0.4914
   95SAPC   H3R 9262   2.929   0.770   2.628  1.9617 -1.1185  1.6282
   95SAPC   H3S 9263   2.919   0.943   2.574 -0.4187  0.0220  0.9188
   95SAPC   C24 9264   3.055   0.885   2.743  0.4494 -0.3624  0.0160
   95SAPC   H4R 9265   3.125   0.969   2.721  1.4040 -1.1303  0.0688
   95SAPC   H4S 9266   3.115   0.796   2.771  0.5273  0.2211  1.8342
   95SAPC   C25 9267   2.966   0.934   2.855  0.4064 -0.4535 -0.2692
   95SAPC   H5R 9268   2.865   0.971   2.831  1.1034  0.7061 -1.5264
   95SAPC   C26 9269   3.003   0.945   2.986 -0.4744  0.3157 -0.5550
   95SAPC   H6R 9270   2.934   0.992   3.058 -1.5140  1.4756 -2.2265
   95SAPC   C27 9271   3.144   0.908   3.032 -0.2785  0.4534  0.1923
   95SAPC   H7R 9272   3.151   0.977   3.118 -0.4993  0.9113 -0.1562
   95SAPC   H7S 9273   3.222   0.935   2.958  0.7575 -0.2663  0.9854
   95SAPC   C28 9274   3.150   0.763   3.081 -0.0066  0.1557 -0.0984
   95SAPC   H8R 9275   3.181   0.693   3.002  0.5471 -1.5114  1.5126
   95SAPC   C29 9276   3.130   0.716   3.208 -0.2450  0.6240 -0.0710
   95SAPC   H9R 9277   3.145   0.608   3.226 -0.8539  0.4866 -0.3427
   95SAPC  C210 9278   3.096   0.790   3.339  0.7252 -0.4321 -0.2570
   95SAPC  H10R 9279   2.988   0.813   3.327  0.2061  0.3148  4.2133
   95SAPC  H10S 9280   3.149   0.887   3.349  1.1440 -0.6587 -0.2625
   95SAPC  C211 9281   3.117   0.724   3.472  0.0426  0.2527  0.0295
   95SAPC  H11R 9282   3.033   0.661   3.504  0.3162 -0.2667 -0.2796
   95SAPC  C212 9283   3.223   0.735   3.559  0.1521 -0.1384  0.0402
   95SAPC  H12R 9284   3.218   0.683   3.656 -0.3725 -1.4348 -0.6491
   95SAPC  C213 9285   3.352   0.810   3.538 -0.4237  0.2275  0.4811
   95SAPC  H13R 9286   3.358   0.886   3.619 -0.3967 -0.6162  1.2899
   95SAPC  H13S 9287   3.346   0.868   3.443 -4.3587 -0.6876 -0.0113
   95SAPC  C214 9288   3.466   0.706   3.546  0.5517  0.4233 -0.3514
   95SAPC  H14R 9289   3.467   0.634   3.463  1.1946 -3.8107  2.9851
   95SAPC  C215 9290   3.567   0.705   3.635 -0.6034  0.5223 -0.1739
   95SAPC  H15R 9291   3.640   0.623   3.627 -1.1327 -0.1120  1.1527
   95SAPC  C216 9292   3.589   0.790   3.757  0.2762 -0.3241  0.5174
   95SAPC  H16R 9293   3.507   0.865   3.761  0.2131 -0.4251  3.6293
   95SAPC  H16S 9294   3.689   0.836   3.757  0.2416 -0.2448  0.1297
   95SAPC  C217 9295   3.576   0.719   3.891  0.3612  0.8802  0.1743
   95SAPC  H17R 9296   3.646   0.633   3.899  0.0553  0.3807 -1.8577
   95SAPC  H17S 9297   3.475   0.673   3.893  1.4871 -2.0526 -2.1097
   95SAPC  C218 9298   3.608   0.809   4.015  0.4786  0.6376 -0.1921
   95SAPC  H18R 9299   3.527   0.886   4.008 -2.0597 -1.7498  0.9817
   95SAPC  H18S 9300   3.707   0.860   4.012  1.0094 -0.4002 -1.8250
   95SAPC  C219 9301   3.570   0.740   4.147  0.3105 -0.2871  0.0987
   95SAPC  H19R 9302   3.631   0.650   4.166  1.3638  0.2999 -0.3908
   95SAPC  H19S 9303   3.466   0.704   4.132  0.1527  0.1005  0.2453
   95SAPC  C220 9304   3.571   0.836   4.267 -0.1684 -0.4293  0.1483
   95SAPC  H20R 9305   3.521   0.791   4.356 -1.2848  1.8123  0.7372
   95SAPC  H20S 9306   3.534   0.936   4.238  0.6800 -0.5687 -1.4962
   95SAPC  H20T 9307   3.675   0.858   4.298 -0.0500 -1.1628  0.2854
   95SAPC   C33 9308   2.826   0.552   2.508 -0.2692 -0.3658  0.5714
   95SAPC   H3X 9309   2.772   0.649   2.519  0.3541  0.1702 -0.8846
   95SAPC   H3Y 9310   2.932   0.584   2.502  0.5826 -3.0702 -0.0594
   95SAPC   C34 9311   2.817   0.455   2.628 -0.3439 -0.4174 -0.3633
   95SAPC   H4X 9312   2.848   0.351   2.604 -0.0789 -0.4616  0.1568
   95SAPC   H4Y 9313   2.712   0.441   2.664  0.2341 -0.0811  1.5261
   95SAPC   C35 9314   2.892   0.513   2.750 -1.1376 -0.2339 -0.0689
   95SAPC   H5X 9315   2.862   0.619   2.759  1.8194  0.9010 -2.0399
   95SAPC   H5Y 9316   2.999   0.510   2.723 -0.6344  1.2689  1.5867
   95SAPC   C36 9317   2.870   0.434   2.880  0.9032  0.4852 -0.8387
   95SAPC   H6X 9318   2.764   0.406   2.896  1.4228 -1.5180 -0.6044
   95SAPC   H6Y 9319   2.897   0.500   2.965 -2.8443  1.0994  0.0495
   95SAPC   C37 9320   2.963   0.314   2.883 -0.7319  0.2863  0.1226
   95SAPC   H7X 9321   3.066   0.354   2.871 -0.0338 -0.8426  1.8445
   95SAPC   H7Y 9322   2.937   0.249   2.797  1.1511  1.0440 -1.0782
   95SAPC   C38 9323   2.951   0.224   3.011 -0.1702 -0.2953 -0.2213
   95SAPC   H8X 9324   3.041   0.159   3.012 -0.7052 -1.0729 -0.7838
   95SAPC   H8Y 9325   2.861   0.159   3.003 -0.1667 -0.6828  2.1437
   95SAPC   C39 9326   2.953   0.299   3.141 -0.5904  0.3534 -0.3962
   95SAPC   H9X 9327   2.866   0.366   3.160  0.3360  1.0051  1.9703
   95SAPC   H9Y 9328   3.046   0.360   3.143 -1.1643  1.2797  1.8890
   95SAPC  C310 9329   2.957   0.197   3.262  0.2599  0.1149  0.0483
   95SAPC  H10X 9330   3.024   0.114   3.232 -1.7859 -1.6329  0.0923
   95SAPC  H10Y 9331   2.855   0.159   3.281 -0.3158  2.0310  1.0939
   95SAPC  C311 9332   3.016   0.271   3.382 -0.2527 -0.6235 -0.1868
   95SAPC  H11X 9333   2.965   0.366   3.407  2.9082  0.7356  1.7001
   95SAPC  H11Y 9334   3.111   0.319   3.350 -2.6083  3.2327 -2.0537
   95SAPC  C312 9335   3.018   0.186   3.510 -0.2200  0.2705  0.4297
   95SAPC  H12X 9336   3.083   0.098   3.492  0.9554  0.9491  1.1977
   95SAPC  H12Y 9337   2.914   0.150   3.526  0.3287 -1.3639  0.4916
   95SAPC  C313 9338   3.061   0.270   3.632 -0.0250  0.1642 -0.6426
   95SAPC  H13X 9339   3.001   0.363   3.639 -0.4200 -0.0317 -1.3452
   95SAPC  H13Y 9340   3.165   0.305   3.618  0.0099  1.9104  3.0133
   95SAPC  C314 9341   3.042   0.184   3.760 -0.8336  0.2053 -0.0201
   95SAPC  H14X 9342   3.137   0.129   3.778 -0.3108  0.6050 -1.4243
   95SAPC  H14Y 9343   2.976   0.097   3.744 -0.2978 -0.3464  0.6754
   95SAPC  C315 9344   2.987   0.271   3.874 -0.4779  0.2599 -0.2590
   95SAPC  H15X 9345   2.956   0.190   3.944 -2.6432  0.8304 -0.4704
   95SAPC  H15Y 9346   2.897   0.331   3.849  0.3854  1.8756  0.3865
   95SAPC  C316 9347   3.096   0.354   3.944 -0.0312 -0.3589 -0.1754
   95SAPC  H16X 9348   3.194   0.305   3.963 -1.4471 -2.8523  1.1064
   95SAPC  H16Y 9349   3.056   0.371   4.046  0.1824  0.1605 -0.1750
   95SAPC  C317 9350   3.111   0.499   3.881 -0.3982  0.3853 -0.3829
   95SAPC  H17X 9351   3.009   0.543   3.873 -2.7157 -4.0403  1.1724
   95SAPC  H17Y 9352   3.141   0.484   3.776  0.7870  2.0775 -0.3234
   95SAPC  C318 9353   3.205   0.594   3.955 -0.1616 -0.5000  0.1341
   95SAPC  H18X 9354   3.192   0.699   3.922  0.0650 -0.2852  0.7106
   95SAPC  H18Y 9355   3.307   0.561   3.927 -0.2666  0.0725 -0.9918
   95SAPC  H18Z 9356   3.187   0.606   4.064  1.9910  2.0263  0.3406
   96SAPC     N 9357   4.537   4.998   1.822  0.0503  0.4771 -0.4744
   96SAPC   C12 9358   4.451   5.118   1.812 -0.1593 -0.4606  0.8185
   96SAPC  H12A 9359   4.476   5.173   1.722 -0.8693 -2.1250 -0.4533
   96SAPC  H12B 9360   4.481   5.191   1.886 -1.2360  1.2197 -0.3157
   96SAPC   C13 9361   4.517   4.902   1.708 -0.4911  0.4288 -0.7041
   96SAPC  H13A 9362   4.580   4.816   1.724 -0.0083  0.7639 -0.7778
   96SAPC  H13B 9363   4.415   4.866   1.708 -0.2348 -0.2993 -0.8363
   96SAPC  H13C 9364   4.534   4.945   1.611  1.4822 -1.7505 -1.4019
   96SAPC   C14 9365   4.674   5.044   1.814 -0.2253 -0.0352 -0.5240
   96SAPC  H14A 9366   4.716   5.087   1.724  0.9005 -2.8747 -1.4488
   96SAPC  H14B 9367   4.707   5.107   1.895  1.1406  0.3933 -1.3734
   96SAPC  H14C 9368   4.741   4.959   1.818  2.5574  2.0229  0.1499
   96SAPC   C15 9369   4.519   4.934   1.949 -0.0278  0.1640 -0.3669
   96SAPC  H15A 9370   4.590   4.854   1.964 -1.0428 -0.6444  0.3135
   96SAPC  H15B 9371   4.541   5.002   2.030  0.6780 -0.3690 -0.1007
   96SAPC  H15C 9372   4.415   4.907   1.962  0.2420 -0.1026  1.4711
   96SAPC   C11 9373   4.304   5.096   1.838 -0.2124 -1.2311 -0.9427
   96SAPC  H11A 9374   4.281   5.050   1.937 -1.8408 -1.4162 -1.3742
   96SAPC  H11B 9375   4.265   5.026   1.760 -1.0289 -2.5660  0.5974
   96SAPC     P 9376   4.114   5.274   1.887 -0.0896  0.0557 -0.5746
   96SAPC   O13 9377   4.052   5.380   1.804  0.7484 -0.2576 -0.4109
   96SAPC   O14 9378   4.038   5.152   1.916 -0.1482 -0.7783  0.1189
   96SAPC   O12 9379   4.253   5.233   1.812  0.3279  0.2349 -0.9899
   96SAPC   O11 9380   4.171   5.335   2.020  0.3059  0.3059  0.2801
   96SAPC    C1 9381   4.308   5.377   2.049  0.3760  0.1501  0.0483
   96SAPC    HA 9382   4.379   5.299   2.015  0.2131  0.1849 -0.3765
   96SAPC    HB 9383   4.326   5.477   2.004 -0.9437  1.1766  1.6594
   96SAPC    C2 9384   4.324   5.399   2.206  0.1160  0.3322 -0.0943
   96SAPC    HS 9385   4.431   5.398   2.235  0.0214  1.1964  0.3309
   96SAPC   O21 9386   4.260   5.294   2.283 -0.4783  0.4280  0.0635
   96SAPC   C21 9387   4.327   5.179   2.272 -0.2046  0.6025 -1.0455
   96SAPC   O22 9388   4.436   5.168   2.223 -0.6904  0.7168 -0.3251
   96SAPC   C22 9389   4.239   5.081   2.350 -0.3952  0.1851  0.4562
   96SAPC   H2R 9390   4.154   5.047   2.286  1.0386  1.2001 -2.1388
   96SAPC   H2S 9391   4.308   4.998   2.377 -2.5657 -1.4841  1.1566
   96SAPC    C3 9392   4.257   5.534   2.244  0.0611 -0.4512 -0.6593
   96SAPC    HX 9393   4.151   5.545   2.213  0.2958  0.6382 -1.0958
   96SAPC    HY 9394   4.314   5.607   2.185 -0.6723  0.5037 -0.2138
   96SAPC   O31 9395   4.277   5.571   2.383  0.2847 -0.0351 -0.0255
   96SAPC   C31 9396   4.178   5.542   2.458  0.4793  0.7177 -0.4049
   96SAPC   O32 9397   4.071   5.493   2.423  0.6835 -0.6932  0.2849
   96SAPC   C32 9398   4.213   5.587   2.599  0.2807 -0.2375 -0.6243
   96SAPC   H2X 9399   4.190   5.695   2.608 -1.5875 -0.4307 -2.3914
   96SAPC   H2Y 9400   4.319   5.554   2.609 -0.0177 -0.9629  0.3521
   96SAPC   C23 9401   4.185   5.134   2.488 -0.3362  0.1515 -0.4896
   96SAPC   H3R 9402   4.100   5.205   2.479 -0.4104  0.0729 -0.4135
   96SAPC   H3S 9403   4.260   5.198   2.538 -0.6887 -0.8680  1.4169
   96SAPC   C24 9404   4.140   5.023   2.584 -0.8306 -0.4131  0.0429
   96SAPC   H4R 9405   4.081   4.944   2.532 -0.4644 -0.6175 -0.0714
   96SAPC   H4S 9406   4.076   5.082   2.652 -0.8295 -0.8792  0.4499
   96SAPC   C25 9407   4.254   4.963   2.651 -0.7952 -0.9571 -1.3478
   96SAPC   H5R 9408   4.318   4.898   2.590 -1.2400 -1.4522 -1.2891
   96SAPC   C26 9409   4.304   4.987   2.780  0.2991  0.6110  0.1083
   96SAPC   H6R 9410   4.385   4.919   2.809  0.4729  0.3479 -0.9346
   96SAPC   C27 9411   4.238   5.080   2.874  0.1554 -0.1916 -0.0882
   96SAPC   H7R 9412   4.131   5.051   2.882 -0.3729  1.1193 -1.7953
   96SAPC   H7S 9413   4.220   5.181   2.831 -0.2575  0.0535  0.6317
   96SAPC   C28 9414   4.315   5.088   3.001  0.6690  0.2556  0.7012
   96SAPC   H8R 9415   4.420   5.121   2.991  1.0983 -1.4310 -1.0164
   96SAPC   C29 9416   4.261   5.062   3.121 -0.4514 -0.1616 -0.0080
   96SAPC   H9R 9417   4.333   5.043   3.202  0.9581 -0.6982 -1.3565
   96SAPC  C210 9418   4.115   5.024   3.151  0.5584  0.8163  0.8350
   96SAPC  H10R 9419   4.059   5.002   3.058  1.8617  0.0801  0.1980
   96SAPC  H10S 9420   4.065   5.116   3.189 -0.9608 -0.2567  1.5335
   96SAPC  C211 9421   4.089   4.915   3.247  0.2637 -0.2544 -0.0411
   96SAPC  H11R 9422   4.096   4.814   3.203  0.0043  0.7994 -2.6868
   96SAPC  C212 9423   4.063   4.935   3.380  0.1814  1.0672  0.2355
   96SAPC  H12R 9424   4.036   4.839   3.426 -2.1541  1.4404 -0.1936
   96SAPC  C213 9425   4.072   5.050   3.468 -0.0425  0.5999 -0.2862
   96SAPC  H13R 9426   4.117   5.127   3.401 -1.0038  2.0403  0.6675
   96SAPC  H13S 9427   4.147   5.019   3.544  0.5390  0.6746 -0.8160
   96SAPC  C214 9428   3.957   5.117   3.537  0.6210 -0.2054 -0.0753
   96SAPC  H14R 9429   3.922   5.210   3.490 -0.6159 -0.7411 -0.2530
   96SAPC  C215 9430   3.890   5.069   3.644  0.0168  0.0950 -0.4080
   96SAPC  H15R 9431   3.810   5.137   3.677  2.0836  1.5217  2.0288
   96SAPC  C216 9432   3.929   4.936   3.715 -0.5732  0.3174 -0.6270
   96SAPC  H16R 9433   4.000   4.877   3.654 -1.9009 -3.9666  1.5480
   96SAPC  H16S 9434   3.842   4.873   3.744  0.6285 -1.0709  0.0742
   96SAPC  C217 9435   3.998   4.960   3.852 -0.8206 -0.1111  0.5878
   96SAPC  H17R 9436   4.085   5.028   3.837 -1.6974  0.8845 -0.1172
   96SAPC  H17S 9437   4.042   4.865   3.888 -2.0073 -0.9782 -0.2044
   96SAPC  C218 9438   3.903   5.021   3.958  0.4305 -0.0913  0.1710
   96SAPC  H18R 9439   3.851   5.106   3.909  0.1631  1.1054  2.3958
   96SAPC  H18S 9440   3.966   5.063   4.040  0.2092  0.5109  0.0354
   96SAPC  C219 9441   3.818   4.921   4.027 -0.4093  0.1154  0.2871
   96SAPC  H19R 9442   3.880   4.836   4.063 -0.7244 -0.3850 -0.3226
   96SAPC  H19S 9443   3.759   4.880   3.942 -1.8998  3.1805 -0.3011
   96SAPC  C220 9444   3.718   4.969   4.140 -0.4543 -0.9269  0.1170
   96SAPC  H20R 9445   3.665   4.884   4.190 -1.3119 -1.3062 -1.3558
   96SAPC  H20S 9446   3.657   5.046   4.088  1.0783 -0.7890 -1.5788
   96SAPC  H20T 9447   3.779   5.026   4.213 -2.7786  0.7447  0.8829
   96SAPC   C33 9448   4.140   5.502   2.707  0.6562  0.2698  0.1812
   96SAPC   H3X 9449   4.163   5.394   2.694  1.7935  0.7803 -2.6291
   96SAPC   H3Y 9450   4.033   5.524   2.687  0.7256 -1.7544 -3.0084
   96SAPC   C34 9451   4.182   5.556   2.845 -0.7747 -0.5677 -0.0855
   96SAPC   H4X 9452   4.160   5.664   2.858 -0.8604 -0.8614  2.6780
   96SAPC   H4Y 9453   4.292   5.542   2.855 -0.9814 -1.7009  0.8142
   96SAPC   C35 9454   4.105   5.492   2.962 -0.0777 -0.5249 -0.0028
   96SAPC   H5X 9455   4.108   5.383   2.940 -2.1215 -0.2966 -1.6539
   96SAPC   H5Y 9456   3.999   5.523   2.954  1.0301  3.6677 -1.4543
   96SAPC   C36 9457   4.172   5.533   3.100  0.7635 -0.4071  0.3828
   96SAPC   H6X 9458   4.140   5.636   3.128 -2.3532 -0.7197 -1.4959
   96SAPC   H6Y 9459   4.281   5.528   3.081  0.8570  0.4618  0.6246
   96SAPC   C37 9460   4.133   5.426   3.205 -0.1103  0.2128  0.7090
   96SAPC   H7X 9461   4.163   5.328   3.163 -0.3420  1.4239 -2.6417
   96SAPC   H7Y 9462   4.025   5.408   3.228  0.1125 -1.1586  0.7733
   96SAPC   C38 9463   4.215   5.442   3.332  0.6733 -0.0692  0.1976
   96SAPC   H8X 9464   4.320   5.443   3.297  0.7012  1.6748  0.2282
   96SAPC   H8Y 9465   4.221   5.350   3.394 -1.5763 -0.1147  0.4516
   96SAPC   C39 9466   4.161   5.547   3.418  0.2056 -0.2236 -0.2763
   96SAPC   H9X 9467   4.052   5.524   3.428  0.2556  0.2265  2.0436
   96SAPC   H9Y 9468   4.188   5.642   3.367  1.6477 -1.0161 -1.0326
   96SAPC  C310 9469   4.236   5.555   3.551  0.1041 -0.2741  0.0495
   96SAPC  H10X 9470   4.222   5.650   3.606  2.7879 -1.0082  2.2422
   96SAPC  H10Y 9471   4.347   5.546   3.552  0.2888  1.5904  0.0654
   96SAPC  C311 9472   4.183   5.446   3.649 -0.6029 -0.3173 -0.0777
   96SAPC  H11X 9473   4.184   5.343   3.608  0.4858 -0.5011  0.3451
   96SAPC  H11Y 9474   4.082   5.484   3.672 -0.8614 -0.7390 -0.5085
   96SAPC  C312 9475   4.270   5.435   3.783 -0.0068 -0.2402  0.3656
   96SAPC  H12X 9476   4.271   5.536   3.829  0.9658 -0.0343 -0.0699
   96SAPC  H12Y 9477   4.375   5.417   3.752 -0.4404  0.9042 -1.9706
   96SAPC  C313 9478   4.222   5.328   3.876  0.2296 -0.5950 -0.2215
   96SAPC  H13X 9479   4.242   5.233   3.822  0.9666 -0.3135 -0.4599
   96SAPC  H13Y 9480   4.112   5.336   3.887  0.4684 -1.0230  4.8838
   96SAPC  C314 9481   4.288   5.318   4.014  0.1692 -0.2812  0.1273
   96SAPC  H14X 9482   4.221   5.372   4.084  1.5097 -0.2133  1.4024
   96SAPC  H14Y 9483   4.394   5.349   4.018  1.0346 -2.7710 -1.0656
   96SAPC  C315 9484   4.273   5.174   4.061 -0.1052 -0.2106 -0.5279
   96SAPC  H15X 9485   4.316   5.105   3.985  1.1792 -0.9595  0.8237
   96SAPC  H15Y 9486   4.166   5.146   4.056  0.0848 -0.7597 -2.4462
   96SAPC  C316 9487   4.323   5.139   4.206  0.0310 -0.0350  0.4882
   96SAPC  H16X 9488   4.275   5.219   4.266 -0.1133  1.9164 -2.0504
   96SAPC  H16Y 9489   4.433   5.153   4.215  0.4054 -1.6319 -1.0467
   96SAPC  C317 9490   4.289   4.996   4.256  0.6815  0.4043  0.5093
   96SAPC  H17X 9491   4.308   4.918   4.179  0.1969 -0.7702  1.5348
   96SAPC  H17Y 9492   4.181   4.990   4.282  1.1746  0.6657  2.8594
   96SAPC  C318 9493   4.359   4.957   4.387  0.0549 -0.2181 -0.7576
   96SAPC  H18X 9494   4.354   4.846   4.395 -1.3955 -0.2773 -2.1180
   96SAPC  H18Y 9495   4.314   5.011   4.473  2.1092  0.1880  0.1309
   96SAPC  H18Z 9496   4.466   4.983   4.374  0.5563 -0.6458  1.9175
   97SAPC     N 9497   4.721   1.009   1.926 -0.0502  0.8067  0.0859
   97SAPC   C12 9498   4.847   1.010   2.018 -0.2374 -0.4717  0.0898
   97SAPC  H12A 9499   4.868   0.910   2.052 -0.0028 -0.8345 -1.0590
   97SAPC  H12B 9500   4.830   1.077   2.100  2.8936  0.0673  0.4265
   97SAPC   C13 9501   4.609   0.950   2.009 -0.3673  0.7996  0.3066
   97SAPC  H13A 9502   4.632   0.845   2.018 -0.0950  0.6548 -1.6620
   97SAPC  H13B 9503   4.609   0.995   2.107 -1.2587  0.6597  0.3767
   97SAPC  H13C 9504   4.516   0.968   1.957  0.2300  0.7066 -0.8199
   97SAPC   C14 9505   4.674   1.150   1.897  0.2699 -0.2375  0.1165
   97SAPC  H14A 9506   4.651   1.208   1.985  0.8177  0.2301 -0.0448
   97SAPC  H14B 9507   4.752   1.204   1.846  0.0814 -0.1893 -0.1250
   97SAPC  H14C 9508   4.589   1.150   1.829  0.3406  1.9512 -0.0408
   97SAPC   C15 9509   4.733   0.929   1.800 -0.0012  0.2787  0.7118
   97SAPC  H15A 9510   4.786   0.839   1.829  0.5483  0.8960  1.7045
   97SAPC  H15B 9511   4.633   0.910   1.766 -0.2960 -0.6888  2.0552
   97SAPC  H15C 9512   4.797   0.980   1.730 -0.5162 -0.1974 -0.1218
   97SAPC   C11 9513   4.977   1.056   1.945 -0.1354 -0.9051 -0.4362
   97SAPC  H11A 9514   4.990   0.990   1.857  0.2048 -0.3038 -0.8400
   97SAPC  H11B 9515   5.072   1.047   2.003  0.8559 -0.2160 -1.9073
   97SAPC     P 9516   5.082   1.272   1.846  0.3137 -0.2594  0.3875
   97SAPC   O13 9517   5.208   1.205   1.885 -0.1774  0.1094  0.0428
   97SAPC   O14 9518   5.058   1.297   1.702  0.0467  0.1486 -0.2483
   97SAPC   O12 9519   4.961   1.187   1.901  0.0500  0.5982  0.0089
   97SAPC   O11 9520   5.073   1.407   1.925  0.2952  0.6644  0.3012
   97SAPC    C1 9521   4.950   1.452   1.982 -0.8453  0.3058  0.2508
   97SAPC    HA 9522   4.898   1.533   1.926 -2.0114  0.6196  1.7243
   97SAPC    HB 9523   4.864   1.382   1.990 -0.5645  0.0290  0.9593
   97SAPC    C2 9524   4.966   1.500   2.120  0.2970  0.0706 -0.8080
   97SAPC    HS 9525   4.876   1.559   2.145 -1.3328 -2.5563 -0.0865
   97SAPC   O21 9526   5.090   1.572   2.132 -0.1225  0.2488 -0.4817
   97SAPC   C21 9527   5.077   1.701   2.127 -0.0537  0.4328  0.2709
   97SAPC   O22 9528   4.978   1.763   2.090  0.6372 -0.1185  0.1963
   97SAPC   C22 9529   5.213   1.773   2.169 -0.3253 -0.3214 -0.3382
   97SAPC   H2R 9530   5.295   1.732   2.106  2.3640  1.0665  2.0629
   97SAPC   H2S 9531   5.206   1.880   2.140  2.2289 -0.3947 -1.4780
   97SAPC    C3 9532   4.970   1.370   2.216  0.1575 -0.1734  0.1391
   97SAPC    HX 9533   5.040   1.292   2.181 -1.3935 -2.0009  0.9248
   97SAPC    HY 9534   4.872   1.323   2.193 -0.6993  2.5859 -2.4246
   97SAPC   O31 9535   4.975   1.411   2.356  0.0342 -0.0519  0.7666
   97SAPC   C31 9536   5.095   1.395   2.413  0.2884 -0.4558  0.7310
   97SAPC   O32 9537   5.197   1.346   2.356  0.8422  0.0889 -0.1576
   97SAPC   C32 9538   5.089   1.441   2.558  0.0123  0.9129 -0.0851
   97SAPC   H2X 9539   4.982   1.447   2.589 -0.2868 -0.5321 -0.7778
   97SAPC   H2Y 9540   5.140   1.540   2.560  2.0965 -0.1245  1.2112
   97SAPC   C23 9541   5.244   1.746   2.317  0.3983  0.1631  0.2258
   97SAPC   H3R 9542   5.353   1.750   2.334  0.2744  2.0403  0.8098
   97SAPC   H3S 9543   5.222   1.639   2.338  0.8133 -0.0308 -0.3202
   97SAPC   C24 9544   5.170   1.846   2.421  0.3037  0.5055 -0.4099
   97SAPC   H4R 9545   5.188   1.953   2.396  1.0665  0.8732  1.5210
   97SAPC   H4S 9546   5.235   1.847   2.511 -0.0259 -2.3501 -0.0345
   97SAPC   C25 9547   5.020   1.823   2.459 -0.4282 -0.3613  0.5761
   97SAPC   H5R 9548   4.959   1.802   2.370  0.4352 -2.4948  0.4212
   97SAPC   C26 9549   4.968   1.795   2.582 -0.0880  0.5234 -0.1421
   97SAPC   H6R 9550   4.859   1.792   2.595 -0.5838  0.2356 -3.4170
   97SAPC   C27 9551   5.058   1.778   2.703  0.3665  0.2235  0.5106
   97SAPC   H7R 9552   5.154   1.731   2.676  0.0642 -0.8701  1.2589
   97SAPC   H7S 9553   5.020   1.701   2.774  1.8390  0.0785  1.1605
   97SAPC   C28 9554   5.089   1.902   2.775 -0.7491  0.2604  0.2464
   97SAPC   H8R 9555   5.073   1.992   2.714  0.9082  0.7216  0.4553
   97SAPC   C29 9556   5.155   1.894   2.895 -0.1446 -0.0371 -0.4037
   97SAPC   H9R 9557   5.193   1.985   2.943 -0.3011 -0.8926  1.4289
   97SAPC  C210 9558   5.188   1.768   2.972 -0.7129 -0.3652  0.0131
   97SAPC  H10R 9559   5.290   1.729   2.949 -0.5889 -0.3107  0.4600
   97SAPC  H10S 9560   5.129   1.678   2.944  1.2106 -1.3681 -0.9905
   97SAPC  C211 9561   5.157   1.770   3.118 -0.4609  0.1659 -0.2675
   97SAPC  H11R 9562   5.235   1.789   3.193 -1.4169  1.4320  0.4581
   97SAPC  C212 9563   5.028   1.774   3.163 -0.3635  0.5030  0.2236
   97SAPC  H12R 9564   5.009   1.776   3.271 -0.2261 -1.0629  0.3019
   97SAPC  C213 9565   4.905   1.750   3.080  0.4837  0.5544 -0.4290
   97SAPC  H13R 9566   4.926   1.764   2.972  1.5750 -1.7129 -0.5718
   97SAPC  H13S 9567   4.824   1.813   3.122 -0.2395 -1.2808  1.0876
   97SAPC  C214 9568   4.854   1.607   3.093 -0.0576 -0.4150 -0.0080
   97SAPC  H14R 9569   4.933   1.539   3.129 -1.1599 -1.9878 -0.4826
   97SAPC  C215 9570   4.737   1.558   3.043 -0.3998  0.4315  0.4985
   97SAPC  H15R 9571   4.706   1.454   3.059  0.6388 -0.0667 -0.5956
   97SAPC  C216 9572   4.637   1.658   2.979 -0.5487  0.1791  0.9009
   97SAPC  H16R 9573   4.641   1.763   3.016 -0.5882  1.7533 -3.0615
   97SAPC  H16S 9574   4.536   1.626   3.012 -0.0232 -0.3390  2.0381
   97SAPC  C217 9575   4.670   1.666   2.827 -0.2239 -0.6962 -0.7597
   97SAPC  H17R 9576   4.778   1.681   2.805 -0.0719  1.4628  1.0758
   97SAPC  H17S 9577   4.621   1.759   2.791  0.4305  0.8409  1.9999
   97SAPC  C218 9578   4.621   1.544   2.754 -0.3026  0.4398  0.0470
   97SAPC  H18R 9579   4.516   1.514   2.775 -0.7140  1.3532 -0.6129
   97SAPC  H18S 9580   4.686   1.460   2.784 -1.4684 -0.4237  0.2067
   97SAPC  C219 9581   4.649   1.553   2.610  1.0654 -0.9477 -0.3017
   97SAPC  H19R 9582   4.754   1.575   2.585  0.6039  1.1652 -0.5031
   97SAPC  H19S 9583   4.601   1.648   2.582  1.5886 -0.1058  1.4800
   97SAPC  C220 9584   4.592   1.446   2.523  0.1051  0.0751  0.1651
   97SAPC  H20R 9585   4.631   1.345   2.549 -1.4950 -0.7073 -0.3518
   97SAPC  H20S 9586   4.616   1.461   2.415  0.1825 -1.5806 -0.0791
   97SAPC  H20T 9587   4.482   1.436   2.533  0.1196 -1.2266 -0.7872
   97SAPC   C33 9588   5.162   1.359   2.668  1.0109 -0.4765  0.2439
   97SAPC   H3X 9589   5.265   1.337   2.631  0.3670 -0.1763 -1.8685
   97SAPC   H3Y 9590   5.111   1.263   2.689 -0.2193 -1.1494 -4.5619
   97SAPC   C34 9591   5.181   1.440   2.803  0.1839  0.2775 -0.0438
   97SAPC   H4X 9592   5.076   1.462   2.834  0.3453 -0.1466  0.8086
   97SAPC   H4Y 9593   5.244   1.526   2.773  1.6538 -1.1012 -1.0576
   97SAPC   C35 9594   5.254   1.353   2.907 -0.8202 -0.2454 -0.0962
   97SAPC   H5X 9595   5.349   1.318   2.861 -0.4036  0.2549  0.3625
   97SAPC   H5Y 9596   5.202   1.256   2.919 -0.7277 -0.2158  0.5973
   97SAPC   C36 9597   5.285   1.425   3.037 -0.2546  0.2491  0.0567
   97SAPC   H6X 9598   5.196   1.472   3.083 -0.7765 -1.2143  0.5985
   97SAPC   H6Y 9599   5.368   1.496   3.017 -0.2020  0.1628 -0.0314
   97SAPC   C37 9600   5.351   1.328   3.131  0.2296  0.3134 -0.1871
   97SAPC   H7X 9601   5.441   1.272   3.095  0.3004 -0.1931  0.7587
   97SAPC   H7Y 9602   5.283   1.246   3.161  0.5039 -0.4735 -1.5980
   97SAPC   C38 9603   5.415   1.405   3.246  0.3121 -0.8853 -0.5347
   97SAPC   H8X 9604   5.472   1.487   3.196  0.9941 -0.2969  1.1168
   97SAPC   H8Y 9605   5.493   1.342   3.294 -1.2652 -2.3070  0.2430
   97SAPC   C39 9606   5.314   1.459   3.351  0.0375 -0.3442  0.0768
   97SAPC   H9X 9607   5.283   1.379   3.421  1.6679  0.8679  2.3079
   97SAPC   H9Y 9608   5.226   1.498   3.295  0.0667  0.4092  0.5468
   97SAPC  C310 9609   5.358   1.581   3.436  0.2570  0.1558  0.2788
   97SAPC  H10X 9610   5.381   1.663   3.365  0.2486  0.0020  0.0972
   97SAPC  H10Y 9611   5.448   1.549   3.495 -0.2044 -1.4776  0.1358
   97SAPC  C311 9612   5.238   1.626   3.526  0.3376  0.0802 -0.0767
   97SAPC  H11X 9613   5.213   1.549   3.602 -0.2630 -1.9188 -2.1814
   97SAPC  H11Y 9614   5.158   1.646   3.452  0.6153 -2.2318 -1.0624
   97SAPC  C312 9615   5.264   1.762   3.591  0.3404 -0.1261 -1.0854
   97SAPC  H12X 9616   5.186   1.788   3.665  2.3574  2.5031  0.2912
   97SAPC  H12Y 9617   5.265   1.845   3.517 -0.3043  1.3895  0.5260
   97SAPC  C313 9618   5.390   1.761   3.678 -0.1370 -0.6054 -0.7255
   97SAPC  H13X 9619   5.481   1.750   3.615 -0.3551 -0.5555 -1.0519
   97SAPC  H13Y 9620   5.386   1.678   3.752 -0.0310 -0.4661 -0.5619
   97SAPC  C314 9621   5.407   1.885   3.771  0.1664  0.3660 -0.1078
   97SAPC  H14X 9622   5.326   1.883   3.846  0.5029 -2.4437  0.2839
   97SAPC  H14Y 9623   5.388   1.981   3.716 -1.8084  0.1859  0.2110
   97SAPC  C315 9624   5.535   1.888   3.860  0.3812  0.0054  0.8587
   97SAPC  H15X 9625   5.528   1.990   3.905  0.1019  1.4546 -2.2175
   97SAPC  H15Y 9626   5.621   1.879   3.791 -0.2323  0.4891  0.0183
   97SAPC  C316 9627   5.538   1.781   3.974 -0.0149  0.3947  0.1938
   97SAPC  H16X 9628   5.559   1.678   3.938 -1.5507 -0.3216  1.2534
   97SAPC  H16Y 9629   5.437   1.780   4.018 -0.4585 -0.3683 -0.8015
   97SAPC  C317 9630   5.637   1.829   4.081 -0.1227 -0.5542  0.3704
   97SAPC  H17X 9631   5.592   1.922   4.121 -1.6806  0.5460 -3.5303
   97SAPC  H17Y 9632   5.734   1.851   4.032 -1.3393  0.4493 -1.6766
   97SAPC  C318 9633   5.661   1.736   4.193  0.4594  0.5586 -0.4572
   97SAPC  H18X 9634   5.733   1.772   4.270 -0.2102 -1.7467  1.3791
   97SAPC  H18Y 9635   5.697   1.639   4.154 -1.1179 -0.1434 -0.2443
   97SAPC  H18Z 9636   5.567   1.714   4.248  2.5885 -3.7961  1.9536
   98SAPC     N 9637   1.484   1.349   1.662 -0.0032  0.1401  0.1595
   98SAPC   C12 9638   1.530   1.486   1.632  0.1954 -0.5470 -1.0143
   98SAPC  H12A 9639   1.455   1.560   1.657 -0.0365 -1.5572  1.7120
   98SAPC  H12B 9640   1.544   1.491   1.525 -0.2628 -2.3356 -1.1875
   98SAPC   C13 9641   1.562   1.248   1.574  0.1508 -0.0090 -0.5729
   98SAPC  H13A 9642   1.668   1.267   1.580  0.0894  0.2683 -0.2887
   98SAPC  H13B 9643   1.553   1.148   1.614  0.7674 -0.0525 -0.5293
   98SAPC  H13C 9644   1.521   1.248   1.475 -0.3853 -0.6674 -0.3579
   98SAPC   C14 9645   1.509   1.320   1.809 -0.4201  0.1758  0.7542
   98SAPC  H14A 9646   1.615   1.331   1.827 -0.1677 -1.3704  0.3428
   98SAPC  H14B 9647   1.460   1.393   1.872 -0.4218 -0.2093  1.2085
   98SAPC  H14C 9648   1.486   1.219   1.839  0.3410 -0.0061  0.7538
   98SAPC   C15 9649   1.340   1.330   1.627 -0.5412 -1.1214  0.3265
   98SAPC  H15A 9650   1.314   1.348   1.524 -1.0853  1.5118  0.8529
   98SAPC  H15B 9651   1.301   1.234   1.657 -2.9630  0.3281  2.1737
   98SAPC  H15C 9652   1.277   1.401   1.677 -0.8361 -0.3970 -1.0490
   98SAPC   C11 9653   1.656   1.541   1.711  0.6836  0.1695  0.8376
   98SAPC  H11A 9654   1.642   1.550   1.821  0.4918 -0.4913  0.8717
   98SAPC  H11B 9655   1.678   1.645   1.678 -0.3457 -0.2385 -1.2682
   98SAPC     P 9656   1.916   1.492   1.724  0.2791  0.5612  0.3390
   98SAPC   O13 9657   1.999   1.369   1.750  0.4932 -0.0955  0.9144
   98SAPC   O14 9658   1.973   1.570   1.614  0.0495 -0.1725 -0.4646
   98SAPC   O12 9659   1.771   1.455   1.688  0.6962 -0.1844 -0.2128
   98SAPC   O11 9660   1.907   1.566   1.865 -0.0704 -0.0294 -0.4941
   98SAPC    C1 9661   2.046   1.593   1.917 -0.1473 -0.0874  0.1235
   98SAPC    HA 9662   2.133   1.579   1.849 -1.3945  0.5527 -1.6894
   98SAPC    HB 9663   2.058   1.700   1.948  4.3963  0.0524 -1.3965
   98SAPC    C2 9664   2.070   1.491   2.039 -0.1938 -0.1141  0.3604
   98SAPC    HS 9665   2.054   1.387   2.003 -0.6034 -0.7113  2.1935
   98SAPC   O21 9666   1.974   1.519   2.138  0.3192  0.1152  0.3980
   98SAPC   C21 9667   1.955   1.420   2.226  0.1643 -0.8631  0.2953
   98SAPC   O22 9668   1.993   1.308   2.205  0.1622  0.2558 -0.2149
   98SAPC   C22 9669   1.868   1.471   2.341 -0.4932 -0.1682 -0.6399
   98SAPC   H2R 9670   1.788   1.393   2.341 -1.9509  1.2720 -0.8512
   98SAPC   H2S 9671   1.917   1.461   2.440 -3.7252  0.0519  1.1197
   98SAPC    C3 9672   2.216   1.508   2.090  0.1059 -0.3560 -0.2507
   98SAPC    HX 9673   2.222   1.617   2.113 -0.1021 -0.5404  0.7186
   98SAPC    HY 9674   2.282   1.498   2.001  1.8661  0.3061  0.9253
   98SAPC   O31 9675   2.252   1.426   2.203 -0.0137  0.1613  0.6866
   98SAPC   C31 9676   2.382   1.415   2.222  0.3153  0.0288  0.1252
   98SAPC   O32 9677   2.463   1.484   2.166 -0.1326 -0.3977 -0.0208
   98SAPC   C32 9678   2.410   1.296   2.322 -0.2841 -0.3186  0.8202
   98SAPC   H2X 9679   2.444   1.210   2.259 -1.0966  0.2899 -0.4883
   98SAPC   H2Y 9680   2.313   1.261   2.362  0.3170 -2.6354  0.4365
   98SAPC   C23 9681   1.795   1.609   2.330 -0.3082  1.2603 -0.2550
   98SAPC   H3R 9682   1.719   1.607   2.248 -0.6302 -0.7875  0.0278
   98SAPC   H3S 9683   1.866   1.688   2.299  0.8879  0.0171 -0.7982
   98SAPC   C24 9684   1.736   1.646   2.465  0.5506 -0.5329 -0.4130
   98SAPC   H4R 9685   1.709   1.754   2.458  2.1223 -0.1529 -1.0367
   98SAPC   H4S 9686   1.812   1.642   2.546  0.6184 -0.0821 -0.4496
   98SAPC   C25 9687   1.627   1.556   2.499  0.7028 -0.4241 -0.5716
   98SAPC   H5R 9688   1.564   1.524   2.414  1.4314 -2.2428 -0.4768
   98SAPC   C26 9689   1.607   1.514   2.623  0.2392  0.4898 -0.0163
   98SAPC   H6R 9690   1.521   1.446   2.635 -0.8943  2.0379  1.1072
   98SAPC   C27 9691   1.668   1.551   2.753  0.6062  0.7489  0.4093
   98SAPC   H7R 9692   1.580   1.546   2.821 -0.4925 -1.7910 -1.0885
   98SAPC   H7S 9693   1.702   1.657   2.763  2.0103  0.4032 -0.4573
   98SAPC   C28 9694   1.772   1.453   2.789 -0.4482  0.3217 -0.3599
   98SAPC   H8R 9695   1.819   1.391   2.712 -2.3376 -1.1976 -0.3610
   98SAPC   C29 9696   1.813   1.425   2.913  0.3579 -0.8244 -0.0692
   98SAPC   H9R 9697   1.894   1.351   2.929 -0.0461 -1.0104  1.2066
   98SAPC  C210 9698   1.768   1.489   3.045  0.0227 -0.0012 -0.3587
   98SAPC  H10R 9699   1.721   1.588   3.029  0.5620  0.1290 -1.1996
   98SAPC  H10S 9700   1.858   1.504   3.108  0.1177 -0.4363 -0.3852
   98SAPC  C211 9701   1.697   1.395   3.138  0.0450  0.4076 -0.0957
   98SAPC  H11R 9702   1.653   1.306   3.092  0.8980 -0.6978  1.1380
   98SAPC  C212 9703   1.676   1.412   3.272  0.0303  0.1584  0.3209
   98SAPC  H12R 9704   1.643   1.322   3.325 -1.8769  1.0576  0.7410
   98SAPC  C213 9705   1.729   1.528   3.362 -0.7421 -0.6576  0.1997
   98SAPC  H13R 9706   1.684   1.627   3.337  0.3615 -0.0000  0.7262
   98SAPC  H13S 9707   1.836   1.544   3.338 -1.2354  0.9672 -1.1439
   98SAPC  C214 9708   1.724   1.503   3.510 -0.5150  0.2311 -0.9114
   98SAPC  H14R 9709   1.640   1.554   3.561  1.4603 -0.1974  3.1265
   98SAPC  C215 9710   1.808   1.433   3.592 -0.0823  0.5857  0.4905
   98SAPC  H15R 9711   1.792   1.425   3.700  1.2594  1.2164  0.7549
   98SAPC  C216 9712   1.940   1.362   3.543 -0.6980  0.5406 -0.0848
   98SAPC  H16R 9713   2.024   1.366   3.615  0.3349  1.8074 -1.3064
   98SAPC  H16S 9714   1.977   1.408   3.448  0.6588 -0.2139  0.0487
   98SAPC  C217 9715   1.913   1.216   3.511  0.0154  0.1571 -0.9021
   98SAPC  H17R 9716   1.825   1.206   3.443 -1.5624 -0.3526  1.0920
   98SAPC  H17S 9717   1.872   1.166   3.602  1.1295 -1.4390 -1.2285
   98SAPC  C218 9718   2.038   1.144   3.463 -0.1816  0.3635  0.4488
   98SAPC  H18R 9719   2.009   1.037   3.457 -0.9853  0.3750  2.8701
   98SAPC  H18S 9720   2.120   1.142   3.537 -1.0058  1.8070  1.4541
   98SAPC  C219 9721   2.092   1.203   3.330 -0.2925  0.3394  0.1156
   98SAPC  H19R 9722   2.166   1.137   3.279 -1.1084 -0.0655 -0.5787
   98SAPC  H19S 9723   2.135   1.303   3.351 -0.7749  0.5546  0.0888
   98SAPC  C220 9724   1.992   1.215   3.219  0.6395 -0.2626 -0.2863
   98SAPC  H20R 9725   1.922   1.296   3.248  2.7571  1.7732 -0.5377
   98SAPC  H20S 9726   1.931   1.125   3.196 -1.1386  0.7349  0.3573
   98SAPC  H20T 9727   2.042   1.255   3.128  1.4774 -0.8533 -0.0953
   98SAPC   C33 9728   2.511   1.334   2.430  0.4443 -0.7272  0.0221
   98SAPC   H3X 9729   2.490   1.440   2.458 -0.7539 -1.0584  0.4423
   98SAPC   H3Y 9730   2.613   1.339   2.387 -0.4949  3.0574 -2.2258
   98SAPC   C34 9731   2.490   1.241   2.554 -0.4118  0.6490  0.0256
   98SAPC   H4X 9732   2.527   1.140   2.528 -0.1526  0.6349  0.4321
   98SAPC   H4Y 9733   2.391   1.224   2.601  0.6406 -3.2147  1.2470
   98SAPC   C35 9734   2.585   1.268   2.671 -0.0895  0.1583  0.3316
   98SAPC   H5X 9735   2.560   1.373   2.697 -2.3500 -0.3253  0.3136
   98SAPC   H5Y 9736   2.691   1.266   2.638 -0.4506 -0.2597 -0.8430
   98SAPC   C36 9737   2.561   1.173   2.789  0.4100 -0.1764 -0.3976
   98SAPC   H6X 9738   2.587   1.069   2.760  0.5029 -0.6764  1.3707
   98SAPC   H6Y 9739   2.451   1.175   2.807  0.3226  1.3622 -0.9934
   98SAPC   C37 9740   2.628   1.219   2.919 -1.1887  0.1642  0.7486
   98SAPC   H7X 9741   2.593   1.323   2.937 -1.6879  0.5911 -2.1340
   98SAPC   H7Y 9742   2.734   1.235   2.888 -1.3290  1.0720  0.6862
   98SAPC   C38 9743   2.618   1.131   3.044 -0.0021 -0.3744 -0.0609
   98SAPC   H8X 9744   2.715   1.077   3.052  0.4950  0.3699 -0.9029
   98SAPC   H8Y 9745   2.537   1.057   3.026 -0.8766  0.2976  0.9555
   98SAPC   C39 9746   2.608   1.212   3.172  0.0214  0.0402 -0.4066
   98SAPC   H9X 9747   2.531   1.292   3.170  0.7773  0.7727 -0.8877
   98SAPC   H9Y 9748   2.704   1.263   3.194  0.4895 -0.7558 -0.5742
   98SAPC  C310 9749   2.573   1.123   3.287  0.1179  0.9017  0.2975
   98SAPC  H10X 9750   2.646   1.039   3.296  1.2919  1.6675 -1.5113
   98SAPC  H10Y 9751   2.474   1.072   3.283  0.7045 -0.5015  2.1261
   98SAPC  C311 9752   2.556   1.197   3.421  0.1462  0.2610 -0.1654
   98SAPC  H11X 9753   2.504   1.290   3.391  0.8395  0.8434  0.3947
   98SAPC  H11Y 9754   2.658   1.230   3.450 -0.0229  0.3110  0.3876
   98SAPC  C312 9755   2.482   1.116   3.533  0.5978  0.0183  0.6773
   98SAPC  H12X 9756   2.539   1.021   3.541 -0.7169 -1.1512 -2.2320
   98SAPC  H12Y 9757   2.383   1.079   3.497  0.9077 -0.6146  0.4515
   98SAPC  C313 9758   2.465   1.183   3.665 -0.1572  0.6172 -0.1824
   98SAPC  H13X 9759   2.444   1.291   3.645  0.2339  0.8895  0.8211
   98SAPC  H13Y 9760   2.563   1.191   3.716  0.0302 -2.6367  0.1613
   98SAPC  C314 9761   2.366   1.103   3.760 -0.4686 -0.1906  0.2296
   98SAPC  H14X 9762   2.373   0.994   3.744 -2.8379 -0.3880  0.2191
   98SAPC  H14Y 9763   2.267   1.136   3.723  1.0373  0.9521 -3.3037
   98SAPC  C315 9764   2.390   1.127   3.909 -0.2405  0.1816  0.7390
   98SAPC  H15X 9765   2.416   1.234   3.917  2.5015 -0.3517 -0.0391
   98SAPC  H15Y 9766   2.477   1.066   3.940  0.5791  1.6833  1.4535
   98SAPC  C316 9767   2.273   1.101   3.994 -1.0549 -0.3087  0.0143
   98SAPC  H16X 9768   2.306   1.105   4.100  1.1353 -1.7133 -0.5553
   98SAPC  H16Y 9769   2.228   1.001   3.974  0.3442 -0.8684 -0.4484
   98SAPC  C317 9770   2.162   1.205   3.982  0.4837 -0.7887 -0.0788
   98SAPC  H17X 9771   2.111   1.196   3.884 -1.0087 -1.4105  0.7224
   98SAPC  H17Y 9772   2.217   1.302   3.982  0.0018 -0.4973  1.1773
   98SAPC  C318 9773   2.061   1.206   4.092 -0.1921 -0.3208 -0.0907
   98SAPC  H18X 9774   1.982   1.284   4.090 -0.7099 -0.7382  1.8548
   98SAPC  H18Y 9775   2.095   1.196   4.198  1.2054 -2.0015 -0.6524
   98SAPC  H18Z 9776   2.000   1.113   4.089  2.8256 -2.4137 -1.6775
   99SAPC     N 9777   2.248   6.515   1.614  0.3488 -0.3203 -0.5775
   99SAPC   C12 9778   2.226   6.488   1.759 -0.7547  0.4205  0.4850
   99SAPC  H12A 9779   2.182   6.389   1.770 -0.6510  0.5179  1.8643
   99SAPC  H12B 9780   2.152   6.560   1.792 -2.5604 -1.9616  2.0113
   99SAPC   C13 9781   2.123   6.488   1.533  0.3184 -0.1858 -0.9701
   99SAPC  H13A 9782   2.108   6.384   1.510 -3.7221  0.2162 -0.9005
   99SAPC  H13B 9783   2.041   6.512   1.599  1.1848  0.7371 -0.1779
   99SAPC  H13C 9784   2.118   6.549   1.445 -2.1234 -0.9760 -1.4410
   99SAPC   C14 9785   2.289   6.660   1.605 -0.0032  0.1659  0.3648
   99SAPC  H14A 9786   2.306   6.691   1.503 -1.2137 -0.2041  0.0293
   99SAPC  H14B 9787   2.206   6.722   1.635 -0.7923 -1.6461  2.1552
   99SAPC  H14C 9788   2.381   6.680   1.658  0.9752  1.1906 -1.5797
   99SAPC   C15 9789   2.350   6.445   1.545 -0.4811 -0.5498 -0.0627
   99SAPC  H15A 9790   2.447   6.486   1.570 -0.0936 -1.2858 -0.3382
   99SAPC  H15B 9791   2.346   6.340   1.570  0.2275 -0.0888  2.2911
   99SAPC  H15C 9792   2.329   6.444   1.439  0.4543 -1.3344 -0.2481
   99SAPC   C11 9793   2.351   6.482   1.850  0.1079  0.0459 -0.0348
   99SAPC  H11A 9794   2.315   6.479   1.955  0.3140  1.0018  0.0751
   99SAPC  H11B 9795   2.405   6.579   1.849  0.7008 -0.2464  1.3241
   99SAPC     P 9796   2.439   6.242   1.866  0.0857 -0.3196  0.2472
   99SAPC   O13 9797   2.299   6.202   1.881 -0.5401 -0.0506  0.1402
   99SAPC   O14 9798   2.532   6.171   1.775  0.0418  0.0206 -0.8133
   99SAPC   O12 9799   2.449   6.386   1.811  0.0851 -0.5342 -0.1457
   99SAPC   O11 9800   2.494   6.260   2.007  0.2010  0.5788 -0.4947
   99SAPC    C1 9801   2.630   6.300   2.032  0.0578 -0.9670 -0.6548
   99SAPC    HA 9802   2.688   6.205   2.037  0.9494 -0.5301 -2.1638
   99SAPC    HB 9803   2.685   6.362   1.959  0.7074  3.2446  3.0335
   99SAPC    C2 9804   2.646   6.392   2.160 -0.5327  0.8913 -0.0678
   99SAPC    HS 9805   2.755   6.400   2.180 -0.5274 -0.6253  0.6593
   99SAPC   O21 9806   2.577   6.325   2.272  0.2979 -0.8830  0.4076
   99SAPC   C21 9807   2.641   6.218   2.303  0.3348  0.4662  0.0956
   99SAPC   O22 9808   2.753   6.185   2.263  0.1105  0.6919  0.3643
   99SAPC   C22 9809   2.575   6.140   2.414 -0.6963 -0.4651  0.3303
   99SAPC   H2R 9810   2.469   6.115   2.391 -1.2407  0.8068  1.3222
   99SAPC   H2S 9811   2.639   6.050   2.427 -0.0372 -0.0394  0.1171
   99SAPC    C3 9812   2.584   6.530   2.132 -0.1411  0.2135 -0.3662
   99SAPC    HX 9813   2.477   6.505   2.116 -0.6652  1.6386  0.7020
   99SAPC    HY 9814   2.631   6.579   2.044  5.0220  0.2227  2.0488
   99SAPC   O31 9815   2.582   6.622   2.249  0.1643 -0.5299  0.1212
   99SAPC   C31 9816   2.508   6.733   2.216 -0.2552  0.4168  0.2915
   99SAPC   O32 9817   2.487   6.772   2.104 -0.3084  0.3932 -0.2682
   99SAPC   C32 9818   2.454   6.797   2.347 -0.0556 -0.7472  0.0880
   99SAPC   H2X 9819   2.355   6.842   2.326  0.7113  1.7537  1.4695
   99SAPC   H2Y 9820   2.515   6.881   2.387  2.3116 -1.5548 -1.5874
   99SAPC   C23 9821   2.553   6.215   2.538  0.1529 -0.0739 -0.3284
   99SAPC   H3R 9822   2.460   6.273   2.522  0.3664  1.1667  2.4059
   99SAPC   H3S 9823   2.633   6.290   2.558  2.2392 -1.9459 -1.1681
   99SAPC   C24 9824   2.537   6.139   2.672 -0.4022 -0.3471 -0.7228
   99SAPC   H4R 9825   2.468   6.052   2.658  1.1126 -1.5636 -0.9489
   99SAPC   H4S 9826   2.505   6.210   2.751  2.0438  0.5161 -0.4428
   99SAPC   C25 9827   2.668   6.082   2.732 -0.1534  0.4955  0.3106
   99SAPC   H5R 9828   2.763   6.137   2.725  1.5904 -2.5192 -2.0261
   99SAPC   C26 9829   2.683   5.961   2.787 -0.1791 -0.2862 -0.6778
   99SAPC   H6R 9830   2.771   5.916   2.836 -1.1143 -0.6479  0.7350
   99SAPC   C27 9831   2.567   5.861   2.790 -0.3506 -0.0743 -0.0828
   99SAPC   H7R 9832   2.475   5.914   2.822  1.1303  1.2672  2.2704
   99SAPC   H7S 9833   2.592   5.789   2.871  2.2777  1.1223  0.2838
   99SAPC   C28 9834   2.544   5.780   2.667  0.1675  0.6728  0.1241
   99SAPC   H8R 9835   2.524   5.841   2.578  1.1514  0.2001 -0.4349
   99SAPC   C29 9836   2.545   5.643   2.658  0.5825 -0.1900  0.2508
   99SAPC   H9R 9837   2.533   5.590   2.562 -0.0642 -0.6578  0.5820
   99SAPC  C210 9838   2.580   5.547   2.771 -0.1040 -0.6152 -0.1763
   99SAPC  H10R 9839   2.518   5.455   2.771 -2.5380  0.9381  0.4348
   99SAPC  H10S 9840   2.534   5.591   2.862 -1.0652 -2.8198  0.4493
   99SAPC  C211 9841   2.728   5.525   2.789  0.2129  0.6287  0.2557
   99SAPC  H11R 9842   2.783   5.529   2.693  1.4933  0.3401  0.9596
   99SAPC  C212 9843   2.794   5.502   2.906  0.3427  0.0979  0.1086
   99SAPC  H12R 9844   2.904   5.494   2.901  0.3133  0.2303 -1.1093
   99SAPC  C213 9845   2.731   5.511   3.040  0.3190 -0.9419 -0.2128
   99SAPC  H13R 9846   2.778   5.441   3.112  3.0821  0.8109 -0.1271
   99SAPC  H13S 9847   2.627   5.475   3.035 -0.4529  1.1174 -0.1814
   99SAPC  C214 9848   2.728   5.655   3.084 -0.3102  0.2685 -0.2372
   99SAPC  H14R 9849   2.722   5.728   3.002  0.0410 -0.9741 -1.4000
   99SAPC  C215 9850   2.723   5.704   3.208  0.3738  0.4600  0.6198
   99SAPC  H15R 9851   2.713   5.813   3.215 -0.8456  0.4803 -0.9445
   99SAPC  C216 9852   2.709   5.628   3.339  0.1900 -0.0915  0.6056
   99SAPC  H16R 9853   2.799   5.566   3.361 -0.6219 -1.3393  0.4812
   99SAPC  H16S 9854   2.625   5.557   3.346  0.9080 -1.1062 -0.6421
   99SAPC  C217 9855   2.690   5.733   3.452 -0.7580  0.2909  0.0414
   99SAPC  H17R 9856   2.606   5.805   3.439  0.1937  1.4482  0.1599
   99SAPC  H17S 9857   2.776   5.802   3.466  0.6500 -0.8901 -2.2248
   99SAPC  C218 9858   2.670   5.660   3.581  0.5729  0.0122 -0.1270
   99SAPC  H18R 9859   2.750   5.584   3.588 -0.5853 -1.2439  0.0484
   99SAPC  H18S 9860   2.568   5.616   3.569  0.7232 -0.0594 -1.3021
   99SAPC  C219 9861   2.674   5.756   3.703 -0.4338  0.0855 -0.6323
   99SAPC  H19R 9862   2.754   5.830   3.679  1.4226 -1.7105 -0.1965
   99SAPC  H19S 9863   2.715   5.692   3.783 -0.0585 -1.2570 -1.8484
   99SAPC  C220 9864   2.539   5.822   3.728 -0.1457  0.6667  0.1873
   99SAPC  H20R 9865   2.544   5.896   3.810  0.9239  0.8961 -0.0697
   99SAPC  H20S 9866   2.467   5.746   3.766 -0.4672  1.0049  0.2553
   99SAPC  H20T 9867   2.496   5.861   3.633  0.6908 -0.4646 -0.6937
   99SAPC   C33 9868   2.403   6.694   2.455 -0.0939 -0.5877  0.5824
   99SAPC   H3X 9869   2.494   6.632   2.473 -0.6141 -2.1396 -1.7570
   99SAPC   H3Y 9870   2.322   6.632   2.412  1.3000 -1.8193 -0.3481
   99SAPC   C34 9871   2.355   6.757   2.576  0.0988 -0.0011  0.0332
   99SAPC   H4X 9872   2.251   6.785   2.552  0.9579  2.4287 -1.2654
   99SAPC   H4Y 9873   2.409   6.851   2.601 -1.5751  0.9871  0.0452
   99SAPC   C35 9874   2.362   6.677   2.703  0.2628  0.0185  0.0043
   99SAPC   H5X 9875   2.458   6.622   2.713 -0.3726 -0.9940  0.7029
   99SAPC   H5Y 9876   2.283   6.598   2.704  0.2234  0.0544  0.7627
   99SAPC   C36 9877   2.354   6.767   2.823 -0.6501  0.5996  0.1569
   99SAPC   H6X 9878   2.279   6.848   2.819 -0.2967  0.9119 -3.4187
   99SAPC   H6Y 9879   2.450   6.823   2.829 -0.3791  0.0991  0.5323
   99SAPC   C37 9880   2.339   6.690   2.955 -0.7695  0.5920  0.1074
   99SAPC   H7X 9881   2.420   6.614   2.945 -1.4742  0.0225 -1.4600
   99SAPC   H7Y 9882   2.248   6.626   2.963 -0.4831  0.1595 -0.0399
   99SAPC   C38 9883   2.361   6.771   3.087 -0.4089  0.1069  0.1120
   99SAPC   H8X 9884   2.289   6.854   3.103  0.9974  1.5366 -0.6820
   99SAPC   H8Y 9885   2.453   6.832   3.079 -1.3969  2.3008  3.3577
   99SAPC   C39 9886   2.375   6.670   3.202 -0.4276  0.5419 -0.4145
   99SAPC   H9X 9887   2.469   6.613   3.184 -1.0871 -0.2009 -1.5987
   99SAPC   H9Y 9888   2.293   6.595   3.204  0.1262 -0.0603  0.4364
   99SAPC  C310 9889   2.377   6.754   3.330  0.1473 -0.0098  0.2055
   99SAPC  H10X 9890   2.288   6.821   3.330  1.3081  1.7065 -2.1309
   99SAPC  H10Y 9891   2.470   6.815   3.324  0.2472 -0.2704 -1.3082
   99SAPC  C311 9892   2.388   6.674   3.456 -0.2450 -0.0380 -0.4358
   99SAPC  H11X 9893   2.484   6.619   3.453 -0.7870 -0.9715 -2.6924
   99SAPC  H11Y 9894   2.317   6.589   3.466 -0.6262  0.3423  0.2296
   99SAPC  C312 9895   2.371   6.762   3.578  0.8150  0.0602 -0.6699
   99SAPC  H12X 9896   2.266   6.793   3.595  1.6290  1.0089  4.2013
   99SAPC  H12Y 9897   2.425   6.856   3.555  0.9156 -0.1392 -1.2877
   99SAPC  C313 9898   2.442   6.713   3.705  0.1458  0.7488 -0.2730
   99SAPC  H13X 9899   2.445   6.796   3.779 -0.1133 -0.1596  0.7611
   99SAPC  H13Y 9900   2.548   6.685   3.686  0.8893  1.5578  2.3675
   99SAPC  C314 9901   2.390   6.578   3.756 -0.6148 -0.0886 -0.0831
   99SAPC  H14X 9902   2.419   6.495   3.689  0.9524 -1.5230  2.2332
   99SAPC  H14Y 9903   2.279   6.586   3.760 -0.5369  1.4533 -0.1653
   99SAPC  C315 9904   2.445   6.549   3.895 -0.1173 -0.3690  0.1001
   99SAPC  H15X 9905   2.553   6.577   3.896 -0.5770  1.5588  1.8917
   99SAPC  H15Y 9906   2.436   6.440   3.918 -0.7381 -0.2488  0.4239
   99SAPC  C316 9907   2.364   6.631   3.997 -0.4316 -0.0643  0.8872
   99SAPC  H16X 9908   2.254   6.615   4.007 -0.5974  0.8781  0.6620
   99SAPC  H16Y 9909   2.357   6.731   3.949 -2.8400 -0.5181  0.1448
   99SAPC  C317 9910   2.432   6.637   4.132 -0.1323 -0.0969 -1.5055
   99SAPC  H17X 9911   2.409   6.728   4.192 -2.2840 -0.6553 -1.3831
   99SAPC  H17Y 9912   2.538   6.649   4.103 -0.0073 -1.8175 -1.8552
   99SAPC  C318 9913   2.411   6.516   4.216  0.3979  0.0070 -0.4271
   99SAPC  H18X 9914   2.472   6.512   4.309  1.3245  0.9001 -0.9727
   99SAPC  H18Y 9915   2.435   6.424   4.158 -1.1497 -0.2321 -0.7190
   99SAPC  H18Z 9916   2.302   6.508   4.236  0.3549 -0.3244 -0.7791
  100SAPC     N 9917   1.939   3.858   2.360  0.2402 -0.1243 -0.2703
  100SAPC   C12 9918   2.021   3.987   2.390  0.1440 -0.0079  0.3811
  100SAPC  H12A 9919   2.097   3.984   2.313 -0.5008 -2.0191 -0.2355
  100SAPC  H12B 9920   2.071   3.985   2.485 -0.5346  0.7474  0.7642
  100SAPC   C13 9921   2.021   3.750   2.305 -0.4398  0.1974  0.3821
  100SAPC  H13A 9922   2.103   3.712   2.364 -0.2960 -2.3909 -1.2782
  100SAPC  H13B 9923   1.963   3.664   2.275 -1.2336  1.2915 -1.3578
  100SAPC  H13C 9924   2.068   3.784   2.214 -1.7980 -0.9039 -0.7819
  100SAPC   C14 9925   1.868   3.805   2.487  0.2154  0.0545  0.2983
  100SAPC  H14A 9926   1.818   3.891   2.528 -0.0566 -0.2952  0.7118
  100SAPC  H14B 9927   1.797   3.730   2.456  0.4582 -0.0050 -0.1254
  100SAPC  H14C 9928   1.939   3.766   2.559 -0.3252 -2.1313 -0.2696
  100SAPC   C15 9929   1.848   3.880   2.246 -0.3434 -0.3555  0.1381
  100SAPC  H15A 9930   1.914   3.927   2.175  2.2099 -1.5798  1.5800
  100SAPC  H15B 9931   1.803   3.795   2.198  1.1097 -0.6806 -0.6925
  100SAPC  H15C 9932   1.766   3.943   2.280  1.1038  1.6513  0.1031
  100SAPC   C11 9933   1.955   4.124   2.373  0.1693 -0.2269 -0.4628
  100SAPC  H11A 9934   1.928   4.129   2.266  3.3420 -1.8875 -1.4718
  100SAPC  H11B 9935   2.033   4.198   2.402 -0.5718  1.6716 -2.9488
  100SAPC     P 9936   1.731   4.253   2.432  0.2053  0.3942 -0.1974
  100SAPC   O13 9937   1.744   4.301   2.292  0.5405 -0.0899 -0.4012
  100SAPC   O14 9938   1.597   4.203   2.468 -0.8067 -0.4723  0.1089
  100SAPC   O12 9939   1.836   4.140   2.456 -0.1615 -0.6045 -0.0708
  100SAPC   O11 9940   1.761   4.371   2.535 -0.3969 -0.3304 -0.0294
  100SAPC    C1 9941   1.890   4.413   2.579  0.3938 -0.2055  0.3785
  100SAPC    HA 9942   1.974   4.379   2.514 -1.1196 -1.1206 -1.1788
  100SAPC    HB 9943   1.883   4.524   2.567  1.2708 -0.3773 -2.6917
  100SAPC    C2 9944   1.904   4.392   2.732  0.4194 -0.6535 -0.0084
  100SAPC    HS 9945   2.003   4.436   2.758  0.4141  1.2094 -2.7969
  100SAPC   O21 9946   1.903   4.255   2.768 -0.2484 -0.3153  0.3308
  100SAPC   C21 9947   2.016   4.185   2.731  0.0362 -0.2122 -0.0520
  100SAPC   O22 9948   2.116   4.231   2.679  0.3976 -0.6428  0.3944
  100SAPC   C22 9949   1.993   4.036   2.760 -0.0044  0.4337  0.2087
  100SAPC   H2R 9950   1.895   4.021   2.811  0.5928  3.4285  2.5195
  100SAPC   H2S 9951   2.005   3.989   2.660 -0.0411  0.1640  0.3291
  100SAPC    C3 9952   1.785   4.464   2.807 -0.2021 -0.7844  0.0692
  100SAPC    HX 9953   1.694   4.417   2.765  0.0921 -1.6835  0.4226
  100SAPC    HY 9954   1.776   4.574   2.789 -0.9124 -0.7303  0.7154
  100SAPC   O31 9955   1.810   4.443   2.945 -0.1153  0.4687 -0.1454
  100SAPC   C31 9956   1.726   4.366   3.013  0.6156  0.4069  0.1641
  100SAPC   O32 9957   1.617   4.338   2.969 -0.2123  0.1931  0.3206
  100SAPC   C32 9958   1.778   4.319   3.149 -0.4790 -0.5765  0.4847
  100SAPC   H2X 9959   1.818   4.417   3.181 -0.8666  0.2820 -1.5400
  100SAPC   H2Y 9960   1.860   4.245   3.139  0.7422  0.9686 -1.6347
  100SAPC   C23 9961   2.094   3.977   2.869 -0.0568 -0.0224  0.1961
  100SAPC   H3R 9962   2.204   3.989   2.858 -0.4565  3.8338 -0.6931
  100SAPC   H3S 9963   2.069   3.868   2.869 -0.2147  0.0127 -0.1197
  100SAPC   C24 9964   2.050   4.026   3.009  0.0930  0.0909 -0.6635
  100SAPC   H4R 9965   2.086   3.951   3.083  0.6085  0.6466 -0.3380
  100SAPC   H4S 9966   1.941   4.039   3.025  0.4538  0.7713  1.6909
  100SAPC   C25 9967   2.103   4.168   3.042 -0.5616  0.1774 -0.4108
  100SAPC   H5R 9968   2.095   4.249   2.968  1.3888  0.5008 -0.3357
  100SAPC   C26 9969   2.171   4.211   3.156  0.5523  0.7374  0.1431
  100SAPC   H6R 9970   2.222   4.308   3.148  1.3318  0.2531 -1.2222
  100SAPC   C27 9971   2.208   4.132   3.281  0.9164  0.1967 -0.2366
  100SAPC   H7R 9972   2.317   4.143   3.297  0.7993  0.5198  0.3763
  100SAPC   H7S 9973   2.191   4.024   3.260  2.2174  0.0820 -0.7888
  100SAPC   C28 9974   2.133   4.182   3.408 -0.0479 -0.2413 -0.1344
  100SAPC   H8R 9975   2.046   4.244   3.381  1.1731  2.0133  0.8490
  100SAPC   C29 9976   2.167   4.162   3.543  0.2211  0.6244 -0.3067
  100SAPC   H9R 9977   2.111   4.197   3.631  0.3445 -1.5643  0.7114
  100SAPC  C210 9978   2.280   4.071   3.591  0.4935 -0.5287  0.3628
  100SAPC  H10R 9979   2.348   4.056   3.504 -1.0651 -0.0019 -0.9985
  100SAPC  H10S 9980   2.244   3.971   3.625 -1.6293 -0.1258 -0.5343
  100SAPC  C211 9981   2.365   4.120   3.702  0.5321  0.0870 -0.3202
  100SAPC  H11R 9982   2.426   4.208   3.673  0.8258 -0.1735 -0.4947
  100SAPC  C212 9983   2.369   4.078   3.834  0.2608  0.5348  0.6818
  100SAPC  H12R 9984   2.439   4.130   3.901 -1.6137  1.1259  2.2955
  100SAPC  C213 9985   2.298   3.959   3.894 -0.1762 -0.6586 -0.4217
  100SAPC  H13R 9986   2.361   3.868   3.904  0.6052  0.0863  2.3897
  100SAPC  H13S 9987   2.211   3.948   3.826 -0.3989  0.0623 -0.2624
  100SAPC  C214 9988   2.263   3.996   4.031  0.1839  0.3664 -0.3412
  100SAPC  H14R 9989   2.190   4.078   4.026  0.3910  0.4784 -2.5590
  100SAPC  C215 9990   2.281   3.927   4.149 -0.1441  0.1878 -0.7170
  100SAPC  H15R 9991   2.240   3.962   4.245 -0.5406 -0.9967 -0.4263
  100SAPC  C216 9992   2.347   3.799   4.166  0.1714  0.2128 -0.1053
  100SAPC  H16R 9993   2.407   3.810   4.259 -1.9630  1.5254  1.2103
  100SAPC  H16S 9994   2.408   3.767   4.079 -3.4443 -2.6738 -1.8734
  100SAPC  C217 9995   2.239   3.687   4.188  0.1593  0.7942 -0.9970
  100SAPC  H17R 9996   2.287   3.587   4.186  2.8807  1.9750  0.3692
  100SAPC  H17S 9997   2.161   3.695   4.109 -0.0196 -1.9195 -1.1986
  100SAPC  C218 9998   2.163   3.703   4.323  0.3100  0.1461 -0.3137
  100SAPC  H18R 9999   2.108   3.799   4.333 -3.7602 -1.9463 -0.6346
  100SAPC  H18S10000   2.238   3.705   4.405  0.8317  1.2574 -0.7951
  100SAPC  C21910001   2.052   3.596   4.338 -0.5070  0.0517 -0.1750
  100SAPC  H19R10002   2.099   3.496   4.353  0.5257  0.7814  1.9161
  100SAPC  H19S10003   1.985   3.599   4.250 -1.1557 -0.9110  0.2714
  100SAPC  C22010004   1.956   3.623   4.454  0.3664  0.3476  0.0968
  100SAPC  H20R10005   1.914   3.522   4.477 -0.6287  0.3059 -1.8049
  100SAPC  H20S10006   1.864   3.675   4.421  1.1185  1.1201 -0.8108
  100SAPC  H20T10007   2.018   3.661   4.538  1.6250 -3.6989  1.2716
  100SAPC   C3310008   1.665   4.277   3.249 -0.1977 -0.1300 -1.1448
  100SAPC   H3X10009   1.623   4.182   3.211 -2.6855  0.6269 -0.4791
  100SAPC   H3Y10010   1.582   4.351   3.249 -0.1090  0.0222  0.5772
  100SAPC   C3410011   1.724   4.264   3.387  0.4113  0.0153  0.4190
  100SAPC   H4X10012   1.770   4.358   3.424  0.5973 -0.1071  0.4940
  100SAPC   H4Y10013   1.812   4.197   3.393  0.5413  0.2049  0.6331
  100SAPC   C3510014   1.625   4.201   3.493  0.4104 -0.2512  0.1280
  100SAPC   H5X10015   1.567   4.112   3.460  1.2877 -1.9881  2.9598
  100SAPC   H5Y10016   1.556   4.285   3.515  0.4784 -0.4667  1.1888
  100SAPC   C3610017   1.694   4.174   3.625  0.4459 -0.0519 -0.2418
  100SAPC   H6X10018   1.754   4.258   3.664  0.4439 -0.8360  1.5519
  100SAPC   H6Y10019   1.765   4.088   3.626  0.9096  0.3124 -0.9270
  100SAPC   C3710020   1.599   4.132   3.742 -0.7708  0.7373  0.2875
  100SAPC   H7X10021   1.662   4.113   3.831  0.2780 -0.8498 -0.7543
  100SAPC   H7Y10022   1.547   4.037   3.720 -0.6758  0.5004  1.0448
  100SAPC   C3810023   1.497   4.238   3.775  0.3111 -0.1978  0.6303
  100SAPC   H8X10024   1.401   4.187   3.756 -0.0091  0.4763  0.4102
  100SAPC   H8Y10025   1.499   4.324   3.705  0.8534 -0.1071  0.7495
  100SAPC   C3910026   1.498   4.299   3.918  0.4679 -0.1256  0.2622
  100SAPC   H9X10027   1.409   4.364   3.927  2.4527  2.6521  1.4966
  100SAPC   H9Y10028   1.585   4.367   3.905  2.0771 -2.4427 -1.8864
  100SAPC  C31010029   1.506   4.210   4.044  0.5366 -0.6461  0.7887
  100SAPC  H10X10030   1.604   4.158   4.034  0.2182 -1.1608  0.3688
  100SAPC  H10Y10031   1.422   4.138   4.047 -2.1414  2.2307  0.2538
  100SAPC  C31110032   1.508   4.288   4.173 -0.2955 -0.3431 -0.4746
  100SAPC  H11X10033   1.426   4.363   4.184  1.0261  1.0033  0.7042
  100SAPC  H11Y10034   1.601   4.349   4.168 -1.1304  1.0315  0.0250
  100SAPC  C31210035   1.528   4.194   4.292  0.1204  0.5082 -0.2836
  100SAPC  H12X10036   1.544   4.261   4.379 -3.0076  0.6824  0.2802
  100SAPC  H12Y10037   1.621   4.135   4.275 -0.5709 -0.4159 -0.9871
  100SAPC  C31310038   1.405   4.106   4.321 -0.3109 -0.0534  0.3194
  100SAPC  H13X10039   1.382   4.039   4.236  0.9504  1.8102 -1.6005
  100SAPC  H13Y10040   1.318   4.166   4.357 -0.5318 -0.9480  1.3090
  100SAPC  C31410041   1.441   4.020   4.449  0.0496  0.6127  0.6082
  100SAPC  H14X10042   1.465   4.080   4.539  0.2807 -0.7445  1.4710
  100SAPC  H14Y10043   1.533   3.962   4.429  0.6644  2.0749 -1.2261
  100SAPC  C31510044   1.315   3.942   4.483 -0.4422 -0.2326 -0.7047
  100SAPC  H15X10045   1.228   4.008   4.505 -0.6861 -0.4269 -1.0707
  100SAPC  H15Y10046   1.340   3.883   4.574 -0.3103  2.1764  0.8857
  100SAPC  C31610047   1.286   3.828   4.388  0.5048 -0.7780  0.1424
  100SAPC  H16X10048   1.338   3.846   4.291 -0.1402  2.5828  0.2775
  100SAPC  H16Y10049   1.176   3.823   4.371  0.4139  0.0367  0.4221
  100SAPC  C31710050   1.323   3.693   4.434 -0.4845 -0.6815 -0.2539
  100SAPC  H17X10051   1.303   3.629   4.346  3.6248  0.8035 -2.5276
  100SAPC  H17Y10052   1.263   3.648   4.517 -0.0561 -2.5714 -0.9247
  100SAPC  C31810053   1.473   3.665   4.462  0.6983  0.0845  0.1553
  100SAPC  H18X10054   1.511   3.719   4.552  0.1281 -0.5857  0.8133
  100SAPC  H18Y10055   1.531   3.706   4.377 -0.1242 -0.5508 -0.7268
  100SAPC  H18Z10056   1.491   3.556   4.472  1.6496  0.3862  2.5488
  101OSM      N10057   4.522   3.875   6.807 -0.2703  0.2125  0.0260
  101OSM    C1510058   4.449   3.779   6.888  0.3707  0.1819 -0.9493
  101OSM   H15A10059   4.369   3.726   6.837 -0.1462 -0.4157  0.4406
  101OSM   H15B10060   4.415   3.827   6.978  0.1349 -1.2722 -0.2246
  101OSM   H15C10061   4.515   3.705   6.930  0.1208  0.9599  0.9276
  101OSM    C1410062   4.425   3.983   6.755  0.3172  0.0251  0.0672
  101OSM   H14A10063   4.370   3.933   6.677  1.8098 -0.8512 -0.4733
  101OSM   H14B10064   4.482   4.060   6.705  0.8620  0.7494  1.7316
  101OSM   H14C10065   4.361   4.024   6.832  0.7907 -2.7863  2.1154
  101OSM    C1310066   4.622   3.947   6.890  0.5827  0.0647 -0.4478
  101OSM   H13A10067   4.565   4.000   6.964  2.1744 -1.4439  1.9726
  101OSM   H13B10068   4.676   4.015   6.826  0.1354  1.9779  1.1437
  101OSM   H13C10069   4.686   3.881   6.946  0.2575 -0.3113 -0.5122
  101OSM    C1210070   4.597   3.806   6.697  0.1083  0.2871  0.0879
  101OSM   H12A10071   4.526   3.785   6.619 -1.1701  1.3158  0.9351
  101OSM   H12B10072   4.642   3.715   6.734 -1.7581 -1.1280 -0.9556
  101OSM    C1110073   4.712   3.881   6.637  0.6499  0.6218  0.0378
  101OSM   H11A10074   4.794   3.907   6.708 -0.2441  1.3546  0.8428
  101OSM   H11B10075   4.667   3.979   6.611  2.6870  1.1621 -1.7909
  101OSM      P10076   4.817   3.672   6.531 -0.1472 -0.0431  0.5230
  101OSM    O1310077   4.953   3.688   6.586 -0.6630 -0.3188 -0.2693
  101OSM    O1410078   4.736   3.572   6.602 -0.2676 -0.0860  0.0007
  101OSM    O1110079   4.822   3.623   6.380 -0.6427  0.3171 -0.0420
  101OSM    O1210080   4.749   3.809   6.520 -0.0566  0.1933 -0.9793
  101OSM    C1S10081   4.804   3.717   6.274 -0.2803 -0.0734 -0.5375
  101OSM    H1S10082   4.880   3.799   6.278  2.5934 -2.5889 -0.1340
  101OSM    H1T10083   4.705   3.767   6.275 -0.0750  0.4776 -3.0471
  101OSM     NF10084   4.820   3.748   6.031 -0.8619  0.1167  0.7865
  101OSM    HNF10085   4.733   3.748   5.983 -0.3460  0.8587 -0.2087
  101OSM    C2S10086   4.830   3.652   6.135 -0.7017  0.3826  0.7051
  101OSM    H2S10087   4.936   3.621   6.130 -0.4588  1.3340 -0.4082
  101OSM    C3S10088   4.738   3.524   6.106  0.1587 -0.0282 -0.2310
  101OSM    H3S10089   4.631   3.557   6.105  0.2733  0.3365 -0.5008
  101OSM     O310090   4.737   3.427   6.212 -0.9878  0.0814  0.0251
  101OSM    HO310091   4.791   3.470   6.279 -0.8503 -1.7738  1.1850
  101OSM    C4S10092   4.760   3.453   5.974 -0.6912  0.2650  0.3033
  101OSM    H4S10093   4.692   3.479   5.891  1.1441  0.2478 -1.2697
  101OSM    C5S10094   4.842   3.347   5.949  0.3714 -1.2321 -0.9529
  101OSM    H5S10095   4.890   3.305   6.039 -1.3651 -0.7854  0.2179
  101OSM    C6S10096   4.851   3.270   5.822 -0.2750  0.0890 -0.5621
  101OSM    H6S10097   4.829   3.161   5.831 -0.4955  0.2124  0.5893
  101OSM    H6T10098   4.958   3.271   5.792 -0.3033  1.1188 -0.6408
  101OSM    C7S10099   4.764   3.308   5.707 -0.5097 -0.3509  1.0990
  101OSM    H7S10100   4.768   3.416   5.679 -0.7870 -0.6619 -0.1839
  101OSM    H7T10101   4.659   3.295   5.740 -0.2280  2.5871  3.6178
  101OSM    C8S10102   4.791   3.223   5.571 -0.7262 -0.6457  0.6702
  101OSM    H8S10103   4.804   3.117   5.602  1.5304  0.3814  3.7272
  101OSM    H8T10104   4.887   3.260   5.529 -1.8111  2.7244  0.8342
  101OSM    C9S10105   4.685   3.252   5.466  0.2583  0.1124  0.0120
  101OSM    H9S10106   4.688   3.361   5.449 -0.8015  0.0679 -0.5048
  101OSM    H9T10107   4.582   3.223   5.497  1.0951 -2.6509  0.4846
  101OSM   C10S10108   4.716   3.190   5.329 -0.4114  0.6803  0.8099
  101OSM   H10S10109   4.726   3.079   5.332 -2.8682  0.1845 -2.8387
  101OSM   H10T10110   4.819   3.222   5.303 -0.9962  1.5976 -0.4657
  101OSM   C11S10111   4.626   3.211   5.211  0.4355 -0.5435 -0.7604
  101OSM   H11S10112   4.603   3.319   5.202 -1.2867 -0.8652 -0.6842
  101OSM   H11T10113   4.525   3.167   5.229  0.2623  0.5494  1.2443
  101OSM   C12S10114   4.666   3.145   5.080  0.0579 -0.1074  0.2938
  101OSM   H12S10115   4.666   3.035   5.094  3.6041 -0.1366  1.0407
  101OSM   H12T10116   4.772   3.179   5.068 -0.3361  1.3170  0.6314
  101OSM   C13S10117   4.591   3.187   4.956  0.4628 -0.9097  0.4904
  101OSM   H13S10118   4.481   3.187   4.973  0.3151  1.4368 -0.0624
  101OSM   H13T10119   4.615   3.118   4.872  0.1655 -2.8355  1.9319
  101OSM   C14S10120   4.629   3.333   4.921 -0.1955 -0.3183  0.0085
  101OSM   H14S10121   4.739   3.348   4.916 -0.0960 -1.2020 -3.7010
  101OSM   H14T10122   4.580   3.407   4.988 -0.3912 -1.5382  1.2659
  101OSM   C15S10123   4.570   3.366   4.788 -0.5746 -0.3876 -0.4905
  101OSM   H15S10124   4.589   3.471   4.755 -0.4371 -0.5381 -0.8989
  101OSM   H15T10125   4.462   3.340   4.786 -0.4764 -0.8815  0.3675
  101OSM   C16S10126   4.638   3.292   4.675  0.0033 -0.3851 -0.3728
  101OSM   H16S10127   4.603   3.186   4.670 -2.0369  0.2097  0.1350
  101OSM   H16T10128   4.747   3.302   4.691 -0.1205  1.2474 -0.4618
  101OSM   C17S10129   4.625   3.350   4.533  0.0711 -0.2341 -0.6278
  101OSM   H17S10130   4.637   3.459   4.514  0.3890  0.0435  1.0050
  101OSM   H17T10131   4.527   3.325   4.488 -1.2225  2.0684  0.7123
  101OSM   C18S10132   4.724   3.274   4.453 -0.2182  0.2317  0.4616
  101OSM   H18S10133   4.737   3.172   4.494 -1.6704  0.3231  1.1866
  101OSM   H18T10134   4.819   3.331   4.459  0.5822 -0.4657 -3.1215
  101OSM   H18U10135   4.696   3.272   4.345  0.4327 -3.6089  0.2255
  101OSM    C1F10136   4.911   3.850   6.005 -0.4343  0.1283 -0.4907
  101OSM     OF10137   5.025   3.853   6.053 -0.0865 -0.0026  0.1818
  101OSM    C2F10138   4.861   3.967   5.926 -0.1749  0.3910 -0.5243
  101OSM    H2F10139   4.753   3.981   5.949 -0.8161 -0.0271 -3.0127
  101OSM    H2G10140   4.880   3.939   5.820  0.0059  3.0510 -1.2923
  101OSM    C3F10141   4.932   4.100   5.957  0.4630  0.0162  0.7945
  101OSM    H3F10142   5.042   4.088   5.964  0.3430 -1.3339  0.4965
  101OSM    H3G10143   4.904   4.124   6.062 -0.4656 -1.4941  0.9198
  101OSM    C4F10144   4.894   4.213   5.862 -0.2061 -0.0859  0.2903
  101OSM    H4F10145   4.916   4.312   5.907 -2.7525  2.4375 -3.4544
  101OSM    H4G10146   4.788   4.211   5.829 -0.6567 -0.2476  1.6838
  101OSM    C5F10147   5.003   4.211   5.749 -0.0092 -0.6273 -0.3023
  101OSM    H5F10148   5.001   4.116   5.691  1.0031 -1.0483  0.3247
  101OSM    H5G10149   5.106   4.230   5.784  0.3758  1.4660 -2.3164
  101OSM    C6F10150   4.968   4.322   5.655  0.0635  0.2057 -0.1146
  101OSM    H6F10151   4.951   4.415   5.713 -0.3175  1.2259 -1.7823
  101OSM    H6G10152   4.876   4.298   5.596 -0.9529  0.5826  1.2582
  101OSM    C7F10153   5.071   4.342   5.548 -0.2334 -0.4956  0.1243
  101OSM    H7F10154   5.063   4.258   5.476  0.2363 -1.3519  1.0514
  101OSM    H7G10155   5.172   4.341   5.594 -0.5016 -0.6528  0.7160
  101OSM    C8F10156   5.063   4.479   5.469 -0.2647  0.3814 -0.1226
  101OSM    H8F10157   5.163   4.493   5.422  1.0413 -3.4169  1.1017
  101OSM    H8G10158   5.053   4.544   5.558 -1.9107 -0.3520  0.2610
  101OSM    C9F10159   4.954   4.506   5.367 -0.5284 -0.7502 -0.2409
  101OSM    H9F10160   4.866   4.559   5.405 -0.3035 -0.8068  0.3618
  101OSM   C10F10161   4.943   4.448   5.245 -0.4435 -0.9925 -0.3523
  101OSM   H10F10162   4.855   4.464   5.182 -0.4480 -2.9630 -0.9127
  101OSM   C11F10163   5.066   4.393   5.180 -0.3282 -0.4889 -0.2657
  101OSM   H11F10164   5.070   4.283   5.196 -1.9045 -0.6806 -0.8874
  101OSM   H11G10165   5.161   4.432   5.222  0.2411 -0.8552 -1.1714
  101OSM   C12F10166   5.076   4.414   5.025  0.1085  0.4422 -0.0933
  101OSM   H12F10167   4.971   4.400   4.992 -0.8101  0.9193  2.4128
  101OSM   H12G10168   5.149   4.341   4.985  1.0412  2.0782 -1.4913
  101OSM   C13F10169   5.119   4.553   4.980 -0.1060 -0.1715  0.3980
  101OSM   H13F10170   5.218   4.583   5.022 -0.4633  2.1607 -0.3099
  101OSM   H13G10171   5.046   4.624   5.023  2.2255  1.2626  2.2385
  101OSM   C14F10172   5.127   4.567   4.827  0.5172  0.5565 -1.3289
  101OSM   H14F10173   5.024   4.548   4.791 -1.1579  2.6438  1.8705
  101OSM   H14G10174   5.192   4.482   4.797 -1.0459 -1.6756  1.2016
  101OSM   C15F10175   5.164   4.703   4.775 -0.3857 -0.7961  0.0400
  101OSM   H15F10176   5.263   4.729   4.818 -0.9015  1.4228  0.0391
  101OSM   H15G10177   5.088   4.777   4.809 -0.2864 -1.3265  1.4890
  101OSM   C16F10178   5.172   4.711   4.620 -0.3480 -0.4940  0.1397
  101OSM   H16F10179   5.076   4.703   4.566  0.0189 -2.1412 -0.3098
  101OSM   H16G10180   5.241   4.633   4.582  0.4077 -0.4245  1.2968
  101OSM   C17F10181   5.245   4.841   4.567  0.2758  0.5702  0.8944
  101OSM   H17F10182   5.219   4.849   4.460  0.1259 -1.0347  0.7821
  101OSM   H17G10183   5.356   4.830   4.564  0.3635  1.5498 -1.9108
  101OSM   C18F10184   5.218   4.981   4.628 -0.4110  1.2524 -0.3990
  101OSM   H18F10185   5.113   5.014   4.640 -0.6159  0.5569 -0.2722
  101OSM   H18G10186   5.271   5.066   4.581 -0.2032  1.7490  0.7075
  101OSM   H18H10187   5.242   4.981   4.736 -1.9915  0.0217 -0.0107
  102OSM      N10188   6.202   3.980   6.851  0.4858 -0.4796  0.2571
  102OSM    C1510189   6.290   3.912   6.951  0.3925  0.0847  0.0877
  102OSM   H15A10190   6.336   3.979   7.022  0.3370 -1.6487  1.8365
  102OSM   H15B10191   6.372   3.854   6.909  0.0744 -1.7842  1.8750
  102OSM   H15C10192   6.238   3.842   7.015 -1.3865 -0.4368 -1.8182
  102OSM    C1410193   6.103   4.061   6.922  0.3500 -0.4632 -0.4735
  102OSM   H14A10194   6.022   4.003   6.964  0.8746  0.1198  1.4334
  102OSM   H14B10195   6.054   4.136   6.861 -1.2089 -0.0109  1.2532
  102OSM   H14C10196   6.146   4.126   6.997 -1.8578 -0.7544  1.1380
  102OSM    C1310197   6.276   4.073   6.764 -0.6689  0.1909 -0.5335
  102OSM   H13A10198   6.195   4.117   6.708 -2.8272 -0.9904  1.4918
  102OSM   H13B10199   6.347   4.024   6.699 -1.5724 -3.2437  0.8673
  102OSM   H13C10200   6.329   4.143   6.826 -1.3515 -0.6810  1.0862
  102OSM    C1210201   6.129   3.877   6.757  0.2314  0.1697  0.8387
  102OSM   H12A10202   6.208   3.848   6.689 -0.6146 -0.3023  0.0529
  102OSM   H12B10203   6.054   3.928   6.698  0.7143 -0.3791 -0.2837
  102OSM    C1110204   6.058   3.755   6.812  1.0677 -0.3725 -1.1707
  102OSM   H11A10205   6.133   3.703   6.875  1.7643  0.5907 -1.1800
  102OSM   H11B10206   6.032   3.690   6.726  2.5655 -1.0382 -1.1451
  102OSM      P10207   5.791   3.778   6.821 -0.0772  0.2657  0.1751
  102OSM    O1310208   5.704   3.697   6.909 -0.2689 -0.2339  0.3325
  102OSM    O1410209   5.750   3.915   6.785 -0.6079 -0.7094  0.3155
  102OSM    O1110210   5.809   3.705   6.682 -0.0906  0.2624 -0.2955
  102OSM    O1210211   5.933   3.785   6.887 -0.3479  0.2986  0.0377
  102OSM    C1S10212   5.704   3.719   6.581 -0.2596  0.7518  0.3011
  102OSM    H1S10213   5.673   3.825   6.572 -0.7977  0.5768 -0.0017
  102OSM    H1T10214   5.625   3.647   6.612  0.9774 -0.2268  1.2965
  102OSM     NF10215   5.654   3.680   6.337 -0.1015 -0.4252 -0.1839
  102OSM    HNF10216   5.644   3.594   6.287 -0.2891 -0.8713  0.5963
  102OSM    C2S10217   5.754   3.682   6.443 -0.0383  0.1596  0.6041
  102OSM    H2S10218   5.829   3.760   6.421 -1.1381  0.9807 -0.3704
  102OSM    C3S10219   5.835   3.550   6.439 -0.4344  0.1274  0.3345
  102OSM    H3S10220   5.749   3.480   6.441 -0.9651  0.7756  1.0042
  102OSM     O310221   5.923   3.519   6.548 -0.0263  0.3225  0.2821
  102OSM    HO310222   5.893   3.581   6.614 -2.1018  0.2510 -0.5092
  102OSM    C4S10223   5.909   3.526   6.307 -0.3936 -0.6416 -0.4023
  102OSM    H4S10224   5.845   3.472   6.235 -0.3741  0.3377 -1.1711
  102OSM    C5S10225   6.038   3.558   6.271  0.0653 -0.2216 -0.3085
  102OSM    H5S10226   6.104   3.604   6.346  0.5106 -0.6171 -0.4518
  102OSM    C6S10227   6.101   3.526   6.137  0.2757 -0.1436  0.5845
  102OSM    H6S10228   6.194   3.467   6.153 -0.6528 -1.4487  1.3576
  102OSM    H6T10229   6.136   3.620   6.090 -4.3438  0.3037 -2.6010
  102OSM    C7S10230   6.012   3.447   6.042 -0.3168 -0.3844 -0.3737
  102OSM    H7S10231   5.910   3.490   6.036 -0.8668 -1.7675 -1.7778
  102OSM    H7T10232   6.016   3.339   6.068  1.3072  0.1371  1.7342
  102OSM    C8S10233   6.066   3.462   5.895 -0.4304 -0.3954  0.3525
  102OSM    H8S10234   6.165   3.410   5.898  0.2099  0.6680 -1.1699
  102OSM    H8T10235   6.090   3.569   5.880 -0.2729 -0.4204  0.4214
  102OSM    C9S10236   5.981   3.405   5.778  0.3953  0.1016  0.0766
  102OSM    H9S10237   5.884   3.459   5.780 -1.0065 -2.2836  0.0365
  102OSM    H9T10238   5.974   3.295   5.792 -0.6980  0.3559  1.7951
  102OSM   C10S10239   6.055   3.433   5.648 -0.1962  0.3526 -0.6046
  102OSM   H10S10240   6.150   3.378   5.669 -1.7583 -1.0820  3.9765
  102OSM   H10T10241   6.085   3.538   5.627 -1.4076  0.9770  0.6451
  102OSM   C11S10242   5.991   3.360   5.530  0.4413  0.2437  0.0674
  102OSM   H11S10243   5.916   3.429   5.486  2.0896  1.2062 -1.3804
  102OSM   H11T10244   5.945   3.266   5.565 -3.1637  1.9692  0.3544
  102OSM   C12S10245   6.091   3.339   5.420  0.2134  0.9558  1.1168
  102OSM   H12S10246   6.152   3.248   5.436  0.7920  0.7066 -1.8417
  102OSM   H12T10247   6.159   3.427   5.425  0.4268  0.9626 -1.0319
  102OSM   C13S10248   6.028   3.326   5.274 -0.5704 -0.4987 -0.6593
  102OSM   H13S10249   6.118   3.302   5.212 -0.9727 -3.2552 -0.2984
  102OSM   H13T10250   5.992   3.431   5.270 -1.1601 -0.7039 -0.9430
  102OSM   C14S10251   5.918   3.219   5.260  0.2263  1.1201  0.0870
  102OSM   H14S10252   5.856   3.243   5.350  2.2649  1.3911  1.4744
  102OSM   H14T10253   5.965   3.120   5.277  1.7486  1.8386  0.2510
  102OSM   C15S10254   5.843   3.229   5.132  0.4061 -0.6145 -0.4193
  102OSM   H15S10255   5.808   3.331   5.105 -0.1470 -0.6555  0.1309
  102OSM   H15T10256   5.756   3.160   5.129 -1.0629  0.5385  5.2674
  102OSM   C16S10257   5.928   3.188   5.009  0.0211 -0.1215 -0.3850
  102OSM   H16S10258   5.968   3.084   5.014 -0.2481 -0.3412 -2.1919
  102OSM   H16T10259   6.018   3.253   5.000 -0.0135  0.1632  1.0513
  102OSM   C17S10260   5.847   3.207   4.876 -0.5068 -0.0032 -0.0269
  102OSM   H17S10261   5.797   3.306   4.879  2.7490  1.7318  0.7443
  102OSM   H17T10262   5.772   3.125   4.861  1.7081 -1.8767 -1.5073
  102OSM   C18S10263   5.932   3.198   4.750 -0.0220 -0.3100 -0.3731
  102OSM   H18S10264   5.854   3.217   4.673 -2.7139  1.9486  2.6148
  102OSM   H18T10265   5.982   3.101   4.733 -1.4997 -0.8153 -2.0085
  102OSM   H18U10266   6.016   3.270   4.765  0.9205 -1.5146  0.3371
  102OSM    C1F10267   5.569   3.782   6.315  0.4427  0.1284  1.0596
  102OSM     OF10268   5.588   3.888   6.374 -0.2269  0.8090 -0.0101
  102OSM    C2F10269   5.453   3.756   6.225 -0.5414 -0.2137 -0.2651
  102OSM    H2F10270   5.380   3.693   6.281 -0.4237  0.8373  1.1012
  102OSM    H2G10271   5.485   3.697   6.137 -0.6686 -1.2241  0.3545
  102OSM    C3F10272   5.386   3.888   6.183 -0.1178  0.4829 -0.3782
  102OSM    H3F10273   5.358   3.960   6.262 -1.7033 -0.7518  0.2443
  102OSM    H3G10274   5.292   3.860   6.130  1.0788 -0.9625 -1.8603
  102OSM    C4F10275   5.480   3.964   6.089  0.2750 -0.5058  0.1181
  102OSM    H4F10276   5.531   3.899   6.014  1.1676  0.5329 -0.1970
  102OSM    H4G10277   5.564   4.014   6.141 -0.5354  1.0696 -0.0390
  102OSM    C5F10278   5.395   4.069   6.003 -0.1613  0.0184 -0.2553
  102OSM    H5F10279   5.392   4.166   6.058  1.6238 -0.0604  0.0393
  102OSM    H5G10280   5.293   4.027   5.989 -0.1543 -0.3887  0.7867
  102OSM    C6F10281   5.474   4.095   5.872 -0.4021 -0.9440  0.1298
  102OSM    H6F10282   5.522   3.999   5.842  2.1798  0.3301 -0.0805
  102OSM    H6G10283   5.561   4.159   5.896  0.3075 -2.4147  1.7066
  102OSM    C7F10284   5.396   4.143   5.755  0.0386 -0.3174  0.4328
  102OSM    H7F10285   5.336   4.234   5.779 -1.5596 -0.8877 -1.2132
  102OSM    H7G10286   5.314   4.071   5.733  1.2182 -1.9270  1.1078
  102OSM    C8F10287   5.482   4.184   5.636 -0.8180  1.0636 -0.5291
  102OSM    H8F10288   5.549   4.099   5.611 -2.2939 -0.4708  0.5134
  102OSM    H8G10289   5.549   4.264   5.674  1.1384 -0.9907  0.6273
  102OSM    C9F10290   5.397   4.220   5.517  0.3131  0.8585 -0.1190
  102OSM    H9F10291   5.299   4.172   5.509 -0.7240  2.6179  1.3669
  102OSM   C10F10292   5.443   4.274   5.403 -0.5461 -0.0532  0.5034
  102OSM   H10F10293   5.377   4.290   5.317  1.0315 -2.7819 -1.3816
  102OSM   C11F10294   5.582   4.339   5.394 -0.1614  0.4026  0.3725
  102OSM   H11F10295   5.659   4.260   5.382 -1.3048 -0.6845  0.0687
  102OSM   H11G10296   5.607   4.407   5.478 -0.9827  2.6972 -1.1226
  102OSM   C12F10297   5.587   4.397   5.248  0.0458  0.2139  0.4785
  102OSM   H12F10298   5.686   4.447   5.240  1.1025 -1.7158  0.8067
  102OSM   H12G10299   5.509   4.473   5.232 -0.9042 -0.3366  2.2587
  102OSM   C13F10300   5.574   4.281   5.153  0.3550  0.2088 -0.0038
  102OSM   H13F10301   5.466   4.257   5.163  0.2841  0.9889  1.2468
  102OSM   H13G10302   5.640   4.199   5.188  1.3342  1.3966  1.0524
  102OSM   C14F10303   5.591   4.307   4.995  0.7698  0.7088 -0.2135
  102OSM   H14F10304   5.602   4.209   4.944 -3.9626 -1.4365  2.2441
  102OSM   H14G10305   5.679   4.373   4.977  1.2095  0.0032 -0.6893
  102OSM   C15F10306   5.479   4.388   4.936  0.4327  0.3792  0.3883
  102OSM   H15F10307   5.468   4.483   4.991  0.9402  1.9081 -2.0085
  102OSM   H15G10308   5.387   4.326   4.937  0.4680  0.3164  1.5579
  102OSM   C16F10309   5.517   4.434   4.790  0.2656  0.2549  0.0154
  102OSM   H16F10310   5.420   4.454   4.740 -0.7410 -2.3311  0.7789
  102OSM   H16G10311   5.569   4.340   4.759  0.2204  0.2237  0.0349
  102OSM   C17F10312   5.611   4.556   4.777  1.1847 -0.4321 -0.0808
  102OSM   H17F10313   5.683   4.558   4.861 -0.1983  0.0277  1.1489
  102OSM   H17G10314   5.548   4.645   4.799 -2.9925 -3.1563  0.0894
  102OSM   C18F10315   5.676   4.575   4.639 -0.1931  0.0672 -0.0277
  102OSM   H18F10316   5.604   4.624   4.570 -0.8312 -1.7203 -0.6813
  102OSM   H18G10317   5.714   4.482   4.590  0.6296  0.9835 -1.2039
  102OSM   H18H10318   5.763   4.645   4.645 -0.7694  0.7491  0.5033
  103OSM      N10319   6.518   3.269   6.714  0.0463 -0.7065 -0.0319
  103OSM    C1510320   6.570   3.223   6.846 -0.2300 -0.2069 -0.4212
  103OSM   H15A10321   6.537   3.277   6.934  0.5289 -0.3827 -0.0264
  103OSM   H15B10322   6.676   3.241   6.856 -0.4190  1.3729 -0.9684
  103OSM   H15C10323   6.552   3.118   6.866 -1.2116 -0.0193 -0.2362
  103OSM    C1410324   6.384   3.202   6.700 -0.2903 -0.4825  0.1247
  103OSM   H14A10325   6.336   3.235   6.609  1.0603  0.2521 -0.3472
  103OSM   H14B10326   6.317   3.232   6.779  1.1568  2.9649  0.2088
  103OSM   H14C10327   6.396   3.094   6.698 -0.3723 -0.4821 -0.5419
  103OSM    C1310328   6.496   3.419   6.697 -0.1892  0.6886  0.0632
  103OSM   H13A10329   6.470   3.425   6.593  0.8497 -2.3442 -0.4802
  103OSM   H13B10330   6.588   3.472   6.717 -0.9145  1.9263  0.2555
  103OSM   H13C10331   6.418   3.460   6.759 -3.0807 -2.6206 -1.0730
  103OSM    C1210332   6.615   3.227   6.607  0.3345  0.0169  0.0325
  103OSM   H12A10333   6.558   3.190   6.523  0.0673 -0.6735  0.5080
  103OSM   H12B10334   6.666   3.138   6.640  1.5512  0.7249  0.1270
  103OSM    C1110335   6.734   3.323   6.567 -0.1919  0.6545 -0.2376
  103OSM   H11A10336   6.809   3.258   6.518  0.7021  1.4090  0.0959
  103OSM   H11B10337   6.781   3.363   6.659  0.5365  1.5792 -0.9856
  103OSM      P10338   6.787   3.540   6.445 -0.3133 -0.2266  0.1445
  103OSM    O1310339   6.731   3.642   6.358  0.3333  0.0138  0.4695
  103OSM    O1410340   6.852   3.592   6.567 -0.1789  0.0985 -0.5273
  103OSM    O1110341   6.894   3.453   6.357 -0.3626 -0.1841  0.1289
  103OSM    O1210342   6.686   3.432   6.490  0.2857  0.9709  0.0490
  103OSM    C1S10343   6.853   3.373   6.244 -0.3959  0.2315  0.0496
  103OSM    H1S10344   6.765   3.312   6.274 -0.0756  1.1797  3.3763
  103OSM    H1T10345   6.929   3.293   6.229 -2.7072 -1.6075 -2.8884
  103OSM     NF10346   6.789   3.357   6.010  0.5181 -0.2532  0.1881
  103OSM    HNF10347   6.858   3.303   5.963 -0.9692 -0.5531 -1.7706
  103OSM    C2S10348   6.835   3.449   6.107 -1.1501 -0.3220  0.3071
  103OSM    H2S10349   6.756   3.526   6.117 -1.4552 -0.8133  1.9422
  103OSM    C3S10350   6.975   3.498   6.065 -0.1733 -0.2298  0.0612
  103OSM    H3S10351   7.040   3.410   6.043 -0.2020 -0.9582  2.5170
  103OSM     O310352   7.041   3.573   6.167  0.3226 -0.2142  0.1544
  103OSM    HO310353   6.992   3.544   6.244  1.1377 -1.1975  0.3396
  103OSM    C4S10354   6.977   3.570   5.930  0.5720  0.0996  0.4229
  103OSM    H4S10355   6.942   3.515   5.841 -1.3706 -1.7675  2.2068
  103OSM    C5S10356   6.987   3.703   5.903 -0.0022 -0.6173  0.6301
  103OSM    H5S10357   7.000   3.770   5.989 -1.5689 -0.4191  0.7469
  103OSM    C6S10358   6.988   3.774   5.768  0.5145  0.0463 -0.0378
  103OSM    H6S10359   7.081   3.832   5.750  1.6814 -2.3260 -2.3248
  103OSM    H6T10360   6.902   3.843   5.784  0.7868  0.0034  1.8999
  103OSM    C7S10361   6.971   3.690   5.637 -1.0554  1.0755 -0.2628
  103OSM    H7S10362   6.888   3.617   5.648 -0.0784  0.2951  3.0159
  103OSM    H7T10363   7.062   3.629   5.619 -2.5295 -1.1738 -0.5638
  103OSM    C8S10364   6.958   3.779   5.522  1.0225 -0.4496  0.1667
  103OSM    H8S10365   7.050   3.841   5.519 -0.2985  1.6569  0.9793
  103OSM    H8T10366   6.874   3.849   5.536  1.8359  0.6961 -0.4781
  103OSM    C9S10367   6.964   3.714   5.381 -0.0520 -0.1870 -0.0213
  103OSM    H9S10368   7.028   3.625   5.364 -0.9635 -0.3394 -3.1424
  103OSM    H9T10369   7.002   3.794   5.313  1.4723  0.7280  1.7927
  103OSM   C10S10370   6.828   3.669   5.323 -0.4281 -0.1761 -0.4584
  103OSM   H10S10371   6.755   3.746   5.356  0.0842  0.6008 -1.0998
  103OSM   H10T10372   6.797   3.573   5.370  1.3025 -0.5469  0.0153
  103OSM   C11S10373   6.826   3.663   5.178  0.5619  0.2734  0.7609
  103OSM   H11S10374   6.873   3.754   5.134  2.7661 -1.5187 -0.8132
  103OSM   H11T10375   6.721   3.664   5.142  0.5177 -1.6311  0.7335
  103OSM   C12S10376   6.917   3.552   5.124 -0.0654 -0.1154  0.1417
  103OSM   H12S10377   6.882   3.450   5.152 -2.3032  0.8957  1.2528
  103OSM   H12T10378   7.019   3.554   5.169  0.1625  0.5520 -0.3920
  103OSM   C13S10379   6.936   3.566   4.968  0.1214  0.2723 -0.4103
  103OSM   H13S10380   7.000   3.485   4.926 -0.2652 -1.2585  1.7716
  103OSM   H13T10381   6.973   3.666   4.939 -2.3647  1.2360 -0.4612
  103OSM   C14S10382   6.813   3.567   4.872 -0.2579 -0.5353 -1.3074
  103OSM   H14S10383   6.751   3.656   4.895  1.9965  0.2478  2.8327
  103OSM   H14T10384   6.745   3.480   4.887  0.9470 -1.1334  1.1745
  103OSM   C15S10385   6.853   3.594   4.730 -0.3025  0.6285  0.4068
  103OSM   H15S10386   6.925   3.532   4.672 -1.2705  0.4069 -0.5742
  103OSM   H15T10387   6.907   3.691   4.738  0.8587  0.0950 -0.5909
  103OSM   C16S10388   6.721   3.606   4.644 -0.0530  0.5921 -0.0614
  103OSM   H16S10389   6.628   3.565   4.688 -2.3948  0.6411 -4.3400
  103OSM   H16T10390   6.737   3.528   4.566 -0.9472  0.2834  0.0500
  103OSM   C17S10391   6.693   3.750   4.585 -0.3560  0.0808 -0.2882
  103OSM   H17S10392   6.685   3.830   4.662 -3.7726  1.1639 -1.6005
  103OSM   H17T10393   6.595   3.745   4.534 -0.5168  1.5413 -0.1400
  103OSM   C18S10394   6.806   3.801   4.496  0.4907 -0.3809  0.5018
  103OSM   H18S10395   6.798   3.742   4.402 -1.3332  1.8744 -0.8834
  103OSM   H18T10396   6.903   3.784   4.547 -0.9723 -1.7372  3.0197
  103OSM   H18U10397   6.790   3.908   4.469 -0.8547 -0.2473  1.6710
  103OSM    C1F10398   6.665   3.308   6.014 -0.2012 -0.1813  0.0729
  103OSM     OF10399   6.589   3.354   6.098  0.5646  0.1505 -0.2086
  103OSM    C2F10400   6.637   3.204   5.905  0.1017 -0.1045  0.0983
  103OSM    H2F10401   6.582   3.120   5.952  2.0372 -1.2611  0.4295
  103OSM    H2G10402   6.739   3.177   5.869  0.1272  0.9972 -0.6977
  103OSM    C3F10403   6.557   3.254   5.781  0.5566  0.4237  0.0510
  103OSM    H3F10404   6.453   3.278   5.813 -0.0217 -0.5000 -1.0763
  103OSM    H3G10405   6.556   3.167   5.713 -0.2321 -0.7602  1.5323
  103OSM    C4F10406   6.612   3.382   5.715 -0.4617  0.1880  0.2321
  103OSM    H4F10407   6.721   3.365   5.697  0.0699  1.8364  1.6285
  103OSM    H4G10408   6.616   3.460   5.794  2.9616  0.3842  0.0498
  103OSM    C5F10409   6.537   3.427   5.589  0.1748  0.0256  0.1325
  103OSM    H5F10410   6.570   3.532   5.576 -0.0072  0.0766  0.0850
  103OSM    H5G10411   6.428   3.408   5.592  0.5821 -2.5901  0.4599
  103OSM    C6F10412   6.577   3.339   5.460 -0.5082 -0.9886 -0.1237
  103OSM    H6F10413   6.549   3.232   5.466 -0.3432 -1.0125  0.2340
  103OSM    H6G10414   6.686   3.360   5.454  0.1339 -3.7203  0.7198
  103OSM    C7F10415   6.527   3.408   5.337  0.1378  0.1638  0.4482
  103OSM    H7F10416   6.572   3.510   5.337 -0.0691  0.2737 -1.0554
  103OSM    H7G10417   6.416   3.415   5.336  0.2392  3.8593 -1.6865
  103OSM    C8F10418   6.580   3.337   5.208  0.8481 -0.0085  0.2068
  103OSM    H8F10419   6.537   3.235   5.207  0.9599 -0.0568  0.2906
  103OSM    H8G10420   6.691   3.325   5.204  1.1854  2.1619  1.3651
  103OSM    C9F10421   6.526   3.419   5.093 -0.2450 -0.4042  0.6081
  103OSM    H9F10422   6.568   3.521   5.086 -3.2900  0.8910 -0.6382
  103OSM   C10F10423   6.438   3.385   4.993 -0.0327 -0.0911 -0.7180
  103OSM   H10F10424   6.418   3.471   4.928 -1.5119  0.4750  0.4272
  103OSM   C11F10425   6.359   3.257   4.971  0.0197 -0.8803 -0.0112
  103OSM   H11F10426   6.272   3.250   5.039 -0.8694  1.4361 -0.8164
  103OSM   H11G10427   6.431   3.176   4.997 -0.1779 -1.2188 -0.5037
  103OSM   C12F10428   6.305   3.242   4.830  0.2143  0.0907  0.0832
  103OSM   H12F10429   6.239   3.330   4.813  2.7686  2.0810 -0.0003
  103OSM   H12G10430   6.237   3.153   4.828  0.9435 -0.5120  1.2501
  103OSM   C13F10431   6.408   3.235   4.721  0.7334 -0.0944  0.1808
  103OSM   H13F10432   6.470   3.143   4.721  1.5466  0.1004 -5.3122
  103OSM   H13G10433   6.471   3.326   4.725 -1.2548  1.4620 -1.6844
  103OSM   C14F10434   6.340   3.259   4.588  0.3604 -0.0924  0.0902
  103OSM   H14F10435   6.299   3.361   4.577  1.6914  0.3615 -0.8375
  103OSM   H14G10436   6.250   3.195   4.608  0.1124 -0.1498 -1.1453
  103OSM   C15F10437   6.410   3.213   4.468 -0.2268 -0.0958 -0.7342
  103OSM   H15F10438   6.334   3.211   4.387 -1.4772  0.1543  0.4072
  103OSM   H15G10439   6.450   3.112   4.490  0.0069  0.3899  1.2219
  103OSM   C16F10440   6.526   3.305   4.419 -0.2123 -0.1093  0.6696
  103OSM   H16F10441   6.581   3.316   4.514  1.0365 -0.6205  0.0324
  103OSM   H16G10442   6.482   3.394   4.370 -3.0206 -0.3189  2.5753
  103OSM   C17F10443   6.625   3.237   4.324  0.3529 -0.3127 -0.2426
  103OSM   H17F10444   6.570   3.210   4.231 -0.0769  0.1043 -0.1146
  103OSM   H17G10445   6.657   3.137   4.360  0.8307 -0.5687 -1.3155
  103OSM   C18F10446   6.750   3.330   4.286  0.3491  0.5975 -0.8577
  103OSM   H18F10447   6.710   3.433   4.272 -0.6926  0.1183 -1.5790
  103OSM   H18G10448   6.802   3.289   4.196  0.6256  1.1470 -0.9524
  103OSM   H18H10449   6.819   3.327   4.373 -0.7588  1.6301  0.0928
  104OSM      N10450   1.661   2.858   6.695  0.7366 -0.1143  0.1176
  104OSM    C1510451   1.658   2.796   6.833 -0.1050  0.3479  0.6884
  104OSM   H15A10452   1.632   2.870   6.907 -0.7898  0.5225  0.2860
  104OSM   H15B10453   1.755   2.754   6.853 -0.2576 -0.1947  0.2962
  104OSM   H15C10454   1.585   2.716   6.833  0.4078 -0.1378  1.8785
  104OSM    C1410455   1.727   2.987   6.706  0.0840 -0.5413 -0.2217
  104OSM   H14A10456   1.820   2.984   6.761  0.3598  0.9423 -0.5549
  104OSM   H14B10457   1.674   3.058   6.768  2.0826  1.8805 -1.0886
  104OSM   H14C10458   1.741   3.035   6.610 -2.2982  0.7268 -0.0079
  104OSM    C1310459   1.749   2.768   6.613  0.2796 -0.0263  0.8062
  104OSM   H13A10460   1.713   2.666   6.614  0.1357  0.0160  0.2299
  104OSM   H13B10461   1.853   2.762   6.643  1.7113 -1.6481 -3.7124
  104OSM   H13C10462   1.760   2.798   6.510  0.6756 -0.7362  0.6356
  104OSM    C1210463   1.523   2.863   6.628  0.3261  0.4889 -0.0700
  104OSM   H12A10464   1.493   2.765   6.594 -1.4758  0.6153  1.0396
  104OSM   H12B10465   1.549   2.930   6.547  1.0302 -0.7636 -0.9016
  104OSM    C1110466   1.405   2.905   6.708 -0.2915 -0.3951 -0.1121
  104OSM   H11A10467   1.410   3.014   6.729 -1.2130 -0.5169  0.8080
  104OSM   H11B10468   1.398   2.855   6.807 -0.4003  0.4484  0.3171
  104OSM      P10469   1.250   2.981   6.515 -0.0141  0.0058  0.2157
  104OSM    O1310470   1.140   2.923   6.427 -0.1638 -0.2652  0.2405
  104OSM    O1410471   1.226   3.114   6.571  0.1171  0.2765 -0.1305
  104OSM    O1110472   1.377   2.988   6.433 -0.5436  0.4326 -0.5367
  104OSM    O1210473   1.282   2.888   6.637  0.1507  0.1928 -0.4904
  104OSM    C1S10474   1.399   2.944   6.302  1.2566  0.3579 -1.0808
  104OSM    H1S10475   1.303   2.931   6.246  0.9000 -2.2188 -0.0178
  104OSM    H1T10476   1.436   2.839   6.306 -1.2295 -0.5796 -0.5126
  104OSM     NF10477   1.513   2.980   6.083  0.1065  0.1561 -0.7337
  104OSM    HNF10478   1.601   2.946   6.051  0.1498  1.7211 -2.5105
  104OSM    C2S10479   1.499   3.034   6.219 -0.0507  0.7980 -0.2558
  104OSM    H2S10480   1.446   3.131   6.220 -0.7768  0.4272  1.7925
  104OSM    C3S10481   1.629   3.057   6.305 -0.3339  0.4040  0.1958
  104OSM    H3S10482   1.680   2.959   6.320  0.3750  0.6617 -0.4934
  104OSM     O310483   1.614   3.105   6.433  0.2355 -0.1388 -0.1784
  104OSM    HO310484   1.520   3.096   6.453 -0.3147  0.8794 -2.0657
  104OSM    C4S10485   1.723   3.144   6.232 -0.6091 -0.2414 -0.6158
  104OSM    H4S10486   1.681   3.223   6.168  0.3768  0.3373 -0.5508
  104OSM    C5S10487   1.857   3.117   6.227  0.3545  0.4015 -1.1931
  104OSM    H5S10488   1.904   3.026   6.268  1.7153  1.2148 -0.8796
  104OSM    C6S10489   1.961   3.199   6.153 -0.5513 -0.1955 -0.1492
  104OSM    H6S10490   1.996   3.149   6.061 -0.5770  1.2139 -0.9530
  104OSM    H6T10491   2.041   3.241   6.217 -1.4374  0.5489  0.5118
  104OSM    C7S10492   1.901   3.332   6.098 -0.7775  0.0528 -0.6243
  104OSM    H7S10493   1.857   3.387   6.183 -0.7196 -1.7926  0.6373
  104OSM    H7T10494   1.831   3.299   6.018 -0.7321  0.3408 -0.7849
  104OSM    C8S10495   1.997   3.434   6.022 -0.2722 -0.1821 -0.4040
  104OSM    H8S10496   2.092   3.460   6.072 -0.6680 -0.4068  0.4717
  104OSM    H8T10497   1.937   3.527   6.009  0.2333  0.5066  1.7768
  104OSM    C9S10498   2.051   3.384   5.884 -0.0187 -0.5656  0.4185
  104OSM    H9S10499   1.968   3.360   5.814  1.3027  2.1819 -2.3104
  104OSM    H9T10500   2.101   3.287   5.904  0.0075 -0.5797  0.2866
  104OSM   C10S10501   2.129   3.493   5.804  0.2339 -0.4614  0.7183
  104OSM   H10S10502   2.223   3.505   5.862  1.0277 -0.3572 -0.5576
  104OSM   H10T10503   2.070   3.586   5.816 -0.3593 -0.5958 -0.9373
  104OSM   C11S10504   2.184   3.475   5.668  0.2380  0.3096 -0.0979
  104OSM   H11S10505   2.104   3.418   5.616  0.1333 -0.1947  0.6087
  104OSM   H11T10506   2.278   3.417   5.675 -0.5146 -0.9102  0.1015
  104OSM   C12S10507   2.215   3.603   5.593 -0.5134 -0.4867  0.1232
  104OSM   H12S10508   2.320   3.603   5.557 -0.2725  0.0340  0.7931
  104OSM   H12T10509   2.216   3.686   5.667  4.6202 -1.9880  2.1867
  104OSM   C13S10510   2.128   3.630   5.477 -0.4743  1.1884  0.5355
  104OSM   H13S10511   2.159   3.724   5.427  2.3069  0.0151 -0.1501
  104OSM   H13T10512   2.019   3.636   5.497 -0.4342  1.1699  0.7632
  104OSM   C14S10513   2.132   3.521   5.368 -0.0651 -0.1927  0.7380
  104OSM   H14S10514   2.062   3.435   5.375 -0.7594 -0.0341 -2.6682
  104OSM   H14T10515   2.236   3.482   5.363 -0.0232 -0.0664  0.6216
  104OSM   C15S10516   2.112   3.580   5.226  0.0380 -0.5545 -0.8382
  104OSM   H15S10517   2.175   3.671   5.222 -0.0460 -0.3724  1.2964
  104OSM   H15T10518   2.006   3.615   5.220  0.4260  1.1823  1.3806
  104OSM   C16S10519   2.152   3.495   5.107 -0.3573  0.6106 -0.3827
  104OSM   H16S10520   2.146   3.386   5.129 -1.2835 -0.2060 -3.9603
  104OSM   H16T10521   2.259   3.504   5.080  0.1680 -1.3957  0.7927
  104OSM   C17S10522   2.077   3.547   4.975 -0.3326 -1.0890  0.4242
  104OSM   H17S10523   2.110   3.651   4.957 -1.7014 -0.7614 -0.3031
  104OSM   H17T10524   1.966   3.546   4.979 -0.3683  1.4695  1.5409
  104OSM   C18S10525   2.117   3.462   4.843 -0.0418 -0.3213  0.0845
  104OSM   H18S10526   2.131   3.358   4.878  1.4900 -0.5872 -1.1830
  104OSM   H18T10527   2.210   3.496   4.793 -0.3339  2.3967  1.1871
  104OSM   H18U10528   2.029   3.467   4.775  1.8414  0.4469 -2.4514
  104OSM    C1F10529   1.406   2.973   6.002  0.3260  0.4975 -0.0276
  104OSM     OF10530   1.306   3.042   6.022 -0.5183  0.6205 -0.3775
  104OSM    C2F10531   1.422   2.878   5.879  0.5446 -0.3283 -0.6398
  104OSM    H2F10532   1.347   2.797   5.892 -2.3122  2.1156 -0.6521
  104OSM    H2G10533   1.529   2.849   5.879  1.1888  1.5382 -3.7772
  104OSM    C3F10534   1.375   2.960   5.753 -0.2670 -0.5960 -0.2542
  104OSM    H3F10535   1.459   3.033   5.745 -0.2077 -0.6126  0.1961
  104OSM    H3G10536   1.282   3.015   5.776  0.5731 -0.2186  2.6662
  104OSM    C4F10537   1.377   2.886   5.613  0.0347  0.1042 -0.2687
  104OSM    H4F10538   1.292   2.815   5.607 -0.5054  0.6191  0.9559
  104OSM    H4G10539   1.467   2.821   5.610  0.1630  0.1141  2.0537
  104OSM    C5F10540   1.369   2.982   5.490 -0.4320 -0.4699 -0.4696
  104OSM    H5F10541   1.456   3.051   5.497  0.1706 -1.1073 -1.5302
  104OSM    H5G10542   1.275   3.041   5.495  0.0299  0.2279  0.6277
  104OSM    C6F10543   1.381   2.897   5.362  0.7696 -0.0137 -0.0011
  104OSM    H6F10544   1.287   2.839   5.355  0.5322  0.0680  2.1291
  104OSM    H6G10545   1.467   2.827   5.363  0.7813 -0.0279 -1.0059
  104OSM    C7F10546   1.382   2.970   5.223  0.5171  0.2038 -0.3372
  104OSM    H7F10547   1.455   3.052   5.209  1.0786 -0.4052 -1.0667
  104OSM    H7G10548   1.283   3.020   5.231  0.9174  1.0091 -0.2639
  104OSM    C8F10549   1.363   2.888   5.097 -0.5797 -0.2111 -0.6972
  104OSM    H8F10550   1.334   2.952   5.011 -0.1237 -0.7104 -1.2379
  104OSM    H8G10551   1.276   2.819   5.096  0.3696 -1.4547 -2.1034
  104OSM    C9F10552   1.483   2.802   5.072 -0.8881  0.0577  0.0659
  104OSM    H9F10553   1.525   2.745   5.156 -0.2336  0.7284  0.2031
  104OSM   C10F10554   1.536   2.779   4.953 -0.1663 -0.0078 -0.4903
  104OSM   H10F10555   1.623   2.712   4.954 -1.8203 -2.3859 -2.2581
  104OSM   C11F10556   1.501   2.820   4.810  0.1921 -0.0768 -0.5727
  104OSM   H11F10557   1.421   2.896   4.810 -0.1119 -0.3026 -3.6014
  104OSM   H11G10558   1.468   2.730   4.753 -1.7186 -2.0013  3.1874
  104OSM   C12F10559   1.619   2.888   4.736  0.5810  0.5268  0.3950
  104OSM   H12F10560   1.666   2.964   4.802  2.3440  1.0758 -1.4173
  104OSM   H12G10561   1.578   2.932   4.643  0.2803 -0.9185 -0.1963
  104OSM   C13F10562   1.730   2.794   4.687 -0.0270 -0.4146  0.2905
  104OSM   H13F10563   1.698   2.699   4.638  0.1017  0.3445 -1.3094
  104OSM   H13G10564   1.793   2.767   4.774  0.5098 -0.0712  0.0106
  104OSM   C14F10565   1.827   2.867   4.590 -0.5487 -0.0105  0.3772
  104OSM   H14F10566   1.929   2.824   4.586 -0.3520  0.4272  0.6245
  104OSM   H14G10567   1.846   2.964   4.640  1.8366  0.4128 -1.2346
  104OSM   C15F10568   1.777   2.896   4.445  0.3379 -0.1787 -0.1465
  104OSM   H15F10569   1.807   2.998   4.414 -0.2452  0.5081  1.4290
  104OSM   H15G10570   1.668   2.877   4.444  0.8430 -3.9239 -1.0436
  104OSM   C16F10571   1.835   2.799   4.340  0.5903  0.3730 -0.0457
  104OSM   H16F10572   1.809   2.695   4.369  0.3036 -0.0137 -1.5877
  104OSM   H16G10573   1.946   2.801   4.345  0.6295  1.0359 -0.9479
  104OSM   C17F10574   1.787   2.843   4.201 -0.3743 -0.2870  0.6688
  104OSM   H17F10575   1.865   2.798   4.137  1.2109  1.3261  1.3774
  104OSM   H17G10576   1.786   2.954   4.195  1.0613 -0.2246  1.2976
  104OSM   C18F10577   1.651   2.797   4.144  0.9361  0.0259 -0.5795
  104OSM   H18F10578   1.638   2.689   4.167 -0.0848 -0.7200 -4.1144
  104OSM   H18G10579   1.651   2.804   4.033 -3.6279  0.3665 -0.7541
  104OSM   H18H10580   1.562   2.859   4.168  0.3244 -0.6733 -1.0160
  105OSM      N10581   1.331   3.803   6.845  0.6688  0.0556  0.1373
  105OSM    C1510582   1.297   3.670   6.899 -0.2826 -0.5476 -0.3860
  105OSM   H15A10583   1.385   3.607   6.897 -0.6475 -1.0994  0.3434
  105OSM   H15B10584   1.213   3.628   6.846  0.4594 -1.1253 -1.1183
  105OSM   H15C10585   1.274   3.680   7.004  1.3951  0.8450 -0.0947
  105OSM    C1410586   1.216   3.898   6.847  0.7580  0.2355 -0.0027
  105OSM   H14A10587   1.240   4.000   6.822  0.8627 -0.0183 -0.9725
  105OSM   H14B10588   1.177   3.899   6.948 -1.7685  0.4414 -0.9082
  105OSM   H14C10589   1.133   3.866   6.786 -0.2584 -0.1741  1.5435
  105OSM    C1310590   1.440   3.868   6.932  0.4974 -0.5277 -0.7118
  105OSM   H13A10591   1.522   3.799   6.948  1.0359  0.2205 -0.1682
  105OSM   H13B10592   1.406   3.897   7.030  1.5501  1.1311 -0.7964
  105OSM   H13C10593   1.486   3.958   6.894  1.4940  0.0512  1.6873
  105OSM    C1210594   1.394   3.787   6.713 -0.5606 -0.2687  0.3321
  105OSM   H12A10595   1.487   3.733   6.708 -1.3994 -1.7420 -4.0639
  105OSM   H12B10596   1.442   3.878   6.681  1.2339 -0.6616  1.7456
  105OSM    C1110597   1.307   3.731   6.597 -0.1969  0.1043 -0.3151
  105OSM   H11A10598   1.252   3.644   6.638 -0.5911  0.8417  0.7692
  105OSM   H11B10599   1.383   3.699   6.523  3.7043  2.4888  2.3114
  105OSM      P10600   1.270   3.957   6.475  0.2955  0.2120  0.0493
  105OSM    O1310601   1.164   4.059   6.459  0.5455 -0.7988  0.5425
  105OSM    O1410602   1.401   4.001   6.537  0.5121  0.4573 -0.4634
  105OSM    O1110603   1.307   3.874   6.333 -0.0023 -0.7504  0.3703
  105OSM    O1210604   1.210   3.830   6.553 -0.3735  0.1080 -0.6224
  105OSM    C1S10605   1.226   3.771   6.277  0.5231 -0.3739 -0.4038
  105OSM    H1S10606   1.135   3.813   6.228  0.2272 -2.2395 -1.5398
  105OSM    H1T10607   1.188   3.696   6.349 -2.1417  0.2770 -0.9951
  105OSM     NF10608   1.196   3.604   6.106 -0.5218  0.6351  0.3498
  105OSM    HNF10609   1.195   3.512   6.145 -1.1622 -0.8421 -2.8509
  105OSM    C2S10610   1.292   3.691   6.175 -0.6464  0.3115 -0.0571
  105OSM    H2S10611   1.328   3.759   6.095  1.7980 -1.6854 -0.7885
  105OSM    C3S10612   1.423   3.620   6.232 -0.1380  0.1914  0.5770
  105OSM    H3S10613   1.388   3.550   6.311 -0.1633  0.5510  0.8912
  105OSM     O310614   1.515   3.721   6.290  0.1759  0.3977  0.6902
  105OSM    HO310615   1.458   3.797   6.305 -1.5995 -0.5238 -0.8028
  105OSM    C4S10616   1.498   3.549   6.126 -0.2700 -0.7800  0.3131
  105OSM    H4S10617   1.585   3.609   6.095 -0.6951 -0.2590  0.1035
  105OSM    C5S10618   1.481   3.426   6.065  0.8620  0.1679  0.2007
  105OSM    H5S10619   1.390   3.365   6.078  0.9382 -0.3111 -1.3569
  105OSM    C6S10620   1.587   3.388   5.966  0.7773  0.5221  0.7426
  105OSM    H6S10621   1.627   3.285   5.983  2.2976  1.0225  0.3805
  105OSM    H6T10622   1.680   3.447   5.980  1.0878  0.0652  0.6463
  105OSM    C7S10623   1.545   3.405   5.816 -1.1051 -0.0954  0.6235
  105OSM    H7S10624   1.511   3.508   5.791 -1.9830 -1.1425 -3.1624
  105OSM    H7T10625   1.471   3.325   5.795  1.9693 -2.8079 -0.5384
  105OSM    C8S10626   1.673   3.396   5.720  1.0869 -0.0998 -0.3407
  105OSM    H8S10627   1.724   3.298   5.707 -0.6666 -0.9541 -1.1895
  105OSM    H8T10628   1.743   3.469   5.765  1.1465 -0.7888  0.7064
  105OSM    C9S10629   1.636   3.440   5.580 -0.0105 -0.6200  0.3637
  105OSM    H9S10630   1.574   3.531   5.597  0.8084 -0.0627  0.4354
  105OSM    H9T10631   1.564   3.369   5.533 -1.1273  1.1861 -0.7859
  105OSM   C10S10632   1.765   3.460   5.501 -0.9143 -0.6256 -0.0817
  105OSM   H10S10633   1.830   3.374   5.527  1.9929  0.9748 -1.4938
  105OSM   H10T10634   1.820   3.541   5.554 -2.5357  0.9695 -0.7377
  105OSM   C11S10635   1.736   3.508   5.359  0.3682  0.2981 -0.9079
  105OSM   H11S10636   1.832   3.547   5.319  1.9909 -1.8512  0.6381
  105OSM   H11T10637   1.670   3.597   5.356  0.4677  0.3857 -0.4993
  105OSM   C12S10638   1.681   3.402   5.261  0.1517 -0.0763 -0.3210
  105OSM   H12S10639   1.583   3.367   5.301  0.9527 -2.2082 -0.1004
  105OSM   H12T10640   1.751   3.316   5.265  0.0109 -0.1943 -0.4117
  105OSM   C13S10641   1.665   3.449   5.117  0.1889  0.5932  0.2034
  105OSM   H13S10642   1.759   3.499   5.085 -0.4989  0.8458 -1.5525
  105OSM   H13T10643   1.579   3.518   5.119 -0.5614 -0.3301  2.2159
  105OSM   C14S10644   1.627   3.334   5.025  0.2900 -0.6269  0.2200
  105OSM   H14S10645   1.520   3.304   5.037  0.2873 -0.0404  1.8873
  105OSM   H14T10646   1.697   3.249   5.037  1.6920  0.0747 -2.3540
  105OSM   C15S10647   1.661   3.374   4.878 -0.3800  0.1924  0.3856
  105OSM   H15S10648   1.764   3.416   4.865 -0.3969  0.0506 -0.2489
  105OSM   H15T10649   1.592   3.458   4.855 -3.1860 -2.1239 -0.1821
  105OSM   C16S10650   1.651   3.258   4.780 -0.3979  0.1983 -0.0744
  105OSM   H16S10651   1.592   3.179   4.830  0.4409 -0.0492  0.5404
  105OSM   H16T10652   1.752   3.216   4.766 -0.5988 -0.5200  0.5585
  105OSM   C17S10653   1.602   3.312   4.645 -0.0774 -0.7406  0.1675
  105OSM   H17S10654   1.683   3.370   4.597 -0.2825 -0.3983  0.2320
  105OSM   H17T10655   1.523   3.390   4.652 -0.1749 -0.7603 -0.6596
  105OSM   C18S10656   1.561   3.206   4.546  0.5646  0.1995  0.0056
  105OSM   H18S10657   1.635   3.123   4.539  1.5087  1.0211  0.0089
  105OSM   H18T10658   1.544   3.245   4.443 -1.6315  1.2142  0.6873
  105OSM   H18U10659   1.460   3.172   4.579  0.0167  2.2300  0.5815
  105OSM    C1F10660   1.099   3.648   6.036  0.1805 -0.0382 -0.0646
  105OSM     OF10661   1.079   3.767   6.011 -0.5643 -0.9267  0.4877
  105OSM    C2F10662   1.010   3.543   5.986  1.2835 -0.1092 -0.1199
  105OSM    H2F10663   0.933   3.591   5.922  1.6330 -1.8637 -1.9803
  105OSM    H2G10664   0.960   3.486   6.067 -1.4140  1.0913 -0.8208
  105OSM    C3F10665   1.089   3.440   5.890  0.2095  0.4288 -0.2272
  105OSM    H3F10666   1.010   3.380   5.839  0.5184 -0.1682 -0.0102
  105OSM    H3G10667   1.152   3.375   5.954 -1.7066 -0.4291  0.8858
  105OSM    C4F10668   1.173   3.507   5.782  0.5881 -0.1962  0.3999
  105OSM    H4F10669   1.243   3.429   5.746  2.3972  0.7609  1.6245
  105OSM    H4G10670   1.238   3.591   5.813 -1.7470  1.6068  0.6658
  105OSM    C5F10671   1.082   3.555   5.666 -0.5467  0.3591  0.1929
  105OSM    H5F10672   1.145   3.631   5.613  3.9473 -2.1766  1.3184
  105OSM    H5G10673   0.982   3.594   5.695 -1.1881 -2.2780  1.8160
  105OSM    C6F10674   1.058   3.435   5.564 -0.9373 -0.1614  0.1026
  105OSM    H6F10675   1.002   3.348   5.605 -0.0996  0.1112  1.9433
  105OSM    H6G10676   1.157   3.394   5.538 -1.5520  0.0040 -2.8442
  105OSM    C7F10677   1.007   3.477   5.426 -0.5780  0.2062 -0.1012
  105OSM    H7F10678   1.079   3.555   5.390  0.4802  0.5078  2.4539
  105OSM    H7G10679   0.904   3.517   5.422 -1.1427 -1.2327 -0.6383
  105OSM    C8F10680   0.993   3.358   5.327  0.0931  0.3976 -0.8061
  105OSM    H8F10681   0.923   3.381   5.243  0.5082 -1.0233 -1.5913
  105OSM    H8G10682   0.939   3.267   5.362  1.9951 -0.5435 -0.1997
  105OSM    C9F10683   1.123   3.320   5.253  0.0394  0.8698  0.2040
  105OSM    H9F10684   1.203   3.277   5.316  0.9872  3.1206  0.6590
  105OSM   C10F10685   1.163   3.350   5.125 -0.0717 -0.4093 -0.4473
  105OSM   H10F10686   1.263   3.315   5.096  0.1924 -0.1796  0.1602
  105OSM   C11F10687   1.095   3.447   5.031  0.4398 -0.0523 -0.5476
  105OSM   H11F10688   1.166   3.507   4.970  1.4268  2.2811  2.6606
  105OSM   H11G10689   1.043   3.523   5.093  0.6904 -0.3223 -0.0068
  105OSM   C12F10690   0.986   3.375   4.941 -0.1766 -0.0373 -0.2973
  105OSM   H12F10691   0.922   3.320   5.013  0.4942 -2.0408 -1.1719
  105OSM   H12G10692   1.052   3.313   4.877  0.3441 -0.3533  0.5272
  105OSM   C13F10693   0.891   3.461   4.855  0.4111 -0.3293  0.9200
  105OSM   H13F10694   0.823   3.514   4.926 -0.9073  1.8587 -1.7753
  105OSM   H13G10695   0.821   3.393   4.802  0.3617 -0.0907  0.6776
  105OSM   C14F10696   0.951   3.573   4.773 -0.0210  0.2388  0.2124
  105OSM   H14F10697   1.002   3.651   4.834  0.8626 -0.4412  0.3676
  105OSM   H14G10698   0.873   3.627   4.716 -2.4490 -3.3895 -0.2245
  105OSM   C15F10699   1.059   3.542   4.667 -0.0174  0.2512 -0.5833
  105OSM   H15F10700   1.151   3.519   4.724 -1.0618 -3.4465 -0.1201
  105OSM   H15G10701   1.070   3.633   4.604  2.3606  0.4481  0.0506
  105OSM   C16F10702   1.045   3.405   4.597 -0.5333 -0.6808  0.3102
  105OSM   H16F10703   0.942   3.389   4.560 -0.3648 -1.6512  0.2268
  105OSM   H16G10704   1.062   3.318   4.664  0.6516  1.5049  3.0207
  105OSM   C17F10705   1.145   3.382   4.483 -0.5820 -0.2388 -0.7721
  105OSM   H17F10706   1.243   3.373   4.534 -0.7268 -1.5359 -0.6987
  105OSM   H17G10707   1.133   3.480   4.432 -0.6641  0.5577  0.7128
  105OSM   C18F10708   1.110   3.258   4.405  0.0318 -1.0022 -0.5048
  105OSM   H18F10709   1.002   3.232   4.406  0.5543 -3.4476  0.6842
  105OSM   H18G10710   1.158   3.163   4.436 -0.4887 -1.3938 -0.8785
  105OSM   H18H10711   1.132   3.259   4.296  3.4128 -2.3173  0.0506
  106OSM      N10712   0.502   0.325   6.603  0.0813  0.1786  0.1505
  106OSM    C1510713   0.509   0.471   6.590  0.2069  0.1801 -0.1353
  106OSM   H15A10714   0.581   0.495   6.513  1.3442  0.3910  0.9708
  106OSM   H15B10715   0.533   0.526   6.680 -1.3466 -0.1140  0.4945
  106OSM   H15C10716   0.414   0.508   6.555  0.4088 -0.0987 -1.0104
  106OSM    C1410717   0.643   0.277   6.608  0.5707  0.2932  0.0588
  106OSM   H14A10718   0.645   0.170   6.614  2.9573  0.2846  0.0816
  106OSM   H14B10719   0.693   0.320   6.694 -0.0331 -0.8529  1.0085
  106OSM   H14C10720   0.683   0.312   6.514  0.5214  3.5599  1.1094
  106OSM    C1310721   0.447   0.280   6.730 -0.2598 -0.4895 -0.1912
  106OSM   H13A10722   0.516   0.316   6.805  2.2880 -1.5754 -1.8708
  106OSM   H13B10723   0.441   0.172   6.731 -1.4639 -0.4417 -0.3846
  106OSM   H13C10724   0.345   0.308   6.752  0.6233  0.4707  3.1692
  106OSM    C1210725   0.421   0.271   6.492 -0.3964  0.4258  0.6242
  106OSM   H12A10726   0.326   0.320   6.476 -0.3552  0.2165 -0.3678
  106OSM   H12B10727   0.405   0.165   6.505  0.9857  0.0728 -0.3014
  106OSM    C1110728   0.476   0.283   6.351 -0.4736  0.5939  0.5034
  106OSM   H11A10729   0.516   0.385   6.331  1.1459 -0.2738 -0.9074
  106OSM   H11B10730   0.394   0.276   6.276 -1.3427 -0.5295  1.5223
  106OSM      P10731   0.525   0.034   6.299 -0.1310  0.2132  0.3245
  106OSM    O1310732   0.647  -0.047   6.313 -0.5129  0.9339  0.2986
  106OSM    O1410733   0.413  -0.007   6.393  0.0915 -0.9912 -0.2820
  106OSM    O1110734   0.475   0.025   6.154  0.3126 -0.3140  0.5817
  106OSM    O1210735   0.576   0.180   6.326 -0.1873 -0.2419  0.2785
  106OSM    C1S10736   0.546   0.011   6.034 -0.2287  0.2971 -0.2038
  106OSM    H1S10737   0.598  -0.087   6.039 -2.6158 -0.9768  2.0784
  106OSM    H1T10738   0.626   0.085   6.012  0.9467 -1.0260 -0.5099
  106OSM     NF10739   0.509  -0.050   5.797 -0.1684  0.8378 -0.3703
  106OSM    HNF10740   0.570   0.007   5.743  1.4541 -0.8818 -0.4652
  106OSM    C2S10741   0.446   0.008   5.913 -0.1539 -0.3099 -1.0090
  106OSM    H2S10742   0.360  -0.051   5.950 -1.5472  1.5453 -1.1325
  106OSM    C3S10743   0.394   0.147   5.892  1.3675 -0.4907  0.0213
  106OSM    H3S10744   0.483   0.201   5.854 -0.2278  1.7776 -0.6739
  106OSM     O310745   0.346   0.215   6.011 -0.0128  0.1312 -0.4726
  106OSM    HO310746   0.364   0.154   6.083 -2.2944  0.3060  0.3274
  106OSM    C4S10747   0.282   0.137   5.792 -0.2666 -0.8684 -0.3594
  106OSM    H4S10748   0.219   0.047   5.802 -2.8360  0.7777 -0.7724
  106OSM    C5S10749   0.255   0.215   5.683  0.1189  0.0081 -0.0832
  106OSM    H5S10750   0.322   0.297   5.651  0.9777  0.5716  2.8605
  106OSM    C6S10751   0.138   0.185   5.590 -0.7252 -0.2033 -0.4797
  106OSM    H6S10752   0.134   0.275   5.526  2.1224  0.8374  0.6363
  106OSM    H6T10753   0.042   0.183   5.646 -1.1277 -1.0298 -1.1758
  106OSM    C7S10754   0.142   0.059   5.504 -0.5747 -0.8271 -0.3965
  106OSM    H7S10755   0.138  -0.026   5.576  3.1504 -0.1707  0.7607
  106OSM    H7T10756   0.240   0.064   5.451 -0.5397  0.6802 -0.2298
  106OSM    C8S10757   0.034   0.052   5.395 -0.6961  0.2936  0.1434
  106OSM    H8S10758   0.055  -0.020   5.313  0.6619  0.0670  0.6670
  106OSM    H8T10759   0.028   0.145   5.335 -0.7109  1.4772  1.9064
  106OSM    C9S10760  -0.096   0.004   5.461 -0.2441  0.3670 -0.6201
  106OSM    H9S10761  -0.126   0.055   5.555  0.4537  0.1441 -0.2685
  106OSM    H9T10762  -0.093  -0.103   5.491 -0.1766  0.0354 -1.7648
  106OSM   C10S10763  -0.216   0.020   5.379  0.0877 -0.0647 -0.6679
  106OSM   H10S10764  -0.226   0.128   5.354  2.0212  0.4117  0.4594
  106OSM   H10T10765  -0.304  -0.017   5.436  2.0739 -0.7196  2.1818
  106OSM   C11S10766  -0.210  -0.053   5.245  0.2012 -0.8195  0.7445
  106OSM   H11S10767  -0.214  -0.163   5.259  1.3014 -1.0465 -0.5294
  106OSM   H11T10768  -0.112  -0.038   5.195 -0.1209  2.5061  0.8929
  106OSM   C12S10769  -0.324  -0.019   5.150 -0.2829 -0.1893 -0.1633
  106OSM   H12S10770  -0.321   0.091   5.133  0.8834 -0.0319  0.9235
  106OSM   H12T10771  -0.420  -0.029   5.205 -0.9331  4.4767 -0.0540
  106OSM   C13S10772  -0.312  -0.102   5.023 -0.1906 -0.7787  0.1239
  106OSM   H13S10773  -0.302  -0.207   5.059 -1.3947 -0.0234  3.0074
  106OSM   H13T10774  -0.218  -0.078   4.970 -1.4570 -0.4379 -2.0733
  106OSM   C14S10775  -0.433  -0.093   4.932 -0.5621 -0.0490  0.6442
  106OSM   H14S10776  -0.523  -0.105   4.996 -0.8513 -0.7515  0.1211
  106OSM   H14T10777  -0.425  -0.174   4.856 -2.6735 -0.1080  0.4342
  106OSM   C15S10778  -0.428   0.037   4.849 -0.5156  0.6251 -0.3536
  106OSM   H15S10779  -0.321   0.065   4.834 -0.2159  1.1449  2.2605
  106OSM   H15T10780  -0.468   0.117   4.915 -2.7675  0.4552 -1.4391
  106OSM   C16S10781  -0.514   0.036   4.730  0.0490  0.1386  0.7061
  106OSM   H16S10782  -0.619   0.011   4.756  0.3564 -1.9907  0.1028
  106OSM   H16T10783  -0.480  -0.046   4.663 -0.9083 -1.8035  2.4703
  106OSM   C17S10784  -0.499   0.171   4.665  0.7319 -0.1927  0.2098
  106OSM   H17S10785  -0.396   0.161   4.625  0.9056  0.1039  0.5773
  106OSM   H17T10786  -0.493   0.254   4.739  0.4768 -0.3889  0.4561
  106OSM   C18S10787  -0.597   0.198   4.540 -0.8221  0.9319  0.1972
  106OSM   H18S10788  -0.699   0.166   4.570 -0.9878  1.1089 -0.1741
  106OSM   H18T10789  -0.571   0.138   4.450  1.2929  3.2613 -0.8894
  106OSM   H18U10790  -0.596   0.307   4.518 -2.8624  1.4008  2.1126
  106OSM    C1F10791   0.541  -0.181   5.792 -0.3292  0.0177  0.0588
  106OSM     OF10792   0.490  -0.258   5.866 -0.2480 -0.4999  0.2615
  106OSM    C2F10793   0.631  -0.222   5.679  0.0955  0.4833 -0.0107
  106OSM    H2F10794   0.734  -0.231   5.721  0.2720  1.7780 -0.1232
  106OSM    H2G10795   0.636  -0.138   5.607  0.8602 -0.6883 -1.3587
  106OSM    C3F10796   0.588  -0.363   5.623  0.0099 -0.0886 -0.4928
  106OSM    H3F10797   0.584  -0.443   5.700  2.1063 -0.7900 -1.0621
  106OSM    H3G10798   0.670  -0.389   5.553  0.1716 -1.2636  0.1108
  106OSM    C4F10799   0.461  -0.347   5.544  0.4576 -0.0469  0.2669
  106OSM    H4F10800   0.471  -0.252   5.487  0.6283  0.9815  1.9567
  106OSM    H4G10801   0.378  -0.322   5.614 -2.2584 -0.5876 -2.5092
  106OSM    C5F10802   0.433  -0.466   5.447  0.2792 -0.5438 -0.4488
  106OSM    H5F10803   0.385  -0.548   5.504 -0.2196  2.3017  3.6355
  106OSM    H5G10804   0.531  -0.506   5.415  1.2958  1.0532  0.5225
  106OSM    C6F10805   0.352  -0.425   5.325  0.2818  0.2845  0.4469
  106OSM    H6F10806   0.375  -0.494   5.241 -1.3280 -1.1688  1.1520
  106OSM    H6G10807   0.400  -0.329   5.297 -1.6635  0.4332 -2.8863
  106OSM    C7F10808   0.204  -0.411   5.329  0.0811  0.3464  0.2182
  106OSM    H7F10809   0.184  -0.356   5.423 -1.1168 -3.3539  2.3453
  106OSM    H7G10810   0.163  -0.514   5.342 -2.7135  1.5966  2.3080
  106OSM    C8F10811   0.141  -0.342   5.205 -0.1359 -0.7372  1.0107
  106OSM    H8F10812   0.196  -0.247   5.193  0.1445 -0.9663  0.4441
  106OSM    H8G10813   0.039  -0.302   5.226 -0.0189  2.3264 -3.0629
  106OSM    C9F10814   0.147  -0.425   5.076 -0.1635  0.0190  0.0620
  106OSM    H9F10815   0.248  -0.449   5.038 -0.6610  0.0189 -1.3167
  106OSM   C10F10816   0.046  -0.480   5.006 -0.1158 -0.1881  0.1134
  106OSM   H10F10817   0.073  -0.543   4.920 -2.4261  0.1178 -0.9101
  106OSM   C11F10818  -0.105  -0.475   5.022  0.5235  0.3194 -0.6558
  106OSM   H11F10819  -0.115  -0.439   5.126  2.1139 -2.6193  0.6347
  106OSM   H11G10820  -0.141  -0.580   5.030  0.5241  0.4273  0.9822
  106OSM   C12F10821  -0.180  -0.401   4.908 -0.0895  0.2543 -0.3008
  106OSM   H12F10822  -0.126  -0.304   4.902 -3.2773  2.2368  0.7035
  106OSM   H12G10823  -0.286  -0.381   4.935 -0.6197 -0.4731 -1.7321
  106OSM   C13F10824  -0.175  -0.464   4.775 -0.6486  0.4178  1.0822
  106OSM   H13F10825  -0.222  -0.564   4.779 -0.1837  0.0918 -0.5697
  106OSM   H13G10826  -0.071  -0.493   4.748 -0.2153  2.1107  0.8097
  106OSM   C14F10827  -0.234  -0.376   4.664  0.3533 -0.6803 -0.0189
  106OSM   H14F10828  -0.344  -0.378   4.682  0.3704 -1.5484  0.0453
  106OSM   H14G10829  -0.230  -0.427   4.565 -0.8743 -0.5552 -0.1551
  106OSM   C15F10830  -0.170  -0.232   4.642 -0.4450 -0.5447 -0.2864
  106OSM   H15F10831  -0.060  -0.248   4.640 -0.3880 -0.5427 -4.0720
  106OSM   H15G10832  -0.207  -0.173   4.728 -0.1242  0.2063 -0.6571
  106OSM   C16F10833  -0.213  -0.157   4.515  0.0600 -0.2736 -0.7256
  106OSM   H16F10834  -0.312  -0.110   4.538 -1.0680 -2.8247  0.0259
  106OSM   H16G10835  -0.218  -0.239   4.440 -1.9402  0.1509 -1.1145
  106OSM   C17F10836  -0.110  -0.054   4.470 -0.8070 -0.1654  0.5532
  106OSM   H17F10837  -0.130  -0.035   4.362 -0.4881  0.3228  0.5771
  106OSM   H17G10838  -0.012  -0.106   4.462 -0.2414  0.9019  0.2942
  106OSM   C18F10839  -0.092   0.073   4.555  0.2126  0.6637  0.1004
  106OSM   H18F10840  -0.087   0.048   4.663 -0.1978  1.9443  0.4379
  106OSM   H18G10841  -0.177   0.141   4.537  0.4929  0.8401 -0.5851
  106OSM   H18H10842  -0.005   0.129   4.515  0.0618 -0.5187 -2.0276
  107OSM      N10843   5.753   5.724   6.787  0.5561 -0.8379  0.2130
  107OSM    C1510844   5.841   5.601   6.780 -0.0813  0.5261  0.1690
  107OSM   H15A10845   5.945   5.611   6.805 -0.1167  1.2328  0.0649
  107OSM   H15B10846   5.837   5.564   6.679 -0.5758 -1.0772  0.7451
  107OSM   H15C10847   5.800   5.511   6.824  1.2033 -0.5677 -0.7809
  107OSM    C1410848   5.760   5.771   6.931 -0.1190  0.4095  0.4232
  107OSM   H14A10849   5.861   5.787   6.966  0.5672 -1.9187 -0.2779
  107OSM   H14B10850   5.716   5.695   6.994  2.0685  0.1349  1.7458
  107OSM   H14C10851   5.705   5.857   6.966  0.0070 -0.4070  2.8201
  107OSM    C1310852   5.812   5.833   6.710  0.5459 -0.0378  0.4291
  107OSM   H13A10853   5.914   5.857   6.738  0.4722  0.2985  0.4171
  107OSM   H13B10854   5.751   5.920   6.728  0.1266 -0.2424  0.0100
  107OSM   H13C10855   5.819   5.807   6.606 -2.0274  1.3194 -0.1713
  107OSM    C1210856   5.607   5.700   6.744 -0.1535 -0.1848  0.8350
  107OSM   H12A10857   5.569   5.609   6.787 -2.6432  0.2638 -0.1794
  107OSM   H12B10858   5.600   5.685   6.637 -0.2788  1.1019  0.6369
  107OSM    C1110859   5.503   5.809   6.763 -0.9367  0.4692  0.0174
  107OSM   H11A10860   5.505   5.848   6.867  0.3523  1.1918 -0.2580
  107OSM   H11B10861   5.403   5.764   6.744 -0.8316  0.8279 -1.5911
  107OSM      P10862   5.481   5.916   6.528  0.0186 -0.3392  0.4935
  107OSM    O1310863   5.491   5.782   6.474  0.2142 -0.1442 -0.2819
  107OSM    O1410864   5.350   5.984   6.506  0.0672  0.4481  0.5807
  107OSM    O1110865   5.592   6.009   6.464  0.2657 -0.7079 -0.3306
  107OSM    O1210866   5.517   5.918   6.682  0.1528 -0.0903 -0.1069
  107OSM    C1S10867   5.687   5.968   6.369  0.2967  0.2084  0.5917
  107OSM    H1S10868   5.691   5.861   6.339 -1.1263  0.0795  0.8103
  107OSM    H1T10869   5.787   5.988   6.412 -0.1921  0.3266  1.7227
  107OSM     NF10870   5.780   6.023   6.146 -0.3823 -0.1085  0.2277
  107OSM    HNF10871   5.872   6.063   6.150  0.5151 -1.8560 -1.4461
  107OSM    C2S10872   5.680   6.068   6.243 -0.3410  0.3024  0.1657
  107OSM    H2S10873   5.579   6.041   6.206 -0.6719  0.4337  0.9599
  107OSM    C3S10874   5.685   6.221   6.281  0.3195 -0.9919  0.2528
  107OSM    H3S10875   5.790   6.236   6.312  0.5878 -1.3969 -0.4277
  107OSM     O310876   5.609   6.256   6.397 -0.4997 -0.1597 -0.1847
  107OSM    HO310877   5.592   6.173   6.442 -1.0908  0.7777  1.4280
  107OSM    C4S10878   5.651   6.312   6.166 -0.0511 -0.6605 -0.0469
  107OSM    H4S10879   5.738   6.376   6.145  0.0156 -0.7761 -0.1214
  107OSM    C5S10880   5.533   6.327   6.110 -0.1465 -0.5370 -0.0829
  107OSM    H5S10881   5.452   6.268   6.155 -1.7734  1.3037 -0.4369
  107OSM    C6S10882   5.489   6.439   6.022 -1.0132  0.0478  0.0856
  107OSM    H6S10883   5.517   6.541   6.056 -2.6132  1.4375 -2.4930
  107OSM    H6T10884   5.381   6.440   5.997 -0.8773 -1.3991 -0.6449
  107OSM    C7S10885   5.551   6.410   5.885 -0.0721 -0.2737 -0.4429
  107OSM    H7S10886   5.662   6.414   5.889 -0.0539  1.5469 -1.3350
  107OSM    H7T10887   5.514   6.493   5.820 -3.5195 -1.8311 -0.6595
  107OSM    C8S10888   5.495   6.280   5.816  0.2544 -0.5231  0.2671
  107OSM    H8S10889   5.387   6.279   5.842  0.2768  2.1589  0.7964
  107OSM    H8T10890   5.542   6.187   5.855  3.1752  1.1512  1.1198
  107OSM    C9S10891   5.517   6.293   5.667 -0.1512  1.2215  0.0253
  107OSM    H9S10892   5.623   6.289   5.634 -1.1703  2.6992 -4.0762
  107OSM    H9T10893   5.481   6.392   5.632 -0.2759  1.7070  1.4545
  107OSM   C10S10894   5.433   6.193   5.585 -0.5027 -0.1965 -0.4706
  107OSM   H10S10895   5.327   6.212   5.612 -0.1482  2.1531 -0.5239
  107OSM   H10T10896   5.464   6.089   5.610  0.0136 -0.0911 -0.6612
  107OSM   C11S10897   5.444   6.213   5.429 -0.1162  0.0367  0.2755
  107OSM   H11S10898   5.551   6.201   5.401  0.8530  3.5632  1.9513
  107OSM   H11T10899   5.425   6.319   5.402  0.1520 -0.2624 -1.1675
  107OSM   C12S10900   5.353   6.119   5.350  0.2116 -0.2016  0.2864
  107OSM   H12S10901   5.247   6.138   5.374 -0.6770 -3.2800 -0.7663
  107OSM   H12T10902   5.362   6.014   5.385  0.5995  0.0408  0.9293
  107OSM   C13S10903   5.355   6.136   5.201 -0.0732  0.7869  0.4550
  107OSM   H13S10904   5.328   6.243   5.188 -1.4918  0.9547  3.8091
  107OSM   H13T10905   5.273   6.073   5.161  0.3173  0.7447 -0.2887
  107OSM   C14S10906   5.488   6.095   5.131  0.6096  0.1125  0.2812
  107OSM   H14S10907   5.505   5.989   5.158  0.3012  0.0884  0.3905
  107OSM   H14T10908   5.575   6.140   5.183  1.2111 -0.9184  0.1766
  107OSM   C15S10909   5.491   6.125   4.976  0.3700  0.0434  0.0813
  107OSM   H15S10910   5.452   6.227   4.956 -0.9539 -0.2948  0.8289
  107OSM   H15T10911   5.431   6.044   4.929 -0.1110 -1.6624  3.2947
  107OSM   C16S10912   5.633   6.111   4.917  0.4101 -0.3322 -0.3331
  107OSM   H16S10913   5.675   6.010   4.937  0.5261 -0.1188  0.5289
  107OSM   H16T10914   5.704   6.182   4.965 -0.1784 -0.7869  1.2849
  107OSM   C17S10915   5.621   6.133   4.771 -0.8740  0.1194 -0.0461
  107OSM   H17S10916   5.566   6.219   4.726  0.4185  0.4424 -1.0595
  107OSM   H17T10917   5.558   6.048   4.738  1.0244 -1.5771  0.5426
  107OSM   C18S10918   5.759   6.130   4.706  0.5345 -0.1219  0.3705
  107OSM   H18S10919   5.745   6.117   4.597  1.0456  2.6040 -0.0935
  107OSM   H18T10920   5.824   6.044   4.731  0.7393 -0.3592 -0.9244
  107OSM   H18U10921   5.822   6.218   4.730 -0.2778  1.5791 -3.1473
  107OSM    C1F10922   5.781   5.913   6.080 -0.5013 -0.3705 -0.1945
  107OSM     OF10923   5.680   5.846   6.076 -0.1481  0.1531 -0.4280
  107OSM    C2F10924   5.908   5.865   6.013  0.0176 -0.0505 -1.0698
  107OSM    H2F10925   5.992   5.835   6.079  1.4683  1.6463 -2.0646
  107OSM    H2G10926   5.945   5.954   5.959 -0.7548  0.4932 -0.7339
  107OSM    C3F10927   5.878   5.751   5.911 -0.8285 -0.0363  0.3503
  107OSM    H3F10928   5.807   5.786   5.832  1.5477 -0.1650 -2.0046
  107OSM    H3G10929   5.840   5.660   5.960 -0.8205  0.9220  2.2299
  107OSM    C4F10930   6.003   5.712   5.832  0.0772  0.2600 -0.3086
  107OSM    H4F10931   6.067   5.655   5.903 -0.7688 -0.0206  0.2486
  107OSM    H4G10932   6.051   5.805   5.798 -1.5521  0.9183 -0.9274
  107OSM    C5F10933   5.963   5.614   5.715 -0.5442  0.4720 -0.2322
  107OSM    H5F10934   6.054   5.578   5.663  0.8594  0.3400  2.1474
  107OSM    H5G10935   5.896   5.665   5.643 -0.6251 -1.1369 -1.3541
  107OSM    C6F10936   5.888   5.493   5.776 -0.1327  0.3630 -0.5280
  107OSM    H6F10937   5.793   5.521   5.826  0.0682  1.5801 -0.8027
  107OSM    H6G10938   5.952   5.458   5.859 -1.7575 -0.3731  0.4662
  107OSM    C7F10939   5.864   5.387   5.666  0.9012 -0.1858  0.3823
  107OSM    H7F10940   5.964   5.380   5.618 -0.0172 -0.2180 -1.6161
  107OSM    H7G10941   5.791   5.424   5.592 -0.9933 -0.0506  2.2321
  107OSM    C8F10942   5.831   5.245   5.724 -0.2790  0.1218 -0.5117
  107OSM    H8F10943   5.736   5.240   5.779  0.3460  0.3926  0.6163
  107OSM    H8G10944   5.905   5.217   5.802 -1.8092 -0.6862  0.6947
  107OSM    C9F10945   5.838   5.131   5.621 -0.0438 -0.0201  1.2079
  107OSM    H9F10946   5.941   5.098   5.601 -0.4888 -0.3529 -0.7727
  107OSM   C10F10947   5.745   5.087   5.535 -0.3020  0.0348 -0.3109
  107OSM   H10F10948   5.768   5.004   5.467  1.4570 -0.0654  0.3595
  107OSM   C11F10949   5.595   5.130   5.535 -0.0552  0.1610 -0.6808
  107OSM   H11F10950   5.570   5.140   5.643  2.6431  1.9257 -0.1261
  107OSM   H11G10951   5.527   5.059   5.483  1.3188 -2.4699  0.9051
  107OSM   C12F10952   5.569   5.266   5.467  0.2033 -0.1592  0.5700
  107OSM   H12F10953   5.600   5.356   5.524 -1.5014  0.4282  0.5939
  107OSM   H12G10954   5.462   5.273   5.440  0.2547  1.2131  0.6820
  107OSM   C13F10955   5.636   5.252   5.321 -0.6732 -0.3929 -0.5870
  107OSM   H13F10956   5.598   5.161   5.269 -1.1513 -0.3543 -0.3141
  107OSM   H13G10957   5.746   5.245   5.332 -0.7812  0.3136  1.2781
  107OSM   C14F10958   5.627   5.371   5.227  0.7583 -0.0762 -1.1111
  107OSM   H14F10959   5.631   5.463   5.290 -0.7858  0.4401 -1.7267
  107OSM   H14G10960   5.522   5.370   5.192 -0.1613  0.4008  1.4580
  107OSM   C15F10961   5.733   5.381   5.117 -0.0423  0.5392  0.1045
  107OSM   H15F10962   5.752   5.286   5.062 -1.7515 -0.8810  1.8272
  107OSM   H15G10963   5.833   5.399   5.162  0.9146 -3.1243 -0.2843
  107OSM   C16F10964   5.697   5.492   5.014  0.4097 -0.4055  0.0065
  107OSM   H16F10965   5.671   5.584   5.069 -1.5030 -0.9693  0.1143
  107OSM   H16G10966   5.600   5.456   4.973  0.3993 -1.8732  1.2195
  107OSM   C17F10967   5.815   5.519   4.922  0.8991 -0.5812 -0.0825
  107OSM   H17F10968   5.846   5.419   4.884  2.2285  0.0976 -0.8710
  107OSM   H17G10969   5.901   5.564   4.976  0.4001 -2.8129  2.7956
  107OSM   C18F10970   5.772   5.626   4.815 -0.3706 -0.3390 -0.8525
  107OSM   H18F10971   5.682   5.589   4.761 -0.4631  0.0865 -0.9959
  107OSM   H18G10972   5.859   5.645   4.750 -0.2758  2.0301 -0.1464
  107OSM   H18H10973   5.737   5.723   4.857 -1.0727 -0.8034 -0.3240
  108OSM      N10974   1.630   4.834   6.739  0.6398  0.2226  0.1833
  108OSM    C1510975   1.602   4.981   6.762  0.1822  0.9626 -0.5483
  108OSM   H15A10976   1.679   5.024   6.824  1.5363 -0.6457 -1.0288
  108OSM   H15B10977   1.504   4.992   6.806  0.7041 -2.3112  1.8013
  108OSM   H15C10978   1.620   5.023   6.664 -4.2206 -0.2201 -2.0869
  108OSM    C1410979   1.777   4.803   6.725  0.3933  0.6118 -0.0519
  108OSM   H14A10980   1.825   4.847   6.638 -0.2768 -0.9731 -1.2821
  108OSM   H14B10981   1.791   4.699   6.699 -1.0345  0.9575 -2.5665
  108OSM   H14C10982   1.828   4.838   6.813  1.2377  0.0017 -0.2765
  108OSM    C1310983   1.576   4.753   6.856 -0.2854  0.4838  0.8263
  108OSM   H13A10984   1.472   4.774   6.878 -0.5778 -1.0296  0.9977
  108OSM   H13B10985   1.634   4.763   6.946  1.2515 -3.7442  0.5366
  108OSM   H13C10986   1.579   4.649   6.828 -0.0067  0.7760 -0.3033
  108OSM    C1210987   1.553   4.778   6.620 -0.4740  0.7378 -0.2023
  108OSM   H12A10988   1.446   4.790   6.627 -0.4480  0.5321  0.7132
  108OSM   H12B10989   1.554   4.670   6.623 -4.0702  0.5585 -1.0830
  108OSM    C1110990   1.613   4.806   6.481 -0.8364  0.2594  0.2310
  108OSM   H11A10991   1.557   4.770   6.392  0.7054  1.6198 -1.3928
  108OSM   H11B10992   1.707   4.746   6.488  0.1599  1.7130 -0.0412
  108OSM      P10993   1.749   4.985   6.368  0.5196  0.1188  0.0259
  108OSM    O1310994   1.741   5.131   6.339 -0.3143  0.6566 -0.3530
  108OSM    O1410995   1.879   4.939   6.425 -0.0360  0.8115 -0.1770
  108OSM    O1110996   1.714   4.898   6.239 -0.3796  0.7554  0.2799
  108OSM    O1210997   1.631   4.949   6.465 -0.0954  0.0472 -0.1557
  108OSM    C1S10998   1.734   4.942   6.106 -0.2643 -0.5539  0.0436
  108OSM    H1S10999   1.841   4.964   6.087 -0.1615 -0.9788  0.1309
  108OSM    H1T11000   1.686   5.040   6.088  1.2319  0.3423  0.7187
  108OSM     NF11001   1.737   4.872   5.862  0.7763 -0.8921  0.3165
  108OSM    HNF11002   1.669   4.916   5.804  1.3364  0.1729  0.4454
  108OSM    C2S11003   1.691   4.832   5.992 -0.8084 -0.1050 -0.6873
  108OSM    H2S11004   1.747   4.739   6.019 -0.8368 -0.1300 -0.7148
  108OSM    C3S11005   1.540   4.814   6.001  0.1472  0.1446 -0.3495
  108OSM    H3S11006   1.496   4.912   5.972  0.8704  0.0796 -1.7475
  108OSM     O311007   1.486   4.795   6.131 -0.2100  0.1212  0.1292
  108OSM    HO311008   1.530   4.866   6.178 -0.4562  1.4994 -1.6210
  108OSM    C4S11009   1.487   4.714   5.898  0.1068  0.0277 -0.3365
  108OSM    H4S11010   1.430   4.747   5.810  1.4824  0.1186 -1.2303
  108OSM    C5S11011   1.515   4.579   5.901 -0.2521 -0.8911 -0.5903
  108OSM    H5S11012   1.577   4.547   5.986 -1.0808  1.4397  0.9859
  108OSM    C6S11013   1.472   4.475   5.798 -0.0819 -0.1371  0.4211
  108OSM    H6S11014   1.366   4.481   5.768 -0.0551  0.6828  0.4722
  108OSM    H6T11015   1.483   4.371   5.837 -0.3070  0.3332  1.7992
  108OSM    C7S11016   1.553   4.489   5.670  0.6139  0.2685  0.0220
  108OSM    H7S11017   1.527   4.591   5.633 -1.2412 -0.7469 -1.6898
  108OSM    H7T11018   1.530   4.421   5.585 -1.8370  0.8755  0.1073
  108OSM    C8S11019   1.699   4.480   5.688 -0.6072 -0.5725  0.6825
  108OSM    H8S11020   1.721   4.391   5.751 -1.3164 -1.1527  0.1233
  108OSM    H8T11021   1.733   4.571   5.742 -2.2779  0.4111  0.1301
  108OSM    C9S11022   1.782   4.463   5.554 -0.3723 -0.0275 -0.4760
  108OSM    H9S11023   1.737   4.377   5.499 -0.2466 -1.6378  1.8157
  108OSM    H9T11024   1.888   4.437   5.576 -0.9670 -1.6161  0.6888
  108OSM   C10S11025   1.776   4.606   5.479  0.4702  1.2043 -0.6346
  108OSM   H10S11026   1.856   4.676   5.514  0.1748  0.5646  1.4953
  108OSM   H10T11027   1.671   4.638   5.493 -0.1552 -0.3949 -1.5201
  108OSM   C11S11028   1.785   4.599   5.326  0.1241 -0.3898 -0.2796
  108OSM   H11S11029   1.736   4.687   5.279  0.7960  0.8131  1.1738
  108OSM   H11T11030   1.742   4.504   5.286  1.5275 -0.9475 -0.5394
  108OSM   C12S11031   1.938   4.610   5.277  0.1466  0.3040 -0.3561
  108OSM   H12S11032   2.001   4.535   5.329 -0.3250  0.4161  0.3911
  108OSM   H12T11033   1.992   4.704   5.301 -0.0559  0.2150  0.4937
  108OSM   C13S11034   1.943   4.597   5.123  0.5519  0.2626 -0.1436
  108OSM   H13S11035   1.861   4.539   5.075  1.1909 -0.4304 -0.4255
  108OSM   H13T11036   2.041   4.556   5.089 -0.0135 -0.3337 -1.1216
  108OSM   C14S11037   1.912   4.738   5.065  0.0256  0.1665 -0.0997
  108OSM   H14S11038   1.994   4.802   5.102  1.9873 -2.4956  0.4602
  108OSM   H14T11039   1.814   4.778   5.100 -0.0291  1.6049 -1.7694
  108OSM   C15S11040   1.916   4.753   4.917 -0.1569 -0.1564 -0.2880
  108OSM   H15S11041   1.837   4.701   4.858 -2.0169  3.5929 -1.4351
  108OSM   H15T11042   2.008   4.704   4.880 -1.5822 -0.9957 -2.9997
  108OSM   C16S11043   1.911   4.902   4.880 -0.1783  0.3265 -0.7292
  108OSM   H16S11044   1.980   4.952   4.951  0.1687 -1.4419  0.2387
  108OSM   H16T11045   1.808   4.936   4.907  0.5275  2.0530 -0.0704
  108OSM   C17S11046   1.937   4.940   4.739 -0.3707  0.6183  0.4672
  108OSM   H17S11047   1.863   4.881   4.680 -0.1661  0.2899  0.5315
  108OSM   H17T11048   2.044   4.916   4.721 -0.4647  1.5172 -1.5103
  108OSM   C18S11049   1.911   5.082   4.694  0.1975 -0.3590 -0.4101
  108OSM   H18S11050   1.987   5.155   4.729  0.4682 -0.9427  0.2467
  108OSM   H18T11051   1.809   5.115   4.723  0.2183 -0.2680 -0.4416
  108OSM   H18U11052   1.912   5.087   4.583 -0.1909 -1.1350 -0.4548
  108OSM    C1F11053   1.860   4.886   5.818 -0.0183  0.0758 -0.9164
  108OSM     OF11054   1.959   4.858   5.885  0.3883 -0.0046  0.5762
  108OSM    C2F11055   1.863   4.953   5.682  0.1254  0.1804 -0.0785
  108OSM    H2F11056   1.888   5.060   5.700 -0.4680 -0.2199  4.1293
  108OSM    H2G11057   1.768   4.939   5.625 -0.9659  1.2618  1.4047
  108OSM    C3F11058   1.984   4.918   5.594  0.1949  0.3945 -0.0238
  108OSM    H3F11059   1.998   4.808   5.598 -0.1705  0.3382 -0.2434
  108OSM    H3G11060   2.083   4.956   5.629  0.7048  0.2743 -1.2898
  108OSM    C4F11061   1.956   4.951   5.444 -0.1111  0.1584  0.0616
  108OSM    H4F11062   1.870   4.885   5.420 -0.9591  1.5401 -0.8391
  108OSM    H4G11063   2.045   4.919   5.385  0.0796 -1.4779  1.1540
  108OSM    C5F11064   1.912   5.089   5.404 -0.1833  0.3672 -0.2635
  108OSM    H5F11065   1.981   5.171   5.433 -1.8580  2.4941 -1.9248
  108OSM    H5G11066   1.815   5.113   5.453  0.3446  0.7617  0.6190
  108OSM    C6F11067   1.880   5.097   5.251  0.1629 -0.2057 -0.0452
  108OSM    H6F11068   1.816   5.010   5.223  0.7272  0.6143 -4.5896
  108OSM    H6G11069   1.976   5.074   5.201  1.3527 -0.7974  2.3612
  108OSM    C7F11070   1.814   5.222   5.207  0.0431 -0.1876 -0.0888
  108OSM    H7F11071   1.868   5.314   5.239 -2.0169  1.3851 -0.9069
  108OSM    H7G11072   1.711   5.216   5.248 -0.6634  0.2755 -1.7461
  108OSM    C8F11073   1.798   5.228   5.058 -0.0286 -0.3522  0.1713
  108OSM    H8F11074   1.731   5.314   5.037 -1.1073 -1.0763  0.5512
  108OSM    H8G11075   1.744   5.137   5.025  1.0797 -0.5783 -1.1022
  108OSM    C9F11076   1.929   5.251   4.985  0.3567 -0.7882 -0.3265
  108OSM    H9F11077   2.002   5.170   5.001  0.8332 -0.5635 -1.2897
  108OSM   C10F11078   1.962   5.368   4.927  0.8803 -0.1446 -0.0691
  108OSM   H10F11079   2.061   5.363   4.879  0.3054 -1.4664 -1.1935
  108OSM   C11F11080   1.885   5.495   4.908  0.1271 -0.3931  0.0543
  108OSM   H11F11081   1.954   5.581   4.898  0.7125 -0.8066  0.4909
  108OSM   H11G11082   1.821   5.524   4.994 -1.6059  0.5332 -1.4717
  108OSM   C12F11083   1.790   5.501   4.784  0.4826  0.2946  0.4079
  108OSM   H12F11084   1.738   5.598   4.796  0.0248  0.2289 -0.8998
  108OSM   H12G11085   1.711   5.423   4.783 -1.7585  2.3934  1.6489
  108OSM   C13F11086   1.862   5.524   4.646 -0.4534 -0.0665  0.1190
  108OSM   H13F11087   1.949   5.456   4.636 -0.6211 -0.1749 -0.6012
  108OSM   H13G11088   1.888   5.630   4.662 -0.0845  0.1265 -1.6295
  108OSM   C14F11089   1.765   5.508   4.525  0.6608  1.1687  0.1353
  108OSM   H14F11090   1.668   5.556   4.550 -1.1899 -0.5652 -3.0091
  108OSM   H14G11091   1.735   5.400   4.526  0.7634  1.1235 -0.7220
  108OSM   C15F11092   1.825   5.548   4.391  0.3406  0.2782 -0.5016
  108OSM   H15F11093   1.740   5.556   4.320 -1.1401 -0.1884  1.1398
  108OSM   H15G11094   1.886   5.465   4.351 -0.4158 -0.0649 -0.9622
  108OSM   C16F11095   1.902   5.681   4.401 -0.0219  0.0708  0.7950
  108OSM   H16F11096   2.004   5.646   4.429  0.2628  0.0283 -0.2703
  108OSM   H16G11097   1.843   5.738   4.476 -1.5470 -3.1295  2.1881
  108OSM   C17F11098   1.914   5.773   4.280 -0.0028 -0.1001  0.5441
  108OSM   H17F11099   1.970   5.866   4.305  0.5897 -0.1623 -0.5092
  108OSM   H17G11100   1.811   5.804   4.250 -0.4819 -2.1771 -0.1008
  108OSM   C18F11101   1.985   5.707   4.165 -0.0388  0.3547 -0.0479
  108OSM   H18F11102   2.088   5.681   4.196  0.4237  1.7252 -0.3806
  108OSM   H18G11103   2.003   5.763   4.071 -0.2134  1.2352  0.4305
  108OSM   H18H11104   1.929   5.614   4.142 -1.5248  1.7534 -2.4657
  109OSM      N11105   4.330   3.032   6.693 -0.1613 -0.3103  0.6226
  109OSM    C1511106   4.288   3.040   6.549 -0.9319  0.1259 -0.0673
  109OSM   H15A11107   4.183   3.032   6.524 -1.0310  0.2270  0.3134
  109OSM   H15B11108   4.330   2.958   6.493 -0.6945  1.4392 -1.9045
  109OSM   H15C11109   4.322   3.133   6.507  0.5398 -0.0355  0.7222
  109OSM    C1411110   4.293   3.165   6.754  0.6477 -0.3112 -0.3618
  109OSM   H14A11111   4.324   3.252   6.698 -1.6649 -0.2607 -1.7101
  109OSM   H14B11112   4.302   3.168   6.861  1.3964  2.1806 -0.4405
  109OSM   H14C11113   4.186   3.169   6.737  0.5288 -2.1807 -0.3151
  109OSM    C1311114   4.245   2.926   6.766 -0.2153  0.2304  0.4962
  109OSM   H13A11115   4.139   2.946   6.763 -0.0195  1.1943 -0.3910
  109OSM   H13B11116   4.272   2.909   6.869  0.9217 -1.7126 -0.0644
  109OSM   H13C11117   4.261   2.833   6.713  0.8522  0.6753  0.0070
  109OSM    C1211118   4.472   3.005   6.715  0.0495 -0.4948 -0.2387
  109OSM   H12A11119   4.487   2.988   6.820  1.6856 -0.9694 -0.5319
  109OSM   H12B11120   4.527   3.093   6.683  0.5728 -1.0766 -0.9725
  109OSM    C1111121   4.532   2.891   6.632 -0.7751  1.0870  0.0945
  109OSM   H11A11122   4.539   2.917   6.524  0.7402  1.5296  0.2653
  109OSM   H11B11123   4.462   2.806   6.639 -0.7809  1.1507  0.9132
  109OSM      P11124   4.795   2.917   6.661  0.2146  0.1498  0.0076
  109OSM    O1311125   4.769   3.061   6.694  0.6646 -0.5961 -0.2533
  109OSM    O1411126   4.898   2.845   6.736  0.6502  0.0833  0.3661
  109OSM    O1111127   4.824   2.920   6.504 -0.5024 -0.9865  0.3569
  109OSM    O1211128   4.663   2.847   6.678  0.0212  0.9208 -0.2644
  109OSM    C1S11129   4.838   2.799   6.432 -0.7298  0.9515 -0.5808
  109OSM    H1S11130   4.742   2.744   6.440 -0.6193  1.0006  1.8593
  109OSM    H1T11131   4.920   2.745   6.484 -0.8473  1.1985 -0.1284
  109OSM     NF11132   4.906   2.684   6.223  0.0095  0.0225  0.1721
  109OSM    HNF11133   4.999   2.650   6.216  0.9163  1.8813  1.9871
  109OSM    C2S11134   4.883   2.813   6.288 -0.5632  0.7270 -0.5935
  109OSM    H2S11135   4.796   2.864   6.241  0.4107  1.2647 -1.8664
  109OSM    C3S11136   4.998   2.919   6.263  1.3139 -0.4654 -0.6507
  109OSM    H3S11137   5.098   2.882   6.296  0.9271  0.7127  2.1532
  109OSM     O311138   4.977   3.044   6.329 -0.4430 -0.4655  0.1921
  109OSM    HO311139   4.904   3.033   6.389  1.8762  2.1755  3.9428
  109OSM    C4S11140   4.982   2.933   6.114  0.7876 -0.6689 -0.0838
  109OSM    H4S11141   4.884   2.972   6.081 -0.0325 -2.3844  0.2343
  109OSM    C5S11142   5.065   2.894   6.015  0.4519 -1.3261 -0.1019
  109OSM    H5S11143   5.157   2.839   6.039  0.5111 -1.0843  0.2210
  109OSM    C6S11144   5.041   2.894   5.869  1.0463 -0.7393 -0.0218
  109OSM    H6S11145   5.105   2.980   5.839  0.6642  0.2265  1.7922
  109OSM    H6T11146   4.934   2.917   5.850  0.6783 -0.5006  2.0966
  109OSM    C7S11147   5.069   2.759   5.800  0.3061 -0.2670  0.0456
  109OSM    H7S11148   5.009   2.685   5.856 -0.8233  0.6411  0.0590
  109OSM    H7T11149   5.180   2.745   5.801  0.4214  0.3815 -1.2313
  109OSM    C8S11150   5.012   2.745   5.656  0.1359  0.5705  0.0609
  109OSM    H8S11151   4.903   2.740   5.676  0.5409 -2.1146  2.2556
  109OSM    H8T11152   5.048   2.651   5.609 -0.3605  0.6915 -0.5784
  109OSM    C9S11153   5.053   2.865   5.563  0.7783  0.2650  1.1851
  109OSM    H9S11154   5.160   2.885   5.583  1.3036 -0.8089 -0.3542
  109OSM    H9T11155   4.994   2.953   5.594 -0.8504 -0.2130 -0.3940
  109OSM   C10S11156   5.040   2.838   5.410 -0.6308  0.3190 -0.0177
  109OSM   H10S11157   5.068   2.930   5.353  0.4703 -0.2815 -0.4747
  109OSM   H10T11158   4.943   2.797   5.376 -1.0849 -1.0886  2.7362
  109OSM   C11S11159   5.162   2.750   5.354 -0.3017  0.5520 -0.1342
  109OSM   H11S11160   5.163   2.651   5.405 -1.3442  0.2409 -0.6920
  109OSM   H11T11161   5.262   2.800   5.358  0.7367 -1.4628  3.4982
  109OSM   C12S11162   5.144   2.707   5.209  0.0729 -0.6561  0.2327
  109OSM   H12S11163   5.045   2.657   5.204 -0.7328  0.1424  4.3613
  109OSM   H12T11164   5.222   2.631   5.188  1.3897  0.3865  1.1541
  109OSM   C13S11165   5.154   2.819   5.116  0.2890 -0.7508  0.1284
  109OSM   H13S11166   5.253   2.869   5.118  0.3673 -0.8846 -0.2274
  109OSM   H13T11167   5.077   2.895   5.141 -1.1929 -2.5029  1.1457
  109OSM   C14S11168   5.135   2.778   4.967 -0.1824 -0.1506 -0.0363
  109OSM   H14S11169   5.031   2.743   4.983 -0.3098  0.5607  0.7632
  109OSM   H14T11170   5.206   2.698   4.935  2.2117  1.4463  1.0220
  109OSM   C15S11171   5.141   2.909   4.879  0.0951  0.3256  0.1591
  109OSM   H15S11172   5.241   2.954   4.897 -0.7469  1.6674  1.8420
  109OSM   H15T11173   5.059   2.971   4.923 -1.8997 -2.0810  0.0679
  109OSM   C16S11174   5.110   2.887   4.730 -0.7685  0.2470  0.3123
  109OSM   H16S11175   5.148   2.790   4.692 -0.7959  0.4203 -0.1682
  109OSM   H16T11176   5.161   2.966   4.671 -1.1717 -0.5339 -1.1222
  109OSM   C17S11177   4.959   2.864   4.705 -0.1753  0.1312 -0.1836
  109OSM   H17S11178   4.926   2.782   4.772 -1.1067  0.2386 -0.4961
  109OSM   H17T11179   4.954   2.825   4.601  2.0902  0.9879 -0.6759
  109OSM   C18S11180   4.877   2.991   4.720 -0.8413 -0.0183 -0.8055
  109OSM   H18S11181   4.911   3.059   4.639  1.4097 -0.5057 -0.3345
  109OSM   H18T11182   4.887   3.035   4.822  3.3355 -1.0388 -0.5975
  109OSM   H18U11183   4.768   2.973   4.710 -1.1660  0.6011  1.1584
  109OSM    C1F11184   4.820   2.586   6.208 -1.0282  0.1080  0.4320
  109OSM     OF11185   4.706   2.595   6.242 -0.1941  0.0012  0.4524
  109OSM    C2F11186   4.873   2.453   6.147  0.3380 -0.1845 -0.8473
  109OSM    H2F11187   4.856   2.372   6.221 -3.3966  0.5087 -0.7452
  109OSM    H2G11188   4.980   2.451   6.117  1.1835  2.8323  1.5270
  109OSM    C3F11189   4.789   2.425   6.015  0.1110 -0.7621 -0.1938
  109OSM    H3F11190   4.793   2.511   5.945  1.0904 -0.2614  0.4583
  109OSM    H3G11191   4.682   2.436   6.043  0.3562 -0.9563  0.8943
  109OSM    C4F11192   4.816   2.293   5.943 -0.6628  0.0724  1.1120
  109OSM    H4F11193   4.725   2.234   5.918 -1.5801  1.7429  0.2962
  109OSM    H4G11194   4.874   2.229   6.012  1.5327  0.5784 -0.1534
  109OSM    C5F11195   4.903   2.318   5.816  0.3675  0.2010 -0.0367
  109OSM    H5F11196   4.949   2.221   5.785  0.1285  0.4234 -1.1219
  109OSM    H5G11197   4.985   2.392   5.827  0.5506  0.4110 -2.3494
  109OSM    C6F11198   4.820   2.353   5.693  0.4148 -0.0622 -0.3727
  109OSM    H6F11199   4.738   2.428   5.703  0.5722  0.6039 -3.2037
  109OSM    H6G11200   4.760   2.260   5.681 -0.5493  0.0806  2.5116
  109OSM    C7F11201   4.911   2.377   5.569 -0.1041 -0.0134 -0.3612
  109OSM    H7F11202   4.976   2.465   5.589 -0.3495 -0.0427  0.6310
  109OSM    H7G11203   4.828   2.398   5.498 -0.6850 -2.0641 -0.3384
  109OSM    C8F11204   4.997   2.264   5.517 -0.1899  0.4076 -0.7985
  109OSM    H8F11205   5.078   2.239   5.589  1.4663  1.5184 -2.1660
  109OSM    H8G11206   5.048   2.307   5.428  1.0505 -0.1839 -0.4114
  109OSM    C9F11207   4.928   2.135   5.480  0.2223  0.5783 -0.7369
  109OSM    H9F11208   4.875   2.091   5.566 -0.3565  2.9223  0.1956
  109OSM   C10F11209   4.911   2.094   5.359  0.1689  0.1427  0.3678
  109OSM   H10F11210   4.867   1.993   5.349  1.1126 -0.5234  2.3525
  109OSM   C11F11211   4.959   2.149   5.228 -0.2703 -0.0346 -0.9399
  109OSM   H11F11212   5.066   2.122   5.218 -0.1085 -1.2666  2.6291
  109OSM   H11G11213   4.947   2.259   5.229 -3.4299 -0.2628  1.1101
  109OSM   C12F11214   4.871   2.097   5.114 -0.6458 -0.1147  0.6599
  109OSM   H12F11215   4.897   1.990   5.097  0.1736  0.3893 -1.4559
  109OSM   H12G11216   4.882   2.159   5.023 -2.5590 -1.2931 -0.4371
  109OSM   C13F11217   4.721   2.113   5.121  0.0631  0.3777 -0.2026
  109OSM   H13F11218   4.699   2.215   5.085 -0.0083  0.2854 -0.4243
  109OSM   H13G11219   4.690   2.104   5.228 -1.9435 -2.0853 -0.8741
  109OSM   C14F11220   4.645   2.016   5.028 -0.0474 -0.6257 -0.3233
  109OSM   H14F11221   4.539   2.004   5.057  0.6221 -0.7824  2.2810
  109OSM   H14G11222   4.684   1.914   5.052 -0.9351 -0.6900  0.9448
  109OSM   C15F11223   4.660   2.046   4.885 -0.0949 -0.2882  0.0604
  109OSM   H15F11224   4.765   2.056   4.849  0.5017 -1.5675  1.3260
  109OSM   H15G11225   4.608   2.136   4.849  3.5420  1.1900 -2.0603
  109OSM   C16F11226   4.610   1.926   4.799 -0.5063 -0.0852  0.0658
  109OSM   H16F11227   4.499   1.923   4.797 -0.5258 -2.6848 -2.8928
  109OSM   H16G11228   4.648   1.833   4.846 -1.8531 -1.0473 -0.6873
  109OSM   C17F11229   4.658   1.932   4.653 -0.2719 -1.0108  0.3345
  109OSM   H17F11230   4.764   1.963   4.654 -0.1839 -1.2332 -0.6302
  109OSM   H17G11231   4.604   2.018   4.607  0.3211  0.9588  3.0455
  109OSM   C18F11232   4.647   1.797   4.585  0.3227 -0.1517  0.6310
  109OSM   H18F11233   4.546   1.751   4.591 -0.9803  2.4569 -0.0920
  109OSM   H18G11234   4.720   1.723   4.624  1.4929 -0.9826 -2.7904
  109OSM   H18H11235   4.672   1.815   4.478  0.4673  1.4870  0.9214
  110OSM      N11236   6.205   0.902   6.505 -0.2122 -0.2566 -0.1973
  110OSM    C1511237   6.211   0.906   6.655  0.6097  0.0505  0.1492
  110OSM   H15A11238   6.232   0.809   6.699  2.0481  0.5750  0.6529
  110OSM   H15B11239   6.114   0.939   6.690 -0.2003 -0.7287 -1.2787
  110OSM   H15C11240   6.287   0.977   6.683  1.6910 -1.0480  0.1168
  110OSM    C1411241   6.082   0.836   6.465 -0.8789  0.1137  0.5244
  110OSM   H14A11242   6.076   0.735   6.503  0.2716  0.5009  1.8581
  110OSM   H14B11243   6.080   0.826   6.358 -1.5924 -0.6475  0.5977
  110OSM   H14C11244   5.998   0.893   6.502  0.1442  1.9984  0.0681
  110OSM    C1311245   6.200   1.039   6.455  0.0320  0.1246 -0.1612
  110OSM   H13A11246   6.279   1.106   6.485 -0.7320  0.2832  1.6280
  110OSM   H13B11247   6.112   1.077   6.505  0.8942  1.2654  0.5541
  110OSM   H13C11248   6.175   1.046   6.350 -0.8095  0.5614  0.0585
  110OSM    C1211249   6.324   0.822   6.447  0.0752  0.2053  0.2752
  110OSM   H12A11250   6.330   0.733   6.508  0.4332 -0.8618 -1.2667
  110OSM   H12B11251   6.416   0.879   6.454  1.1542 -1.4081 -0.2101
  110OSM    C1111252   6.326   0.796   6.291  0.1242  0.4643  0.6180
  110OSM   H11A11253   6.432   0.769   6.272  0.3913  0.6376  1.7798
  110OSM   H11B11254   6.301   0.889   6.235 -0.3701  0.5755  1.0159
  110OSM      P11255   6.270   0.545   6.259  0.1369  0.0141 -0.5218
  110OSM    O1311256   6.339   0.515   6.390  0.1254 -0.0212  0.7710
  110OSM    O1411257   6.151   0.467   6.236  0.2360 -0.2459  0.6448
  110OSM    O1111258   6.368   0.517   6.144 -0.2194  0.0748  0.5217
  110OSM    O1211259   6.235   0.697   6.242  1.0402 -0.8426 -0.7425
  110OSM    C1S11260   6.376   0.383   6.092 -0.3103  0.6093 -0.0988
  110OSM    H1S11261   6.283   0.324   6.099  1.6670 -2.6199  1.7254
  110OSM    H1T11262   6.453   0.328   6.151  0.2437  4.6204  3.4346
  110OSM     NF11263   6.391   0.249   5.893  0.1943 -0.1461 -0.2974
  110OSM    HNF11264   6.465   0.184   5.891 -0.4953 -0.9260 -1.0880
  110OSM    C2S11265   6.418   0.384   5.942 -0.0599  0.2408  0.0015
  110OSM    H2S11266   6.359   0.453   5.879 -1.5245 -1.6107 -0.7377
  110OSM    C3S11267   6.560   0.438   5.923 -0.8523 -0.0560 -0.1677
  110OSM    H3S11268   6.635   0.372   5.971  1.0074  1.7607 -0.4212
  110OSM     O311269   6.584   0.573   5.980 -0.6947  0.0170 -0.0032
  110OSM    HO311270   6.524   0.584   6.054 -1.0679  0.4371 -0.3629
  110OSM    C4S11271   6.589   0.439   5.775 -0.0320 -0.7842  0.2854
  110OSM    H4S11272   6.645   0.352   5.739  1.4613 -0.2049  1.1123
  110OSM    C5S11273   6.579   0.541   5.684  0.5721 -0.1884 -0.9342
  110OSM    H5S11274   6.561   0.643   5.720  1.3158 -0.4973  0.3601
  110OSM    C6S11275   6.628   0.529   5.545  0.5533  0.0806 -0.6749
  110OSM    H6S11276   6.736   0.553   5.538 -0.0858  2.9811 -2.1551
  110OSM    H6T11277   6.575   0.612   5.493 -1.0408 -0.4895 -0.0108
  110OSM    C7S11278   6.604   0.407   5.452  0.0059  0.2444 -0.5185
  110OSM    H7S11279   6.493   0.396   5.451 -0.3129  2.9448 -1.3832
  110OSM    H7T11280   6.649   0.313   5.490 -1.7205 -1.2470 -1.9336
  110OSM    C8S11281   6.652   0.428   5.310  0.0358  0.1250  0.0539
  110OSM    H8S11282   6.592   0.510   5.264  0.7707 -0.9131 -2.9637
  110OSM    H8T11283   6.624   0.335   5.257  0.5315  0.2217 -0.3846
  110OSM    C9S11284   6.794   0.459   5.282  0.1150 -0.2053  0.6292
  110OSM    H9S11285   6.849   0.370   5.320 -0.6248 -0.8808  0.1566
  110OSM    H9T11286   6.831   0.544   5.343  0.9454 -0.0842 -0.0368
  110OSM   C10S11287   6.830   0.478   5.136  0.1557 -0.2088 -0.0264
  110OSM   H10S11288   6.939   0.499   5.130  0.2213 -0.7570 -0.7948
  110OSM   H10T11289   6.759   0.551   5.092  0.4211 -0.6318 -1.1795
  110OSM   C11S11290   6.804   0.353   5.050 -0.9090  0.5216 -0.1408
  110OSM   H11S11291   6.751   0.384   4.958 -0.8265 -1.2305 -0.8276
  110OSM   H11T11292   6.729   0.281   5.088 -1.4749 -0.1890 -2.4727
  110OSM   C12S11293   6.931   0.276   5.005 -0.5274 -0.3184 -0.4774
  110OSM   H12S11294   7.004   0.256   5.087  0.1125 -0.7179 -1.1295
  110OSM   H12T11295   6.989   0.348   4.945 -0.1343 -1.3013 -1.2940
  110OSM   C13S11296   6.898   0.144   4.937  0.1815  0.7125  0.2595
  110OSM   H13S11297   6.825   0.167   4.857  1.5270 -0.2312 -1.3179
  110OSM   H13T11298   6.860   0.074   5.015 -1.8592  1.5252  0.0455
  110OSM   C14S11299   7.018   0.076   4.873  0.5665  0.3163  0.4300
  110OSM   H14S11300   7.113   0.099   4.926  0.0141  2.1560  0.6909
  110OSM   H14T11301   7.030   0.115   4.770  0.7134  0.0122  0.3284
  110OSM   C15S11302   7.010  -0.082   4.871  0.2327 -0.3876  0.5747
  110OSM   H15S11303   6.915  -0.108   4.820  0.1837  2.9992 -1.3445
  110OSM   H15T11304   7.002  -0.122   4.975  0.6968  0.0459  0.7785
  110OSM   C16S11305   7.118  -0.169   4.811 -0.3528 -0.7078 -0.3741
  110OSM   H16S11306   7.086  -0.273   4.832 -1.1066 -0.0465  2.1128
  110OSM   H16T11307   7.212  -0.160   4.870  1.9858  0.4955 -3.9928
  110OSM   C17S11308   7.148  -0.139   4.666  0.5534 -0.4367 -0.0720
  110OSM   H17S11309   7.192  -0.037   4.662  0.3267 -0.1823  2.2922
  110OSM   H17T11310   7.052  -0.137   4.610  0.9257  2.3577 -0.7485
  110OSM   C18S11311   7.244  -0.236   4.604 -0.1364  0.9352 -0.2072
  110OSM   H18S11312   7.340  -0.229   4.659  0.5060  1.7595 -1.3787
  110OSM   H18T11313   7.275  -0.215   4.500  0.0962 -0.2290 -0.3828
  110OSM   H18U11314   7.201  -0.338   4.606  0.1704  0.7883 -0.8390
  110OSM    C1F11315   6.270   0.198   5.868  0.0631 -0.0262 -0.1338
  110OSM     OF11316   6.165   0.259   5.889 -0.2519 -0.2457  0.1400
  110OSM    C2F11317   6.267   0.062   5.809  0.2785 -0.4227  0.5725
  110OSM    H2F11318   6.198  -0.002   5.869  0.1424 -0.6870  0.1424
  110OSM    H2G11319   6.363   0.008   5.826  0.6295  0.6215  2.1047
  110OSM    C3F11320   6.221   0.062   5.661 -0.4298 -0.2832 -0.1966
  110OSM    H3F11321   6.302   0.122   5.613 -0.7054  0.4013  0.1753
  110OSM    H3G11322   6.126   0.117   5.648 -1.1251 -1.0001  1.5568
  110OSM    C4F11323   6.212  -0.084   5.618  0.3317  0.4605 -0.7468
  110OSM    H4F11324   6.112  -0.125   5.642  1.1412 -0.6891  0.7808
  110OSM    H4G11325   6.286  -0.144   5.675  0.5939 -0.7124 -2.2477
  110OSM    C5F11326   6.235  -0.081   5.466 -0.0490  0.2373  0.0634
  110OSM    H5F11327   6.237  -0.182   5.419 -0.0660  0.2567  0.0206
  110OSM    H5G11328   6.334  -0.043   5.432  0.5136 -1.4403 -0.3016
  110OSM    C6F11329   6.116  -0.017   5.388  0.2988  0.1360  0.0467
  110OSM    H6F11330   6.107   0.091   5.413 -0.5072  0.0379  0.1883
  110OSM    H6G11331   6.026  -0.074   5.421 -0.4791  0.8693 -0.7591
  110OSM    C7F11332   6.145  -0.033   5.235  0.5468 -0.7381  0.4176
  110OSM    H7F11333   6.167  -0.137   5.203  1.4356 -0.5752  0.4667
  110OSM    H7G11334   6.226   0.039   5.211 -0.1453  0.2485  0.9659
  110OSM    C8F11335   6.019   0.021   5.157 -0.6841  0.5892 -0.4574
  110OSM    H8F11336   6.013   0.127   5.188  3.2978  0.8868 -0.2554
  110OSM    H8G11337   5.923  -0.028   5.187 -0.7388  0.5678 -0.6637
  110OSM    C9F11338   6.021   0.007   5.008  0.1977 -0.1301  0.4847
  110OSM    H9F11339   6.064  -0.089   4.976  0.9659  0.6055 -0.7709
  110OSM   C10F11340   5.988   0.099   4.914  0.5798 -0.3492 -0.3540
  110OSM   H10F11341   5.972   0.066   4.810 -0.6118 -3.6610  0.7846
  110OSM   C11F11342   5.958   0.245   4.941 -0.0059  0.2793  0.3767
  110OSM   H11F11343   5.975   0.284   5.043  2.8424 -0.1327  0.1369
  110OSM   H11G11344   5.850   0.265   4.925  0.1667 -0.4034 -2.2153
  110OSM   C12F11345   6.042   0.336   4.844  0.5604 -0.4110  0.6012
  110OSM   H12F11346   6.025   0.313   4.736 -1.3479 -1.9213  1.1750
  110OSM   H12G11347   6.150   0.317   4.861  0.2897 -4.2243 -0.7793
  110OSM   C13F11348   6.006   0.485   4.858  0.0420  0.1877  0.1682
  110OSM   H13F11349   6.017   0.507   4.967 -1.5765 -0.9132  0.5958
  110OSM   H13G11350   5.902   0.494   4.822  0.0536 -1.2962 -0.3096
  110OSM   C14F11351   6.096   0.585   4.779  0.4218  0.0077  0.1101
  110OSM   H14F11352   6.189   0.605   4.837 -0.3571 -0.4267  1.5352
  110OSM   H14G11353   6.044   0.683   4.788 -0.0735 -0.1482 -0.8833
  110OSM   C15F11354   6.129   0.549   4.636 -0.2810 -0.2395  0.2138
  110OSM   H15F11355   6.039   0.539   4.572 -1.7707  0.5210  2.0748
  110OSM   H15G11356   6.190   0.456   4.637 -0.6229 -0.5252 -1.8504
  110OSM   C16F11357   6.212   0.672   4.570  0.0186  0.1574 -0.8661
  110OSM   H16F11358   6.283   0.709   4.646 -1.6904  1.1679  0.3196
  110OSM   H16G11359   6.128   0.738   4.540 -2.1907 -1.6954  0.7734
  110OSM   C17F11360   6.289   0.621   4.449  0.1399 -0.0266 -0.1360
  110OSM   H17F11361   6.368   0.551   4.485  1.1675  0.1671 -1.9089
  110OSM   H17G11362   6.333   0.705   4.392  0.8358 -0.2077  0.1275
  110OSM   C18F11363   6.209   0.537   4.350  0.8488 -0.1509  0.0208
  110OSM   H18F11364   6.122   0.596   4.316  0.7580 -1.0502 -1.3854
  110OSM   H18G11365   6.161   0.442   4.382  0.9972 -0.3207 -0.2564
  110OSM   H18H11366   6.270   0.508   4.262  1.1435  0.6428 -0.0434
  111OSM      N11367   3.028   3.018   6.947 -0.5206 -0.5244  0.2347
  111OSM    C1511368   2.984   3.102   7.065  0.1696  0.6526  0.2316
  111OSM   H15A11369   2.911   3.052   7.127  0.9610 -0.9594 -0.0803
  111OSM   H15B11370   2.937   3.194   7.034 -0.1200  0.8408  1.1772
  111OSM   H15C11371   3.074   3.123   7.120  1.7042 -0.7999 -1.6200
  111OSM    C1411372   3.138   3.096   6.876 -0.1088 -0.0227  0.3944
  111OSM   H14A11373   3.098   3.190   6.841 -0.4396 -0.5967 -0.8203
  111OSM   H14B11374   3.177   3.042   6.791 -4.0585 -0.8786 -1.1235
  111OSM   H14C11375   3.217   3.132   6.940  1.0446 -1.9778  0.1374
  111OSM    C1311376   3.070   2.895   7.005 -0.6606 -0.1890  0.3579
  111OSM   H13A11377   2.988   2.859   7.065 -0.2800  0.6543  1.4101
  111OSM   H13B11378   3.164   2.909   7.057 -1.8974  0.3860  2.5398
  111OSM   H13C11379   3.089   2.829   6.921 -0.6090 -0.2989  0.4549
  111OSM    C1211380   2.907   3.001   6.856 -0.0433  0.1067  0.0768
  111OSM   H12A11381   2.888   3.096   6.809  0.7908  0.3128  0.1440
  111OSM   H12B11382   2.817   2.971   6.907  0.0527  1.2607  0.9509
  111OSM    C1111383   2.927   2.899   6.747  0.2621  0.4268  0.5468
  111OSM   H11A11384   3.018   2.922   6.687  0.7634 -0.4877  0.9173
  111OSM   H11B11385   2.852   2.921   6.669  0.1179 -3.3796 -0.6033
  111OSM      P11386   2.775   2.702   6.832  0.6577 -0.3114  0.0153
  111OSM    O1311387   2.800   2.612   6.949  0.4123 -0.0099 -1.0191
  111OSM    O1411388   2.665   2.798   6.842  0.5830 -0.4943 -0.2431
  111OSM    O1111389   2.755   2.604   6.712 -0.3048 -0.3131  0.1128
  111OSM    O1211390   2.915   2.761   6.787  0.0995  0.1785 -0.1203
  111OSM    C1S11391   2.708   2.648   6.586 -0.1681 -0.4925  0.5919
  111OSM    H1S11392   2.746   2.750   6.565 -1.1384 -0.6062 -1.9820
  111OSM    H1T11393   2.597   2.645   6.591 -0.1698 -2.5694  0.1638
  111OSM     NF11394   2.701   2.629   6.346 -0.0794  0.0407 -0.6393
  111OSM    HNF11395   2.628   2.596   6.287 -2.5688  0.9771  1.7005
  111OSM    C2S11396   2.755   2.564   6.462  0.2940 -0.1177 -0.1136
  111OSM    H2S11397   2.864   2.577   6.478  0.2712  0.1657 -0.1803
  111OSM    C3S11398   2.722   2.413   6.479 -0.1098  0.0302 -0.0551
  111OSM    H3S11399   2.613   2.400   6.491 -0.1830 -0.5671 -1.2668
  111OSM     O311400   2.782   2.360   6.601  0.8298  0.1216 -0.1155
  111OSM    HO311401   2.792   2.444   6.648 -0.7428  0.7144 -0.7713
  111OSM    C4S11402   2.774   2.338   6.361 -0.3377 -0.2627 -0.0285
  111OSM    H4S11403   2.879   2.363   6.337 -1.0032  0.9694 -1.8983
  111OSM    C5S11404   2.706   2.253   6.282 -0.4357 -0.0104 -0.2929
  111OSM    H5S11405   2.599   2.237   6.306 -0.0135 -2.9154  0.0743
  111OSM    C6S11406   2.765   2.176   6.163  0.2583 -0.1716  0.3255
  111OSM    H6S11407   2.851   2.114   6.198  1.8732  1.6172 -0.3297
  111OSM    H6T11408   2.792   2.242   6.078  0.9845 -1.3619 -0.3988
  111OSM    C7S11409   2.659   2.083   6.097 -0.3753  0.5604  0.3601
  111OSM    H7S11410   2.569   2.146   6.081 -0.8817  0.0881  1.2265
  111OSM    H7T11411   2.633   2.014   6.181  1.2096 -1.1604 -0.4760
  111OSM    C8S11412   2.703   2.006   5.977 -0.2733 -0.2209  0.3731
  111OSM    H8S11413   2.619   1.943   5.942 -0.6944 -1.7822  3.8326
  111OSM    H8T11414   2.780   1.931   6.004 -0.2179 -1.2359 -2.3276
  111OSM    C9S11415   2.752   2.105   5.872  0.2339  0.2868 -0.2790
  111OSM    H9S11416   2.861   2.119   5.887 -0.1723  2.0663  1.4527
  111OSM    H9T11417   2.709   2.208   5.877 -1.7663 -0.5364  0.7093
  111OSM   C10S11418   2.714   2.062   5.725  0.4985  0.0164  0.6955
  111OSM   H10S11419   2.603   2.065   5.721  0.5514  0.7660 -1.1825
  111OSM   H10T11420   2.752   1.958   5.720  1.0184  0.0417  2.8976
  111OSM   C11S11421   2.785   2.158   5.629  0.1910  0.6350  0.6391
  111OSM   H11S11422   2.885   2.175   5.673 -0.1720 -0.2421  1.8544
  111OSM   H11T11423   2.737   2.259   5.634 -0.0090  0.6574 -1.1062
  111OSM   C12S11424   2.780   2.109   5.482 -0.5394  0.1599  0.3406
  111OSM   H12S11425   2.674   2.084   5.458 -0.5442 -1.0212  1.4407
  111OSM   H12T11426   2.844   2.019   5.470  0.6664  0.9877  0.3638
  111OSM   C13S11427   2.862   2.209   5.401 -0.0406  0.6624 -0.7647
  111OSM   H13S11428   2.970   2.210   5.428 -0.2422  0.7178  0.0643
  111OSM   H13T11429   2.819   2.312   5.400 -0.9236  0.3005 -2.0506
  111OSM   C14S11430   2.850   2.173   5.254  0.3481 -0.5273  0.3111
  111OSM   H14S11431   2.739   2.172   5.247  0.2771  0.6934  0.9705
  111OSM   H14T11432   2.895   2.073   5.238  0.3773 -0.4331 -0.2233
  111OSM   C15S11433   2.912   2.261   5.146 -0.0296  0.7868  0.3375
  111OSM   H15S11434   3.021   2.245   5.150  0.1204  0.7832 -2.0952
  111OSM   H15T11435   2.902   2.370   5.169 -1.9520  0.7751 -0.2228
  111OSM   C16S11436   2.859   2.228   5.009 -0.1450 -0.3657  0.2483
  111OSM   H16S11437   2.749   2.244   5.006 -0.0224  0.4521 -0.4032
  111OSM   H16T11438   2.880   2.121   4.990  1.9434  0.1834 -0.8429
  111OSM   C17S11439   2.917   2.317   4.898  0.6061 -0.6807  0.7090
  111OSM   H17S11440   2.894   2.275   4.798 -0.7315  1.6361 -0.0270
  111OSM   H17T11441   3.028   2.310   4.904  0.6675 -0.1777  0.2198
  111OSM   C18S11442   2.854   2.456   4.895 -0.5805  0.3504  0.0788
  111OSM   H18S11443   2.897   2.526   4.820 -0.3264 -1.1409 -1.2094
  111OSM   H18T11444   2.866   2.512   4.990  1.9647  0.5117 -0.2630
  111OSM   H18U11445   2.747   2.438   4.871 -0.3871 -2.0847  0.7436
  111OSM    C1F11446   2.758   2.743   6.298  0.3147  0.1836 -0.1759
  111OSM     OF11447   2.851   2.794   6.358 -0.0385 -0.3693 -0.2369
  111OSM    C2F11448   2.694   2.802   6.181 -0.4013 -1.0844  0.7786
  111OSM    H2F11449   2.674   2.908   6.210  2.0791 -0.9823  2.3983
  111OSM    H2G11450   2.596   2.753   6.162  0.1907 -0.9782 -3.2529
  111OSM    C3F11451   2.783   2.788   6.053  0.4154 -0.8362 -0.4552
  111OSM    H3F11452   2.768   2.689   6.005 -2.6609  0.2765 -2.0712
  111OSM    H3G11453   2.890   2.812   6.068 -0.2035  2.9240 -1.0450
  111OSM    C4F11454   2.729   2.881   5.950 -0.2267 -0.1556 -0.0933
  111OSM    H4F11455   2.693   2.977   5.992 -0.0068 -0.7803  1.5839
  111OSM    H4G11456   2.630   2.842   5.917  0.2718 -1.2075 -0.3967
  111OSM    C5F11457   2.814   2.885   5.824  0.1390 -0.3931 -0.0912
  111OSM    H5F11458   2.856   2.782   5.816  0.9670  0.0418 -1.5162
  111OSM    H5G11459   2.897   2.957   5.839 -1.6421  2.0669 -1.4890
  111OSM    C6F11460   2.741   2.915   5.690 -0.3891 -0.1120 -0.5015
  111OSM    H6F11461   2.729   3.026   5.684  1.5515  0.0803 -2.3115
  111OSM    H6G11462   2.639   2.872   5.680 -2.0187  3.0324  0.8818
  111OSM    C7F11463   2.837   2.876   5.578 -0.0053  0.4899 -0.1330
  111OSM    H7F11464   2.837   2.765   5.568 -0.6883  0.4270  0.4490
  111OSM    H7G11465   2.939   2.906   5.608 -1.1051  2.7684  1.7118
  111OSM    C8F11466   2.790   2.930   5.437 -0.7717  0.1902 -0.4433
  111OSM    H8F11467   2.689   2.893   5.409 -0.4548  0.6180 -2.3504
  111OSM    H8G11468   2.861   2.896   5.357 -1.2552 -0.4412 -0.6095
  111OSM    C9F11469   2.779   3.082   5.438  0.2323 -0.3399 -0.5726
  111OSM    H9F11470   2.688   3.119   5.487 -0.6860 -0.3403 -2.2109
  111OSM   C10F11471   2.863   3.171   5.381 -0.1538  0.0863 -0.4606
  111OSM   H10F11472   2.852   3.280   5.398  2.3759  1.1824 -4.5269
  111OSM   C11F11473   2.985   3.133   5.310  0.4873  0.1932  0.3654
  111OSM   H11F11474   3.014   3.037   5.359  0.1347  0.1158  0.4237
  111OSM   H11G11475   3.063   3.208   5.337  0.4181  0.8469 -1.1678
  111OSM   C12F11476   2.973   3.105   5.156 -0.5132  0.0589  0.5013
  111OSM   H12F11477   2.929   3.187   5.096  2.5232  1.1028 -0.4720
  111OSM   H12G11478   2.902   3.021   5.145 -1.3248  0.7483  0.3177
  111OSM   C13F11479   3.115   3.084   5.097  0.4167  0.2829  0.5328
  111OSM   H13F11480   3.177   3.014   5.157  1.4447  1.2306  0.5952
  111OSM   H13G11481   3.178   3.174   5.109  1.0493 -0.0327 -0.3445
  111OSM   C14F11482   3.111   3.018   4.955 -0.1800  0.3318 -0.0037
  111OSM   H14F11483   3.033   2.940   4.942  0.1477  0.3711 -2.8731
  111OSM   H14G11484   3.212   2.973   4.944 -0.7053 -0.8821 -0.0063
  111OSM   C15F11485   3.088   3.121   4.850  0.8276  0.5524  0.3413
  111OSM   H15F11486   3.185   3.172   4.833  0.6504  0.1861 -2.0114
  111OSM   H15G11487   3.004   3.189   4.875 -0.1011  0.4655 -2.2682
  111OSM   C16F11488   3.063   3.066   4.701 -0.3055  0.1542  0.8182
  111OSM   H16F11489   2.961   3.024   4.702 -0.2638  0.0201  2.5666
  111OSM   H16G11490   3.138   2.985   4.691 -0.0361  0.2679  1.8699
  111OSM   C17F11491   3.070   3.181   4.595  0.2596 -0.2879 -0.5786
  111OSM   H17F11492   3.177   3.211   4.583  1.1876 -2.6149  1.1230
  111OSM   H17G11493   3.007   3.268   4.620  0.3940 -0.0758 -0.9656
  111OSM   C18F11494   3.034   3.137   4.454  0.0896  0.5714  0.3882
  111OSM   H18F11495   3.067   3.036   4.421  0.2699  0.3033  1.3616
  111OSM   H18G11496   3.054   3.218   4.380 -0.6223  0.2186 -0.2069
  111OSM   H18H11497   2.924   3.125   4.444  0.1424  1.1769 -1.2824
  112OSM      N11498   6.819   2.299   6.768 -0.2429  0.0106  0.0462
  112OSM    C1511499   6.814   2.380   6.644 -0.0361  0.4545 -0.0433
  112OSM   H15A11500   6.729   2.446   6.636 -0.9381 -0.6979 -0.1684
  112OSM   H15B11501   6.794   2.318   6.558  2.7440 -1.1834  0.3669
  112OSM   H15C11502   6.902   2.442   6.634  0.1282  0.0866 -0.9653
  112OSM    C1411503   6.861   2.376   6.891  0.2470 -0.5259  0.2504
  112OSM   H14A11504   6.827   2.329   6.982  1.7699 -0.2944  0.9667
  112OSM   H14B11505   6.814   2.473   6.889 -0.0651 -0.6832 -1.5144
  112OSM   H14C11506   6.969   2.387   6.891  0.2635 -0.1821 -1.9350
  112OSM    C1311507   6.676   2.257   6.789 -0.0130 -0.6675  0.0866
  112OSM   H13A11508   6.619   2.347   6.806  1.5283  0.0312  1.9096
  112OSM   H13B11509   6.673   2.182   6.867 -1.0229 -2.1483 -1.3216
  112OSM   H13C11510   6.633   2.205   6.704 -2.3213  0.5678  0.4161
  112OSM    C1211511   6.911   2.181   6.746 -0.1415  0.1158  0.5524
  112OSM   H12A11512   6.901   2.118   6.833 -0.9750 -1.5715 -0.6917
  112OSM   H12B11513   7.015   2.210   6.749  0.4559 -1.9262  1.0264
  112OSM    C1111514   6.891   2.092   6.626 -0.2458 -0.3281  0.0776
  112OSM   H11A11515   6.947   1.996   6.633  0.7475  0.1308 -1.1599
  112OSM   H11B11516   6.939   2.142   6.539 -0.5425 -0.9636 -0.4597
  112OSM      P11517   6.719   2.047   6.443 -0.1158  0.4376 -0.3189
  112OSM    O1311518   6.597   1.971   6.423  0.9495 -0.3344  0.0914
  112OSM    O1411519   6.729   2.183   6.383 -0.6229  0.3154 -0.6966
  112OSM    O1111520   6.833   1.962   6.383  0.1780  0.6407 -0.5215
  112OSM    O1211521   6.757   2.052   6.600  0.2354  0.0745 -0.3880
  112OSM    C1S11522   6.796   1.900   6.258  0.1252  0.2844  0.2202
  112OSM    H1S11523   6.726   1.964   6.201  1.3662 -1.2379 -3.3085
  112OSM    H1T11524   6.758   1.796   6.271 -0.4095  0.5688  1.0738
  112OSM     NF11525   6.883   1.856   6.017  0.3707  0.8843  0.3571
  112OSM    HNF11526   6.914   1.764   5.994 -2.9137 -0.4016  0.5477
  112OSM    C2S11527   6.914   1.892   6.162  0.3835  0.1823  1.0228
  112OSM    H2S11528   6.966   1.990   6.162  1.5209 -0.3825 -0.8971
  112OSM    C3S11529   7.030   1.795   6.213  0.2927  0.3850 -0.5155
  112OSM    H3S11530   6.971   1.703   6.194 -0.4715  0.8768 -0.6117
  112OSM     O311531   7.062   1.809   6.352 -0.7911  0.2761  0.1354
  112OSM    HO311532   6.979   1.833   6.394 -1.0699  0.5394 -0.5506
  112OSM    C4S11533   7.141   1.810   6.114 -0.9814 -0.5887  0.7462
  112OSM    H4S11534   7.153   1.728   6.041  1.4308  2.2391 -2.3544
  112OSM    C5S11535   7.244   1.892   6.125 -0.2216 -0.3583  0.2082
  112OSM    H5S11536   7.251   1.968   6.204  1.0437 -0.2238 -0.0102
  112OSM    C6S11537   7.368   1.911   6.048 -0.5838 -0.2693  0.4212
  112OSM    H6S11538   7.451   1.864   6.106 -1.6061  0.1463  2.3001
  112OSM    H6T11539   7.380   2.022   6.048  1.3620 -0.4159 -1.2592
  112OSM    C7S11540   7.355   1.881   5.894 -0.0779 -0.2585 -0.0887
  112OSM    H7S11541   7.423   1.951   5.842 -2.1683  3.1618  1.3868
  112OSM    H7T11542   7.253   1.915   5.864  0.3012  1.3418  0.3129
  112OSM    C8S11543   7.380   1.735   5.867 -0.4026  0.3974 -0.0770
  112OSM    H8S11544   7.306   1.676   5.926 -0.7424  1.3868  0.5159
  112OSM    H8T11545   7.482   1.712   5.904 -1.0711 -2.7261  0.0715
  112OSM    C9S11546   7.372   1.689   5.720 -0.2854  0.2579 -0.4830
  112OSM    H9S11547   7.420   1.588   5.722 -1.7351 -0.4660 -0.6036
  112OSM    H9T11548   7.433   1.752   5.653 -1.3424  0.4897 -1.2423
  112OSM   C10S11549   7.230   1.685   5.664 -0.1078  0.0174 -0.2235
  112OSM   H10S11550   7.180   1.783   5.682 -0.1122  0.3220 -1.7358
  112OSM   H10T11551   7.167   1.612   5.720  0.4604 -1.1261 -1.0359
  112OSM   C11S11552   7.223   1.667   5.517 -0.1249 -0.2653  0.1636
  112OSM   H11S11553   7.280   1.578   5.482  1.3426  0.9626 -0.7059
  112OSM   H11T11554   7.275   1.755   5.474 -1.1878 -1.1588 -3.2188
  112OSM   C12S11555   7.079   1.654   5.459 -0.7845  0.6462  0.8182
  112OSM   H12S11556   7.085   1.658   5.348  1.2604  1.7142  0.9231
  112OSM   H12T11557   7.037   1.748   5.500  1.4037  0.9993  2.4346
  112OSM   C13S11558   6.991   1.537   5.502  0.1971  0.1901 -0.3742
  112OSM   H13S11559   7.009   1.512   5.609  1.6914 -1.4774 -0.9605
  112OSM   H13T11560   7.020   1.452   5.436 -2.0323  1.5138 -3.2983
  112OSM   C14S11561   6.844   1.539   5.477  0.0446 -1.0089 -0.3548
  112OSM   H14S11562   6.791   1.603   5.551 -1.8147 -1.7603 -0.9761
  112OSM   H14T11563   6.804   1.441   5.512 -0.0747 -0.5876  0.7089
  112OSM   C15S11564   6.789   1.568   5.332  0.1339 -0.2015 -0.6231
  112OSM   H15S11565   6.842   1.663   5.307 -1.3174  0.8304  0.0808
  112OSM   H15T11566   6.680   1.587   5.334  0.2196  0.7259  3.5789
  112OSM   C16S11567   6.839   1.471   5.222 -0.2613  0.5741 -0.3775
  112OSM   H16S11568   6.793   1.373   5.246 -0.8139  0.8825 -0.1730
  112OSM   H16T11569   6.949   1.462   5.238 -0.4190  0.0847  0.4943
  112OSM   C17S11570   6.817   1.515   5.083 -0.1491  0.0521  0.1427
  112OSM   H17S11571   6.878   1.607   5.071 -1.8185  1.1190 -0.5416
  112OSM   H17T11572   6.708   1.531   5.076 -0.2003 -0.9119 -1.9050
  112OSM   C18S11573   6.841   1.406   4.976 -0.0077 -0.0421  0.2106
  112OSM   H18S11574   6.952   1.400   4.962 -0.3771 -2.1485 -2.9309
  112OSM   H18T11575   6.805   1.432   4.874 -1.5845  0.9231  0.9845
  112OSM   H18U11576   6.799   1.309   5.010  1.7250 -0.3817  1.5459
  112OSM    C1F11577   6.815   1.939   5.939 -0.6011 -0.1936 -0.1670
  112OSM     OF11578   6.775   2.049   5.974 -0.0423 -0.4494 -0.1842
  112OSM    C2F11579   6.779   1.893   5.808  0.1678 -0.2331  0.0497
  112OSM    H2F11580   6.735   1.792   5.817  1.0656 -0.6448 -0.1051
  112OSM    H2G11581   6.870   1.882   5.745 -0.6067  1.3811 -1.4440
  112OSM    C3F11582   6.699   1.980   5.707 -0.1933 -0.2259 -0.1466
  112OSM    H3F11583   6.732   2.086   5.705 -1.2983  0.1407  0.0791
  112OSM    H3G11584   6.595   1.983   5.748  0.6028 -0.4333  2.0042
  112OSM    C4F11585   6.698   1.931   5.568 -0.2906 -0.7596 -0.5180
  112OSM    H4F11586   6.643   1.835   5.557 -1.4246 -0.3663  1.1849
  112OSM    H4G11587   6.802   1.901   5.542  0.8248  0.2225  2.4245
  112OSM    C5F11588   6.635   2.035   5.474 -0.1873 -0.8660  1.1302
  112OSM    H5F11589   6.654   2.140   5.504 -4.5146  0.9614 -1.6799
  112OSM    H5G11590   6.526   2.014   5.467 -0.0428 -1.0813 -0.9280
  112OSM    C6F11591   6.686   2.024   5.330 -0.1653 -0.3578 -0.6038
  112OSM    H6F11592   6.610   2.043   5.252 -1.2794 -1.8836  0.0490
  112OSM    H6G11593   6.716   1.918   5.316  1.3744 -0.1920  1.0760
  112OSM    C7F11594   6.819   2.102   5.308 -0.1502 -0.9715  0.1908
  112OSM    H7F11595   6.887   2.083   5.394 -0.3394  0.1282  0.6031
  112OSM    H7G11596   6.811   2.213   5.306  1.7111 -0.8062 -1.0224
  112OSM    C8F11597   6.908   2.065   5.185  0.0839  0.7258  0.1895
  112OSM    H8F11598   6.972   2.155   5.173  1.2719  0.1002  1.5535
  112OSM    H8G11599   6.835   2.045   5.104 -0.8317  1.8061  0.7110
  112OSM    C9F11600   6.984   1.934   5.199  0.1525  0.2705  0.0822
  112OSM    H9F11601   6.987   1.892   5.301 -0.5195  0.3517  0.1402
  112OSM   C10F11602   7.079   1.895   5.105  0.1624 -0.5814  0.4823
  112OSM   H10F11603   7.120   1.794   5.123  0.2769 -0.7036 -0.4411
  112OSM   C11F11604   7.105   1.963   4.975  0.2020 -0.0672 -0.0162
  112OSM   H11F11605   7.213   1.983   4.958  0.0763 -0.8666 -1.9927
  112OSM   H11G11606   7.056   2.062   4.968 -1.2534 -0.8004 -0.5354
  112OSM   C12F11607   7.052   1.889   4.855 -0.1699 -0.8431  0.2634
  112OSM   H12F11608   7.045   1.967   4.776 -1.8132 -0.3397  0.8472
  112OSM   H12G11609   6.947   1.861   4.880 -1.5364  3.6811  0.4767
  112OSM   C13F11610   7.135   1.766   4.814 -0.2741 -1.4160 -0.2110
  112OSM   H13F11611   7.116   1.685   4.888  0.2968 -1.2726  0.1009
  112OSM   H13G11612   7.243   1.790   4.825 -0.3849 -0.3967 -1.1413
  112OSM   C14F11613   7.092   1.711   4.672 -0.3597 -0.2438  0.5437
  112OSM   H14F11614   6.996   1.656   4.679 -0.5926  0.3790  3.4506
  112OSM   H14G11615   7.172   1.635   4.655  0.5273  0.7471  0.1405
  112OSM   C15F11616   7.100   1.809   4.553 -0.2198 -0.3180  1.1142
  112OSM   H15F11617   7.203   1.851   4.547  0.6837 -2.2917  2.1801
  112OSM   H15G11618   7.019   1.882   4.577  0.8752  1.5063 -0.4379
  112OSM   C16F11619   7.053   1.739   4.423 -0.5716  0.0707  0.1122
  112OSM   H16F11620   6.964   1.675   4.438 -0.7771  0.1507 -0.7280
  112OSM   H16G11621   7.125   1.659   4.400 -1.1516 -0.4940  0.2329
  112OSM   C17F11622   7.061   1.831   4.301  0.1287 -0.0430  0.5674
  112OSM   H17F11623   7.103   1.782   4.211 -0.7626  1.6563 -0.8277
  112OSM   H17G11624   7.123   1.916   4.334 -1.4276  0.2891  2.9239
  112OSM   C18F11625   6.928   1.900   4.256  0.6816  0.3197 -0.0909
  112OSM   H18F11626   6.939   1.977   4.177 -1.1714  1.1194  0.3817
  112OSM   H18G11627   6.885   1.954   4.343 -0.2154 -1.1294  0.4012
  112OSM   H18H11628   6.860   1.816   4.231  0.8117 -0.2588  1.3920
  113OSM      N11629   2.638   1.247   6.377  0.0555  0.3720 -0.0617
  113OSM    C1511630   2.545   1.360   6.397 -0.5235 -0.1188 -0.3638
  113OSM   H15A11631   2.444   1.332   6.424 -1.8436  2.8228 -1.7847
  113OSM   H15B11632   2.542   1.427   6.312  0.0629 -0.3283 -0.5505
  113OSM   H15C11633   2.576   1.422   6.480  0.0393 -1.0033  0.0975
  113OSM    C1411634   2.650   1.173   6.507 -0.8445  0.0524 -0.8099
  113OSM   H14A11635   2.716   1.232   6.569  0.5720 -0.1031 -2.1337
  113OSM   H14B11636   2.700   1.078   6.497 -1.1019 -0.0527 -1.1141
  113OSM   H14C11637   2.550   1.156   6.545  0.1650 -0.4926  1.8112
  113OSM    C1311638   2.581   1.167   6.261 -0.4428 -0.3445 -0.4006
  113OSM   H13A11639   2.581   1.222   6.169 -1.3811  1.0801  0.4113
  113OSM   H13B11640   2.482   1.136   6.291 -0.9651  1.6239  0.0607
  113OSM   H13C11641   2.637   1.076   6.243  1.2526  0.2758  1.3579
  113OSM    C1211642   2.771   1.309   6.334  0.2454  0.0681 -0.0625
  113OSM   H12A11643   2.777   1.399   6.393  1.3090  0.8682 -1.3122
  113OSM   H12B11644   2.762   1.329   6.228  2.5771 -3.2409 -1.0522
  113OSM    C1111645   2.899   1.227   6.364  0.2950 -0.5048  0.1621
  113OSM   H11A11646   2.907   1.223   6.474  0.1748  0.1343  0.2000
  113OSM   H11B11647   2.975   1.300   6.329  0.0870  0.0211  0.7925
  113OSM      P11648   2.893   1.077   6.158 -0.1668 -0.3063  0.0390
  113OSM    O1311649   2.806   0.958   6.131 -0.8034 -0.4940 -0.0632
  113OSM    O1411650   2.875   1.193   6.072 -0.0415  0.3383 -0.1435
  113OSM    O1111651   3.043   1.030   6.134 -0.1185 -0.0086  0.0929
  113OSM    O1211652   2.892   1.097   6.314 -0.2300  0.3174  0.3209
  113OSM    C1S11653   3.065   0.923   6.039  0.0623 -0.0836 -0.2446
  113OSM    H1S11654   3.003   0.833   6.054  0.1774 -0.1098  0.0786
  113OSM    H1T11655   3.168   0.885   6.059 -0.2791 -0.7556  0.2489
  113OSM     NF11656   3.063   0.861   5.801 -0.5734  0.5031  0.1856
  113OSM    HNF11657   3.157   0.840   5.774 -0.3530 -0.8113  1.7873
  113OSM    C2S11658   3.060   0.976   5.884 -0.4083 -0.2185 -0.3352
  113OSM    H2S11659   2.962   1.026   5.867  0.1056  1.4047  1.0946
  113OSM    C3S11660   3.181   1.068   5.859 -0.0478 -0.4136 -0.0302
  113OSM    H3S11661   3.279   1.014   5.860  0.4447  0.2834 -2.6267
  113OSM     O311662   3.195   1.169   5.964  0.2820  0.2819 -0.3469
  113OSM    HO311663   3.131   1.137   6.027 -2.0958  2.1864 -1.6031
  113OSM    C4S11664   3.179   1.122   5.717  0.2408  0.8464 -0.1540
  113OSM    H4S11665   3.242   1.073   5.642 -0.7372 -1.3087  0.3447
  113OSM    C5S11666   3.121   1.241   5.688  0.0027  0.2685 -0.2329
  113OSM    H5S11667   3.087   1.308   5.769  1.2829 -0.0531  0.5886
  113OSM    C6S11668   3.131   1.314   5.554 -0.9803  0.2772  0.1103
  113OSM    H6S11669   3.193   1.406   5.563 -2.0446  1.6177 -4.0703
  113OSM    H6T11670   3.032   1.350   5.521 -0.3760  0.7358 -1.2538
  113OSM    C7S11671   3.176   1.224   5.435  0.8781 -0.4107 -0.3249
  113OSM    H7S11672   3.131   1.123   5.446  1.1762 -0.5189 -0.1018
  113OSM    H7T11673   3.287   1.215   5.432  1.2957  3.2026 -1.8073
  113OSM    C8S11674   3.140   1.291   5.299 -0.2264  0.2043  0.2312
  113OSM    H8S11675   3.118   1.399   5.312  0.5237  0.2716  1.1086
  113OSM    H8T11676   3.055   1.232   5.261  0.0787 -0.2375  0.2280
  113OSM    C9S11677   3.250   1.273   5.192 -0.5871 -0.2431  0.1025
  113OSM    H9S11678   3.288   1.169   5.189 -0.8463 -0.3504  0.5207
  113OSM    H9T11679   3.330   1.343   5.226 -0.8424  0.9726 -1.6423
  113OSM   C10S11680   3.205   1.307   5.047 -0.0245  0.2000 -0.1374
  113OSM   H10S11681   3.182   1.415   5.041 -0.7174  0.3504  3.4032
  113OSM   H10T11682   3.116   1.240   5.038  0.5273 -0.4961 -0.5777
  113OSM   C11S11683   3.316   1.273   4.946  0.5239  0.4716  0.4244
  113OSM   H11S11684   3.369   1.175   4.958  0.3350  0.3357  0.1532
  113OSM   H11T11685   3.393   1.353   4.942  0.6484  0.4397  1.7334
  113OSM   C12S11686   3.254   1.277   4.805 -0.3148  0.8183 -0.3244
  113OSM   H12S11687   3.208   1.378   4.804 -1.1199  0.4768  0.8624
  113OSM   H12T11688   3.180   1.195   4.815  0.5156 -0.1866 -1.9296
  113OSM   C13S11689   3.348   1.268   4.685  0.2377 -0.3255  0.5002
  113OSM   H13S11690   3.405   1.173   4.698 -0.3626 -1.2528 -2.7766
  113OSM   H13T11691   3.426   1.346   4.696 -0.4705  0.1798  2.1375
  113OSM   C14S11692   3.278   1.250   4.547  0.1666 -0.2267  0.2501
  113OSM   H14S11693   3.210   1.336   4.529 -0.7230 -0.2254  3.1618
  113OSM   H14T11694   3.211   1.163   4.560 -1.7813  1.3950  1.6902
  113OSM   C15S11695   3.374   1.244   4.432  0.3559 -0.1241  0.1292
  113OSM   H15S11696   3.447   1.161   4.444  1.1840  0.7646  1.7359
  113OSM   H15T11697   3.431   1.339   4.419  1.2545 -0.9069 -2.3517
  113OSM   C16S11698   3.298   1.221   4.293  0.1743 -0.8807 -0.7606
  113OSM   H16S11699   3.213   1.292   4.287 -0.6358 -1.8578 -1.1729
  113OSM   H16T11700   3.241   1.126   4.284 -0.6757 -0.4060 -0.5294
  113OSM   C17S11701   3.393   1.238   4.176 -0.3222 -0.3054 -0.0530
  113OSM   H17S11702   3.483   1.177   4.200 -0.4448 -0.0352  1.1832
  113OSM   H17T11703   3.419   1.345   4.164 -0.2192 -0.4550 -1.2436
  113OSM   C18S11704   3.338   1.187   4.044  0.4657  0.4442 -0.4338
  113OSM   H18S11705   3.250   1.253   4.025  0.0695  0.2463  0.6371
  113OSM   H18T11706   3.309   1.079   4.047 -2.5729  1.1760 -0.1496
  113OSM   H18U11707   3.409   1.204   3.960  0.8536 -0.6801 -0.3534
  113OSM    C1F11708   2.958   0.776   5.784  0.2807  0.3015 -0.0300
  113OSM     OF11709   2.841   0.811   5.798  0.1302 -0.4854  0.5162
  113OSM    C2F11710   2.990   0.626   5.775  0.3431 -0.7417 -0.1870
  113OSM    H2F11711   2.998   0.571   5.871  3.1345 -0.0084  0.0700
  113OSM    H2G11712   3.090   0.625   5.727  0.7321  2.8148  0.2778
  113OSM    C3F11713   2.892   0.546   5.675 -1.2739  0.0563  0.4345
  113OSM    H3F11714   2.788   0.551   5.713 -1.6160  1.7741 -0.6263
  113OSM    H3G11715   2.928   0.440   5.679 -0.9114  0.0603 -1.7867
  113OSM    C4F11716   2.906   0.578   5.527 -0.4903 -0.4541 -0.4363
  113OSM    H4F11717   3.013   0.565   5.503 -0.7716 -2.9344 -0.6134
  113OSM    H4G11718   2.883   0.685   5.505 -0.8118 -0.9152 -2.5883
  113OSM    C5F11719   2.804   0.502   5.445  0.1659  0.3424  0.0071
  113OSM    H5F11720   2.712   0.506   5.506 -0.2598 -0.9569 -0.5123
  113OSM    H5G11721   2.832   0.395   5.431 -0.2026  0.0928  1.0577
  113OSM    C6F11722   2.777   0.568   5.308 -0.1520  0.1176 -0.4892
  113OSM    H6F11723   2.758   0.677   5.310 -0.5918  0.0325  0.3271
  113OSM    H6G11724   2.687   0.526   5.259  1.2228 -2.9527 -0.5915
  113OSM    C7F11725   2.897   0.529   5.223  0.1199 -0.3659 -0.5721
  113OSM    H7F11726   2.902   0.420   5.199 -0.9850 -0.3651 -0.8675
  113OSM    H7G11727   2.988   0.558   5.280 -0.7857  1.7028 -0.1210
  113OSM    C8F11728   2.921   0.611   5.098  0.1087 -0.8287  0.7378
  113OSM    H8F11729   3.016   0.585   5.046 -0.3440 -0.5076 -0.2801
  113OSM    H8G11730   2.930   0.719   5.121 -1.5135  0.0981 -2.2694
  113OSM    C9F11731   2.802   0.600   4.999 -0.2877 -0.0610 -0.1044
  113OSM    H9F11732   2.706   0.632   5.042 -0.2107 -1.7789  1.5030
  113OSM   C10F11733   2.805   0.540   4.878 -0.2131 -0.1046  0.8132
  113OSM   H10F11734   2.709   0.520   4.830  0.5004  0.0850 -0.7441
  113OSM   C11F11735   2.923   0.472   4.810  0.1237 -0.1539 -0.6673
  113OSM   H11F11736   3.012   0.476   4.877 -1.6012  1.0618  1.7396
  113OSM   H11G11737   2.961   0.531   4.724  1.7854  0.3289  0.3481
  113OSM   C12F11738   2.891   0.332   4.760  0.3146 -0.1336 -0.8622
  113OSM   H12F11739   2.807   0.316   4.690  0.7634  0.1361 -1.4774
  113OSM   H12G11740   2.861   0.271   4.847 -0.4896  0.9796 -0.3420
  113OSM   C13F11741   3.018   0.271   4.694 -0.5221  0.1944  0.2283
  113OSM   H13F11742   3.094   0.259   4.774 -1.5977  0.1644  1.2884
  113OSM   H13G11743   3.056   0.330   4.608  1.0094 -1.4008 -0.2541
  113OSM   C14F11744   2.973   0.131   4.644  0.3680 -0.3908  0.0378
  113OSM   H14F11745   2.891   0.151   4.572  2.0766 -0.2025 -1.9945
  113OSM   H14G11746   2.922   0.071   4.722 -1.2863 -0.4330 -1.0293
  113OSM   C15F11747   3.078   0.043   4.584  0.1357  0.2427 -0.0920
  113OSM   H15F11748   3.032  -0.048   4.541 -2.1843  1.8097 -1.1143
  113OSM   H15G11749   3.149   0.008   4.663  1.6570  1.9016 -0.6621
  113OSM   C16F11750   3.159   0.107   4.474 -0.6522  0.1179  0.0330
  113OSM   H16F11751   3.241   0.032   4.470 -0.7118 -0.1394  2.2713
  113OSM   H16G11752   3.209   0.203   4.500  0.5945  0.2051 -2.3926
  113OSM   C17F11753   3.090   0.115   4.341  0.4479  0.1216  0.8016
  113OSM   H17F11754   2.993   0.170   4.345 -0.0272 -0.0316 -3.5124
  113OSM   H17G11755   3.054   0.010   4.326 -0.9056  0.8340 -1.3867
  113OSM   C18F11756   3.158   0.167   4.217  0.0306 -0.5720  0.1591
  113OSM   H18F11757   3.265   0.138   4.214  0.6400  1.6016 -2.8535
  113OSM   H18G11758   3.154   0.277   4.214 -0.1830 -0.4683  2.3589
  113OSM   H18H11759   3.110   0.138   4.121  3.5068 -0.1446 -1.8834
  114OSM      N11760   1.486   6.321   6.396 -0.4508 -0.3952  0.0358
  114OSM    C1511761   1.626   6.373   6.423 -0.2275  0.0767 -0.2548
  114OSM   H15A11762   1.614   6.458   6.489 -3.1857  0.6580 -1.3679
  114OSM   H15B11763   1.673   6.404   6.331  3.0557 -0.3916  1.1517
  114OSM   H15C11764   1.696   6.304   6.469 -0.7711  1.1192  2.3233
  114OSM    C1411765   1.442   6.257   6.530 -0.4903 -0.0900  0.5091
  114OSM   H14A11766   1.365   6.186   6.504 -0.3406  0.7764 -2.7443
  114OSM   H14B11767   1.408   6.331   6.600  0.2306 -0.5959  1.4185
  114OSM   H14C11768   1.532   6.208   6.565 -0.0526  0.9956  0.9258
  114OSM    C1311769   1.393   6.435   6.370  0.3287 -0.3959 -0.1238
  114OSM   H13A11770   1.291   6.404   6.351  0.4664 -2.4840  2.0634
  114OSM   H13B11771   1.418   6.490   6.281  0.1443  2.5071  1.4698
  114OSM   H13C11772   1.390   6.506   6.452 -0.0682  1.0387 -1.3210
  114OSM    C1211773   1.490   6.219   6.289 -0.1842  0.0326 -0.2496
  114OSM   H12A11774   1.525   6.261   6.196  0.4019  0.0363 -0.0288
  114OSM   H12B11775   1.388   6.190   6.267 -0.8477 -0.2540  2.8032
  114OSM    C1111776   1.572   6.084   6.318  0.3914  0.0313  0.2695
  114OSM   H11A11777   1.678   6.109   6.340  0.2751 -0.7340  1.8062
  114OSM   H11B11778   1.585   6.031   6.221 -0.6411 -0.2976  0.2985
  114OSM      P11779   1.379   5.921   6.372  0.3989 -0.0307 -0.4191
  114OSM    O1311780   1.414   5.779   6.370 -0.4387 -0.1131  0.0477
  114OSM    O1411781   1.274   5.950   6.472 -0.6366  0.1484  0.6352
  114OSM    O1111782   1.337   5.981   6.234  0.2901 -0.5279  0.1359
  114OSM    O1211783   1.507   5.999   6.413 -0.4776 -0.2822  0.0543
  114OSM    C1S11784   1.228   5.910   6.167  0.1473  0.0975  0.4385
  114OSM    H1S11785   1.136   5.924   6.228  1.3312  2.7047  1.8432
  114OSM    H1T11786   1.253   5.802   6.163  1.1301  0.2811  1.1870
  114OSM     NF11787   1.075   5.961   5.987 -0.2347  0.3308  0.6234
  114OSM    HNF11788   1.046   5.893   5.920 -0.5721  1.6432 -0.5995
  114OSM    C2S11789   1.212   5.955   6.022 -0.5508  0.1495 -0.0653
  114OSM    H2S11790   1.246   6.061   6.030 -2.1140  0.5986  1.3468
  114OSM    C3S11791   1.310   5.883   5.932 -0.4200  0.4188  0.0987
  114OSM    H3S11792   1.281   5.776   5.939  0.4600  0.2131  0.8380
  114OSM     O311793   1.441   5.872   5.977 -0.0873 -0.4553  0.0370
  114OSM    HO311794   1.449   5.934   6.050  0.3549  0.2805 -0.6238
  114OSM    C4S11795   1.302   5.925   5.794 -0.0764  0.4239  1.0346
  114OSM    H4S11796   1.212   5.883   5.747  0.8774 -0.0848 -0.4041
  114OSM    C5S11797   1.386   6.007   5.722  0.2330 -0.6038 -0.2564
  114OSM    H5S11798   1.466   6.060   5.777  0.9226 -1.6521 -0.2373
  114OSM    C6S11799   1.358   6.053   5.577 -0.1387 -0.0523 -0.1620
  114OSM    H6S11800   1.454   6.065   5.521  0.6613 -0.7885  0.9976
  114OSM    H6T11801   1.311   6.153   5.571 -1.6047 -0.8261 -2.7203
  114OSM    C7S11802   1.256   5.971   5.488 -0.2335  0.5341 -0.1445
  114OSM    H7S11803   1.156   5.976   5.536 -0.3751 -0.8140 -0.2618
  114OSM    H7T11804   1.289   5.865   5.496  2.3109  1.0370 -2.4719
  114OSM    C8S11805   1.238   6.022   5.343 -0.5874 -0.5943 -0.2790
  114OSM    H8S11806   1.332   6.012   5.285 -0.4761 -2.1360  0.1302
  114OSM    H8T11807   1.207   6.129   5.350  0.2816 -0.4181  1.2071
  114OSM    C9S11808   1.128   5.947   5.271 -0.1287  0.5540 -0.2937
  114OSM    H9S11809   1.050   5.923   5.347 -0.9645  2.4139 -0.5198
  114OSM    H9T11810   1.168   5.849   5.237 -2.5267 -0.9120  0.7979
  114OSM   C10S11811   1.070   6.029   5.156  0.5844 -0.4515 -0.3172
  114OSM   H10S11812   1.023   6.126   5.182  1.9882  1.2476 -3.5551
  114OSM   H10T11813   0.978   5.970   5.133  0.4437 -0.5219  0.4056
  114OSM   C11S11814   1.155   6.046   5.029  0.3873 -0.1428 -0.4289
  114OSM   H11S11815   1.202   5.949   5.003  0.5922  0.0010 -0.6000
  114OSM   H11T11816   1.230   6.126   5.048 -3.1062  3.1211  0.9311
  114OSM   C12S11817   1.057   6.088   4.914 -0.3936 -0.3341 -0.0377
  114OSM   H12S11818   0.999   6.171   4.960 -1.0038 -0.7571 -0.0182
  114OSM   H12T11819   0.986   6.003   4.906  0.2239 -0.8068 -0.5593
  114OSM   C13S11820   1.112   6.136   4.772  0.0897  0.3669  0.2104
  114OSM   H13S11821   1.019   6.146   4.712  0.2873 -0.3318 -0.2256
  114OSM   H13T11822   1.165   6.051   4.723 -1.9926  0.2376 -2.0319
  114OSM   C14S11823   1.180   6.265   4.793 -0.4444  0.1018 -0.2879
  114OSM   H14S11824   1.253   6.266   4.877  0.2923 -1.2848 -0.8825
  114OSM   H14T11825   1.107   6.344   4.823 -0.3159 -0.3705  1.3805
  114OSM   C15S11826   1.272   6.307   4.674 -0.2203 -0.4700  0.0407
  114OSM   H15S11827   1.362   6.241   4.671  0.7098  0.6976  1.0537
  114OSM   H15T11828   1.320   6.401   4.710 -0.0859 -1.0611  1.4703
  114OSM   C16S11829   1.205   6.331   4.540 -0.3098 -0.0756 -0.1843
  114OSM   H16S11830   1.159   6.432   4.542 -1.2482 -0.4158 -2.2796
  114OSM   H16T11831   1.125   6.259   4.511 -1.2309  1.3130 -1.2080
  114OSM   C17S11832   1.299   6.324   4.417  0.3091  0.6268  1.1508
  114OSM   H17S11833   1.237   6.342   4.327  0.5568  0.7433  1.0043
  114OSM   H17T11834   1.337   6.223   4.393 -1.1402  0.5765 -1.2569
  114OSM   C18S11835   1.403   6.428   4.412 -0.7081 -0.2390  0.1522
  114OSM   H18S11836   1.464   6.428   4.505 -1.3676 -0.8317  0.5986
  114OSM   H18T11837   1.365   6.533   4.407  0.5542  0.1591 -2.3092
  114OSM   H18U11838   1.470   6.417   4.325 -0.8809 -2.8695  0.2727
  114OSM    C1F11839   0.988   6.047   6.047  0.0189  0.1767  0.4525
  114OSM     OF11840   1.036   6.123   6.125 -0.5290 -0.6991 -0.1479
  114OSM    C2F11841   0.840   6.035   6.019 -0.0985 -0.1670  0.3145
  114OSM    H2F11842   0.811   5.940   6.068  0.7901 -0.9442 -0.6007
  114OSM    H2G11843   0.822   6.036   5.909  1.3930 -1.0855  0.0160
  114OSM    C3F11844   0.764   6.159   6.072 -0.1712 -0.4156  0.6308
  114OSM    H3F11845   0.816   6.250   6.035 -0.8663 -0.1882  0.1941
  114OSM    H3G11846   0.755   6.136   6.180  0.0423  2.3697  1.3038
  114OSM    C4F11847   0.617   6.171   6.020 -0.6080 -0.6874 -0.0898
  114OSM    H4F11848   0.563   6.235   6.093 -2.8753  0.9748 -2.9961
  114OSM    H4G11849   0.568   6.071   6.021 -0.9518 -0.5290 -0.5689
  114OSM    C5F11850   0.606   6.248   5.882 -0.3389 -0.1268  0.0521
  114OSM    H5F11851   0.693   6.294   5.832 -2.4147  1.6306 -2.2287
  114OSM    H5G11852   0.562   6.346   5.913  1.0877  0.7818 -0.6935
  114OSM    C6F11853   0.500   6.186   5.794  0.3396  0.2015  0.2974
  114OSM    H6F11854   0.468   6.263   5.721  1.0016 -0.4367 -0.6966
  114OSM    H6G11855   0.410   6.163   5.856 -2.6278  0.5073 -3.5265
  114OSM    C7F11856   0.550   6.057   5.723  0.9501 -0.3639 -0.4943
  114OSM    H7F11857   0.581   5.977   5.794  1.8687  0.1929 -0.2513
  114OSM    H7G11858   0.636   6.088   5.660 -0.5248 -1.6959 -3.3503
  114OSM    C8F11859   0.430   6.008   5.636  0.2360  0.2675  0.3721
  114OSM    H8F11860   0.377   6.089   5.582  0.6483  2.3271  2.8858
  114OSM    H8G11861   0.353   5.963   5.702  0.0882  1.1109  0.7866
  114OSM    C9F11862   0.480   5.908   5.535 -0.6961 -0.0811 -0.2976
  114OSM    H9F11863   0.554   5.836   5.574 -1.6113 -1.2642 -0.6606
  114OSM   C10F11864   0.448   5.904   5.404  0.6326 -0.0763  0.2481
  114OSM   H10F11865   0.499   5.832   5.339  2.2583 -0.1924  1.5896
  114OSM   C11F11866   0.333   5.984   5.346  0.2467  0.4250  0.4278
  114OSM   H11F11867   0.372   6.087   5.334  1.3383 -0.1460 -1.3436
  114OSM   H11G11868   0.233   5.979   5.394 -0.9495  1.8992 -1.7479
  114OSM   C12F11869   0.298   5.946   5.200 -0.2110  0.6248  0.5634
  114OSM   H12F11870   0.271   5.838   5.202 -0.0688  0.5942  1.0694
  114OSM   H12G11871   0.392   5.959   5.142  0.8194  2.2324  2.4788
  114OSM   C13F11872   0.176   6.017   5.148  0.0364  0.6545  0.0124
  114OSM   H13F11873   0.186   6.127   5.160 -0.9589  0.7033  0.4313
  114OSM   H13G11874   0.088   5.995   5.211 -0.9130  1.0329 -1.1466
  114OSM   C14F11875   0.139   5.998   4.993  0.1804  0.3027 -0.3150
  114OSM   H14F11876   0.045   6.056   4.979  0.8082  1.1329 -1.2235
  114OSM   H14G11877   0.129   5.892   4.961  0.7393 -0.2312  1.2144
  114OSM   C15F11878   0.248   6.076   4.908  0.3653  0.0087 -0.4607
  114OSM   H15F11879   0.345   6.023   4.921  1.3098  2.0515  1.4017
  114OSM   H15G11880   0.264   6.182   4.935 -1.3528  0.1719  0.0248
  114OSM   C16F11881   0.216   6.085   4.754 -0.0911 -0.4496 -0.3555
  114OSM   H16F11882   0.107   6.097   4.743  0.0098  1.1849  0.1898
  114OSM   H16G11883   0.229   5.984   4.710  0.2972 -0.2700 -0.6609
  114OSM   C17F11884   0.273   6.212   4.691 -0.4359  0.1683  0.1207
  114OSM   H17F11885   0.372   6.235   4.735 -1.2241  2.6737  0.7411
  114OSM   H17G11886   0.204   6.293   4.724  1.7152  2.1488  0.0384
  114OSM   C18F11887   0.294   6.213   4.539  0.6216 -0.0597  0.3927
  114OSM   H18F11888   0.198   6.194   4.487  1.1719 -0.5152 -0.4891
  114OSM   H18G11889   0.362   6.127   4.522 -1.4057 -1.9654  1.4428
  114OSM   H18H11890   0.338   6.303   4.492 -1.8221  0.3729 -1.2289
  115OSM      N11891   0.964   1.590   6.477  0.6024 -0.0235  0.7267
  115OSM    C1511892   1.052   1.699   6.422 -0.6447 -0.0054 -0.2343
  115OSM   H15A11893   1.112   1.753   6.493  0.0358 -0.5177 -0.4004
  115OSM   H15B11894   0.999   1.764   6.354  2.1763 -0.2636 -2.9374
  115OSM   H15C11895   1.122   1.648   6.357 -0.1502 -3.1770  2.5290
  115OSM    C1411896   0.864   1.644   6.570  0.1946  0.2289  0.4192
  115OSM   H14A11897   0.812   1.719   6.511  3.1323  0.3287 -2.3032
  115OSM   H14B11898   0.904   1.690   6.659  2.5701 -0.3283 -0.3012
  115OSM   H14C11899   0.796   1.565   6.597  0.4948 -0.3061 -0.3719
  115OSM    C1311900   0.892   1.528   6.361 -0.4879  0.1267  0.0171
  115OSM   H13A11901   0.955   1.504   6.277 -1.5232 -1.0318 -0.4729
  115OSM   H13B11902   0.824   1.601   6.320  1.1121  2.0822  0.7025
  115OSM   H13C11903   0.845   1.438   6.399  0.4017 -0.5478 -0.4525
  115OSM    C1211904   1.053   1.492   6.549  0.0679  0.3625 -0.1245
  115OSM   H12A11905   1.110   1.555   6.616  0.3697 -0.3779  0.3253
  115OSM   H12B11906   1.130   1.451   6.486  0.3080  1.3250 -0.4785
  115OSM    C1111907   0.980   1.391   6.643 -0.5430  0.5852 -0.3706
  115OSM   H11A11908   0.947   1.447   6.733  3.1907 -1.2449  2.4011
  115OSM   H11B11909   1.059   1.325   6.684  0.1137  1.1065 -0.7831
  115OSM      P11910   0.826   1.184   6.641 -0.0379  0.0702  0.2986
  115OSM    O1311911   0.879   1.168   6.779  0.0193 -0.4501 -0.4174
  115OSM    O1411912   0.677   1.174   6.625 -0.1674  0.5340 -0.2127
  115OSM    O1111913   0.894   1.090   6.542  0.3446  0.0472  0.2763
  115OSM    O1211914   0.877   1.321   6.580  0.3635 -0.2130  0.0076
  115OSM    C1S11915   0.856   1.095   6.399 -0.1345 -0.4961 -0.2211
  115OSM    H1S11916   0.760   1.144   6.374 -0.6157 -1.6463 -0.7263
  115OSM    H1T11917   0.836   0.987   6.378 -1.4385 -0.4729  0.7136
  115OSM     NF11918   0.912   1.114   6.158 -0.2555  0.0276  0.3982
  115OSM    HNF11919   0.935   1.033   6.105  1.0393  0.5656  0.0846
  115OSM    C2S11920   0.964   1.129   6.290  0.1737 -0.1931 -0.3126
  115OSM    H2S11921   1.001   1.232   6.309  1.1674 -0.5508 -0.2239
  115OSM    C3S11922   1.093   1.042   6.318  0.4580  0.1909 -0.6480
  115OSM    H3S11923   1.069   0.935   6.300 -0.7049 -0.0212  1.7701
  115OSM     O311924   1.146   1.056   6.448 -0.1196  0.5927  0.5641
  115OSM    HO311925   1.082   1.119   6.483 -2.0165 -0.4953 -0.7623
  115OSM    C4S11926   1.208   1.075   6.223 -1.3040  0.1670  0.4076
  115OSM    H4S11927   1.217   1.179   6.189 -1.6121 -0.5648 -2.1232
  115OSM    C5S11928   1.296   0.981   6.182 -0.5133 -0.7458  0.3021
  115OSM    H5S11929   1.296   0.889   6.242 -2.5400  0.4351  2.2403
  115OSM    C6S11930   1.405   0.995   6.077 -0.2162 -0.3420 -0.6083
  115OSM    H6S11931   1.371   0.917   6.006  0.4852  0.8465 -2.3025
  115OSM    H6T11932   1.507   0.975   6.117  0.2903  0.4958 -1.4559
  115OSM    C7S11933   1.424   1.131   6.014 -0.6903  0.0883  0.3363
  115OSM    H7S11934   1.485   1.195   6.081  1.0176 -1.3357  0.2285
  115OSM    H7T11935   1.324   1.176   5.998  0.6052  2.3531 -2.1189
  115OSM    C8S11936   1.503   1.123   5.881  0.2679  0.3270  0.5270
  115OSM    H8S11937   1.461   1.029   5.839 -0.6166  0.0794  1.8770
  115OSM    H8T11938   1.609   1.108   5.909  0.2926 -1.7582 -0.4601
  115OSM    C9S11939   1.489   1.234   5.781 -0.2965 -0.0899  0.4392
  115OSM    H9S11940   1.521   1.333   5.818  1.0203  0.5276 -2.1228
  115OSM    H9T11941   1.379   1.245   5.770  0.0279  2.4522 -0.9402
  115OSM   C10S11942   1.570   1.210   5.655  0.1120 -0.0175  0.3077
  115OSM   H10S11943   1.531   1.126   5.593  2.2359 -0.9736  0.1704
  115OSM   H10T11944   1.676   1.188   5.682 -0.4134 -0.7416  1.9013
  115OSM   C11S11945   1.596   1.344   5.570 -0.7206  0.2615  0.0816
  115OSM   H11S11946   1.620   1.416   5.652 -1.8087  0.6382  0.0858
  115OSM   H11T11947   1.505   1.388   5.525 -1.8921 -0.8035  1.3608
  115OSM   C12S11948   1.701   1.314   5.458  0.2393 -0.4192  0.5489
  115OSM   H12S11949   1.798   1.271   5.491  0.6164 -0.8572 -1.0560
  115OSM   H12T11950   1.722   1.409   5.404 -0.1439 -0.4688  0.3103
  115OSM   C13S11951   1.650   1.210   5.359 -0.0119 -0.3431  0.0632
  115OSM   H13S11952   1.540   1.226   5.352 -0.1101 -0.0424  1.8368
  115OSM   H13T11953   1.661   1.111   5.408 -0.3497  0.7191  2.4330
  115OSM   C14S11954   1.705   1.221   5.214  0.9474  0.4842  0.3510
  115OSM   H14S11955   1.676   1.126   5.164  2.9315  0.3135 -0.5797
  115OSM   H14T11956   1.816   1.219   5.216  0.9657 -1.0918 -0.3042
  115OSM   C15S11957   1.635   1.325   5.128  0.2536  0.0948 -0.2330
  115OSM   H15S11958   1.661   1.430   5.152 -0.7801  0.3248 -0.0528
  115OSM   H15T11959   1.526   1.321   5.151  0.5295  2.5066  1.9077
  115OSM   C16S11960   1.675   1.301   4.972  0.2807  0.5128 -0.5653
  115OSM   H16S11961   1.654   1.195   4.949  0.5408  0.0317  1.2941
  115OSM   H16T11962   1.786   1.314   4.970  0.4646  0.1473  2.4824
  115OSM   C17S11963   1.606   1.404   4.884  0.1119  0.4101 -0.3949
  115OSM   H17S11964   1.607   1.507   4.927  1.2732 -0.1665  1.0642
  115OSM   H17T11965   1.501   1.369   4.885  0.2630 -0.0451  0.8848
  115OSM   C18S11966   1.649   1.417   4.742 -0.6035 -0.1436  0.1670
  115OSM   H18S11967   1.742   1.477   4.744 -0.5347 -0.1129 -1.8624
  115OSM   H18T11968   1.568   1.453   4.675 -2.2416 -0.8178  1.6779
  115OSM   H18U11969   1.678   1.317   4.704 -0.7100 -1.0712  2.3516
  115OSM    C1F11970   0.820   1.197   6.103  0.1861  0.4020 -0.2069
  115OSM     OF11971   0.778   1.296   6.163  0.1100  0.0066 -0.0993
  115OSM    C2F11972   0.766   1.163   5.963 -0.1297 -0.5594 -0.9190
  115OSM    H2F11973   0.811   1.067   5.930  1.7551  0.1397 -0.4761
  115OSM    H2G11974   0.807   1.238   5.893  1.2906 -0.5429 -0.1031
  115OSM    C3F11975   0.614   1.153   5.953  0.3165  0.1384  0.1899
  115OSM    H3F11976   0.565   1.249   5.982 -0.2984  0.2169 -1.0278
  115OSM    H3G11977   0.572   1.070   6.012  1.5948  0.1575  1.1788
  115OSM    C4F11978   0.583   1.139   5.801 -0.0228 -0.3142  1.1984
  115OSM    H4F11979   0.484   1.090   5.788 -0.1642  0.8317 -4.5149
  115OSM    H4G11980   0.650   1.058   5.765  0.3385  1.3929 -2.3977
  115OSM    C5F11981   0.595   1.264   5.710 -0.5630 -0.8662 -0.9503
  115OSM    H5F11982   0.685   1.324   5.739 -1.7659  0.2890  0.5299
  115OSM    H5G11983   0.501   1.321   5.724 -0.0133 -0.1487 -0.1060
  115OSM    C6F11984   0.609   1.234   5.569 -0.0501 -0.0572  0.6243
  115OSM    H6F11985   0.685   1.157   5.545 -0.4805 -0.4700  0.5737
  115OSM    H6G11986   0.645   1.320   5.510 -0.9718 -0.0335  0.0670
  115OSM    C7F11987   0.481   1.195   5.499  0.2803 -0.3192  0.3697
  115OSM    H7F11988   0.406   1.264   5.542  0.3388 -0.5533  0.8622
  115OSM    H7G11989   0.439   1.099   5.536 -0.2450  0.3828  1.6570
  115OSM    C8F11990   0.492   1.209   5.349 -0.7140 -0.1526  0.0452
  115OSM    H8F11991   0.562   1.137   5.303  1.7687  1.6327  0.7976
  115OSM    H8G11992   0.550   1.303   5.331  0.1080 -0.8777 -1.1766
  115OSM    C9F11993   0.366   1.202   5.266  1.0933  0.0287 -0.2071
  115OSM    H9F11994   0.312   1.109   5.288 -0.9183  1.3300  0.6022
  115OSM   C10F11995   0.313   1.294   5.182  0.4378 -0.4287  0.4165
  115OSM   H10F11996   0.213   1.281   5.138 -0.1200  0.4352  1.4131
  115OSM   C11F11997   0.361   1.425   5.153  0.5455 -0.3350 -0.1577
  115OSM   H11F11998   0.405   1.483   5.237  0.3472  1.2359 -1.0977
  115OSM   H11G11999   0.276   1.488   5.118  1.2163  0.7060  0.0480
  115OSM   C12F12000   0.458   1.439   5.030 -0.7741  0.2257  0.2883
  115OSM   H12F12001   0.530   1.354   5.036 -0.5455  0.4071  0.1268
  115OSM   H12G12002   0.524   1.528   5.028  1.8205 -1.5743  0.6140
  115OSM   C13F12003   0.387   1.410   4.899 -0.4654  0.2233  0.3526
  115OSM   H13F12004   0.334   1.505   4.878 -2.8149 -0.6620  1.7473
  115OSM   H13G12005   0.308   1.331   4.889 -1.1346  0.7314  1.4538
  115OSM   C14F12006   0.484   1.413   4.776  0.2571  0.4241 -0.2970
  115OSM   H14F12007   0.542   1.507   4.773  0.6560  0.1604 -2.1479
  115OSM   H14G12008   0.425   1.412   4.682  0.9800  2.1245 -0.8088
  115OSM   C15F12009   0.587   1.297   4.762 -0.4685  0.1419 -0.0242
  115OSM   H15F12010   0.533   1.201   4.757  0.3884 -0.3509  0.0572
  115OSM   H15G12011   0.642   1.295   4.858 -1.5483  1.5129  0.6589
  115OSM   C16F12012   0.682   1.321   4.641 -0.3013 -0.5056  0.6218
  115OSM   H16F12013   0.755   1.239   4.623 -0.4597 -0.6535  0.6500
  115OSM   H16G12014   0.750   1.406   4.663  0.1173 -0.1936 -1.5835
  115OSM   C17F12015   0.608   1.365   4.516  0.5113  0.1235  1.1363
  115OSM   H17F12016   0.587   1.474   4.510  1.3524  0.2242 -0.8614
  115OSM   H17G12017   0.508   1.316   4.512 -0.1749  1.5124  0.7890
  115OSM   C18F12018   0.679   1.327   4.385  0.2815 -0.8085  0.3731
  115OSM   H18F12019   0.782   1.367   4.379 -0.0734 -0.0479 -3.7254
  115OSM   H18G12020   0.633   1.363   4.290  0.1655  0.1898  0.7959
  115OSM   H18H12021   0.697   1.217   4.377 -1.4195 -0.9831 -2.5011
  116OSM      N12022   3.791   1.127   6.806  0.4454  0.2633 -0.3103
  116OSM    C1512023   3.931   1.157   6.827  0.0893 -0.7681  0.3520
  116OSM   H15A12024   3.944   1.260   6.796 -2.3570  0.0203  1.7489
  116OSM   H15B12025   3.982   1.084   6.766 -0.7512 -1.0145 -0.0659
  116OSM   H15C12026   3.974   1.159   6.926  1.5138  0.1519 -0.2330
  116OSM    C1412027   3.758   0.991   6.857 -0.5683 -0.6339  0.4386
  116OSM   H14A12028   3.807   0.917   6.795  0.0220 -0.0770  0.2250
  116OSM   H14B12029   3.653   0.979   6.833 -0.9215  1.9396  0.4027
  116OSM   H14C12030   3.771   0.975   6.963 -0.4610  0.5768  0.6281
  116OSM    C1312031   3.706   1.226   6.887  0.4934  0.2334  0.2597
  116OSM   H13A12032   3.720   1.234   6.994 -1.7669  0.1472  0.6139
  116OSM   H13B12033   3.610   1.192   6.852  1.1407 -0.5875 -0.7988
  116OSM   H13C12034   3.717   1.327   6.850 -1.7768  0.0096 -1.1945
  116OSM    C1212035   3.764   1.130   6.660  0.6138 -0.1676 -0.1891
  116OSM   H12A12036   3.828   1.055   6.615 -0.9406 -2.7580  1.6011
  116OSM   H12B12037   3.787   1.229   6.625  1.1902  1.4375  4.2058
  116OSM    C1112038   3.622   1.092   6.613 -0.9189 -0.3120  0.4220
  116OSM   H11A12039   3.601   0.989   6.649 -1.3963 -0.1531  0.6121
  116OSM   H11B12040   3.623   1.098   6.502 -1.1834 -0.2865  0.4205
  116OSM      P12041   3.375   1.117   6.695  0.1693 -0.3377 -0.0711
  116OSM    O1312042   3.388   1.013   6.792 -1.0957 -0.0694 -0.6499
  116OSM    O1412043   3.292   1.231   6.740 -0.2986  0.1027 -0.3610
  116OSM    O1112044   3.328   1.055   6.558 -0.2984 -0.6237  0.6030
  116OSM    O1212045   3.521   1.174   6.672 -0.6297  0.0757 -0.2294
  116OSM    C1S12046   3.259   1.132   6.453 -0.1234 -0.4230 -0.2401
  116OSM    H1S12047   3.236   1.234   6.490  1.7682 -0.0492  0.0122
  116OSM    H1T12048   3.162   1.093   6.416 -1.0872  2.1124 -0.5329
  116OSM     NF12049   3.293   1.238   6.229  0.3979 -0.0349 -0.0198
  116OSM    HNF12050   3.270   1.195   6.142  0.2152 -1.7477  0.8327
  116OSM    C2S12051   3.352   1.150   6.329 -0.2013 -0.2424 -0.0289
  116OSM    H2S12052   3.449   1.191   6.363 -0.2783 -1.2554  1.4743
  116OSM    C3S12053   3.395   1.014   6.262 -0.0096  0.6276  0.0363
  116OSM    H3S12054   3.299   0.964   6.237  0.0907 -0.3693  1.5286
  116OSM     O312055   3.460   0.921   6.347 -0.4816  0.3640  0.1834
  116OSM    HO312056   3.431   0.952   6.433 -1.8465  0.8658 -0.4508
  116OSM    C4S12057   3.474   1.032   6.134 -0.3950 -0.0760 -0.1098
  116OSM    H4S12058   3.414   1.037   6.042 -1.6015  1.9698  0.6895
  116OSM    C5S12059   3.606   1.063   6.121  1.1924 -0.0388 -0.0319
  116OSM    H5S12060   3.658   1.088   6.214 -1.4212  1.1500  1.2287
  116OSM    C6S12061   3.669   1.111   5.992  0.4569  0.2389 -0.4927
  116OSM    H6S12062   3.765   1.058   5.976 -0.0765 -0.1292 -2.9155
  116OSM    H6T12063   3.686   1.221   6.003 -0.0460  0.2404  0.3190
  116OSM    C7S12064   3.590   1.082   5.862  0.7384  0.2826 -0.0246
  116OSM    H7S12065   3.497   1.143   5.868  0.9542  0.4820  1.8142
  116OSM    H7T12066   3.553   0.977   5.870  0.6054 -0.1150 -3.9348
  116OSM    C8S12067   3.677   1.111   5.742 -0.2770 -0.0141 -0.2669
  116OSM    H8S12068   3.750   1.028   5.729 -0.4683  0.1823 -3.4619
  116OSM    H8T12069   3.728   1.206   5.770  0.6992 -1.1193  1.9507
  116OSM    C9S12070   3.604   1.137   5.613  0.4780  0.3355 -0.5381
  116OSM    H9S12071   3.530   1.218   5.629  1.6657  2.1669 -3.4923
  116OSM    H9T12072   3.550   1.042   5.593 -0.7142  0.3400  2.2835
  116OSM   C10S12073   3.697   1.171   5.492  0.3675  0.1647 -0.6522
  116OSM   H10S12074   3.767   1.085   5.483  1.1323  0.5434  1.2421
  116OSM   H10T12075   3.745   1.267   5.522 -0.1762 -0.2183  1.6503
  116OSM   C11S12076   3.626   1.205   5.362 -0.1449 -0.3719  0.3989
  116OSM   H11S12077   3.595   1.311   5.360 -0.1858 -0.3902 -0.3035
  116OSM   H11T12078   3.540   1.134   5.357 -2.1064  1.7270  2.4477
  116OSM   C12S12079   3.719   1.175   5.236  0.2654  0.4824 -0.4581
  116OSM   H12S12080   3.741   1.066   5.233 -1.6261  0.0305  0.5023
  116OSM   H12T12081   3.812   1.233   5.253 -0.5359  1.0610  2.4067
  116OSM   C13S12082   3.654   1.203   5.104  0.2635 -0.1588 -0.4700
  116OSM   H13S12083   3.618   1.308   5.102 -0.0015 -0.2554 -1.7408
  116OSM   H13T12084   3.558   1.147   5.102 -0.4821  1.0725 -0.3645
  116OSM   C14S12085   3.739   1.172   4.983  0.4286  0.2239 -0.0338
  116OSM   H14S12086   3.779   1.069   4.991  0.8008  0.4241  0.6874
  116OSM   H14T12087   3.828   1.238   4.982  0.7831  0.0164  3.7183
  116OSM   C15S12088   3.663   1.178   4.846 -0.7888  0.6478 -0.8081
  116OSM   H15S12089   3.605   1.272   4.833 -0.0416  1.7966  2.9816
  116OSM   H15T12090   3.582   1.102   4.853  0.8386 -1.2283 -1.3533
  116OSM   C16S12091   3.757   1.144   4.734  0.3347 -0.0283  0.2750
  116OSM   H16S12092   3.803   1.044   4.741  2.4122  0.8814  0.4104
  116OSM   H16T12093   3.838   1.220   4.733  0.2094  0.1253  1.1050
  116OSM   C17S12094   3.686   1.137   4.596  0.0191 -0.8558  0.5691
  116OSM   H17S12095   3.626   1.231   4.590  1.2972 -0.0421 -0.0827
  116OSM   H17T12096   3.619   1.049   4.598 -0.4897 -0.5243 -0.8784
  116OSM   C18S12097   3.775   1.144   4.471  0.3773  0.8477 -0.1595
  116OSM   H18S12098   3.811   1.242   4.435  1.5082 -0.5306 -3.1320
  116OSM   H18T12099   3.716   1.102   4.387  0.3437 -2.2307  1.2672
  116OSM   H18U12100   3.865   1.081   4.487  1.9660  2.4129 -2.2816
  116OSM    C1F12101   3.274   1.369   6.253 -0.1765  0.5813  0.9098
  116OSM     OF12102   3.333   1.430   6.339  0.1056  0.0450 -0.7078
  116OSM    C2F12103   3.194   1.447   6.158 -0.3027 -0.5207 -0.7866
  116OSM    H2F12104   3.137   1.523   6.214  2.2467  0.4428  0.6667
  116OSM    H2G12105   3.143   1.378   6.087  0.3592 -1.8129 -0.0602
  116OSM    C3F12106   3.288   1.545   6.080  0.4782  1.1312  0.0073
  116OSM    H3F12107   3.349   1.615   6.143  1.3645  0.1394  0.2795
  116OSM    H3G12108   3.212   1.609   6.030 -1.4583 -1.6897 -0.8480
  116OSM    C4F12109   3.365   1.471   5.970 -0.1839  0.3568 -0.5132
  116OSM    H4F12110   3.293   1.415   5.906  0.3329  1.3456 -2.0257
  116OSM    H4G12111   3.434   1.397   6.016 -1.7414 -0.0543  1.2944
  116OSM    C5F12112   3.442   1.560   5.874 -0.3931 -0.3214 -0.5350
  116OSM    H5F12113   3.525   1.606   5.932 -0.2226 -1.0493 -0.1953
  116OSM    H5G12114   3.378   1.640   5.830 -3.6113 -0.4415  3.3363
  116OSM    C6F12115   3.497   1.479   5.757  0.0257  0.0806 -0.2221
  116OSM    H6F12116   3.406   1.441   5.705 -0.2302 -1.2131  1.0882
  116OSM    H6G12117   3.535   1.384   5.802  0.7862  0.8431  0.7889
  116OSM    C7F12118   3.610   1.541   5.672  0.4711 -0.6173 -0.0192
  116OSM    H7F12119   3.660   1.467   5.606  1.3358  0.1084 -0.1985
  116OSM    H7G12120   3.695   1.583   5.730  2.2837 -0.6587 -2.4641
  116OSM    C8F12121   3.548   1.660   5.585  0.3416  0.8216 -0.7705
  116OSM    H8F12122   3.534   1.747   5.652 -2.0604  0.9268 -1.3181
  116OSM    H8G12123   3.445   1.640   5.549  0.5604  0.8153 -1.4205
  116OSM    C9F12124   3.634   1.704   5.471  0.1262 -0.0295 -0.4680
  116OSM    H9F12125   3.708   1.780   5.503 -1.1419  0.8769  0.4239
  116OSM   C10F12126   3.642   1.669   5.342 -0.1306  0.8598  0.0521
  116OSM   H10F12127   3.720   1.717   5.280  1.7170 -0.1130  1.5406
  116OSM   C11F12128   3.554   1.566   5.271 -0.4792 -0.0444 -0.5179
  116OSM   H11F12129   3.484   1.526   5.348 -2.1900 -1.0993 -2.5358
  116OSM   H11G12130   3.612   1.478   5.235 -1.5486 -0.8342 -0.3599
  116OSM   C12F12131   3.476   1.637   5.158  0.0415 -0.0261 -0.0014
  116OSM   H12F12132   3.429   1.732   5.192 -0.0001  0.8726 -2.4029
  116OSM   H12G12133   3.387   1.571   5.144  0.9436 -1.2166 -0.3446
  116OSM   C13F12134   3.562   1.640   5.030  0.5241  0.7139 -0.0186
  116OSM   H13F12135   3.592   1.535   5.008  2.5037  1.4314 -0.9649
  116OSM   H13G12136   3.652   1.698   5.058  1.7097 -1.9533  2.2215
  116OSM   C14F12137   3.495   1.710   4.903 -0.2372 -0.1332  0.3747
  116OSM   H14F12138   3.584   1.750   4.849  1.2020 -0.3284  2.4568
  116OSM   H14G12139   3.431   1.794   4.936 -2.1306 -0.3092 -2.5164
  116OSM   C15F12140   3.419   1.605   4.828 -0.2359 -0.1730 -0.3215
  116OSM   H15F12141   3.368   1.548   4.908  1.3421 -1.8972 -0.4815
  116OSM   H15G12142   3.499   1.535   4.795  1.6137  1.5470  0.3019
  116OSM   C16F12143   3.325   1.662   4.719  0.0865 -1.0662 -0.3172
  116OSM   H16F12144   3.256   1.730   4.774  0.2579 -1.1866  0.0503
  116OSM   H16G12145   3.270   1.587   4.659  0.2209 -0.5312 -1.1226
  116OSM   C17F12146   3.403   1.750   4.610  0.0021  0.4551  0.3356
  116OSM   H17F12147   3.487   1.690   4.569 -0.2126 -0.3976  1.1270
  116OSM   H17G12148   3.457   1.830   4.665 -0.2789  0.0628  1.2016
  116OSM   C18F12149   3.331   1.818   4.499  0.2844  0.3926 -0.2399
  116OSM   H18F12150   3.394   1.889   4.441  0.5977  0.6402  0.3988
  116OSM   H18G12151   3.244   1.876   4.537  0.1759  0.5340 -0.6920
  116OSM   H18H12152   3.294   1.757   4.413  0.6368  2.7501 -2.1934
  117OSM      N12153   2.455   3.695   6.854 -0.8947 -0.3375 -0.7588
  117OSM    C1512154   2.385   3.816   6.810 -0.3623  0.6404  0.3942
  117OSM   H15A12155   2.394   3.828   6.703  1.7869  0.0370  0.4493
  117OSM   H15B12156   2.432   3.901   6.857  0.3239  0.3470  0.2631
  117OSM   H15C12157   2.285   3.806   6.847  0.3182 -0.5317  2.0491
  117OSM    C1412158   2.492   3.722   6.999 -0.1064 -0.2054 -0.2668
  117OSM   H14A12159   2.546   3.632   7.025 -1.0227 -1.2127 -1.6605
  117OSM   H14B12160   2.402   3.724   7.058 -0.1883 -2.3004 -0.2556
  117OSM   H14C12161   2.555   3.808   7.016 -0.9477  0.6784 -1.4388
  117OSM    C1312162   2.365   3.582   6.846 -0.2479 -0.7314 -0.2216
  117OSM   H13A12163   2.407   3.483   6.850 -0.7547 -0.9194  2.0872
  117OSM   H13B12164   2.309   3.577   6.754  2.2949 -0.6411 -1.8649
  117OSM   H13C12165   2.302   3.589   6.933  0.9969 -1.5892  0.7911
  117OSM    C1212166   2.578   3.662   6.771  0.5736  0.0354  0.8698
  117OSM   H12A12167   2.653   3.739   6.764  2.0457 -1.4341 -0.6543
  117OSM   H12B12168   2.546   3.650   6.669  1.7553 -2.1183  0.6847
  117OSM    C1112169   2.645   3.529   6.812  0.7434  0.4529 -0.3651
  117OSM   H11A12170   2.657   3.519   6.922  0.9160 -1.2467 -0.5059
  117OSM   H11B12171   2.749   3.525   6.775  0.6289  1.8080 -0.8915
  117OSM      P12172   2.627   3.266   6.793 -0.2812  0.3456 -0.0179
  117OSM    O1312173   2.773   3.271   6.812  0.6584  0.2273 -0.1303
  117OSM    O1412174   2.548   3.199   6.904 -0.7892  0.2714  0.6420
  117OSM    O1112175   2.601   3.189   6.660 -0.4304  0.2362  0.2483
  117OSM    O1212176   2.569   3.411   6.768 -0.7685 -0.1202  0.2360
  117OSM    C1S12177   2.591   3.261   6.536 -0.6236 -0.3598 -0.3142
  117OSM    H1S12178   2.694   3.287   6.506 -1.0401  0.5193 -1.0416
  117OSM    H1T12179   2.528   3.351   6.551 -1.4901 -0.8671 -0.8228
  117OSM     NF12180   2.534   3.227   6.300  0.7174 -0.4883  0.1959
  117OSM    HNF12181   2.440   3.247   6.274  0.3601 -0.9581  1.0758
  117OSM    C2S12182   2.534   3.165   6.432  0.0566  0.5930  0.2506
  117OSM    H2S12183   2.589   3.069   6.430 -0.6680  0.1675  0.2571
  117OSM    C3S12184   2.391   3.108   6.483 -0.3117 -0.0669  0.2216
  117OSM    H3S12185   2.328   3.193   6.518 -0.6998 -0.9728  1.8073
  117OSM     O312186   2.387   3.049   6.616  0.4719 -0.1635  0.0402
  117OSM    HO312187   2.464   3.086   6.659 -0.9998  1.5184  1.3663
  117OSM    C4S12188   2.326   3.026   6.375 -0.5984 -0.7528  0.2423
  117OSM    H4S12189   2.274   3.084   6.297  1.5936 -1.1806 -1.6079
  117OSM    C5S12190   2.330   2.895   6.358 -0.8580 -0.2349 -0.1627
  117OSM    H5S12191   2.388   2.836   6.431 -0.1028  1.2269  0.4686
  117OSM    C6S12192   2.264   2.817   6.243  0.1666  0.3631 -0.9102
  117OSM    H6S12193   2.192   2.744   6.284  1.8570 -2.0374 -1.9446
  117OSM    H6T12194   2.341   2.751   6.196  0.8363 -0.2288  0.9428
  117OSM    C7S12195   2.201   2.906   6.137  0.0503 -0.3117 -0.2397
  117OSM    H7S12196   2.126   2.976   6.180  0.8393  2.1923 -2.6194
  117OSM    H7T12197   2.135   2.835   6.083  0.6648  0.1670 -1.6796
  117OSM    C8S12198   2.311   2.962   6.039  0.8828  0.5610  0.3268
  117OSM    H8S12199   2.401   2.898   6.029  0.3574 -0.3283  1.1077
  117OSM    H8T12200   2.351   3.055   6.086  3.8706 -0.5251  0.1743
  117OSM    C9S12201   2.242   3.001   5.909 -0.1434  0.1648  0.1312
  117OSM    H9S12202   2.167   3.082   5.922  0.4579  0.7034  0.3142
  117OSM    H9T12203   2.193   2.906   5.879 -0.0800  0.5694 -1.3149
  117OSM   C10S12204   2.347   3.055   5.803 -0.6191  0.5589  0.0791
  117OSM   H10S12205   2.417   2.971   5.784 -1.0875  0.3885 -0.9962
  117OSM   H10T12206   2.416   3.131   5.843 -1.3626  1.5236 -0.4379
  117OSM   C11S12207   2.286   3.100   5.665 -0.4003  0.3881 -0.1547
  117OSM   H11S12208   2.229   3.193   5.686 -0.5962 -0.2846  2.6481
  117OSM   H11T12209   2.223   3.015   5.630 -0.5858 -0.0137  1.1145
  117OSM   C12S12210   2.386   3.141   5.561 -0.8149 -0.7938 -0.2254
  117OSM   H12S12211   2.459   3.060   5.541 -1.8348 -1.6860 -0.4219
  117OSM   H12T12212   2.445   3.226   5.602 -0.0789 -0.2336 -2.2753
  117OSM   C13S12213   2.347   3.186   5.424  0.7423  0.4080  0.5893
  117OSM   H13S12214   2.309   3.290   5.431 -0.0699  0.0515  1.6786
  117OSM   H13T12215   2.269   3.124   5.376  1.3253  1.0330 -1.2700
  117OSM   C14S12216   2.461   3.172   5.321  0.1680 -0.1312  0.3841
  117OSM   H14S12217   2.505   3.070   5.316 -1.5933 -0.9237  0.5295
  117OSM   H14T12218   2.548   3.228   5.363 -0.7159  1.3995  0.2576
  117OSM   C15S12219   2.434   3.225   5.174  0.1304 -0.0995 -0.6472
  117OSM   H15S12220   2.382   3.322   5.187  0.8516 -0.0149  2.5332
  117OSM   H15T12221   2.356   3.154   5.139 -1.8880  1.9713 -0.5883
  117OSM   C16S12222   2.556   3.216   5.075  0.1714  0.9071  0.4940
  117OSM   H16S12223   2.593   3.112   5.091 -0.8643  0.1704 -1.4756
  117OSM   H16T12224   2.634   3.289   5.106  0.7335 -0.2460  1.8852
  117OSM   C17S12225   2.510   3.233   4.926 -0.1810  0.4156 -0.3489
  117OSM   H17S12226   2.466   3.335   4.920 -1.9219 -0.2417  0.4244
  117OSM   H17T12227   2.430   3.158   4.906 -0.2878  1.1356 -2.9268
  117OSM   C18S12228   2.617   3.222   4.818 -0.5492  0.2951  0.9679
  117OSM   H18S12229   2.690   3.305   4.828 -0.3976  0.6747 -2.1979
  117OSM   H18T12230   2.558   3.223   4.724 -1.8110 -0.5745  1.7271
  117OSM   H18U12231   2.666   3.125   4.842 -2.3782 -0.3762  2.2334
  117OSM    C1F12232   2.639   3.247   6.233 -0.5405  0.2587 -0.0504
  117OSM     OF12233   2.747   3.205   6.276 -0.1092  0.0014  0.1415
  117OSM    C2F12234   2.621   3.313   6.108 -0.3546  0.1390  0.5932
  117OSM    H2F12235   2.604   3.422   6.123  0.4213  0.1166  1.7372
  117OSM    H2G12236   2.539   3.259   6.057  0.6534  0.5013 -1.5110
  117OSM    C3F12237   2.742   3.296   6.015 -0.5428 -0.0508 -0.5230
  117OSM    H3F12238   2.777   3.192   6.002  2.3231  0.6867  0.5083
  117OSM    H3G12239   2.824   3.354   6.063 -1.1483  2.1623 -2.0087
  117OSM    C4F12240   2.724   3.348   5.870 -0.2456 -0.5132 -0.2452
  117OSM    H4F12241   2.681   3.449   5.862 -1.7087 -1.1079 -0.1502
  117OSM    H4G12242   2.664   3.280   5.805  0.4855  1.4769 -3.1967
  117OSM    C5F12243   2.860   3.369   5.794  0.3118  0.3928  0.1145
  117OSM    H5F12244   2.852   3.378   5.684  0.1089 -0.3662  0.0643
  117OSM    H5G12245   2.912   3.273   5.812 -0.6372 -0.3927 -1.1625
  117OSM    C6F12246   2.927   3.494   5.843  0.4313  0.3074  0.0133
  117OSM    H6F12247   2.949   3.481   5.951 -1.9234  3.3126  0.9894
  117OSM    H6G12248   2.853   3.576   5.847 -1.0059 -0.6305 -3.3166
  117OSM    C7F12249   3.053   3.522   5.764 -0.3931 -0.4628  0.1153
  117OSM    H7F12250   3.106   3.425   5.766 -1.9720 -1.3615 -0.1626
  117OSM    H7G12251   3.110   3.603   5.816 -0.8003 -0.1689  0.1142
  117OSM    C8F12252   3.034   3.580   5.622  0.2157  0.1702  0.3803
  117OSM    H8F12253   2.980   3.677   5.615  2.2817  1.3264 -0.5691
  117OSM    H8G12254   2.968   3.513   5.563 -0.4241  2.4434 -1.6537
  117OSM    C9F12255   3.160   3.593   5.553 -0.0246  0.0317  0.0821
  117OSM    H9F12256   3.247   3.601   5.620  0.8986 -2.8452 -0.5911
  117OSM   C10F12257   3.185   3.567   5.421  0.0474  0.1273 -0.5243
  117OSM   H10F12258   3.279   3.593   5.370  0.4613 -0.2370  0.0438
  117OSM   C11F12259   3.078   3.526   5.313 -0.4883  0.0727  0.0878
  117OSM   H11F12260   3.019   3.609   5.269 -1.7488 -1.0467 -0.3879
  117OSM   H11G12261   3.021   3.440   5.352  1.4582 -1.3389 -0.0092
  117OSM   C12F12262   3.154   3.460   5.187  0.2567 -0.0915  0.1596
  117OSM   H12F12263   3.073   3.415   5.124  0.1650 -1.3081  1.1076
  117OSM   H12G12264   3.208   3.368   5.217  0.2833  0.2197  1.0821
  117OSM   C13F12265   3.255   3.550   5.108  0.2132  0.1929 -0.0274
  117OSM   H13F12266   3.334   3.585   5.177  0.5157 -0.1814 -0.1790
  117OSM   H13G12267   3.210   3.643   5.068  0.5795  0.8993  1.1776
  117OSM   C14F12268   3.319   3.464   4.993 -1.0718  0.3969 -0.5105
  117OSM   H14F12269   3.241   3.396   4.953  0.5636 -1.2173 -1.0794
  117OSM   H14G12270   3.398   3.399   5.037 -0.4395  1.1750 -0.4609
  117OSM   C15F12271   3.383   3.541   4.871  0.1022 -0.0647 -0.3353
  117OSM   H15F12272   3.435   3.468   4.805  1.2221  1.0641 -0.7367
  117OSM   H15G12273   3.457   3.614   4.911 -0.1505 -0.8854  1.8094
  117OSM   C16F12274   3.289   3.613   4.781 -0.5188 -0.5430  0.4316
  117OSM   H16F12275   3.337   3.677   4.703 -0.0692 -0.1444  1.0247
  117OSM   H16G12276   3.223   3.683   4.837  1.3598  0.2722  1.7590
  117OSM   C17F12277   3.208   3.516   4.697 -0.0721 -0.7680  0.0061
  117OSM   H17F12278   3.149   3.442   4.754 -1.3083 -0.4165 -0.7690
  117OSM   H17G12279   3.297   3.469   4.650  1.9660  4.3395 -2.0551
  117OSM   C18F12280   3.127   3.586   4.594 -0.1173  0.2985 -0.1323
  117OSM   H18F12281   3.064   3.666   4.640  0.9297  1.1891 -0.2005
  117OSM   H18G12282   3.058   3.514   4.545  1.4487 -1.8476  0.6450
  117OSM   H18H12283   3.178   3.639   4.511  0.4370 -0.0455 -0.0126
  118OSM      N12284   1.308   2.009   6.966 -0.1310  0.6489 -0.3000
  118OSM    C1512285   1.300   1.881   7.043 -0.7492 -0.3560  0.4985
  118OSM   H15A12286   1.204   1.837   7.020 -0.0573 -0.9436 -1.4790
  118OSM   H15B12287   1.317   1.897   7.149 -2.2157  0.9715  0.5654
  118OSM   H15C12288   1.372   1.815   6.997 -0.6133 -1.0250  1.6173
  118OSM    C1412289   1.206   2.100   7.019 -0.0962 -0.3403  0.2110
  118OSM   H14A12290   1.220   2.136   7.119  0.5258 -0.2104  0.0807
  118OSM   H14B12291   1.110   2.051   7.034 -1.1555  1.7047  0.3840
  118OSM   H14C12292   1.192   2.177   6.945 -1.4089  0.4526  1.2450
  118OSM    C1312293   1.442   2.067   7.010 -0.0672 -0.1076  0.1116
  118OSM   H13A12294   1.524   2.030   6.951 -0.6429 -1.8744  0.3364
  118OSM   H13B12295   1.449   2.040   7.114  1.8730 -0.5877 -0.1113
  118OSM   H13C12296   1.428   2.173   7.004  2.0444  0.1759 -0.7548
  118OSM    C1212297   1.303   1.986   6.811  0.0579 -0.4726 -0.1696
  118OSM   H12A12298   1.283   2.069   6.746 -1.0439 -1.1754 -0.7553
  118OSM   H12B12299   1.226   1.915   6.784  1.2969 -1.4089 -1.3952
  118OSM    C1112300   1.426   1.927   6.748  0.1497  0.5184 -0.6999
  118OSM   H11A12301   1.408   1.896   6.643  2.4092  0.4684 -1.1313
  118OSM   H11B12302   1.457   1.832   6.798  0.6367 -0.7405 -3.2013
  118OSM      P12303   1.559   2.141   6.656  0.1431  0.0705 -0.0504
  118OSM    O1312304   1.494   2.251   6.731 -0.3035 -1.2612  0.2457
  118OSM    O1412305   1.700   2.140   6.614 -0.2631  0.3702  0.6450
  118OSM    O1112306   1.461   2.116   6.537 -0.0687  0.0434 -0.0702
  118OSM    O1212307   1.538   2.012   6.743  0.3567  0.2270  0.5178
  118OSM    C1S12308   1.461   2.207   6.423 -0.4459  0.9118 -0.9283
  118OSM    H1S12309   1.562   2.244   6.395  0.1093 -0.6817 -1.1271
  118OSM    H1T12310   1.404   2.299   6.448 -1.2826  0.4062 -0.9421
  118OSM     NF12311   1.401   2.221   6.188  0.6594  0.6346  0.1410
  118OSM    HNF12312   1.322   2.281   6.180 -1.7434 -2.2874 -0.2331
  118OSM    C2S12313   1.400   2.129   6.302 -0.1408  0.1627  0.1991
  118OSM    H2S12314   1.458   2.039   6.273 -1.8311 -0.9123  0.0017
  118OSM    C3S12315   1.254   2.079   6.335  0.3452 -0.4497 -0.2191
  118OSM    H3S12316   1.208   2.160   6.395 -2.9008 -4.2328  2.9603
  118OSM     O312317   1.243   1.966   6.428  0.2990  0.5703  0.4571
  118OSM    HO312318   1.335   1.946   6.448  0.3606  0.1820 -0.1809
  118OSM    C4S12319   1.157   2.042   6.223  0.3271 -0.9219 -0.6129
  118OSM    H4S12320   1.186   1.948   6.175  0.3442 -2.5296  2.2963
  118OSM    C5S12321   1.041   2.105   6.190  0.2919 -0.0525  0.5118
  118OSM    H5S12322   1.002   2.184   6.254  1.2933 -0.1177  1.2223
  118OSM    C6S12323   0.944   2.071   6.080  0.7095  0.1009 -0.2031
  118OSM    H6S12324   0.890   2.163   6.050 -1.1095 -0.2933  1.6459
  118OSM    H6T12325   0.875   1.995   6.122  0.7705 -0.0383 -0.3508
  118OSM    C7S12326   1.006   2.011   5.958  0.6842 -0.3236  0.3469
  118OSM    H7S12327   1.055   1.918   5.994 -1.0831 -1.4346  0.0263
  118OSM    H7T12328   1.090   2.073   5.918  2.4127 -0.8793  2.8992
  118OSM    C8S12329   0.899   1.969   5.856  0.3842  0.6831 -0.6756
  118OSM    H8S12330   0.839   2.059   5.832 -1.9234 -1.7102 -5.3792
  118OSM    H8T12331   0.838   1.885   5.896  1.5205  0.2022  0.1186
  118OSM    C9S12332   0.954   1.944   5.713  0.9698 -0.9195 -0.2896
  118OSM    H9S12333   1.011   1.849   5.714  0.8572 -0.9852  0.1159
  118OSM    H9T12334   1.019   2.030   5.683 -0.1441  0.3376  0.7768
  118OSM   C10S12335   0.837   1.936   5.613 -0.6747  0.0982 -0.3712
  118OSM   H10S12336   0.760   2.011   5.637  0.3477  2.0462 -2.7314
  118OSM   H10T12337   0.786   1.838   5.628 -3.1484  1.4945  0.9485
  118OSM   C11S12338   0.884   1.930   5.464 -0.1845  0.1598  0.1779
  118OSM   H11S12339   0.961   1.852   5.446  0.6601  1.0314 -0.1021
  118OSM   H11T12340   0.932   2.028   5.442  1.9319 -1.2224 -1.8488
  118OSM   C12S12341   0.770   1.901   5.361 -0.3020 -0.0329 -0.3519
  118OSM   H12S12342   0.691   1.975   5.386  0.3111 -0.6116  4.0278
  118OSM   H12T12343   0.723   1.804   5.388  0.4797 -0.5098 -0.6891
  118OSM   C13S12344   0.831   1.908   5.224  0.1349  0.0322 -0.2757
  118OSM   H13S12345   0.916   1.838   5.212  1.7301  1.6267  1.2167
  118OSM   H13T12346   0.879   2.005   5.200 -1.6107  0.6340 -1.5820
  118OSM   C14S12347   0.720   1.880   5.121 -0.5520 -0.2016  0.1038
  118OSM   H14S12348   0.638   1.952   5.141  1.3780  2.0755  0.3060
  118OSM   H14T12349   0.695   1.774   5.143 -2.5579  0.5140  1.4708
  118OSM   C15S12350   0.776   1.910   4.982 -0.1926  0.1538  0.8300
  118OSM   H15S12351   0.867   1.849   4.966 -0.6110  0.1928 -2.3705
  118OSM   H15T12352   0.791   2.019   4.973 -0.7301  0.1128 -1.0886
  118OSM   C16S12353   0.684   1.858   4.873 -0.0873  0.1028  0.3350
  118OSM   H16S12354   0.590   1.917   4.864 -1.2391 -1.8839 -1.5873
  118OSM   H16T12355   0.652   1.757   4.906 -0.3221 -0.4513 -1.4993
  118OSM   C17S12356   0.761   1.854   4.742 -0.4448 -0.3850 -0.1102
  118OSM   H17S12357   0.860   1.806   4.755 -0.4129  0.2144  2.2760
  118OSM   H17T12358   0.777   1.959   4.707 -1.1808  0.4951  2.0067
  118OSM   C18S12359   0.686   1.782   4.629  0.1779  0.0118 -0.2149
  118OSM   H18S12360   0.745   1.783   4.534 -0.0175  2.1559 -0.3473
  118OSM   H18T12361   0.583   1.820   4.614  0.1646 -0.6935 -2.3809
  118OSM   H18U12362   0.679   1.674   4.654  1.0903 -0.1605 -0.6268
  118OSM    C1F12363   1.505   2.249   6.111  1.2157  0.2361  0.0483
  118OSM     OF12364   1.613   2.195   6.122 -0.3370  0.1969  0.4135
  118OSM    C2F12365   1.475   2.347   6.000  0.8077 -0.5221  0.5148
  118OSM    H2F12366   1.440   2.440   6.049  0.4887  1.1535 -2.6286
  118OSM    H2G12367   1.394   2.310   5.935 -1.2351  1.4905  1.7652
  118OSM    C3F12368   1.605   2.382   5.931  0.0325 -0.3201 -0.1304
  118OSM    H3F12369   1.624   2.307   5.852 -1.6904  0.3129 -1.2062
  118OSM    H3G12370   1.686   2.382   6.007 -1.1957  0.6502  1.2365
  118OSM    C4F12371   1.601   2.524   5.861 -0.3231  1.1012 -0.0254
  118OSM    H4F12372   1.706   2.557   5.854 -0.5603  1.6084 -1.4401
  118OSM    H4G12373   1.545   2.584   5.937  0.3688  0.9132  0.6455
  118OSM    C5F12374   1.534   2.521   5.724 -0.0403 -0.0286 -0.2314
  118OSM    H5F12375   1.500   2.626   5.711 -0.5357  0.1581  2.1418
  118OSM    H5G12376   1.450   2.450   5.741 -1.0607  1.1840 -0.0085
  118OSM    C6F12377   1.611   2.462   5.604  0.1014  0.1144 -0.3549
  118OSM    H6F12378   1.649   2.361   5.632 -1.3423 -0.2267  0.4493
  118OSM    H6G12379   1.706   2.517   5.589  0.0796  0.0436 -0.7629
  118OSM    C7F12380   1.527   2.461   5.475 -0.1291  0.6277 -0.9283
  118OSM    H7F12381   1.544   2.558   5.424 -1.4741  0.3213 -2.0240
  118OSM    H7G12382   1.422   2.457   5.510  0.1434  2.5501  0.2500
  118OSM    C8F12383   1.566   2.354   5.372 -0.3671  0.0152  0.0467
  118OSM    H8F12384   1.567   2.257   5.426  2.6518  0.7208  1.4787
  118OSM    H8G12385   1.671   2.378   5.343 -0.7675  0.5738 -1.0005
  118OSM    C9F12386   1.468   2.354   5.253  0.0448 -0.0681 -0.0796
  118OSM    H9F12387   1.362   2.338   5.280  0.9614 -1.7206  2.9139
  118OSM   C10F12388   1.495   2.391   5.125  0.1181 -0.1214 -0.3397
  118OSM   H10F12389   1.403   2.399   5.064 -0.0034  0.9002 -0.0423
  118OSM   C11F12390   1.633   2.421   5.064  0.1624  0.3224  0.6425
  118OSM   H11F12391   1.710   2.426   5.143  1.3834 -0.5743 -0.4464
  118OSM   H11G12392   1.616   2.519   5.014 -1.2440  1.4686  3.1744
  118OSM   C12F12393   1.660   2.296   4.972  0.3359  1.0114  0.3322
  118OSM   H12F12394   1.643   2.202   5.029 -1.8643 -0.7776 -2.9593
  118OSM   H12G12395   1.769   2.291   4.950 -0.0843  2.0103 -2.2822
  118OSM   C13F12396   1.592   2.289   4.830  0.8864 -0.0373  0.4060
  118OSM   H13F12397   1.484   2.314   4.836  0.8733  0.9259 -2.3547
  118OSM   H13G12398   1.599   2.181   4.803  0.2126 -0.4719  1.8456
  118OSM   C14F12399   1.649   2.392   4.729  0.2982 -0.1925 -0.2508
  118OSM   H14F12400   1.759   2.374   4.724  0.4274  0.1882  0.8486
  118OSM   H14G12401   1.632   2.494   4.769  3.6833  1.0652 -1.6531
  118OSM   C15F12402   1.586   2.389   4.593  0.5537 -0.7367 -0.5315
  118OSM   H15F12403   1.570   2.281   4.571 -0.5681 -1.0516  1.5748
  118OSM   H15G12404   1.654   2.433   4.517 -0.2353  4.5236  1.3767
  118OSM   C16F12405   1.448   2.458   4.575 -0.8496  0.0956  0.0734
  118OSM   H16F12406   1.464   2.559   4.618  1.0640 -0.1162 -0.0817
  118OSM   H16G12407   1.371   2.404   4.635  1.4489 -0.8819  2.2940
  118OSM   C17F12408   1.409   2.483   4.430  0.5017  1.1203  0.0110
  118OSM   H17F12409   1.487   2.539   4.375  1.9353 -1.2289 -0.5103
  118OSM   H17G12410   1.317   2.545   4.432 -0.4173 -0.1537  2.4980
  118OSM   C18F12411   1.386   2.358   4.345  0.3178  0.3174 -0.0752
  118OSM   H18F12412   1.311   2.282   4.378  2.6421 -2.2109 -0.2446
  118OSM   H18G12413   1.477   2.295   4.345 -0.6513 -1.2864 -3.1733
  118OSM   H18H12414   1.356   2.389   4.243  1.3584 -0.6435 -0.6926
  119OSM      N12415   5.020   1.641   6.635 -0.3540 -0.4921 -0.3812
  119OSM    C1512416   4.952   1.740   6.552  0.4715  0.0116  0.0953
  119OSM   H15A12417   4.845   1.727   6.542  0.4630  0.5778 -0.5528
  119OSM   H15B12418   4.993   1.741   6.453  1.2083  0.1125  0.3925
  119OSM   H15C12419   4.972   1.841   6.585 -1.3839  0.6496 -0.6040
  119OSM    C1412420   4.983   1.674   6.775  0.5788 -0.4907  0.3590
  119OSM   H14A12421   5.033   1.613   6.849 -0.2201  0.1991  1.5026
  119OSM   H14B12422   4.877   1.662   6.794  0.5518 -0.4179  0.2576
  119OSM   H14C12423   5.010   1.778   6.793 -0.9215 -0.0535  0.2347
  119OSM    C1312424   4.973   1.503   6.602  0.5712  0.1973  0.2762
  119OSM   H13A12425   5.017   1.432   6.670 -0.0038 -1.1680 -0.7351
  119OSM   H13B12426   4.993   1.476   6.500 -1.1378  0.1519 -0.0786
  119OSM   H13C12427   4.867   1.494   6.619  0.2736 -1.5878 -2.0851
  119OSM    C1212428   5.173   1.651   6.628 -0.8927 -0.1965  0.0056
  119OSM   H12A12429   5.212   1.584   6.703 -2.5716 -0.9834  0.2369
  119OSM   H12B12430   5.195   1.753   6.656  0.3915  0.1124 -1.9237
  119OSM    C1112431   5.247   1.635   6.489 -0.2886  0.3386 -0.2215
  119OSM   H11A12432   5.353   1.666   6.498 -0.4394  0.7700  0.0992
  119OSM   H11B12433   5.195   1.704   6.420 -3.2631 -0.9647  0.5732
  119OSM      P12434   5.319   1.383   6.498 -0.1965 -0.6337  0.1782
  119OSM    O1312435   5.316   1.394   6.645 -0.6656 -0.3595 -0.5362
  119OSM    O1412436   5.270   1.255   6.443  0.5410 -1.1654  0.2036
  119OSM    O1112437   5.464   1.412   6.439  0.2736 -0.0888 -0.1834
  119OSM    O1212438   5.230   1.502   6.439 -0.0275 -0.0899 -0.4496
  119OSM    C1S12439   5.488   1.400   6.303 -0.5533 -0.4447 -0.2382
  119OSM    H1S12440   5.442   1.308   6.260 -0.5581 -1.7124  2.2597
  119OSM    H1T12441   5.595   1.377   6.289 -1.0861 -3.0013 -0.6829
  119OSM     NF12442   5.467   1.490   6.082  0.1475  0.4467  0.1410
  119OSM    HNF12443   5.555   1.510   6.039 -0.1631  1.0289 -0.2388
  119OSM    C2S12444   5.462   1.531   6.218  0.9795 -0.0316 -0.2181
  119OSM    H2S12445   5.355   1.558   6.233  1.0990  0.4862 -0.2774
  119OSM    C3S12446   5.551   1.652   6.266 -0.1668  0.0989 -0.6095
  119OSM    H3S12447   5.655   1.634   6.231 -0.5798 -1.4972 -1.1114
  119OSM     O312448   5.561   1.668   6.408 -0.2158 -0.1771 -0.2142
  119OSM    HO312449   5.543   1.577   6.433 -1.4903 -0.2181 -1.1483
  119OSM    C4S12450   5.510   1.781   6.209 -0.2849 -0.4142 -0.2104
  119OSM    H4S12451   5.539   1.789   6.103  1.8158  1.0277  0.3981
  119OSM    C5S12452   5.427   1.875   6.261 -0.0531  0.3220 -0.6434
  119OSM    H5S12453   5.404   1.865   6.368  1.3661  0.4352 -0.3164
  119OSM    C6S12454   5.386   1.997   6.183 -0.7103 -0.1451 -0.8659
  119OSM    H6S12455   5.482   2.053   6.173 -0.4412 -0.1581  1.2582
  119OSM    H6T12456   5.309   2.052   6.241  0.2889 -0.0073  0.3750
  119OSM    C7S12457   5.334   1.951   6.047  0.3046  0.3546 -0.3345
  119OSM    H7S12458   5.271   1.860   6.058  0.5044  0.3412  0.7956
  119OSM    H7T12459   5.417   1.919   5.980 -0.7597 -1.9934 -0.6291
  119OSM    C8S12460   5.259   2.059   5.973 -0.2708 -0.6476 -0.6966
  119OSM    H8S12461   5.319   2.149   5.947 -1.0364 -0.6284 -2.5099
  119OSM    H8T12462   5.170   2.088   6.033 -1.0620  0.2614 -2.2620
  119OSM    C9S12463   5.208   2.012   5.833  0.1316 -0.5177  0.4859
  119OSM    H9S12464   5.169   2.101   5.780  3.7430  1.1836  0.4670
  119OSM    H9T12465   5.132   1.931   5.847  1.2619 -1.5543  0.7600
  119OSM   C10S12466   5.317   1.960   5.738  0.6018  0.7997 -0.2059
  119OSM   H10S12467   5.356   1.862   5.774  1.2967  1.8223  2.0607
  119OSM   H10T12468   5.407   2.025   5.746  3.1901 -2.1648 -2.4011
  119OSM   C11S12469   5.276   1.954   5.585  0.1026 -0.3714 -0.1078
  119OSM   H11S12470   5.220   2.047   5.563  0.1753  0.1317  1.6786
  119OSM   H11T12471   5.205   1.872   5.561  1.0557 -1.5691  1.0345
  119OSM   C12S12472   5.406   1.942   5.501  0.1274  0.1664 -0.1614
  119OSM   H12S12473   5.457   1.846   5.522  0.4347  0.2582 -0.4777
  119OSM   H12T12474   5.473   2.015   5.551 -0.9938  2.6473 -2.0351
  119OSM   C13S12475   5.377   1.968   5.356 -0.6215 -0.3152  1.3613
  119OSM   H13S12476   5.327   2.065   5.339 -2.1218 -1.0117  1.6072
  119OSM   H13T12477   5.297   1.897   5.326  0.8448 -0.6669 -2.2409
  119OSM   C14S12478   5.487   1.929   5.256  0.6198 -0.3904  0.1141
  119OSM   H14S12479   5.532   1.835   5.295 -1.4909 -2.0891 -1.2794
  119OSM   H14T12480   5.564   2.007   5.265  0.4332 -0.3572  1.7004
  119OSM   C15S12481   5.439   1.914   5.114  0.7356  0.2140  0.2664
  119OSM   H15S12482   5.401   2.010   5.074  1.1702  0.9372  1.5301
  119OSM   H15T12483   5.352   1.844   5.116 -0.1430  1.2464 -0.6839
  119OSM   C16S12484   5.533   1.827   5.025  0.3788  0.0859 -0.5103
  119OSM   H16S12485   5.499   1.818   4.920 -3.4749 -0.3819  0.6116
  119OSM   H16T12486   5.544   1.727   5.072 -0.0204 -0.7167 -2.0791
  119OSM   C17S12487   5.667   1.891   5.007  0.2745  0.1407 -0.2738
  119OSM   H17S12488   5.750   1.823   4.977  0.8577 -0.3488  2.2546
  119OSM   H17T12489   5.683   1.933   5.108 -1.2524 -0.3741  0.2219
  119OSM   C18S12490   5.664   2.009   4.909 -0.0966 -0.4165 -0.1712
  119OSM   H18S12491   5.574   2.072   4.922  1.3359  1.9172 -0.9490
  119OSM   H18T12492   5.671   1.968   4.806  1.4081  0.0521 -0.2926
  119OSM   H18U12493   5.754   2.071   4.932 -0.2067 -0.7966  1.4476
  119OSM    C1F12494   5.373   1.434   6.016  0.2370 -0.0648  0.2642
  119OSM     OF12495   5.260   1.413   6.059  0.0967  0.1026  0.6695
  119OSM    C2F12496   5.402   1.394   5.875  0.3707 -0.5133 -0.0520
  119OSM    H2F12497   5.459   1.299   5.877  1.7822  0.3168  1.4358
  119OSM    H2G12498   5.466   1.477   5.838  0.3675  0.3434  1.7311
  119OSM    C3F12499   5.284   1.378   5.785 -0.0512  0.0214 -0.1704
  119OSM    H3F12500   5.234   1.477   5.773  3.2515  2.0506  1.2608
  119OSM    H3G12501   5.204   1.318   5.834  1.3814 -1.9046 -0.0838
  119OSM    C4F12502   5.324   1.327   5.641 -0.0771 -1.5084 -0.2769
  119OSM    H4F12503   5.222   1.318   5.597  0.2446  1.3251 -1.9211
  119OSM    H4G12504   5.375   1.231   5.659  3.1097  0.7734  5.4666
  119OSM    C5F12505   5.419   1.418   5.565 -0.0795 -0.1160  0.9140
  119OSM    H5F12506   5.526   1.423   5.592  1.2198 -0.1132 -3.4576
  119OSM    H5G12507   5.380   1.522   5.561 -1.7633 -0.7649 -1.5519
  119OSM    C6F12508   5.418   1.383   5.417  0.2559 -0.6241  0.1182
  119OSM    H6F12509   5.310   1.384   5.391  0.0771 -2.4330  0.6345
  119OSM    H6G12510   5.452   1.279   5.398 -0.9589 -1.0606  0.1934
  119OSM    C7F12511   5.502   1.487   5.340 -0.0235  0.4641 -0.3190
  119OSM    H7F12512   5.604   1.495   5.385  1.1139 -0.6942 -2.5159
  119OSM    H7G12513   5.453   1.586   5.347  1.0932  1.2571 -2.6869
  119OSM    C8F12514   5.513   1.450   5.195  0.3676 -0.0881 -0.0397
  119OSM    H8F12515   5.559   1.355   5.159  2.5604  0.8791  0.0480
  119OSM    H8G12516   5.568   1.536   5.151 -0.2777  0.3216 -0.0514
  119OSM    C9F12517   5.374   1.461   5.134 -0.6142 -0.2291 -0.4115
  119OSM    H9F12518   5.332   1.561   5.156 -1.0960 -0.4312 -0.3924
  119OSM   C10F12519   5.307   1.370   5.060  0.1855  0.2850 -0.4796
  119OSM   H10F12520   5.205   1.394   5.028 -0.0901  1.0698  0.9035
  119OSM   C11F12521   5.357   1.234   5.018 -0.2503 -0.2616 -0.6710
  119OSM   H11F12522   5.348   1.159   5.100 -0.0293 -0.8358 -1.1642
  119OSM   H11G12523   5.467   1.236   5.003 -0.1109  1.6907  0.3539
  119OSM   C12F12524   5.296   1.196   4.890  0.2286  0.3559 -0.3854
  119OSM   H12F12525   5.298   1.276   4.813 -0.8517 -0.4674 -1.3204
  119OSM   H12G12526   5.188   1.184   4.914  0.9249  0.7133  3.4221
  119OSM   C13F12527   5.346   1.067   4.827 -0.4635  0.1387 -0.5548
  119OSM   H13F12528   5.452   1.087   4.801 -0.9521  2.6173 -0.9601
  119OSM   H13G12529   5.302   1.047   4.727  1.0167  0.8072 -1.3741
  119OSM   C14F12530   5.326   0.945   4.918  0.8289  0.0875 -0.7707
  119OSM   H14F12531   5.380   0.954   5.015  2.4221 -0.3778 -1.5712
  119OSM   H14G12532   5.357   0.859   4.856 -1.4536  0.7158 -2.9433
  119OSM   C15F12533   5.171   0.915   4.930  0.3817 -0.1527 -0.2907
  119OSM   H15F12534   5.120   0.931   4.832 -2.3221  1.6528  1.2942
  119OSM   H15G12535   5.119   0.994   4.988  2.1529  1.6075 -0.9637
  119OSM   C16F12536   5.131   0.772   4.981 -0.2847  0.2499  0.9366
  119OSM   H16F12537   5.178   0.699   4.912  0.3178 -0.4559  2.0633
  119OSM   H16G12538   5.021   0.768   4.965 -0.5346 -1.5246  2.7419
  119OSM   C17F12539   5.164   0.751   5.130  0.2398 -0.1909  0.0085
  119OSM   H17F12540   5.115   0.818   5.204 -0.1720 -2.2128  1.6928
  119OSM   H17G12541   5.269   0.785   5.132  0.6405 -1.1589 -2.1857
  119OSM   C18F12542   5.154   0.597   5.174 -0.5424 -0.7226  0.7072
  119OSM   H18F12543   5.246   0.539   5.149  0.4163  1.4166 -1.0756
  119OSM   H18G12544   5.064   0.554   5.125  0.4654  0.3237 -2.2978
  119OSM   H18H12545   5.148   0.592   5.285 -3.1279 -1.3523  0.6010
  120OSM      N12546   6.788   4.708   6.664  0.6896  0.0925 -0.1551
  120OSM    C1512547   6.898   4.781   6.737 -0.3745  0.1392  0.1566
  120OSM   H15A12548   6.903   4.885   6.709 -0.1497 -0.2778 -1.4476
  120OSM   H15B12549   6.992   4.732   6.717 -1.4470 -1.1855 -1.9536
  120OSM   H15C12550   6.884   4.776   6.844 -0.0544  0.5288  0.2195
  120OSM    C1412551   6.811   4.561   6.678  0.4757 -0.0184 -0.0667
  120OSM   H14A12552   6.818   4.528   6.781 -0.8767  2.6485  0.9439
  120OSM   H14B12553   6.896   4.526   6.622  0.5648 -2.9062  1.6374
  120OSM   H14C12554   6.729   4.507   6.634  0.2718  0.5371 -0.3682
  120OSM    C1312555   6.657   4.730   6.731  0.4848 -0.3080 -0.2152
  120OSM   H13A12556   6.647   4.663   6.814 -0.4078  0.5197  0.3580
  120OSM   H13B12557   6.582   4.702   6.658 -0.5682  1.2766  0.2106
  120OSM   H13C12558   6.634   4.832   6.758  0.3591  0.5053 -3.0681
  120OSM    C1212559   6.782   4.770   6.524 -0.5778  0.1148 -0.1123
  120OSM   H12A12560   6.886   4.773   6.494 -0.8111 -0.2857 -0.9730
  120OSM   H12B12561   6.758   4.874   6.543 -0.6898  0.3797 -1.6372
  120OSM    C1112562   6.699   4.710   6.414  0.0492 -0.4348 -0.0655
  120OSM   H11A12563   6.767   4.640   6.362 -0.2228 -0.5638 -0.2485
  120OSM   H11B12564   6.677   4.787   6.337 -0.9260 -0.6071  0.0163
  120OSM      P12565   6.433   4.704   6.439  0.1293  0.2841  0.2932
  120OSM    O1312566   6.342   4.597   6.483  0.3400  0.0863 -1.0171
  120OSM    O1412567   6.422   4.835   6.509 -0.0726 -0.2381 -0.2005
  120OSM    O1112568   6.420   4.727   6.279  0.1791 -0.0833 -0.2699
  120OSM    O1212569   6.580   4.642   6.457  0.5404 -0.3662  0.4181
  120OSM    C1S12570   6.446   4.611   6.194 -0.1592 -0.0426 -0.1787
  120OSM    H1S12571   6.440   4.512   6.246  1.2187  0.5825  1.2635
  120OSM    H1T12572   6.550   4.620   6.155 -0.5016 -0.5569 -1.2467
  120OSM     NF12573   6.355   4.505   5.989 -0.5214  0.2831  0.7492
  120OSM    HNF12574   6.391   4.530   5.899 -2.3619 -0.3840 -0.2075
  120OSM    C2S12575   6.340   4.619   6.073  0.1411  0.5529 -0.0354
  120OSM    H2S12576   6.239   4.609   6.119  0.1929 -0.1352 -0.0510
  120OSM    C3S12577   6.344   4.756   5.998 -0.3780  1.0207  0.7123
  120OSM    H3S12578   6.448   4.761   5.961 -0.6156  0.0425 -0.1361
  120OSM     O312579   6.330   4.869   6.075 -0.1638  0.5776 -0.0558
  120OSM    HO312580   6.333   4.839   6.167 -0.6984  0.8072  0.0394
  120OSM    C4S12581   6.252   4.758   5.884  0.3865  0.0176 -0.0290
  120OSM    H4S12582   6.282   4.698   5.797 -2.1595  0.6626 -1.4527
  120OSM    C5S12583   6.121   4.799   5.878 -0.5245  0.9014  0.2453
  120OSM    H5S12584   6.074   4.836   5.970 -2.1052  0.4823 -0.3509
  120OSM    C6S12585   6.028   4.788   5.764 -0.1951  0.3122 -0.2497
  120OSM    H6S12586   5.984   4.890   5.753  1.3134  1.0000 -0.1438
  120OSM    H6T12587   5.945   4.718   5.788 -0.5914  0.2988 -1.6083
  120OSM    C7S12588   6.099   4.740   5.633  1.0568 -0.3151 -0.7904
  120OSM    H7S12589   6.127   4.633   5.639 -0.0056 -0.6024 -0.7246
  120OSM    H7T12590   6.193   4.796   5.613  0.1700  0.4755 -3.1089
  120OSM    C8S12591   6.000   4.749   5.521 -0.2317 -0.4804  0.3141
  120OSM    H8S12592   5.971   4.855   5.505  1.7884 -0.0205 -0.6360
  120OSM    H8T12593   5.906   4.694   5.545 -1.1811  0.4606 -1.0290
  120OSM    C9S12594   6.055   4.701   5.382  0.7255  0.3819  0.2966
  120OSM    H9S12595   6.052   4.590   5.393  2.0908  0.4091  1.2319
  120OSM    H9T12596   6.158   4.739   5.368 -0.1584  2.4437 -1.0186
  120OSM   C10S12597   5.971   4.719   5.256 -0.2161  0.6338  0.2040
  120OSM   H10S12598   5.977   4.829   5.239  0.0104  0.8334  1.4641
  120OSM   H10T12599   5.863   4.698   5.273 -0.6146  0.2218 -2.3404
  120OSM   C11S12600   6.015   4.629   5.140  0.6296  0.2218  0.4496
  120OSM   H11S12601   6.040   4.525   5.169  0.2615 -0.0516 -0.1902
  120OSM   H11T12602   6.113   4.671   5.109  1.1542 -1.9761 -1.1003
  120OSM   C12S12603   5.926   4.616   5.012 -0.4869  0.8373  0.5668
  120OSM   H12S12604   5.900   4.711   4.962 -0.7129 -0.8550 -2.8559
  120OSM   H12T12605   5.839   4.565   5.058 -1.5985  2.9878  0.9503
  120OSM   C13S12606   5.984   4.532   4.893 -0.4152 -0.0997  0.1345
  120OSM   H13S12607   5.890   4.483   4.860 -0.4877  0.2792 -0.2250
  120OSM   H13T12608   6.044   4.456   4.948 -3.4599 -0.8351  2.7551
  120OSM   C14S12609   6.059   4.613   4.785 -0.0242 -0.5319  0.8213
  120OSM   H14S12610   6.142   4.666   4.836 -0.8562  1.2288  0.4103
  120OSM   H14T12611   5.988   4.683   4.739  1.6488  0.0728 -0.9674
  120OSM   C15S12612   6.127   4.531   4.671  0.1194 -0.2747  0.3551
  120OSM   H15S12613   6.188   4.451   4.720  3.6233  2.7056  1.3399
  120OSM   H15T12614   6.197   4.595   4.613  0.8368 -0.0360  1.4520
  120OSM   C16S12615   6.034   4.484   4.566 -0.1619  0.3085  0.3548
  120OSM   H16S12616   5.982   4.572   4.523  1.5984  0.3411 -1.8438
  120OSM   H16T12617   5.958   4.416   4.612  0.7073 -0.8865  0.0800
  120OSM   C17S12618   6.106   4.406   4.444  0.1388 -0.2925 -0.2570
  120OSM   H17S12619   6.128   4.302   4.476  0.1146  0.0149  0.7800
  120OSM   H17T12620   6.199   4.457   4.413 -0.1786  0.9728  0.7855
  120OSM   C18S12621   6.019   4.396   4.317 -0.0951  0.8485 -0.1741
  120OSM   H18S12622   5.931   4.332   4.338  0.4318  0.1000 -0.2146
  120OSM   H18T12623   6.082   4.347   4.239 -1.4353 -0.8587 -0.2329
  120OSM   H18U12624   5.987   4.494   4.276 -0.8365  0.1553 -1.3100
  120OSM    C1F12625   6.323   4.383   6.013 -0.7475  0.6425 -0.6256
  120OSM     OF12626   6.284   4.346   6.130 -0.4518 -0.1121  0.3228
  120OSM    C2F12627   6.357   4.286   5.900  0.2289  0.0976  0.4158
  120OSM    H2F12628   6.393   4.195   5.952  0.1052  0.8046  1.7751
  120OSM    H2G12629   6.442   4.324   5.839 -1.6110  1.1881 -1.6314
  120OSM    C3F12630   6.233   4.259   5.808 -0.0688  0.2454  0.2873
  120OSM    H3F12631   6.151   4.208   5.864 -2.6540  1.7300 -1.8725
  120OSM    H3G12632   6.270   4.194   5.727 -0.8201 -0.2629  0.3364
  120OSM    C4F12633   6.158   4.383   5.749 -0.3661  0.0771  0.0682
  120OSM    H4F12634   6.243   4.434   5.698  0.3470 -0.5570  0.5837
  120OSM    H4G12635   6.124   4.454   5.828  0.4476 -0.6106  1.0808
  120OSM    C5F12636   6.042   4.344   5.648  0.0023 -0.5319 -0.0883
  120OSM    H5F12637   6.027   4.423   5.572  0.3728 -0.5578 -0.1903
  120OSM    H5G12638   5.947   4.327   5.703  1.1226 -0.1963  2.0437
  120OSM    C6F12639   6.058   4.219   5.563  0.6375 -0.1835  0.0725
  120OSM    H6F12640   6.050   4.130   5.628  1.1436  0.1572  0.6127
  120OSM    H6G12641   6.155   4.206   5.510  0.7172  1.2563 -0.1746
  120OSM    C7F12642   5.941   4.208   5.455 -0.1265 -0.2899 -0.1118
  120OSM    H7F12643   5.846   4.251   5.493  0.0959 -0.4677  0.6685
  120OSM    H7G12644   5.925   4.100   5.436 -0.6789 -0.0331 -1.2196
  120OSM    C8F12645   5.962   4.279   5.309 -0.5252 -0.1536 -0.0830
  120OSM    H8F12646   5.992   4.384   5.328 -1.5161  0.3601 -1.2400
  120OSM    H8G12647   5.870   4.250   5.254  1.0032 -1.2411 -2.2372
  120OSM    C9F12648   6.074   4.204   5.242  0.1306  0.0114 -0.3071
  120OSM    H9F12649   6.156   4.181   5.312 -3.2760  0.7975  4.4225
  120OSM   C10F12650   6.078   4.162   5.112  0.1137  0.4468 -0.2167
  120OSM   H10F12651   6.172   4.115   5.078  1.7923  2.9601  0.6710
  120OSM   C11F12652   5.962   4.176   5.017  1.0166  0.4374  0.1653
  120OSM   H11F12653   5.900   4.265   5.038  2.0784  0.7152  2.4379
  120OSM   H11G12654   5.899   4.086   5.030 -0.7546  0.9004 -3.8778
  120OSM   C12F12655   5.995   4.155   4.867 -0.1557  0.9872  0.2588
  120OSM   H12F12656   6.068   4.073   4.852 -0.0415  0.9757  0.8517
  120OSM   H12G12657   6.044   4.251   4.841 -2.1859  1.7906 -0.7870
  120OSM   C13F12658   5.872   4.150   4.772 -0.4633  0.3054  0.3568
  120OSM   H13F12659   5.915   4.175   4.672  2.6042  2.6570  2.0602
  120OSM   H13G12660   5.804   4.236   4.790  1.6949  1.7930  1.9403
  120OSM   C14F12661   5.800   4.015   4.779  0.0253 -0.3658  0.7631
  120OSM   H14F12662   5.754   3.999   4.880  0.3338  0.6302  1.0668
  120OSM   H14G12663   5.870   3.933   4.753  0.3280 -0.8006  2.7654
  120OSM   C15F12664   5.685   4.024   4.678 -0.8585  0.0350 -0.0822
  120OSM   H15F12665   5.713   4.100   4.602 -0.3388  1.1106  1.1399
  120OSM   H15G12666   5.599   4.069   4.734  0.5470  1.4995  0.9882
  120OSM   C16F12667   5.623   3.897   4.610  0.2889 -0.3632  0.9257
  120OSM   H16F12668   5.548   3.852   4.678 -1.4626 -0.2510 -0.8515
  120OSM   H16G12669   5.707   3.825   4.591  1.1574  0.6883  0.6796
  120OSM   C17F12670   5.532   3.919   4.489 -0.8941 -0.2479 -0.1847
  120OSM   H17F12671   5.601   3.960   4.413 -0.5690 -2.4985 -1.1906
  120OSM   H17G12672   5.458   3.996   4.519 -0.6598 -0.0323 -0.1629
  120OSM   C18F12673   5.454   3.793   4.448  0.4285 -0.8780  0.4357
  120OSM   H18F12674   5.405   3.821   4.352 -0.3463 -0.7528  0.8576
  120OSM   H18G12675   5.381   3.766   4.528 -0.6342  1.8409  0.4869
  120OSM   H18H12676   5.533   3.715   4.442  2.8818  1.2930  2.3583
  121OSM      N12677   2.599   6.407   6.377  0.8365 -0.1105  0.2441
  121OSM    C1512678   2.534   6.434   6.507 -0.9538 -0.1809  0.3347
  121OSM   H15A12679   2.442   6.489   6.493  0.0029  1.5330  0.4855
  121OSM   H15B12680   2.601   6.505   6.554  1.8364 -0.9563 -2.1927
  121OSM   H15C12681   2.529   6.348   6.572  0.5856  0.0883  0.8560
  121OSM    C1412682   2.610   6.530   6.294  0.4711 -0.0691 -0.2282
  121OSM   H14A12683   2.643   6.612   6.355  1.7680  0.0432 -1.0509
  121OSM   H14B12684   2.516   6.557   6.247 -2.2309 -1.5060  3.7988
  121OSM   H14C12685   2.680   6.514   6.214 -2.3509  0.2074 -2.9537
  121OSM    C1312686   2.741   6.351   6.400 -0.2042 -0.2236 -0.2499
  121OSM   H13A12687   2.789   6.412   6.475  0.2652 -0.3634 -0.4341
  121OSM   H13B12688   2.804   6.364   6.313  4.0143  0.0446  2.5314
  121OSM   H13C12689   2.744   6.248   6.434  0.0671  0.1945  1.0516
  121OSM    C1212690   2.512   6.300   6.317  0.0270  0.6987  0.0656
  121OSM   H12A12691   2.497   6.236   6.403  0.9590  0.5529  0.1309
  121OSM   H12B12692   2.566   6.236   6.248  1.4410  1.7091  0.1894
  121OSM    C1112693   2.369   6.341   6.263 -0.3225  0.2001  0.4337
  121OSM   H11A12694   2.339   6.258   6.197  1.2513 -0.8694  0.9932
  121OSM   H11B12695   2.385   6.434   6.203 -1.3352  0.0385 -0.1111
  121OSM      P12696   2.180   6.480   6.385  0.3662 -0.3817 -0.0173
  121OSM    O1312697   2.073   6.458   6.481 -0.2859  0.2553  0.0826
  121OSM    O1412698   2.262   6.602   6.406 -0.3902 -0.3944 -0.1630
  121OSM    O1112699   2.116   6.494   6.245 -0.2592 -0.6065 -0.3889
  121OSM    O1212700   2.275   6.358   6.369  0.4438  0.2018 -0.2671
  121OSM    C1S12701   2.040   6.386   6.191 -0.4217 -0.8501  1.1192
  121OSM    H1S12702   1.950   6.374   6.255 -1.4508  0.9735  0.0941
  121OSM    H1T12703   2.102   6.294   6.188  1.0134  0.0101  2.6168
  121OSM     NF12704   1.913   6.313   5.994  0.0810 -0.2435 -0.2679
  121OSM    HNF12705   1.952   6.253   5.924 -0.0775  0.7855 -1.2782
  121OSM    C2S12706   2.002   6.416   6.047 -0.0777 -0.3472 -0.3421
  121OSM    H2S12707   1.936   6.505   6.037 -0.4490 -0.7995 -2.5576
  121OSM    C3S12708   2.122   6.446   5.953  0.2960 -0.3384 -0.3164
  121OSM    H3S12709   2.171   6.346   5.950  2.8721  0.8434 -0.3843
  121OSM     O312710   2.226   6.539   5.997  0.2759  0.1160 -0.0576
  121OSM    HO312711   2.239   6.532   6.092  2.0066 -2.4788 -0.3831
  121OSM    C4S12712   2.062   6.478   5.817  0.2888 -0.9409  0.0138
  121OSM    H4S12713   2.069   6.395   5.746  2.2978  0.0220 -0.9983
  121OSM    C5S12714   2.029   6.602   5.776 -0.1622 -0.3190  0.3426
  121OSM    H5S12715   2.050   6.691   5.838  2.6447 -0.6362  0.0030
  121OSM    C6S12716   1.988   6.649   5.639  0.7264  0.3662  0.5199
  121OSM    H6S12717   2.057   6.729   5.606 -0.8370  0.9109 -1.6527
  121OSM    H6T12718   1.886   6.690   5.653  0.3310 -0.5372  0.3909
  121OSM    C7S12719   1.989   6.542   5.534 -0.3747  1.1101 -0.6778
  121OSM    H7S12720   1.903   6.472   5.539 -1.1852  2.1378  0.2350
  121OSM    H7T12721   2.086   6.488   5.530 -0.1881  1.2242  1.1671
  121OSM    C8S12722   1.973   6.612   5.403 -0.5777 -0.3360  0.4617
  121OSM    H8S12723   2.053   6.687   5.386  0.3431 -1.0138  1.6378
  121OSM    H8T12724   1.870   6.654   5.401 -0.4262  0.0183 -0.8716
  121OSM    C9S12725   1.995   6.524   5.286  0.7718  0.3665  0.4091
  121OSM    H9S12726   1.916   6.446   5.296 -0.6159  1.8571  1.7645
  121OSM    H9T12727   2.087   6.471   5.319  0.2352  0.3273  1.9537
  121OSM   C10S12728   2.004   6.578   5.145  0.3414  0.5861  0.5779
  121OSM   H10S12729   2.093   6.646   5.142  2.7531 -2.3193  0.9963
  121OSM   H10T12730   1.909   6.628   5.117  1.0991  2.0904  0.5591
  121OSM   C11S12731   2.048   6.470   5.047  0.0840 -0.7459  0.1965
  121OSM   H11S12732   1.969   6.392   5.049 -0.8889  0.1380 -1.4209
  121OSM   H11T12733   2.150   6.430   5.066 -0.3413 -2.4266 -0.8811
  121OSM   C12S12734   2.050   6.527   4.900 -0.6997 -0.1965  0.0948
  121OSM   H12S12735   2.052   6.437   4.835  1.0628  1.2853 -2.0391
  121OSM   H12T12736   2.145   6.581   4.884 -1.0408  0.0870 -1.0042
  121OSM   C13S12737   1.931   6.601   4.861  0.1257  0.4785  0.7238
  121OSM   H13S12738   1.941   6.631   4.754  1.2376  2.0655  1.2349
  121OSM   H13T12739   1.932   6.689   4.929  0.4792  0.8816  0.2012
  121OSM   C14S12740   1.790   6.542   4.887 -0.4874 -0.6389 -0.3272
  121OSM   H14S12741   1.795   6.485   4.982  0.1290  1.7922  1.2020
  121OSM   H14T12742   1.771   6.477   4.799 -1.6783 -0.1982 -0.4241
  121OSM   C15S12743   1.682   6.652   4.904  0.0279 -0.1194  1.0365
  121OSM   H15S12744   1.722   6.741   4.958 -0.5587  2.3753 -2.3010
  121OSM   H15T12745   1.595   6.617   4.964  0.0858 -1.3839  0.3928
  121OSM   C16S12746   1.624   6.704   4.764 -0.3008  0.2851  0.0499
  121OSM   H16S12747   1.564   6.622   4.719 -1.1579  0.8014  0.2269
  121OSM   H16T12748   1.705   6.733   4.694 -0.4806  1.0076  0.1310
  121OSM   C17S12749   1.527   6.823   4.788 -0.4114  0.2692  0.8501
  121OSM   H17S12750   1.545   6.899   4.709 -0.6001  0.6288  1.1472
  121OSM   H17T12751   1.571   6.881   4.872  2.7611  1.8594 -1.6788
  121OSM   C18S12752   1.379   6.788   4.815 -0.2789  0.1015  0.2089
  121OSM   H18S12753   1.332   6.730   4.733  0.9781 -0.8077  0.0906
  121OSM   H18T12754   1.331   6.884   4.842 -0.0249 -0.3085  2.2744
  121OSM   H18U12755   1.370   6.720   4.903  0.7391 -1.8106 -1.0741
  121OSM    C1F12756   1.786   6.296   6.037  0.3184 -0.1558 -0.6068
  121OSM     OF12757   1.745   6.352   6.141  0.4703  0.2980  0.4203
  121OSM    C2F12758   1.698   6.212   5.965 -0.1890  0.6649  0.1255
  121OSM    H2F12759   1.664   6.129   6.029 -0.1023 -0.5135 -1.3006
  121OSM    H2G12760   1.748   6.159   5.881  0.4419 -0.5135  1.2217
  121OSM    C3F12761   1.575   6.292   5.917  0.0926  0.1207 -0.1561
  121OSM    H3F12762   1.521   6.339   6.001 -1.4159 -3.8653  1.3188
  121OSM    H3G12763   1.497   6.228   5.872 -1.8299  1.6086  0.9060
  121OSM    C4F12764   1.603   6.402   5.810  0.2882  0.1714 -0.0076
  121OSM    H4F12765   1.687   6.472   5.824  0.2827  0.4172 -1.1159
  121OSM    H4G12766   1.507   6.458   5.813  1.3037  2.0201  3.5949
  121OSM    C5F12767   1.621   6.336   5.671 -0.6592  0.6241 -0.2420
  121OSM    H5F12768   1.548   6.255   5.651  2.2933 -2.3433  0.2391
  121OSM    H5G12769   1.725   6.297   5.667 -0.6825  0.4581  0.5756
  121OSM    C6F12770   1.618   6.442   5.553 -0.0302 -0.5281  0.6298
  121OSM    H6F12771   1.712   6.500   5.563  0.8431 -1.4948 -1.4687
  121OSM    H6G12772   1.533   6.514   5.562 -0.4903 -0.6781 -1.9209
  121OSM    C7F12773   1.621   6.379   5.412  0.7998  0.2956 -0.4641
  121OSM    H7F12774   1.527   6.320   5.416  0.7573  0.2290 -1.8961
  121OSM    H7G12775   1.707   6.311   5.400  0.1360 -0.5851 -0.3762
  121OSM    C8F12776   1.620   6.476   5.289 -0.0105  0.5997 -0.1066
  121OSM    H8F12777   1.713   6.536   5.274  1.3702 -1.6779 -1.2008
  121OSM    H8G12778   1.528   6.536   5.309  0.4344  0.6122  2.1389
  121OSM    C9F12779   1.597   6.386   5.165  0.2172  0.3410 -0.2191
  121OSM    H9F12780   1.682   6.324   5.131 -0.0277  0.5704 -1.2774
  121OSM   C10F12781   1.491   6.389   5.083 -0.4559 -0.7516 -0.4365
  121OSM   H10F12782   1.490   6.308   5.008 -1.5730 -1.1885  0.0350
  121OSM   C11F12783   1.364   6.474   5.083  0.2154 -0.2763 -0.4103
  121OSM   H11F12784   1.321   6.467   4.981  1.8453  0.9183 -1.2314
  121OSM   H11G12785   1.391   6.579   5.106 -1.1243  0.1624 -0.7472
  121OSM   C12F12786   1.250   6.421   5.169  0.2418  0.6603  0.6380
  121OSM   H12F12787   1.283   6.402   5.274 -2.3653  1.0688  1.6056
  121OSM   H12G12788   1.211   6.330   5.119 -0.0034 -0.6314  3.0081
  121OSM   C13F12789   1.134   6.517   5.183  0.9489  0.2569 -0.8110
  121OSM   H13F12790   1.062   6.515   5.098  1.2915  1.3617 -1.1576
  121OSM   H13G12791   1.174   6.621   5.175  0.5671  0.3852 -1.0496
  121OSM   C14F12792   1.058   6.501   5.319 -0.8264  0.3258 -0.1991
  121OSM   H14F12793   1.122   6.544   5.399  0.6153 -0.6893 -0.7643
  121OSM   H14G12794   1.041   6.393   5.337  0.5609  0.1099 -0.0508
  121OSM   C15F12795   0.925   6.571   5.322  0.8953  0.8272  0.2427
  121OSM   H15F12796   0.881   6.545   5.420 -1.7063 -2.7418 -1.6545
  121OSM   H15G12797   0.863   6.521   5.245  1.0097  1.3762 -0.2103
  121OSM   C16F12798   0.923   6.723   5.303 -0.5477  0.0220  0.0853
  121OSM   H16F12799   0.829   6.751   5.354  1.2050 -0.1055  3.6973
  121OSM   H16G12800   0.924   6.744   5.194 -1.9618 -0.9629 -0.1370
  121OSM   C17F12801   1.027   6.800   5.388  0.3139 -0.1100  0.1364
  121OSM   H17F12802   1.129   6.776   5.353  0.4798  0.0191  0.5291
  121OSM   H17G12803   1.024   6.753   5.488  0.8587 -1.4920 -0.4726
  121OSM   C18F12804   1.021   6.958   5.392  0.5870  0.3942  0.0829
  121OSM   H18F12805   1.098   7.009   5.453  0.2634 -0.1067  0.9209
  121OSM   H18G12806   0.925   6.989   5.438  0.1715 -2.0340  0.9974
  121OSM   H18H12807   1.018   6.998   5.288 -4.4546 -0.5954 -0.4121
  122OSM      N12808   0.878   5.044   6.043 -0.1376  0.1150  0.4272
  122OSM    C1512809   0.863   5.091   5.902 -0.4307 -0.3117  0.6685
  122OSM   H15A12810   0.825   5.192   5.901 -0.1132 -0.1633 -1.5767
  122OSM   H15B12811   0.802   5.026   5.841  0.8777  0.0434 -1.0945
  122OSM   H15C12812   0.956   5.102   5.848 -0.3145 -2.0042  0.4551
  122OSM    C1412813   0.988   5.130   6.108 -0.4123 -0.7660  0.0249
  122OSM   H14A12814   1.066   5.140   6.033 -0.7266 -0.5993 -0.2804
  122OSM   H14B12815   1.020   5.101   6.207  1.9024  2.5608  0.4401
  122OSM   H14C12816   0.948   5.228   6.130 -0.3319 -0.7546  0.1209
  122OSM    C1312817   0.752   5.066   6.115 -0.3890  0.0305  0.3218
  122OSM   H13A12818   0.741   5.168   6.149 -0.0854 -0.0417  0.6412
  122OSM   H13B12819   0.725   4.991   6.188 -0.7397 -0.6305 -0.4705
  122OSM   H13C12820   0.675   5.058   6.040  0.5550  1.8379 -0.9142
  122OSM    C1212821   0.915   4.901   6.037 -1.3523  0.3144 -0.0722
  122OSM   H12A12822   1.001   4.883   5.975 -0.3462  0.1040  1.3409
  122OSM   H12B12823   0.833   4.840   6.004 -0.2650 -1.3897  0.2569
  122OSM    C1112824   0.935   4.831   6.182  0.9522 -0.3093  0.1776
  122OSM   H11A12825   0.990   4.902   6.247  0.0580  0.3981  0.1858
  122OSM   H11B12826   1.003   4.744   6.187 -2.1491 -3.0396 -1.3575
  122OSM      P12827   0.730   4.674   6.234  0.0855  0.1659  0.1122
  122OSM    O1312828   0.816   4.567   6.285 -0.3955 -0.3449 -0.0936
  122OSM    O1412829   0.589   4.696   6.285  0.3193  0.6423 -0.1594
  122OSM    O1112830   0.714   4.661   6.078 -0.0171  0.5726 -0.0974
  122OSM    O1212831   0.806   4.806   6.245 -0.5199 -0.1292  0.2605
  122OSM    C1S12832   0.805   4.579   6.002 -0.6599 -0.0720 -0.3902
  122OSM    H1S12833   0.818   4.486   6.062 -2.4898  0.7676  1.4561
  122OSM    H1T12834   0.909   4.615   5.990 -0.6043 -0.1522 -0.1568
  122OSM     NF12835   0.871   4.459   5.795 -0.0184 -0.3171  0.0561
  122OSM    HNF12836   0.919   4.509   5.723 -0.2930 -0.7275 -0.4176
  122OSM    C2S12837   0.759   4.525   5.861  0.0544 -0.1313  0.2327
  122OSM    H2S12838   0.681   4.447   5.878 -1.6582  0.8397 -2.4333
  122OSM    C3S12839   0.687   4.644   5.786  0.6897  0.0005  0.7742
  122OSM    H3S12840   0.760   4.728   5.782  0.2879  0.3276 -2.5847
  122OSM     O312841   0.578   4.694   5.859 -0.1890 -0.3681  0.3508
  122OSM    HO312842   0.591   4.659   5.947  0.6280  1.5223  1.0290
  122OSM    C4S12843   0.648   4.619   5.644  0.2686  0.2505 -0.1086
  122OSM    H4S12844   0.719   4.659   5.570  0.6893  1.4257  0.9029
  122OSM    C5S12845   0.537   4.573   5.600 -0.1047  0.2457 -0.3077
  122OSM    H5S12846   0.454   4.557   5.671  1.4969 -2.3780  1.1282
  122OSM    C6S12847   0.484   4.553   5.457 -0.7519 -0.1748  0.3154
  122OSM    H6S12848   0.392   4.614   5.445 -0.9756 -0.4200  0.7407
  122OSM    H6T12849   0.457   4.446   5.445 -2.9115 -0.0976  3.2730
  122OSM    C7S12850   0.581   4.590   5.348 -0.0458  0.1433 -0.1007
  122OSM    H7S12851   0.680   4.539   5.350  0.2980  0.7998  2.1023
  122OSM    H7T12852   0.620   4.692   5.366  0.7258 -0.4178  1.7139
  122OSM    C8S12853   0.524   4.569   5.209  0.3351 -0.6903  0.1627
  122OSM    H8S12854   0.441   4.642   5.202 -0.6166 -1.6849  0.6463
  122OSM    H8T12855   0.476   4.471   5.187  0.9981 -0.5785 -2.0581
  122OSM    C9S12856   0.634   4.609   5.104  1.0817  0.5511 -0.0875
  122OSM    H9S12857   0.589   4.576   5.007 -2.2110 -2.2354  2.1286
  122OSM    H9T12858   0.707   4.527   5.115 -0.0227 -0.2519  1.7594
  122OSM   C10S12859   0.677   4.748   5.102  0.0925 -0.1861  0.3063
  122OSM   H10S12860   0.742   4.765   5.191  0.3466 -0.4467  0.1768
  122OSM   H10T12861   0.584   4.807   5.101  0.7223  0.8298  0.4578
  122OSM   C11S12862   0.751   4.772   4.967  0.2726  0.4665  0.2647
  122OSM   H11S12863   0.682   4.746   4.884  1.1490 -0.9793 -0.0500
  122OSM   H11T12864   0.841   4.709   4.953 -0.5015 -0.5400 -0.2631
  122OSM   C12S12865   0.786   4.916   4.943  0.6068  0.6046 -0.1547
  122OSM   H12S12866   0.842   4.948   5.034  2.4913  0.2308 -1.1295
  122OSM   H12T12867   0.688   4.966   4.931 -0.0225 -0.3853  0.7420
  122OSM   C13S12868   0.858   4.951   4.813 -0.4594  0.1339  0.4320
  122OSM   H13S12869   0.944   4.880   4.807  0.6671  1.5277 -3.5718
  122OSM   H13T12870   0.906   5.051   4.812  1.9648 -0.8445 -3.0127
  122OSM   C14S12871   0.769   4.949   4.694  0.7555  0.4305  0.1309
  122OSM   H14S12872   0.703   5.037   4.699  1.2959  0.8442  0.0482
  122OSM   H14T12873   0.705   4.858   4.696  1.1843  0.0778 -1.1756
  122OSM   C15S12874   0.852   4.954   4.567  0.1479 -0.8848  0.2435
  122OSM   H15S12875   0.833   4.867   4.500 -0.9707 -1.5744  1.4351
  122OSM   H15T12876   0.957   4.953   4.603  0.3895  0.9652 -0.2823
  122OSM   C16S12877   0.831   5.077   4.480  0.1710 -0.4864 -0.2926
  122OSM   H16S12878   0.917   5.101   4.414  1.5676  0.2905  1.6954
  122OSM   H16T12879   0.825   5.166   4.546 -0.6089 -1.2922  0.7587
  122OSM   C17S12880   0.698   5.072   4.401 -0.5816  0.2183  0.3805
  122OSM   H17S12881   0.620   5.074   4.480  0.3731 -0.9256  1.3892
  122OSM   H17T12882   0.690   4.982   4.336 -0.2955  2.1514 -2.5121
  122OSM   C18S12883   0.681   5.201   4.317  0.7003 -0.5356  0.2857
  122OSM   H18S12884   0.680   5.291   4.383 -1.2695  0.5702 -1.1426
  122OSM   H18T12885   0.581   5.190   4.271  0.0134  0.6733  1.4288
  122OSM   H18U12886   0.756   5.206   4.236 -0.4800 -0.9611 -0.8662
  122OSM    C1F12887   0.924   4.343   5.841 -0.3480 -0.1527 -0.3270
  122OSM     OF12888   0.863   4.281   5.931 -0.4994  0.5123 -0.3832
  122OSM    C2F12889   1.044   4.284   5.766 -0.0978 -0.4400  0.4339
  122OSM    H2F12890   1.107   4.374   5.756 -0.2565 -0.2843  0.8378
  122OSM    H2G12891   1.010   4.245   5.667  0.2837 -0.8553  0.4654
  122OSM    C3F12892   1.104   4.163   5.845 -0.4841  0.5970  0.1718
  122OSM    H3F12893   1.025   4.109   5.900 -1.6634  0.7994 -1.2462
  122OSM    H3G12894   1.177   4.200   5.921  1.2512 -1.6752 -0.2950
  122OSM    C4F12895   1.179   4.064   5.752  0.2268  0.7202 -0.1547
  122OSM    H4F12896   1.096   4.023   5.691  0.1737  0.2770  0.2101
  122OSM    H4G12897   1.230   3.990   5.817 -0.7975  0.6462  0.5880
  122OSM    C5F12898   1.280   4.134   5.655 -0.1366  0.2146 -0.1728
  122OSM    H5F12899   1.307   4.233   5.698 -1.6421  0.3222  0.5925
  122OSM    H5G12900   1.236   4.147   5.554  1.2444  0.4416 -0.7752
  122OSM    C6F12901   1.389   4.043   5.607 -0.1064  0.4663  0.0511
  122OSM    H6F12902   1.434   4.009   5.703 -1.0364 -0.9563  0.0070
  122OSM    H6G12903   1.469   4.092   5.547  1.6959 -3.0452 -0.7195
  122OSM    C7F12904   1.352   3.907   5.540  0.3410 -0.2458 -0.6805
  122OSM    H7F12905   1.271   3.876   5.609  0.7065  1.1737  0.4295
  122OSM    H7G12906   1.427   3.826   5.541  0.3010 -0.2899  0.9940
  122OSM    C8F12907   1.291   3.919   5.395  0.3208 -0.4341 -0.4753
  122OSM    H8F12908   1.374   3.959   5.334  1.6745 -2.0991  0.2010
  122OSM    H8G12909   1.208   3.991   5.414  1.1137  0.0675  1.3903
  122OSM    C9F12910   1.237   3.795   5.331  0.2050  0.0726  0.7719
  122OSM    H9F12911   1.203   3.708   5.390 -2.2709  0.0125 -0.5961
  122OSM   C10F12912   1.239   3.783   5.196 -0.1276  0.1561  0.1810
  122OSM   H10F12913   1.191   3.692   5.157  1.8703 -1.9811  2.3526
  122OSM   C11F12914   1.296   3.882   5.098 -0.1818  0.6328  0.1796
  122OSM   H11F12915   1.356   3.957   5.153  0.6294  0.0619  0.0868
  122OSM   H11G12916   1.215   3.935   5.043  0.3426  1.4509  0.1870
  122OSM   C12F12917   1.391   3.812   5.000 -0.1235  0.0219 -0.0292
  122OSM   H12F12918   1.341   3.729   4.946  1.7868 -1.2425  0.0587
  122OSM   H12G12919   1.457   3.761   5.073 -1.4815  0.4620  1.5735
  122OSM   C13F12920   1.464   3.909   4.907  0.4955  0.0099  0.1487
  122OSM   H13F12921   1.498   3.994   4.970  1.1577 -0.5832  0.6105
  122OSM   H13G12922   1.391   3.946   4.831 -0.6237  0.0062  1.1937
  122OSM   C14F12923   1.583   3.844   4.837 -0.2070 -0.0106 -0.1396
  122OSM   H14F12924   1.546   3.756   4.782  3.2679  0.0216 -2.8994
  122OSM   H14G12925   1.657   3.832   4.919 -1.1237 -0.3055  0.6649
  122OSM   C15F12926   1.656   3.947   4.751 -0.0497  0.0272  0.2937
  122OSM   H15F12927   1.676   4.037   4.813 -0.5218  1.6401 -1.7857
  122OSM   H15G12928   1.577   3.992   4.687 -1.0096 -0.3273  1.1979
  122OSM   C16F12929   1.785   3.888   4.685 -0.1417  0.1662  0.4463
  122OSM   H16F12930   1.754   3.813   4.609 -0.4906  0.9261 -0.1840
  122OSM   H16G12931   1.835   3.836   4.770  4.4346  2.2060 -0.6927
  122OSM   C17F12932   1.875   3.986   4.623 -0.4644  0.3172 -0.0041
  122OSM   H17F12933   1.972   3.935   4.605 -0.6981  0.2898 -1.2972
  122OSM   H17G12934   1.894   4.076   4.686 -1.6746  1.1488 -0.7864
  122OSM   C18F12935   1.829   4.056   4.494  0.5957 -0.3512  0.2242
  122OSM   H18F12936   1.908   4.120   4.450 -2.3702  2.1886 -1.8829
  122OSM   H18G12937   1.746   4.126   4.519 -0.3548 -1.4984  0.3667
  122OSM   H18H12938   1.792   3.991   4.411 -2.5898  3.6088 -1.8355
  123OSM      N12939   3.180   4.321   2.027  0.3039  0.0255  0.4833
  123OSM    C1512940   3.036   4.269   2.045  0.6585  0.3423 -0.7963
  123OSM   H15A12941   2.972   4.343   2.091 -0.3749 -0.4954 -0.8282
  123OSM   H15B12942   3.035   4.181   2.108 -2.5143  1.6078  1.1689
  123OSM   H15C12943   2.990   4.237   1.952  0.1827  1.2264 -0.8754
  123OSM    C1412944   3.264   4.221   1.954  0.4699 -0.0841  0.1990
  123OSM   H14A12945   3.363   4.251   1.923  0.0137  0.8790 -0.3797
  123OSM   H14B12946   3.210   4.192   1.865 -1.0571  1.1476  0.6883
  123OSM   H14C12947   3.285   4.135   2.016  2.0400  0.6181  0.7026
  123OSM    C1312948   3.158   4.453   1.954  0.1065  0.0495  0.2009
  123OSM   H13A12949   3.111   4.435   1.858 -1.2659 -0.3608  0.9261
  123OSM   H13B12950   3.252   4.500   1.927 -2.1165  3.5851 -2.3349
  123OSM   H13C12951   3.109   4.528   2.013  2.0849  1.3576  0.2877
  123OSM    C1212952   3.257   4.350   2.155 -0.1480  0.1043  0.8096
  123OSM   H12A12953   3.202   4.426   2.209 -0.9045  0.5511 -0.5613
  123OSM   H12B12954   3.355   4.384   2.126  0.4787 -2.0181  0.2512
  123OSM    C1112955   3.269   4.231   2.252  0.0406 -0.2927 -0.9122
  123OSM   H11A12956   3.178   4.167   2.255  0.4412 -0.9616 -2.2170
  123OSM   H11B12957   3.289   4.267   2.355  0.9762  0.3003 -1.2907
  123OSM      P12958   3.521   4.156   2.219  0.2989 -0.1292  0.1434
  123OSM    O1312959   3.585   4.021   2.205 -0.4765 -0.0935 -0.0724
  123OSM    O1412960   3.576   4.259   2.124  0.3685 -0.9695  0.5833
  123OSM    O1112961   3.533   4.206   2.366  0.6495  0.1826  0.6878
  123OSM    O1212962   3.367   4.138   2.218 -0.0812  0.8380 -0.7040
  123OSM    C1S12963   3.655   4.162   2.438  0.5343 -0.0025 -0.5541
  123OSM    H1S12964   3.741   4.208   2.385 -0.0683  1.0588 -0.6433
  123OSM    H1T12965   3.658   4.052   2.453  1.9472 -0.0619 -1.1500
  123OSM     NF12966   3.770   4.176   2.644 -0.1273 -0.1881 -0.0392
  123OSM    HNF12967   3.751   4.101   2.708 -0.2598  1.6381  2.1910
  123OSM    C2S12968   3.653   4.223   2.577  0.1630  0.3955 -0.6888
  123OSM    H2S12969   3.659   4.334   2.571 -3.1841  0.7769  0.9570
  123OSM    C3S12970   3.522   4.205   2.664 -0.1905  0.2044 -0.2789
  123OSM    H3S12971   3.515   4.100   2.701 -0.8294  0.8768  1.6165
  123OSM     O312972   3.405   4.236   2.595 -0.1262  0.0558  0.0214
  123OSM    HO312973   3.442   4.250   2.507  0.7497 -0.1885  0.3400
  123OSM    C4S12974   3.526   4.301   2.778  0.6176 -0.1834  0.0949
  123OSM    H4S12975   3.521   4.408   2.750  0.5733 -0.0405  0.6533
  123OSM    C5S12976   3.539   4.258   2.907 -0.2686  0.3788  1.2011
  123OSM    H5S12977   3.541   4.150   2.925 -0.3674  0.3425  0.9970
  123OSM    C6S12978   3.519   4.348   3.026  0.8555 -0.2643 -0.1992
  123OSM    H6S12979   3.479   4.448   3.000 -0.5879 -0.5463  0.8559
  123OSM    H6T12980   3.617   4.354   3.078 -0.9300 -1.1355  3.6354
  123OSM    C7S12981   3.423   4.302   3.142  0.7291 -0.0721  0.2243
  123OSM    H7S12982   3.468   4.209   3.183  2.2822  1.0125  1.1066
  123OSM    H7T12983   3.318   4.282   3.112  0.2016 -0.5235  2.2575
  123OSM    C8S12984   3.431   4.407   3.259  0.3227  0.0649 -0.2953
  123OSM    H8S12985   3.378   4.498   3.224  1.0721 -0.3831 -2.7715
  123OSM    H8T12986   3.540   4.423   3.272  0.7375 -2.1057 -0.7083
  123OSM    C9S12987   3.383   4.353   3.393  0.1143  0.6838 -0.6196
  123OSM    H9S12988   3.426   4.417   3.473  0.8317 -0.9915  0.3797
  123OSM    H9T12989   3.409   4.248   3.418 -3.7518 -0.2006  0.3380
  123OSM   C10S12990   3.227   4.371   3.402 -0.1876 -0.7066 -0.0701
  123OSM   H10S12991   3.181   4.292   3.339  0.0330 -0.3799 -0.6468
  123OSM   H10T12992   3.199   4.478   3.385 -0.6990  0.0592  4.2917
  123OSM   C11S12993   3.180   4.341   3.542  0.0958  0.0923  0.1725
  123OSM   H11S12994   3.198   4.235   3.569 -0.2781 -0.4410 -1.5068
  123OSM   H11T12995   3.070   4.358   3.550 -0.4907 -3.0816  0.2493
  123OSM   C12S12996   3.245   4.423   3.656  0.4223  0.2674  0.1630
  123OSM   H12S12997   3.203   4.526   3.656 -3.7197 -1.1174 -3.0037
  123OSM   H12T12998   3.355   4.408   3.654  0.4047  0.1779 -0.9800
  123OSM   C13S12999   3.209   4.367   3.788  0.1335  0.1576 -0.6185
  123OSM   H13S13000   3.274   4.412   3.865 -1.1184 -0.5577  0.9151
  123OSM   H13T13001   3.218   4.256   3.795  1.3105  0.3663  1.9795
  123OSM   C14S13002   3.063   4.389   3.838  0.2488 -0.0403  0.4197
  123OSM   H14S13003   2.987   4.340   3.773  0.2080  1.2590 -0.5521
  123OSM   H14T13004   3.042   4.498   3.845  0.0381  0.3760 -3.9878
  123OSM   C15S13005   3.039   4.339   3.984  0.2758 -0.6481  1.3212
  123OSM   H15S13006   3.082   4.238   3.998  0.6807 -0.7774 -0.6358
  123OSM   H15T13007   2.928   4.334   3.981  0.3267 -1.5704 -0.4253
  123OSM   C16S13008   3.092   4.429   4.088 -0.7731  0.0212 -0.1051
  123OSM   H16S13009   3.042   4.528   4.077  0.1070  0.4014 -0.7596
  123OSM   H16T13010   3.199   4.455   4.078 -1.0121  0.7503 -0.8960
  123OSM   C17S13011   3.067   4.391   4.240  0.4017 -0.6684  0.5778
  123OSM   H17S13012   3.134   4.456   4.299  0.1075 -2.5190  3.1014
  123OSM   H17T13013   3.107   4.289   4.259  1.4117  0.0329  2.4388
  123OSM   C18S13014   2.922   4.403   4.296 -0.2542 -0.0619 -0.1655
  123OSM   H18S13015   2.856   4.341   4.232 -1.0540  0.7889 -0.1931
  123OSM   H18T13016   2.888   4.509   4.290  2.3190  1.0125  1.9089
  123OSM   H18U13017   2.916   4.377   4.404  0.2312  0.3013 -0.0469
  123OSM    C1F13018   3.898   4.208   2.614 -0.0819 -0.0603  0.0612
  123OSM     OF13019   3.926   4.303   2.533 -0.3158  0.3942 -0.7218
  123OSM    C2F13020   4.016   4.129   2.670 -0.0219  0.0080 -0.2430
  123OSM    H2F13021   4.096   4.133   2.594  2.2422  0.4491  2.0496
  123OSM    H2G13022   3.977   4.025   2.678 -0.6663  0.2710  0.2034
  123OSM    C3F13023   4.050   4.175   2.816  0.3765  0.2325  0.3308
  123OSM    H3F13024   4.071   4.284   2.809  0.1424  0.1840 -1.6942
  123OSM    H3G13025   4.137   4.112   2.844 -1.1658 -2.3417 -0.2684
  123OSM    C4F13026   3.935   4.156   2.917  0.0174  0.2982 -0.2350
  123OSM    H4F13027   3.876   4.064   2.900  1.0846 -0.7923  1.6202
  123OSM    H4G13028   3.873   4.247   2.906  0.4597  0.7470  0.8346
  123OSM    C5F13029   3.977   4.163   3.066 -0.8028  0.2592 -0.4783
  123OSM    H5F13030   4.050   4.245   3.081 -0.3339 -0.3098  0.4460
  123OSM    H5G13031   4.021   4.064   3.090 -2.3668 -0.3809 -0.0840
  123OSM    C6F13032   3.858   4.196   3.157 -0.7259 -0.2768 -0.1557
  123OSM    H6F13033   3.791   4.108   3.144 -0.8280 -0.2500  0.1607
  123OSM    H6G13034   3.806   4.283   3.112 -0.3498 -0.2706 -0.5812
  123OSM    C7F13035   3.885   4.215   3.305  0.4631 -0.1052  0.8147
  123OSM    H7F13036   3.786   4.218   3.355  0.4136 -1.0511  0.7773
  123OSM    H7G13037   3.929   4.316   3.325  3.1314 -1.3854  1.8871
  123OSM    C8F13038   3.984   4.123   3.375 -0.2608 -0.6056  0.0721
  123OSM    H8F13039   3.999   4.160   3.478  1.8567  1.8894 -1.0303
  123OSM    H8G13040   4.085   4.136   3.330  0.1239 -2.8559  0.1708
  123OSM    C9F13041   3.953   3.969   3.377 -0.1816 -0.0112  0.1468
  123OSM    H9F13042   3.932   3.930   3.276  0.9726  0.3807 -0.2556
  123OSM   C10F13043   3.942   3.889   3.486 -0.2183  0.8308  0.1610
  123OSM   H10F13044   3.906   3.786   3.472  0.4356  0.5608  0.4076
  123OSM   C11F13045   3.968   3.920   3.631  0.1900 -0.3801 -0.0530
  123OSM   H11F13046   3.917   3.835   3.681 -0.4078  0.9955  1.7981
  123OSM   H11G13047   3.912   4.007   3.672 -1.0340 -1.4619  0.6479
  123OSM   C12F13048   4.113   3.921   3.675 -0.3463 -0.0260  0.1419
  123OSM   H12F13049   4.177   4.007   3.648 -1.5349  1.4013  1.5822
  123OSM   H12G13050   4.172   3.838   3.632  0.0444 -0.5648  1.6328
  123OSM   C13F13051   4.135   3.909   3.829 -0.0923 -0.0851  0.9940
  123OSM   H13F13052   4.246   3.900   3.833  0.0857  1.7086  1.0779
  123OSM   H13G13053   4.091   3.819   3.875 -0.0383 -0.1143  0.9893
  123OSM   C14F13054   4.098   4.043   3.898  0.7296  0.5284  0.0557
  123OSM   H14F13055   3.995   4.076   3.870  0.3221 -2.3087 -2.3249
  123OSM   H14G13056   4.168   4.120   3.859 -0.7505  1.7655 -0.2862
  123OSM   C15F13057   4.119   4.037   4.048 -0.1509 -0.4844  0.2196
  123OSM   H15F13058   4.220   3.992   4.061  0.7581  1.4144  0.0588
  123OSM   H15G13059   4.048   3.958   4.080 -0.5325  0.5295  2.0211
  123OSM   C16F13060   4.099   4.171   4.121 -0.3754  0.3286  0.3572
  123OSM   H16F13061   4.016   4.235   4.083 -0.7863 -0.8388 -0.7868
  123OSM   H16G13062   4.193   4.227   4.100 -0.2002 -0.6732 -1.8557
  123OSM   C17F13063   4.081   4.129   4.273  0.1799  0.1867  0.5716
  123OSM   H17F13064   4.174   4.072   4.289 -0.1550 -1.0077 -1.3550
  123OSM   H17G13065   3.997   4.057   4.283  2.0497 -1.8858  2.1076
  123OSM   C18F13066   4.075   4.255   4.364  0.5143 -0.1119  0.3780
  123OSM   H18F13067   4.048   4.233   4.469  0.9610 -2.0519  0.1201
  123OSM   H18G13068   4.008   4.327   4.312  0.5343  0.6468  1.3758
  123OSM   H18H13069   4.179   4.293   4.370  0.6374 -0.5584  1.0319
  124OSM      N13070   3.476   5.377   1.946 -0.2042 -0.2297  0.4814
  124OSM    C1513071   3.372   5.486   1.952  0.4437 -0.1545 -0.4014
  124OSM   H15A13072   3.362   5.548   1.864  1.1559  2.7546  1.4211
  124OSM   H15B13073   3.393   5.547   2.038 -0.0930  0.7605 -0.8946
  124OSM   H15C13074   3.274   5.442   1.960  1.2919 -2.5834 -2.1264
  124OSM    C1413075   3.606   5.442   1.909  0.3785  0.7593 -0.5306
  124OSM   H14A13076   3.689   5.373   1.914  0.1120  0.4348 -0.4459
  124OSM   H14B13077   3.634   5.511   1.988  1.0049 -1.9290  1.7825
  124OSM   H14C13078   3.593   5.492   1.814 -1.2738  1.0690 -0.1828
  124OSM    C1313079   3.497   5.315   2.080  0.8673 -0.2795  0.0754
  124OSM   H13A13080   3.498   5.395   2.153 -2.8969  1.1245 -1.1420
  124OSM   H13B13081   3.582   5.249   2.075  0.4229 -0.9266  0.8232
  124OSM   H13C13082   3.421   5.245   2.111 -0.7869  0.9527 -1.0169
  124OSM    C1213083   3.439   5.267   1.847 -0.7586 -0.5883  0.1428
  124OSM   H12A13084   3.516   5.193   1.836 -0.3250 -0.0618 -0.4172
  124OSM   H12B13085   3.443   5.308   1.748  1.8970 -0.0484  0.4165
  124OSM    C1113086   3.312   5.194   1.872 -0.2083  0.1863  0.1601
  124OSM   H11A13087   3.288   5.137   1.780 -0.5891  1.1770 -0.3732
  124OSM   H11B13088   3.224   5.261   1.879 -1.3091 -1.2199  0.3247
  124OSM      P13089   3.189   5.067   2.065 -0.5088  0.0988 -0.1247
  124OSM    O1313090   3.175   5.182   2.160  0.0133  0.5811  0.5667
  124OSM    O1413091   3.082   5.032   1.973  0.4050  0.1355 -0.2289
  124OSM    O1113092   3.230   4.939   2.144  0.1302  0.0936  0.5627
  124OSM    O1213093   3.324   5.103   1.982 -0.1730  0.5540 -0.0107
  124OSM    C1S13094   3.322   4.930   2.254  0.1085  0.3720  0.1867
  124OSM    H1S13095   3.350   5.030   2.295 -0.5898  0.4565  0.4795
  124OSM    H1T13096   3.417   4.883   2.222 -0.6978 -1.1535 -0.0501
  124OSM     NF13097   3.349   4.857   2.488  0.1053  0.0531 -0.9234
  124OSM    HNF13098   3.397   4.771   2.504 -0.8861 -0.7714 -2.1150
  124OSM    C2S13099   3.263   4.852   2.370 -0.4044  0.1363  0.2235
  124OSM    H2S13100   3.164   4.897   2.394  0.3329  0.3961  3.3034
  124OSM    C3S13101   3.219   4.706   2.333  0.9599 -0.3533  0.5538
  124OSM    H3S13102   3.313   4.648   2.322  2.5355  2.0654  0.5290
  124OSM     O313103   3.157   4.686   2.205  0.5369 -0.2427  0.1851
  124OSM    HO313104   3.166   4.771   2.161 -0.5744  0.1901  0.7647
  124OSM    C4S13105   3.129   4.640   2.434 -0.4625  0.0381 -0.1422
  124OSM    H4S13106   3.026   4.677   2.438 -0.4996  0.0598 -1.0174
  124OSM    C5S13107   3.178   4.547   2.518 -0.0899 -0.5657 -0.0398
  124OSM    H5S13108   3.286   4.525   2.516 -0.8490 -5.2940 -0.9079
  124OSM    C6S13109   3.090   4.483   2.621 -0.1872  0.3215 -0.3788
  124OSM    H6S13110   3.110   4.374   2.626  0.9381  0.4885 -0.9963
  124OSM    H6T13111   2.981   4.495   2.601  0.0970 -1.1610 -3.3014
  124OSM    C7S13112   3.109   4.533   2.762  0.0811 -0.0498 -0.3951
  124OSM    H7S13113   3.219   4.546   2.775 -0.0225 -0.0452  0.5508
  124OSM    H7T13114   3.079   4.452   2.832  3.1370 -0.7500  0.2709
  124OSM    C8S13115   3.053   4.670   2.806  0.3076  0.1059  0.2108
  124OSM    H8S13116   2.942   4.665   2.793  0.3855 -0.8116 -0.1784
  124OSM    H8T13117   3.079   4.753   2.736 -0.2566  0.7461  0.7490
  124OSM    C9S13118   3.096   4.718   2.945 -0.1600  0.5598  0.2098
  124OSM    H9S13119   3.083   4.828   2.938  0.8763  0.6143 -1.3053
  124OSM    H9T13120   3.200   4.692   2.974 -0.4061 -0.1061  0.5391
  124OSM   C10S13121   3.016   4.656   3.059  0.7976  0.6404  0.2702
  124OSM   H10S13122   3.030   4.546   3.065  0.3138  0.5826  0.3835
  124OSM   H10T13123   2.908   4.671   3.034  0.9586  0.2967 -0.6706
  124OSM   C11S13124   3.047   4.737   3.187 -0.2403 -0.1144  0.3281
  124OSM   H11S13125   3.050   4.844   3.159 -1.4149 -0.3351 -0.7414
  124OSM   H11T13126   3.139   4.695   3.233 -1.3547 -1.1388  1.7093
  124OSM   C12S13127   2.943   4.716   3.301  0.2778 -0.5089  0.1393
  124OSM   H12S13128   2.944   4.614   3.346 -0.2452 -0.1315  1.0293
  124OSM   H12T13129   2.838   4.722   3.265  0.9486 -0.1243 -1.8926
  124OSM   C13S13130   2.985   4.809   3.419  0.3072  0.3534 -0.7770
  124OSM   H13S13131   2.962   4.910   3.380  2.7083  0.8586 -1.0102
  124OSM   H13T13132   3.090   4.783   3.445  0.5952  0.7221 -1.5506
  124OSM   C14S13133   2.918   4.778   3.549 -0.0468  0.5199  0.1948
  124OSM   H14S13134   2.918   4.667   3.553 -0.7617  0.4926 -0.2947
  124OSM   H14T13135   2.813   4.813   3.551  0.5457  2.3574  0.5917
  124OSM   C15S13136   2.986   4.825   3.679 -0.0040 -0.9724  0.1772
  124OSM   H15S13137   3.005   4.932   3.658 -0.7221 -0.7409  0.6701
  124OSM   H15T13138   3.087   4.789   3.708 -0.1669  0.1368  2.3233
  124OSM   C16S13139   2.886   4.814   3.801 -0.0804  0.1596 -0.2749
  124OSM   H16S13140   2.873   4.704   3.813  0.3461 -0.4232 -4.0409
  124OSM   H16T13141   2.788   4.864   3.788 -0.7568 -1.3098 -1.0748
  124OSM   C17S13142   2.957   4.857   3.929 -0.4290  0.0808 -0.1020
  124OSM   H17S13143   2.997   4.960   3.912  0.9970  0.0015  2.2614
  124OSM   H17T13144   3.041   4.787   3.949 -0.0729  0.2663 -0.9298
  124OSM   C18S13145   2.885   4.849   4.070  0.5243 -0.0560 -0.4832
  124OSM   H18S13146   2.835   4.945   4.097 -2.3316 -2.0964  2.1884
  124OSM   H18T13147   2.949   4.825   4.158 -1.0407  1.7553  1.2726
  124OSM   H18U13148   2.800   4.777   4.070  0.9441 -0.5594 -0.1473
  124OSM    C1F13149   3.367   4.969   2.554  0.3812 -0.0118 -0.7563
  124OSM     OF13150   3.317   5.069   2.509 -0.3252 -0.2359  0.5378
  124OSM    C2F13151   3.449   4.959   2.686 -0.9636  0.1946  0.2369
  124OSM    H2F13152   3.553   4.993   2.664 -1.8074  2.1523 -0.9084
  124OSM    H2G13153   3.437   4.855   2.724 -0.4839 -0.9141 -2.4273
  124OSM    C3F13154   3.402   5.062   2.787  0.3413  0.1671 -0.4624
  124OSM    H3F13155   3.393   5.166   2.751  0.6000  0.8946  1.4563
  124OSM    H3G13156   3.481   5.082   2.862 -1.1309  1.3785  0.8308
  124OSM    C4F13157   3.271   5.023   2.866  0.4437 -0.6580  0.0118
  124OSM    H4F13158   3.294   4.976   2.963 -1.1377 -1.9328 -0.2008
  124OSM    H4G13159   3.199   4.967   2.803  1.5068 -1.2175 -0.7371
  124OSM    C5F13160   3.195   5.150   2.906 -0.6880 -0.2493  0.1851
  124OSM    H5F13161   3.099   5.116   2.950 -2.4800 -0.4226 -3.4527
  124OSM    H5G13162   3.170   5.206   2.813 -1.9343  2.9938  2.2757
  124OSM    C6F13163   3.265   5.235   3.002  0.6087 -0.7854  0.6551
  124OSM    H6F13164   3.342   5.295   2.950 -1.2397 -1.2492 -2.8969
  124OSM    H6G13165   3.330   5.178   3.072  1.1046  0.3585  1.1482
  124OSM    C7F13166   3.172   5.319   3.092  0.7873 -0.0142  0.4846
  124OSM    H7F13167   3.110   5.386   3.029 -0.1154 -2.5201 -1.4950
  124OSM    H7G13168   3.225   5.384   3.165 -0.4503  1.0189  0.4976
  124OSM    C8F13169   3.081   5.238   3.187  0.1851 -0.3581 -1.0028
  124OSM    H8F13170   3.148   5.166   3.239  0.9910 -0.6147 -2.3400
  124OSM    H8G13171   3.004   5.181   3.131 -1.5280  1.8188 -0.9814
  124OSM    C9F13172   3.006   5.335   3.277  0.7940 -0.3594  0.3206
  124OSM    H9F13173   2.974   5.429   3.229 -1.4447 -2.2412 -2.0821
  124OSM   C10F13174   2.971   5.318   3.409  0.2809 -0.2873 -0.1149
  124OSM   H10F13175   2.906   5.393   3.456 -1.3689 -1.0655 -1.0452
  124OSM   C11F13176   2.987   5.191   3.487 -0.0794  0.2528 -0.0319
  124OSM   H11F13177   3.071   5.130   3.448  1.6630  1.5824  1.4458
  124OSM   H11G13178   2.898   5.131   3.462  0.6983 -1.5047  1.1705
  124OSM   C12F13179   3.012   5.217   3.637  0.6496 -0.0209  0.6065
  124OSM   H12F13180   3.095   5.290   3.630  1.3817 -0.9938 -2.5928
  124OSM   H12G13181   3.049   5.120   3.674  0.7575 -1.2188 -2.3619
  124OSM   C13F13182   2.899   5.268   3.726  0.1518 -0.6645  0.4826
  124OSM   H13F13183   2.806   5.209   3.714 -1.3461  1.7926 -0.9212
  124OSM   H13G13184   2.881   5.372   3.691 -0.6619 -0.0647  2.5774
  124OSM   C14F13185   2.945   5.275   3.871 -0.0507  0.0671 -0.3716
  124OSM   H14F13186   3.054   5.298   3.878  0.1322 -1.2100  3.2830
  124OSM   H14G13187   2.940   5.171   3.910 -0.3339 -0.8439 -2.6818
  124OSM   C15F13188   2.853   5.354   3.954  1.0217 -0.0735 -0.6962
  124OSM   H15F13189   2.769   5.294   3.996  1.8391 -1.1656 -0.5739
  124OSM   H15G13190   2.801   5.425   3.886  1.3466  1.7416  0.8702
  124OSM   C16F13191   2.935   5.441   4.066 -0.1788  0.2321 -0.4529
  124OSM   H16F13192   3.023   5.493   4.021 -1.7959  1.1140 -2.8249
  124OSM   H16G13193   2.964   5.362   4.137 -2.4916 -0.4498 -0.1882
  124OSM   C17F13194   2.848   5.537   4.137  0.2630 -0.0480  0.6342
  124OSM   H17F13195   2.761   5.474   4.166 -1.3923  0.7159 -2.2587
  124OSM   H17G13196   2.822   5.619   4.067  1.3061  1.6708  2.1634
  124OSM   C18F13197   2.904   5.600   4.267  0.2630 -0.1017  0.0851
  124OSM   H18F13198   2.820   5.652   4.318 -0.0772 -2.6863  2.4177
  124OSM   H18G13199   2.987   5.669   4.241 -0.1063  0.8114  1.2384
  124OSM   H18H13200   2.939   5.520   4.336 -0.9865  0.7182  1.7551
  125OSM      N13201   5.626   6.180   2.107  0.3202  0.2291 -1.0252
  125OSM    C1513202   5.763   6.191   2.168  0.5144  0.1139  0.2137
  125OSM   H15A13203   5.838   6.183   2.090 -0.3990 -1.8268 -0.5368
  125OSM   H15B13204   5.783   6.114   2.241 -0.8579 -1.0358 -0.5672
  125OSM   H15C13205   5.775   6.288   2.213 -2.9341  0.2425  1.1326
  125OSM    C1413206   5.610   6.044   2.043  0.2614  0.2232  0.4307
  125OSM   H14A13207   5.610   5.963   2.115  0.1880 -0.2721 -0.1253
  125OSM   H14B13208   5.691   6.019   1.977  1.1311  0.9406  1.1899
  125OSM   H14C13209   5.511   6.036   2.001  1.0921 -2.1348 -1.2944
  125OSM    C1313210   5.525   6.195   2.216  0.4084  0.3234 -0.7522
  125OSM   H13A13211   5.525   6.297   2.251  1.3592  0.2200 -0.4355
  125OSM   H13B13212   5.540   6.131   2.301  1.5348  0.2396 -0.9988
  125OSM   H13C13213   5.425   6.179   2.179 -0.5610 -0.5791  2.0494
  125OSM    C1213214   5.607   6.281   1.990  0.3336  0.1994  0.1171
  125OSM   H12A13215   5.505   6.269   1.956  0.4969 -0.7386 -0.0670
  125OSM   H12B13216   5.672   6.258   1.906 -0.1542 -1.8026  0.2450
  125OSM    C1113217   5.635   6.430   2.031  0.3993  0.0165 -0.1118
  125OSM   H11A13218   5.619   6.495   1.943 -0.6346 -0.3904 -0.2259
  125OSM   H11B13219   5.741   6.424   2.066  0.2070 -2.5999  0.2347
  125OSM      P13220   5.415   6.539   2.127  0.5170 -0.0097  0.2241
  125OSM    O1313221   5.426   6.677   2.069 -0.2996  0.1700  0.3658
  125OSM    O1413222   5.319   6.445   2.056 -0.0506 -0.6053  0.5868
  125OSM    O1113223   5.380   6.549   2.283  0.2703 -0.2796 -0.0991
  125OSM    O1213224   5.553   6.479   2.139  0.4679 -0.1179  0.1479
  125OSM    C1S13225   5.369   6.687   2.333 -0.0016  0.2737  0.4237
  125OSM    H1S13226   5.295   6.749   2.279  1.0506  0.8658 -0.3644
  125OSM    H1T13227   5.462   6.747   2.321  0.6434  0.3523  4.3766
  125OSM     NF13228   5.314   6.843   2.516 -0.0327  0.1310  0.4428
  125OSM    HNF13229   5.393   6.902   2.529  0.0376  0.4965 -1.3735
  125OSM    C2S13230   5.337   6.701   2.486 -0.0078  0.0359 -0.6960
  125OSM    H2S13231   5.242   6.649   2.512  0.1404  0.4950  0.8278
  125OSM    C3S13232   5.439   6.628   2.571 -0.6336 -0.5827 -0.0538
  125OSM    H3S13233   5.537   6.680   2.573 -0.8257 -0.2469  1.3653
  125OSM     O313234   5.474   6.495   2.529 -0.3745 -0.2555 -0.1662
  125OSM    HO313235   5.427   6.486   2.446 -2.1988 -3.3584  1.0333
  125OSM    C4S13236   5.393   6.621   2.712  0.1849  0.1448 -0.4556
  125OSM    H4S13237   5.304   6.559   2.728  0.2559  0.0012 -0.6234
  125OSM    C5S13238   5.444   6.678   2.824 -0.3876  0.1943 -1.3089
  125OSM    H5S13239   5.525   6.751   2.806 -1.5463  1.6896 -0.6732
  125OSM    C6S13240   5.388   6.663   2.965 -0.4579  0.0705  0.2596
  125OSM    H6S13241   5.298   6.598   2.973  0.5214 -1.1999  1.0884
  125OSM    H6T13242   5.387   6.765   3.009  3.1132  1.4255 -2.3209
  125OSM    C7S13243   5.489   6.579   3.047  0.8716 -0.1148 -0.0417
  125OSM    H7S13244   5.591   6.624   3.046  0.3395  1.1920  1.5220
  125OSM    H7T13245   5.495   6.482   2.992  0.8843  0.4789 -1.1176
  125OSM    C8S13246   5.463   6.558   3.199  0.1526 -0.2798  0.1070
  125OSM    H8S13247   5.543   6.501   3.252 -1.5454 -0.4506  2.6727
  125OSM    H8T13248   5.369   6.499   3.210 -0.6433  1.1479  1.2169
  125OSM    C9S13249   5.452   6.688   3.284  0.3097  0.6387  0.1492
  125OSM    H9S13250   5.355   6.732   3.254  0.3837  2.0663  1.8146
  125OSM    H9T13251   5.537   6.754   3.255  2.0464 -1.0215  1.2031
  125OSM   C10S13252   5.453   6.670   3.436 -0.4572  0.2046  0.8273
  125OSM   H10S13253   5.549   6.619   3.459  0.5625  0.1997 -2.7969
  125OSM   H10T13254   5.365   6.604   3.453 -1.3145  1.7431  2.6311
  125OSM   C11S13255   5.466   6.805   3.514 -0.8535 -0.0192  0.5917
  125OSM   H11S13256   5.366   6.850   3.497 -0.2878  0.7055 -0.9841
  125OSM   H11T13257   5.544   6.859   3.457  1.1570 -1.5280  1.7864
  125OSM   C12S13258   5.508   6.791   3.660  0.4926 -0.5029  0.3149
  125OSM   H12S13259   5.550   6.882   3.708 -1.7588  1.0197 -0.4729
  125OSM   H12T13260   5.585   6.711   3.670  1.4864  0.4465  0.3904
  125OSM   C13S13261   5.385   6.757   3.751 -0.0082 -0.2499 -0.4074
  125OSM   H13S13262   5.322   6.683   3.698  0.5656  0.0099 -1.4891
  125OSM   H13T13263   5.322   6.847   3.767  0.6367  0.0121  0.7621
  125OSM   C14S13264   5.431   6.696   3.880 -0.2538  0.4909 -1.0789
  125OSM   H14S13265   5.516   6.626   3.862  0.2584  0.9382 -0.4576
  125OSM   H14T13266   5.346   6.635   3.919 -0.1285  1.7611  1.3513
  125OSM   C15S13267   5.487   6.797   3.982 -0.4035 -0.2552 -0.0137
  125OSM   H15S13268   5.584   6.837   3.947 -0.1016 -2.6355 -2.2165
  125OSM   H15T13269   5.514   6.753   4.080 -0.3883  0.1457  0.1624
  125OSM   C16S13270   5.391   6.914   4.001 -0.6061 -0.6690  0.4665
  125OSM   H16S13271   5.282   6.889   4.001 -1.0825  1.1454  1.9106
  125OSM   H16T13272   5.404   6.981   3.913 -0.4669  0.1207  1.0728
  125OSM   C17S13273   5.425   6.982   4.133 -0.4075 -0.1490 -0.1174
  125OSM   H17S13274   5.536   6.990   4.138 -0.3950 -0.6104  0.5000
  125OSM   H17T13275   5.395   6.905   4.207  0.1345 -1.2567 -1.0040
  125OSM   C18S13276   5.373   7.126   4.165  0.1738  0.9014 -0.1244
  125OSM   H18S13277   5.427   7.192   4.094  0.0768  1.5834  0.4223
  125OSM   H18T13278   5.395   7.142   4.273  1.7112 -0.8848 -0.1205
  125OSM   H18U13279   5.264   7.135   4.143  0.7762  0.6645 -3.7374
  125OSM    C1F13280   5.191   6.894   2.499  0.9058 -0.0359  0.7638
  125OSM     OF13281   5.108   6.821   2.449 -0.8363 -0.8244 -0.6440
  125OSM    C2F13282   5.163   7.036   2.542  0.2201 -0.0899  0.9342
  125OSM    H2F13283   5.126   7.093   2.454 -1.6302 -0.7115  1.2856
  125OSM    H2G13284   5.260   7.078   2.578  0.0036  0.2141  1.1630
  125OSM    C3F13285   5.045   7.023   2.642  0.3632  0.0386 -0.0106
  125OSM    H3F13286   4.951   6.989   2.593  1.4797 -1.0037 -1.5351
  125OSM    H3G13287   5.033   7.126   2.681  2.2187  0.2941 -0.0497
  125OSM    C4F13288   5.073   6.934   2.759  0.3843 -0.5624  0.0688
  125OSM    H4F13289   5.173   6.957   2.801  1.4498 -1.0977 -2.0687
  125OSM    H4G13290   5.071   6.828   2.725 -2.5093  0.2053 -2.5691
  125OSM    C5F13291   4.984   6.978   2.873 -0.0736  0.0988  0.6192
  125OSM    H5F13292   4.879   6.972   2.837  0.2548 -0.6393 -0.2728
  125OSM    H5G13293   5.004   7.080   2.910  0.5262 -0.0100  0.6073
  125OSM    C6F13294   4.989   6.884   2.999 -0.1973 -0.0159  0.0670
  125OSM    H6F13295   5.097   6.871   3.023 -0.1374 -1.2747 -0.8095
  125OSM    H6G13296   4.942   6.788   2.970 -0.1456 -0.1654  0.4657
  125OSM    C7F13297   4.910   6.939   3.116 -0.0961  0.0112 -0.7002
  125OSM    H7F13298   4.804   6.955   3.087 -0.5013 -0.2377  0.5538
  125OSM    H7G13299   4.944   7.042   3.140 -0.7684  0.5401 -1.9567
  125OSM    C8F13300   4.906   6.828   3.221  0.1195  0.4394 -0.5338
  125OSM    H8F13301   4.859   6.741   3.171  1.6277 -0.4099 -0.5401
  125OSM    H8G13302   4.833   6.854   3.300 -0.0422  1.5252 -1.0221
  125OSM    C9F13303   5.040   6.796   3.286  0.6497 -0.0823  0.7464
  125OSM    H9F13304   5.121   6.758   3.222 -1.5558 -0.8664 -1.7550
  125OSM   C10F13305   5.064   6.803   3.415 -0.2859  0.4026 -0.2492
  125OSM   H10F13306   5.157   6.755   3.451 -0.2011  0.5512 -0.2684
  125OSM   C11F13307   4.961   6.850   3.520 -0.1623  0.2541 -0.0211
  125OSM   H11F13308   4.988   6.794   3.612 -2.2287 -1.0211 -0.1244
  125OSM   H11G13309   4.855   6.832   3.495  0.0813  2.2949 -3.1685
  125OSM   C12F13310   4.981   7.006   3.533  0.3482 -0.0441  0.1552
  125OSM   H12F13311   4.898   7.053   3.591  0.7720  0.6412  0.2107
  125OSM   H12G13312   4.946   7.050   3.437 -2.8664 -0.8182  0.8396
  125OSM   C13F13313   5.117   7.040   3.591  0.7614  0.0013  0.0522
  125OSM   H13F13314   5.190   7.042   3.506 -0.3656  0.1785 -0.9392
  125OSM   H13G13315   5.149   6.960   3.661  0.4026 -0.1368  0.0557
  125OSM   C14F13316   5.124   7.184   3.652  0.6455 -0.0725 -0.1930
  125OSM   H14F13317   5.064   7.183   3.746  3.0985  2.8343  1.5931
  125OSM   H14G13318   5.087   7.261   3.582  0.6602  0.4624  0.3781
  125OSM   C15F13319   5.258   7.211   3.707 -0.0205  0.2607 -0.6037
  125OSM   H15F13320   5.319   7.216   3.614  1.1645 -3.5087 -0.2016
  125OSM   H15G13321   5.288   7.137   3.785 -0.0724 -0.9852 -1.7391
  125OSM   C16F13322   5.280   7.343   3.775 -0.2309 -0.5426  0.3951
  125OSM   H16F13323   5.228   7.344   3.873 -2.3031  1.8885 -0.6126
  125OSM   H16G13324   5.236   7.420   3.708  1.4128 -0.8370 -1.1111
  125OSM   C17F13325   5.425   7.387   3.786  1.0211 -0.3861 -0.1366
  125OSM   H17F13326   5.462   7.403   3.682 -0.0095  0.0369 -0.4459
  125OSM   H17G13327   5.479   7.305   3.838  0.3896  0.5603  2.0831
  125OSM   C18F13328   5.430   7.519   3.864 -0.4129  0.0432 -0.2967
  125OSM   H18F13329   5.385   7.608   3.815 -0.5460  0.8721  1.2697
  125OSM   H18G13330   5.534   7.546   3.889 -1.3770  2.4326  1.5412
  125OSM   H18H13331   5.374   7.515   3.960 -2.2455  0.5767 -1.2914
  126OSM      N13332   3.940   4.140   1.928  0.0009 -0.5010 -0.5093
  126OSM    C1513333   3.867   4.088   2.048 -0.0621  0.2304  0.1303
  126OSM   H15A13334   3.812   4.164   2.101  1.0500 -0.0159  1.6966
  126OSM   H15B13335   3.940   4.064   2.124  0.1394  2.7677  0.8375
  126OSM   H15C13336   3.808   4.002   2.020  1.2778 -0.8241  0.4447
  126OSM    C1413337   3.849   4.138   1.813 -0.3675  0.2465  0.0016
  126OSM   H14A13338   3.897   4.193   1.734 -0.7055  0.6411  0.0659
  126OSM   H14B13339   3.754   4.186   1.831  0.1752  1.6633 -0.7991
  126OSM   H14C13340   3.817   4.040   1.781  1.0283 -0.9343  1.9499
  126OSM    C1313341   3.993   4.278   1.956  1.0184  0.3144 -0.3867
  126OSM   H13A13342   4.069   4.312   1.887  0.9664 -0.9515 -1.1038
  126OSM   H13B13343   4.033   4.283   2.056 -0.6130 -2.4879  0.4974
  126OSM   H13C13344   3.907   4.344   1.956 -0.0326 -1.0177 -0.1320
  126OSM    C1213345   4.054   4.056   1.892 -0.7316  0.4084  0.0531
  126OSM   H12A13346   4.103   4.108   1.811  2.1059 -2.8780 -0.6035
  126OSM   H12B13347   4.022   3.959   1.857  0.4188  0.2598 -0.6417
  126OSM    C1113348   4.155   4.015   2.003 -0.0141 -0.0843 -0.4391
  126OSM   H11A13349   4.194   4.106   2.055  1.3810 -1.2730  0.6650
  126OSM   H11B13350   4.243   3.968   1.955 -0.6278  1.2193 -3.0340
  126OSM      P13351   4.088   3.775   2.076 -0.0856 -0.0628  0.0328
  126OSM    O1313352   4.000   3.731   2.190  0.1998  0.3995  0.0235
  126OSM    O1413353   4.055   3.741   1.934  0.5231 -0.3286  0.3286
  126OSM    O1113354   4.238   3.728   2.113 -0.0911 -0.0187  0.0401
  126OSM    O1213355   4.093   3.926   2.098  0.3373  0.5990  0.4896
  126OSM    C1S13356   4.328   3.799   2.197  0.4839  0.2554  0.8208
  126OSM    H1S13357   4.265   3.859   2.266 -0.5910 -0.4404  0.4664
  126OSM    H1T13358   4.387   3.872   2.137 -3.3846  1.1929 -2.2104
  126OSM     NF13359   4.493   3.754   2.396  0.1138  0.1880 -0.9007
  126OSM    HNF13360   4.584   3.794   2.381  0.3853 -0.1285 -0.1651
  126OSM    C2S13361   4.430   3.698   2.273 -0.3783  0.0952  0.4811
  126OSM    H2S13362   4.358   3.620   2.305 -1.6449  1.0437  0.0598
  126OSM    C3S13363   4.530   3.637   2.169  0.7449  0.1437  0.1211
  126OSM    H3S13364   4.604   3.716   2.141  0.3449  1.0100  1.4183
  126OSM     O313365   4.478   3.587   2.045  0.6899 -0.1601  0.4734
  126OSM    HO313366   4.385   3.613   2.040  0.6450 -0.4799 -1.0944
  126OSM    C4S13367   4.604   3.533   2.237 -0.4027 -0.3020  0.6127
  126OSM    H4S13368   4.543   3.453   2.281 -0.7777 -1.8134 -2.4310
  126OSM    C5S13369   4.734   3.507   2.223 -0.6060  0.2241 -0.6376
  126OSM    H5S13370   4.792   3.584   2.169 -1.2893  2.2514  1.3538
  126OSM    C6S13371   4.811   3.390   2.290  0.8345 -0.3880 -0.2551
  126OSM    H6S13372   4.881   3.343   2.217 -0.6216 -1.6184 -0.9025
  126OSM    H6T13373   4.730   3.315   2.300 -0.2520  0.7077 -0.5237
  126OSM    C7S13374   4.881   3.399   2.426 -0.2017  0.2127  0.1064
  126OSM    H7S13375   4.952   3.483   2.411  2.2925 -2.1658 -2.7541
  126OSM    H7T13376   4.946   3.310   2.433  0.7924  0.9823  1.1311
  126OSM    C8S13377   4.795   3.404   2.552 -0.4480  0.1695 -0.1458
  126OSM    H8S13378   4.718   3.328   2.532 -1.0586  0.8606 -0.4731
  126OSM    H8T13379   4.756   3.508   2.563 -1.2468  0.3703 -3.5951
  126OSM    C9S13380   4.889   3.384   2.676 -0.1910  0.6332  0.0594
  126OSM    H9S13381   4.988   3.427   2.650 -1.1944  1.1665 -3.3614
  126OSM    H9T13382   4.917   3.277   2.686  0.2688  0.6390 -1.0983
  126OSM   C10S13383   4.835   3.449   2.808 -0.6158 -0.5779 -0.3286
  126OSM   H10S13384   4.737   3.398   2.820 -0.9034  0.0933  0.2135
  126OSM   H10T13385   4.811   3.556   2.795 -1.3437 -0.8560 -1.4393
  126OSM   C11S13386   4.922   3.415   2.928 -0.5810 -0.0348  0.2210
  126OSM   H11S13387   5.024   3.457   2.915 -1.1817  1.6064  0.5642
  126OSM   H11T13388   4.940   3.305   2.923 -0.1207  0.1029 -3.0535
  126OSM   C12S13389   4.863   3.460   3.063 -0.1888  0.3619  0.0280
  126OSM   H12S13390   4.757   3.430   3.071  0.0382 -0.4606  0.1188
  126OSM   H12T13391   4.863   3.571   3.059 -0.7374  0.3341 -1.0929
  126OSM   C13S13392   4.947   3.406   3.182 -0.7401  0.0619  0.1652
  126OSM   H13S13393   5.050   3.445   3.166 -0.8493  0.1156 -0.4366
  126OSM   H13T13394   4.951   3.296   3.170 -3.1353  0.0010 -0.5462
  126OSM   C14S13395   4.892   3.451   3.317  0.0031 -0.4010  0.0213
  126OSM   H14S13396   4.787   3.417   3.326  0.4469 -1.7228  0.5139
  126OSM   H14T13397   4.893   3.562   3.313  0.6146 -0.3504  1.1135
  126OSM   C15S13398   4.979   3.402   3.448  0.4632 -0.1672  1.0397
  126OSM   H15S13399   5.079   3.449   3.431  0.1872 -0.2386 -1.1206
  126OSM   H15T13400   4.993   3.292   3.439  0.8307  0.0072 -1.1869
  126OSM   C16S13401   4.903   3.462   3.557  0.2438 -0.3267 -0.5334
  126OSM   H16S13402   4.800   3.423   3.567  0.7395 -1.1629  2.2574
  126OSM   H16T13403   4.900   3.571   3.532  0.0755 -0.6064 -1.7840
  126OSM   C17S13404   4.968   3.441   3.689  0.5439 -0.1585 -0.9000
  126OSM   H17S13405   5.058   3.506   3.698  0.4069  0.1555 -1.7340
  126OSM   H17T13406   5.010   3.338   3.694 -0.9776 -0.7596  0.1115
  126OSM   C18S13407   4.865   3.457   3.802  0.6159 -0.0647  0.8117
  126OSM   H18S13408   4.915   3.452   3.901  1.1281 -0.4332  0.5394
  126OSM   H18T13409   4.791   3.374   3.795  1.5703 -1.0251  1.7227
  126OSM   H18U13410   4.803   3.549   3.801 -0.3198 -0.6590  2.0990
  126OSM    C1F13411   4.420   3.789   2.504  0.2628 -0.4777 -0.2843
  126OSM     OF13412   4.305   3.754   2.522 -0.2747 -0.3953  1.1066
  126OSM    C2F13413   4.505   3.859   2.611  0.2493  0.2191  0.5495
  126OSM    H2F13414   4.591   3.912   2.563  1.0463 -1.6625 -0.1920
  126OSM    H2G13415   4.550   3.785   2.681 -0.1222 -0.2535  0.2862
  126OSM    C3F13416   4.422   3.959   2.699 -0.3356 -0.1008  0.1478
  126OSM    H3F13417   4.320   3.917   2.714  0.3810 -1.7042  0.7481
  126OSM    H3G13418   4.421   4.057   2.647 -0.4104 -1.0025 -1.6261
  126OSM    C4F13419   4.489   3.971   2.845 -0.1923  0.0402 -0.4199
  126OSM    H4F13420   4.598   3.991   2.853 -0.0193 -1.3197  1.2345
  126OSM    H4G13421   4.476   3.868   2.887 -0.1089  0.6120  1.0630
  126OSM    C5F13422   4.423   4.079   2.934  0.6236  0.0154  0.1943
  126OSM    H5F13423   4.314   4.059   2.940  0.1567  1.6412 -1.7384
  126OSM    H5G13424   4.449   4.177   2.887 -1.8182  0.1707 -1.0062
  126OSM    C6F13425   4.502   4.085   3.070  0.2823 -0.2094 -0.1452
  126OSM    H6F13426   4.604   4.110   3.034  0.7921 -2.8424 -0.7987
  126OSM    H6G13427   4.509   3.982   3.112  2.6464 -1.4300 -3.1691
  126OSM    C7F13428   4.469   4.194   3.174  0.0188  0.6768 -0.0465
  126OSM    H7F13429   4.361   4.201   3.199 -0.1605 -1.6198  0.0848
  126OSM    H7G13430   4.495   4.286   3.117  4.0585 -0.4530 -0.3436
  126OSM    C8F13431   4.557   4.184   3.300  0.1833 -0.0252 -0.2395
  126OSM    H8F13432   4.565   4.292   3.323  0.1517  0.0645 -0.6448
  126OSM    H8G13433   4.662   4.158   3.274  0.6985  0.9895  0.7222
  126OSM    C9F13434   4.494   4.109   3.415  0.1896  0.0101 -0.4282
  126OSM    H9F13435   4.458   4.008   3.390  1.1290 -0.3936 -0.1848
  126OSM   C10F13436   4.469   4.164   3.539  0.1493  0.0783  0.4524
  126OSM   H10F13437   4.444   4.103   3.628  2.6403  0.2002  1.3100
  126OSM   C11F13438   4.505   4.301   3.589  0.4989  0.1544 -1.0250
  126OSM   H11F13439   4.413   4.360   3.611  0.0950 -1.5285  2.4563
  126OSM   H11G13440   4.570   4.358   3.520  1.1210  0.8804  0.1318
  126OSM   C12F13441   4.567   4.278   3.733 -0.7574 -0.5618 -0.1617
  126OSM   H12F13442   4.662   4.221   3.723 -0.8352 -1.1069  1.7354
  126OSM   H12G13443   4.502   4.212   3.795 -2.3568  0.2357 -0.9382
  126OSM   C13F13444   4.596   4.405   3.813 -0.0918 -0.7101 -0.4067
  126OSM   H13F13445   4.495   4.450   3.828 -0.0897 -0.9458  0.3292
  126OSM   H13G13446   4.665   4.470   3.755 -0.2588  0.0647  0.2494
  126OSM   C14F13447   4.673   4.386   3.945 -0.1824  0.5402  0.1990
  126OSM   H14F13448   4.766   4.331   3.918  0.2817  1.5294 -0.2607
  126OSM   H14G13449   4.617   4.317   4.011  0.7402  0.2295  0.6812
  126OSM   C15F13450   4.708   4.510   4.029 -0.0833  0.0133 -0.4283
  126OSM   H15F13451   4.618   4.550   4.082 -0.4714 -2.0199  0.5694
  126OSM   H15G13452   4.750   4.593   3.969 -1.4030  1.1574  0.1623
  126OSM   C16F13453   4.819   4.475   4.139 -0.2561 -0.4797  0.9030
  126OSM   H16F13454   4.894   4.409   4.092  1.9321  1.7723  1.0475
  126OSM   H16G13455   4.760   4.415   4.212  1.7406 -3.0416  0.5209
  126OSM   C17F13456   4.898   4.601   4.188  0.2983  0.1489 -0.2187
  126OSM   H17F13457   4.819   4.674   4.218 -0.3576 -0.7319  0.2652
  126OSM   H17G13458   4.950   4.653   4.105  1.0307 -0.2698 -0.0297
  126OSM   C18F13459   4.995   4.583   4.294 -0.4716  0.8462  0.4021
  126OSM   H18F13460   5.066   4.500   4.273  0.0392  1.7298 -1.6968
  126OSM   H18G13461   4.955   4.551   4.392 -0.7241  2.4270  0.8387
  126OSM   H18H13462   5.064   4.669   4.305  2.0447 -1.2761  2.7635
  127OSM      N13463   3.147   3.726   2.121  0.2827 -0.5044  0.3752
  127OSM    C1513464   3.179   3.845   2.210  0.0086  0.5685  0.4934
  127OSM   H15A13465   3.104   3.922   2.209 -0.6781  0.0769  3.3917
  127OSM   H15B13466   3.282   3.874   2.194  0.4095  0.2340  2.2400
  127OSM   H15C13467   3.181   3.811   2.313  1.8903  1.6426  0.8449
  127OSM    C1413468   3.267   3.650   2.073 -0.1729 -0.8697 -0.2795
  127OSM   H14A13469   3.317   3.706   1.996 -0.5391  3.2724  2.1534
  127OSM   H14B13470   3.243   3.557   2.025  1.4084 -0.3294 -2.2356
  127OSM   H14C13471   3.338   3.640   2.154  0.4307  1.2017 -0.4928
  127OSM    C1313472   3.063   3.630   2.198 -0.1134  0.2185 -0.2927
  127OSM   H13A13473   3.103   3.614   2.297 -1.4002 -1.5365 -0.0228
  127OSM   H13B13474   3.056   3.530   2.159  2.3178 -0.1594  0.0991
  127OSM   H13C13475   2.963   3.671   2.198 -0.2410 -0.0905 -0.4027
  127OSM    C1213476   3.058   3.773   2.006 -0.1400  0.2683 -0.0111
  127OSM   H12A13477   3.015   3.685   1.960  0.6433  0.0408 -0.3165
  127OSM   H12B13478   3.125   3.817   1.933 -0.4754  0.0257 -0.4671
  127OSM    C1113479   2.949   3.869   2.038  0.0115  0.1462 -0.4278
  127OSM   H11A13480   2.908   3.907   1.942 -4.7862 -0.0150  1.3346
  127OSM   H11B13481   2.978   3.965   2.087  0.2773 -0.4243  0.5549
  127OSM      P13482   2.706   3.878   2.121  0.1577 -0.0672  0.0804
  127OSM    O1313483   2.705   3.996   2.039 -0.3558 -0.0826  0.7847
  127OSM    O1413484   2.595   3.786   2.084  0.0579  0.2787 -0.2710
  127OSM    O1113485   2.700   3.920   2.277 -0.2068  0.3024 -0.5665
  127OSM    O1213486   2.840   3.803   2.104 -0.7097  0.1046  0.4589
  127OSM    C1S13487   2.820   3.914   2.356  0.5818  0.5029 -0.0258
  127OSM    H1S13488   2.887   3.999   2.333 -0.4535  2.0918  2.3934
  127OSM    H1T13489   2.872   3.817   2.341  0.8965  0.7041 -0.2625
  127OSM     NF13490   2.909   3.962   2.580 -0.1444  0.2462 -0.1239
  127OSM    HNF13491   2.961   3.887   2.620  1.0787  0.2256 -1.6586
  127OSM    C2S13492   2.788   3.929   2.507 -0.2172  0.1669  0.0585
  127OSM    H2S13493   2.719   4.014   2.527 -1.8147 -1.5762  2.4228
  127OSM    C3S13494   2.703   3.808   2.559  0.1078  0.9448  0.1105
  127OSM    H3S13495   2.769   3.719   2.555 -0.4993  0.4209  1.4598
  127OSM     O313496   2.601   3.763   2.476 -0.5911 -0.7923  0.2883
  127OSM    HO313497   2.608   3.813   2.394 -0.3677 -1.9036 -0.3813
  127OSM    C4S13498   2.654   3.816   2.706 -0.4204 -0.5672  0.3715
  127OSM    H4S13499   2.715   3.760   2.779 -2.2219 -0.6073  1.9198
  127OSM    C5S13500   2.538   3.871   2.751 -0.1310  0.5659 -0.5164
  127OSM    H5S13501   2.466   3.917   2.682 -0.5108 -0.1022 -0.5810
  127OSM    C6S13502   2.496   3.877   2.901 -0.1564  0.1457 -0.4866
  127OSM    H6S13503   2.420   3.802   2.932  0.6942 -0.7649 -0.5484
  127OSM    H6T13504   2.458   3.981   2.913  2.2706  1.4241 -2.6853
  127OSM    C7S13505   2.602   3.854   3.012 -0.6399 -0.1991  0.0339
  127OSM    H7S13506   2.688   3.920   2.991 -2.5271  2.0190 -1.1228
  127OSM    H7T13507   2.631   3.747   3.006 -1.4490 -0.5339  1.5942
  127OSM    C8S13508   2.550   3.864   3.155 -0.4270  0.0972  0.2878
  127OSM    H8S13509   2.493   3.769   3.172  1.1304 -0.9528 -0.1474
  127OSM    H8T13510   2.493   3.958   3.172  0.7287  0.9141 -0.2594
  127OSM    C9S13511   2.659   3.873   3.263  0.6430 -0.0107  0.2076
  127OSM    H9S13512   2.749   3.937   3.247  1.4971 -0.8263  1.5847
  127OSM    H9T13513   2.707   3.773   3.263 -0.4864 -0.5672  0.6284
  127OSM   C10S13514   2.595   3.901   3.403 -0.2626 -0.0617 -0.2584
  127OSM   H10S13515   2.522   3.824   3.435 -2.8199  1.6580 -1.6076
  127OSM   H10T13516   2.542   3.999   3.409 -0.5658 -0.2847  1.1736
  127OSM   C11S13517   2.705   3.918   3.513 -0.0733  0.9926 -0.0412
  127OSM   H11S13518   2.777   4.002   3.497 -0.7916  1.6930  0.3237
  127OSM   H11T13519   2.765   3.824   3.512 -0.4006  0.7383  1.5625
  127OSM   C12S13520   2.657   3.926   3.652 -0.1652 -0.0937 -1.1912
  127OSM   H12S13521   2.576   3.855   3.678  0.0714  0.2483  0.6645
  127OSM   H12T13522   2.609   4.026   3.664  1.7096  0.6230  1.3079
  127OSM   C13S13523   2.773   3.907   3.750  0.3856  0.3811  0.0811
  127OSM   H13S13524   2.862   3.967   3.722  2.0813 -1.1959  1.7643
  127OSM   H13T13525   2.797   3.798   3.746 -0.6958  0.1093  0.5963
  127OSM   C14S13526   2.747   3.936   3.895 -0.0692 -0.2408 -0.1465
  127OSM   H14S13527   2.834   3.892   3.947  2.3929  1.3443 -2.6478
  127OSM   H14T13528   2.655   3.884   3.929  0.8851 -1.2244  1.0333
  127OSM   C15S13529   2.749   4.083   3.933 -1.0625 -0.1480  0.0546
  127OSM   H15S13530   2.656   4.134   3.898 -1.5868 -0.3726  1.0870
  127OSM   H15T13531   2.837   4.128   3.882  0.1499 -1.8928  0.5167
  127OSM   C16S13532   2.778   4.116   4.080  0.0243  0.6871 -0.2287
  127OSM   H16S13533   2.756   4.224   4.093  0.3828  0.6341  0.8862
  127OSM   H16T13534   2.884   4.102   4.108 -0.5783 -0.1843  1.7533
  127OSM   C17S13535   2.692   4.036   4.187 -0.2655 -0.0494  0.0312
  127OSM   H17S13536   2.728   3.931   4.180  1.0600  0.3782  0.1439
  127OSM   H17T13537   2.591   4.054   4.144 -0.0199  4.6420  0.9013
  127OSM   C18S13538   2.701   4.088   4.329 -0.0001 -0.0199  0.2659
  127OSM   H18S13539   2.635   4.019   4.385 -2.1567  0.0826 -1.9516
  127OSM   H18T13540   2.664   4.193   4.333 -0.1177 -0.0840  1.0344
  127OSM   H18U13541   2.804   4.092   4.371 -0.4674 -0.2513  1.4766
  127OSM    C1F13542   2.971   4.076   2.563 -0.3087  0.0001 -0.6678
  127OSM     OF13543   2.917   4.181   2.517  0.4000 -0.8518 -0.1594
  127OSM    C2F13544   3.123   4.070   2.601  0.2591 -0.3133 -1.5642
  127OSM    H2F13545   3.177   4.135   2.528  1.0201 -0.6389 -1.3067
  127OSM    H2G13546   3.173   3.973   2.581  1.8037  0.2567 -0.6989
  127OSM    C3F13547   3.144   4.120   2.749 -0.5955  0.0690 -0.2731
  127OSM    H3F13548   3.105   4.223   2.765 -1.3573 -0.2912  0.2270
  127OSM    H3G13549   3.254   4.132   2.761 -0.6929  1.9844 -0.8942
  127OSM    C4F13550   3.070   4.033   2.853  0.7251  0.4849  0.2096
  127OSM    H4F13551   3.073   3.926   2.826 -1.1294  0.6764 -0.9526
  127OSM    H4G13552   2.960   4.052   2.850  0.5480 -0.2626  1.3031
  127OSM    C5F13553   3.119   4.055   2.995 -0.2245  0.4902  0.3100
  127OSM    H5F13554   3.109   4.164   3.015 -5.9721  0.2368  0.3381
  127OSM    H5G13555   3.225   4.022   2.991 -0.4215 -0.1025 -0.0903
  127OSM    C6F13556   3.052   3.965   3.092  0.4488 -0.2660 -0.1206
  127OSM    H6F13557   3.092   3.869   3.052  0.4278 -0.1072 -0.5361
  127OSM    H6G13558   2.943   3.967   3.069  0.6765 -0.2148 -1.2647
  127OSM    C7F13559   3.080   3.996   3.236  0.0662  0.1074 -0.0471
  127OSM    H7F13560   3.022   4.086   3.266  0.3458 -0.3694  2.1452
  127OSM    H7G13561   3.186   4.019   3.257 -0.0505  1.0941 -0.4877
  127OSM    C8F13562   3.044   3.883   3.340  0.7983  0.4067 -0.0879
  127OSM    H8F13563   3.117   3.808   3.305 -0.3852 -0.3341 -1.0526
  127OSM    H8G13564   2.937   3.854   3.333  0.6728  0.8115  0.0713
  127OSM    C9F13565   3.059   3.929   3.481 -0.7887 -0.1616 -0.4866
  127OSM    H9F13566   3.039   4.034   3.509  0.6426 -0.0974  0.4441
  127OSM   C10F13567   3.098   3.849   3.581 -0.2494 -0.1580  0.0587
  127OSM   H10F13568   3.115   3.892   3.681 -0.2738 -0.3598  0.1511
  127OSM   C11F13569   3.142   3.705   3.585  0.4768 -0.6592 -0.1186
  127OSM   H11F13570   3.252   3.694   3.585  0.5322 -0.1559  0.5531
  127OSM   H11G13571   3.095   3.657   3.496 -0.6530 -0.2355  0.2288
  127OSM   C12F13572   3.083   3.615   3.691 -0.0221 -0.1488 -0.9833
  127OSM   H12F13573   3.122   3.513   3.673 -0.6361 -0.2572 -1.7971
  127OSM   H12G13574   2.974   3.609   3.669 -0.4268 -0.7509  1.0028
  127OSM   C13F13575   3.112   3.668   3.839 -0.1495 -0.5297  0.0139
  127OSM   H13F13576   3.032   3.743   3.852  0.7304  0.4591 -0.0978
  127OSM   H13G13577   3.219   3.699   3.846 -0.3084  0.2983 -1.0942
  127OSM   C14F13578   3.083   3.567   3.948 -0.6810 -0.1069 -1.0601
  127OSM   H14F13579   2.980   3.527   3.930 -0.1529 -1.9127 -0.2675
  127OSM   H14G13580   3.067   3.614   4.047 -1.0451 -1.1328 -0.6114
  127OSM   C15F13581   3.191   3.450   3.953  0.1198  0.4230 -0.0945
  127OSM   H15F13582   3.236   3.448   3.852  1.3620 -0.4482  0.4639
  127OSM   H15G13583   3.137   3.356   3.977  0.5989  0.4790  1.2619
  127OSM   C16F13584   3.295   3.458   4.059 -0.2763  0.1275  0.0998
  127OSM   H16F13585   3.357   3.549   4.049 -0.1649  0.2738  1.8670
  127OSM   H16G13586   3.364   3.374   4.036 -0.7441 -0.5232  1.0227
  127OSM   C17F13587   3.241   3.436   4.202  0.6375  0.5488  0.2991
  127OSM   H17F13588   3.167   3.353   4.198 -0.3109  1.4026 -0.3054
  127OSM   H17G13589   3.170   3.517   4.231  0.6138  0.4433  0.5385
  127OSM   C18F13590   3.350   3.409   4.300 -0.3106  0.3683 -0.5060
  127OSM   H18F13591   3.430   3.481   4.327  1.7242 -2.1686  0.8059
  127OSM   H18G13592   3.398   3.314   4.266 -0.6533 -0.4027  1.0588
  127OSM   H18H13593   3.302   3.367   4.392 -2.8381 -0.1964 -1.9806
  128OSM      N13594   4.259   0.410   1.522 -0.8390 -0.4481 -0.3405
  128OSM    C1513595   4.373   0.414   1.422 -1.1075 -0.5254  0.3822
  128OSM   H15A13596   4.367   0.514   1.381 -3.3327 -0.1587  1.4190
  128OSM   H15B13597   4.349   0.347   1.341  2.0352 -0.7021 -0.5133
  128OSM   H15C13598   4.467   0.395   1.470 -0.8150  0.2509  0.1329
  128OSM    C1413599   4.133   0.383   1.437 -0.1566  0.2719 -0.7009
  128OSM   H14A13600   4.046   0.390   1.500  0.7002 -1.3637  0.7705
  128OSM   H14B13601   4.157   0.285   1.396  1.3309  0.1635  0.3434
  128OSM   H14C13602   4.133   0.448   1.351  2.8365  1.2078 -0.1081
  128OSM    C1313603   4.265   0.288   1.601 -0.3161 -0.3102  0.2481
  128OSM   H13A13604   4.349   0.291   1.668  0.4962 -1.7339 -0.6559
  128OSM   H13B13605   4.270   0.204   1.532 -0.5191 -0.9738  1.0272
  128OSM   H13C13606   4.185   0.289   1.674  1.4094  0.5597  2.2158
  128OSM    C1213607   4.248   0.538   1.605  0.6823 -0.0501  0.3289
  128OSM   H12A13608   4.215   0.620   1.544 -2.4494  0.2725  2.2416
  128OSM   H12B13609   4.341   0.568   1.649  1.9556 -0.1228 -2.1342
  128OSM    C1113610   4.128   0.543   1.709 -0.6372 -0.2961 -0.2324
  128OSM   H11A13611   4.157   0.619   1.785 -0.4029 -0.8189  0.2190
  128OSM   H11B13612   4.125   0.447   1.766 -0.3248 -1.0806 -1.4939
  128OSM      P13613   3.943   0.713   1.661  0.1735 -0.0464 -0.0750
  128OSM    O1313614   4.037   0.811   1.611 -0.0573 -0.5351  0.3406
  128OSM    O1413615   3.807   0.708   1.596 -0.0637 -0.3678  0.1528
  128OSM    O1113616   3.913   0.742   1.810  0.2102 -0.6012 -0.3206
  128OSM    O1213617   4.001   0.570   1.652  0.1748  0.1831 -0.1180
  128OSM    C1S13618   3.855   0.663   1.911 -0.4726 -0.8445 -0.5932
  128OSM    H1S13619   3.879   0.555   1.901 -1.6997 -1.1446 -0.4757
  128OSM    H1T13620   3.745   0.677   1.899 -0.2202  2.8725  0.2704
  128OSM     NF13621   3.822   0.674   2.160 -0.0403 -0.4127  0.7356
  128OSM    HNF13622   3.742   0.733   2.174  0.2922  0.5754 -1.1613
  128OSM    C2S13623   3.905   0.719   2.050 -0.3859 -0.0050 -0.5154
  128OSM    H2S13624   4.010   0.684   2.067  0.1115  1.1457 -1.0967
  128OSM    C3S13625   3.913   0.876   2.049 -0.0810 -0.7398  0.4604
  128OSM    H3S13626   3.823   0.906   1.992  2.4644  1.3707 -2.7864
  128OSM     O313627   4.014   0.932   1.966  0.3288  0.3726 -0.5152
  128OSM    HO313628   3.995   0.886   1.884  0.6241  0.7150 -0.7810
  128OSM    C4S13629   3.928   0.944   2.181  0.1982 -0.0412 -0.2267
  128OSM    H4S13630   4.017   0.918   2.239 -0.0246 -1.1537 -0.3742
  128OSM    C5S13631   3.848   1.037   2.234  0.3342  0.2853 -0.0298
  128OSM    H5S13632   3.763   1.069   2.172 -0.0433  0.7987  0.7295
  128OSM    C6S13633   3.855   1.118   2.362  0.3305 -0.2923  0.6572
  128OSM    H6S13634   3.754   1.119   2.409 -0.2102 -1.3300 -0.4341
  128OSM    H6T13635   3.871   1.222   2.329 -0.8127 -0.2367  0.2442
  128OSM    C7S13636   3.970   1.088   2.461  0.4209  0.1182 -0.2405
  128OSM    H7S13637   4.071   1.075   2.416  0.5590 -4.2713  0.9279
  128OSM    H7T13638   3.943   0.988   2.500  0.1584  0.1831 -0.2579
  128OSM    C8S13639   3.970   1.199   2.568 -0.1331  0.0999 -0.0003
  128OSM    H8S13640   3.875   1.189   2.625 -0.1345 -0.3849 -0.0815
  128OSM    H8T13641   3.968   1.297   2.516 -2.2444  0.3744  0.5161
  128OSM    C9S13642   4.092   1.192   2.665  0.2433  0.8710  0.0790
  128OSM    H9S13643   4.181   1.192   2.598  0.3589  1.3675  0.2239
  128OSM    H9T13644   4.097   1.096   2.720 -0.5493  0.2495 -0.8915
  128OSM   C10S13645   4.100   1.318   2.751  0.1741 -0.4900  0.3931
  128OSM   H10S13646   4.011   1.314   2.818 -1.2511  2.4644 -1.1515
  128OSM   H10T13647   4.085   1.411   2.694  1.2429 -1.0018 -0.7431
  128OSM   C11S13648   4.233   1.311   2.834  0.8836 -0.4129  0.2242
  128OSM   H11S13649   4.322   1.319   2.768  0.1611  0.8634 -0.6472
  128OSM   H11T13650   4.233   1.217   2.894 -0.7630  0.8146  2.2903
  128OSM   C12S13651   4.229   1.403   2.954  0.5718  0.6510  0.0518
  128OSM   H12S13652   4.140   1.395   3.019  1.3057  0.0718  1.0081
  128OSM   H12T13653   4.224   1.505   2.909 -1.3004 -0.0957 -1.5897
  128OSM   C13S13654   4.354   1.377   3.042  0.4444 -0.1855 -0.2252
  128OSM   H13S13655   4.457   1.393   3.002  1.3595  0.9178  2.3834
  128OSM   H13T13656   4.338   1.268   3.061 -1.6558  0.0405 -0.4309
  128OSM   C14S13657   4.344   1.464   3.169  0.2154 -0.6808 -1.0485
  128OSM   H14S13658   4.238   1.495   3.185  0.3926  0.5027 -2.0302
  128OSM   H14T13659   4.410   1.551   3.153  0.3704 -0.7988 -1.0528
  128OSM   C15S13660   4.375   1.392   3.303 -0.2682 -0.1799 -0.0250
  128OSM   H15S13661   4.483   1.370   3.317 -0.4360 -2.0135 -1.2286
  128OSM   H15T13662   4.316   1.299   3.314 -1.6415  0.7467  0.8099
  128OSM   C16S13663   4.329   1.482   3.420  0.1802 -0.4993 -0.6192
  128OSM   H16S13664   4.219   1.498   3.410  0.3635  1.4148  0.0960
  128OSM   H16T13665   4.384   1.576   3.438 -1.6683  0.5194  0.0359
  128OSM   C17S13666   4.344   1.417   3.563  0.1348 -0.1942 -0.6675
  128OSM   H17S13667   4.446   1.391   3.598 -0.4723  0.5159  1.8446
  128OSM   H17T13668   4.285   1.323   3.570  0.5901 -0.3636  1.4268
  128OSM   C18S13669   4.301   1.516   3.671  0.7544  0.3944  0.5325
  128OSM   H18S13670   4.387   1.575   3.708 -0.1705  0.3125  3.0353
  128OSM   H18T13671   4.259   1.463   3.759  1.2642 -2.2082 -0.6930
  128OSM   H18U13672   4.227   1.584   3.624 -2.7002 -2.4526  1.4031
  128OSM    C1F13673   3.822   0.547   2.197 -0.3516 -0.2879  0.0085
  128OSM     OF13674   3.907   0.471   2.158 -0.0110 -0.7856 -0.2618
  128OSM    C2F13675   3.693   0.489   2.247 -0.0067  0.0321  0.4042
  128OSM    H2F13676   3.642   0.431   2.167 -0.5818  0.8836  0.1356
  128OSM    H2G13677   3.626   0.571   2.281  0.0921  0.3381 -0.1290
  128OSM    C3F13678   3.717   0.396   2.377 -0.4582 -0.2867 -0.0772
  128OSM    H3F13679   3.762   0.300   2.344 -1.2886 -1.4788  2.0311
  128OSM    H3G13680   3.622   0.361   2.424 -0.9029  2.5401  1.3681
  128OSM    C4F13681   3.798   0.456   2.492 -0.0240  0.3464 -0.5668
  128OSM    H4F13682   3.749   0.551   2.525  1.2415  0.8249 -0.0206
  128OSM    H4G13683   3.895   0.499   2.461 -1.1881  1.1159 -3.4363
  128OSM    C5F13684   3.820   0.369   2.613 -0.2300 -0.4337 -0.1562
  128OSM    H5F13685   3.925   0.336   2.629  0.5442  1.1583 -1.6873
  128OSM    H5G13686   3.771   0.275   2.577  0.8488 -0.5326 -1.4450
  128OSM    C6F13687   3.755   0.432   2.736 -0.6015  0.4913 -0.5710
  128OSM    H6F13688   3.772   0.359   2.818  0.0615  1.3523  0.0864
  128OSM    H6G13689   3.646   0.442   2.717 -0.2712  1.0203 -2.3401
  128OSM    C7F13690   3.815   0.564   2.795  0.0251 -0.4225  0.0851
  128OSM    H7F13691   3.741   0.602   2.869 -1.3660  1.6312 -2.1897
  128OSM    H7G13692   3.823   0.641   2.715  2.1629  0.5868  1.2052
  128OSM    C8F13693   3.949   0.557   2.869 -0.4217  1.2337 -0.2402
  128OSM    H8F13694   4.022   0.538   2.788 -0.4986 -0.8240  0.1218
  128OSM    H8G13695   3.949   0.465   2.931 -0.9648  1.8009  0.6232
  128OSM    C9F13696   3.972   0.681   2.949 -0.7930  0.6367  0.2358
  128OSM    H9F13697   4.005   0.766   2.888  1.9548 -0.0723  0.5881
  128OSM   C10F13698   3.986   0.686   3.080  0.9319  0.0751  0.1798
  128OSM   H10F13699   3.985   0.789   3.119  0.7579 -0.0075  0.3964
  128OSM   C11F13700   3.970   0.577   3.180 -0.6366  0.8365 -0.0360
  128OSM   H11F13701   4.067   0.563   3.231 -0.6664  3.6782  0.9704
  128OSM   H11G13702   3.947   0.477   3.138 -0.8035  0.6914  0.3972
  128OSM   C12F13703   3.860   0.620   3.288 -0.2998  0.2325 -0.3596
  128OSM   H12F13704   3.775   0.615   3.217  0.8310  3.1804 -2.1041
  128OSM   H12G13705   3.883   0.723   3.321 -4.1748  0.9262  0.6872
  128OSM   C13F13706   3.833   0.531   3.405 -0.0582 -0.1384 -0.4937
  128OSM   H13F13707   3.847   0.424   3.380  0.3921  0.5620 -3.5869
  128OSM   H13G13708   3.737   0.555   3.456  0.6919 -0.8421  1.3654
  128OSM   C14F13709   3.941   0.560   3.519  0.1691  0.4798 -0.3771
  128OSM   H14F13710   3.963   0.669   3.519  0.4729  0.4188 -0.7272
  128OSM   H14G13711   4.039   0.519   3.488  0.3351  1.1614 -0.7827
  128OSM   C15F13712   3.913   0.502   3.659 -0.3558 -0.2380 -0.4104
  128OSM   H15F13713   3.923   0.391   3.662  2.4179 -0.0255  0.7283
  128OSM   H15G13714   3.807   0.525   3.685 -0.8394 -0.7072 -1.8562
  128OSM   C16F13715   3.993   0.564   3.777 -0.5160 -0.7346  0.6840
  128OSM   H16F13716   3.961   0.524   3.876  2.7945 -0.8249  1.8546
  128OSM   H16G13717   3.976   0.674   3.788  2.3848 -0.3050  2.0169
  128OSM   C17F13718   4.148   0.550   3.770 -0.1818  0.3062  0.0643
  128OSM   H17F13719   4.186   0.629   3.702  0.2504  1.2478  1.3561
  128OSM   H17G13720   4.154   0.450   3.723 -0.1660  0.2425  0.2020
  128OSM   C18F13721   4.211   0.550   3.909 -0.0132  0.3950  0.5262
  128OSM   H18F13722   4.173   0.467   3.973  0.9592  0.2141  0.8837
  128OSM   H18G13723   4.182   0.642   3.964  0.3611 -0.5189  2.3348
  128OSM   H18H13724   4.321   0.536   3.903 -0.2459 -0.8957 -1.3357
  129OSM      N13725   4.679   0.155   1.626 -0.4603  0.6346 -0.4837
  129OSM    C1513726   4.556   0.088   1.675  0.5644  0.2673  0.2235
  129OSM   H15A13727   4.486   0.159   1.714 -2.6968 -0.1050 -4.1456
  129OSM   H15B13728   4.582   0.012   1.747  0.8659 -0.7474 -0.9114
  129OSM   H15C13729   4.491   0.049   1.597 -0.2291 -3.2224  2.4275
  129OSM    C1413730   4.757   0.038   1.571 -0.0045 -0.0015  0.2132
  129OSM   H14A13731   4.693  -0.023   1.509  0.9628 -1.5767  0.7168
  129OSM   H14B13732   4.804  -0.029   1.642  2.2747 -1.3818 -2.3991
  129OSM   H14C13733   4.838   0.071   1.508 -0.1655  0.6783  0.3547
  129OSM    C1313734   4.643   0.249   1.521 -1.1426 -0.1663  0.3376
  129OSM   H13A13735   4.722   0.251   1.447  0.2618 -0.7895  1.7520
  129OSM   H13B13736   4.638   0.349   1.561  4.1468  0.2955  0.5236
  129OSM   H13C13737   4.551   0.221   1.471 -0.7944  0.3803 -0.6430
  129OSM    C1213738   4.757   0.226   1.741 -0.6233  0.2035  0.5522
  129OSM   H12A13739   4.846   0.266   1.694 -2.0295  1.7183 -0.9624
  129OSM   H12B13740   4.791   0.148   1.808 -1.8677 -0.0071  0.9718
  129OSM    C1113741   4.688   0.340   1.828  0.3712  0.3997  0.5359
  129OSM   H11A13742   4.753   0.389   1.904  1.6056 -1.3119  0.6357
  129OSM   H11B13743   4.612   0.287   1.891  0.4931  1.8571  1.9833
  129OSM      P13744   4.589   0.584   1.811  0.3192 -0.1431  0.1036
  129OSM    O1313745   4.696   0.629   1.903 -0.0537 -0.0652 -0.1651
  129OSM    O1413746   4.541   0.678   1.703 -0.6072 -0.0890 -0.5346
  129OSM    O1113747   4.465   0.546   1.899  0.2593 -0.1514 -0.3332
  129OSM    O1213748   4.633   0.446   1.749 -0.0337 -0.3497 -0.2266
  129OSM    C1S13749   4.457   0.563   2.038  0.1555 -0.6588 -0.7429
  129OSM    H1S13750   4.452   0.667   2.075  0.3284 -0.9056 -0.0008
  129OSM    H1T13751   4.546   0.510   2.080 -0.5928 -0.7871  0.7175
  129OSM     NF13752   4.287   0.555   2.233  0.1821  0.6418 -0.0899
  129OSM    HNF13753   4.302   0.481   2.297  3.3256  0.1175 -1.2388
  129OSM    C2S13754   4.308   0.511   2.091 -0.2070 -0.5589 -0.6144
  129OSM    H2S13755   4.236   0.560   2.022  0.8336 -0.1412 -1.4348
  129OSM    C3S13756   4.307   0.356   2.069 -0.2085  0.6467  0.5598
  129OSM    H3S13757   4.392   0.293   2.103 -0.5643 -0.0372  0.2104
  129OSM     O313758   4.316   0.316   1.931  0.0817  0.2620  0.3252
  129OSM    HO313759   4.353   0.396   1.893 -0.5530  1.2189  1.6393
  129OSM    C4S13760   4.176   0.305   2.128  0.0163 -0.0907 -0.0903
  129OSM    H4S13761   4.086   0.351   2.085 -0.1072 -1.8449 -1.8732
  129OSM    C5S13762   4.160   0.216   2.232  0.2394 -0.8084  0.1601
  129OSM    H5S13763   4.254   0.192   2.284 -1.2251 -0.3922  3.2595
  129OSM    C6S13764   4.027   0.164   2.291 -0.3565  0.4279  0.1655
  129OSM    H6S13765   3.945   0.175   2.217  2.1838  1.5968 -2.6934
  129OSM    H6T13766   4.011   0.229   2.379 -1.2143 -0.0488  0.3763
  129OSM    C7S13767   4.021   0.016   2.328 -0.0869 -0.5927 -0.2353
  129OSM    H7S13768   4.025  -0.051   2.239  1.9454 -1.2400  0.2839
  129OSM    H7T13769   3.923  -0.007   2.374  0.4961  1.1173  2.0575
  129OSM    C8S13770   4.132  -0.043   2.419  0.0556 -0.2049  0.2193
  129OSM    H8S13771   4.228  -0.009   2.376  0.5096  0.3495  1.6324
  129OSM    H8T13772   4.133  -0.154   2.423  0.5855 -0.2913 -1.4870
  129OSM    C9S13773   4.139   0.009   2.567 -0.1480  0.0936  0.0645
  129OSM    H9S13774   4.174   0.114   2.579  0.4469  0.0870 -1.3574
  129OSM    H9T13775   4.218  -0.059   2.603  0.8308  1.1512 -0.0220
  129OSM   C10S13776   3.999   0.004   2.638 -0.5280 -0.6453 -0.6895
  129OSM   H10S13777   3.947  -0.093   2.624 -0.6424 -0.6936  0.0470
  129OSM   H10T13778   3.932   0.083   2.598 -1.3951 -0.5172  0.9739
  129OSM   C11S13779   4.019   0.019   2.786 -0.5417  0.1416  0.3206
  129OSM   H11S13780   4.045   0.126   2.799 -1.1721  0.3870 -0.3617
  129OSM   H11T13781   4.101  -0.040   2.831  0.6722 -0.1469 -2.1245
  129OSM   C12S13782   3.891  -0.019   2.861 -0.7932  0.6312 -0.4182
  129OSM   H12S13783   3.867  -0.124   2.832  2.5460 -0.6578  0.9123
  129OSM   H12T13784   3.799   0.032   2.826 -0.5109  1.2341 -0.2928
  129OSM   C13S13785   3.917  -0.006   3.012  0.0682  0.2030 -0.5498
  129OSM   H13S13786   4.015  -0.058   3.022  1.3726  2.0846 -2.4973
  129OSM   H13T13787   3.839  -0.065   3.064  0.6111  0.4736  0.6207
  129OSM   C14S13788   3.924   0.136   3.064  0.1368  0.0895 -0.3075
  129OSM   H14S13789   3.845   0.189   3.007 -1.7888  0.2714  2.3476
  129OSM   H14T13790   4.024   0.172   3.033  1.2801 -1.4188  1.4179
  129OSM   C15S13791   3.890   0.137   3.216  0.2019  0.2522  0.2485
  129OSM   H15S13792   3.780   0.118   3.224  0.4107 -1.7880 -1.0770
  129OSM   H15T13793   3.931   0.236   3.247 -0.5433  0.6547 -0.0196
  129OSM   C16S13794   3.976   0.031   3.292 -0.0248  1.0139 -0.4381
  129OSM   H16S13795   4.073   0.036   3.238  0.6203 -1.7322  0.3058
  129OSM   H16T13796   3.928  -0.069   3.289 -0.9808  1.4965 -2.3152
  129OSM   C17S13797   4.000   0.077   3.439  0.3921 -0.5576 -0.2373
  129OSM   H17S13798   4.062   0.170   3.441 -1.9917  1.1390  1.8112
  129OSM   H17T13799   4.045  -0.011   3.490 -0.3880 -0.1048  1.2906
  129OSM   C18S13800   3.876   0.131   3.509  0.0541  1.2341  0.1803
  129OSM   H18S13801   3.835   0.231   3.481  0.1199  1.6977  1.6092
  129OSM   H18T13802   3.901   0.129   3.618 -0.6753 -0.6291  0.3399
  129OSM   H18U13803   3.806   0.046   3.497  1.3998  0.1140  0.0948
  129OSM    C1F13804   4.243   0.672   2.269  0.1565 -0.5060 -0.0255
  129OSM     OF13805   4.242   0.767   2.192 -0.3672 -0.5846  0.2354
  129OSM    C2F13806   4.182   0.690   2.401  0.4103  0.0825 -0.2746
  129OSM    H2F13807   4.179   0.586   2.441 -2.0225  0.3389  0.3727
  129OSM    H2G13808   4.085   0.743   2.387  0.6026  0.6393  0.4880
  129OSM    C3F13809   4.265   0.772   2.497 -0.2438 -0.1326  0.2139
  129OSM    H3F13810   4.273   0.875   2.458  0.4073  0.1742  1.1144
  129OSM    H3G13811   4.367   0.727   2.500  0.3297  0.9894 -1.1175
  129OSM    C4F13812   4.216   0.781   2.645 -0.2761 -0.4134  0.3671
  129OSM    H4F13813   4.186   0.680   2.679 -4.2750  1.2067  2.2693
  129OSM    H4G13814   4.122   0.840   2.640 -0.0228  0.2851  2.5379
  129OSM    C5F13815   4.309   0.842   2.743  0.6613  0.3775  0.0492
  129OSM    H5F13816   4.337   0.943   2.707 -1.3386  0.4607 -1.4678
  129OSM    H5G13817   4.404   0.785   2.747  1.1901  1.1980 -0.6658
  129OSM    C6F13818   4.251   0.858   2.885 -0.0537 -0.1499 -0.2822
  129OSM    H6F13819   4.233   0.755   2.923  0.9351 -0.1518  0.2189
  129OSM    H6G13820   4.154   0.911   2.893  0.0429 -0.2351  2.1512
  129OSM    C7F13821   4.351   0.936   2.967 -0.4629  0.3703 -0.1147
  129OSM    H7F13822   4.353   1.034   2.913 -0.6446  1.2410  1.4161
  129OSM    H7G13823   4.452   0.891   2.973  0.4218  2.3587  1.1482
  129OSM    C8F13824   4.311   0.952   3.118  0.4857  0.1375  0.2284
  129OSM    H8F13825   4.206   0.987   3.128 -0.1643 -1.9514  1.4499
  129OSM    H8G13826   4.372   1.029   3.170  2.1218 -3.0269  3.5127
  129OSM    C9F13827   4.321   0.819   3.190  0.3283 -0.2707  0.4658
  129OSM    H9F13828   4.312   0.723   3.137  0.7042 -0.8080  1.3635
  129OSM   C10F13829   4.339   0.812   3.324 -0.2939  0.0923  0.1066
  129OSM   H10F13830   4.330   0.718   3.381 -0.9255  0.9058  1.3969
  129OSM   C11F13831   4.355   0.926   3.424  0.2448  0.3092  0.1458
  129OSM   H11F13832   4.329   1.020   3.372 -1.1636 -0.7044 -1.0816
  129OSM   H11G13833   4.464   0.935   3.442  0.5809 -0.6028 -1.2547
  129OSM   C12F13834   4.284   0.894   3.556  0.0483 -0.2118  0.3207
  129OSM   H12F13835   4.308   0.797   3.604 -1.6899 -0.1161  1.4759
  129OSM   H12G13836   4.177   0.897   3.526  0.0288 -0.5469  0.3621
  129OSM   C13F13837   4.307   1.016   3.650 -0.2408 -0.1339  1.0431
  129OSM   H13F13838   4.261   1.105   3.602  0.5760 -0.1015  0.2975
  129OSM   H13G13839   4.415   1.028   3.675 -0.5129  0.8897  1.8149
  129OSM   C14F13840   4.232   1.004   3.782  0.2388 -0.3487 -0.6525
  129OSM   H14F13841   4.250   0.901   3.820 -1.1954 -1.1852 -2.1372
  129OSM   H14G13842   4.122   1.007   3.767  0.0727  3.3005  0.5074
  129OSM   C15F13843   4.268   1.115   3.880  0.2730  0.0154 -0.4754
  129OSM   H15F13844   4.214   1.209   3.855 -0.6655 -0.4751 -0.3450
  129OSM   H15G13845   4.377   1.132   3.867  0.4730 -1.2577 -0.5889
  129OSM   C16F13846   4.246   1.091   4.029  0.1878  0.0923 -0.4722
  129OSM   H16F13847   4.278   1.173   4.098  1.2532  0.0423 -0.8846
  129OSM   H16G13848   4.309   1.002   4.051  2.3731  1.5076 -0.6819
  129OSM   C17F13849   4.097   1.071   4.051 -0.2569 -0.1638  0.2607
  129OSM   H17F13850   4.060   1.002   3.972  1.6354  3.0071 -3.7248
  129OSM   H17G13851   4.046   1.167   4.030 -0.4415 -0.2213  0.4381
  129OSM   C18F13852   4.076   1.026   4.197  0.2331  0.3031  0.2800
  129OSM   H18F13853   4.123   1.104   4.260 -0.7325 -1.6038  3.5659
  129OSM   H18G13854   4.116   0.924   4.212  0.4276  0.2917 -0.2940
  129OSM   H18H13855   3.965   1.018   4.204  0.2595  0.1603  0.5509
  130OSM      N13856   5.512   4.511   1.260  0.0541  0.0518  0.0255
  130OSM    C1513857   5.651   4.543   1.213 -0.0351 -0.0564  0.4224
  130OSM   H15A13858   5.685   4.455   1.159  0.4244 -0.0754  0.7368
  130OSM   H15B13859   5.719   4.577   1.289 -0.3940  2.4169 -0.2672
  130OSM   H15C13860   5.658   4.621   1.138 -0.7965 -1.7957 -1.5583
  130OSM    C1413861   5.442   4.623   1.328 -0.8927 -0.3726  0.4809
  130OSM   H14A13862   5.455   4.718   1.276 -2.1874  0.8149  2.2294
  130OSM   H14B13863   5.475   4.634   1.430 -0.1861  1.0774  0.1259
  130OSM   H14C13864   5.335   4.607   1.330 -0.9822  0.1526  0.1303
  130OSM    C1313865   5.441   4.469   1.138  0.4628 -0.6403 -0.4876
  130OSM   H13A13866   5.487   4.390   1.081 -0.3881  0.9025 -3.4741
  130OSM   H13B13867   5.427   4.539   1.058  0.2911  1.2738  1.1250
  130OSM   H13C13868   5.342   4.436   1.165  0.9219  0.2442  2.7150
  130OSM    C1213869   5.505   4.390   1.353 -0.1538  0.2442  0.0383
  130OSM   H12A13870   5.533   4.297   1.306  0.8255  0.1730  0.7330
  130OSM   H12B13871   5.401   4.382   1.382 -0.5776  0.2642 -1.3700
  130OSM    C1113872   5.588   4.403   1.484 -0.1045  0.3556  0.2456
  130OSM   H11A13873   5.691   4.413   1.445 -0.7995 -1.2021 -2.2563
  130OSM   H11B13874   5.576   4.304   1.534 -1.1136  0.6742  0.6493
  130OSM      P13875   5.647   4.613   1.622  0.4367 -0.0821  0.4203
  130OSM    O1313876   5.770   4.610   1.543 -0.6900  0.1191 -0.8512
  130OSM    O1413877   5.577   4.744   1.623 -0.2942  0.2443 -0.2801
  130OSM    O1113878   5.682   4.572   1.768 -0.1150  0.7009 -0.2674
  130OSM    O1213879   5.553   4.500   1.577 -0.2951  0.3479  0.1360
  130OSM    C1S13880   5.579   4.550   1.866  0.0292  0.3665  0.1384
  130OSM    H1S13881   5.488   4.615   1.861 -1.1797 -1.3525 -2.0224
  130OSM    H1T13882   5.606   4.594   1.964 -0.7991  2.7802 -0.6228
  130OSM     NF13883   5.436   4.396   1.986 -0.2802 -0.9250  0.5715
  130OSM    HNF13884   5.466   4.377   2.080  2.4300  0.6447  0.1324
  130OSM    C2S13885   5.546   4.405   1.895  0.5977 -0.6169 -0.2024
  130OSM    H2S13886   5.510   4.356   1.802 -0.0203 -2.9493  1.1765
  130OSM    C3S13887   5.672   4.323   1.933 -0.2455  0.5704  0.3206
  130OSM    H3S13888   5.727   4.377   2.013  2.1715  0.0109 -0.8413
  130OSM     O313889   5.771   4.314   1.825  0.3940 -0.1815 -0.0264
  130OSM    HO313890   5.769   4.404   1.792  1.6424 -0.2150 -0.2713
  130OSM    C4S13891   5.641   4.180   1.985 -0.0538 -0.8864  0.5044
  130OSM    H4S13892   5.618   4.108   1.904  2.9501 -0.6695 -0.6395
  130OSM    C5S13893   5.639   4.135   2.109 -0.0195  0.0092 -0.1458
  130OSM    H5S13894   5.649   4.197   2.200  2.0040 -1.3389  0.6323
  130OSM    C6S13895   5.582   3.994   2.138 -0.7904  0.3758  0.1623
  130OSM    H6S13896   5.583   3.941   2.040  0.9577  2.0763 -0.8029
  130OSM    H6T13897   5.478   4.003   2.174 -0.4192  0.9808  1.1043
  130OSM    C7S13898   5.651   3.925   2.254 -0.1795 -0.3457 -0.4702
  130OSM    H7S13899   5.689   3.998   2.328  3.1008 -0.4803 -1.8527
  130OSM    H7T13900   5.746   3.878   2.221  0.6579 -1.5638  3.2039
  130OSM    C8S13901   5.567   3.825   2.335 -0.0485  0.0864 -1.0051
  130OSM    H8S13902   5.512   3.757   2.267 -1.3883  1.3710 -1.2610
  130OSM    H8T13903   5.486   3.878   2.390  0.5632  0.6758 -0.6580
  130OSM    C9S13904   5.655   3.744   2.429  0.0278 -0.8243 -0.1477
  130OSM    H9S13905   5.715   3.810   2.494  1.3346 -1.5799 -0.5411
  130OSM    H9T13906   5.734   3.682   2.381  0.0410 -1.1252  0.2560
  130OSM   C10S13907   5.568   3.666   2.526 -0.0044  0.1558 -0.0516
  130OSM   H10S13908   5.509   3.594   2.465 -1.0794  2.1633 -1.5040
  130OSM   H10T13909   5.503   3.740   2.578 -2.2010 -0.5116 -1.6732
  130OSM   C11S13910   5.653   3.577   2.623  0.0998 -0.0686 -0.4224
  130OSM   H11S13911   5.741   3.636   2.657  0.5364 -0.6650 -0.5143
  130OSM   H11T13912   5.690   3.497   2.556 -1.3456 -2.0693  1.0432
  130OSM   C12S13913   5.571   3.526   2.742 -0.2979 -0.4435  0.7382
  130OSM   H12S13914   5.478   3.478   2.705 -0.0652  0.5712 -1.3321
  130OSM   H12T13915   5.534   3.620   2.788 -1.1009  0.3445 -1.3997
  130OSM   C13S13916   5.645   3.436   2.845 -0.0261  0.9146 -0.5084
  130OSM   H13S13917   5.739   3.488   2.874  0.3651  0.8923 -1.6710
  130OSM   H13T13918   5.682   3.346   2.791  2.3519 -0.1677  2.6126
  130OSM   C14S13919   5.564   3.400   2.974  0.2311  0.2632  0.1519
  130OSM   H14S13920   5.609   3.317   3.031  0.2746 -0.0435 -0.3249
  130OSM   H14T13921   5.463   3.373   2.936  0.4199  1.5786 -1.4182
  130OSM   C15S13922   5.559   3.524   3.067  0.0919 -1.0060  0.2288
  130OSM   H15S13923   5.523   3.603   2.997  0.2483 -1.5969 -0.5384
  130OSM   H15T13924   5.656   3.558   3.111 -0.1245  2.9719 -1.8419
  130OSM   C16S13925   5.464   3.516   3.188  0.3415 -0.4492  0.4623
  130OSM   H16S13926   5.366   3.504   3.137  1.1230  0.2265 -1.2681
  130OSM   H16T13927   5.472   3.611   3.245 -1.9208  0.6231 -0.8667
  130OSM   C17S13928   5.478   3.398   3.285 -0.2951  0.2160 -0.1661
  130OSM   H17S13929   5.582   3.389   3.321  0.6245 -0.2312 -2.7058
  130OSM   H17T13930   5.465   3.308   3.221 -0.2430  0.7404 -0.9365
  130OSM   C18S13931   5.374   3.394   3.403 -0.0291  0.5959 -0.7254
  130OSM   H18S13932   5.380   3.493   3.453  1.5914  0.0949  0.1486
  130OSM   H18T13933   5.394   3.314   3.478  0.0294  0.4799 -0.8631
  130OSM   H18U13934   5.280   3.358   3.356  1.4785 -2.8767 -1.4228
  130OSM    C1F13935   5.316   4.444   1.957  0.2600  0.2177 -0.2629
  130OSM     OF13936   5.291   4.509   1.859 -0.1186  0.1693 -0.1640
  130OSM    C2F13937   5.207   4.420   2.062  0.7188 -0.4199 -0.5980
  130OSM    H2F13938   5.261   4.398   2.157  0.8356  0.5064 -0.4404
  130OSM    H2G13939   5.139   4.336   2.037 -0.3715  0.5719 -1.0275
  130OSM    C3F13940   5.121   4.548   2.073 -0.2036  0.3852 -0.2020
  130OSM    H3F13941   5.085   4.591   1.977 -0.6506  1.3965  0.4002
  130OSM    H3G13942   5.196   4.615   2.120  0.5346 -0.6056  0.0860
  130OSM    C4F13943   4.995   4.536   2.170  0.0863 -0.1568 -0.1883
  130OSM    H4F13944   4.907   4.505   2.110  2.2910 -1.4907 -2.9727
  130OSM    H4G13945   4.975   4.637   2.213 -1.8166  0.4385 -2.2514
  130OSM    C5F13946   5.016   4.447   2.289  0.3624  0.0377 -0.1223
  130OSM    H5F13947   5.120   4.465   2.323  0.4577  0.4559 -0.6298
  130OSM    H5G13948   5.000   4.337   2.280 -0.8924  0.3077 -1.7270
  130OSM    C6F13949   4.916   4.478   2.408 -1.5994 -0.3548 -0.3777
  130OSM    H6F13950   4.814   4.479   2.363 -2.4005 -2.5439  1.2166
  130OSM    H6G13951   4.926   4.577   2.458 -3.6337  0.2726 -1.1089
  130OSM    C7F13952   4.917   4.361   2.503 -0.0577  0.5763  0.1251
  130OSM    H7F13953   5.015   4.320   2.536 -1.0213 -0.5103  1.6849
  130OSM    H7G13954   4.876   4.272   2.451  1.3006  0.6111 -1.0903
  130OSM    C8F13955   4.850   4.383   2.633 -0.4590 -0.6274  0.3025
  130OSM    H8F13956   4.751   4.428   2.609  0.0347 -0.0279 -0.6850
  130OSM    H8G13957   4.902   4.470   2.679 -1.0825  0.1207 -0.3495
  130OSM    C9F13958   4.830   4.268   2.721 -0.5715 -0.4920  0.3310
  130OSM    H9F13959   4.769   4.188   2.675 -2.2449  1.2568 -0.6452
  130OSM   C10F13960   4.888   4.253   2.841  0.7359 -0.3877 -0.2537
  130OSM   H10F13961   4.864   4.158   2.891 -1.5489 -0.6402 -1.7072
  130OSM   C11F13962   4.980   4.347   2.910 -0.4879  0.9768 -0.4803
  130OSM   H11F13963   5.031   4.421   2.845  0.2100  2.3294  1.5392
  130OSM   H11G13964   5.055   4.287   2.965 -0.4115  0.0806 -1.5119
  130OSM   C12F13965   4.922   4.445   3.015  1.2082  0.8386  1.0141
  130OSM   H12F13966   4.838   4.498   2.965  1.7776  0.1408 -0.7848
  130OSM   H12G13967   4.998   4.521   3.043  0.0463  2.4174 -0.0110
  130OSM   C13F13968   4.885   4.370   3.141  0.1964  0.2920 -0.2801
  130OSM   H13F13969   4.955   4.286   3.162 -3.0454 -2.1239  1.9292
  130OSM   H13G13970   4.788   4.319   3.126  1.7243 -2.2590 -2.5291
  130OSM   C14F13971   4.878   4.456   3.267 -0.1423 -0.1336  1.0634
  130OSM   H14F13972   4.781   4.509   3.272 -1.2735 -1.8406 -1.1186
  130OSM   H14G13973   4.967   4.523   3.270 -0.7727  0.6930  1.8094
  130OSM   C15F13974   4.886   4.366   3.401 -0.3033  0.4108  0.6693
  130OSM   H15F13975   4.964   4.288   3.388 -1.6996 -0.9547  0.1552
  130OSM   H15G13976   4.795   4.309   3.429  0.1239 -1.2219 -1.0429
  130OSM   C16F13977   4.920   4.459   3.518 -0.7519  0.0650 -0.7480
  130OSM   H16F13978   4.829   4.518   3.540 -0.5610 -0.2863  1.1113
  130OSM   H16G13979   4.997   4.535   3.495 -0.0883 -0.6719 -1.0049
  130OSM   C17F13980   4.959   4.370   3.641 -0.7544 -0.2469  0.2541
  130OSM   H17F13981   4.873   4.302   3.655 -0.3752 -0.5954  0.9712
  130OSM   H17G13982   4.952   4.439   3.728  0.6497 -1.0540  1.0435
  130OSM   C18F13983   5.083   4.282   3.642 -0.7239  0.1649  0.4485
  130OSM   H18F13984   5.133   4.275   3.741  0.3231  0.1499 -0.0652
  130OSM   H18G13985   5.151   4.339   3.575  0.7985 -1.0344  0.9067
  130OSM   H18H13986   5.063   4.184   3.594 -0.3459  1.3648 -2.3313
  131OSM      N13987   0.599   5.914   2.034 -0.5120  0.3059 -0.6202
  131OSM    C1513988   0.700   6.018   2.079  0.1113  0.2195  0.0533
  131OSM   H15A13989   0.712   6.007   2.186 -1.2984 -2.2083  0.0277
  131OSM   H15B13990   0.668   6.119   2.062 -0.1690  0.5267  2.0695
  131OSM   H15C13991   0.784   6.002   2.014 -0.1094  0.8465 -0.3965
  131OSM    C1413992   0.596   5.920   1.885 -0.0452  0.0825 -0.3130
  131OSM   H14A13993   0.698   5.892   1.864  0.2800  0.0747  1.1759
  131OSM   H14B13994   0.572   6.019   1.849  2.9144  0.5529 -1.2095
  131OSM   H14C13995   0.531   5.852   1.832  0.8270 -0.1041 -1.1666
  131OSM    C1313996   0.637   5.773   2.082  0.5695 -0.8367 -0.0036
  131OSM   H13A13997   0.632   5.755   2.188  0.5258 -0.9929 -0.0322
  131OSM   H13B13998   0.739   5.744   2.061  1.4174  0.3363  2.1278
  131OSM   H13C13999   0.571   5.695   2.047 -1.1367 -0.2223  1.6512
  131OSM    C1214000   0.463   5.962   2.090 -0.3890  0.7288 -0.6966
  131OSM   H12A14001   0.475   5.964   2.197  2.0132  0.6541 -0.9132
  131OSM   H12B14002   0.389   5.889   2.062 -2.3262  1.4390  2.1516
  131OSM    C1114003   0.400   6.097   2.053 -0.0057 -0.0237 -0.0232
  131OSM   H11A14004   0.309   6.108   2.117  0.9007  0.5519  1.1953
  131OSM   H11B14005   0.374   6.087   1.946  0.1617  0.4539 -0.1098
  131OSM      P14006   0.422   6.348   2.123 -0.1474 -0.0637  0.2195
  131OSM    O1314007   0.532   6.432   2.177 -0.0973 -0.4534 -0.0947
  131OSM    O1414008   0.345   6.410   2.020  0.2118 -0.1290 -0.2036
  131OSM    O1114009   0.338   6.296   2.246 -0.5266 -0.1880 -0.2974
  131OSM    O1214010   0.491   6.217   2.065 -0.6595 -0.2680 -0.0619
  131OSM    C1S14011   0.395   6.222   2.369 -0.4083 -0.1516  0.4186
  131OSM    H1S14012   0.491   6.172   2.347  0.8417  1.6800  1.4175
  131OSM    H1T14013   0.326   6.139   2.395  0.1977 -0.2700  1.6908
  131OSM     NF14014   0.491   6.249   2.599 -0.4314 -0.0658 -0.2126
  131OSM    HNF14015   0.440   6.207   2.673 -0.0175  1.9273  1.2784
  131OSM    C2S14016   0.412   6.318   2.495  0.2596  0.3815 -0.6739
  131OSM    H2S14017   0.462   6.413   2.467 -1.4411  0.7171 -2.9469
  131OSM    C3S14018   0.277   6.369   2.550  0.1191  0.9373 -0.1995
  131OSM    H3S14019   0.225   6.276   2.581  1.9399 -0.3869 -0.9371
  131OSM     O314020   0.194   6.423   2.453  0.0869 -0.7259  0.0473
  131OSM    HO314021   0.239   6.398   2.372  3.0786 -0.6210  1.5392
  131OSM    C4S14022   0.291   6.457   2.660  0.4593 -0.6114 -0.0950
  131OSM    H4S14023   0.323   6.560   2.636 -0.6741 -0.0422  0.7592
  131OSM    C5S14024   0.256   6.429   2.787  0.2435  0.1621  0.0031
  131OSM    H5S14025   0.208   6.333   2.810  1.3716 -0.7811 -1.4054
  131OSM    C6S14026   0.283   6.519   2.904  0.0424  0.1528  0.1855
  131OSM    H6S14027   0.305   6.621   2.866  1.0536 -0.2999 -0.4849
  131OSM    H6T14028   0.372   6.473   2.952 -0.6537 -0.0661  1.2893
  131OSM    C7S14029   0.161   6.523   2.997 -0.2374 -0.5863  0.2218
  131OSM    H7S14030   0.157   6.428   3.056  0.2905  0.2394  1.6301
  131OSM    H7T14031   0.073   6.540   2.932 -0.4891 -1.6138  0.2718
  131OSM    C8S14032   0.172   6.628   3.107  0.4403  0.2619 -0.0139
  131OSM    H8S14033   0.075   6.671   3.140  1.5310  2.0283  1.0281
  131OSM    H8T14034   0.227   6.716   3.070 -2.3407  1.5997 -1.3071
  131OSM    C9S14035   0.226   6.568   3.237 -0.7668 -0.3161  0.2601
  131OSM    H9S14036   0.330   6.533   3.219 -0.4292  0.4739  0.6171
  131OSM    H9T14037   0.155   6.486   3.261 -1.7545  0.7893  1.2584
  131OSM   C10S14038   0.221   6.659   3.361  0.3875  0.7680 -0.0332
  131OSM   H10S14039   0.114   6.682   3.381 -0.4209 -0.7853 -2.1882
  131OSM   H10T14040   0.267   6.755   3.331 -1.3713  1.0481 -2.0885
  131OSM   C11S14041   0.278   6.599   3.486  0.3798 -0.1753  0.7587
  131OSM   H11S14042   0.387   6.613   3.468  0.0514  1.6286 -0.0521
  131OSM   H11T14043   0.254   6.490   3.491 -1.9475  0.2590  0.0770
  131OSM   C12S14044   0.235   6.678   3.618  0.1884 -0.1424  0.2717
  131OSM   H12S14045   0.124   6.673   3.609  0.1493  0.9957 -0.0651
  131OSM   H12T14046   0.267   6.784   3.611  0.7702 -0.2291  1.5536
  131OSM   C13S14047   0.297   6.606   3.730 -0.8074 -0.2874 -0.5209
  131OSM   H13S14048   0.407   6.598   3.726 -0.6736  0.7142  0.6262
  131OSM   H13T14049   0.260   6.504   3.751 -0.1651  0.0331  2.6555
  131OSM   C14S14050   0.291   6.677   3.868  0.3602 -0.5056  0.0582
  131OSM   H14S14051   0.345   6.772   3.852 -3.0495  1.7035  0.6447
  131OSM   H14T14052   0.325   6.606   3.947  1.0210  1.8524  1.9954
  131OSM   C15S14053   0.152   6.719   3.904  0.5720  0.4669 -0.0651
  131OSM   H15S14054   0.079   6.636   3.918 -0.4683  1.4539  0.5424
  131OSM   H15T14055   0.118   6.783   3.820 -3.0091 -2.8507 -1.4258
  131OSM   C16S14056   0.141   6.806   4.025 -0.1135 -0.3956  0.6562
  131OSM   H16S14057   0.038   6.848   4.024 -0.3116 -0.8319 -1.2427
  131OSM   H16T14058   0.207   6.895   4.026 -2.8469  1.7447  1.2542
  131OSM   C17S14059   0.167   6.732   4.158 -0.1666 -0.4389  0.3929
  131OSM   H17S14060   0.225   6.639   4.137 -0.5969 -0.3137 -1.5405
  131OSM   H17T14061   0.066   6.699   4.190 -1.3902  3.5478  1.1515
  131OSM   C18S14062   0.231   6.819   4.269  0.1583  0.5323 -0.1960
  131OSM   H18S14063   0.335   6.845   4.239  0.0544 -0.7557 -1.7975
  131OSM   H18T14064   0.241   6.756   4.361 -1.5134 -0.9318 -0.9538
  131OSM   H18U14065   0.172   6.910   4.293 -1.6237  0.2083 -2.9228
  131OSM    C1F14066   0.619   6.235   2.580  0.4730  1.3424 -0.5755
  131OSM     OF14067   0.682   6.296   2.497  0.2668 -0.3997 -0.3319
  131OSM    C2F14068   0.689   6.147   2.683 -0.2409  0.3546 -0.2007
  131OSM    H2F14069   0.798   6.157   2.664 -0.3805  1.8526 -0.2961
  131OSM    H2G14070   0.657   6.046   2.649  1.8712 -0.5146  0.2682
  131OSM    C3F14071   0.661   6.170   2.834 -0.9273  0.6454 -0.3681
  131OSM    H3F14072   0.713   6.081   2.875 -2.5235 -0.3432 -0.3832
  131OSM    H3G14073   0.552   6.167   2.856 -1.0354 -0.6280 -0.9838
  131OSM    C4F14074   0.718   6.298   2.902 -0.0431 -1.0090 -0.0574
  131OSM    H4F14075   0.672   6.392   2.863  3.4310  1.4126  1.1600
  131OSM    H4G14076   0.824   6.299   2.868  0.4126  0.3135  1.2351
  131OSM    C5F14077   0.705   6.290   3.056 -0.4660 -0.4971 -0.0407
  131OSM    H5F14078   0.742   6.190   3.087 -0.0183 -0.3839 -0.1935
  131OSM    H5G14079   0.598   6.289   3.084 -0.8681 -0.9334 -1.5216
  131OSM    C6F14080   0.771   6.409   3.140  0.5350 -0.4899  0.2457
  131OSM    H6F14081   0.880   6.414   3.119  0.3258 -1.4477 -1.1996
  131OSM    H6G14082   0.750   6.381   3.246  1.4856  0.0386  0.5880
  131OSM    C7F14083   0.710   6.546   3.097  0.1633  0.1190 -0.0539
  131OSM    H7F14084   0.602   6.536   3.077 -0.4943  1.8785  2.1669
  131OSM    H7G14085   0.772   6.578   3.011 -0.4134  0.1521 -0.4589
  131OSM    C8F14086   0.722   6.651   3.217  0.0318  0.1957  0.3697
  131OSM    H8F14087   0.707   6.749   3.168  1.8548  0.3386  0.0201
  131OSM    H8G14088   0.828   6.670   3.244  0.7004  0.2621 -2.0045
  131OSM    C9F14089   0.631   6.612   3.330 -0.1190 -0.2976  0.1471
  131OSM    H9F14090   0.544   6.552   3.300  0.4460 -0.4642 -1.2554
  131OSM   C10F14091   0.660   6.640   3.462 -0.1549  0.6867  0.1477
  131OSM   H10F14092   0.586   6.608   3.536  1.4756 -0.9679  1.1316
  131OSM   C11F14093   0.786   6.701   3.520 -0.0572 -0.0476  0.2774
  131OSM   H11F14094   0.772   6.811   3.520 -0.7163 -0.0480 -2.6387
  131OSM   H11G14095   0.871   6.689   3.450  1.7795  1.4954  2.1092
  131OSM   C12F14096   0.819   6.649   3.656  0.3668  0.8067 -0.1110
  131OSM   H12F14097   0.733   6.664   3.724 -0.6698 -1.7218 -0.7356
  131OSM   H12G14098   0.908   6.696   3.703 -0.1576  1.5460  0.1581
  131OSM   C13F14099   0.835   6.496   3.644 -0.8851  0.2346 -1.4869
  131OSM   H13F14100   0.905   6.485   3.558  2.5377  0.1596  1.1237
  131OSM   H13G14101   0.739   6.447   3.615 -1.0425  0.1933 -0.9149
  131OSM   C14F14102   0.892   6.442   3.777  0.1363  0.2180 -0.0380
  131OSM   H14F14103   0.824   6.487   3.853 -1.5549 -1.0694 -0.7315
  131OSM   H14G14104   0.990   6.487   3.804  0.0768  0.3726 -0.0792
  131OSM   C15F14105   0.907   6.288   3.778  0.0758 -0.0541 -0.4112
  131OSM   H15F14106   0.968   6.254   3.692  1.6712 -1.4275  1.1830
  131OSM   H15G14107   0.810   6.237   3.760  0.4343 -1.5704  1.6108
  131OSM   C16F14108   0.965   6.226   3.905  0.5693  0.3819 -0.1433
  131OSM   H16F14109   0.960   6.116   3.898  1.1297  0.4161 -1.5113
  131OSM   H16G14110   0.902   6.257   3.991  1.4518  2.3599 -0.1506
  131OSM   C17F14111   1.106   6.261   3.928 -0.5732 -0.5093 -0.4386
  131OSM   H17F14112   1.123   6.364   3.966  0.9941 -0.9555  0.1732
  131OSM   H17G14113   1.169   6.256   3.837  1.2646  1.1575  0.6387
  131OSM   C18F14114   1.165   6.161   4.029 -0.3003  0.7600  0.0874
  131OSM   H18F14115   1.091   6.145   4.110 -2.0087  0.7835 -1.4050
  131OSM   H18G14116   1.259   6.202   4.073 -0.3725  0.9176  0.0936
  131OSM   H18H14117   1.188   6.067   3.974 -0.7850 -0.6491  2.1724
  132OSM      N14118   1.834   0.785   1.768  0.4907 -0.2914 -0.0902
  132OSM    C1514119   1.751   0.665   1.774 -0.0484  0.0906  0.7138
  132OSM   H15A14120   1.739   0.625   1.873 -0.6304  0.1203  0.6570
  132OSM   H15B14121   1.795   0.587   1.712  0.6625  0.2699  0.9806
  132OSM   H15C14122   1.651   0.684   1.739  0.2077 -0.2985 -0.2783
  132OSM    C1414123   1.973   0.739   1.781  0.8416 -0.1889 -0.0302
  132OSM   H14A14124   2.053   0.810   1.782  0.2456  0.4844  1.3220
  132OSM   H14B14125   1.998   0.658   1.713 -0.5749 -0.9653  0.3135
  132OSM   H14C14126   1.970   0.681   1.872 -0.2274 -1.2871 -0.7208
  132OSM    C1314127   1.818   0.847   1.627 -0.1996  0.4248  0.2979
  132OSM   H13A14128   1.863   0.766   1.571 -0.8789  0.7110 -0.6869
  132OSM   H13B14129   1.880   0.935   1.614  2.0078 -0.4162  3.7464
  132OSM   H13C14130   1.718   0.871   1.593  0.0180  3.1467  1.3306
  132OSM    C1214131   1.798   0.885   1.885  0.4099  0.1928 -0.5647
  132OSM   H12A14132   1.880   0.956   1.881  0.4280  0.4855  2.5880
  132OSM   H12B14133   1.799   0.834   1.980  0.0919  0.1973 -0.5600
  132OSM    C1114134   1.659   0.957   1.891 -0.1369 -0.0457 -0.2230
  132OSM   H11A14135   1.662   1.027   1.805  0.2592  0.4255  0.1647
  132OSM   H11B14136   1.660   1.017   1.985  1.2438 -1.4116  0.6825
  132OSM      P14137   1.415   0.918   1.823  0.2109 -0.4726 -0.0357
  132OSM    O1314138   1.432   0.973   1.685  0.2960  0.0535  0.0137
  132OSM    O1414139   1.314   0.811   1.822 -0.0985  0.4560  0.0163
  132OSM    O1114140   1.374   1.036   1.927 -0.5744  0.2514  0.0317
  132OSM    O1214141   1.551   0.866   1.881 -0.2380 -0.2365  0.2966
  132OSM    C1S14142   1.339   1.013   2.063  0.2868  0.1163 -0.4202
  132OSM    H1S14143   1.415   0.955   2.119  1.5068 -0.2392 -2.3439
  132OSM    H1T14144   1.243   0.958   2.071  0.1425  0.1606 -1.6311
  132OSM     NF14145   1.342   1.126   2.289  0.5152  0.3993  0.8813
  132OSM    HNF14146   1.251   1.111   2.326 -1.3996  0.1324 -3.3865
  132OSM    C2S14147   1.336   1.146   2.139  0.1275  0.0445 -0.4383
  132OSM    H2S14148   1.417   1.215   2.106 -0.1337  0.2061 -0.7566
  132OSM    C3S14149   1.210   1.224   2.095 -0.2217  0.0029  0.6148
  132OSM    H3S14150   1.122   1.157   2.100 -0.0137 -0.2168  1.5599
  132OSM     O314151   1.215   1.248   1.957  0.4156 -0.2946 -0.4291
  132OSM    HO314152   1.288   1.189   1.936  0.1108 -0.6932 -0.3784
  132OSM    C4S14153   1.188   1.350   2.176 -0.6580 -0.1998 -0.1855
  132OSM    H4S14154   1.266   1.426   2.164 -2.9582  2.6288  1.3826
  132OSM    C5S14155   1.093   1.397   2.263 -0.2166  0.6830  0.0140
  132OSM    H5S14156   1.011   1.328   2.288 -0.1466 -0.4572 -2.5837
  132OSM    C6S14157   1.074   1.540   2.320 -0.4707  0.4491  0.5533
  132OSM    H6S14158   0.978   1.587   2.291  0.3867  0.5422 -2.4905
  132OSM    H6T14159   1.153   1.616   2.304 -0.0757 -0.1677 -0.5507
  132OSM    C7S14160   1.077   1.529   2.468 -0.5679  0.0241 -0.2805
  132OSM    H7S14161   1.057   1.627   2.516  2.0888  0.2123  0.6330
  132OSM    H7T14162   1.185   1.513   2.489 -0.6616  0.1584  0.3404
  132OSM    C8S14163   0.992   1.422   2.536  0.2728 -0.3811 -0.0629
  132OSM    H8S14164   1.001   1.319   2.495 -1.4399 -1.0641  1.1489
  132OSM    H8T14165   0.885   1.453   2.539  0.6579  0.9926  0.0535
  132OSM    C9S14166   1.018   1.419   2.697  0.5457 -0.4301  0.5498
  132OSM    H9S14167   0.938   1.350   2.731  1.2954 -2.2649 -1.2055
  132OSM    H9T14168   1.015   1.524   2.733 -3.1381 -0.2834  0.1972
  132OSM   C10S14169   1.149   1.350   2.731 -0.2972 -0.4238 -0.1141
  132OSM   H10S14170   1.238   1.393   2.679  1.0731 -0.8598  1.7449
  132OSM   H10T14171   1.149   1.244   2.697  0.1691 -0.1832 -0.8949
  132OSM   C11S14172   1.183   1.368   2.878  0.1013  0.0893  0.0388
  132OSM   H11S14173   1.190   1.478   2.895  0.1154  0.3031 -1.3089
  132OSM   H11T14174   1.276   1.316   2.911  1.4607  1.3847 -1.6017
  132OSM   C12S14175   1.086   1.294   2.981  0.0387 -0.9924  0.2932
  132OSM   H12S14176   1.102   1.186   2.961  0.3905 -1.1427  1.3537
  132OSM   H12T14177   0.980   1.321   2.959 -0.6963 -2.5143  1.7496
  132OSM   C13S14178   1.120   1.328   3.124 -0.0417 -0.8577 -0.5913
  132OSM   H13S14179   1.223   1.370   3.128 -0.2537 -0.4021  0.8778
  132OSM   H13T14180   1.101   1.235   3.183 -0.2704  0.1304  0.9630
  132OSM   C14S14181   1.046   1.449   3.180 -1.2670  0.0828 -0.4557
  132OSM   H14S14182   0.940   1.416   3.187 -0.4168 -2.7580  0.3322
  132OSM   H14T14183   1.051   1.535   3.109 -1.7680  0.7347  0.2812
  132OSM   C15S14184   1.096   1.493   3.318 -0.4777 -0.1812 -0.7217
  132OSM   H15S14185   1.198   1.537   3.307 -1.1649  1.3945 -0.9305
  132OSM   H15T14186   1.102   1.402   3.381  1.3397  0.4428  0.0942
  132OSM   C16S14187   1.008   1.606   3.379 -0.1420  0.2580  0.0964
  132OSM   H16S14188   0.913   1.558   3.412  0.1910 -0.8983 -0.5454
  132OSM   H16T14189   0.993   1.691   3.308 -0.5209 -0.6732 -0.9795
  132OSM   C17S14190   1.061   1.659   3.510 -0.8750  0.1122  0.5815
  132OSM   H17S14191   1.148   1.712   3.466 -0.7365 -0.5649  0.0385
  132OSM   H17T14192   1.100   1.566   3.557 -2.1501 -0.4571  0.5492
  132OSM   C18S14193   0.964   1.737   3.603 -0.2506  0.3001  0.5895
  132OSM   H18S14194   0.877   1.674   3.631  1.6233 -2.1448  1.2541
  132OSM   H18T14195   0.927   1.822   3.542  0.3524 -0.3279 -0.6814
  132OSM   H18U14196   1.017   1.767   3.697 -0.9664  1.2217  0.7120
  132OSM    C1F14197   1.448   1.090   2.359 -0.3385  0.4311 -0.4171
  132OSM     OF14198   1.558   1.073   2.303  0.2951 -0.2847 -0.1915
  132OSM    C2F14199   1.428   1.047   2.501  0.7196 -0.3053  0.0485
  132OSM    H2F14200   1.376   0.949   2.508  1.5044 -0.6748  1.1275
  132OSM    H2G14201   1.356   1.120   2.544  1.4158  1.3650 -1.4952
  132OSM    C3F14202   1.561   1.060   2.576 -0.5436 -0.4035 -0.3632
  132OSM    H3F14203   1.597   1.165   2.576  2.0764 -1.1176 -4.1923
  132OSM    H3G14204   1.636   0.984   2.546 -2.1745 -1.9056 -0.7954
  132OSM    C4F14205   1.536   1.032   2.723 -0.1133 -0.6290  0.5396
  132OSM    H4F14206   1.504   0.926   2.730  0.6126 -0.7810  1.8035
  132OSM    H4G14207   1.458   1.101   2.762  1.0151  0.4717  0.9432
  132OSM    C5F14208   1.660   1.056   2.810 -0.1873 -0.2177 -0.2888
  132OSM    H5F14209   1.643   1.016   2.912 -1.4972 -0.8892 -0.7552
  132OSM    H5G14210   1.680   1.164   2.827 -0.8419 -0.6230  4.4871
  132OSM    C6F14211   1.791   0.989   2.768  0.1370 -0.2989 -0.1558
  132OSM    H6F14212   1.817   1.023   2.666  0.5408  3.1833  0.9850
  132OSM    H6G14213   1.784   0.879   2.759 -0.9106 -0.1689 -1.0193
  132OSM    C7F14214   1.915   1.028   2.863 -0.1614 -0.5981 -0.0921
  132OSM    H7F14215   1.909   0.964   2.954  0.7225 -1.1382 -0.3988
  132OSM    H7G14216   1.914   1.133   2.901  2.9728 -1.6752  3.5318
  132OSM    C8F14217   2.051   1.003   2.787 -0.0121 -0.3060 -0.7818
  132OSM    H8F14218   2.066   1.059   2.692  2.6759  0.3063 -0.0812
  132OSM    H8G14219   2.059   0.896   2.759 -1.1370 -0.3071 -1.1578
  132OSM    C9F14220   2.163   1.037   2.879 -0.1477 -0.3746 -0.4918
  132OSM    H9F14221   2.194   1.141   2.865 -1.1984 -0.1671 -1.3679
  132OSM   C10F14222   2.204   0.959   2.979 -0.3682 -0.7908 -0.4938
  132OSM   H10F14223   2.284   0.993   3.047 -0.0296 -2.7399  0.1571
  132OSM   C11F14224   2.154   0.822   3.024 -0.4392  0.3747 -0.4691
  132OSM   H11F14225   2.152   0.751   2.939  1.4059  2.0303 -1.9834
  132OSM   H11G14226   2.050   0.830   3.063 -0.3604  2.5666 -0.6147
  132OSM   C12F14227   2.245   0.767   3.138 -0.1373 -0.5816 -0.2725
  132OSM   H12F14228   2.351   0.789   3.114 -0.2528  0.2831 -0.0203
  132OSM   H12G14229   2.244   0.656   3.134  0.4058 -0.5609 -1.9751
  132OSM   C13F14230   2.210   0.823   3.271 -0.3907  0.2825  0.6950
  132OSM   H13F14231   2.101   0.808   3.287 -0.4935  1.3387  1.0706
  132OSM   H13G14232   2.242   0.930   3.266 -0.8418  0.5194  2.3519
  132OSM   C14F14233   2.290   0.764   3.388  0.1456 -0.1474 -0.4833
  132OSM   H14F14234   2.393   0.805   3.390 -0.3125  1.0265  0.2319
  132OSM   H14G14235   2.302   0.655   3.372  2.6362 -0.4832  2.5605
  132OSM   C15F14236   2.205   0.776   3.522  0.7259  0.7292  0.2278
  132OSM   H15F14237   2.105   0.732   3.501  0.0279  1.4841  1.7878
  132OSM   H15G14238   2.194   0.885   3.543 -0.0116  1.3582 -2.8849
  132OSM   C16F14239   2.282   0.719   3.644 -0.7305 -0.4887  0.1557
  132OSM   H16F14240   2.379   0.773   3.641  0.4022 -2.4337 -2.7478
  132OSM   H16G14241   2.304   0.617   3.609 -0.4059 -0.3336 -0.0918
  132OSM   C17F14242   2.212   0.721   3.778  0.4065 -1.0469  0.0906
  132OSM   H17F14243   2.130   0.649   3.757 -0.0883 -0.0756 -1.5486
  132OSM   H17G14244   2.169   0.821   3.800 -1.5382 -1.6644 -0.6379
  132OSM   C18F14245   2.291   0.669   3.893  0.0737  0.1367  0.2202
  132OSM   H18F14246   2.367   0.742   3.926  2.8827 -0.8604 -3.3167
  132OSM   H18G14247   2.342   0.573   3.870 -0.0857  0.1684 -0.2915
  132OSM   H18H14248   2.229   0.665   3.985 -0.1926  3.3960  0.2829
  133OSM      N14249   6.762   2.330   1.796  0.6007  0.0117  0.2467
  133OSM    C1514250   6.766   2.443   1.894  0.1306  0.1577  0.2655
  133OSM   H15A14251   6.682   2.511   1.903  0.2869  1.2566 -4.2714
  133OSM   H15B14252   6.850   2.506   1.869 -0.0293  0.9397  1.6183
  133OSM   H15C14253   6.793   2.410   1.993 -1.0365  0.4165  0.6922
  133OSM    C1414254   6.651   2.236   1.832  0.5234  0.8018 -0.1464
  133OSM   H14A14255   6.653   2.142   1.780  2.0936  0.3464  0.6704
  133OSM   H14B14256   6.553   2.280   1.823 -0.1005 -0.7065 -0.9696
  133OSM   H14C14257   6.655   2.209   1.937  0.1321  0.5385 -0.1983
  133OSM    C1314258   6.725   2.387   1.656 -0.2032  0.3587 -0.8048
  133OSM   H13A14259   6.782   2.475   1.630 -0.4999  0.0127 -2.7980
  133OSM   H13B14260   6.618   2.405   1.655 -0.0075  1.5687 -1.0784
  133OSM   H13C14261   6.747   2.315   1.579 -0.0425  0.9284 -1.2952
  133OSM    C1214262   6.891   2.257   1.798 -0.0362 -1.0835 -0.2640
  133OSM   H12A14263   6.899   2.214   1.896  1.3122 -1.2217 -0.4081
  133OSM   H12B14264   6.974   2.327   1.796 -1.3731  0.5712 -0.9579
  133OSM    C1114265   6.905   2.153   1.684  0.0686  0.0033 -0.1634
  133OSM   H11A14266   6.963   2.211   1.610 -2.0566  2.5275  0.0279
  133OSM   H11B14267   6.806   2.121   1.647 -0.6900  0.5531  1.3079
  133OSM      P14268   6.900   1.928   1.812  0.0473  0.1503 -0.5734
  133OSM    O1314269   6.779   1.903   1.736  0.0252 -0.8875 -0.5825
  133OSM    O1414270   6.983   1.807   1.833  0.4407 -0.8668  0.2497
  133OSM    O1114271   6.844   1.980   1.951  0.0079 -0.4025  0.7473
  133OSM    O1214272   6.987   2.045   1.736 -0.3069  0.1895 -0.2716
  133OSM    C1S14273   6.888   1.939   2.083 -0.4469 -0.0285  0.6755
  133OSM    H1S14274   6.995   1.968   2.089 -0.3628  0.0608 -0.7879
  133OSM    H1T14275   6.878   1.828   2.091  2.7054 -0.6225 -1.6670
  133OSM     NF14276   6.864   1.989   2.329  0.2930  0.1104  0.3184
  133OSM    HNF14277   6.805   1.933   2.386  1.5174 -0.9886  0.5827
  133OSM    C2S14278   6.802   2.010   2.194 -0.1749  0.1555  0.0624
  133OSM    H2S14279   6.826   2.115   2.166 -0.0748 -0.0257 -0.5411
  133OSM    C3S14280   6.654   1.980   2.185 -0.0932  0.7692  1.0868
  133OSM    H3S14281   6.641   1.871   2.203 -0.6780  0.8863  1.4075
  133OSM     O314282   6.598   2.003   2.058  0.0630 -0.0443  0.1616
  133OSM    HO314283   6.666   1.998   1.990 -0.1985  3.7649 -0.6287
  133OSM    C4S14284   6.567   2.055   2.285 -0.2219 -0.0294 -0.0231
  133OSM    H4S14285   6.559   2.013   2.387  0.0253  3.1936  1.4325
  133OSM    C5S14286   6.493   2.165   2.269 -0.1180  0.4708  0.9731
  133OSM    H5S14287   6.476   2.201   2.166  1.4213 -1.2881  0.0413
  133OSM    C6S14288   6.402   2.229   2.370  0.6964 -0.6362 -0.2117
  133OSM    H6S14289   6.297   2.236   2.334  0.7770 -3.4955 -1.2533
  133OSM    H6T14290   6.434   2.335   2.376 -1.0023 -0.0799 -0.4428
  133OSM    C7S14291   6.410   2.168   2.510 -0.1407  0.5543  0.0468
  133OSM    H7S14292   6.513   2.162   2.551 -0.1767  1.2448  0.2579
  133OSM    H7T14293   6.372   2.064   2.507 -0.1531  0.5026  1.3620
  133OSM    C8S14294   6.331   2.255   2.613 -0.8375  0.1266  0.2427
  133OSM    H8S14295   6.236   2.279   2.561 -0.3081 -1.4864 -1.5952
  133OSM    H8T14296   6.384   2.349   2.637 -0.0201 -0.3626  0.3913
  133OSM    C9S14297   6.297   2.179   2.745  0.2009  0.1152  0.9341
  133OSM    H9S14298   6.219   2.244   2.790  1.4588  1.4307  1.2771
  133OSM    H9T14299   6.386   2.172   2.811  1.8021  1.7066 -0.9527
  133OSM   C10S14300   6.231   2.041   2.717 -0.5951 -0.3019 -0.9086
  133OSM   H10S14301   6.302   1.967   2.677  1.2783 -0.1406  1.8315
  133OSM   H10T14302   6.136   2.054   2.661 -1.4238  0.4354  0.5896
  133OSM   C11S14303   6.179   1.975   2.854  0.1686  0.0553  0.5656
  133OSM   H11S14304   6.117   1.889   2.822 -0.2170 -0.0238  1.4962
  133OSM   H11T14305   6.123   2.050   2.914  0.5259 -0.3391  1.4085
  133OSM   C12S14306   6.290   1.940   2.949  0.1833 -0.2355 -0.3139
  133OSM   H12S14307   6.349   2.034   2.960  1.7851 -1.2850  0.4141
  133OSM   H12T14308   6.356   1.861   2.907  1.4214 -0.1446  1.3893
  133OSM   C13S14309   6.246   1.899   3.089  0.8618 -0.0563 -0.3014
  133OSM   H13S14310   6.158   1.832   3.088  1.0177 -0.3311 -2.6683
  133OSM   H13T14311   6.198   1.991   3.128  2.8254  0.6170  0.6168
  133OSM   C14S14312   6.367   1.842   3.171  0.0052  0.3559  0.5889
  133OSM   H14S14313   6.446   1.919   3.161 -0.9655  1.4824  1.3623
  133OSM   H14T14314   6.396   1.751   3.114 -2.7048  0.7239 -1.5937
  133OSM   C15S14315   6.350   1.802   3.321 -0.0646  0.5226 -0.7634
  133OSM   H15S14316   6.254   1.746   3.325  0.3239 -0.1303  2.2860
  133OSM   H15T14317   6.360   1.896   3.380 -0.4202 -0.1329  0.3767
  133OSM   C16S14318   6.463   1.728   3.393  0.5413  0.7999 -0.0200
  133OSM   H16S14319   6.566   1.759   3.364  0.9434 -0.7256 -0.3757
  133OSM   H16T14320   6.436   1.628   3.352 -0.8342  1.2739 -0.3125
  133OSM   C17S14321   6.451   1.715   3.542  0.9467  0.4108  1.0979
  133OSM   H17S14322   6.341   1.705   3.557  0.4565  1.3091 -1.3552
  133OSM   H17T14323   6.477   1.808   3.597  2.0822  1.5287 -1.1832
  133OSM   C18S14324   6.524   1.592   3.586  0.4173  0.2376 -0.2564
  133OSM   H18S14325   6.496   1.567   3.691 -0.4400 -1.1143 -0.7840
  133OSM   H18T14326   6.632   1.614   3.574 -0.0205  2.0857 -1.1473
  133OSM   H18U14327   6.511   1.498   3.529  3.0518  0.4755 -1.3719
  133OSM    C1F14328   6.993   2.033   2.348  0.6856  1.1145 -0.3033
  133OSM     OF14329   7.050   2.102   2.266  0.3958  0.4846  0.2281
  133OSM    C2F14330   7.052   1.985   2.477 -0.3408  0.2139 -0.5119
  133OSM    H2F14331   7.096   1.887   2.449 -2.5784 -0.0764 -3.5545
  133OSM    H2G14332   6.976   1.972   2.558  1.6579 -1.6953  1.1754
  133OSM    C3F14333   7.179   2.074   2.527  0.6794  0.1148  0.7353
  133OSM    H3F14334   7.161   2.183   2.542  0.8288  0.1885  0.3855
  133OSM    H3G14335   7.248   2.053   2.442 -1.8987 -1.9219 -1.0168
  133OSM    C4F14336   7.247   2.008   2.643 -0.2344 -0.7798  0.2806
  133OSM    H4F14337   7.348   2.054   2.642 -0.2176 -0.5019 -4.3213
  133OSM    H4G14338   7.255   1.897   2.643 -2.6402 -1.0178  0.0511
  133OSM    C5F14339   7.176   2.051   2.775 -0.6512 -0.4619 -0.2759
  133OSM    H5F14340   7.099   1.973   2.792 -0.1516 -0.4369  2.5149
  133OSM    H5G14341   7.142   2.155   2.754 -1.3314 -0.7602 -0.6912
  133OSM    C6F14342   7.256   2.048   2.904  1.0306 -0.7235  0.5703
  133OSM    H6F14343   7.331   2.130   2.903 -0.2068  0.4549 -0.1469
  133OSM    H6G14344   7.311   1.952   2.909  0.6389 -1.0494 -0.7564
  133OSM    C7F14345   7.171   2.074   3.027  0.1228  0.8347 -0.1265
  133OSM    H7F14346   7.104   1.990   3.054 -0.0960  1.3138  0.8519
  133OSM    H7G14347   7.103   2.155   2.991  0.1859  1.7389  1.6660
  133OSM    C8F14348   7.242   2.136   3.148  0.0302  0.3230 -0.0922
  133OSM    H8F14349   7.168   2.153   3.229  0.7120 -2.2845  1.1863
  133OSM    H8G14350   7.297   2.228   3.117 -1.2276  1.3250  0.5507
  133OSM    C9F14351   7.349   2.043   3.205  0.2233 -0.4651  0.5023
  133OSM    H9F14352   7.389   1.958   3.147  2.1067  1.5685 -1.3865
  133OSM   C10F14353   7.400   2.064   3.329  0.0029 -0.0077 -0.0453
  133OSM   H10F14354   7.467   1.984   3.366 -0.6242 -0.4585  0.1309
  133OSM   C11F14355   7.348   2.162   3.428 -0.3232  0.7400 -0.5198
  133OSM   H11F14356   7.244   2.200   3.417 -1.0593 -0.2343  2.3377
  133OSM   H11G14357   7.416   2.249   3.426  1.4679 -0.5323  1.5762
  133OSM   C12F14358   7.347   2.095   3.566  0.4321 -0.1621  0.6152
  133OSM   H12F14359   7.453   2.070   3.589  0.5448 -0.6959 -0.4389
  133OSM   H12G14360   7.299   1.995   3.561  3.8799 -1.9658 -3.1296
  133OSM   C13F14361   7.292   2.181   3.683 -0.1656 -0.0497  0.1654
  133OSM   H13F14362   7.214   2.251   3.646 -1.4015 -1.2183  0.4757
  133OSM   H13G14363   7.377   2.247   3.712 -0.0766  0.0847 -0.3867
  133OSM   C14F14364   7.258   2.098   3.808  0.5234 -0.1467  0.3535
  133OSM   H14F14365   7.171   2.036   3.777 -0.3368  0.7279  0.9398
  133OSM   H14G14366   7.224   2.176   3.880  2.0572  0.8744  0.0119
  133OSM   C15F14367   7.375   2.007   3.846 -0.0831  0.3147 -0.1553
  133OSM   H15F14368   7.468   2.067   3.861  1.3462 -1.9213  0.3319
  133OSM   H15G14369   7.387   1.920   3.778 -0.7923 -0.2363  0.4218
  133OSM   C16F14370   7.339   1.936   3.980 -0.0885 -0.0334  0.5219
  133OSM   H16F14371   7.252   1.870   3.959 -1.1521  2.0500 -2.2250
  133OSM   H16G14372   7.307   2.015   4.052 -1.4593  0.5648 -0.7062
  133OSM   C17F14373   7.464   1.862   4.039  0.6261 -0.3548 -0.1783
  133OSM   H17F14374   7.494   1.782   3.968 -2.3982 -1.5082 -0.2956
  133OSM   H17G14375   7.429   1.828   4.139 -0.2637 -0.1534 -0.4069
  133OSM   C18F14376   7.590   1.946   4.069  0.1371 -0.7226  0.5249
  133OSM   H18F14377   7.567   2.026   4.143 -0.1519 -0.6855  0.3983
  133OSM   H18G14378   7.634   1.999   3.982 -1.8557  1.8047  0.9192
  133OSM   H18H14379   7.666   1.884   4.121 -0.0288  0.2437  1.9579
  134OSM      N14380   0.113   5.452   2.133  0.3961  0.4007 -0.5903
  134OSM    C1514381   0.094   5.408   1.990  0.4546  0.1840  0.1465
  134OSM   H15A14382   0.191   5.399   1.944 -0.0880 -0.3464 -0.9301
  134OSM   H15B14383   0.035   5.473   1.927  0.3132  0.0426  0.1309
  134OSM   H15C14384   0.054   5.308   1.987 -0.9269  0.7209 -0.3546
  134OSM    C1414385   0.189   5.342   2.212  0.7531 -0.6377  0.2679
  134OSM   H14A14386   0.290   5.341   2.174  0.6580 -0.2256 -0.0094
  134OSM   H14B14387   0.150   5.245   2.185 -0.8990  0.8315 -3.3197
  134OSM   H14C14388   0.205   5.363   2.316  1.1479 -0.6774  0.2159
  134OSM    C1314389   0.190   5.578   2.136 -0.1547  0.9322 -0.1546
  134OSM   H13A14390   0.278   5.559   2.077 -0.7992 -0.1587 -0.8142
  134OSM   H13B14391   0.214   5.620   2.232  0.5698 -0.6887  0.3995
  134OSM   H13C14392   0.136   5.653   2.080 -0.8203 -1.1743 -2.5258
  134OSM    C1214393  -0.027   5.475   2.191  0.6815  0.0415  0.1886
  134OSM   H12A14394  -0.076   5.542   2.122  1.6995  0.0147 -0.5972
  134OSM   H12B14395  -0.021   5.515   2.291 -0.9225 -1.7704  1.0824
  134OSM    C1114396  -0.106   5.343   2.201 -0.1464 -0.5816 -0.0823
  134OSM   H11A14397  -0.171   5.350   2.291  0.9470 -1.1546  0.7743
  134OSM   H11B14398  -0.045   5.254   2.227  0.6509 -0.0474 -0.1017
  134OSM      P14399  -0.310   5.381   2.034  0.0375 -0.1311 -0.0790
  134OSM    O1314400  -0.293   5.528   2.047 -0.4831  0.2980 -0.3542
  134OSM    O1414401  -0.345   5.319   1.907 -0.2944  0.3162  0.0502
  134OSM    O1114402  -0.412   5.341   2.142 -0.0272 -0.1574 -0.6326
  134OSM    O1214403  -0.174   5.316   2.077 -0.0270  0.1482  0.3007
  134OSM    C1S14404  -0.411   5.208   2.209  0.6231 -0.3474 -0.0147
  134OSM    H1S14405  -0.306   5.170   2.213  1.2711  1.3006 -0.6283
  134OSM    H1T14406  -0.487   5.143   2.159  0.1558  1.0372 -1.1734
  134OSM     NF14407  -0.437   5.101   2.422  0.1755  0.1901  0.5739
  134OSM    HNF14408  -0.525   5.058   2.441  0.9667 -0.9429  1.8154
  134OSM    C2S14409  -0.454   5.229   2.357 -0.6895 -0.8167 -0.2100
  134OSM    H2S14410  -0.387   5.305   2.403 -1.2876 -0.5735  0.2846
  134OSM    C3S14411  -0.597   5.288   2.367  0.4441  0.4326 -0.1578
  134OSM    H3S14412  -0.660   5.204   2.330  0.2181  0.3884  0.3144
  134OSM     O314413  -0.626   5.404   2.290  0.2728  1.1409  0.3172
  134OSM    HO314414  -0.538   5.429   2.261  0.1483  1.1866 -0.0325
  134OSM    C4S14415  -0.631   5.305   2.510 -0.2656  0.3448 -0.4047
  134OSM    H4S14416  -0.671   5.215   2.558 -3.0756  1.3924 -0.5885
  134OSM    C5S14417  -0.622   5.422   2.579 -0.1108  0.1041 -0.5934
  134OSM    H5S14418  -0.607   5.522   2.535  1.2722  1.0140  1.7282
  134OSM    C6S14419  -0.642   5.432   2.726  0.0197 -0.8241 -0.1564
  134OSM    H6S14420  -0.650   5.332   2.774  0.3641 -1.3536 -1.1808
  134OSM    H6T14421  -0.736   5.486   2.751  0.8605  0.2184  0.8743
  134OSM    C7S14422  -0.520   5.491   2.799 -0.0695 -0.3379  0.0059
  134OSM    H7S14423  -0.504   5.597   2.768 -2.8526  0.3457  0.6364
  134OSM    H7T14424  -0.429   5.429   2.783  0.3834  0.6454 -1.5481
  134OSM    C8S14425  -0.544   5.511   2.948 -0.1671  0.0964  0.3513
  134OSM    H8S14426  -0.592   5.416   2.982 -2.8828  1.1188 -0.3818
  134OSM    H8T14427  -0.618   5.591   2.971 -1.2727 -0.2225 -1.8796
  134OSM    C9S14428  -0.416   5.539   3.021 -0.3080  1.2040 -0.2762
  134OSM    H9S14429  -0.360   5.625   2.977 -0.2411  0.4997 -1.6142
  134OSM    H9T14430  -0.344   5.455   3.008 -2.0875 -0.3838 -0.2853
  134OSM   C10S14431  -0.432   5.544   3.175 -0.0588  0.2592  0.4139
  134OSM   H10S14432  -0.332   5.530   3.222  0.1322  1.0951  0.2748
  134OSM   H10T14433  -0.500   5.461   3.202  1.0370 -0.9206 -0.2631
  134OSM   C11S14434  -0.503   5.669   3.221  1.1669 -0.3587 -0.9706
  134OSM   H11S14435  -0.613   5.651   3.215  1.0755  0.0536 -0.5823
  134OSM   H11T14436  -0.472   5.751   3.153  0.7387  0.6573  0.0129
  134OSM   C12S14437  -0.462   5.701   3.364 -0.2523 -0.3575 -0.2141
  134OSM   H12S14438  -0.496   5.804   3.386  1.2360  0.3076 -0.9198
  134OSM   H12T14439  -0.351   5.700   3.370 -0.1811 -0.8310 -1.3811
  134OSM   C13S14440  -0.495   5.610   3.482  0.1031 -0.0342 -0.1322
  134OSM   H13S14441  -0.444   5.515   3.457  0.7758  0.8789 -2.4340
  134OSM   H13T14442  -0.604   5.586   3.486  0.7458 -3.5557 -0.1282
  134OSM   C14S14443  -0.439   5.669   3.609 -0.2652 -0.0975  0.1829
  134OSM   H14S14444  -0.333   5.700   3.599 -0.9121  2.1333 -0.2806
  134OSM   H14T14445  -0.435   5.582   3.679  1.2745 -0.2208 -0.0354
  134OSM   C15S14446  -0.522   5.783   3.669 -0.0151 -0.2925 -0.3377
  134OSM   H15S14447  -0.621   5.796   3.620 -1.0177 -1.1098  1.3653
  134OSM   H15T14448  -0.463   5.876   3.653  2.5354 -2.0525 -1.9218
  134OSM   C16S14449  -0.558   5.770   3.821 -0.2917 -0.0731 -0.0297
  134OSM   H16S14450  -0.645   5.704   3.840 -0.9340  1.2696  1.9918
  134OSM   H16T14451  -0.586   5.870   3.861 -0.2817 -0.5299  1.1405
  134OSM   C17S14452  -0.444   5.718   3.920  0.1251  0.4517 -0.0752
  134OSM   H17S14453  -0.348   5.761   3.884  0.7668  0.6349  1.7456
  134OSM   H17T14454  -0.433   5.608   3.909  0.5163  0.5637 -0.9163
  134OSM   C18S14455  -0.474   5.761   4.066 -0.5439  0.0035  0.0294
  134OSM   H18S14456  -0.583   5.762   4.084 -0.7912 -3.4268 -0.6235
  134OSM   H18T14457  -0.439   5.867   4.069 -0.9769  0.3826 -3.6700
  134OSM   H18U14458  -0.424   5.688   4.133  1.6053  0.2100 -1.2599
  134OSM    C1F14459  -0.321   5.055   2.459 -0.0393  0.3183 -0.3709
  134OSM     OF14460  -0.213   5.102   2.422 -0.3566 -0.0069 -0.5401
  134OSM    C2F14461  -0.323   4.935   2.541  0.1533  0.0099 -0.4563
  134OSM    H2F14462  -0.225   4.883   2.537 -0.1769 -0.7877  1.1077
  134OSM    H2G14463  -0.400   4.863   2.505  0.3917  0.3417 -1.6748
  134OSM    C3F14464  -0.353   4.957   2.692 -0.0062  0.0833 -0.2002
  134OSM    H3F14465  -0.284   5.032   2.738  0.5186 -0.6860  0.2908
  134OSM    H3G14466  -0.337   4.867   2.755  0.1689 -0.4276 -0.9593
  134OSM    C4F14467  -0.495   5.006   2.715  0.0341  0.5001  0.1922
  134OSM    H4F14468  -0.566   4.950   2.650 -2.6369  1.8109  1.7901
  134OSM    H4G14469  -0.504   5.110   2.676  0.1954  0.5566  0.3009
  134OSM    C5F14470  -0.544   4.991   2.862 -0.0494 -0.4684  0.3091
  134OSM    H5F14471  -0.540   4.885   2.895  1.3902 -0.3443  0.6172
  134OSM    H5G14472  -0.645   5.036   2.849 -0.1719 -0.9465 -0.5135
  134OSM    C6F14473  -0.456   5.077   2.951  0.3938  0.8194  0.3581
  134OSM    H6F14474  -0.452   5.180   2.910 -1.4172  1.6480  2.0827
  134OSM    H6G14475  -0.350   5.043   2.955 -0.1192 -1.2617 -1.5067
  134OSM    C7F14476  -0.516   5.076   3.091 -0.0252 -0.3754 -0.3072
  134OSM    H7F14477  -0.554   4.974   3.113 -0.8615 -0.0794 -0.3607
  134OSM    H7G14478  -0.594   5.153   3.078  1.3815  0.7473 -3.0199
  134OSM    C8F14479  -0.418   5.130   3.196 -0.3800  0.2392  0.0938
  134OSM    H8F14480  -0.375   5.224   3.156  0.5663  0.1835  0.9337
  134OSM    H8G14481  -0.325   5.068   3.200 -0.1158  0.6452  0.3302
  134OSM    C9F14482  -0.478   5.134   3.329  0.2270  0.0761  0.2249
  134OSM    H9F14483  -0.481   5.234   3.374  0.8610 -0.8606  2.4937
  134OSM   C10F14484  -0.518   5.035   3.410  0.1430  0.3194  0.1177
  134OSM   H10F14485  -0.555   5.078   3.504 -0.5256 -0.9757  0.4698
  134OSM   C11F14486  -0.516   4.889   3.389 -0.3329 -0.5891 -0.5027
  134OSM   H11F14487  -0.471   4.839   3.477  2.2882  0.8185 -0.9383
  134OSM   H11G14488  -0.444   4.860   3.309 -0.6819 -1.8161 -0.3850
  134OSM   C12F14489  -0.656   4.838   3.372 -0.1984  0.1990  0.9547
  134OSM   H12F14490  -0.659   4.729   3.351  0.9676  0.3969 -0.4419
  134OSM   H12G14491  -0.689   4.893   3.281  2.5129  0.4288  0.0092
  134OSM   C13F14492  -0.756   4.885   3.477 -0.5430  0.2694  0.1043
  134OSM   H13F14493  -0.858   4.861   3.438 -0.1822  0.4153 -0.9549
  134OSM   H13G14494  -0.758   4.996   3.482  0.5706  0.3300 -0.5274
  134OSM   C14F14495  -0.736   4.828   3.622  0.1704 -0.5864  0.0561
  134OSM   H14F14496  -0.635   4.858   3.658 -0.6879 -1.5199  3.6185
  134OSM   H14G14497  -0.734   4.717   3.630 -2.7307 -0.5829  2.2662
  134OSM   C15F14498  -0.831   4.894   3.725 -0.2249 -0.8112  0.0683
  134OSM   H15F14499  -0.937   4.879   3.694  0.2421 -0.2688 -1.9757
  134OSM   H15G14500  -0.812   5.003   3.719 -0.9367 -0.6542  0.6192
  134OSM   C16F14501  -0.812   4.846   3.862  0.2297  0.3817 -0.2324
  134OSM   H16F14502  -0.706   4.872   3.884  0.0792 -0.1641  1.2072
  134OSM   H16G14503  -0.820   4.736   3.860  1.1245  0.3158 -0.2985
  134OSM   C17F14504  -0.904   4.903   3.970  0.0647  0.2106 -0.0860
  134OSM   H17F14505  -0.894   4.837   4.059  0.1417 -3.0950 -2.3627
  134OSM   H17G14506  -1.013   4.893   3.948 -0.0398 -1.1306  0.9313
  134OSM   C18F14507  -0.865   5.050   4.009 -0.3546 -0.6332 -0.4331
  134OSM   H18F14508  -0.884   5.125   3.929  1.7827 -0.5891 -0.9724
  134OSM   H18G14509  -0.760   5.049   4.046 -0.7531 -0.4430  0.7547
  134OSM   H18H14510  -0.923   5.086   4.097  0.9303  0.9765 -0.1932
  135OSM      N14511   0.662   1.055   2.153 -0.0477  0.0452 -0.5899
  135OSM    C1514512   0.680   0.960   2.044 -0.4647  0.1487 -0.1604
  135OSM   H15A14513   0.598   0.892   2.024  0.0664 -0.4462 -0.3441
  135OSM   H15B14514   0.771   0.906   2.063  0.1354  0.9411 -0.6865
  135OSM   H15C14515   0.713   1.005   1.951  1.6139 -1.9486 -0.5225
  135OSM    C1414516   0.785   1.126   2.189 -0.4129 -0.8316  0.3052
  135OSM   H14A14517   0.776   1.197   2.270 -0.8755 -1.7854  1.1166
  135OSM   H14B14518   0.821   1.185   2.106  1.5618 -0.8816  1.0686
  135OSM   H14C14519   0.871   1.071   2.222  2.0771  3.4350  1.7378
  135OSM    C1314520   0.561   1.163   2.118 -0.0112 -0.2006  0.0169
  135OSM   H13A14521   0.588   1.198   2.019  0.4581  0.8471  0.5016
  135OSM   H13B14522   0.561   1.246   2.186 -1.8319  0.9041 -1.2487
  135OSM   H13C14523   0.467   1.112   2.101  1.0628 -2.5957  0.7377
  135OSM    C1214524   0.612   0.977   2.266 -0.4425  0.0419 -0.2144
  135OSM   H12A14525   0.527   0.919   2.237 -3.6612  3.3793  1.6486
  135OSM   H12B14526   0.582   1.046   2.344  1.9627  1.5986 -0.5459
  135OSM    C1114527   0.709   0.883   2.341 -0.2034  0.3871 -0.2051
  135OSM   H11A14528   0.651   0.832   2.420 -0.2187 -0.3097 -0.6529
  135OSM   H11B14529   0.779   0.951   2.393  0.6088 -0.3656 -0.2695
  135OSM      P14530   0.752   0.634   2.271  0.0014  0.0236  0.0632
  135OSM    O1314531   0.618   0.590   2.221 -0.0202  1.1814 -0.7325
  135OSM    O1414532   0.866   0.575   2.203 -0.1741 -0.5306  0.3604
  135OSM    O1114533   0.760   0.621   2.424  0.2861 -0.1288  0.1122
  135OSM    O1214534   0.769   0.783   2.260  0.4088 -0.4338 -0.5582
  135OSM    C1S14535   0.892   0.656   2.482  0.2704  0.4204 -0.2787
  135OSM    H1S14536   0.915   0.758   2.445 -2.3338  1.0227 -0.4574
  135OSM    H1T14537   0.970   0.587   2.444 -2.6337 -2.7528 -0.9784
  135OSM     NF14538   1.005   0.724   2.699  0.0814 -0.3245 -0.3172
  135OSM    HNF14539   1.070   0.681   2.761  0.7405  2.2509  0.9640
  135OSM    C2S14540   0.887   0.664   2.645 -0.3912  0.6362 -0.8923
  135OSM    H2S14541   0.801   0.729   2.673 -1.4926 -0.9356 -0.4929
  135OSM    C3S14542   0.862   0.522   2.706  0.4197  0.4189 -0.0041
  135OSM    H3S14543   0.961   0.472   2.701  1.3699  2.3644 -3.4309
  135OSM     O314544   0.769   0.440   2.628  0.4623 -0.0321  0.3980
  135OSM    HO314545   0.737   0.501   2.561  1.0852  1.5197  1.4622
  135OSM    C4S14546   0.836   0.530   2.853  0.1003 -0.0696  0.5603
  135OSM    H4S14547   0.925   0.540   2.918 -0.0797  1.3696  0.6177
  135OSM    C5S14548   0.723   0.525   2.913 -0.4373  0.1232 -0.3864
  135OSM    H5S14549   0.628   0.521   2.857 -2.3294 -1.5689  2.6327
  135OSM    C6S14550   0.705   0.531   3.058 -0.8940  0.2487 -0.7319
  135OSM    H6S14551   0.665   0.436   3.100  1.3438 -0.8141 -0.8380
  135OSM    H6T14552   0.626   0.609   3.064 -0.5371  0.4984  1.9549
  135OSM    C7S14553   0.825   0.580   3.144  0.2344  0.4280 -0.0701
  135OSM    H7S14554   0.856   0.682   3.115  0.4038 -0.0419 -1.6508
  135OSM    H7T14555   0.905   0.503   3.133 -1.8465 -1.4774 -3.4041
  135OSM    C8S14556   0.777   0.595   3.293  0.0687  0.1466 -0.1290
  135OSM    H8S14557   0.716   0.505   3.315 -0.7461  0.2624 -1.7344
  135OSM    H8T14558   0.713   0.685   3.304 -0.3739 -0.2594  0.7140
  135OSM    C9S14559   0.886   0.589   3.395  0.1678  0.2467 -0.4939
  135OSM    H9S14560   0.941   0.685   3.382 -0.0567  0.4741  0.2366
  135OSM    H9T14561   0.955   0.503   3.377  0.7695  0.1108  2.1587
  135OSM   C10S14562   0.815   0.580   3.534 -0.3016  0.0618  0.1247
  135OSM   H10S14563   0.778   0.477   3.551 -0.6473  0.3226  0.9995
  135OSM   H10T14564   0.732   0.654   3.538 -1.1945 -0.9049 -0.2576
  135OSM   C11S14565   0.915   0.603   3.646  0.1626 -0.6724  0.4075
  135OSM   H11S14566   0.933   0.712   3.635 -1.7084 -0.5718 -3.1636
  135OSM   H11T14567   1.015   0.555   3.641  0.5908  0.2593 -0.3796
  135OSM   C12S14568   0.851   0.581   3.787 -0.5625  0.6779  0.6385
  135OSM   H12S14569   0.827   0.473   3.790  1.6597  0.1373  2.1955
  135OSM   H12T14570   0.769   0.652   3.809 -1.7094 -0.3340 -0.2443
  135OSM   C13S14571   0.965   0.592   3.895  0.2442  0.1508 -0.0042
  135OSM   H13S14572   0.980   0.702   3.896 -2.9762  0.7068 -1.6131
  135OSM   H13T14573   1.058   0.538   3.867  0.9635  1.0795  0.5341
  135OSM   C14S14574   0.918   0.553   4.034  0.2655  0.0029 -0.6902
  135OSM   H14S14575   0.870   0.453   4.030  0.3571 -0.1548  1.3225
  135OSM   H14T14576   0.826   0.610   4.061  0.0648 -0.6492  0.0417
  135OSM   C15S14577   1.017   0.563   4.142 -0.2972 -0.5659  0.0207
  135OSM   H15S14578   1.051   0.668   4.149  0.7294 -0.9879  2.5740
  135OSM   H15T14579   1.113   0.516   4.110  0.3448 -1.5709  3.0489
  135OSM   C16S14580   0.979   0.520   4.280  0.0617  0.0805 -0.0745
  135OSM   H16S14581   0.903   0.576   4.338  0.9499  0.1366  1.0800
  135OSM   H16T14582   1.078   0.534   4.328 -0.0832  2.1602 -0.2725
  135OSM   C17S14583   0.922   0.374   4.274 -0.9212 -0.3852 -0.1369
  135OSM   H17S14584   0.975   0.314   4.197 -0.9053 -1.4484  0.6845
  135OSM   H17T14585   0.814   0.378   4.249 -0.6736  2.9202 -1.1025
  135OSM   C18S14586   0.943   0.308   4.413 -0.0322  0.5643 -0.1259
  135OSM   H18S14587   0.926   0.383   4.493 -0.4855  1.3520 -0.9381
  135OSM   H18T14588   1.050   0.282   4.427 -0.8052 -2.2980  1.2219
  135OSM   H18U14589   0.881   0.216   4.417 -3.6114  2.7037 -1.4634
  135OSM    C1F14590   1.021   0.854   2.682  0.2270 -0.5429 -0.1194
  135OSM     OF14591   0.946   0.929   2.619 -0.0730  0.1515  0.1900
  135OSM    C2F14592   1.149   0.911   2.745 -0.1769  0.2104 -0.6009
  135OSM    H2F14593   1.183   1.008   2.703  0.5910 -0.0939 -0.6972
  135OSM    H2G14594   1.231   0.838   2.727 -0.1542 -0.0952  0.6375
  135OSM    C3F14595   1.138   0.926   2.904 -0.0780 -0.4622  0.2352
  135OSM    H3F14596   1.106   0.828   2.944  0.8197 -0.3172  1.3715
  135OSM    H3G14597   1.054   0.995   2.925  0.1053 -0.4044  0.8082
  135OSM    C4F14598   1.271   0.967   2.973  0.2887 -0.2329  0.0285
  135OSM    H4F14599   1.296   1.072   2.948 -0.0341  0.2391  1.5541
  135OSM    H4G14600   1.356   0.906   2.936  1.8165  1.2434  0.9585
  135OSM    C5F14601   1.275   0.941   3.125  0.6689  0.1005 -0.1823
  135OSM    H5F14602   1.304   0.838   3.154 -0.4835 -0.6076 -1.3816
  135OSM    H5G14603   1.169   0.953   3.155  0.9590 -0.1755  0.9890
  135OSM    C6F14604   1.342   1.048   3.212  0.4517 -0.6650  0.7275
  135OSM    H6F14605   1.324   1.016   3.317  0.0865 -0.5296  0.7071
  135OSM    H6G14606   1.309   1.151   3.190  0.3825 -0.6374  0.9548
  135OSM    C7F14607   1.495   1.049   3.200  0.6443 -0.2236 -0.0219
  135OSM    H7F14608   1.539   1.120   3.274 -1.6245  2.3268 -0.9125
  135OSM    H7G14609   1.531   1.089   3.103  1.0812  0.1861  0.3041
  135OSM    C8F14610   1.562   0.915   3.226 -0.3467 -0.0430 -0.1070
  135OSM    H8F14611   1.531   0.850   3.142 -3.9102  1.0054  0.2447
  135OSM    H8G14612   1.522   0.859   3.313 -1.5473 -0.6931 -1.0357
  135OSM    C9F14613   1.710   0.933   3.229 -0.0072  0.2767  0.3673
  135OSM    H9F14614   1.749   0.939   3.126 -2.7769  1.2898 -0.7449
  135OSM   C10F14615   1.782   0.933   3.335  0.3958 -0.0785 -0.1423
  135OSM   H10F14616   1.892   0.931   3.327  0.4487 -2.6355  0.4166
  135OSM   C11F14617   1.734   0.915   3.477  0.2083  0.5825  0.0160
  135OSM   H11F14618   1.640   0.961   3.512  0.7565  0.7141  1.3838
  135OSM   H11G14619   1.809   0.972   3.535 -0.5219  1.4723  0.1037
  135OSM   C12F14620   1.731   0.758   3.502 -0.0724  0.2227  0.2222
  135OSM   H12F14621   1.825   0.706   3.474 -0.8111 -2.0235  1.6832
  135OSM   H12G14622   1.650   0.713   3.441  0.4688  0.0968 -0.4195
  135OSM   C13F14623   1.711   0.724   3.650  0.7187 -0.7907 -0.8240
  135OSM   H13F14624   1.669   0.622   3.668  1.5604 -0.9540  0.3352
  135OSM   H13G14625   1.632   0.790   3.693  0.9180 -1.6862  1.0239
  135OSM   C14F14626   1.837   0.737   3.743 -0.0154  0.6113 -0.2427
  135OSM   H14F14627   1.888   0.834   3.724  1.9565  0.2417  2.5231
  135OSM   H14G14628   1.908   0.655   3.721 -1.4787 -1.5146  2.3630
  135OSM   C15F14629   1.805   0.731   3.897  0.0262 -0.2784  0.2447
  135OSM   H15F14630   1.749   0.638   3.923 -0.7429  0.5787  1.7935
  135OSM   H15G14631   1.735   0.817   3.904 -1.0090 -1.1124  0.5568
  135OSM   C16F14632   1.918   0.774   3.988  0.1919 -0.6485 -0.1926
  135OSM   H16F14633   1.977   0.858   3.946  1.7857 -0.9198  1.4057
  135OSM   H16G14634   1.985   0.686   3.994  1.5782  0.3519 -0.4869
  135OSM   C17F14635   1.856   0.819   4.119 -0.8493  0.3973  0.1930
  135OSM   H17F14636   1.782   0.746   4.158 -0.3375  0.5945  1.5821
  135OSM   H17G14637   1.801   0.913   4.095  0.7898  0.6736 -2.9761
  135OSM   C18F14638   1.955   0.837   4.236 -0.5745 -0.0516  0.0719
  135OSM   H18F14639   2.005   0.741   4.263  0.9443 -0.4116 -3.4645
  135OSM   H18G14640   1.897   0.874   4.323 -0.4955  3.8988 -1.3620
  135OSM   H18H14641   2.039   0.903   4.204  0.1663  1.0467  3.7895
  136OSM      N14642   1.285   6.601   1.735  0.5467  0.2832  0.0908
  136OSM    C1514643   1.352   6.665   1.624 -0.8742  0.0891  0.7488
  136OSM   H15A14644   1.443   6.610   1.607  0.4654  1.2906  3.5026
  136OSM   H15B14645   1.388   6.765   1.640  0.4855  0.2729 -2.5978
  136OSM   H15C14646   1.297   6.647   1.533  2.2042 -0.3656 -1.1698
  136OSM    C1414647   1.154   6.673   1.761 -0.4293  0.6252 -1.3238
  136OSM   H14A14648   1.093   6.625   1.836 -1.7015  1.6720 -1.6427
  136OSM   H14B14649   1.102   6.669   1.666 -2.8260  0.0872 -0.0792
  136OSM   H14C14650   1.171   6.773   1.799 -0.2105  0.0710  0.1301
  136OSM    C1314651   1.245   6.466   1.682  0.1889  0.5445 -0.7469
  136OSM   H13A14652   1.327   6.396   1.680 -0.9142 -0.8501  0.5749
  136OSM   H13B14653   1.184   6.477   1.593 -1.4277 -1.3285  0.0607
  136OSM   H13C14654   1.186   6.422   1.761  3.0438 -0.5072  0.9489
  136OSM    C1214655   1.375   6.610   1.859 -0.1993  0.4651 -0.1181
  136OSM   H12A14656   1.316   6.570   1.940 -1.2802 -0.8753 -1.5103
  136OSM   H12B14657   1.377   6.715   1.884  1.1744  0.6178 -0.7495
  136OSM    C1114658   1.522   6.565   1.861  0.5218  0.6743  0.4626
  136OSM   H11A14659   1.555   6.570   1.967 -2.8535  2.1252  1.5853
  136OSM   H11B14660   1.572   6.635   1.791  2.5305  0.0447  1.1817
  136OSM      P14661   1.508   6.301   1.868  0.1939 -0.2786 -0.1762
  136OSM    O1314662   1.400   6.233   1.790  0.1960  0.4668  0.3450
  136OSM    O1414663   1.640   6.235   1.868 -0.6149 -0.1451 -0.2315
  136OSM    O1114664   1.447   6.327   2.012 -0.1403 -0.0387 -0.0280
  136OSM    O1214665   1.537   6.437   1.803  0.1176  1.1128 -0.0518
  136OSM    C1S14666   1.337   6.249   2.067  0.5080 -0.1916 -0.8847
  136OSM    H1S14667   1.352   6.139   2.058  0.0192 -0.2065 -1.5656
  136OSM    H1T14668   1.251   6.271   2.001  1.1195  1.2269 -1.2518
  136OSM     NF14669   1.225   6.183   2.272 -0.2437  0.3168  0.0069
  136OSM    HNF14670   1.142   6.205   2.323  0.5287  0.4867  1.2497
  136OSM    C2S14671   1.307   6.285   2.211 -0.4444  1.1064 -0.0970
  136OSM    H2S14672   1.412   6.283   2.248  0.9420  1.2382 -3.6077
  136OSM    C3S14673   1.247   6.427   2.230  0.3800 -0.0669  0.3189
  136OSM    H3S14674   1.142   6.442   2.198  0.9858  0.6785 -1.4688
  136OSM     O314675   1.320   6.519   2.148  0.0443  0.3890 -0.0645
  136OSM    HO314676   1.392   6.467   2.110  0.6527  1.6680 -0.7535
  136OSM    C4S14677   1.260   6.465   2.383  0.0914  0.3365 -0.4206
  136OSM    H4S14678   1.360   6.469   2.429  0.3431 -2.5299 -0.5770
  136OSM    C5S14679   1.147   6.499   2.455 -1.3062  0.1218 -0.2125
  136OSM    H5S14680   1.053   6.517   2.401 -1.9676 -2.8289 -0.1939
  136OSM    C6S14681   1.147   6.534   2.598  0.2726 -0.0611 -0.6496
  136OSM    H6S14682   1.060   6.599   2.620 -0.9367 -1.3603 -1.4014
  136OSM    H6T14683   1.239   6.591   2.619 -0.9002  1.3796  0.8131
  136OSM    C7S14684   1.132   6.425   2.703  0.2798  0.4147 -0.0272
  136OSM    H7S14685   1.221   6.358   2.709  0.0669  0.1131 -0.2029
  136OSM    H7T14686   1.046   6.361   2.675  1.1008 -0.6281 -0.2330
  136OSM    C8S14687   1.095   6.486   2.833  0.6181 -0.4727 -0.2785
  136OSM    H8S14688   1.054   6.405   2.898  0.5532  0.0078  0.2798
  136OSM    H8T14689   1.016   6.563   2.817  1.5906  0.4090 -0.9850
  136OSM    C9S14690   1.207   6.549   2.914  0.3028 -0.1468  0.2912
  136OSM    H9S14691   1.240   6.641   2.861 -2.8494  0.0838 -1.5129
  136OSM    H9T14692   1.290   6.481   2.943  0.2757  0.7007  2.5847
  136OSM   C10S14693   1.144   6.605   3.054  0.1649  0.1975 -0.0829
  136OSM   H10S14694   1.042   6.639   3.024  1.1346  1.5551 -2.1255
  136OSM   H10T14695   1.174   6.708   3.081  0.4895  0.1063 -0.0986
  136OSM   C11S14696   1.148   6.511   3.176 -0.3932 -0.5222  0.3955
  136OSM   H11S14697   1.255   6.482   3.174  0.2133  1.1792  2.9718
  136OSM   H11T14698   1.074   6.428   3.172  0.1303 -0.9379 -0.9425
  136OSM   C12S14699   1.129   6.583   3.311  0.2619 -0.1451 -0.0988
  136OSM   H12S14700   1.031   6.561   3.358  0.8936 -2.1380  0.4002
  136OSM   H12T14701   1.131   6.692   3.290  1.3213  0.1958  1.5535
  136OSM   C13S14702   1.250   6.544   3.408  0.6596  0.7920  0.1820
  136OSM   H13S14703   1.349   6.582   3.374  1.5330  1.5744  3.2395
  136OSM   H13T14704   1.263   6.435   3.418  0.0192  0.7470  0.6085
  136OSM   C14S14705   1.229   6.592   3.553  0.7698  0.5980 -0.2064
  136OSM   H14S14706   1.144   6.540   3.602  0.4552  2.2915  1.1453
  136OSM   H14T14707   1.203   6.700   3.551  0.0333  0.4243 -0.4165
  136OSM   C15S14708   1.358   6.562   3.629  0.4254  0.1612  0.6572
  136OSM   H15S14709   1.454   6.596   3.584 -0.6140  1.3152 -0.7835
  136OSM   H15T14710   1.356   6.451   3.622 -0.8811  0.0594  2.0905
  136OSM   C16S14711   1.373   6.618   3.773  0.0147  0.5511  0.2256
  136OSM   H16S14712   1.350   6.726   3.767  0.6940  0.8608  2.2984
  136OSM   H16T14713   1.480   6.627   3.801  0.4971  2.0926 -1.8670
  136OSM   C17S14714   1.277   6.555   3.885 -0.6399  0.0070  0.3349
  136OSM   H17S14715   1.294   6.447   3.870 -1.9330 -0.3789  1.4226
  136OSM   H17T14716   1.169   6.574   3.862 -0.4153 -0.2174 -0.9405
  136OSM   C18S14717   1.293   6.607   4.027 -0.2816  0.3620  0.0862
  136OSM   H18S14718   1.393   6.586   4.071  0.1708  1.9458 -0.1376
  136OSM   H18T14719   1.212   6.562   4.088 -0.5989 -0.7806 -1.1366
  136OSM   H18U14720   1.280   6.717   4.030 -2.0844  0.2008 -0.6716
  136OSM    C1F14721   1.266   6.060   2.296 -0.5867  0.3723  0.7699
  136OSM     OF14722   1.384   6.024   2.284 -0.2879 -0.1014  0.0211
  136OSM    C2F14723   1.164   5.960   2.353 -0.0716 -0.2345 -0.5955
  136OSM    H2F14724   1.198   5.857   2.330 -0.1948 -1.2739  3.1368
  136OSM    H2G14725   1.063   5.972   2.309  0.2619 -0.3917 -1.4102
  136OSM    C3F14726   1.163   5.935   2.513 -0.2103 -0.1174  0.1175
  136OSM    H3F14727   1.267   5.915   2.547  0.4102 -0.5864 -1.8741
  136OSM    H3G14728   1.116   5.834   2.515 -1.0681  0.1981 -1.6647
  136OSM    C4F14729   1.097   6.038   2.605 -0.1137  0.4286 -0.3948
  136OSM    H4F14730   1.012   6.089   2.555 -0.5374  1.6166  1.4560
  136OSM    H4G14731   1.169   6.117   2.633  1.4190 -0.4850 -1.5774
  136OSM    C5F14732   1.040   5.984   2.736  0.2892  0.1699  0.3662
  136OSM    H5F14733   1.068   5.878   2.753  0.3901 -0.0326 -0.9971
  136OSM    H5G14734   0.930   5.998   2.729  0.3959  0.1843 -1.7090
  136OSM    C6F14735   1.087   6.062   2.867 -1.4473 -0.3752 -0.1368
  136OSM    H6F14736   1.100   6.172   2.859 -0.3393 -0.4473  0.4486
  136OSM    H6G14737   1.186   6.018   2.891 -1.6410 -2.7773 -3.1203
  136OSM    C7F14738   0.997   6.032   2.995 -0.7856 -0.4172 -0.2814
  136OSM    H7F14739   1.013   5.926   3.023 -2.1602 -0.4509  0.4295
  136OSM    H7G14740   0.890   6.053   2.975 -1.0736 -1.9859 -0.5185
  136OSM    C8F14741   1.033   6.122   3.121 -0.8976  0.0429 -0.1314
  136OSM    H8F14742   0.940   6.140   3.180 -0.4708  0.7578  0.3414
  136OSM    H8G14743   1.065   6.222   3.085  0.7890 -0.0768  0.9275
  136OSM    C9F14744   1.143   6.057   3.204  0.7362 -0.3747 -0.3781
  136OSM    H9F14745   1.234   6.023   3.152  1.7333 -1.3429  1.8397
  136OSM   C10F14746   1.141   6.030   3.336  0.0055  0.2928  0.4728
  136OSM   H10F14747   1.235   5.997   3.383  1.0225  3.1623  0.6400
  136OSM   C11F14748   1.040   6.066   3.442  1.2679 -0.4332  0.3205
  136OSM   H11F14749   0.940   6.091   3.401  1.4623  1.7412  1.0645
  136OSM   H11G14750   1.072   6.162   3.489  0.7465  0.3148 -0.8275
  136OSM   C12F14751   1.010   5.952   3.543  0.2335  0.1634 -0.2529
  136OSM   H12F14752   0.997   5.859   3.483 -0.2345  0.3283 -0.4161
  136OSM   H12G14753   0.925   5.992   3.603 -0.5655 -0.2535 -1.0686
  136OSM   C13F14754   1.128   5.921   3.639 -0.6055 -0.1455  0.1650
  136OSM   H13F14755   1.172   6.016   3.675 -0.4675  0.5442 -1.6947
  136OSM   H13G14756   1.216   5.882   3.582  0.5046 -1.2352  2.4803
  136OSM   C14F14757   1.092   5.823   3.741  0.4761 -0.1008 -0.3377
  136OSM   H14F14758   0.994   5.846   3.789  0.5983  0.7232 -0.4736
  136OSM   H14G14759   1.156   5.832   3.832 -1.3101  4.0349  0.7663
  136OSM   C15F14760   1.087   5.684   3.679  0.0464 -0.2638 -0.3132
  136OSM   H15F14761   1.174   5.638   3.628 -0.2030 -1.4914  0.3317
  136OSM   H15G14762   1.003   5.691   3.606  0.7045 -1.2464 -1.1783
  136OSM   C16F14763   1.050   5.581   3.782  0.1260  0.0141  0.0259
  136OSM   H16F14764   1.029   5.489   3.723 -0.1558  0.0410  0.0831
  136OSM   H16G14765   0.948   5.596   3.822 -0.1086  0.0441 -0.5730
  136OSM   C17F14766   1.162   5.542   3.884 -0.3068 -0.1262 -0.1121
  136OSM   H17F14767   1.220   5.635   3.906 -1.7659  1.1016 -1.2300
  136OSM   H17G14768   1.230   5.474   3.827 -0.3313  1.2309 -1.8559
  136OSM   C18F14769   1.119   5.477   4.007 -0.8648  0.6022 -0.4488
  136OSM   H18F14770   1.087   5.374   3.981 -0.6569  0.1492  1.0131
  136OSM   H18G14771   1.035   5.537   4.048 -0.9931 -0.9637  1.7990
  136OSM   H18H14772   1.206   5.481   4.076  0.2108  0.0595 -1.7227
  137OSM      N14773   2.979   2.201   2.003 -0.4900 -0.9707  0.2574
  137OSM    C1514774   2.960   2.062   1.946 -0.0883 -0.3772  0.2817
  137OSM   H15A14775   2.876   2.012   1.991  2.6805 -4.3796  1.5337
  137OSM   H15B14776   3.043   2.000   1.975 -1.5077 -2.5899 -0.1716
  137OSM   H15C14777   2.945   2.077   1.840  1.0851  1.0526  0.2771
  137OSM    C1414778   3.092   2.246   1.916 -0.3271 -0.2319  0.3491
  137OSM   H14A14779   3.059   2.260   1.814  1.7360 -0.3788 -0.3752
  137OSM   H14B14780   3.176   2.179   1.918 -0.2532 -0.1440  0.2153
  137OSM   H14C14781   3.122   2.348   1.932  0.8950 -0.2484 -1.5643
  137OSM    C1314782   2.859   2.286   1.998  0.3463 -0.4126 -0.0540
  137OSM   H13A14783   2.796   2.258   2.082 -0.4737 -0.1714 -0.5757
  137OSM   H13B14784   2.803   2.270   1.907 -0.7882 -0.1799  0.5815
  137OSM   H13C14785   2.880   2.392   1.993 -0.4670 -0.1407  1.5678
  137OSM    C1214786   3.031   2.170   2.142 -0.1328 -0.4440  0.6378
  137OSM   H12A14787   3.124   2.118   2.123 -0.0230  0.0961 -0.4079
  137OSM   H12B14788   2.956   2.105   2.185  1.2538 -2.1464  0.5969
  137OSM    C1114789   3.061   2.287   2.219 -0.1008 -0.9233  0.2451
  137OSM   H11A14790   3.082   2.258   2.324  0.3098  2.3237  1.1713
  137OSM   H11B14791   2.985   2.368   2.222  1.2557  0.4597 -0.5685
  137OSM      P14792   3.237   2.482   2.233  0.4386  0.2362  0.6142
  137OSM    O1314793   3.361   2.523   2.164  0.4170 -0.1741 -0.9485
  137OSM    O1414794   3.116   2.566   2.220 -0.3625 -0.1769  0.4879
  137OSM    O1114795   3.258   2.455   2.384 -0.1535 -0.3072  0.3385
  137OSM    O1214796   3.188   2.341   2.174 -0.0524 -0.1325  0.3060
  137OSM    C1S14797   3.346   2.345   2.418  0.2357 -0.8117 -0.7958
  137OSM    H1S14798   3.448   2.361   2.378  1.0382 -0.6991  1.1914
  137OSM    H1T14799   3.303   2.250   2.380  0.6923 -0.3595 -2.5828
  137OSM     NF14800   3.474   2.234   2.590 -0.1874 -0.4165  1.3846
  137OSM    HNF14801   3.463   2.135   2.591  0.0645 -0.6800 -2.7887
  137OSM    C2S14802   3.367   2.328   2.575 -0.2782  0.2536  0.0424
  137OSM    H2S14803   3.399   2.426   2.616 -1.9916 -0.3246  3.0688
  137OSM    C3S14804   3.240   2.272   2.638  0.3102 -0.4855 -1.0292
  137OSM    H3S14805   3.239   2.165   2.611 -1.0819 -0.5763 -0.6672
  137OSM     O314806   3.118   2.327   2.590  0.7095  0.7472 -0.2044
  137OSM    HO314807   3.155   2.390   2.527  0.8587  1.4892  0.6047
  137OSM    C4S14808   3.249   2.292   2.787 -0.1565  0.0015 -0.5432
  137OSM    H4S14809   3.255   2.394   2.826  3.1981 -0.0256 -0.7013
  137OSM    C5S14810   3.261   2.197   2.879  0.2406  0.6565  0.1710
  137OSM    H5S14811   3.249   2.092   2.848 -1.6346  0.9124 -0.0505
  137OSM    C6S14812   3.296   2.224   3.024  0.0540  0.1471 -0.1985
  137OSM    H6S14813   3.215   2.183   3.088 -0.9113 -0.4647 -1.7516
  137OSM    H6T14814   3.302   2.332   3.051 -1.0411 -0.1010  1.1911
  137OSM    C7S14815   3.430   2.174   3.072  0.1389 -0.0760 -0.2009
  137OSM    H7S14816   3.516   2.219   3.018 -1.2866  1.9574 -0.8740
  137OSM    H7T14817   3.437   2.067   3.043 -0.3022 -0.2895  0.4605
  137OSM    C8S14818   3.463   2.204   3.216  0.0866 -0.1947 -0.3654
  137OSM    H8S14819   3.472   2.309   3.249 -0.0384 -0.4929  0.6766
  137OSM    H8T14820   3.560   2.150   3.228 -0.8857 -1.6712  1.4218
  137OSM    C9S14821   3.377   2.138   3.324  0.5283  0.5395  0.2640
  137OSM    H9S14822   3.359   2.029   3.310  1.2865  0.4345  0.0491
  137OSM    H9T14823   3.281   2.195   3.324  0.1870  0.2350 -3.3520
  137OSM   C10S14824   3.434   2.155   3.470  1.0255 -0.2804 -0.2866
  137OSM   H10S14825   3.441   2.264   3.492 -2.5471  0.2928 -1.3114
  137OSM   H10T14826   3.540   2.122   3.476  1.4271  1.1591  2.4907
  137OSM   C11S14827   3.348   2.077   3.575  0.3059 -0.7190 -0.3706
  137OSM   H11S14828   3.366   1.969   3.558  2.8225 -0.5186  0.6269
  137OSM   H11T14829   3.240   2.103   3.578  0.4015 -0.3781  1.5730
  137OSM   C12S14830   3.391   2.090   3.724  0.2914  0.6298  0.5459
  137OSM   H12S14831   3.501   2.078   3.720 -0.0291 -2.9768 -1.0440
  137OSM   H12T14832   3.351   2.007   3.786  1.6064  0.7404  1.5797
  137OSM   C13S14833   3.365   2.228   3.784  0.9194 -0.0992 -0.0793
  137OSM   H13S14834   3.255   2.237   3.769  1.0190 -1.1194 -1.6653
  137OSM   H13T14835   3.408   2.309   3.722 -0.7209  1.0786  0.2532
  137OSM   C14S14836   3.421   2.253   3.930  0.6408 -0.5010  0.7537
  137OSM   H14S14837   3.530   2.230   3.934  0.7985  0.2895  1.3294
  137OSM   H14T14838   3.382   2.183   4.007 -2.5382 -1.0690 -1.1823
  137OSM   C15S14839   3.390   2.386   3.992 -0.1274 -0.3257 -0.3031
  137OSM   H15S14840   3.407   2.375   4.101 -1.4058 -3.2875 -0.3308
  137OSM   H15T14841   3.280   2.405   3.990 -0.3502 -1.6030 -1.4406
  137OSM   C16S14842   3.472   2.506   3.933 -0.0341  0.1939 -0.3765
  137OSM   H16S14843   3.435   2.539   3.833  1.7599 -0.2664 -1.2361
  137OSM   H16T14844   3.580   2.483   3.917  0.4075  0.8260  1.4226
  137OSM   C17S14845   3.450   2.633   4.026  0.2759  0.5752 -0.2732
  137OSM   H17S14846   3.340   2.647   4.036 -0.1716 -0.9456 -2.2596
  137OSM   H17T14847   3.494   2.724   3.981  0.3264  1.4798  1.5205
  137OSM   C18S14848   3.498   2.627   4.170  0.0717 -0.1486  0.3676
  137OSM   H18S14849   3.603   2.593   4.159  0.0726  0.2200 -1.0875
  137OSM   H18T14850   3.446   2.546   4.225 -0.2457  0.6268  1.2347
  137OSM   H18U14851   3.485   2.728   4.214 -0.0430 -0.4594  1.0431
  137OSM    C1F14852   3.596   2.273   2.562 -0.4957  0.6113 -0.0116
  137OSM     OF14853   3.626   2.387   2.534  0.0397 -0.4597 -0.2059
  137OSM    C2F14854   3.704   2.165   2.559  0.4844 -0.1378 -0.8639
  137OSM    H2F14855   3.765   2.171   2.467  3.8247  0.5865  1.2167
  137OSM    H2G14856   3.649   2.069   2.561  0.4331 -0.1214  1.1011
  137OSM    C3F14857   3.805   2.194   2.670  0.3114  0.1213 -0.5593
  137OSM    H3F14858   3.858   2.291   2.654  1.0155 -0.3210 -0.9591
  137OSM    H3G14859   3.883   2.115   2.664 -0.6004 -0.7335 -4.7109
  137OSM    C4F14860   3.745   2.193   2.810  1.1469  0.0495  0.2071
  137OSM    H4F14861   3.662   2.122   2.832 -0.0186  1.7863  1.7253
  137OSM    H4G14862   3.691   2.290   2.815  1.8184  0.3570  2.1956
  137OSM    C5F14863   3.844   2.187   2.924 -0.3338 -0.4987 -0.1864
  137OSM    H5F14864   3.926   2.246   2.878  1.1544 -1.5832  0.9648
  137OSM    H5G14865   3.873   2.079   2.931 -2.1415 -1.1027 -1.4182
  137OSM    C6F14866   3.800   2.249   3.060 -0.1317 -0.2794 -0.5080
  137OSM    H6F14867   3.705   2.196   3.083 -0.7913  0.5924 -1.1772
  137OSM    H6G14868   3.775   2.355   3.038  1.1475 -0.4498 -3.1207
  137OSM    C7F14869   3.911   2.253   3.163 -0.3179 -0.1203 -0.6363
  137OSM    H7F14870   4.001   2.302   3.121  1.1315 -1.3122  0.8937
  137OSM    H7G14871   3.947   2.152   3.194  1.0165  0.4494 -0.2421
  137OSM    C8F14872   3.874   2.340   3.289 -0.2529 -0.5669 -0.6679
  137OSM    H8F14873   3.835   2.441   3.265  3.3426  0.9823 -0.4874
  137OSM    H8G14874   3.958   2.371   3.353 -2.1301 -3.3548  3.6344
  137OSM    C9F14875   3.784   2.258   3.382 -0.9218 -0.0903 -0.1082
  137OSM    H9F14876   3.677   2.254   3.355 -0.5230 -1.1378 -1.6904
  137OSM   C10F14877   3.825   2.222   3.502 -0.0604 -0.2507 -0.8711
  137OSM   H10F14878   3.746   2.173   3.561  2.9562 -2.3590  1.6949
  137OSM   C11F14879   3.967   2.227   3.556  0.5727  0.4890 -0.3792
  137OSM   H11F14880   4.002   2.332   3.567 -1.8835  1.2099  1.7453
  137OSM   H11G14881   4.030   2.159   3.494  0.3354  0.1789 -0.2834
  137OSM   C12F14882   3.954   2.176   3.706  0.1919 -0.3397  0.3755
  137OSM   H12F14883   4.056   2.195   3.745 -0.2448 -2.8846  3.1289
  137OSM   H12G14884   3.947   2.065   3.717  0.5016 -0.2780  1.2433
  137OSM   C13F14885   3.858   2.254   3.796 -0.3268  0.1521  0.7420
  137OSM   H13F14886   3.759   2.204   3.794 -1.0105  1.0324 -5.1176
  137OSM   H13G14887   3.832   2.354   3.756  0.9076 -0.2616 -1.2653
  137OSM   C14F14888   3.909   2.272   3.937 -0.0001  0.5558 -0.4202
  137OSM   H14F14889   3.987   2.196   3.961  0.9161  0.6381 -2.8860
  137OSM   H14G14890   3.834   2.252   4.016 -0.0913  1.5244 -0.2507
  137OSM   C15F14891   3.981   2.408   3.950 -0.7755 -0.2851 -0.4389
  137OSM   H15F14892   4.042   2.431   3.860 -2.7857 -1.7477 -2.2646
  137OSM   H15G14893   4.057   2.399   4.031 -0.9604  1.1587 -0.0654
  137OSM   C16F14894   3.886   2.519   3.987 -0.1086 -0.5021  0.0484
  137OSM   H16F14895   3.835   2.482   4.079  3.1232  1.7492  3.0015
  137OSM   H16G14896   3.800   2.534   3.918 -1.6585 -1.4427  1.6643
  137OSM   C17F14897   3.952   2.661   4.001  0.3312  0.5228 -0.1645
  137OSM   H17F14898   3.962   2.693   3.895  0.3352 -0.5767 -0.5094
  137OSM   H17G14899   4.052   2.650   4.049 -0.1780 -1.5972  0.5253
  137OSM   C18F14900   3.860   2.760   4.067  0.1286  0.3778  0.3970
  137OSM   H18F14901   3.781   2.795   3.997  0.0256 -1.0174 -0.2243
  137OSM   H18G14902   3.916   2.853   4.089  0.3774  0.1715  0.6390
  137OSM   H18H14903   3.819   2.726   4.165  0.9712  1.3363  1.1088
  138OSM      N14904   0.387   6.722   1.828 -0.0986 -0.8837  0.3684
  138OSM    C1514905   0.360   6.608   1.745 -0.3312  0.3372 -0.1795
  138OSM   H15A14906   0.283   6.543   1.783 -1.6138  2.0080  0.1746
  138OSM   H15B14907   0.448   6.546   1.730 -1.7701 -1.7190 -0.6245
  138OSM   H15C14908   0.324   6.632   1.646  0.5387 -1.9842 -1.1355
  138OSM    C1414909   0.428   6.841   1.748  0.4324 -0.1260 -0.1671
  138OSM   H14A14910   0.458   6.915   1.820 -1.5055  0.3321  0.2200
  138OSM   H14B14911   0.341   6.868   1.691  0.1188 -1.5336 -0.3877
  138OSM   H14C14912   0.506   6.821   1.676  0.2202 -0.3600 -0.3297
  138OSM    C1314913   0.256   6.753   1.888  0.6715  0.4240  0.2224
  138OSM   H13A14914   0.258   6.848   1.940  0.4467  1.2661 -1.2321
  138OSM   H13B14915   0.229   6.676   1.958 -1.6748  0.4877 -0.5471
  138OSM   H13C14916   0.182   6.760   1.810  0.1359  0.1158  0.7006
  138OSM    C1214917   0.481   6.696   1.944 -0.5639 -0.4265  0.0370
  138OSM   H12A14918   0.578   6.695   1.897 -0.8845  2.6885 -0.9138
  138OSM   H12B14919   0.450   6.602   1.986 -0.6327 -0.6086 -0.4177
  138OSM    C1114920   0.489   6.800   2.057 -0.0013 -0.3983  0.0797
  138OSM   H11A14921   0.565   6.754   2.124  2.9098  2.0500 -1.2791
  138OSM   H11B14922   0.392   6.801   2.112  0.7048 -2.4715  1.4909
  138OSM      P14923   0.668   6.990   1.991  0.4628  0.3435  0.9222
  138OSM    O1314924   0.738   6.912   1.889  0.2397  0.5619  0.4942
  138OSM    O1414925   0.652   7.129   1.949  0.0489 -0.2952 -0.8895
  138OSM    O1114926   0.737   6.980   2.129 -0.3435 -0.3719  0.0815
  138OSM    O1214927   0.517   6.929   2.014  0.1013 -0.2441 -0.1854
  138OSM    C1S14928   0.681   7.033   2.245  0.1833  0.0764 -0.7126
  138OSM    H1S14929   0.588   6.977   2.271  0.1859  0.6915  0.7542
  138OSM    H1T14930   0.649   7.138   2.228 -2.2343 -0.6588 -1.1398
  138OSM     NF14931   0.711   7.058   2.487  0.2632  0.6785  0.0053
  138OSM    HNF14932   0.734   7.141   2.537  0.2927 -0.7347  2.4947
  138OSM    C2S14933   0.781   7.022   2.365  0.7352  0.2039 -0.4549
  138OSM    H2S14934   0.808   6.916   2.383 -2.3028 -0.5433  0.4012
  138OSM    C3S14935   0.914   7.105   2.352 -0.3498  0.5238  0.6245
  138OSM    H3S14936   0.887   7.213   2.353  0.5168  0.7460  0.4845
  138OSM     O314937   0.986   7.077   2.230 -0.4636  0.7690 -0.4146
  138OSM    HO314938   0.924   7.016   2.190 -2.1577  1.4577  1.0364
  138OSM    C4S14939   1.007   7.089   2.477  0.0713  0.3985  0.2836
  138OSM    H4S14940   0.989   7.161   2.558  0.9637 -1.8657  2.6598
  138OSM    C5S14941   1.100   6.985   2.496  0.5476 -0.3667  0.4796
  138OSM    H5S14942   1.106   6.906   2.420 -3.9369  0.0777 -0.6165
  138OSM    C6S14943   1.174   6.957   2.632 -0.7176 -0.2549 -0.6308
  138OSM    H6S14944   1.282   6.983   2.626 -0.5328 -0.8367 -0.0164
  138OSM    H6T14945   1.169   6.849   2.656  2.5226 -0.9144 -2.4485
  138OSM    C7S14946   1.116   7.030   2.756 -0.6694 -0.1780  0.4111
  138OSM    H7S14947   1.100   7.137   2.731  1.7257 -0.0890 -1.0791
  138OSM    H7T14948   1.194   7.032   2.835  0.1781 -0.3621 -0.3955
  138OSM    C8S14949   0.993   6.965   2.820 -0.5829 -0.3181 -0.4110
  138OSM    H8S14950   1.012   6.857   2.832 -1.4762 -0.6352 -1.6049
  138OSM    H8T14951   0.910   6.980   2.748 -2.1408 -1.5892  1.0393
  138OSM    C9S14952   0.954   7.029   2.950  0.7740  0.0441 -0.4723
  138OSM    H9S14953   0.845   7.012   2.969  1.2779 -1.2492  1.6008
  138OSM    H9T14954   0.969   7.137   2.931 -0.7942  0.9781  2.8574
  138OSM   C10S14955   1.040   6.987   3.066  0.3150  0.0376  0.1476
  138OSM   H10S14956   1.146   6.996   3.035 -0.1287 -0.9425 -1.8166
  138OSM   H10T14957   1.020   6.879   3.082 -0.2591 -0.2612 -2.2849
  138OSM   C11S14958   1.007   7.051   3.204 -0.0886 -0.2005  0.5387
  138OSM   H11S14959   0.994   7.161   3.192  0.1999 -0.2402 -0.1603
  138OSM   H11T14960   1.100   7.052   3.266 -0.2753  1.9222  0.8653
  138OSM   C12S14961   0.918   6.974   3.295  0.3402 -0.2566  0.3027
  138OSM   H12S14962   0.961   6.872   3.310  0.1637 -0.2665  0.7703
  138OSM   H12T14963   0.826   6.965   3.235  0.5044  0.5014 -0.0678
  138OSM   C13S14964   0.904   7.039   3.436 -0.5590  0.3973 -0.2142
  138OSM   H13S14965   0.808   6.995   3.474  0.3114 -3.5741 -2.0612
  138OSM   H13T14966   0.885   7.148   3.433 -0.5369  0.3845 -2.6614
  138OSM   C14S14967   1.021   7.000   3.526 -0.0981 -0.0535  0.0455
  138OSM   H14S14968   1.106   7.058   3.485  1.2130 -2.0276 -0.1814
  138OSM   H14T14969   1.047   6.892   3.533  2.4881  0.6332  4.2142
  138OSM   C15S14970   0.996   7.050   3.674  0.5289 -0.1623 -0.7724
  138OSM   H15S14971   0.898   7.022   3.718  1.3244  0.5144  1.5721
  138OSM   H15T14972   0.984   7.160   3.672 -1.9049 -0.3614 -0.8198
  138OSM   C16S14973   1.098   7.008   3.777  0.7569  0.5502 -0.0645
  138OSM   H16S14974   1.198   7.013   3.729  0.5226  0.1475 -0.5986
  138OSM   H16T14975   1.077   6.900   3.797 -1.3535  0.9134 -0.1404
  138OSM   C17S14976   1.102   7.091   3.907  0.7155 -0.0449  0.3860
  138OSM   H17S14977   1.000   7.088   3.952  0.4696 -0.2662 -0.1857
  138OSM   H17T14978   1.131   7.196   3.884  0.5290  0.0356  0.5123
  138OSM   C18S14979   1.201   7.021   4.003 -0.6418  0.3590 -0.2553
  138OSM   H18S14980   1.163   6.921   4.032  0.5824  0.8350  3.5547
  138OSM   H18T14981   1.214   7.080   4.096  3.9281  0.8660 -0.9545
  138OSM   H18U14982   1.301   7.018   3.955  0.1532  1.2700  1.2705
  138OSM    C1F14983   0.604   6.999   2.544 -0.3676 -0.3802 -1.1639
  138OSM     OF14984   0.544   6.910   2.488 -0.2352  0.2251  0.6039
  138OSM    C2F14985   0.566   7.053   2.689 -0.0387 -0.5056  0.0202
  138OSM    H2F14986   0.612   7.154   2.700  0.4089 -0.7584  0.4937
  138OSM    H2G14987   0.613   6.986   2.763 -2.5709 -1.5275  0.8388
  138OSM    C3F14988   0.417   7.063   2.714  0.4432  0.5334  0.1255
  138OSM    H3F14989   0.379   6.959   2.705 -0.1503  0.8635 -1.6256
  138OSM    H3G14990   0.360   7.127   2.643 -0.8829  1.6158  2.0918
  138OSM    C4F14991   0.372   7.117   2.849  0.2242  0.2539  0.3480
  138OSM    H4F14992   0.262   7.100   2.848  0.1683  0.6366 -0.0707
  138OSM    H4G14993   0.395   7.225   2.862  0.9836  0.4332 -1.9774
  138OSM    C5F14994   0.437   7.033   2.958 -0.4794  0.3263 -0.3445
  138OSM    H5F14995   0.545   7.058   2.971 -0.3561  0.1379 -0.9518
  138OSM    H5G14996   0.433   6.923   2.938 -0.6127  0.2250  0.2250
  138OSM    C6F14997   0.348   7.051   3.089 -0.0780  0.2143  0.1548
  138OSM    H6F14998   0.336   6.958   3.148 -1.8252 -1.8696 -3.1736
  138OSM    H6G14999   0.250   7.082   3.048 -0.0809 -1.4318 -1.2003
  138OSM    C7F15000   0.389   7.174   3.173  0.6272  0.0386  0.2220
  138OSM    H7F15001   0.298   7.210   3.227  0.1325  3.7417 -2.6699
  138OSM    H7G15002   0.409   7.255   3.100 -0.0595  0.7084  0.7620
  138OSM    C8F15003   0.497   7.146   3.280 -0.1160  0.3266 -0.0737
  138OSM    H8F15004   0.528   7.242   3.327 -1.5536  1.4393 -1.2704
  138OSM    H8G15005   0.590   7.099   3.241 -0.1925  0.4679 -0.4283
  138OSM    C9F15006   0.443   7.055   3.383 -0.2898  0.0962 -0.0194
  138OSM    H9F15007   0.402   6.960   3.346  2.0746  0.2729 -3.5159
  138OSM   C10F15008   0.451   7.053   3.517  0.4934  0.6376 -0.4320
  138OSM   H10F15009   0.415   6.963   3.568  2.6747 -0.2988 -0.4269
  138OSM   C11F15010   0.513   7.149   3.615  0.5124  0.0005 -0.3041
  138OSM   H11F15011   0.435   7.196   3.678 -0.5361 -0.7581 -0.9781
  138OSM   H11G15012   0.562   7.225   3.551 -1.0146  1.3127  0.0326
  138OSM   C12F15013   0.616   7.082   3.711  0.4420  0.0933  0.4828
  138OSM   H12F15014   0.672   7.169   3.750  0.5592  0.4119 -0.3689
  138OSM   H12G15015   0.693   7.033   3.648  1.1951  1.3596  0.3842
  138OSM   C13F15016   0.549   6.985   3.813 -0.1634 -0.4793  1.0485
  138OSM   H13F15017   0.519   6.894   3.756  1.1356 -1.0494  1.2429
  138OSM   H13G15018   0.467   7.033   3.870 -0.5368 -0.2953  0.3602
  138OSM   C14F15019   0.649   6.935   3.907 -0.0709 -0.5424 -0.6657
  138OSM   H14F15020   0.715   7.016   3.945 -0.5570 -0.6553  0.4747
  138OSM   H14G15021   0.716   6.860   3.860 -0.7327 -1.6018  0.0552
  138OSM   C15F15022   0.587   6.857   4.031  0.1906 -0.1570  0.1592
  138OSM   H15F15023   0.574   6.752   3.997 -1.1979 -1.0209  3.0015
  138OSM   H15G15024   0.496   6.893   4.084  0.8238  2.0265 -0.1342
  138OSM   C16F15025   0.698   6.849   4.140  0.7988 -0.1608  0.0067
  138OSM   H16F15026   0.661   6.799   4.232 -0.7142  1.5781  0.3886
  138OSM   H16G15027   0.730   6.955   4.153 -1.4851  0.9326 -2.2486
  138OSM   C17F15028   0.823   6.771   4.104 -0.1387 -0.5362 -0.3197
  138OSM   H17F15029   0.900   6.790   4.182 -1.1223  0.5326  0.4231
  138OSM   H17G15030   0.862   6.805   4.006  2.7355 -1.5633  0.3568
  138OSM   C18F15031   0.815   6.617   4.106  0.2373  0.0360  0.3841
  138OSM   H18F15032   0.773   6.589   4.205 -2.6910  1.9756 -0.2004
  138OSM   H18G15033   0.912   6.568   4.083 -1.0825 -2.3919 -0.3248
  138OSM   H18H15034   0.746   6.584   4.026  0.3868  0.5569  0.0380
  139OSM      N15035   5.530   1.323   1.683 -0.0062  0.8355 -0.2585
  139OSM    C1515036   5.400   1.260   1.648  0.9346  0.2268  0.2950
  139OSM   H15A15037   5.362   1.314   1.562 -2.6726 -0.0349  1.5491
  139OSM   H15B15038   5.325   1.277   1.724 -0.6251  0.7665 -1.2769
  139OSM   H15C15039   5.409   1.153   1.635 -0.6880  0.1304 -0.3454
  139OSM    C1415040   5.623   1.312   1.567 -0.6913  0.1024  0.5485
  139OSM   H14A15041   5.648   1.208   1.548  0.4918  0.3742  0.5947
  139OSM   H14B15042   5.708   1.376   1.586 -1.0441  1.3957 -1.8979
  139OSM   H14C15043   5.575   1.354   1.480  0.9322  0.9331  0.0302
  139OSM    C1315044   5.511   1.463   1.713 -0.5651 -0.1849 -0.7706
  139OSM   H13A15045   5.603   1.491   1.761  0.6598 -2.6700 -1.4935
  139OSM   H13B15046   5.431   1.466   1.786  0.0859  1.6152 -0.0911
  139OSM   H13C15047   5.486   1.527   1.630 -3.8872  0.8088  0.7898
  139OSM    C1215048   5.585   1.248   1.805 -0.1571  0.5106  0.3766
  139OSM   H12A15049   5.562   1.142   1.806 -0.6579  0.4666 -3.1064
  139OSM   H12B15050   5.527   1.285   1.888 -1.4100 -4.9105  2.3553
  139OSM    C1115051   5.738   1.260   1.845 -1.1953  0.1322  0.2370
  139OSM   H11A15052   5.801   1.231   1.759  1.8072  2.0668  1.6466
  139OSM   H11B15053   5.752   1.199   1.938 -0.3951  1.3090  0.9095
  139OSM      P15054   5.883   1.463   1.940  0.1728  0.3483 -0.2515
  139OSM    O1315055   5.988   1.362   1.971  0.2218 -0.9124  0.3489
  139OSM    O1415056   5.933   1.574   1.867  0.3534 -0.1690 -0.3761
  139OSM    O1115057   5.814   1.513   2.067 -0.2363 -0.2313  0.4686
  139OSM    O1215058   5.756   1.401   1.867 -0.8936 -0.7273 -0.6720
  139OSM    C1S15059   5.759   1.434   2.170 -0.1729  0.3837  1.2944
  139OSM    H1S15060   5.790   1.328   2.160 -0.4497  0.4190 -0.3694
  139OSM    H1T15061   5.652   1.416   2.145  0.6921  0.3062 -3.2672
  139OSM     NF15062   5.758   1.364   2.400 -0.9663 -0.2772 -0.2015
  139OSM    HNF15063   5.664   1.360   2.435 -1.5445 -0.7745 -1.7424
  139OSM    C2S15064   5.787   1.474   2.320  0.2576 -0.7880  0.1334
  139OSM    H2S15065   5.894   1.504   2.330  0.7708 -3.1113  2.6341
  139OSM    C3S15066   5.710   1.611   2.345  0.0314  0.6482  0.5067
  139OSM    H3S15067   5.609   1.603   2.298  0.5134 -1.3769 -0.3062
  139OSM     O315068   5.780   1.722   2.303 -0.4445 -0.0337 -0.1693
  139OSM    HO315069   5.842   1.692   2.236  0.2966  1.7245 -0.3374
  139OSM    C4S15070   5.684   1.627   2.491 -0.9223  0.2560 -0.0214
  139OSM    H4S15071   5.770   1.683   2.531 -1.2586  0.5323  0.3113
  139OSM    C5S15072   5.572   1.596   2.561  0.1998 -0.7894  0.0705
  139OSM    H5S15073   5.483   1.566   2.503 -0.5281 -3.2107  2.2369
  139OSM    C6S15074   5.539   1.605   2.711  0.5713 -0.4216  0.1211
  139OSM    H6S15075   5.487   1.514   2.748 -1.4016  0.7539  0.4177
  139OSM    H6T15076   5.464   1.683   2.737 -0.8702 -1.2212 -1.4653
  139OSM    C7S15077   5.671   1.613   2.794  0.0595  0.3741 -1.1720
  139OSM    H7S15078   5.740   1.692   2.758 -0.0252  0.2526 -1.6112
  139OSM    H7T15079   5.717   1.513   2.780 -1.2014 -0.9454  2.9138
  139OSM    C8S15080   5.640   1.648   2.945  0.2760 -0.7560 -0.3159
  139OSM    H8S15081   5.570   1.564   2.959 -0.0519 -0.8453 -2.1542
  139OSM    H8T15082   5.586   1.745   2.946  0.7495 -0.4518 -1.6913
  139OSM    C9S15083   5.765   1.649   3.037  0.2113  0.1743 -0.1495
  139OSM    H9S15084   5.836   1.720   2.989  1.3730 -0.7753  0.1214
  139OSM    H9T15085   5.805   1.548   3.060  1.9756  1.1131  1.1636
  139OSM   C10S15086   5.732   1.702   3.176  0.4159 -1.1906  0.0517
  139OSM   H10S15087   5.640   1.656   3.217  0.7890 -0.3846  1.8722
  139OSM   H10T15088   5.711   1.809   3.151 -0.9669 -1.5987 -0.6362
  139OSM   C11S15089   5.851   1.696   3.274  0.2896 -0.3923  0.1698
  139OSM   H11S15090   5.930   1.754   3.221  0.6354 -0.8888  0.1410
  139OSM   H11T15091   5.890   1.592   3.277 -0.2275 -0.5719  2.4924
  139OSM   C12S15092   5.816   1.742   3.419  0.1411 -0.1377  0.6197
  139OSM   H12S15093   5.725   1.686   3.448  0.2967 -0.8200 -0.1723
  139OSM   H12T15094   5.787   1.850   3.413 -1.8777 -0.6620  0.1211
  139OSM   C13S15095   5.925   1.710   3.514  0.0698  0.2770  0.2637
  139OSM   H13S15096   6.020   1.717   3.457 -0.0737 -0.3903 -0.0724
  139OSM   H13T15097   5.908   1.613   3.566  0.1396 -0.4828 -1.0922
  139OSM   C14S15098   5.928   1.815   3.625  0.6528 -0.1559 -0.3227
  139OSM   H14S15099   5.847   1.784   3.694  0.7792 -0.5835 -0.3633
  139OSM   H14T15100   5.882   1.906   3.580 -0.7925 -0.8438 -0.2956
  139OSM   C15S15101   6.067   1.813   3.699 -0.3157 -0.1287  0.2728
  139OSM   H15S15102   6.124   1.872   3.624  0.0168 -1.2174 -0.3566
  139OSM   H15T15103   6.116   1.713   3.704  0.8815  0.4137 -0.1767
  139OSM   C16S15104   6.059   1.896   3.831 -0.1355 -0.2533 -0.4179
  139OSM   H16S15105   6.159   1.878   3.877  0.4829 -2.3690 -2.3511
  139OSM   H16T15106   5.992   1.847   3.905 -1.0829  2.3044  0.5198
  139OSM   C17S15107   6.027   2.045   3.812  0.4410 -0.4422  0.4713
  139OSM   H17S15108   5.935   2.055   3.751  2.9301  1.2394 -3.3295
  139OSM   H17T15109   6.096   2.092   3.740 -0.8904  1.1504  0.1824
  139OSM   C18S15110   6.026   2.121   3.949  0.0655 -0.2404  0.4416
  139OSM   H18S15111   6.016   2.231   3.938  1.5295 -0.1564 -0.2668
  139OSM   H18T15112   6.111   2.094   4.015  0.1982 -2.4722 -0.5366
  139OSM   H18U15113   5.931   2.086   3.994 -0.8622  1.6027 -0.0126
  139OSM    C1F15114   5.836   1.256   2.418 -0.4975  0.2609 -0.0739
  139OSM     OF15115   5.954   1.250   2.373  0.4205 -0.2582 -0.3264
  139OSM    C2F15116   5.775   1.139   2.478  0.2316 -0.1741 -0.5791
  139OSM    H2F15117   5.755   1.074   2.390  1.9613 -0.4638 -0.7849
  139OSM    H2G15118   5.677   1.164   2.525  0.6757 -1.9664  1.4833
  139OSM    C3F15119   5.880   1.066   2.561  0.7944 -0.1895 -0.1159
  139OSM    H3F15120   5.977   1.050   2.511  1.9717  1.5254  1.4846
  139OSM    H3G15121   5.840   0.965   2.583  1.2558 -0.0453  1.4805
  139OSM    C4F15122   5.915   1.129   2.691  0.4861  0.3811 -0.3532
  139OSM    H4F15123   5.967   1.225   2.669  0.8323  0.0921 -0.8153
  139OSM    H4G15124   5.985   1.062   2.745 -1.0979 -0.6697  0.4557
  139OSM    C5F15125   5.801   1.153   2.785  0.1472  0.6995  0.0641
  139OSM    H5F15126   5.715   1.083   2.779  0.9738 -0.3051 -0.2757
  139OSM    H5G15127   5.759   1.254   2.764 -1.2848  0.3686  1.1990
  139OSM    C6F15128   5.845   1.148   2.932 -0.5360 -0.0017  0.3374
  139OSM    H6F15129   5.934   1.215   2.940 -1.9187  1.8270  1.0935
  139OSM    H6G15130   5.859   1.044   2.971 -0.6135  0.1992  0.9120
  139OSM    C7F15131   5.737   1.217   3.022  0.2455  1.1461  0.5804
  139OSM    H7F15132   5.663   1.137   3.042  0.2364  0.5973 -1.3805
  139OSM    H7G15133   5.685   1.301   2.970  0.9520  2.2396  1.5848
  139OSM    C8F15134   5.784   1.265   3.161 -1.1002 -0.2401 -0.1209
  139OSM    H8F15135   5.691   1.288   3.218  0.7385 -0.2939  3.1629
  139OSM    H8G15136   5.860   1.344   3.142 -1.0383 -0.2662  0.0146
  139OSM    C9F15137   5.855   1.161   3.249  0.5722 -0.0919  0.8876
  139OSM    H9F15138   5.892   1.075   3.191 -0.2701 -1.1464  1.8777
  139OSM   C10F15139   5.879   1.175   3.379 -0.0245 -0.2165 -0.5446
  139OSM   H10F15140   5.926   1.093   3.434 -1.6242  1.2573  3.3545
  139OSM   C11F15141   5.846   1.299   3.458  0.1971 -0.1797  0.8907
  139OSM   H11F15142   5.802   1.379   3.395 -0.6668  0.0861  1.7994
  139OSM   H11G15143   5.939   1.343   3.502 -0.0668 -0.2111  1.4967
  139OSM   C12F15144   5.742   1.279   3.560 -0.1132 -0.0085 -0.3105
  139OSM   H12F15145   5.780   1.205   3.635  1.5456  1.2577  0.1629
  139OSM   H12G15146   5.659   1.226   3.509  0.2696 -1.5421  0.5889
  139OSM   C13F15147   5.709   1.414   3.631  0.1570  0.0653 -0.2145
  139OSM   H13F15148   5.707   1.498   3.558  1.5253 -0.0846 -0.4534
  139OSM   H13G15149   5.794   1.431   3.701 -1.2092  0.3134  1.4455
  139OSM   C14F15150   5.583   1.408   3.717  0.1142 -0.4937  1.1552
  139OSM   H14F15151   5.523   1.321   3.685  1.5114 -0.3743 -2.1597
  139OSM   H14G15152   5.521   1.499   3.699 -0.7505 -1.2679  0.1080
  139OSM   C15F15153   5.612   1.393   3.872 -0.0738  0.6362  0.4672
  139OSM   H15F15154   5.541   1.444   3.941 -1.1769 -0.1642 -0.0436
  139OSM   H15G15155   5.712   1.436   3.890  0.0223  0.8513 -0.4859
  139OSM   C16F15156   5.609   1.255   3.925  0.3135  0.0168  0.7930
  139OSM   H16F15157   5.703   1.247   3.983  0.6397 -0.3806  0.2229
  139OSM   H16G15158   5.616   1.180   3.843  0.6769  2.9777 -2.0551
  139OSM   C17F15159   5.486   1.232   4.021  0.0327  0.5892 -0.3133
  139OSM   H17F15160   5.392   1.224   3.962 -0.5342 -0.0136  0.6440
  139OSM   H17G15161   5.479   1.322   4.086  2.2602  0.8907 -0.4058
  139OSM   C18F15162   5.501   1.102   4.107 -0.3321  0.0201  1.0928
  139OSM   H18F15163   5.517   1.008   4.049  2.7292  0.2998  1.3302
  139OSM   H18G15164   5.408   1.093   4.167 -0.6656 -2.8143  0.2998
  139OSM   H18H15165   5.593   1.101   4.169  0.9122  0.6002 -0.6875
  140OSM      N15166   6.150   0.737   2.120 -0.4117  0.0769  0.1914
  140OSM    C1515167   6.061   0.761   1.999 -0.3740 -0.7875 -0.3197
  140OSM   H15A15168   6.035   0.666   1.954 -0.1536 -0.2542 -1.6343
  140OSM   H15B15169   6.116   0.826   1.932 -0.1504 -0.6017  0.0413
  140OSM   H15C15170   5.975   0.806   2.046  1.4834  1.0905  1.4991
  140OSM    C1415171   6.275   0.663   2.069 -0.1539  0.4043  0.0137
  140OSM   H14A15172   6.327   0.624   2.155  0.7793  0.8179 -0.3582
  140OSM   H14B15173   6.340   0.735   2.023  1.2920  1.4720  3.4539
  140OSM   H14C15174   6.242   0.584   2.003 -0.1752 -1.0969  1.7457
  140OSM    C1315175   6.195   0.864   2.184  0.5120  0.0772  0.4246
  140OSM   H13A15176   6.112   0.916   2.229  1.2915  0.9751  0.8492
  140OSM   H13B15177   6.246   0.923   2.110  0.2102  0.1223  0.2498
  140OSM   H13C15178   6.266   0.853   2.265 -0.5819  1.5644  1.6685
  140OSM    C1215179   6.083   0.651   2.218  0.0322 -1.1007  0.1672
  140OSM   H12A15180   6.155   0.623   2.293 -0.5746 -0.6334  0.9442
  140OSM   H12B15181   6.066   0.558   2.165  3.7986 -1.8631  0.0526
  140OSM    C1115182   5.951   0.704   2.289 -0.7820  0.5719 -1.4004
  140OSM   H11A15183   5.963   0.802   2.340 -0.1347 -0.6598  0.9701
  140OSM   H11B15184   5.939   0.638   2.378  0.9561  1.0870 -0.7530
  140OSM      P15185   5.692   0.735   2.239  0.1589 -0.2596 -0.5047
  140OSM    O1315186   5.670   0.883   2.240 -0.3807  0.4469  0.0769
  140OSM    O1415187   5.609   0.666   2.141  0.3493 -0.4290  0.0404
  140OSM    O1115188   5.671   0.674   2.377 -0.0375  0.7987 -0.0768
  140OSM    O1215189   5.842   0.705   2.196 -0.0936  0.3869 -0.2072
  140OSM    C1S15190   5.543   0.671   2.443  0.5327 -0.1920  0.2526
  140OSM    H1S15191   5.487   0.583   2.407  0.0537 -0.1324  0.8385
  140OSM    H1T15192   5.490   0.769   2.441  1.9134  0.5983  0.7909
  140OSM     NF15193   5.418   0.632   2.643  0.1358  0.5583 -0.2527
  140OSM    HNF15194   5.405   0.718   2.691 -0.9573  1.0953 -1.4547
  140OSM    C2S15195   5.553   0.618   2.588 -0.6912  0.4811 -0.7865
  140OSM    H2S15196   5.591   0.514   2.579 -0.3458  0.7859 -4.0480
  140OSM    C3S15197   5.658   0.707   2.666 -0.4156  0.3731 -0.0111
  140OSM    H3S15198   5.612   0.807   2.678  0.6604  0.9492 -0.5622
  140OSM     O315199   5.791   0.727   2.602  0.0597 -0.8567 -0.1244
  140OSM    HO315200   5.781   0.697   2.511  1.0471  0.5601 -0.7468
  140OSM    C4S15201   5.676   0.657   2.806  0.6596  0.5521  0.0917
  140OSM    H4S15202   5.618   0.712   2.881 -0.0544 -2.7905  2.2128
  140OSM    C5S15203   5.759   0.565   2.860 -0.1928 -0.3767 -0.8163
  140OSM    H5S15204   5.840   0.509   2.812 -0.8099 -1.6814 -0.3848
  140OSM    C6S15205   5.772   0.545   3.006 -0.3433  0.3242  0.1417
  140OSM    H6S15206   5.792   0.436   3.005 -0.9240  0.2029 -1.6684
  140OSM    H6T15207   5.676   0.558   3.061  0.1431 -1.8717  1.6490
  140OSM    C7S15208   5.875   0.638   3.081  0.1482  0.0894  0.0301
  140OSM    H7S15209   5.862   0.611   3.188  1.0286  1.3606  0.4867
  140OSM    H7T15210   5.847   0.745   3.075 -0.7641 -0.1367  0.2092
  140OSM    C8S15211   6.025   0.614   3.054  0.4666  0.1563 -0.6914
  140OSM    H8S15212   6.034   0.628   2.944  0.7078 -2.0937 -0.9922
  140OSM    H8T15213   6.050   0.508   3.073 -0.3188  0.1894  0.7326
  140OSM    C9S15214   6.109   0.721   3.116  0.1598  0.5476  0.3514
  140OSM    H9S15215   6.081   0.826   3.095 -0.4181  0.4273  0.4933
  140OSM    H9T15216   6.217   0.716   3.093  0.5920  1.5067  2.0286
  140OSM   C10S15217   6.097   0.718   3.267  0.7671 -0.5990 -1.2424
  140OSM   H10S15218   6.132   0.619   3.305  2.0413  0.3108  0.0892
  140OSM   H10T15219   5.990   0.722   3.295  0.9858  0.4728 -0.5058
  140OSM   C11S15220   6.157   0.832   3.345  0.4358  0.6262 -0.0533
  140OSM   H11S15221   6.143   0.924   3.284  1.5997 -0.1972 -1.6276
  140OSM   H11T15222   6.267   0.818   3.349  0.2884 -0.6223  0.0049
  140OSM   C12S15223   6.092   0.846   3.483  0.2265 -0.6808  0.3049
  140OSM   H12S15224   5.982   0.861   3.482  0.4609  1.9178  1.9616
  140OSM   H12T15225   6.111   0.951   3.516 -0.0530 -0.4137 -0.3761
  140OSM   C13S15226   6.146   0.747   3.579 -0.4051 -0.0923  0.6611
  140OSM   H13S15227   6.245   0.787   3.611 -0.2023  0.6467 -0.8108
  140OSM   H13T15228   6.169   0.655   3.522  0.0638  0.7355 -0.5226
  140OSM   C14S15229   6.046   0.739   3.700 -0.1381 -0.5526  0.3480
  140OSM   H14S15230   6.062   0.659   3.775 -2.2386 -2.1345 -0.7833
  140OSM   H14T15231   5.951   0.718   3.648  0.9787 -0.8293 -1.6876
  140OSM   C15S15232   6.041   0.871   3.779 -0.2124  0.2482  0.6040
  140OSM   H15S15233   5.994   0.951   3.718  1.7282  1.1465  0.2173
  140OSM   H15T15234   6.142   0.907   3.805 -0.2485  0.3255  0.6365
  140OSM   C16S15235   5.955   0.869   3.908 -0.1639  0.8314  0.4246
  140OSM   H16S15236   6.008   0.796   3.973  1.8004  1.6026 -0.2279
  140OSM   H16T15237   5.855   0.832   3.876 -1.3969  2.7181  1.8797
  140OSM   C17S15238   5.942   1.002   3.977  0.4178 -0.2902  0.2374
  140OSM   H17S15239   5.870   1.069   3.925 -1.9700 -2.8865 -0.0025
  140OSM   H17T15240   6.045   1.045   3.974  0.3907 -0.2749 -1.8744
  140OSM   C18S15241   5.891   1.000   4.125 -0.0486 -0.3444 -0.9376
  140OSM   H18S15242   5.786   0.965   4.122 -0.8207  1.8877 -1.9204
  140OSM   H18T15243   5.882   1.103   4.165  1.3673 -0.2631 -0.7519
  140OSM   H18U15244   5.968   0.945   4.183 -0.5757 -0.7340 -0.5964
  140OSM    C1F15245   5.320   0.546   2.629  0.0233  0.1627  1.0487
  140OSM     OF15246   5.340   0.436   2.588 -0.5073  0.6243  0.2124
  140OSM    C2F15247   5.181   0.580   2.674 -0.4334  0.4482 -0.4983
  140OSM    H2F15248   5.111   0.518   2.614  0.2318 -1.1295  0.2906
  140OSM    H2G15249   5.150   0.683   2.648 -1.2851 -0.2787 -2.5769
  140OSM    C3F15250   5.167   0.528   2.816 -0.4202  0.0143 -0.3291
  140OSM    H3F15251   5.232   0.593   2.877 -1.2333  0.1727  0.3862
  140OSM    H3G15252   5.198   0.421   2.826 -0.5457  0.0673  0.7603
  140OSM    C4F15253   5.027   0.551   2.867 -0.0092  1.0846 -0.1632
  140OSM    H4F15254   4.960   0.495   2.798 -0.6847  0.4837  0.9479
  140OSM    H4G15255   5.002   0.658   2.848 -0.6201  0.9959  0.1168
  140OSM    C5F15256   5.006   0.514   3.013  0.2905  0.8471 -0.4485
  140OSM    H5F15257   5.035   0.409   3.035  0.6180  1.1508  0.6468
  140OSM    H5G15258   4.895   0.524   3.016 -0.0570 -1.8136 -1.7660
  140OSM    C6F15259   5.056   0.615   3.120  0.0801  0.3565 -0.0806
  140OSM    H6F15260   5.034   0.718   3.087 -1.3734 -0.0052 -0.3182
  140OSM    H6G15261   5.167   0.605   3.119 -0.0370 -1.9188  1.3417
  140OSM    C7F15262   4.988   0.601   3.254 -0.1633 -0.1701  0.6943
  140OSM    H7F15263   4.999   0.500   3.297 -1.0358 -0.0053  1.3405
  140OSM    H7G15264   4.878   0.614   3.257 -0.0946  0.7782 -0.3234
  140OSM    C8F15265   5.050   0.701   3.350  0.0279  0.0499 -0.0217
  140OSM    H8F15266   5.023   0.803   3.314  2.7051  1.1186  0.7309
  140OSM    H8G15267   5.160   0.701   3.337  0.4731 -2.0888  2.8119
  140OSM    C9F15268   5.026   0.681   3.499  0.6237  0.2723  0.0871
  140OSM    H9F15269   5.071   0.592   3.547 -2.2601 -1.6337 -0.4881
  140OSM   C10F15270   4.945   0.765   3.576 -0.4884 -0.3735 -0.2964
  140OSM   H10F15271   4.930   0.746   3.684 -1.8083 -2.1243 -0.7573
  140OSM   C11F15272   4.865   0.887   3.524 -0.6968  0.2074  0.7147
  140OSM   H11F15273   4.874   0.879   3.413  0.1909 -0.1961  0.8127
  140OSM   H11G15274   4.905   0.985   3.557 -2.0989  1.2677 -0.5313
  140OSM   C12F15275   4.712   0.893   3.561 -0.1503 -0.2136 -0.2559
  140OSM   H12F15276   4.662   0.807   3.512  3.3578 -1.8641 -1.3039
  140OSM   H12G15277   4.683   0.992   3.522  2.2615  0.3025 -0.8867
  140OSM   C13F15278   4.671   0.887   3.710  0.3613  0.1165 -0.9612
  140OSM   H13F15279   4.724   0.801   3.757  0.8332  1.4603  1.0970
  140OSM   H13G15280   4.563   0.866   3.730  0.3891 -0.9261 -1.8200
  140OSM   C14F15281   4.697   1.020   3.788  0.2480 -0.1394  0.0010
  140OSM   H14F15282   4.648   1.104   3.734 -0.5449 -0.2978  0.4747
  140OSM   H14G15283   4.804   1.050   3.783  0.0767  0.8268  1.5179
  140OSM   C15F15284   4.646   1.021   3.935  0.8045  0.4575  0.8806
  140OSM   H15F15285   4.709   0.958   4.002  2.7103  3.5419  2.2573
  140OSM   H15G15286   4.542   0.983   3.944  0.9668 -0.2884 -0.1859
  140OSM   C16F15287   4.652   1.166   3.996 -0.2607  0.6542  0.4095
  140OSM   H16F15288   4.567   1.225   3.956 -1.6871 -0.5309  1.5452
  140OSM   H16G15289   4.748   1.205   3.956  0.4098 -1.5597 -0.2834
  140OSM   C17F15290   4.662   1.176   4.147  0.0679 -0.5187 -0.0077
  140OSM   H17F15291   4.711   1.273   4.170 -0.1940  0.1355 -1.9825
  140OSM   H17G15292   4.717   1.088   4.185 -0.9428 -1.9812 -1.7346
  140OSM   C18F15293   4.534   1.177   4.224  0.4473 -0.4769  0.0832
  140OSM   H18F15294   4.557   1.170   4.333 -0.9651  0.8220  0.4916
  140OSM   H18G15295   4.476   1.085   4.199  0.8553 -0.4849 -0.8589
  140OSM   H18H15296   4.470   1.267   4.212 -0.0509 -1.0096 -1.4817
  141OSM      N15297   2.639   3.393   1.831  0.4487  0.0351 -0.3272
  141OSM    C1515298   2.755   3.320   1.766 -0.6249 -0.6671 -0.4207
  141OSM   H15A15299   2.825   3.272   1.833 -2.5539 -2.1617  0.6000
  141OSM   H15B15300   2.814   3.397   1.718 -1.9304  2.2263  2.2118
  141OSM   H15C15301   2.724   3.246   1.694  0.2527 -0.2195 -1.2953
  141OSM    C1415302   2.687   3.524   1.887  0.6825 -0.2599  0.4771
  141OSM   H14A15303   2.743   3.588   1.821  1.0723  1.1705  2.1602
  141OSM   H14B15304   2.750   3.491   1.968  0.3890 -3.1084 -0.3312
  141OSM   H14C15305   2.611   3.585   1.934 -0.6617 -2.3947  1.2340
  141OSM    C1315306   2.542   3.423   1.718 -0.5041 -0.0405 -0.4485
  141OSM   H13A15307   2.444   3.452   1.753  0.6764  2.1226  1.4189
  141OSM   H13B15308   2.535   3.350   1.640 -1.0624 -0.7666  0.2621
  141OSM   H13C15309   2.585   3.509   1.669  2.0307 -1.3040 -0.6348
  141OSM    C1215310   2.572   3.298   1.931  0.0947 -0.3422  0.0155
  141OSM   H12A15311   2.588   3.197   1.896 -0.5963 -0.9135  1.3028
  141OSM   H12B15312   2.465   3.311   1.927 -0.0437 -1.2716  0.4208
  141OSM    C1115313   2.642   3.304   2.072  0.2076 -0.0439  0.4312
  141OSM   H11A15314   2.573   3.261   2.148  1.8112 -2.9801  0.3354
  141OSM   H11B15315   2.664   3.408   2.104  1.6689  0.0226 -0.7024
  141OSM      P15316   2.770   3.082   2.067  0.6061 -0.3565  0.1156
  141OSM    O1315317   2.676   3.024   1.965 -0.0887 -0.3199  0.6126
  141OSM    O1415318   2.908   3.038   2.063 -0.5408  0.3862  1.3347
  141OSM    O1115319   2.722   3.045   2.214 -0.0695  0.3267 -0.1439
  141OSM    O1215320   2.764   3.241   2.067 -0.0658  0.5931  0.3256
  141OSM    C1S15321   2.762   3.124   2.323 -0.5526  0.6080  0.0107
  141OSM    H1S15322   2.757   3.233   2.303 -2.3553  1.1596  2.8861
  141OSM    H1T15323   2.868   3.098   2.344 -0.9165 -0.9621  0.0205
  141OSM     NF15324   2.754   3.149   2.573 -0.3377  0.1358  0.1541
  141OSM    HNF15325   2.793   3.095   2.647 -3.5601  0.1230  2.0224
  141OSM    C2S15326   2.691   3.086   2.459  0.2214  0.7394  0.4654
  141OSM    H2S15327   2.582   3.103   2.465  0.1875  0.8636 -0.4166
  141OSM    C3S15328   2.686   2.932   2.483  0.1877 -0.5034 -0.2456
  141OSM    H3S15329   2.794   2.906   2.474  0.4177  0.4584 -0.2873
  141OSM     O315330   2.618   2.858   2.384 -0.1639  0.1881  0.1890
  141OSM    HO315331   2.651   2.897   2.303 -1.6222  0.0743 -0.4942
  141OSM    C4S15332   2.642   2.898   2.620  0.2823 -0.0127  0.4051
  141OSM    H4S15333   2.719   2.858   2.688  0.9287 -0.0354 -0.3247
  141OSM    C5S15334   2.514   2.908   2.674 -0.4516 -0.0623 -0.6836
  141OSM    H5S15335   2.432   2.941   2.608 -0.2419  1.2738 -0.3025
  141OSM    C6S15336   2.491   2.879   2.817  0.1204 -0.1702 -0.2812
  141OSM    H6S15337   2.582   2.868   2.879 -1.2337 -0.5143  1.7680
  141OSM    H6T15338   2.443   2.779   2.811  0.5488 -0.3003 -4.0064
  141OSM    C7S15339   2.396   2.981   2.884  0.3103  0.9740  0.1292
  141OSM    H7S15340   2.300   2.963   2.831 -0.9212  0.1431  2.4770
  141OSM    H7T15341   2.421   3.089   2.877  0.2955  0.9685 -0.0196
  141OSM    C8S15342   2.370   2.947   3.034 -0.3426 -0.0026  0.8412
  141OSM    H8S15343   2.459   2.982   3.091  0.0597 -0.5075  0.5316
  141OSM    H8T15344   2.367   2.837   3.049  0.7452 -0.1946 -0.2185
  141OSM    C9S15345   2.245   3.009   3.091  0.1377 -0.1562  0.3206
  141OSM    H9S15346   2.159   3.016   3.021 -0.5243 -0.6648  1.0518
  141OSM    H9T15347   2.262   3.114   3.121 -1.4587  1.0551 -2.6184
  141OSM   C10S15348   2.190   2.941   3.213  0.3863 -0.0049 -0.4036
  141OSM   H10S15349   2.147   2.841   3.192 -1.7820  0.5076  1.2464
  141OSM   H10T15350   2.104   3.008   3.231  1.7153  1.6862 -0.0351
  141OSM   C11S15351   2.286   2.928   3.330 -0.7397 -0.2406 -0.5855
  141OSM   H11S15352   2.351   3.018   3.328 -1.4326  0.3259  0.7689
  141OSM   H11T15353   2.362   2.847   3.325  0.5169  0.3920  3.9284
  141OSM   C12S15354   2.224   2.913   3.466 -0.8236 -0.6542 -0.0961
  141OSM   H12S15355   2.177   2.812   3.474 -1.1867 -0.5826 -1.2022
  141OSM   H12T15356   2.151   2.995   3.484  0.8434  1.1931 -1.3050
  141OSM   C13S15357   2.331   2.913   3.582 -0.0928 -0.3804  0.7173
  141OSM   H13S15358   2.380   3.013   3.586  0.5537 -0.5573 -1.5313
  141OSM   H13T15359   2.408   2.845   3.540  1.1940  0.5716  1.4738
  141OSM   C14S15360   2.281   2.857   3.714  0.0746 -0.1867  0.6729
  141OSM   H14S15361   2.368   2.834   3.779  0.3698  1.8257  1.0633
  141OSM   H14T15362   2.230   2.760   3.699  1.4969 -0.7592 -0.8203
  141OSM   C15S15363   2.195   2.962   3.794 -1.0705  0.0477 -0.4680
  141OSM   H15S15364   2.117   3.000   3.724  1.5663  0.5369 -3.3773
  141OSM   H15T15365   2.263   3.042   3.830 -0.5709 -0.6895  0.2585
  141OSM   C16S15366   2.139   2.898   3.927 -0.0500 -0.5913  1.1244
  141OSM   H16S15367   2.079   2.809   3.898  2.0320 -1.7027  0.0168
  141OSM   H16T15368   2.068   2.968   3.975 -2.2515 -1.5582 -0.5251
  141OSM   C17S15369   2.227   2.842   4.030 -0.2038  0.0841 -0.0772
  141OSM   H17S15370   2.269   2.741   4.009  0.9805  0.5916 -0.2447
  141OSM   H17T15371   2.171   2.822   4.124 -0.6680 -1.0708 -0.5702
  141OSM   C18S15372   2.339   2.944   4.062  0.4547  0.4289 -0.1018
  141OSM   H18S15373   2.405   2.961   3.974  1.0758  1.1908  0.4874
  141OSM   H18T15374   2.410   2.919   4.143  1.0955  1.7040 -0.2323
  141OSM   H18U15375   2.289   3.038   4.095 -2.4792 -0.8069 -0.7362
  141OSM    C1F15376   2.737   3.277   2.601  0.2221  0.0916 -0.3488
  141OSM     OF15377   2.703   3.351   2.517  0.5220 -0.2240  0.7511
  141OSM    C2F15378   2.769   3.313   2.746 -0.0845  0.0751 -0.4788
  141OSM    H2F15379   2.878   3.302   2.764  0.0832  0.2968 -1.3425
  141OSM    H2G15380   2.740   3.225   2.808  1.4517 -2.4328 -3.0741
  141OSM    C3F15381   2.714   3.455   2.783  0.1988 -0.3810 -0.0552
  141OSM    H3F15382   2.722   3.520   2.693 -0.1472 -0.6222 -0.2583
  141OSM    H3G15383   2.769   3.502   2.868  1.4925 -1.6815 -0.1410
  141OSM    C4F15384   2.571   3.455   2.840  0.8144 -0.4267  0.3984
  141OSM    H4F15385   2.505   3.409   2.763  0.4890 -1.3487  1.2053
  141OSM    H4G15386   2.533   3.558   2.848  0.7617 -0.4367  0.2796
  141OSM    C5F15387   2.548   3.372   2.971 -0.4314 -0.0218  0.3479
  141OSM    H5F15388   2.612   3.418   3.050  1.2583  1.3179 -1.6743
  141OSM    H5G15389   2.582   3.267   2.956  0.0136 -0.4362  3.5397
  141OSM    C6F15390   2.401   3.374   3.009  0.4524  0.5489 -0.6193
  141OSM    H6F15391   2.388   3.287   3.077  0.1236 -0.0757 -1.4642
  141OSM    H6G15392   2.330   3.355   2.926 -1.6217 -0.8494  1.3400
  141OSM    C7F15393   2.368   3.511   3.083 -0.3441  0.8337  0.9330
  141OSM    H7F15394   2.369   3.591   3.005 -1.6756  1.5092  1.5742
  141OSM    H7G15395   2.449   3.522   3.158 -0.6918 -0.9156  1.6146
  141OSM    C8F15396   2.232   3.524   3.153  0.3198  0.2062  0.8827
  141OSM    H8F15397   2.218   3.615   3.214  0.0278  0.1726  0.8696
  141OSM    H8G15398   2.231   3.431   3.213  1.7908  0.1774  0.9096
  141OSM    C9F15399   2.112   3.502   3.058 -0.0027  0.1279 -0.4694
  141OSM    H9F15400   2.115   3.531   2.952 -0.0598 -0.9568 -0.7830
  141OSM   C10F15401   1.996   3.452   3.089 -0.2241 -0.1483 -0.5703
  141OSM   H10F15402   1.923   3.426   3.010  1.6808 -1.6973 -1.9421
  141OSM   C11F15403   1.956   3.400   3.225 -0.0566 -0.0145 -0.2781
  141OSM   H11F15404   1.866   3.451   3.267 -0.9479 -0.4153 -1.6389
  141OSM   H11G15405   2.042   3.418   3.292  0.3165 -0.3215 -0.6720
  141OSM   C12F15406   1.918   3.252   3.228  0.0676  0.2222 -0.1577
  141OSM   H12F15407   1.980   3.195   3.155  0.3836  1.7298 -1.1008
  141OSM   H12G15408   1.812   3.250   3.196  0.1212  1.3625 -0.4519
  141OSM   C13F15409   1.934   3.182   3.362 -0.1674  0.2428  0.2062
  141OSM   H13F15410   2.041   3.176   3.391 -0.8122 -2.5727  2.4750
  141OSM   H13G15411   1.898   3.078   3.344 -2.6941  1.1672 -0.3548
  141OSM   C14F15412   1.836   3.234   3.467  0.0134  0.4961 -0.2409
  141OSM   H14F15413   1.734   3.236   3.422  0.1190  0.4130 -0.4841
  141OSM   H14G15414   1.862   3.340   3.488 -2.4593  1.1441 -0.0500
  141OSM   C15F15415   1.848   3.157   3.602  0.1259 -0.5475 -0.7664
  141OSM   H15F15416   1.952   3.151   3.638  0.0867 -5.3742 -0.7412
  141OSM   H15G15417   1.820   3.050   3.588  0.0810 -0.2976 -3.0644
  141OSM   C16F15418   1.759   3.203   3.717  0.3033 -0.2589  0.1502
  141OSM   H16F15419   1.741   3.130   3.799  1.4981  0.5741  1.1949
  141OSM   H16G15420   1.658   3.228   3.680  0.3554 -0.5793 -0.2136
  141OSM   C17F15421   1.835   3.323   3.790  0.6570  0.0454 -0.1989
  141OSM   H17F15422   1.829   3.412   3.723 -2.5286 -0.0922 -0.2422
  141OSM   H17G15423   1.941   3.301   3.811  0.3424  0.5270  2.1807
  141OSM   C18F15424   1.768   3.374   3.918 -0.6762  0.0649 -0.1835
  141OSM   H18F15425   1.678   3.439   3.906 -0.2698  0.4905 -0.9825
  141OSM   H18G15426   1.839   3.430   3.982 -0.0239 -1.3653  0.3952
  141OSM   H18H15427   1.745   3.277   3.968 -0.7779 -0.8404 -1.9059
  142OSM      N15428   2.722   1.509   1.861 -0.6393 -0.3175 -0.6130
  142OSM    C1515429   2.797   1.576   1.975  0.1153  0.2101  0.4732
  142OSM   H15A15430   2.858   1.651   1.928  1.2624 -0.7726  0.3374
  142OSM   H15B15431   2.867   1.512   2.028 -0.9563 -1.1147  0.3398
  142OSM   H15C15432   2.735   1.608   2.058 -0.2711  0.8017 -0.0420
  142OSM    C1415433   2.622   1.419   1.923 -0.1688 -0.5764 -0.5951
  142OSM   H14A15434   2.681   1.333   1.951 -1.0138 -0.8562  0.3886
  142OSM   H14B15435   2.552   1.386   1.848 -1.2514  2.0833 -0.8831
  142OSM   H14C15436   2.574   1.444   2.016  1.8049 -0.4881  0.4457
  142OSM    C1315437   2.644   1.611   1.788 -0.3531 -0.5495  0.1764
  142OSM   H13A15438   2.566   1.647   1.854  0.8953  0.7717  0.9805
  142OSM   H13B15439   2.591   1.572   1.703  0.8944 -1.1470 -0.3426
  142OSM   H13C15440   2.707   1.692   1.754  0.4953 -1.5834 -0.7904
  142OSM    C1215441   2.824   1.440   1.770  0.3342  0.1860  0.0238
  142OSM   H12A15442   2.889   1.381   1.834 -0.8444 -2.6168 -1.1800
  142OSM   H12B15443   2.876   1.515   1.712 -1.8816  2.0080  0.2567
  142OSM    C1115444   2.778   1.327   1.675  0.1981 -0.6781  0.4893
  142OSM   H11A15445   2.864   1.301   1.610  1.3652  2.7640  0.4643
  142OSM   H11B15446   2.695   1.357   1.607 -1.4519 -3.1523  1.2683
  142OSM      P15447   2.734   1.080   1.686 -0.5261  0.1476 -0.2583
  142OSM    O1315448   2.599   1.055   1.619 -0.0576 -0.0913 -0.0140
  142OSM    O1415449   2.856   1.062   1.606  0.1620  0.3674  0.5962
  142OSM    O1115450   2.750   0.995   1.811  0.2989 -0.0699 -0.7325
  142OSM    O1215451   2.732   1.217   1.749 -0.3845 -0.5038 -0.1109
  142OSM    C1S15452   2.827   1.025   1.933 -0.5641  0.2555 -0.7132
  142OSM    H1S15453   2.876   1.124   1.927 -0.5011  0.4867  2.1024
  142OSM    H1T15454   2.919   0.963   1.931  0.3197  1.5198 -3.4990
  142OSM     NF15455   2.828   1.038   2.179 -0.3210 -0.1376  0.2343
  142OSM    HNF15456   2.859   0.956   2.225 -0.7099 -1.9849 -2.5177
  142OSM    C2S15457   2.738   1.017   2.068 -0.3316  0.1456  1.3216
  142OSM    H2S15458   2.660   1.096   2.064  1.7829  2.2981  0.8839
  142OSM    C3S15459   2.667   0.881   2.064  0.6945  0.1474  0.1472
  142OSM    H3S15460   2.739   0.800   2.044  0.5393  0.3251 -1.2068
  142OSM     O315461   2.563   0.871   1.970  0.1270  0.1289 -0.2258
  142OSM    HO315462   2.593   0.941   1.911  2.4424 -0.3345  0.3249
  142OSM    C4S15463   2.610   0.857   2.211 -0.3782  0.1218  0.3389
  142OSM    H4S15464   2.677   0.801   2.276  0.3922  2.4611  1.6835
  142OSM    C5S15465   2.491   0.895   2.262 -0.1962  0.4613 -0.2275
  142OSM    H5S15466   2.415   0.941   2.196 -0.4066  0.4296 -0.0089
  142OSM    C6S15467   2.444   0.877   2.400  0.6071 -0.5112  0.3958
  142OSM    H6S15468   2.348   0.822   2.412 -1.0812  1.6876 -2.0478
  142OSM    H6T15469   2.418   0.979   2.435  0.8257 -0.0678 -0.7241
  142OSM    C7S15470   2.535   0.816   2.502 -0.2119 -0.2504  0.1446
  142OSM    H7S15471   2.639   0.853   2.489 -0.2555  0.0841  0.7357
  142OSM    H7T15472   2.541   0.710   2.469  0.4903  0.3228 -1.6582
  142OSM    C8S15473   2.479   0.819   2.642  0.5108 -0.4857 -0.5507
  142OSM    H8S15474   2.384   0.762   2.629  0.6757 -0.6521 -1.0699
  142OSM    H8T15475   2.439   0.917   2.675 -2.6587 -1.4727 -1.1303
  142OSM    C9S15476   2.579   0.773   2.743 -0.3895  0.3207 -0.1209
  142OSM    H9S15477   2.668   0.839   2.753 -1.3073  1.6763 -0.5979
  142OSM    H9T15478   2.614   0.671   2.715 -1.2937  0.0734 -0.3886
  142OSM   C10S15479   2.517   0.758   2.884  0.2114  0.1075  1.2944
  142OSM   H10S15480   2.421   0.704   2.882  0.3537 -0.1242 -0.3227
  142OSM   H10T15481   2.501   0.861   2.923  1.0652  0.4399  0.8006
  142OSM   C11S15482   2.617   0.690   2.977 -0.3186 -0.7014 -0.2880
  142OSM   H11S15483   2.718   0.732   2.955 -0.6967  0.5747  0.3036
  142OSM   H11T15484   2.635   0.583   2.954  2.0657 -0.4401  0.1144
  142OSM   C12S15485   2.588   0.702   3.129  0.2013 -0.6178 -0.0793
  142OSM   H12S15486   2.496   0.645   3.151 -0.2273 -0.7414 -2.0223
  142OSM   H12T15487   2.567   0.811   3.136  2.4210 -0.1638  0.3547
  142OSM   C13S15488   2.694   0.653   3.226  0.0556  0.1888  0.1284
  142OSM   H13S15489   2.785   0.715   3.209 -1.4469  2.2477 -0.9444
  142OSM   H13T15490   2.706   0.543   3.216 -1.2387  0.0285  0.1857
  142OSM   C14S15491   2.637   0.675   3.373 -0.8282  0.1158 -0.0424
  142OSM   H14S15492   2.545   0.614   3.387 -0.2653 -0.2440  2.7746
  142OSM   H14T15493   2.618   0.783   3.391  0.0966  0.3447 -0.3883
  142OSM   C15S15494   2.738   0.608   3.469 -0.2979 -0.7647  0.0440
  142OSM   H15S15495   2.835   0.656   3.443 -0.8673 -0.6523 -2.0963
  142OSM   H15T15496   2.735   0.497   3.465 -2.2736 -0.7258 -0.5497
  142OSM   C16S15497   2.700   0.641   3.612 -0.1314 -0.2081 -0.7586
  142OSM   H16S15498   2.784   0.609   3.676 -0.2023 -1.7497 -1.3913
  142OSM   H16T15499   2.616   0.574   3.641  2.2649 -2.2177  2.0845
  142OSM   C17S15500   2.676   0.794   3.634 -0.3252 -0.3614  0.1824
  142OSM   H17S15501   2.589   0.823   3.571 -0.2213  1.5943  0.8773
  142OSM   H17T15502   2.760   0.860   3.605 -0.8799  1.9098  3.2378
  142OSM   C18S15503   2.650   0.825   3.784 -1.1892 -0.2143  0.1168
  142OSM   H18S15504   2.657   0.935   3.799  2.6853 -0.2177 -0.7053
  142OSM   H18T15505   2.739   0.787   3.838  0.2818  2.1075 -0.5298
  142OSM   H18U15506   2.562   0.773   3.828 -0.7944 -0.4338  0.6691
  142OSM    C1F15507   2.866   1.158   2.208 -0.2573 -0.4323 -0.5430
  142OSM     OF15508   2.817   1.257   2.152  0.0555  0.2450 -0.1623
  142OSM    C2F15509   2.984   1.168   2.302  0.4804 -0.5404 -0.1159
  142OSM    H2F15510   3.075   1.187   2.241 -0.3370 -0.4276 -1.3363
  142OSM    H2G15511   2.997   1.071   2.356  1.7717  0.6016  1.7812
  142OSM    C3F15512   2.969   1.277   2.403  0.4080 -0.6960 -0.2177
  142OSM    H3F15513   2.871   1.276   2.456 -0.0653 -0.1153 -1.0438
  142OSM    H3G15514   2.986   1.373   2.349  2.1932 -0.8456  0.0262
  142OSM    C4F15515   3.090   1.269   2.500 -0.2962  0.1279 -0.3052
  142OSM    H4F15516   3.186   1.288   2.446  0.1142 -0.3585  0.2446
  142OSM    H4G15517   3.098   1.161   2.524  0.9697  0.4778  0.9856
  142OSM    C5F15518   3.056   1.348   2.633 -0.3120  0.0090 -0.2449
  142OSM    H5F15519   2.983   1.298   2.700 -1.3921  0.7035 -0.8889
  142OSM    H5G15520   3.002   1.438   2.596 -1.2525 -0.7062 -0.6508
  142OSM    C6F15521   3.182   1.384   2.712  0.1575 -0.0184  0.3295
  142OSM    H6F15522   3.188   1.490   2.744 -2.4687 -0.1249  1.3975
  142OSM    H6G15523   3.277   1.370   2.656 -0.8885 -2.2199 -1.0460
  142OSM    C7F15524   3.175   1.294   2.844 -0.1043 -0.1213 -0.2186
  142OSM    H7F15525   3.177   1.191   2.803 -0.1986  0.3985 -1.5845
  142OSM    H7G15526   3.078   1.300   2.897 -0.0400 -1.5164  0.0911
  142OSM    C8F15527   3.293   1.298   2.943  0.5441  0.3267 -0.3622
  142OSM    H8F15528   3.389   1.317   2.890  1.0724 -0.6257  0.2487
  142OSM    H8G15529   3.298   1.202   2.999 -0.1747  0.9045  0.7366
  142OSM    C9F15530   3.283   1.420   3.032 -0.3034  0.1405  0.1370
  142OSM    H9F15531   3.252   1.510   2.977  1.5723 -0.4160 -1.9953
  142OSM   C10F15532   3.287   1.420   3.167  0.1385  0.0453 -0.5364
  142OSM   H10F15533   3.262   1.513   3.219  0.6023 -1.2540  2.1899
  142OSM   C11F15534   3.309   1.312   3.266 -0.8936  0.3368 -0.7178
  142OSM   H11F15535   3.382   1.245   3.215 -0.8827  0.0375 -0.3149
  142OSM   H11G15536   3.215   1.254   3.274  0.2347 -1.4023  1.0032
  142OSM   C12F15537   3.338   1.349   3.411 -0.1846  0.1831  0.4320
  142OSM   H12F15538   3.275   1.435   3.442  2.5993  2.1335  1.1539
  142OSM   H12G15539   3.441   1.392   3.419  0.3533 -1.1319  0.8970
  142OSM   C13F15540   3.334   1.232   3.511  0.6933  0.2850 -0.6239
  142OSM   H13F15541   3.384   1.140   3.474  0.8079 -0.7932  2.0004
  142OSM   H13G15542   3.230   1.199   3.533  0.7871  1.2815  1.6398
  142OSM   C14F15543   3.407   1.256   3.639  0.9742 -0.5441  0.8176
  142OSM   H14F15544   3.513   1.268   3.610  0.4656 -0.1151 -0.9498
  142OSM   H14G15545   3.388   1.172   3.709 -1.2641 -1.3850 -0.6881
  142OSM   C15F15546   3.374   1.384   3.718 -0.2353 -0.2027  0.5095
  142OSM   H15F15547   3.382   1.476   3.657 -2.3239 -0.9992 -1.1020
  142OSM   H15G15548   3.446   1.402   3.800 -1.4897  0.2266  1.5618
  142OSM   C16F15549   3.232   1.381   3.770  0.6734  0.4479 -0.4148
  142OSM   H16F15550   3.235   1.278   3.814  0.6605  0.7631  0.3387
  142OSM   H16G15551   3.163   1.376   3.682  0.6935  0.0085 -0.4114
  142OSM   C17F15552   3.192   1.487   3.869  0.2841  0.5107 -0.8506
  142OSM   H17F15553   3.203   1.588   3.824  0.3524  0.7127 -0.3855
  142OSM   H17G15554   3.264   1.481   3.953 -0.7585 -2.4895 -0.0094
  142OSM   C18F15555   3.053   1.467   3.928  0.0968 -0.6221  0.3110
  142OSM   H18F15556   3.055   1.395   4.013  1.8319 -0.2684  0.5898
  142OSM   H18G15557   2.980   1.437   3.850 -1.0018  1.6404  0.3869
  142OSM   H18H15558   3.011   1.565   3.958 -1.6453 -1.1221 -0.3544
  143OSM      N15559   0.906   4.472   1.708  0.0827  0.3762 -0.7858
  143OSM    C1515560   0.851   4.519   1.840 -0.5133 -0.5048 -0.2153
  143OSM   H15A15561   0.872   4.622   1.863  1.4598 -1.0769  0.7818
  143OSM   H15B15562   0.896   4.460   1.918 -1.2697 -0.9481 -0.0951
  143OSM   H15C15563   0.743   4.509   1.847 -0.9953  2.1600 -2.2557
  143OSM    C1415564   0.891   4.321   1.699 -0.4872 -0.5063  0.7096
  143OSM   H14A15565   0.952   4.272   1.774  0.2873 -4.0639 -1.9854
  143OSM   H14B15566   0.933   4.280   1.609  0.3768  2.7366 -0.5113
  143OSM   H14C15567   0.789   4.286   1.699 -0.7671  0.2317 -0.8873
  143OSM    C1315568   0.828   4.540   1.600 -0.1843  0.4617 -0.2661
  143OSM   H13A15569   0.805   4.642   1.624  0.8786  0.5351  0.4862
  143OSM   H13B15570   0.736   4.483   1.595  0.7066 -1.3739  2.2041
  143OSM   H13C15571   0.875   4.532   1.503 -0.3773 -0.4375 -0.2989
  143OSM    C1215572   1.055   4.520   1.705  0.5037 -0.5161  0.1393
  143OSM   H12A15573   1.050   4.618   1.749 -0.9140 -0.3667 -0.3242
  143OSM   H12B15574   1.078   4.522   1.600 -0.9113  3.3134 -0.2338
  143OSM    C1115575   1.158   4.443   1.785  0.8664  0.6633 -0.0303
  143OSM   H11A15576   1.250   4.506   1.788  0.2126  1.6453  2.7300
  143OSM   H11B15577   1.180   4.350   1.729 -2.2137 -0.2570  0.1149
  143OSM      P15578   1.120   4.282   1.989  0.0762  0.1122  0.4138
  143OSM    O1315579   0.980   4.231   1.966 -0.2564 -0.0259  0.6479
  143OSM    O1415580   1.237   4.208   1.942 -0.1754  0.4468 -0.3578
  143OSM    O1115581   1.131   4.310   2.143  0.3156  0.6247 -0.1058
  143OSM    O1215582   1.121   4.421   1.923  0.1018 -0.6866 -0.4305
  143OSM    C1S15583   1.262   4.345   2.203 -0.5026 -0.5047 -0.3368
  143OSM    H1S15584   1.271   4.454   2.181  0.5717 -0.5630 -0.2448
  143OSM    H1T15585   1.348   4.296   2.153 -0.5345  0.5974 -1.5230
  143OSM     NF15586   1.369   4.399   2.405 -0.2530  0.0353  0.0397
  143OSM    HNF15587   1.453   4.357   2.439 -0.1026  1.0197  0.9327
  143OSM    C2S15588   1.267   4.318   2.351 -0.2976  0.2426  0.3883
  143OSM    H2S15589   1.177   4.356   2.404 -0.3277  0.4686  0.1779
  143OSM    C3S15590   1.278   4.165   2.384 -0.1793 -0.6921  0.7299
  143OSM    H3S15591   1.375   4.135   2.338 -0.7671 -0.9627 -0.3737
  143OSM     O315592   1.184   4.083   2.311 -0.0320 -0.3684  0.2147
  143OSM    HO315593   1.142   4.144   2.250 -0.5383  0.7635  1.6581
  143OSM    C4S15594   1.284   4.140   2.530  0.2395  0.1581  0.1369
  143OSM    H4S15595   1.375   4.167   2.585 -0.2483 -1.6281  1.9472
  143OSM    C5S15596   1.181   4.094   2.608 -0.5768  0.0294 -0.3871
  143OSM    H5S15597   1.084   4.064   2.566 -0.0358 -0.3002 -1.4436
  143OSM    C6S15598   1.171   4.097   2.757  0.6401 -0.0058  0.2744
  143OSM    H6S15599   1.115   4.005   2.780 -1.4064  0.5762 -1.9967
  143OSM    H6T15600   1.115   4.184   2.798  0.4039 -0.3743  0.7463
  143OSM    C7S15601   1.314   4.086   2.826 -0.0144  0.3119 -1.1746
  143OSM    H7S15602   1.376   4.169   2.785 -0.1946  1.6258  1.0324
  143OSM    H7T15603   1.368   3.993   2.799 -0.7117  0.0918 -1.8508
  143OSM    C8S15604   1.317   4.122   2.977  0.1424 -0.0044  0.0617
  143OSM    H8S15605   1.266   4.220   2.991  0.2593  0.1831 -0.7573
  143OSM    H8T15606   1.419   4.157   3.007 -0.3330  1.5408 -0.0184
  143OSM    C9S15607   1.258   4.023   3.080 -0.5115 -0.3216  0.5428
  143OSM    H9S15608   1.311   3.926   3.091 -1.6596 -0.8432  1.8943
  143OSM    H9T15609   1.151   4.005   3.055 -0.0510 -0.3212 -1.5912
  143OSM   C10S15610   1.272   4.092   3.219 -0.0046  0.7112  0.0131
  143OSM   H10S15611   1.209   4.183   3.208 -1.6808 -0.3803  0.1800
  143OSM   H10T15612   1.375   4.125   3.246 -1.2027  2.0814  3.3875
  143OSM   C11S15613   1.217   4.004   3.331  0.5570 -0.3336  0.4864
  143OSM   H11S15614   1.249   3.898   3.321  1.3268 -0.1565  0.9730
  143OSM   H11T15615   1.111   3.998   3.300  0.5279 -0.1763  0.5511
  143OSM   C12S15616   1.222   4.071   3.475  0.4653  0.1723  0.0419
  143OSM   H12S15617   1.164   4.165   3.458  0.4432 -0.0331 -1.0639
  143OSM   H12T15618   1.325   4.101   3.504  0.1071  0.4717  1.0842
  143OSM   C13S15619   1.145   3.981   3.580  0.0887  0.1693 -0.0586
  143OSM   H13S15620   1.197   3.884   3.598  0.3378  0.4266  0.6413
  143OSM   H13T15621   1.052   3.948   3.530 -0.3195 -0.7970  1.2629
  143OSM   C14S15622   1.129   4.049   3.714 -0.2072 -0.3380  0.4360
  143OSM   H14S15623   1.072   4.142   3.696  1.8154  0.4909 -2.1486
  143OSM   H14T15624   1.230   4.070   3.753  0.3447 -0.0988 -1.0887
  143OSM   C15S15625   1.058   3.971   3.822  0.4152  0.5120  0.4601
  143OSM   H15S15626   1.108   3.872   3.819 -0.2758  0.1765 -0.8200
  143OSM   H15T15627   0.950   3.954   3.800  0.7560 -1.1368 -0.0968
  143OSM   C16S15628   1.079   4.037   3.959 -0.1138  0.5867  0.5183
  143OSM   H16S15629   1.185   4.039   3.991  0.6639 -0.9525 -1.7047
  143OSM   H16T15630   1.024   3.975   4.033 -1.0114 -0.7136 -1.1631
  143OSM   C17S15631   1.017   4.181   3.977  0.1336  0.2164 -0.3561
  143OSM   H17S15632   0.907   4.167   3.969  0.1418 -0.3325  0.3683
  143OSM   H17T15633   1.060   4.248   3.899  2.6141  1.5401  1.9817
  143OSM   C18S15634   1.041   4.229   4.120  0.3857 -0.5216  0.4181
  143OSM   H18S15635   0.986   4.166   4.193 -0.5699 -1.5300 -1.0980
  143OSM   H18T15636   1.018   4.337   4.124  0.3259 -0.4727 -0.7746
  143OSM   H18U15637   1.147   4.217   4.150  0.6909  1.3000  0.1550
  143OSM    C1F15638   1.362   4.532   2.412  1.4453  0.5603  1.2724
  143OSM     OF15639   1.255   4.588   2.380  0.0142 -0.2608 -0.0042
  143OSM    C2F15640   1.485   4.603   2.447  0.4350  0.3706  0.0926
  143OSM    H2F15641   1.550   4.620   2.359  0.1408 -0.0238 -0.2010
  143OSM    H2G15642   1.554   4.545   2.513  0.4046  1.0415  0.7277
  143OSM    C3F15643   1.452   4.740   2.510  0.2568  0.7434  0.4881
  143OSM    H3F15644   1.352   4.747   2.557 -0.0155  0.1369  0.0108
  143OSM    H3G15645   1.437   4.814   2.428  1.3103  0.1503 -0.2588
  143OSM    C4F15646   1.562   4.789   2.604  0.0770  0.1839 -0.9712
  143OSM    H4F15647   1.556   4.899   2.593  1.0285  0.3199 -0.2252
  143OSM    H4G15648   1.665   4.766   2.570  0.2545 -1.1820  0.3902
  143OSM    C5F15649   1.542   4.743   2.748  0.1959 -0.1314 -0.0533
  143OSM    H5F15650   1.524   4.634   2.760 -0.5493 -0.0128 -0.0151
  143OSM    H5G15651   1.452   4.794   2.788 -2.8113 -2.1108 -3.6704
  143OSM    C6F15652   1.649   4.790   2.849  0.4396 -0.5311 -0.0756
  143OSM    H6F15653   1.652   4.900   2.841  0.7439 -0.4668  0.8043
  143OSM    H6G15654   1.753   4.758   2.824  0.3581  0.6464 -2.1471
  143OSM    C7F15655   1.620   4.743   2.992  0.0513 -1.2027  0.1852
  143OSM    H7F15656   1.598   4.634   2.983 -1.5040 -0.7305 -3.6696
  143OSM    H7G15657   1.530   4.795   3.031  0.0365 -2.1848  1.5770
  143OSM    C8F15658   1.744   4.760   3.085  0.1788  0.3770  0.1167
  143OSM    H8F15659   1.839   4.755   3.028  1.2402  0.2841  1.8354
  143OSM    H8G15660   1.737   4.673   3.154  1.5105  0.2237  0.0840
  143OSM    C9F15661   1.742   4.885   3.160  0.6823  0.2690 -0.1824
  143OSM    H9F15662   1.793   4.964   3.103 -1.7384  0.3662 -2.4069
  143OSM   C10F15663   1.668   4.913   3.275 -0.0832 -0.2436  0.3449
  143OSM   H10F15664   1.670   5.017   3.312 -3.8642  0.1055 -0.0205
  143OSM   C11F15665   1.603   4.811   3.368 -0.6127 -0.2318 -1.0052
  143OSM   H11F15666   1.574   4.711   3.329 -1.9597 -0.2151 -0.1122
  143OSM   H11G15667   1.507   4.850   3.406  0.2559 -0.7659  1.9954
  143OSM   C12F15668   1.685   4.802   3.496  0.2405 -0.0771 -0.3776
  143OSM   H12F15669   1.716   4.900   3.538 -1.2407  0.1757  0.1711
  143OSM   H12G15670   1.778   4.741   3.487  0.5360 -0.3468  2.9563
  143OSM   C13F15671   1.622   4.721   3.611  0.6855  0.1009 -0.1649
  143OSM   H13F15672   1.584   4.624   3.573  0.8231 -1.1135  2.5047
  143OSM   H13G15673   1.532   4.779   3.641  1.2625  1.5782 -1.2152
  143OSM   C14F15674   1.728   4.704   3.715 -0.6232 -0.2805  0.2639
  143OSM   H14F15675   1.794   4.793   3.711 -0.2310 -0.4844  1.8253
  143OSM   H14G15676   1.780   4.608   3.691 -0.7350 -0.3100  0.1384
  143OSM   C15F15677   1.664   4.697   3.853 -0.1513 -0.4482 -0.1904
  143OSM   H15F15678   1.630   4.598   3.889 -0.0576 -0.6153 -0.5568
  143OSM   H15G15679   1.568   4.753   3.854  1.0635  1.7498 -0.5378
  143OSM   C16F15680   1.756   4.755   3.954  0.6788 -1.1096 -0.1054
  143OSM   H16F15681   1.780   4.858   3.919 -0.5599 -0.0463  1.9852
  143OSM   H16G15682   1.859   4.713   3.950  1.6111  1.0974 -2.4329
  143OSM   C17F15683   1.706   4.766   4.104  0.7623 -0.1885 -0.1377
  143OSM   H17F15684   1.630   4.847   4.111 -1.7946 -2.4571  0.2180
  143OSM   H17G15685   1.783   4.788   4.180 -1.0901 -0.9752  2.0844
  143OSM   C18F15686   1.650   4.636   4.156 -0.1923  0.1369 -0.0031
  143OSM   H18F15687   1.572   4.604   4.084 -1.3376  0.8639  0.8635
  143OSM   H18G15688   1.583   4.657   4.242 -2.1794 -3.4911 -0.4623
  143OSM   H18H15689   1.725   4.555   4.166 -0.0891  0.2869  0.4802
  144OSM      N15690   1.491   5.812   1.938  0.5428  0.0114 -0.2740
  144OSM    C1515691   1.610   5.722   1.931  0.1073  0.0983 -0.0437
  144OSM   H15A15692   1.580   5.619   1.920  1.2847 -0.0600 -2.5975
  144OSM   H15B15693   1.675   5.726   2.018 -0.4319 -0.2023  0.3801
  144OSM   H15C15694   1.676   5.742   1.848 -0.6421 -0.2520 -0.7316
  144OSM    C1415695   1.552   5.951   1.950 -0.0737 -0.4379 -0.0858
  144OSM   H14A15696   1.625   5.969   1.872  0.8860  1.0283  1.0903
  144OSM   H14B15697   1.609   5.961   2.042 -0.5619 -1.1834  0.3050
  144OSM   H14C15698   1.476   6.026   1.938  0.2109 -0.2505 -0.8035
  144OSM    C1315699   1.399   5.808   1.815 -0.6278 -0.0725  0.2855
  144OSM   H13A15700   1.304   5.839   1.857 -0.1218 -1.1543  2.3659
  144OSM   H13B15701   1.387   5.706   1.780 -1.0577 -0.9784  2.8467
  144OSM   H13C15702   1.435   5.866   1.732  0.7905  0.9366  1.5440
  144OSM    C1215703   1.415   5.791   2.060  0.4701 -0.1876 -0.4180
  144OSM   H12A15704   1.335   5.863   2.072  0.5933 -0.1719  0.4044
  144OSM   H12B15705   1.474   5.825   2.144 -0.2921  0.9431 -0.3178
  144OSM    C1115706   1.355   5.652   2.082  0.1466  0.1651 -0.2039
  144OSM   H11A15707   1.331   5.638   2.189  0.3860  0.5515 -0.0953
  144OSM   H11B15708   1.437   5.578   2.068  1.5812  1.6868 -0.1739
  144OSM      P15709   1.115   5.689   2.011  0.1354  0.2971 -0.0779
  144OSM    O1315710   1.130   5.838   2.008 -0.2388  0.3314 -0.0586
  144OSM    O1415711   1.011   5.636   1.918  0.4343 -0.2093  0.2232
  144OSM    O1115712   1.061   5.647   2.151 -0.4195  0.4897 -0.2506
  144OSM    O1215713   1.252   5.613   1.992 -0.1993  0.3382 -0.2635
  144OSM    C1S15714   1.058   5.511   2.203 -0.4903  0.5734 -0.2583
  144OSM    H1S15715   1.139   5.450   2.159 -0.9270 -0.2921  0.1168
  144OSM    H1T15716   0.963   5.472   2.160 -1.1513  1.8134  0.0320
  144OSM     NF15717   1.033   5.346   2.393 -0.0047  0.8425 -0.1873
  144OSM    HNF15718   0.952   5.304   2.434 -0.7731  0.9116 -1.5558
  144OSM    C2S15719   1.034   5.487   2.355 -0.3659  0.8703  0.8905
  144OSM    H2S15720   1.121   5.531   2.408  2.0226 -1.1380 -1.1042
  144OSM    C3S15721   0.899   5.560   2.388  0.4693  0.8784  0.5086
  144OSM    H3S15722   0.820   5.515   2.324  2.1708 -1.0294 -0.3707
  144OSM     O315723   0.895   5.694   2.357  0.3392 -0.5145  0.5194
  144OSM    HO315724   0.963   5.707   2.290 -1.2451 -1.5547 -1.4336
  144OSM    C4S15725   0.865   5.531   2.534 -0.0129  0.1026  0.1563
  144OSM    H4S15726   0.820   5.431   2.535  0.4748 -0.1418  2.2448
  144OSM    C5S15727   0.889   5.608   2.641  0.1458  0.1185  0.2272
  144OSM    H5S15728   0.931   5.709   2.634 -1.4255  1.0551  2.7111
  144OSM    C6S15729   0.866   5.568   2.787  0.1916 -0.2529  0.8078
  144OSM    H6S15730   0.805   5.475   2.787  1.5401 -1.1643  0.6142
  144OSM    H6T15731   0.815   5.648   2.845  1.3710 -0.1622  1.7353
  144OSM    C7S15732   0.989   5.532   2.864  0.0879  0.2761  0.6101
  144OSM    H7S15733   1.055   5.622   2.862  0.2089  0.2898 -3.3861
  144OSM    H7T15734   1.036   5.444   2.815  1.1111 -0.7665  3.3018
  144OSM    C8S15735   0.966   5.485   3.007  0.0067 -0.2183 -0.1221
  144OSM    H8S15736   1.067   5.467   3.050 -0.8928 -0.4764  2.0003
  144OSM    H8T15737   0.914   5.388   3.020 -0.2733  0.1133  1.4885
  144OSM    C9S15738   0.885   5.588   3.094 -0.2497  0.1812 -0.2823
  144OSM    H9S15739   0.778   5.585   3.063  0.1947  1.3632 -2.1026
  144OSM    H9T15740   0.931   5.689   3.099 -3.8003  2.0023 -1.1811
  144OSM   C10S15741   0.877   5.534   3.240  0.0844  0.4997  1.2152
  144OSM   H10S15742   0.977   5.544   3.289 -0.9628  2.0832  3.2097
  144OSM   H10T15743   0.854   5.426   3.240  1.5041  0.1765  1.0298
  144OSM   C11S15744   0.786   5.622   3.325  0.7869  0.4787  0.4223
  144OSM   H11S15745   0.689   5.615   3.271  2.1462  0.9629 -2.2474
  144OSM   H11T15746   0.813   5.728   3.308  1.1786  0.4381  0.7868
  144OSM   C12S15747   0.762   5.596   3.475  0.0131  0.4617  0.0348
  144OSM   H12S15748   0.850   5.571   3.539 -0.2469  0.9227  0.5783
  144OSM   H12T15749   0.691   5.513   3.493 -1.4394  2.0667  2.1975
  144OSM   C13S15750   0.694   5.724   3.534 -0.3411 -0.0337 -0.6101
  144OSM   H13S15751   0.621   5.759   3.459 -0.2192 -1.0940 -1.2380
  144OSM   H13T15752   0.762   5.811   3.539 -2.0232  1.2830  0.3839
  144OSM   C14S15753   0.607   5.701   3.660  0.2883  0.3188 -0.2136
  144OSM   H14S15754   0.534   5.618   3.648 -2.2636  2.2759  0.8885
  144OSM   H14T15755   0.543   5.792   3.667  0.1064  0.5498 -3.4430
  144OSM   C15S15756   0.693   5.664   3.785 -0.7579  0.6435  0.5138
  144OSM   H15S15757   0.772   5.740   3.804  1.1838 -1.1427 -0.0933
  144OSM   H15T15758   0.745   5.566   3.778 -0.0231  1.0825 -0.5449
  144OSM   C16S15759   0.597   5.654   3.903  0.5059  0.0748  0.2938
  144OSM   H16S15760   0.505   5.593   3.886  0.2117  1.4136 -4.4217
  144OSM   H16T15761   0.554   5.755   3.920 -0.6510 -0.0521 -1.5495
  144OSM   C17S15762   0.670   5.585   4.019 -0.0619 -0.5361  0.9470
  144OSM   H17S15763   0.603   5.586   4.109 -1.3767 -1.7718  0.0423
  144OSM   H17T15764   0.760   5.647   4.034  0.4643 -0.4691 -1.9310
  144OSM   C18S15765   0.707   5.443   4.001 -0.2665  0.0330 -0.1051
  144OSM   H18S15766   0.623   5.371   4.009 -0.7432  0.1944 -2.7374
  144OSM   H18T15767   0.773   5.400   4.080 -0.5716 -2.7298 -1.2433
  144OSM   H18U15768   0.761   5.415   3.909  1.1396 -0.5839  0.8738
  144OSM    C1F15769   1.143   5.275   2.385 -0.2309  0.0740 -0.0923
  144OSM     OF15770   1.237   5.331   2.334 -0.3182 -0.6217  0.2822
  144OSM    C2F15771   1.146   5.135   2.422  0.4984 -0.3954  0.1404
  144OSM    H2F15772   1.130   5.088   2.322  1.2552 -0.2386 -0.0566
  144OSM    H2G15773   1.059   5.105   2.484 -0.4412 -0.3269 -1.1053
  144OSM    C3F15774   1.288   5.075   2.476 -0.0182  0.2349  0.1356
  144OSM    H3F15775   1.370   5.079   2.401 -0.3684 -0.1454 -0.2676
  144OSM    H3G15776   1.267   4.968   2.499 -0.3671  0.6843  2.1219
  144OSM    C4F15777   1.334   5.148   2.607 -0.4357 -0.0271 -0.2548
  144OSM    H4F15778   1.349   5.257   2.591  1.0008 -0.2577 -0.5818
  144OSM    H4G15779   1.432   5.109   2.642 -0.8167 -1.0460 -0.2747
  144OSM    C5F15780   1.221   5.134   2.717 -0.2849 -0.4934  0.6900
  144OSM    H5F15781   1.194   5.029   2.689  1.0003 -0.1581 -2.1686
  144OSM    H5G15782   1.138   5.206   2.704  0.1979 -0.2881 -1.6919
  144OSM    C6F15783   1.283   5.140   2.858 -0.2052 -0.1512 -0.1159
  144OSM    H6F15784   1.355   5.224   2.853  0.8047 -1.0639 -2.5615
  144OSM    H6G15785   1.331   5.042   2.882 -2.9893 -1.6461 -0.1767
  144OSM    C7F15786   1.175   5.179   2.964 -0.1055  0.6308  0.1604
  144OSM    H7F15787   1.090   5.109   2.942  0.7009 -0.2634 -0.1965
  144OSM    H7G15788   1.150   5.283   2.934  1.8989  1.0417 -0.2260
  144OSM    C8F15789   1.234   5.161   3.103 -0.0646  0.2211  0.7203
  144OSM    H8F15790   1.166   5.225   3.163  0.5843  0.3752  1.2973
  144OSM    H8G15791   1.330   5.216   3.112 -0.4216  0.6519  2.2208
  144OSM    C9F15792   1.256   5.026   3.151 -0.2391 -0.0546  0.3900
  144OSM    H9F15793   1.335   4.974   3.096  0.5148  0.3809  1.0368
  144OSM   C10F15794   1.202   4.955   3.254 -0.3569 -0.1113 -0.1249
  144OSM   H10F15795   1.243   4.855   3.274 -0.8627 -0.2319  0.3322
  144OSM   C11F15796   1.095   5.006   3.342  1.2147 -0.1789  0.4084
  144OSM   H11F15797   1.004   4.947   3.320  0.3855  0.9696  0.6299
  144OSM   H11G15798   1.068   5.112   3.322 -3.4975 -1.4200 -1.2110
  144OSM   C12F15799   1.112   4.991   3.491  0.1554  0.3213 -0.1647
  144OSM   H12F15800   1.189   5.065   3.521  0.1904 -0.0110  0.5920
  144OSM   H12G15801   1.139   4.890   3.530 -0.4295  0.0180 -0.5222
  144OSM   C13F15802   0.987   5.029   3.574  0.2304 -0.5730  0.1055
  144OSM   H13F15803   0.933   4.936   3.602  1.9210 -0.9471  2.4431
  144OSM   H13G15804   0.930   5.084   3.496  1.2440 -0.5709 -0.6559
  144OSM   C14F15805   1.022   5.119   3.684  0.5641  0.1156 -0.1985
  144OSM   H14F15806   1.070   5.209   3.641 -1.1472  0.2206 -2.0545
  144OSM   H14G15807   1.090   5.060   3.749  1.4322  0.0689 -1.1391
  144OSM   C15F15808   0.905   5.170   3.774  0.4188 -0.5732 -0.4702
  144OSM   H15F15809   0.847   5.246   3.717  1.5279  1.3687  0.8636
  144OSM   H15G15810   0.938   5.232   3.860 -1.0845  0.0032 -0.2882
  144OSM   C16F15811   0.813   5.062   3.833  0.0509  0.0964  0.1113
  144OSM   H16F15812   0.881   4.985   3.875  1.8847  1.2810 -0.5444
  144OSM   H16G15813   0.755   5.009   3.754  0.4112  1.3019 -1.0066
  144OSM   C17F15814   0.712   5.098   3.929 -0.2835 -0.2946 -0.5954
  144OSM   H17F15815   0.623   5.146   3.884 -1.0548 -0.3012  0.8678
  144OSM   H17G15816   0.752   5.175   3.999  0.2370 -0.4518 -0.7101
  144OSM   C18F15817   0.655   4.988   4.004 -0.1108 -0.0188  0.4190
  144OSM   H18F15818   0.744   4.927   4.033  0.5367 -0.9472 -3.0575
  144OSM   H18G15819   0.592   4.917   3.946  0.2615 -0.7821  0.9322
  144OSM   H18H15820   0.596   5.024   4.091 -0.3048  1.2350 -0.2169
  145SAPE     N15821   3.104   0.685   6.498 -0.3115 -0.2459 -0.1094
  145SAPE   HN115822   3.057   0.764   6.548 -1.8719 -1.4024  0.3431
  145SAPE   HN215823   3.028   0.645   6.441 -1.5028  0.6356  0.7921
  145SAPE   HN315824   3.122   0.616   6.573 -0.5513  0.3199  0.4903
  145SAPE   C1215825   3.232   0.725   6.425  0.4055  0.2112 -0.4189
  145SAPE  H12A15826   3.309   0.756   6.499  1.7878 -1.9505 -0.8716
  145SAPE  H12B15827   3.207   0.812   6.361 -0.1456  1.1520  1.0131
  145SAPE   C1115828   3.284   0.602   6.344  0.2150  0.6218 -0.2849
  145SAPE  H11A15829   3.389   0.622   6.313  0.2080  0.0583 -0.6917
  145SAPE  H11B15830   3.236   0.593   6.244 -0.2045 -0.7507  0.0141
  145SAPE     P15831   3.222   0.346   6.366 -0.2246 -0.1934  0.6480
  145SAPE   O1315832   3.263   0.234   6.446 -0.1871  0.3625  0.6022
  145SAPE   O1415833   3.075   0.361   6.341  0.1139 -0.1161 -0.4905
  145SAPE   O1215834   3.274   0.479   6.420 -0.8007  0.1203  0.1002
  145SAPE   O1115835   3.282   0.339   6.216  0.0161  0.3163  0.7792
  145SAPE    C115836   3.415   0.311   6.179 -0.7650  0.1506  0.3207
  145SAPE    HA15837   3.445   0.391   6.108  1.1672  0.7157  1.6719
  145SAPE    HB15838   3.471   0.322   6.274 -1.9330 -0.3641  1.0960
  145SAPE    C215839   3.436   0.168   6.120 -0.3815 -0.1760  1.2931
  145SAPE    HS15840   3.533   0.161   6.067 -1.2423  0.0818 -0.3994
  145SAPE   O2115841   3.322   0.124   6.036 -0.3773 -0.2490  0.7261
  145SAPE   C2115842   3.308   0.194   5.924 -0.8097 -0.0574  0.2506
  145SAPE   O2215843   3.396   0.272   5.879  0.2217  1.5459 -0.4961
  145SAPE   C2215844   3.182   0.149   5.849 -0.4437 -0.8730 -0.2259
  145SAPE   H2R15845   3.200   0.045   5.813 -0.1374 -0.2334 -2.0583
  145SAPE   H2S15846   3.096   0.157   5.919 -0.5568  1.2252 -0.5421
  145SAPE    C315847   3.449   0.075   6.240 -0.1475  0.3908  0.7584
  145SAPE    HX15848   3.349   0.071   6.288 -0.9413 -1.1808 -0.8926
  145SAPE    HY15849   3.522   0.108   6.316  2.9502 -1.6859 -1.0590
  145SAPE   O3115850   3.487  -0.059   6.206 -0.3035  0.3311 -0.1351
  145SAPE   C3115851   3.624  -0.078   6.202  0.8534  0.2500  0.1888
  145SAPE   O3215852   3.705   0.013   6.213  0.9532  0.7529 -0.0499
  145SAPE   C3215853   3.660  -0.220   6.179 -0.2938  0.3866 -0.0490
  145SAPE   H2X15854   3.693  -0.264   6.276 -0.5882  0.6592  0.1771
  145SAPE   H2Y15855   3.745  -0.216   6.108 -0.9982  2.3800 -0.8633
  145SAPE   C2315856   3.155   0.250   5.733 -0.2264  0.2323 -0.5965
  145SAPE   H3R15857   3.164   0.352   5.776  0.1875 -0.0312 -0.0384
  145SAPE   H3S15858   3.046   0.253   5.710 -0.1632  1.3252 -0.8308
  145SAPE   C2415859   3.232   0.228   5.598 -0.5164 -0.2510 -0.5156
  145SAPE   H4R15860   3.338   0.224   5.633 -0.4181  1.3300 -0.5650
  145SAPE   H4S15861   3.226   0.322   5.539 -1.4611  1.3498  1.9952
  145SAPE   C2515862   3.198   0.106   5.510  0.1289 -0.6475 -0.0758
  145SAPE   H5R15863   3.211   0.012   5.563  1.6128 -0.5673 -0.2649
  145SAPE   C2615864   3.161   0.103   5.379  0.5870 -0.0442  0.0090
  145SAPE   H6R15865   3.165   0.003   5.333  0.9447 -0.9933  2.0321
  145SAPE   C2715866   3.151   0.236   5.296 -0.0724 -0.2119  0.3466
  145SAPE   H7R15867   3.250   0.287   5.296  0.5822 -1.4280  0.2714
  145SAPE   H7S15868   3.086   0.309   5.347  0.9020 -0.3844  1.9188
  145SAPE   C2815869   3.106   0.197   5.161  0.1311  1.3761 -1.2188
  145SAPE   H8R15870   2.999   0.222   5.148 -0.8845 -2.0787 -0.5408
  145SAPE   C2915871   3.167   0.148   5.054 -0.5056  0.9681  0.0564
  145SAPE   H9R15872   3.104   0.119   4.969 -0.8793  2.3670 -0.1656
  145SAPE  C21015873   3.318   0.107   5.050  0.3498 -0.6218  0.3073
  145SAPE  H10R15874   3.364   0.106   5.152  3.4122 -0.0332 -0.9379
  145SAPE  H10S15875   3.358   0.198   5.001 -1.9560  1.8440  2.6566
  145SAPE  C21115876   3.348  -0.008   4.967 -0.0921  0.3850  0.7019
  145SAPE  H11R15877   3.326  -0.104   5.016 -0.2643 -0.5635 -1.1173
  145SAPE  C21215878   3.397  -0.023   4.836  0.4986 -0.8980 -0.5866
  145SAPE  H12R15879   3.424  -0.123   4.798  0.4875 -0.8920 -0.6098
  145SAPE  C21315880   3.416   0.098   4.740  0.4872 -0.5037 -0.5532
  145SAPE  H13R15881   3.333   0.171   4.751 -0.2620 -1.0802 -2.1055
  145SAPE  H13S15882   3.371   0.064   4.644 -0.2057 -1.0732 -0.0386
  145SAPE  C21415883   3.548   0.171   4.740  0.3033  0.1890  0.0928
  145SAPE  H14R15884   3.604   0.189   4.834  1.8408  2.4051 -1.1494
  145SAPE  C21515885   3.615   0.212   4.631  0.2908 -0.0876  0.4623
  145SAPE  H15R15886   3.715   0.251   4.651  1.0426  0.0257 -2.8878
  145SAPE  C21615887   3.582   0.211   4.490 -0.2972 -0.3376  0.0976
  145SAPE  H16R15888   3.604   0.306   4.438 -0.4159  0.2018  1.0056
  145SAPE  H16S15889   3.474   0.195   4.469 -0.2075 -0.9730  0.0765
  145SAPE  C21715890   3.659   0.098   4.419 -0.1811  0.7620  0.4436
  145SAPE  H17R15891   3.620   0.114   4.316 -1.3429 -0.7261  0.6137
  145SAPE  H17S15892   3.626  -0.004   4.449  1.3524 -0.7038 -2.4099
  145SAPE  C21815893   3.813   0.104   4.416  0.6809  0.4941  0.1446
  145SAPE  H18R15894   3.856   0.061   4.509 -1.9955 -2.3458  0.2127
  145SAPE  H18S15895   3.857   0.204   4.393  0.3256  1.2653  2.5325
  145SAPE  C21915896   3.858  -0.008   4.319 -0.6686 -0.5033 -0.3668
  145SAPE  H19R15897   3.777  -0.030   4.247 -0.4399 -1.1136 -0.4442
  145SAPE  H19S15898   3.884  -0.100   4.375  2.8733 -0.1327 -1.1533
  145SAPE  C22015899   3.983   0.027   4.232 -0.4117  0.2955 -0.1145
  145SAPE  H20R15900   4.068   0.046   4.301 -0.4509  0.5006 -0.1249
  145SAPE  H20S15901   3.966   0.127   4.189  0.6869  0.1375 -0.9570
  145SAPE  H20T15902   3.996  -0.056   4.159 -1.7103 -0.1101  0.0841
  145SAPE   C3315903   3.535  -0.303   6.142  0.3045 -0.0327  0.5313
  145SAPE   H3X15904   3.454  -0.286   6.217  0.3094 -0.4593  0.6349
  145SAPE   H3Y15905   3.562  -0.410   6.134  0.0508  0.0178 -1.5389
  145SAPE   C3415906   3.488  -0.276   5.996 -0.2506 -0.9539 -0.0248
  145SAPE   H4X15907   3.577  -0.285   5.930  0.6044  0.7743  0.8198
  145SAPE   H4Y15908   3.461  -0.168   5.986  1.6224 -0.5450 -1.2396
  145SAPE   C3515909   3.366  -0.356   5.957  0.3295  0.2152 -0.4195
  145SAPE   H5X15910   3.281  -0.331   6.024  0.5199 -1.8618  0.6976
  145SAPE   H5Y15911   3.388  -0.465   5.958 -1.4243 -0.1670 -0.5278
  145SAPE   C3615912   3.313  -0.329   5.815  0.3683  0.2273  0.8909
  145SAPE   H6X15913   3.381  -0.379   5.743 -0.0011  1.6038 -0.4772
  145SAPE   H6Y15914   3.340  -0.222   5.801 -3.8845  1.1789 -1.6540
  145SAPE   C3715915   3.165  -0.348   5.787 -0.2503  0.3745  0.6723
  145SAPE   H7X15916   3.113  -0.315   5.881 -0.6768  0.6172  0.3561
  145SAPE   H7Y15917   3.142  -0.456   5.774 -1.7046  0.6318  0.8631
  145SAPE   C3815918   3.110  -0.282   5.658 -0.3211 -0.3045  0.1357
  145SAPE   H8X15919   3.171  -0.327   5.577  0.7474 -0.3953  0.9637
  145SAPE   H8Y15920   3.129  -0.173   5.649  0.1626 -0.2825  1.2054
  145SAPE   C3915921   2.962  -0.319   5.636  0.2528 -0.0345  0.9553
  145SAPE   H9X15922   2.901  -0.279   5.719  1.3571  1.5914  1.0390
  145SAPE   H9Y15923   2.965  -0.429   5.647 -0.5394 -0.2472 -0.6490
  145SAPE  C31015924   2.898  -0.273   5.512 -0.4467  0.2490 -0.3641
  145SAPE  H10X15925   2.889  -0.162   5.513  1.3159  0.4717  2.6519
  145SAPE  H10Y15926   2.797  -0.315   5.489  0.1792  0.3685 -3.8703
  145SAPE  C31115927   2.976  -0.330   5.383  0.0401 -0.3647  0.2422
  145SAPE  H11X15928   2.980  -0.440   5.398 -0.7470 -0.3861  0.3281
  145SAPE  H11Y15929   3.079  -0.287   5.383 -0.4684  1.2054 -3.3079
  145SAPE  C31215930   2.920  -0.296   5.243 -0.1381  0.8810 -0.8100
  145SAPE  H12X15931   2.904  -0.186   5.232  1.2492  1.1744 -0.0471
  145SAPE  H12Y15932   2.813  -0.325   5.237 -0.1001  0.7282 -0.7236
  145SAPE  C31315933   3.007  -0.330   5.127  0.0954 -0.1473  0.1861
  145SAPE  H13X15934   3.050  -0.432   5.140  0.6498  0.0043 -0.4342
  145SAPE  H13Y15935   3.099  -0.268   5.140  0.4174 -0.5179 -0.2779
  145SAPE  C31415936   2.959  -0.299   4.982  0.7458  0.0783 -0.1518
  145SAPE  H14X15937   2.900  -0.205   4.983  0.3929 -0.0444 -2.6372
  145SAPE  H14Y15938   2.879  -0.374   4.961  1.5763 -1.1446  0.8993
  145SAPE  C31515939   3.078  -0.290   4.883  0.3835  0.0143 -1.2423
  145SAPE  H15X15940   3.158  -0.366   4.893  1.0258  0.6596 -1.4393
  145SAPE  H15Y15941   3.111  -0.184   4.886  1.3832 -0.2551  2.5151
  145SAPE  C31615942   3.018  -0.302   4.745  0.3897 -0.4432  0.2352
  145SAPE  H16X15943   2.956  -0.210   4.737  3.0367  1.3475 -2.0218
  145SAPE  H16Y15944   2.959  -0.396   4.744 -1.2445  0.5514  0.6130
  145SAPE  C31715945   3.127  -0.312   4.641  0.5089 -0.5267  0.5279
  145SAPE  H17X15946   3.213  -0.246   4.668  1.1765 -0.4504 -1.6003
  145SAPE  H17Y15947   3.091  -0.273   4.544 -2.5071  0.5697  1.9718
  145SAPE  C31815948   3.167  -0.453   4.615 -0.0532  0.6947  0.2914
  145SAPE  H18X15949   3.242  -0.465   4.535 -0.1383  0.1133  0.2904
  145SAPE  H18Y15950   3.080  -0.507   4.572 -1.3426  0.3519  3.0854
  145SAPE  H18Z15951   3.195  -0.504   4.710  0.9364  1.2696  0.3235
  146SAPE     N15952   6.085   1.451   6.348 -0.1883 -0.3063  0.7771
  146SAPE   HN115953   6.188   1.433   6.344 -0.8215 -5.2354 -1.1779
  146SAPE   HN215954   6.046   1.515   6.420  1.4279  2.4914 -0.6997
  146SAPE   HN315955   6.045   1.354   6.350  1.2866 -0.9644 -0.0908
  146SAPE   C1215956   6.061   1.522   6.218  0.6501 -0.3906  0.7869
  146SAPE  H12A15957   6.061   1.443   6.140 -0.6940  1.2791 -0.9881
  146SAPE  H12B15958   6.148   1.590   6.210  0.1774  0.3447  1.6879
  146SAPE   C1115959   5.931   1.604   6.230  0.5985 -0.6497 -0.6902
  146SAPE  H11A15960   5.845   1.539   6.256  0.0224  0.2398 -0.3434
  146SAPE  H11B15961   5.914   1.629   6.124  2.4910 -1.3327 -1.2003
  146SAPE     P15962   6.008   1.858   6.285  0.1954  0.0287 -0.2553
  146SAPE   O1315963   5.940   1.962   6.364 -0.5123  0.2390 -0.1474
  146SAPE   O1415964   6.153   1.838   6.314  0.4707 -0.0346  0.0063
  146SAPE   O1215965   5.928   1.720   6.313  0.0374 -0.0839  0.1024
  146SAPE   O1115966   5.982   1.892   6.134  0.0448  0.0157  0.2252
  146SAPE    C115967   5.848   1.917   6.081  0.3845 -0.3131 -0.2773
  146SAPE    HA15968   5.776   1.833   6.091 -0.8868  0.1884 -3.7329
  146SAPE    HB15969   5.800   2.005   6.128  2.2063  1.1541 -1.0614
  146SAPE    C215970   5.867   1.958   5.929 -0.4593 -0.6226  0.4124
  146SAPE    HS15971   5.779   2.018   5.898  0.0043 -0.8725 -1.5484
  146SAPE   O2115972   5.867   1.840   5.847 -0.3958  0.3336 -0.6213
  146SAPE   C2115973   5.754   1.779   5.843 -0.6919 -0.0693 -0.3138
  146SAPE   O2215974   5.649   1.815   5.899 -0.1143  0.5856 -0.1088
  146SAPE   C2215975   5.760   1.648   5.763  0.1113 -0.1515 -0.4998
  146SAPE   H2R15976   5.866   1.616   5.763 -0.2766 -1.5163 -0.9330
  146SAPE   H2S15977   5.701   1.570   5.814  0.1970  0.5075  0.6308
  146SAPE    C315978   5.992   2.052   5.894  0.3687  0.0242 -0.8053
  146SAPE    HX15979   6.080   2.031   5.959 -0.4050  1.7395  0.9261
  146SAPE    HY15980   5.960   2.152   5.931 -0.7025 -0.9923  1.1740
  146SAPE   O3115981   6.030   2.077   5.757  0.6993  0.5870 -0.3659
  146SAPE   C3115982   6.128   1.993   5.722  0.2105 -0.1417  0.8212
  146SAPE   O3215983   6.189   1.918   5.795  0.1685  0.0177 -0.4270
  146SAPE   C3215984   6.165   2.015   5.579 -0.2803 -0.7609 -0.5244
  146SAPE   H2X15985   6.232   2.104   5.577 -2.4011  0.9525  0.7715
  146SAPE   H2Y15986   6.080   2.026   5.509 -1.9365 -0.2417  1.4844
  146SAPE   C2315987   5.731   1.668   5.615  0.5109  0.0885 -0.2670
  146SAPE   H3R15988   5.646   1.740   5.606 -0.8012 -1.6014 -2.3623
  146SAPE   H3S15989   5.696   1.571   5.572 -1.0809  1.3624 -2.0367
  146SAPE   C2415990   5.846   1.724   5.530  0.0149 -0.3211 -0.9117
  146SAPE   H4R15991   5.927   1.649   5.540  0.0497 -0.0364  1.5966
  146SAPE   H4S15992   5.883   1.819   5.576 -0.7669  1.0339 -2.9536
  146SAPE   C2515993   5.804   1.759   5.388 -0.3716  0.0512  0.1737
  146SAPE   H5R15994   5.753   1.856   5.377  0.2423  0.6543  2.1209
  146SAPE   C2615995   5.812   1.684   5.275 -0.0649  0.1974 -0.0219
  146SAPE   H6R15996   5.760   1.715   5.184  0.8342 -2.0260 -1.3995
  146SAPE   C2715997   5.873   1.544   5.268  0.5505 -0.1183 -0.1687
  146SAPE   H7R15998   5.792   1.471   5.249  1.3873 -0.7259 -1.5332
  146SAPE   H7S15999   5.900   1.509   5.370 -1.7167  0.4928  0.7298
  146SAPE   C2816000   5.987   1.527   5.166 -0.2582  0.1157 -0.2612
  146SAPE   H8R16001   6.084   1.538   5.217 -0.3857 -0.9753  0.2385
  146SAPE   C2916002   5.986   1.518   5.036 -0.7166 -0.2866  0.2626
  146SAPE   H9R16003   6.081   1.508   4.982 -1.4014 -1.0197 -0.8408
  146SAPE  C21016004   5.865   1.509   4.948  0.0008 -0.0891  0.2408
  146SAPE  H10R16005   5.769   1.529   5.001  0.1689 -0.2369  0.6077
  146SAPE  H10S16006   5.846   1.404   4.918  2.8930 -1.2219  1.9525
  146SAPE  C21116007   5.873   1.609   4.830 -0.1590 -0.3778 -0.3115
  146SAPE  H11R16008   5.910   1.712   4.846  0.1625  0.0333 -3.1786
  146SAPE  C21216009   5.849   1.569   4.700 -1.2293 -0.2376 -0.8093
  146SAPE  H12R16010   5.862   1.637   4.614  0.5747 -0.7607 -0.9994
  146SAPE  C21316011   5.804   1.435   4.660 -0.4910  1.0810 -0.4352
  146SAPE  H13R16012   5.731   1.401   4.736 -0.0732  1.8466  0.3301
  146SAPE  H13S16013   5.883   1.357   4.661  1.1997  2.6796  0.7564
  146SAPE  C21416014   5.724   1.432   4.529  0.2771 -0.0658  0.2477
  146SAPE  H14R16015   5.784   1.394   4.445  0.4211 -1.1331  0.8165
  146SAPE  C21516016   5.596   1.480   4.516 -0.6870 -0.5765 -0.0872
  146SAPE  H15R16017   5.570   1.481   4.409  2.5816  0.9127 -0.9808
  146SAPE  C21616018   5.501   1.533   4.619 -0.1787 -0.3744  0.2995
  146SAPE  H16R16019   5.556   1.561   4.711 -0.1319 -0.5884  0.3371
  146SAPE  H16S16020   5.423   1.456   4.633 -1.2660  0.4839 -0.8122
  146SAPE  C21716021   5.443   1.673   4.571 -0.2459  0.9484 -0.4367
  146SAPE  H17R16022   5.356   1.693   4.637 -0.2808  0.2070 -0.2434
  146SAPE  H17S16023   5.396   1.654   4.472 -0.7322  1.0584 -0.2282
  146SAPE  C21816024   5.531   1.792   4.568  1.3606 -0.2658  0.0967
  146SAPE  H18R16025   5.622   1.767   4.509  1.4668 -0.0783  0.1814
  146SAPE  H18S16026   5.583   1.823   4.662  1.8716 -0.8982  0.0301
  146SAPE  C21916027   5.456   1.910   4.511  0.0666  0.6899  0.5340
  146SAPE  H19R16028   5.355   1.926   4.554 -0.8455 -0.2148 -1.1532
  146SAPE  H19S16029   5.431   1.879   4.407 -0.3844  0.3790  0.7305
  146SAPE  C22016030   5.531   2.036   4.497 -0.2264  0.4251 -0.0208
  146SAPE  H20R16031   5.568   2.085   4.589 -0.6889 -0.8236  0.8397
  146SAPE  H20S16032   5.451   2.100   4.454 -1.6373 -0.8550  0.6474
  146SAPE  H20T16033   5.616   2.010   4.430  0.1052  1.6698 -0.1152
  146SAPE   C3316034   6.251   1.903   5.516  0.3451 -0.3538 -0.2475
  146SAPE   H3X16035   6.201   1.804   5.529 -1.5698  0.9055  3.3106
  146SAPE   H3Y16036   6.353   1.898   5.558  0.3690 -0.5061 -0.3218
  146SAPE   C3416037   6.282   1.912   5.364 -0.5853  0.9346 -0.7691
  146SAPE   H4X16038   6.363   1.837   5.355 -1.8429 -0.4337 -1.0737
  146SAPE   H4Y16039   6.322   2.013   5.341 -2.0639  1.1981 -2.4692
  146SAPE   C3516040   6.170   1.886   5.266 -0.5011  0.1175  0.1807
  146SAPE   H5X16041   6.086   1.958   5.278 -0.7488 -0.3767  1.6715
  146SAPE   H5Y16042   6.131   1.784   5.288  0.4644 -1.0679 -3.0348
  146SAPE   C3616043   6.207   1.896   5.116  0.1593 -0.6760 -0.0393
  146SAPE   H6X16044   6.238   1.796   5.079 -1.7391 -1.1579 -0.4383
  146SAPE   H6Y16045   6.288   1.972   5.118 -1.1757  0.8064 -0.2835
  146SAPE   C3716046   6.095   1.953   5.023  0.3359  0.1168  0.0248
  146SAPE   H7X16047   6.087   2.062   5.042  0.0073  0.7018 -3.0481
  146SAPE   H7Y16048   6.011   1.890   5.059 -0.6521  1.4885  0.1762
  146SAPE   C3816049   6.113   1.916   4.878  0.0642 -0.4729  0.4468
  146SAPE   H8X16050   6.108   1.805   4.874 -1.5329 -0.3847 -1.1875
  146SAPE   H8Y16051   6.210   1.952   4.837  0.0406 -1.7143 -0.7812
  146SAPE   C3916052   6.001   1.966   4.789 -0.2887  0.3414 -0.2038
  146SAPE   H9X16053   5.988   2.077   4.786 -0.5587  0.3699  1.3822
  146SAPE   H9Y16054   5.902   1.924   4.818  0.6133 -2.4869 -0.9271
  146SAPE  C31016055   6.037   1.923   4.646 -0.5884 -0.4511  0.9848
  146SAPE  H10X16056   6.048   1.813   4.648 -1.9995 -0.7904 -2.6365
  146SAPE  H10Y16057   6.139   1.967   4.640 -1.1114  0.5874 -0.6752
  146SAPE  C31116058   5.944   1.978   4.539  0.1879 -0.0255 -0.2554
  146SAPE  H11X16059   5.951   2.089   4.539  0.7521 -0.0535  0.5005
  146SAPE  H11Y16060   5.836   1.959   4.557 -0.5592  0.5023 -3.5516
  146SAPE  C31216061   5.979   1.923   4.405 -0.0968 -0.2793  0.7252
  146SAPE  H12X16062   6.081   1.958   4.382 -0.8310  2.9813  1.9302
  146SAPE  H12Y16063   5.909   1.965   4.329 -0.5602 -0.3108  1.1276
  146SAPE  C31316064   5.983   1.773   4.389  1.1096  0.4416  0.2869
  146SAPE  H13X16065   5.881   1.735   4.411  1.7117 -1.1221  0.5184
  146SAPE  H13Y16066   6.055   1.721   4.455  1.2712 -0.8202 -0.8347
  146SAPE  C31416067   6.031   1.750   4.242  0.7361  0.3660 -0.1009
  146SAPE  H14X16068   6.139   1.772   4.225  1.0411 -1.6161 -1.1291
  146SAPE  H14Y16069   5.971   1.818   4.178 -0.1727 -1.2350 -1.0398
  146SAPE  C31516070   6.001   1.612   4.194  0.3816  0.3484 -0.0628
  146SAPE  H15X16071   5.901   1.567   4.211  0.9110 -0.4336  1.1613
  146SAPE  H15Y16072   6.077   1.554   4.251  0.1349  0.3781  0.2984
  146SAPE  C31616073   6.043   1.592   4.048  0.1745 -0.0059  0.0446
  146SAPE  H16X16074   6.135   1.655   4.039 -0.6894  1.7764  2.4120
  146SAPE  H16Y16075   5.969   1.643   3.983  0.1384  0.7448  0.6642
  146SAPE  C31716076   6.068   1.445   4.001  0.4093 -0.3084  0.3512
  146SAPE  H17X16077   5.966   1.403   4.012  0.1474  0.6818  2.0065
  146SAPE  H17Y16078   6.134   1.396   4.076 -0.0994  2.8951  3.1442
  146SAPE  C31816079   6.123   1.416   3.859  0.2092  0.6807  0.6531
  146SAPE  H18X16080   6.133   1.307   3.842 -0.6064  0.4465  1.6142
  146SAPE  H18Y16081   6.223   1.465   3.849  1.5105 -1.4893  2.3124
  146SAPE  H18Z16082   6.063   1.453   3.773  1.9945 -0.2885 -1.1055
  147SAPE     N16083   6.382   1.969   6.263  0.1720  0.0750 -0.0075
  147SAPE   HN116084   6.305   1.922   6.314  1.6800  0.6867  3.0451
  147SAPE   HN216085   6.462   1.958   6.328 -0.6866 -2.9778  0.6845
  147SAPE   HN316086   6.366   2.070   6.245  1.5885  0.3960  0.3866
  147SAPE   C1216087   6.420   1.904   6.136  0.1051  0.1989 -0.5337
  147SAPE  H12A16088   6.516   1.949   6.103 -0.2374  1.1194 -0.3092
  147SAPE  H12B16089   6.343   1.941   6.065  1.8119  2.4108 -1.3305
  147SAPE   C1116090   6.437   1.750   6.156 -0.6797 -0.2625 -0.4827
  147SAPE  H11A16091   6.482   1.708   6.063  4.0764  1.0207  0.9634
  147SAPE  H11B16092   6.334   1.715   6.178 -0.3638 -0.6339  0.4217
  147SAPE     P16093   6.507   1.589   6.354 -0.1510 -0.4068 -0.1459
  147SAPE   O1316094   6.614   1.575   6.455  0.8045 -0.4197 -0.1544
  147SAPE   O1416095   6.371   1.566   6.408  0.4034  0.0370  0.0493
  147SAPE   O1216096   6.514   1.726   6.274  1.0282 -0.0712 -0.4382
  147SAPE   O1116097   6.525   1.492   6.235 -0.0333  0.1221 -0.1414
  147SAPE    C116098   6.657   1.472   6.188 -0.3740  0.0411 -0.0986
  147SAPE    HA16099   6.681   1.561   6.125 -0.5984  0.2001  0.0398
  147SAPE    HB16100   6.736   1.456   6.265 -1.2884 -2.1138  0.4515
  147SAPE    C216101   6.661   1.346   6.099 -0.3016 -0.1903  0.1303
  147SAPE    HS16102   6.765   1.341   6.059  1.6323 -1.2982  4.6222
  147SAPE   O2116103   6.555   1.345   6.001 -0.0738  0.3199 -0.0952
  147SAPE   C2116104   6.576   1.424   5.893  0.7005 -0.4828 -0.1247
  147SAPE   O2216105   6.680   1.478   5.868  0.6168 -0.2099 -0.5126
  147SAPE   C2216106   6.455   1.418   5.803  0.8139 -0.2096 -0.0067
  147SAPE   H2R16107   6.495   1.458   5.708  0.7172  1.3989  0.5940
  147SAPE   H2S16108   6.436   1.309   5.797  0.8610 -0.3243  1.4190
  147SAPE    C316109   6.648   1.217   6.190  0.6402  0.8408 -0.4258
  147SAPE    HX16110   6.552   1.239   6.242  0.1379  1.3495 -1.5272
  147SAPE    HY16111   6.739   1.221   6.252 -0.9825  1.1155  2.0622
  147SAPE   O3116112   6.656   1.102   6.106  0.0021 -0.1648  0.1027
  147SAPE   C3116113   6.539   1.040   6.095  0.7909 -0.1841  0.4123
  147SAPE   O3216114   6.440   1.077   6.154  0.7142 -0.2165  0.3405
  147SAPE   C3216115   6.563   0.909   6.021 -0.0223 -0.0013  0.1219
  147SAPE   H2X16116   6.548   0.833   6.100 -1.3059  0.9684  0.8679
  147SAPE   H2Y16117   6.662   0.910   5.971  0.0051  2.1239  0.1001
  147SAPE   C2316118   6.334   1.474   5.867  0.0744 -0.6379  0.5969
  147SAPE   H3R16119   6.344   1.583   5.882 -1.0286 -0.6280  1.3930
  147SAPE   H3S16120   6.310   1.436   5.968 -0.0527 -1.3040  0.3207
  147SAPE   C2416121   6.213   1.456   5.770 -0.3611  0.3856 -0.2132
  147SAPE   H4R16122   6.127   1.492   5.829  0.1238 -0.0994  0.8153
  147SAPE   H4S16123   6.200   1.347   5.757 -1.2384  0.5458 -0.7254
  147SAPE   C2516124   6.235   1.532   5.644 -0.5383  0.3624  0.5906
  147SAPE   H5R16125   6.236   1.642   5.651  2.4735  0.4718 -0.1417
  147SAPE   C2616126   6.276   1.485   5.520 -0.0675  0.2027  0.0778
  147SAPE   H6R16127   6.292   1.552   5.434 -1.2759  0.1918 -0.1663
  147SAPE   C2716128   6.298   1.340   5.484  0.6375 -0.1171  0.3744
  147SAPE   H7R16129   6.220   1.315   5.409 -0.5091  2.1395  0.7320
  147SAPE   H7S16130   6.281   1.270   5.569 -2.4286  1.1821  0.9541
  147SAPE   C2816131   6.437   1.326   5.433 -0.0227 -0.3942 -0.5114
  147SAPE   H8R16132   6.507   1.275   5.500  0.9607  0.6472 -0.7191
  147SAPE   C2916133   6.475   1.341   5.307  0.1431 -0.1131  0.0609
  147SAPE   H9R16134   6.574   1.315   5.265 -0.4587  1.3536 -2.5255
  147SAPE  C21016135   6.389   1.409   5.208  0.5020  0.0987  0.0835
  147SAPE  H10R16136   6.287   1.430   5.248  0.4820 -2.3539  1.4654
  147SAPE  H10S16137   6.365   1.323   5.142  2.2244 -0.0367 -0.3960
  147SAPE  C21116138   6.448   1.532   5.141 -0.6237  0.2913  0.2233
  147SAPE  H11R16139   6.486   1.602   5.217 -0.0223  0.0442  0.1598
  147SAPE  C21216140   6.446   1.571   5.009  0.3868  0.1311 -0.2727
  147SAPE  H12R16141   6.496   1.664   4.980 -1.0981  1.1307  0.2552
  147SAPE  C21316142   6.374   1.494   4.903 -0.2178 -0.6476 -0.1269
  147SAPE  H13R16143   6.305   1.559   4.845 -0.4890 -1.2361 -0.4807
  147SAPE  H13S16144   6.298   1.427   4.949 -0.3407 -0.0744  0.5153
  147SAPE  C21416145   6.469   1.420   4.815 -0.7833 -0.2537  0.3099
  147SAPE  H14R16146   6.550   1.370   4.870  0.1174  2.3932  1.5561
  147SAPE  C21516147   6.472   1.401   4.680 -0.4182 -0.1777 -0.7653
  147SAPE  H15R16148   6.562   1.354   4.638  0.4287  0.0997  0.6892
  147SAPE  C21616149   6.388   1.469   4.568 -0.2281  0.5400  0.0778
  147SAPE  H16R16150   6.449   1.539   4.506 -2.2725  1.2457 -1.2544
  147SAPE  H16S16151   6.302   1.524   4.613  1.0112  1.2441  1.6815
  147SAPE  C21716152   6.324   1.387   4.458  0.3781 -0.0825  0.4696
  147SAPE  H17R16153   6.395   1.337   4.389 -0.1661  0.3479 -0.4228
  147SAPE  H17S16154   6.268   1.451   4.387  1.5410  0.4331 -0.0029
  147SAPE  C21816155   6.232   1.278   4.520 -0.4190 -0.0021  0.1278
  147SAPE  H18R16156   6.175   1.320   4.606 -1.0188 -0.9934  0.2375
  147SAPE  H18S16157   6.292   1.194   4.562 -2.3499 -1.0341  0.9692
  147SAPE  C21916158   6.142   1.216   4.413  0.1238 -0.2125 -0.6724
  147SAPE  H19R16159   6.064   1.289   4.382 -0.2912  0.0515  0.8929
  147SAPE  H19S16160   6.093   1.124   4.451  1.5844 -0.6375  0.2577
  147SAPE  C22016161   6.206   1.163   4.282 -0.1728  0.1319  0.0354
  147SAPE  H20R16162   6.262   1.072   4.310  0.1999  0.3502  0.0114
  147SAPE  H20S16163   6.280   1.232   4.235 -0.0875  0.1871  0.2494
  147SAPE  H20T16164   6.124   1.130   4.215  0.5126 -2.0441  0.1996
  147SAPE   C3316165   6.454   0.884   5.911  0.1386 -0.2632 -0.7234
  147SAPE   H3X16166   6.353   0.922   5.938  0.1273  0.3005 -1.5305
  147SAPE   H3Y16167   6.451   0.773   5.898 -1.6356 -0.5723  1.6291
  147SAPE   C3416168   6.495   0.956   5.777  0.0406  0.4397 -0.7535
  147SAPE   H4X16169   6.584   0.911   5.729  0.4189 -0.4805  0.7419
  147SAPE   H4Y16170   6.518   1.059   5.814  2.6089 -1.0554  2.3331
  147SAPE   C3516171   6.382   0.962   5.682  0.2686 -0.4452 -0.4258
  147SAPE   H5X16172   6.312   1.046   5.702  1.0927  0.4535 -1.2116
  147SAPE   H5Y16173   6.326   0.867   5.695 -2.4835  1.0073 -0.9325
  147SAPE   C3616174   6.423   0.961   5.535  0.2704 -0.2219  0.8902
  147SAPE   H6X16175   6.494   0.878   5.517 -0.9414 -0.7639 -1.8959
  147SAPE   H6Y16176   6.475   1.054   5.503 -1.1390  0.2183 -0.2171
  147SAPE   C3716177   6.301   0.943   5.446  0.3343 -0.3573  0.4791
  147SAPE   H7X16178   6.227   1.025   5.450 -0.9264 -1.1670 -2.9479
  147SAPE   H7Y16179   6.242   0.850   5.462  0.0175 -0.2834 -0.2664
  147SAPE   C3816180   6.353   0.944   5.300  0.1902  0.4064 -0.1052
  147SAPE   H8X16181   6.433   0.866   5.300  0.5824  0.7512 -2.2773
  147SAPE   H8Y16182   6.404   1.039   5.273 -0.5241  0.8694  0.1636
  147SAPE   C3916183   6.240   0.917   5.198 -0.1649 -0.3219 -1.0496
  147SAPE   H9X16184   6.139   0.907   5.243 -2.1775  1.2162 -4.7786
  147SAPE   H9Y16185   6.259   0.817   5.154 -2.4822 -0.8667 -0.9101
  147SAPE  C31016186   6.213   1.040   5.102  0.3966  0.5005 -0.5801
  147SAPE  H10X16187   6.313   1.074   5.069  0.7435 -0.1393 -0.2099
  147SAPE  H10Y16188   6.173   1.120   5.168 -1.3328  0.2650 -1.2875
  147SAPE  C31116189   6.112   1.013   4.985 -0.2963 -0.0940 -0.6067
  147SAPE  H11X16190   6.011   0.988   5.026 -1.0563  1.3002 -1.5444
  147SAPE  H11Y16191   6.143   0.935   4.914  2.7726  1.5430 -1.2335
  147SAPE  C31216192   6.084   1.143   4.898  0.4302  0.4659 -0.3011
  147SAPE  H12X16193   6.177   1.204   4.901 -0.3944  1.7135  1.4657
  147SAPE  H12Y16194   6.015   1.206   4.958  0.6362  1.7475 -1.3668
  147SAPE  C31316195   6.025   1.121   4.757  0.4684 -0.6521 -0.2317
  147SAPE  H13X16196   6.093   1.062   4.693 -0.5281 -2.3952  0.2357
  147SAPE  H13Y16197   6.015   1.221   4.710 -0.5939 -0.0124  1.2735
  147SAPE  C31416198   5.883   1.060   4.759  0.3695 -0.0957  0.5710
  147SAPE  H14X16199   5.817   1.114   4.830 -0.9505 -1.3914  0.3850
  147SAPE  H14Y16200   5.897   0.959   4.805 -0.9240 -0.7953 -0.5057
  147SAPE  C31516201   5.816   1.051   4.633  0.5512  0.4691  0.2013
  147SAPE  H15X16202   5.871   0.969   4.581 -0.5317 -0.4975  0.5578
  147SAPE  H15Y16203   5.836   1.141   4.571 -0.5268 -1.4559 -3.2231
  147SAPE  C31616204   5.662   1.028   4.650  0.6180 -0.7838 -0.4008
  147SAPE  H16X16205   5.622   1.115   4.705  1.9024 -0.8434  0.6699
  147SAPE  H16Y16206   5.658   0.937   4.713 -0.3685 -0.1447  0.4764
  147SAPE  C31716207   5.588   1.027   4.512  0.5534 -0.1930 -0.1140
  147SAPE  H17X16208   5.581   1.122   4.455  0.1931  0.1524  0.4893
  147SAPE  H17Y16209   5.488   1.022   4.561  0.6185 -1.8995 -0.0845
  147SAPE  C31816210   5.599   0.909   4.413 -0.1721 -0.2842 -0.2591
  147SAPE  H18X16211   5.519   0.908   4.335  0.4619  0.7130 -0.9473
  147SAPE  H18Y16212   5.608   0.816   4.473 -0.2485  0.3907  0.8254
  147SAPE  H18Z16213   5.691   0.924   4.353  0.0653  1.9617  0.5664
  148SAPE     N16214   2.910   4.414   6.121 -0.0405 -0.5587  0.2667
  148SAPE   HN116215   2.898   4.512   6.087 -2.0303 -1.0144 -0.4733
  148SAPE   HN216216   3.004   4.384   6.087  1.1014  1.7475  1.1345
  148SAPE   HN316217   2.842   4.353   6.073 -0.6663  1.3415 -1.4301
  148SAPE   C1216218   2.895   4.397   6.267 -0.0263 -0.2081  0.0069
  148SAPE  H12A16219   2.967   4.467   6.316  0.7438  0.6161 -2.1830
  148SAPE  H12B16220   2.923   4.291   6.283  2.2629  0.2062 -0.9140
  148SAPE   C1116221   2.758   4.442   6.313  0.3664 -0.0402  0.3147
  148SAPE  H11A16222   2.734   4.399   6.412 -1.9305  3.4027  1.4623
  148SAPE  H11B16223   2.680   4.407   6.242 -1.6572 -0.2491  2.5478
  148SAPE     P16224   2.726   4.668   6.464 -0.3737 -0.4261  0.0459
  148SAPE   O1316225   2.586   4.703   6.469  0.3091 -0.4105 -0.4593
  148SAPE   O1416226   2.789   4.594   6.578  0.4516  0.3685 -0.4772
  148SAPE   O1216227   2.746   4.584   6.333 -0.3143 -0.2233 -0.2115
  148SAPE   O1116228   2.814   4.800   6.442 -0.2250  0.2358 -0.0207
  148SAPE    C116229   2.899   4.807   6.326 -0.0377 -0.3443  0.7466
  148SAPE    HA16230   2.979   4.879   6.353 -0.7349  1.6339 -2.1249
  148SAPE    HB16231   2.943   4.707   6.305 -0.0604 -0.2471  0.2277
  148SAPE    C216232   2.823   4.879   6.205  0.6028 -0.1736 -0.8698
  148SAPE    HS16233   2.738   4.814   6.176 -0.6530  1.1137 -0.1894
  148SAPE   O2116234   2.909   4.911   6.094 -0.3616  0.4201  0.4451
  148SAPE   C2116235   2.963   4.796   6.041  0.1716 -0.0234  1.0181
  148SAPE   O2216236   2.942   4.682   6.070  0.2206  0.2421  0.6751
  148SAPE   C2216237   3.055   4.847   5.927  0.0429  0.1298 -0.3954
  148SAPE   H2R16238   3.002   4.919   5.862 -0.4278  1.3570  1.2625
  148SAPE   H2S16239   3.150   4.888   5.969  0.0725 -0.2035 -0.1372
  148SAPE    C316240   2.746   5.009   6.244 -0.2553  0.4074  0.7235
  148SAPE    HX16241   2.818   5.084   6.281  0.3303  0.8335 -1.1742
  148SAPE    HY16242   2.691   4.977   6.335 -1.1719 -2.9150 -0.8573
  148SAPE   O3116243   2.663   5.072   6.142  0.2901  0.0243  0.5142
  148SAPE   C3116244   2.545   5.018   6.111  0.5054 -0.0813 -0.1067
  148SAPE   O3216245   2.507   4.916   6.170  0.0712  0.2683  0.5808
  148SAPE   C3216246   2.474   5.092   5.999  0.5082 -0.6688  0.1476
  148SAPE   H2X16247   2.543   5.157   5.941  2.9247 -0.1743  3.3261
  148SAPE   H2Y16248   2.394   5.149   6.052  0.1572  0.4566 -1.5102
  148SAPE   C2316249   3.120   4.724   5.853  0.2553  0.6357 -0.0816
  148SAPE   H3R16250   3.156   4.652   5.929 -0.2019  0.9075  0.3984
  148SAPE   H3S16251   3.212   4.752   5.798  1.8160 -1.4727  1.3225
  148SAPE   C2416252   3.015   4.648   5.758  0.0479  0.1592  0.2984
  148SAPE   H4R16253   2.929   4.614   5.818 -2.6269  1.1551 -2.6974
  148SAPE   H4S16254   3.063   4.567   5.699  1.6953  2.0562 -1.1240
  148SAPE   C2516255   2.952   4.740   5.658 -0.9330 -0.0454 -0.1182
  148SAPE   H5R16256   2.873   4.810   5.688 -0.2059  1.5934 -1.8019
  148SAPE   C2616257   3.006   4.744   5.534 -0.8567  1.0452 -0.5802
  148SAPE   H6R16258   2.957   4.806   5.459  1.9462 -0.3884 -3.8735
  148SAPE   C2716259   3.113   4.660   5.464  0.0316 -0.1477 -0.8952
  148SAPE   H7R16260   3.058   4.589   5.398  0.0522 -1.2571  0.2406
  148SAPE   H7S16261   3.164   4.600   5.542 -0.6076  1.0673  0.4954
  148SAPE   C2816262   3.222   4.742   5.390  0.0283 -0.3226 -0.3380
  148SAPE   H8R16263   3.268   4.823   5.448 -2.2268  1.7563 -1.2688
  148SAPE   C2916264   3.264   4.725   5.266 -0.0705 -0.7240 -0.3736
  148SAPE   H9R16265   3.347   4.793   5.243 -0.3282  0.6686  2.4001
  148SAPE  C21016266   3.213   4.631   5.161 -0.0688 -0.0884  0.3726
  148SAPE  H10R16267   3.143   4.685   5.094  0.3953 -0.0252 -0.0633
  148SAPE  H10S16268   3.141   4.555   5.198  2.5060 -2.3769  1.0315
  148SAPE  C21116269   3.325   4.562   5.089 -0.3069 -0.1752  0.8033
  148SAPE  H11R16270   3.391   4.509   5.159 -1.3885  0.3719  2.2916
  148SAPE  C21216271   3.354   4.571   4.960 -0.6868 -0.2358  0.7115
  148SAPE  H12R16272   3.442   4.513   4.929 -0.3111 -0.2194  1.6999
  148SAPE  C21316273   3.271   4.631   4.847 -0.3290 -0.2357  0.1275
  148SAPE  H13R16274   3.290   4.738   4.872 -0.7374 -0.8213  3.5245
  148SAPE  H13S16275   3.161   4.619   4.860 -0.8487  1.0779 -2.4164
  148SAPE  C21416276   3.311   4.611   4.707  0.5965  0.3099 -0.9577
  148SAPE  H14R16277   3.421   4.610   4.698  0.8782  3.3295  0.7470
  148SAPE  C21516278   3.238   4.618   4.597  0.2671 -1.0656  0.5200
  148SAPE  H15R16279   3.292   4.590   4.505 -0.1495 -0.4427  0.0706
  148SAPE  C21616280   3.091   4.627   4.584  0.2208  0.2271  0.1777
  148SAPE  H16R16281   3.047   4.555   4.656  1.9480 -1.2207 -0.1539
  148SAPE  H16S16282   3.051   4.594   4.486 -0.4007  1.1317  0.1083
  148SAPE  C21716283   3.041   4.765   4.623 -0.3192 -0.3203 -0.1050
  148SAPE  H17R16284   3.051   4.836   4.539 -2.1370  0.5614  0.3753
  148SAPE  H17S16285   3.102   4.807   4.706 -2.0866  0.6075  0.7712
  148SAPE  C21816286   2.897   4.771   4.676 -0.7151 -1.2037  0.2425
  148SAPE  H18R16287   2.881   4.877   4.704  0.6452 -1.2884  1.4686
  148SAPE  H18S16288   2.903   4.693   4.755 -2.9171 -3.1029 -1.3270
  148SAPE  C21916289   2.789   4.740   4.566  0.1620  0.2245 -0.1141
  148SAPE  H19R16290   2.802   4.635   4.533  0.0112  0.2694 -0.3152
  148SAPE  H19S16291   2.801   4.806   4.478 -1.8072  2.0814  0.9227
  148SAPE  C22016292   2.646   4.772   4.604 -0.0771  0.0397  0.0690
  148SAPE  H20R16293   2.613   4.703   4.685  0.3889 -2.0692 -1.4472
  148SAPE  H20S16294   2.572   4.763   4.521  1.1460 -1.5198 -0.9160
  148SAPE  H20T16295   2.629   4.867   4.658  0.3587 -0.6902  1.5479
  148SAPE   C3316296   2.405   4.997   5.901 -0.1342  0.5890  0.2853
  148SAPE   H3X16297   2.328   5.054   5.845  0.2501  0.7850 -0.0516
  148SAPE   H3Y16298   2.347   4.920   5.955 -2.6525  2.1820  0.0413
  148SAPE   C3416299   2.504   4.938   5.807 -0.0360 -0.5971 -0.1318
  148SAPE   H4X16300   2.564   4.864   5.864  0.4867 -0.4181 -0.4362
  148SAPE   H4Y16301   2.574   5.019   5.778 -0.0031 -0.2739  0.8175
  148SAPE   C3516302   2.450   4.871   5.680  0.3769 -0.2623 -0.0502
  148SAPE   H5X16303   2.404   4.951   5.618  0.0879 -0.7076 -0.4136
  148SAPE   H5Y16304   2.382   4.786   5.701 -0.5125  0.3112 -0.5385
  148SAPE   C3616305   2.553   4.801   5.600 -0.6915  0.7284  0.0728
  148SAPE   H6X16306   2.595   4.713   5.653 -0.3221  0.9454  0.1360
  148SAPE   H6Y16307   2.642   4.865   5.583 -0.9921  1.3629  0.8366
  148SAPE   C3716308   2.512   4.750   5.459 -0.1542 -0.3252  0.1384
  148SAPE   H7X16309   2.440   4.665   5.465  0.3490 -0.7091  0.8058
  148SAPE   H7Y16310   2.601   4.703   5.413 -0.6256  1.0018 -2.3135
  148SAPE   C3816311   2.443   4.863   5.375  0.2732  0.0096  0.2928
  148SAPE   H8X16312   2.473   4.963   5.413  2.5789 -1.1027  1.6391
  148SAPE   H8Y16313   2.337   4.833   5.385 -0.1270  1.4821  0.6147
  148SAPE   C3916314   2.489   4.836   5.230 -0.3971  0.0127 -0.0275
  148SAPE   H9X16315   2.501   4.727   5.212 -0.1146 -0.4913  2.7979
  148SAPE   H9Y16316   2.588   4.881   5.206 -0.9764  2.1644  1.3130
  148SAPE  C31016317   2.387   4.885   5.128 -0.0377  0.0197  0.3013
  148SAPE  H10X16318   2.391   4.993   5.152  1.6930  0.5410 -1.9977
  148SAPE  H10Y16319   2.281   4.852   5.140  0.2849 -1.5396 -0.7453
  148SAPE  C31116320   2.429   4.864   4.986  0.9009 -0.1736  0.4450
  148SAPE  H11X16321   2.435   4.754   4.968 -1.4464 -0.5223  1.3234
  148SAPE  H11Y16322   2.532   4.898   4.966  0.0684  3.3078  1.4564
  148SAPE  C31216323   2.326   4.935   4.895  0.1618 -0.3439  1.1421
  148SAPE  H12X16324   2.291   5.028   4.945 -0.6338  0.1777 -0.3168
  148SAPE  H12Y16325   2.230   4.881   4.880 -0.2354  0.7891 -0.7547
  148SAPE  C31316326   2.382   4.946   4.755  0.6248 -0.3497  0.3778
  148SAPE  H13X16327   2.373   4.851   4.698 -0.1259  0.2424 -0.5150
  148SAPE  H13Y16328   2.488   4.976   4.746  0.5897 -0.0590  0.8790
  148SAPE  C31416329   2.307   5.045   4.664 -0.5022 -0.8386  0.1193
  148SAPE  H14X16330   2.300   5.145   4.712  2.3826 -0.1177 -0.7581
  148SAPE  H14Y16331   2.205   5.005   4.644  0.1039 -0.9318 -3.4142
  148SAPE  C31516332   2.366   5.065   4.520 -0.0151 -0.5227 -0.3918
  148SAPE  H15X16333   2.382   4.961   4.483  0.5219 -1.7275  2.9505
  148SAPE  H15Y16334   2.458   5.127   4.521 -0.0293 -0.2542  3.9611
  148SAPE  C31616335   2.274   5.118   4.410  0.6914 -0.0999 -0.0266
  148SAPE  H16X16336   2.186   5.156   4.466  0.1084 -0.2903 -0.7983
  148SAPE  H16Y16337   2.253   5.029   4.347  0.1935 -0.1119  0.1580
  148SAPE  C31716338   2.326   5.239   4.327  0.1573 -0.3446  0.1180
  148SAPE  H17X16339   2.260   5.250   4.238 -0.3553  4.3391  0.7838
  148SAPE  H17Y16340   2.428   5.228   4.287  0.3256  2.2266 -0.3538
  148SAPE  C31816341   2.312   5.368   4.408  0.2411  0.0720  0.6443
  148SAPE  H18X16342   2.382   5.365   4.495  0.1239 -0.5498  0.7202
  148SAPE  H18Y16343   2.208   5.366   4.447 -0.3793  2.3747 -0.7045
  148SAPE  H18Z16344   2.335   5.464   4.357  2.8602 -0.2922  0.9709
  149SAPE     N16345   3.554   1.585   6.421  0.1382  0.5160 -0.7589
  149SAPE   HN116346   3.593   1.532   6.502 -0.3409  1.1061 -0.1324
  149SAPE   HN216347   3.526   1.684   6.436 -0.2809  0.2125  0.6728
  149SAPE   HN316348   3.465   1.535   6.397 -0.8918  1.7821  0.2690
  149SAPE   C1216349   3.637   1.572   6.298 -0.5571 -0.2859 -0.1803
  149SAPE  H12A16350   3.728   1.635   6.310  1.8343 -3.6579  0.6801
  149SAPE  H12B16351   3.583   1.625   6.216 -2.3773 -1.4153  0.2171
  149SAPE   C1116352   3.680   1.426   6.269  0.2715  0.4022 -0.0598
  149SAPE  H11A16353   3.755   1.425   6.187  0.2255  0.4423 -0.1013
  149SAPE  H11B16354   3.595   1.363   6.237  0.7480 -0.7994  0.9380
  149SAPE     P16355   3.889   1.399   6.435 -0.1024  0.1552  0.3834
  149SAPE   O1316356   3.885   1.529   6.501 -0.3945  0.0447  0.2254
  149SAPE   O1416357   3.946   1.289   6.511 -0.4872 -0.0457  0.2096
  149SAPE   O1216358   3.743   1.364   6.386 -0.3020 -0.1110 -0.1556
  149SAPE   O1116359   3.963   1.398   6.290 -0.0161 -0.2657 -0.5654
  149SAPE    C116360   4.084   1.320   6.275 -0.4905  0.3203  0.3647
  149SAPE    HA16361   4.169   1.357   6.337 -0.0281 -0.7255  0.3733
  149SAPE    HB16362   4.062   1.214   6.300 -2.5607  0.7226  0.4849
  149SAPE    C216363   4.134   1.316   6.117  0.0103 -0.1805 -0.7699
  149SAPE    HS16364   4.217   1.244   6.102  1.0616  1.1104 -1.4377
  149SAPE   O2116365   4.176   1.448   6.074 -0.2197 -0.3164  0.0632
  149SAPE   C2116366   4.285   1.503   6.125 -0.2479  0.0884  0.2870
  149SAPE   O2216367   4.368   1.444   6.195 -0.1229  0.0711 -0.3235
  149SAPE   C2216368   4.282   1.652   6.110  0.1378 -0.1233  0.0548
  149SAPE   H2R16369   4.205   1.686   6.182  1.3405 -1.2775  1.9909
  149SAPE   H2S16370   4.386   1.684   6.133  0.3373 -0.6704 -0.0662
  149SAPE    C316371   4.010   1.285   6.028 -0.1238 -0.0311  0.9352
  149SAPE    HX16372   3.919   1.331   6.071 -0.8991  1.8070 -2.3299
  149SAPE    HY16373   3.989   1.177   6.039 -1.9818  0.2281  0.2058
  149SAPE   O3116374   4.026   1.315   5.886  0.1579 -0.8945  0.1134
  149SAPE   C3116375   3.981   1.434   5.844  0.3880  0.3055 -0.3940
  149SAPE   O3216376   3.927   1.516   5.919 -0.0159 -0.0466  0.3212
  149SAPE   C3216377   4.000   1.456   5.695  0.0939  0.3580  0.5036
  149SAPE   H2X16378   3.902   1.428   5.649  0.1729  2.0009 -0.7881
  149SAPE   H2Y16379   4.079   1.386   5.663  3.1832  3.3262  1.0437
  149SAPE   C2316380   4.260   1.711   5.973 -0.1544 -0.2701  0.4627
  149SAPE   H3R16381   4.258   1.821   5.987  0.6754  0.0383 -1.4519
  149SAPE   H3S16382   4.163   1.690   5.923  0.0229  0.2993 -0.1345
  149SAPE   C2416383   4.354   1.663   5.856  0.4248 -0.2220 -0.0770
  149SAPE   H4R16384   4.361   1.739   5.776  1.8971  0.1822  0.3905
  149SAPE   H4S16385   4.308   1.568   5.824  0.2992 -0.3379  0.4259
  149SAPE   C2516386   4.496   1.634   5.885 -0.1811 -0.1149 -0.9121
  149SAPE   H5R16387   4.528   1.692   5.973 -1.0165  3.7556 -2.9250
  149SAPE   C2616388   4.581   1.546   5.816  0.4382  0.4745 -0.2697
  149SAPE   H6R16389   4.682   1.525   5.855 -0.4240  1.0807  2.5168
  149SAPE   C2716390   4.533   1.475   5.693 -0.1109 -0.3917  0.0270
  149SAPE   H7R16391   4.433   1.434   5.716 -0.7574  1.7207  1.3055
  149SAPE   H7S16392   4.597   1.385   5.680 -1.7589 -1.4803 -0.8274
  149SAPE   C2816393   4.514   1.553   5.565  0.6801  0.2686 -0.2522
  149SAPE   H8R16394   4.458   1.646   5.583 -0.6285 -0.6926  0.9435
  149SAPE   C2916395   4.527   1.503   5.442 -0.1552 -0.8176 -0.1522
  149SAPE   H9R16396   4.511   1.566   5.353  0.8648  0.2284  0.3835
  149SAPE  C21016397   4.590   1.371   5.398  0.3476  0.6460 -0.5128
  149SAPE  H10R16398   4.521   1.312   5.334  0.7171 -2.1387  1.4688
  149SAPE  H10S16399   4.617   1.305   5.484  1.9232  1.5384 -0.2783
  149SAPE  C21116400   4.718   1.380   5.326  0.4454 -0.7827  0.4183
  149SAPE  H11R16401   4.810   1.402   5.382 -0.4961  0.7819  1.4175
  149SAPE  C21216402   4.744   1.351   5.197 -0.5458  0.1735  0.2931
  149SAPE  H12R16403   4.849   1.359   5.165 -0.0317 -3.0960  0.8262
  149SAPE  C21316404   4.649   1.301   5.095 -0.0575 -0.1900  0.3501
  149SAPE  H13R16405   4.545   1.292   5.133 -0.4267 -0.7411 -0.7599
  149SAPE  H13S16406   4.671   1.195   5.071 -3.9100 -0.6945 -1.6721
  149SAPE  C21416407   4.658   1.371   4.959  0.4107 -0.3108  0.4037
  149SAPE  H14R16408   4.566   1.419   4.923  0.2784 -1.4340 -0.8712
  149SAPE  C21516409   4.755   1.365   4.869  0.0561  0.3218 -0.1812
  149SAPE  H15R16410   4.738   1.418   4.774 -1.9422 -0.8798 -0.5517
  149SAPE  C21616411   4.884   1.285   4.888  0.3215 -0.2094 -0.1737
  149SAPE  H16R16412   4.910   1.270   4.995  0.4893  0.4818 -0.1124
  149SAPE  H16S16413   4.970   1.326   4.831 -1.8956  1.3624 -2.6061
  149SAPE  C21716414   4.869   1.138   4.842 -0.9810 -0.0202  0.4767
  149SAPE  H17R16415   4.777   1.092   4.886 -0.7964 -1.7541 -0.8538
  149SAPE  H17S16416   4.949   1.076   4.888  1.8963  1.6428 -1.9559
  149SAPE  C21816417   4.860   1.130   4.690  0.5010 -1.2938  0.1149
  149SAPE  H18R16418   4.952   1.178   4.651 -0.8377  2.3319  1.0885
  149SAPE  H18S16419   4.767   1.178   4.654  0.0117 -0.6436  2.0816
  149SAPE  C21916420   4.864   0.987   4.624  0.0661  0.0938  0.5109
  149SAPE  H19R16421   4.921   0.914   4.686  0.5287  1.6569  1.9904
  149SAPE  H19S16422   4.900   0.989   4.519 -1.0447 -3.1519 -0.0495
  149SAPE  C22016423   4.720   0.926   4.617 -0.4179 -0.4145 -0.6395
  149SAPE  H20R16424   4.659   0.944   4.708 -0.4782  2.6968 -1.1980
  149SAPE  H20S16425   4.738   0.820   4.590  1.2538 -0.1555 -0.6560
  149SAPE  H20T16426   4.664   0.982   4.539 -0.0944  0.1280 -0.4859
  149SAPE   C3316427   4.050   1.597   5.666 -0.2474 -0.6594  0.0446
  149SAPE   H3X16428   4.121   1.652   5.730  2.0912  0.5379 -3.3051
  149SAPE   H3Y16429   3.964   1.667   5.665  0.3652  0.1722  2.0038
  149SAPE   C3416430   4.113   1.598   5.524 -0.0213  0.0188  0.2108
  149SAPE   H4X16431   4.203   1.536   5.545  0.0642 -0.3848 -1.2694
  149SAPE   H4Y16432   4.150   1.698   5.493  1.9966  0.5136  3.6360
  149SAPE   C3516433   4.026   1.524   5.418 -0.4017  0.1029 -0.1454
  149SAPE   H5X16434   3.919   1.540   5.443 -0.8869 -1.7174 -0.9134
  149SAPE   H5Y16435   4.053   1.416   5.413 -1.7812 -0.2816  0.2407
  149SAPE   C3616436   4.039   1.589   5.279  0.0262 -0.7811  0.6296
  149SAPE   H6X16437   4.145   1.571   5.250  0.3219  0.5454  0.8014
  149SAPE   H6Y16438   4.015   1.696   5.298  1.8707  0.0285 -1.2925
  149SAPE   C3716439   3.939   1.526   5.173  0.1409  0.1194  0.2036
  149SAPE   H7X16440   3.843   1.507   5.226 -0.0215  3.7070  1.4531
  149SAPE   H7Y16441   3.968   1.423   5.143 -3.4938 -0.5399 -1.5905
  149SAPE   C3816442   3.947   1.602   5.040 -0.0250 -0.4934 -0.3959
  149SAPE   H8X16443   4.049   1.638   5.016  0.8223 -0.8263  2.3436
  149SAPE   H8Y16444   3.870   1.677   5.064  1.2401  0.9054 -0.5706
  149SAPE   C3916445   3.925   1.520   4.916  0.2334 -0.0664  0.0389
  149SAPE   H9X16446   3.828   1.474   4.946 -0.0834  1.6074  1.7342
  149SAPE   H9Y16447   4.006   1.444   4.917  0.9328  0.6739  0.8683
  149SAPE  C31016448   3.903   1.598   4.786 -0.3653 -0.5235 -0.3607
  149SAPE  H10X16449   3.983   1.673   4.769 -1.5543  0.6703 -0.9253
  149SAPE  H10Y16450   3.818   1.668   4.801  0.3529  0.2574  0.1623
  149SAPE  C31116451   3.863   1.518   4.660  0.0340 -0.0080  0.0201
  149SAPE  H11X16452   3.768   1.464   4.678  0.3540 -0.1342  1.3913
  149SAPE  H11Y16453   3.937   1.443   4.624 -0.8412 -1.2009  0.6564
  149SAPE  C31216454   3.841   1.627   4.546  0.3683  0.2979 -0.2940
  149SAPE  H12X16455   3.938   1.668   4.512 -0.2157  0.6473 -1.5965
  149SAPE  H12Y16456   3.772   1.705   4.586  1.3125  1.3468 -0.6736
  149SAPE  C31316457   3.780   1.569   4.414 -0.0713 -0.5317 -0.7601
  149SAPE  H13X16458   3.691   1.519   4.459 -0.1410  2.5130  3.0031
  149SAPE  H13Y16459   3.841   1.483   4.380 -0.9780 -0.6321 -2.1894
  149SAPE  C31416460   3.758   1.664   4.293 -0.0868 -0.1437 -0.7559
  149SAPE  H14X16461   3.849   1.662   4.229  0.5060 -1.5977  0.0995
  149SAPE  H14Y16462   3.741   1.765   4.336  0.8517  0.0580 -0.8494
  149SAPE  C31516463   3.643   1.620   4.201 -0.2934 -0.0765  0.4229
  149SAPE  H15X16464   3.553   1.584   4.256 -0.2570 -1.9074 -0.6276
  149SAPE  H15Y16465   3.677   1.528   4.149  2.1334  1.5320 -1.0500
  149SAPE  C31616466   3.580   1.727   4.105  0.0352  0.6693 -0.2695
  149SAPE  H16X16467   3.668   1.785   4.069 -0.2307  0.3215 -1.5292
  149SAPE  H16Y16468   3.500   1.783   4.158 -1.4491  0.3085 -2.0114
  149SAPE  C31716469   3.516   1.661   3.983 -0.2158  0.8145 -0.5840
  149SAPE  H17X16470   3.420   1.617   4.015 -0.0750  0.9130 -0.0138
  149SAPE  H17Y16471   3.591   1.584   3.955  1.5454  2.2176  0.0623
  149SAPE  C31816472   3.497   1.741   3.861  0.0254 -0.1997  0.5013
  149SAPE  H18X16473   3.479   1.849   3.883  1.2486 -0.0855  1.0339
  149SAPE  H18Y16474   3.400   1.714   3.813 -1.5453  2.3079  2.0218
  149SAPE  H18Z16475   3.584   1.745   3.792 -0.1529  0.1622  0.2914
  150SAPE     N16476   0.802   6.595   6.290  0.7973  0.3503  0.1766
  150SAPE   HN116477   0.782   6.505   6.338 -0.2195  1.3802  1.8339
  150SAPE   HN216478   0.718   6.655   6.305 -0.2676 -0.9228 -0.5259
  150SAPE   HN316479   0.825   6.571   6.192 -0.1792 -3.0582  0.6423
  150SAPE   C1216480   0.921   6.646   6.363  0.2420  0.4919  0.4309
  150SAPE  H12A16481   0.898   6.633   6.471 -2.9493 -2.5188 -0.3896
  150SAPE  H12B16482   0.937   6.751   6.330  1.7368  1.1981  3.0903
  150SAPE   C1116483   1.056   6.572   6.321  0.4122 -0.0720  0.0753
  150SAPE  H11A16484   1.036   6.464   6.339  1.5751  0.0862  2.7875
  150SAPE  H11B16485   1.134   6.615   6.387  1.0870 -1.6904  0.3897
  150SAPE     P16486   1.203   6.686   6.134  0.0203  0.3369  0.1901
  150SAPE   O1316487   1.225   6.793   6.236  0.2024 -0.4301  0.2133
  150SAPE   O1416488   1.320   6.602   6.095 -0.0746  0.7133 -0.4812
  150SAPE   O1216489   1.091   6.583   6.179 -0.6072  0.6251  0.0970
  150SAPE   O1116490   1.138   6.753   6.008 -0.4730 -0.2732 -0.0833
  150SAPE    C116491   1.012   6.818   6.006 -0.8103 -0.0854 -0.1138
  150SAPE    HA16492   0.954   6.801   6.100  1.1742 -0.0791  1.1615
  150SAPE    HB16493   1.019   6.929   6.009 -2.5082  0.0418  0.9142
  150SAPE    C216494   0.936   6.784   5.878  0.0145 -0.8730 -0.1223
  150SAPE    HS16495   0.828   6.791   5.903  0.2923 -1.0467  1.1999
  150SAPE   O2116496   0.959   6.651   5.828 -0.2425 -0.0320 -0.0559
  150SAPE   C2116497   0.929   6.552   5.915 -0.3670  0.0368 -0.4857
  150SAPE   O2216498   0.853   6.566   6.008  0.0279  0.2885 -0.2683
  150SAPE   C2216499   1.002   6.431   5.867  0.4094 -0.0185  0.8062
  150SAPE   H2R16500   1.103   6.424   5.913  0.5505  1.8075  0.8445
  150SAPE   H2S16501   0.941   6.342   5.894 -3.5851  1.6521 -1.7947
  150SAPE    C316502   0.973   6.883   5.767 -0.3157  0.0016  0.6913
  150SAPE    HX16503   0.929   6.863   5.666  2.3363  0.7358 -0.7103
  150SAPE    HY16504   1.083   6.871   5.755 -0.2798  0.1394  0.8926
  150SAPE   O3116505   0.953   7.023   5.796 -0.4095 -0.0977  0.3461
  150SAPE   C3116506   0.828   7.068   5.775 -0.3958 -0.4987 -0.0555
  150SAPE   O3216507   0.734   7.000   5.748  0.0166 -0.0851  0.3367
  150SAPE   C3216508   0.818   7.224   5.793  0.7316 -0.3743 -0.5892
  150SAPE   H2X16509   0.916   7.277   5.796 -0.7502  2.5311  1.4009
  150SAPE   H2Y16510   0.765   7.238   5.889 -0.9533  2.0534 -1.7808
  150SAPE   C2316511   1.009   6.413   5.720  0.5454  1.0347 -0.5742
  150SAPE   H3R16512   1.068   6.491   5.667  0.5436 -0.3915 -2.8198
  150SAPE   H3S16513   0.908   6.420   5.675  1.1017  0.7578 -1.9070
  150SAPE   C2416514   1.071   6.277   5.674 -0.0885 -0.5907  0.0804
  150SAPE   H4R16515   1.163   6.272   5.735  0.1218 -0.1112 -0.1867
  150SAPE   H4S16516   1.103   6.295   5.569 -0.1679  0.4385  0.2235
  150SAPE   C2516517   0.980   6.157   5.678  0.6881 -0.3585 -0.0380
  150SAPE   H5R16518   0.994   6.103   5.772 -0.3542  0.4355  0.6027
  150SAPE   C2616519   0.900   6.099   5.585  0.3277  0.1533  0.9702
  150SAPE   H6R16520   0.842   6.014   5.622 -0.7663  0.6992  0.5559
  150SAPE   C2716521   0.875   6.156   5.445  0.6823  0.6922  0.1107
  150SAPE   H7R16522   0.965   6.150   5.379  0.4302  1.3555 -0.2991
  150SAPE   H7S16523   0.842   6.262   5.448  1.5314  0.9517  0.5841
  150SAPE   C2816524   0.766   6.063   5.383 -0.5207 -0.3798  0.1481
  150SAPE   H8R16525   0.734   5.970   5.432 -2.2036  0.3396  0.4985
  150SAPE   C2916526   0.707   6.092   5.267  0.6852 -0.8310 -0.0329
  150SAPE   H9R16527   0.631   6.028   5.220 -1.0383  1.5207 -0.6608
  150SAPE  C21016528   0.732   6.211   5.183  0.3964 -0.4041  0.6527
  150SAPE  H10R16529   0.817   6.189   5.114 -0.2711 -1.5905  0.1855
  150SAPE  H10S16530   0.774   6.293   5.245  0.2126 -0.0686  0.3385
  150SAPE  C21116531   0.608   6.242   5.098 -0.0124  0.3825 -0.6068
  150SAPE  H11R16532   0.515   6.261   5.154 -0.2915  0.6967 -1.1735
  150SAPE  C21216533   0.593   6.228   4.970 -0.7867  0.0553  0.1793
  150SAPE  H12R16534   0.497   6.257   4.926  0.2068  0.3575 -1.9083
  150SAPE  C21316535   0.707   6.178   4.876  0.7699  0.4551 -0.4408
  150SAPE  H13R16536   0.776   6.114   4.935 -0.5952 -0.5444  0.1043
  150SAPE  H13S16537   0.778   6.259   4.846  1.2577  0.3659  0.4219
  150SAPE  C21416538   0.657   6.099   4.763  0.5771 -0.2468 -0.5510
  150SAPE  H14R16539   0.620   6.165   4.683 -1.2091  0.1715  0.5595
  150SAPE  C21516540   0.635   5.970   4.754  0.0037  0.3857  1.2821
  150SAPE  H15R16541   0.615   5.924   4.656 -1.1534 -0.9099  2.1026
  150SAPE  C21616542   0.667   5.869   4.860 -0.0772 -0.2998  0.2845
  150SAPE  H16R16543   0.705   5.919   4.952 -0.2944  0.8905 -0.2529
  150SAPE  H16S16544   0.754   5.807   4.829 -0.0684 -1.0254  1.6966
  150SAPE  C21716545   0.547   5.777   4.895  0.6466  0.0055 -0.1388
  150SAPE  H17R16546   0.498   5.727   4.809 -1.1780  1.9528 -0.2997
  150SAPE  H17S16547   0.459   5.829   4.938  0.3175  0.5943 -1.4883
  150SAPE  C21816548   0.589   5.658   4.986  0.2469 -0.2370 -0.0470
  150SAPE  H18R16549   0.667   5.698   5.054  3.6948 -1.7173 -2.8289
  150SAPE  H18S16550   0.644   5.584   4.925  2.0787  0.9848  0.0395
  150SAPE  C21916551   0.472   5.595   5.066 -0.3955 -0.2397 -0.1627
  150SAPE  H19R16552   0.380   5.586   5.004 -1.2690  2.7793  0.5202
  150SAPE  H19S16553   0.435   5.672   5.138  0.7186  1.4768 -1.3463
  150SAPE  C22016554   0.490   5.464   5.144  0.6450 -0.3585 -0.4335
  150SAPE  H20R16555   0.502   5.376   5.077  1.6301 -1.4918  1.1634
  150SAPE  H20S16556   0.403   5.440   5.208  1.4837 -1.0788  0.4579
  150SAPE  H20T16557   0.583   5.463   5.204  0.7642  0.4769 -0.6004
  150SAPE   C3316558   0.715   7.293   5.693  0.2969  0.2423 -0.2828
  150SAPE   H3X16559   0.664   7.385   5.728 -1.1990 -0.9062  0.6524
  150SAPE   H3Y16560   0.629   7.222   5.693 -0.1545  0.7823 -0.6486
  150SAPE   C3416561   0.760   7.299   5.549 -0.5155 -0.0307 -0.0809
  150SAPE   H4X16562   0.769   7.190   5.526 -1.4837 -0.3517  0.9839
  150SAPE   H4Y16563   0.853   7.360   5.545 -1.1994  1.0995  0.6841
  150SAPE   C3516564   0.658   7.357   5.456  0.8360  0.5163  0.4240
  150SAPE   H5X16565   0.703   7.368   5.355  1.0888 -1.0948  0.3400
  150SAPE   H5Y16566   0.620   7.454   5.494 -1.4891 -1.3056  3.1771
  150SAPE   C3616567   0.517   7.282   5.449 -0.0706 -0.0726  0.8489
  150SAPE   H6X16568   0.456   7.340   5.377  0.2894 -0.6522  0.0584
  150SAPE   H6Y16569   0.469   7.272   5.549 -1.9336  0.4266  0.0338
  150SAPE   C3716570   0.511   7.135   5.397 -0.1319 -0.9704  0.4108
  150SAPE   H7X16571   0.405   7.104   5.385  0.1642 -2.3297  1.1186
  150SAPE   H7Y16572   0.549   7.067   5.476 -3.1336 -3.1672  0.1436
  150SAPE   C3816573   0.587   7.099   5.265  0.6009  0.0686 -0.6444
  150SAPE   H8X16574   0.695   7.111   5.287  0.0247 -0.8030  3.4859
  150SAPE   H8Y16575   0.557   7.185   5.201 -3.5809  0.5606  1.5693
  150SAPE   C3916576   0.555   6.964   5.196 -0.8082 -0.4737 -0.0636
  150SAPE   H9X16577   0.445   6.947   5.195 -0.5562 -2.5627  1.0804
  150SAPE   H9Y16578   0.581   6.871   5.251 -2.3161 -3.5500 -4.0482
  150SAPE  C31016579   0.629   6.952   5.061 -0.0028  0.2326 -0.6060
  150SAPE  H10X16580   0.739   6.952   5.072  0.0598  0.1520 -1.1872
  150SAPE  H10Y16581   0.600   7.036   4.994  0.9992 -0.2308 -1.6501
  150SAPE  C31116582   0.598   6.821   4.990 -0.1689  0.2596  0.3487
  150SAPE  H11X16583   0.493   6.793   5.014  0.2069  1.0957  3.3718
  150SAPE  H11Y16584   0.663   6.741   5.034  0.4436 -0.0663 -1.1073
  150SAPE  C31216585   0.620   6.816   4.841  0.3499  0.2651  0.2722
  150SAPE  H12X16586   0.529   6.850   4.786 -1.9697 -0.4322  3.4322
  150SAPE  H12Y16587   0.618   6.706   4.827 -1.8262  0.0358  1.9110
  150SAPE  C31316588   0.750   6.865   4.781 -0.1608 -0.0089 -0.0430
  150SAPE  H13X16589   0.771   6.973   4.792 -0.0523  0.1479 -1.5453
  150SAPE  H13Y16590   0.746   6.847   4.671  1.0328  0.6974 -0.2187
  150SAPE  C31416591   0.872   6.791   4.829  0.0406 -0.5414 -0.5268
  150SAPE  H14X16592   0.879   6.690   4.782 -0.3701  0.8996 -4.0252
  150SAPE  H14Y16593   0.888   6.784   4.938 -0.7398 -0.6110 -0.4129
  150SAPE  C31516594   1.002   6.860   4.780 -0.2369 -0.7622  1.1908
  150SAPE  H15X16595   1.091   6.804   4.816  1.7908 -0.1396 -2.3982
  150SAPE  H15Y16596   1.002   6.964   4.817 -0.3287  0.7687 -2.6351
  150SAPE  C31616597   1.021   6.876   4.627  0.5348  0.0666 -0.0995
  150SAPE  H16X16598   1.097   6.952   4.599  0.4160 -0.1388 -1.0047
  150SAPE  H16Y16599   0.927   6.907   4.577  2.2714  2.0739 -2.3934
  150SAPE  C31716600   1.056   6.738   4.560 -0.1563 -0.2234 -0.0111
  150SAPE  H17X16601   0.977   6.664   4.585  1.8237 -1.6939  2.4631
  150SAPE  H17Y16602   1.146   6.694   4.610 -0.1192 -0.2110 -0.0664
  150SAPE  C31816603   1.073   6.743   4.412 -1.0887 -0.3603 -0.6415
  150SAPE  H18X16604   1.081   6.638   4.378  3.6454 -0.3056 -0.3593
  150SAPE  H18Y16605   1.169   6.787   4.379 -0.4959 -0.8936  0.3298
  150SAPE  H18Z16606   0.984   6.793   4.367  0.6876  2.5628 -1.1359
  151SAPE     N16607   4.042   2.037   6.608  0.1439  0.3490  0.4136
  151SAPE   HN116608   3.990   1.955   6.570 -0.2497  0.7049  0.1766
  151SAPE   HN216609   3.978   2.108   6.650 -1.2026  0.3584 -1.5037
  151SAPE   HN316610   4.095   2.082   6.530  0.7279  1.9363  1.6597
  151SAPE   C1216611   4.135   1.981   6.717 -0.3133 -0.0718  0.0619
  151SAPE  H12A16612   4.192   1.895   6.676  0.0747  2.0699 -4.4329
  151SAPE  H12B16613   4.061   1.940   6.789  1.0667  0.1833  1.6869
  151SAPE   C1116614   4.228   2.084   6.779  0.3372  1.0386 -0.2683
  151SAPE  H11A16615   4.262   2.038   6.875 -0.3461 -0.4186 -0.6945
  151SAPE  H11B16616   4.168   2.174   6.805 -2.7850 -1.2299  1.0289
  151SAPE     P16617   4.479   2.054   6.707  0.1006 -0.3588 -0.1626
  151SAPE   O1316618   4.516   2.076   6.842 -0.2096 -0.1398  0.1457
  151SAPE   O1416619   4.482   1.911   6.665 -0.1197  0.1859 -0.3784
  151SAPE   O1216620   4.334   2.110   6.684  0.0812  0.5620  0.4297
  151SAPE   O1116621   4.578   2.129   6.607  0.9015 -0.0178  0.3280
  151SAPE    C116622   4.542   2.213   6.501 -0.1860  0.2423  0.5253
  151SAPE    HA16623   4.457   2.282   6.518  0.1647  1.0328 -0.8062
  151SAPE    HB16624   4.630   2.277   6.481  0.4982 -0.7866  0.1443
  151SAPE    C216625   4.513   2.123   6.369  0.2482  0.2376 -0.1233
  151SAPE    HS16626   4.419   2.066   6.388  0.0450  0.2243 -1.1341
  151SAPE   O2116627   4.625   2.037   6.340 -0.3770  0.0532  0.4668
  151SAPE   C2116628   4.588   1.923   6.276  0.3922 -0.9097  0.1819
  151SAPE   O2216629   4.476   1.874   6.298 -0.7471 -0.1592  0.2820
  151SAPE   C2216630   4.709   1.872   6.192 -0.3742  0.3424 -0.0762
  151SAPE   H2R16631   4.779   1.825   6.264  1.9092  2.3001 -0.9013
  151SAPE   H2S16632   4.672   1.803   6.113  0.2778  1.0454 -1.0149
  151SAPE    C316633   4.493   2.215   6.255  0.3010  0.6009 -0.3295
  151SAPE    HX16634   4.586   2.273   6.236  1.3051 -0.9422 -0.2385
  151SAPE    HY16635   4.408   2.284   6.277  0.9181  1.8327 -1.6159
  151SAPE   O3116636   4.449   2.139   6.142  0.1308 -0.0466  0.7603
  151SAPE   C3116637   4.417   2.201   6.037  0.7413  0.0039  0.0359
  151SAPE   O3216638   4.411   2.325   6.026 -0.0323  0.4409 -0.0602
  151SAPE   C3216639   4.412   2.106   5.913  0.6426 -0.5666 -0.0459
  151SAPE   H2X16640   4.303   2.108   5.893  0.9828  1.9857 -2.0836
  151SAPE   H2Y16641   4.448   2.005   5.944 -0.4669 -0.9944 -0.1043
  151SAPE   C2316642   4.800   1.982   6.120 -0.8729  0.5501 -0.5005
  151SAPE   H3R16643   4.855   2.022   6.207 -0.2829 -2.0049  0.3940
  151SAPE   H3S16644   4.743   2.065   6.074 -1.1705  0.9628  0.5915
  151SAPE   C2416645   4.888   1.924   6.005  0.7551  0.5736  0.0566
  151SAPE   H4R16646   4.960   2.004   5.975  0.1598  0.3637 -2.0694
  151SAPE   H4S16647   4.811   1.897   5.930 -0.3495 -0.2007  1.4320
  151SAPE   C2516648   4.973   1.805   6.025  0.6120 -0.3723 -0.2961
  151SAPE   H5R16649   5.030   1.797   6.118  0.0105 -0.0295  0.1082
  151SAPE   C2616650   4.991   1.708   5.930 -0.1948  0.1425 -0.3529
  151SAPE   H6R16651   5.052   1.620   5.954 -2.2020 -1.0055  0.9323
  151SAPE   C2716652   4.907   1.708   5.804 -0.2778 -0.3851  0.0801
  151SAPE   H7R16653   4.924   1.798   5.741  0.4461  0.6903  1.7408
  151SAPE   H7S16654   4.800   1.704   5.833 -0.2991 -2.1343 -0.1583
  151SAPE   C2816655   4.940   1.590   5.727  0.1642  0.8966  0.0417
  151SAPE   H8R16656   4.947   1.490   5.773  1.0688  1.5361  1.3576
  151SAPE   C2916657   4.959   1.581   5.594 -0.4529 -0.4115  0.5173
  151SAPE   H9R16658   4.988   1.485   5.548  2.8587 -0.2813  2.0184
  151SAPE  C21016659   4.955   1.697   5.491  0.0496  0.3819 -0.1037
  151SAPE  H10R16660   5.031   1.667   5.416  1.2336  1.6916  0.5249
  151SAPE  H10S16661   4.994   1.793   5.533 -1.2113 -0.1604  2.5316
  151SAPE  C21116662   4.816   1.720   5.420 -0.2846  0.6146  0.5033
  151SAPE  H11R16663   4.734   1.709   5.492 -1.6677 -1.5344 -1.2474
  151SAPE  C21216664   4.796   1.730   5.284 -0.2106 -0.1385 -0.3946
  151SAPE  H12R16665   4.695   1.743   5.243 -0.7142  3.4966  1.6499
  151SAPE  C21316666   4.912   1.722   5.190 -0.1403 -0.0087  0.0522
  151SAPE  H13R16667   4.966   1.627   5.213  0.3917 -0.0259 -1.1902
  151SAPE  H13S16668   4.987   1.801   5.208 -0.9762  0.5688  1.1317
  151SAPE  C21416669   4.878   1.723   5.042  0.4749 -0.0524  0.4777
  151SAPE  H14R16670   4.777   1.699   5.005  0.8546 -0.0245 -0.6110
  151SAPE  C21516671   4.962   1.749   4.932  1.0109  0.4265  0.1889
  151SAPE  H15R16672   4.916   1.755   4.832  0.9297 -0.2240  0.1808
  151SAPE  C21616673   5.114   1.784   4.934  0.1456 -0.3653  0.3391
  151SAPE  H16R16674   5.173   1.707   4.880 -3.2061 -1.5101 -2.0161
  151SAPE  H16S16675   5.141   1.779   5.042 -0.7355  0.9502  0.6498
  151SAPE  C21716676   5.134   1.918   4.853 -1.2782 -0.4550  0.8149
  151SAPE  H17R16677   5.243   1.934   4.863 -0.6943  0.4587 -4.2957
  151SAPE  H17S16678   5.086   2.002   4.907  0.8704  1.4252 -0.0718
  151SAPE  C21816679   5.095   1.922   4.707 -0.5302 -0.4209  0.3952
  151SAPE  H18R16680   4.987   1.897   4.692 -0.6372 -2.3330  3.5474
  151SAPE  H18S16681   5.152   1.849   4.645 -0.4804  0.4518 -0.6263
  151SAPE  C21916682   5.131   2.062   4.649  0.7443 -0.3365 -0.1252
  151SAPE  H19R16683   5.236   2.083   4.679  0.8901  1.5522 -1.7101
  151SAPE  H19S16684   5.072   2.134   4.710 -1.7219 -1.2946 -1.2539
  151SAPE  C22016685   5.108   2.076   4.496  0.4058 -0.1834 -0.7910
  151SAPE  H20R16686   5.166   2.000   4.440  0.0340 -0.9132 -0.2066
  151SAPE  H20S16687   5.113   2.184   4.468 -2.3799  0.4406  0.7116
  151SAPE  H20T16688   5.002   2.045   4.481  0.0749  0.7358 -0.4373
  151SAPE   C3316689   4.493   2.150   5.784 -0.5762  0.4328 -0.7586
  151SAPE   H3X16690   4.600   2.124   5.794 -1.1217 -1.8786 -0.3032
  151SAPE   H3Y16691   4.490   2.260   5.767 -0.1021  0.9292  1.9034
  151SAPE   C3416692   4.435   2.087   5.648 -0.2277  0.6357  0.4850
  151SAPE   H4X16693   4.325   2.099   5.643 -0.3039  0.8691  2.1778
  151SAPE   H4Y16694   4.462   1.979   5.641 -0.5947  0.4580  1.6517
  151SAPE   C3516695   4.489   2.158   5.521  0.0314 -0.2889 -0.2174
  151SAPE   H5X16696   4.600   2.149   5.514 -0.0136 -1.0258 -0.1291
  151SAPE   H5Y16697   4.472   2.267   5.527 -1.4335 -0.5500  1.0398
  151SAPE   C3616698   4.420   2.106   5.398 -0.3202  0.4783  0.1283
  151SAPE   H6X16699   4.455   2.179   5.321  0.1685  1.6890  1.4590
  151SAPE   H6Y16700   4.313   2.124   5.425 -0.8107 -2.3039  0.3618
  151SAPE   C3716701   4.440   1.959   5.352  0.1275 -0.4888  0.4573
  151SAPE   H7X16702   4.411   1.897   5.440 -0.8628 -2.2449 -1.0552
  151SAPE   H7Y16703   4.548   1.942   5.333 -0.4545 -2.1797 -1.6921
  151SAPE   C3816704   4.354   1.920   5.233  0.3704 -0.5852 -0.1504
  151SAPE   H8X16705   4.366   2.007   5.166  1.0315  0.4668  1.2959
  151SAPE   H8Y16706   4.245   1.917   5.255  0.8286 -4.0807  2.4964
  151SAPE   C3916707   4.395   1.790   5.174 -0.0947  0.3228  0.0330
  151SAPE   H9X16708   4.353   1.700   5.225  1.5845 -0.1766  0.6012
  151SAPE   H9Y16709   4.506   1.779   5.174 -0.2504 -1.5966  0.4475
  151SAPE  C31016710   4.348   1.772   5.031 -0.7783  0.2403 -0.1845
  151SAPE  H10X16711   4.403   1.852   4.976 -0.6078  0.1532 -0.1422
  151SAPE  H10Y16712   4.239   1.785   5.016 -1.0754  0.0564  1.5985
  151SAPE  C31116713   4.378   1.638   4.961  0.2839 -0.1375 -0.2786
  151SAPE  H11X16714   4.322   1.554   5.007  0.0696 -0.3130 -0.8534
  151SAPE  H11Y16715   4.485   1.622   4.984 -0.1481 -0.7025  1.4988
  151SAPE  C31216716   4.351   1.638   4.818 -0.3682  0.0021 -0.3026
  151SAPE  H12X16717   4.415   1.716   4.771 -0.7776 -0.0174 -0.9161
  151SAPE  H12Y16718   4.248   1.667   4.786 -0.6062 -0.3523  0.1315
  151SAPE  C31316719   4.389   1.507   4.739 -0.0609  0.1749  0.8031
  151SAPE  H13X16720   4.343   1.420   4.790 -1.1780 -0.5883 -1.3752
  151SAPE  H13Y16721   4.500   1.510   4.741  0.0114  1.2340 -1.7080
  151SAPE  C31416722   4.347   1.504   4.585  0.0700  0.2238  0.3057
  151SAPE  H14X16723   4.397   1.422   4.531 -2.5286 -0.2961 -1.5189
  151SAPE  H14Y16724   4.388   1.596   4.537  1.3604 -0.0273  0.8848
  151SAPE  C31516725   4.205   1.462   4.556  0.1024 -0.0425 -0.7558
  151SAPE  H15X16726   4.137   1.545   4.584  1.4052  0.9946 -0.6079
  151SAPE  H15Y16727   4.170   1.377   4.618  1.5279 -2.2609 -2.8082
  151SAPE  C31616728   4.179   1.420   4.418 -0.2953  0.3880 -0.4705
  151SAPE  H16X16729   4.069   1.413   4.406 -0.7545  1.1779  2.4898
  151SAPE  H16Y16730   4.212   1.314   4.406  1.5487  0.7629  0.9220
  151SAPE  C31716731   4.235   1.495   4.303  0.9631 -0.4833  0.1369
  151SAPE  H17X16732   4.344   1.474   4.289  1.2204 -0.1445  1.4207
  151SAPE  H17Y16733   4.209   1.600   4.327  2.7001  0.2142 -0.8349
  151SAPE  C31816734   4.167   1.467   4.172 -0.6417  0.4445  0.3636
  151SAPE  H18X16735   4.057   1.458   4.175 -0.5855 -0.7870 -0.4604
  151SAPE  H18Y16736   4.220   1.384   4.120  1.2357  3.1647 -2.3955
  151SAPE  H18Z16737   4.191   1.549   4.102 -3.4586  1.3971  0.3940
  152SAPE     N16738   2.094   0.378   6.327  0.5182  0.2448 -0.1091
  152SAPE   HN116739   2.078   0.299   6.393  0.3112 -0.8499 -1.4125
  152SAPE   HN216740   2.006   0.398   6.275 -0.0651 -1.2793  0.2229
  152SAPE   HN316741   2.171   0.349   6.263 -0.4972  0.6633 -1.5527
  152SAPE   C1216742   2.137   0.489   6.421  0.4063 -0.3934  0.2113
  152SAPE  H12A16743   2.242   0.464   6.445  0.6594 -0.4849 -0.9263
  152SAPE  H12B16744   2.076   0.478   6.513  0.3128  1.0149  0.3314
  152SAPE   C1116745   2.148   0.627   6.360 -0.0509 -0.1301  0.5425
  152SAPE  H11A16746   2.058   0.641   6.297  0.6345  1.3927 -0.1474
  152SAPE  H11B16747   2.231   0.633   6.287 -0.3724  1.3672  0.2503
  152SAPE     P16748   2.032   0.810   6.521  0.2277 -0.5035 -0.0625
  152SAPE   O1316749   1.917   0.714   6.541  0.5481  0.2410 -0.0137
  152SAPE   O1416750   2.072   0.876   6.646 -0.3957 -0.3691 -0.2570
  152SAPE   O1216751   2.153   0.728   6.462 -0.1466  0.3229  0.0655
  152SAPE   O1116752   1.998   0.911   6.407  0.1508  0.8784 -0.0634
  152SAPE    C116753   1.861   0.920   6.353  0.0614  0.0586 -0.1052
  152SAPE    HA16754   1.821   0.822   6.319 -2.6671  0.8612  0.5345
  152SAPE    HB16755   1.797   0.957   6.435 -0.7885  0.9242 -1.1263
  152SAPE    C216756   1.838   1.026   6.243 -0.4430  0.0453 -0.4004
  152SAPE    HS16757   1.731   1.025   6.215 -0.1440 -0.6027 -1.5899
  152SAPE   O2116758   1.907   0.988   6.128 -0.5520 -0.8227  0.0195
  152SAPE   C2116759   1.883   0.868   6.079 -0.4838 -0.4042  0.1383
  152SAPE   O2216760   1.779   0.806   6.085  0.2339 -0.2692  0.0325
  152SAPE   C2216761   1.997   0.803   6.006 -0.3425  0.2772 -0.0395
  152SAPE   H2R16762   2.079   0.768   6.071 -0.9942 -0.5439  0.3488
  152SAPE   H2S16763   1.952   0.714   5.957  0.1359 -0.8362  1.4762
  152SAPE    C316764   1.892   1.164   6.289  0.0082 -0.3431 -0.5615
  152SAPE    HX16765   1.983   1.158   6.351 -0.2584  0.1090 -0.1177
  152SAPE    HY16766   1.822   1.189   6.372 -0.7266 -2.9748 -0.3122
  152SAPE   O3116767   1.894   1.263   6.188  0.0125 -0.5880  0.0119
  152SAPE   C3116768   2.010   1.278   6.123 -0.7434 -0.4069 -0.2099
  152SAPE   O3216769   2.110   1.217   6.141 -0.4656 -0.0472  0.5679
  152SAPE   C3216770   1.981   1.392   6.021  0.2685  0.2351 -0.1383
  152SAPE   H2X16771   2.073   1.435   5.977 -0.9472  2.0345 -1.0440
  152SAPE   H2Y16772   1.949   1.477   6.085  0.2028 -0.0128  0.1619
  152SAPE   C2316773   2.054   0.907   5.904 -0.3422 -0.4566  0.7523
  152SAPE   H3R16774   2.128   0.851   5.843 -0.5157  0.8638 -0.7396
  152SAPE   H3S16775   2.100   0.984   5.969  1.0092 -0.4112 -0.2276
  152SAPE   C2416776   1.957   0.984   5.805  0.1811 -0.0012  0.0751
  152SAPE   H4R16777   2.017   1.056   5.746 -0.1711 -0.4268 -0.8258
  152SAPE   H4S16778   1.877   1.044   5.854  1.3340  2.3736 -0.8296
  152SAPE   C2516779   1.893   0.895   5.703 -0.6574  1.0109  0.3302
  152SAPE   H5R16780   1.840   0.804   5.734  1.3609 -0.0413  0.7867
  152SAPE   C2616781   1.897   0.898   5.567  0.2372  0.1839  0.0452
  152SAPE   H6R16782   1.837   0.821   5.516 -0.6086  0.7195  0.2112
  152SAPE   C2716783   1.972   0.987   5.475 -0.4268 -0.2832 -0.1491
  152SAPE   H7R16784   1.989   1.085   5.525 -2.0967  0.6637 -1.3233
  152SAPE   H7S16785   1.900   1.011   5.394  0.9373 -1.9344 -1.9323
  152SAPE   C2816786   2.096   0.925   5.418 -0.3225 -0.3471  0.7483
  152SAPE   H8R16787   2.177   0.897   5.487  0.0167 -0.4750  0.3048
  152SAPE   C2916788   2.113   0.891   5.296  0.0274 -0.4076 -0.0084
  152SAPE   H9R16789   2.212   0.853   5.268 -0.4877 -0.3262 -2.1459
  152SAPE  C21016790   2.016   0.894   5.180 -0.0839 -0.0400  0.8014
  152SAPE  H10R16791   1.919   0.946   5.192  0.7504  1.7558  0.2607
  152SAPE  H10S16792   1.982   0.793   5.149  0.1632  0.7274 -2.2148
  152SAPE  C21116793   2.083   0.958   5.058  0.4202 -0.3985 -0.4743
  152SAPE  H11R16794   2.077   1.068   5.056  0.7233 -0.3818 -0.5356
  152SAPE  C21216795   2.151   0.896   4.955  0.2505 -0.5890  0.3120
  152SAPE  H12R16796   2.187   0.956   4.870 -0.0262 -0.7822  0.0513
  152SAPE  C21316797   2.170   0.746   4.950  0.6608 -0.5830  0.2715
  152SAPE  H13R16798   2.109   0.709   4.864 -0.2922  2.5775 -0.5562
  152SAPE  H13S16799   2.123   0.698   5.039 -2.3675 -0.4064 -1.0971
  152SAPE  C21416800   2.315   0.707   4.934  0.1340 -0.5979 -0.6559
  152SAPE  H14R16801   2.382   0.760   5.004 -2.2058  0.5735  0.8086
  152SAPE  C21516802   2.360   0.640   4.827 -0.2927 -0.2608  0.4109
  152SAPE  H15R16803   2.465   0.606   4.818 -0.5450 -0.8462 -0.4229
  152SAPE  C21616804   2.284   0.585   4.710 -0.6343 -0.3561  0.3259
  152SAPE  H16R16805   2.179   0.623   4.715 -0.2193  0.6802  2.1005
  152SAPE  H16S16806   2.296   0.475   4.704 -0.0735 -0.2994  0.3394
  152SAPE  C21716807   2.333   0.628   4.560 -0.2987  0.0301 -0.3843
  152SAPE  H17R16808   2.295   0.553   4.487 -0.9273  1.3628 -1.4791
  152SAPE  H17S16809   2.444   0.623   4.559 -0.1894  1.2243  1.6591
  152SAPE  C21816810   2.268   0.757   4.514 -0.5163  0.1849  0.0617
  152SAPE  H18R16811   2.279   0.826   4.601  0.9715 -0.5016  0.4489
  152SAPE  H18S16812   2.163   0.728   4.492 -0.0475 -0.5479 -1.3075
  152SAPE  C21916813   2.352   0.812   4.395  0.4732  0.3917 -0.0376
  152SAPE  H19R16814   2.336   0.753   4.303  0.5937 -0.1047  0.2571
  152SAPE  H19S16815   2.462   0.799   4.409  0.2392 -2.3577 -0.3194
  152SAPE  C22016816   2.313   0.955   4.353  0.9231  0.0152 -0.3951
  152SAPE  H20R16817   2.312   1.017   4.445  0.4831 -0.5985  0.0211
  152SAPE  H20S16818   2.215   0.968   4.301  0.3758  0.1021  0.6202
  152SAPE  H20T16819   2.392   0.992   4.284  0.5655  0.6458 -0.4822
  152SAPE   C3316820   1.868   1.369   5.917 -0.9715 -0.6527 -0.1932
  152SAPE   H3X16821   1.777   1.319   5.959 -0.3758 -1.4901  0.1183
  152SAPE   H3Y16822   1.886   1.303   5.830  0.0644  2.1516 -2.2538
  152SAPE   C3416823   1.827   1.505   5.862 -0.3888  0.5430  0.1284
  152SAPE   H4X16824   1.841   1.585   5.939  1.6227  1.3244 -0.9715
  152SAPE   H4Y16825   1.719   1.504   5.838 -1.3788  1.1030  3.8125
  152SAPE   C3516826   1.909   1.539   5.730  0.4662 -0.2187 -0.2253
  152SAPE   H5X16827   1.860   1.467   5.661  1.8524 -1.4918  0.0638
  152SAPE   H5Y16828   2.016   1.523   5.753  0.1959 -0.2153  1.1365
  152SAPE   C3616829   1.899   1.690   5.684  0.0290  0.2060  0.1217
  152SAPE   H6X16830   1.914   1.757   5.771 -1.4219  0.1381  0.4465
  152SAPE   H6Y16831   1.794   1.707   5.654 -0.1980  1.5105  1.5802
  152SAPE   C3716832   2.004   1.727   5.577  1.2678  0.1010 -1.0757
  152SAPE   H7X16833   2.085   1.652   5.590  0.4443 -0.3484  2.8194
  152SAPE   H7Y16834   2.036   1.833   5.578  2.2944 -0.1360  2.3098
  152SAPE   C3816835   1.953   1.701   5.431 -0.2672  0.0170 -0.6714
  152SAPE   H8X16836   1.910   1.599   5.423 -1.3439  0.2872  1.2298
  152SAPE   H8Y16837   2.047   1.708   5.371 -0.2595  1.0742 -0.5594
  152SAPE   C3916838   1.860   1.808   5.373 -0.6667  0.3117 -0.2099
  152SAPE   H9X16839   1.915   1.903   5.354  1.4930 -0.5544  1.1973
  152SAPE   H9Y16840   1.795   1.833   5.460  1.9519 -1.0901  2.3491
  152SAPE  C31016841   1.795   1.769   5.243  0.8556 -0.1870  0.3923
  152SAPE  H10X16842   1.717   1.847   5.227  3.6789  2.8804  0.5062
  152SAPE  H10Y16843   1.751   1.667   5.247  0.4235 -0.1312 -1.7079
  152SAPE  C31116844   1.872   1.754   5.106  0.3023  0.9067  0.7535
  152SAPE  H11X16845   1.800   1.701   5.041  2.4076  1.2898 -2.0823
  152SAPE  H11Y16846   1.962   1.690   5.118 -0.7008 -0.8151 -0.4679
  152SAPE  C31216847   1.915   1.885   5.038  0.0520  0.0177  0.0594
  152SAPE  H12X16848   2.007   1.920   5.090  1.1869 -1.7602 -0.6416
  152SAPE  H12Y16849   1.830   1.955   5.049 -1.5548 -1.0627 -3.6954
  152SAPE  C31316850   1.937   1.879   4.884  0.0147 -0.1459  0.2240
  152SAPE  H13X16851   2.009   1.798   4.862 -0.1973 -0.4845  0.7648
  152SAPE  H13Y16852   1.987   1.973   4.850  0.3362 -0.8378 -1.3012
  152SAPE  C31416853   1.812   1.848   4.799 -0.5912  0.2820 -0.3696
  152SAPE  H14X16854   1.733   1.910   4.847 -0.1444  0.2283  0.4502
  152SAPE  H14Y16855   1.779   1.744   4.821 -0.1935 -0.6602 -3.6785
  152SAPE  C31516856   1.835   1.868   4.650 -0.3409  0.3042 -0.2926
  152SAPE  H15X16857   1.916   1.801   4.616  0.0414  0.4532  0.3049
  152SAPE  H15Y16858   1.877   1.969   4.629  0.0525 -0.0162 -1.0911
  152SAPE  C31616859   1.717   1.831   4.560  0.1677 -0.0318 -0.0890
  152SAPE  H16X16860   1.689   1.724   4.570  2.6536 -0.5789  1.7283
  152SAPE  H16Y16861   1.756   1.843   4.456 -0.0194 -2.4961 -0.5159
  152SAPE  C31716862   1.599   1.914   4.571 -0.3382 -0.7330 -0.9711
  152SAPE  H17X16863   1.627   2.020   4.555 -0.8349 -0.1916  1.3775
  152SAPE  H17Y16864   1.566   1.914   4.678  0.6577  0.3201 -0.6466
  152SAPE  C31816865   1.485   1.871   4.480  0.4617  0.3451 -0.2947
  152SAPE  H18X16866   1.401   1.935   4.515  1.3530  0.8224  1.0401
  152SAPE  H18Y16867   1.474   1.762   4.503 -2.5966  0.3191 -1.4250
  152SAPE  H18Z16868   1.493   1.878   4.369 -0.1087 -1.6860 -0.5090
  153SAPE     N16869   0.873   5.729   6.565  0.2308  0.3638  0.8203
  153SAPE   HN116870   0.821   5.659   6.508  1.3084  0.8705 -0.8471
  153SAPE   HN216871   0.935   5.684   6.635  0.3238 -1.4680 -0.3501
  153SAPE   HN316872   0.796   5.787   6.603  0.0136  0.5005  0.1797
  153SAPE   C1216873   0.947   5.808   6.462 -0.1947 -0.3420 -0.0716
  153SAPE  H12A16874   1.000   5.739   6.394  0.3148  1.4155 -1.5324
  153SAPE  H12B16875   1.022   5.875   6.511 -0.7782  0.5393 -0.3500
  153SAPE   C1116876   0.847   5.891   6.380  0.4197  0.0044 -0.3025
  153SAPE  H11A16877   0.895   5.976   6.327  1.7372 -1.2305 -1.1230
  153SAPE  H11B16878   0.776   5.946   6.446  1.9588  2.1270 -0.2992
  153SAPE     P16879   0.668   5.712   6.296 -0.3571  0.6796  0.2581
  153SAPE   O1316880   0.625   5.650   6.170 -0.5861  0.6473 -0.1262
  153SAPE   O1416881   0.701   5.613   6.401 -0.8634 -0.1004 -0.6615
  153SAPE   O1216882   0.795   5.807   6.276  0.1529 -0.0497  0.0689
  153SAPE   O1116883   0.543   5.801   6.345 -0.0562  0.3710  0.5712
  153SAPE    C116884   0.505   5.926   6.281 -0.1768  0.5080  0.1180
  153SAPE    HA16885   0.495   6.006   6.357 -1.8637  1.2705 -0.8533
  153SAPE    HB16886   0.584   5.962   6.211 -1.6878  4.2101  0.0962
  153SAPE    C216887   0.370   5.930   6.207 -0.3205 -0.0500  0.4889
  153SAPE    HS16888   0.291   5.880   6.267  0.0146 -1.1626  0.0366
  153SAPE   O2116889   0.394   5.871   6.075 -0.3317 -0.4011 -0.4082
  153SAPE   C2116890   0.331   5.753   6.061 -0.6381  0.4782 -0.8515
  153SAPE   O2216891   0.239   5.717   6.125  0.5157  0.7929  0.5387
  153SAPE   C2216892   0.389   5.693   5.934  0.2848  0.3679 -0.5410
  153SAPE   H2R16893   0.398   5.766   5.850 -0.6300  0.5075 -0.5286
  153SAPE   H2S16894   0.497   5.674   5.953  0.1962 -0.5609 -0.9416
  153SAPE    C316895   0.310   6.075   6.196 -0.5097 -0.1194 -0.8669
  153SAPE    HX16896   0.383   6.126   6.130  0.4575  0.6377  0.7314
  153SAPE    HY16897   0.299   6.128   6.293  0.2673  1.7570 -1.7588
  153SAPE   O3116898   0.177   6.063   6.144 -0.1263 -0.1390  0.4632
  153SAPE   C3116899   0.152   6.162   6.057  0.9128  0.1432 -0.7458
  153SAPE   O3216900   0.222   6.256   6.029 -0.3763  0.4378 -0.0360
  153SAPE   C3216901   0.008   6.143   5.999 -0.2994  0.2331  0.1820
  153SAPE   H2X16902  -0.062   6.189   6.072  0.1029  1.5844 -0.2411
  153SAPE   H2Y16903  -0.017   6.035   5.993 -1.6788  0.5439 -0.1024
  153SAPE   C2316904   0.301   5.570   5.878  0.0047 -1.0209  0.1178
  153SAPE   H3R16905   0.195   5.602   5.875  0.4197  0.6576  1.5629
  153SAPE   H3S16906   0.307   5.492   5.956  1.5233 -2.4320 -1.3156
  153SAPE   C2416907   0.365   5.508   5.749  0.1656 -0.1899  0.3027
  153SAPE   H4R16908   0.387   5.602   5.694  1.8449 -0.3988  0.5579
  153SAPE   H4S16909   0.285   5.452   5.696  1.6204 -2.0437 -0.0657
  153SAPE   C2516910   0.493   5.423   5.771  0.0998  0.6175  0.4236
  153SAPE   H5R16911   0.490   5.363   5.863  1.2064 -1.3860 -0.7808
  153SAPE   C2616912   0.608   5.449   5.712 -0.0921  0.0141 -0.8151
  153SAPE   H6R16913   0.689   5.381   5.741 -1.3841 -1.0511  0.4322
  153SAPE   C2716914   0.642   5.543   5.596 -0.2039  0.7263 -0.2003
  153SAPE   H7R16915   0.546   5.588   5.564 -0.5038  1.2275  1.3302
  153SAPE   H7S16916   0.681   5.470   5.521 -2.1026 -1.7879  1.0800
  153SAPE   C2816917   0.738   5.657   5.622  0.9183  0.6188  0.1213
  153SAPE   H8R16918   0.724   5.707   5.719  0.7471 -0.5936  0.7437
  153SAPE   C2916919   0.815   5.710   5.522  0.6418 -0.2842  0.0543
  153SAPE   H9R16920   0.862   5.806   5.547  1.3169 -0.6720  0.2894
  153SAPE  C21016921   0.824   5.655   5.384 -0.4766 -0.3861 -0.4390
  153SAPE  H10R16922   0.766   5.726   5.321 -0.6077 -1.0698 -1.1012
  153SAPE  H10S16923   0.769   5.560   5.365  1.2776 -1.6136  0.4325
  153SAPE  C21116924   0.960   5.648   5.325  1.1443 -0.5851 -0.2288
  153SAPE  H11R16925   1.024   5.724   5.372 -3.6553  4.3519 -0.7327
  153SAPE  C21216926   1.002   5.564   5.226  0.1383 -0.3982  0.1468
  153SAPE  H12R16927   1.109   5.574   5.205 -0.2208  1.6379 -0.9608
  153SAPE  C21316928   0.920   5.464   5.153  0.7533  1.3706  0.0412
  153SAPE  H13R16929   0.863   5.515   5.072  1.4620 -0.8382 -1.9544
  153SAPE  H13S16930   0.850   5.405   5.217  1.7463  0.1795  0.0738
  153SAPE  C21416931   0.996   5.350   5.092  0.8199 -0.4402  0.3087
  153SAPE  H14R16932   1.070   5.301   5.157  0.4946 -0.6620  0.5160
  153SAPE  C21516933   0.974   5.297   4.974 -0.6482  0.6382 -0.2239
  153SAPE  H15R16934   1.040   5.214   4.945 -1.5434  0.0844 -0.6857
  153SAPE  C21616935   0.873   5.346   4.866 -0.4486 -0.4296 -0.0500
  153SAPE  H16R16936   0.819   5.441   4.886 -1.3716 -0.6379 -1.4270
  153SAPE  H16S16937   0.791   5.276   4.841 -0.5943 -0.8674  1.5490
  153SAPE  C21716938   0.957   5.385   4.740  0.5305  0.1162 -0.5471
  153SAPE  H17R16939   1.003   5.301   4.683  1.0726  1.2129 -1.7583
  153SAPE  H17S16940   1.033   5.454   4.782 -1.3381  0.4113  2.7246
  153SAPE  C21816941   0.864   5.458   4.647 -0.2992 -0.4693 -0.1051
  153SAPE  H18R16942   0.804   5.538   4.696 -1.8335 -1.6211 -0.0483
  153SAPE  H18S16943   0.791   5.384   4.607 -1.4266  0.9248 -0.7342
  153SAPE  C21916944   0.936   5.539   4.538 -0.4243 -1.3624  0.1449
  153SAPE  H19R16945   1.026   5.591   4.579  1.2918  0.0676 -4.7349
  153SAPE  H19S16946   0.863   5.616   4.504 -1.0928 -1.7278  0.7219
  153SAPE  C22016947   0.974   5.451   4.419 -0.6848  0.4562  0.4582
  153SAPE  H20R16948   1.013   5.355   4.458 -1.7465  0.2853  1.1268
  153SAPE  H20S16949   1.054   5.501   4.360  0.2559 -0.7750  0.6533
  153SAPE  H20T16950   0.883   5.443   4.356  0.4133 -1.6606 -0.9666
  153SAPE   C3316951   0.010   6.207   5.856 -0.0819 -0.0912  0.7272
  153SAPE   H3X16952   0.024   6.317   5.862 -1.6670  0.2179 -0.4842
  153SAPE   H3Y16953  -0.099   6.205   5.835 -0.1857  1.0841  1.0896
  153SAPE   C3416954   0.095   6.138   5.742  0.4032 -0.6251 -0.0889
  153SAPE   H4X16955   0.086   6.027   5.739 -2.2688 -0.5470  1.6671
  153SAPE   H4Y16956   0.200   6.162   5.767  0.3847 -0.3387 -0.2817
  153SAPE   C3516957   0.070   6.194   5.603  0.5180 -0.1182  0.6473
  153SAPE   H5X16958   0.164   6.186   5.544  0.1523  0.5922 -0.0438
  153SAPE   H5Y16959   0.060   6.303   5.615 -1.1543 -0.3093  1.2221
  153SAPE   C3616960  -0.041   6.126   5.529  0.1007 -0.0414  0.9830
  153SAPE   H6X16961  -0.134   6.134   5.589  0.2236 -1.5651  1.4049
  153SAPE   H6Y16962  -0.024   6.017   5.528 -1.6719 -0.3446  0.5319
  153SAPE   C3716963  -0.080   6.198   5.398 -0.0151 -1.0775  0.8737
  153SAPE   H7X16964  -0.005   6.186   5.317 -0.8617  1.4178 -0.3893
  153SAPE   H7Y16965  -0.085   6.307   5.416  2.8836 -0.7967  0.4268
  153SAPE   C3816966  -0.214   6.169   5.334 -0.4568  0.1253  0.2872
  153SAPE   H8X16967  -0.251   6.259   5.280  1.0496 -0.2776 -1.5120
  153SAPE   H8Y16968  -0.293   6.154   5.410 -1.4324 -0.3167 -0.7742
  153SAPE   C3916969  -0.206   6.051   5.232  0.2460  0.0669  0.6497
  153SAPE   H9X16970  -0.186   5.956   5.285 -2.7945 -2.0627 -1.6371
  153SAPE   H9Y16971  -0.122   6.070   5.161 -2.0220  1.0117 -1.9870
  153SAPE  C31016972  -0.338   6.022   5.160  0.2180  0.5382  0.1900
  153SAPE  H10X16973  -0.381   6.110   5.109  0.3197 -0.2955 -1.3993
  153SAPE  H10Y16974  -0.418   5.981   5.226  0.5834 -3.0727 -1.3380
  153SAPE  C31116975  -0.330   5.913   5.051  0.0278 -0.3388  0.2163
  153SAPE  H11X16976  -0.429   5.891   5.007 -0.1770 -0.7962  0.8949
  153SAPE  H11Y16977  -0.292   5.818   5.094 -0.3960 -1.7383 -2.3074
  153SAPE  C31216978  -0.234   5.945   4.934  0.0923 -0.3368  0.1027
  153SAPE  H12X16979  -0.164   5.859   4.935  1.8230  1.0224  0.4079
  153SAPE  H12Y16980  -0.180   6.040   4.954 -0.2295  0.3107 -1.9179
  153SAPE  C31316981  -0.294   5.956   4.795  0.4284 -0.3996 -0.7538
  153SAPE  H13X16982  -0.389   6.014   4.792  0.2448 -0.7313 -3.1022
  153SAPE  H13Y16983  -0.320   5.858   4.748 -0.3336  0.6667 -2.6515
  153SAPE  C31416984  -0.185   6.007   4.699 -0.1097 -0.4323 -0.1463
  153SAPE  H14X16985  -0.086   5.961   4.722  0.0808  0.3184  0.5696
  153SAPE  H14Y16986  -0.178   6.117   4.716 -1.2447 -0.1982 -1.0247
  153SAPE  C31516987  -0.201   5.983   4.549  0.3849  0.4160 -0.1338
  153SAPE  H15X16988  -0.146   6.055   4.486  0.7539  0.7976  0.6115
  153SAPE  H15Y16989  -0.301   6.000   4.504  0.0885  1.4198  0.8455
  153SAPE  C31616990  -0.163   5.839   4.510  0.1451  0.0978 -0.3584
  153SAPE  H16X16991  -0.214   5.767   4.576 -0.2459  0.2683 -0.4708
  153SAPE  H16Y16992  -0.054   5.820   4.521  0.8017  1.6129 -3.1309
  153SAPE  C31716993  -0.200   5.788   4.373 -0.0505  0.5638 -0.3460
  153SAPE  H17X16994  -0.147   5.848   4.297  0.3421 -0.0420 -0.5573
  153SAPE  H17Y16995  -0.310   5.802   4.366 -0.1271  0.2461  0.1348
  153SAPE  C31816996  -0.165   5.641   4.354 -0.5052 -0.5297 -0.0602
  153SAPE  H18X16997  -0.181   5.590   4.452  0.4943  2.4408  1.8008
  153SAPE  H18Y16998  -0.058   5.631   4.327 -0.3020  1.2220 -0.0283
  153SAPE  H18Z16999  -0.224   5.594   4.272 -0.0760  1.2416 -1.4360
  154SAPE     N17000   5.611   0.889   6.431 -0.0224  0.0307 -0.5075
  154SAPE   HN117001   5.649   0.945   6.510  1.7354 -0.7589 -0.7571
  154SAPE   HN217002   5.515   0.861   6.461 -0.2043  1.1057 -0.0420
  154SAPE   HN317003   5.663   0.801   6.413 -0.9499 -0.3871 -1.2417
  154SAPE   C1217004   5.623   0.962   6.298  0.7010 -0.6936 -0.3185
  154SAPE  H12A17005   5.601   1.070   6.312  2.1465 -0.5128  0.8225
  154SAPE  H12B17006   5.549   0.909   6.233  1.4577 -2.5872  0.2993
  154SAPE   C1117007   5.759   0.954   6.227  0.0130 -0.1900  0.6618
  154SAPE  H11A17008   5.765   0.993   6.123 -0.3188  0.2844  0.8199
  154SAPE  H11B17009   5.788   0.847   6.214  2.6912  0.6220 -0.9553
  154SAPE     P17010   5.903   1.163   6.275  0.2139 -0.4286  0.3363
  154SAPE   O1317011   5.797   1.233   6.203  0.0636 -0.5604 -0.5174
  154SAPE   O1417012   5.954   1.224   6.403 -0.2479 -0.0939  0.0744
  154SAPE   O1217013   5.861   1.010   6.302 -0.7644 -0.6973 -0.0854
  154SAPE   O1117014   6.033   1.164   6.180  0.2326 -0.2365 -0.5033
  154SAPE    C117015   6.094   1.051   6.128  0.1483 -1.0192  0.0715
  154SAPE    HA17016   6.204   1.063   6.122  0.0693 -1.0297 -3.1545
  154SAPE    HB17017   6.076   0.961   6.189  0.3608 -0.7741  0.5018
  154SAPE    C217018   6.042   1.030   5.979 -0.1085  0.5094 -0.3230
  154SAPE    HS17019   5.931   1.034   5.981 -0.2036 -0.4212 -1.9455
  154SAPE   O2117020   6.090   0.906   5.915 -0.3698 -0.2642  0.4628
  154SAPE   C2117021   6.038   0.791   5.962  0.5612  0.3913 -0.3845
  154SAPE   O2217022   5.948   0.791   6.046 -0.3380  0.4743 -0.5001
  154SAPE   C2217023   6.108   0.676   5.891  0.7115 -0.4843 -0.5362
  154SAPE   H2R17024   6.211   0.703   5.861  0.6976 -0.9707 -1.0408
  154SAPE   H2S17025   6.115   0.595   5.968 -0.8340 -0.5513 -0.4350
  154SAPE    C317026   6.085   1.148   5.893 -0.9478  0.3190 -0.0141
  154SAPE    HX17027   6.195   1.134   5.897 -0.9743 -0.2503 -0.8521
  154SAPE    HY17028   6.067   1.247   5.940  0.3098  0.0248  1.1148
  154SAPE   O3117029   6.045   1.132   5.756 -1.1221  0.0156  0.1272
  154SAPE   C3117030   5.942   1.200   5.714  1.1061  0.0001  0.1610
  154SAPE   O3217031   5.879   1.274   5.788  0.5349 -0.3665 -0.0744
  154SAPE   C3217032   5.913   1.171   5.565  0.4517  0.3063  0.9374
  154SAPE   H2X17033   5.926   1.066   5.532  0.2457  0.0948  1.5152
  154SAPE   H2Y17034   5.999   1.219   5.513  0.3878 -0.6757 -0.0907
  154SAPE   C2317035   6.029   0.613   5.771  0.0102  0.4144 -1.1272
  154SAPE   H3R17036   5.919   0.629   5.785 -0.5034 -2.7309 -0.8781
  154SAPE   H3S17037   6.048   0.504   5.765  0.4060  0.4664 -0.8708
  154SAPE   C2417038   6.079   0.670   5.639 -0.7996 -0.1541 -0.0905
  154SAPE   H4R17039   6.181   0.625   5.638 -0.7416 -0.0451  0.5746
  154SAPE   H4S17040   6.102   0.778   5.652  0.3917 -0.4693  0.6035
  154SAPE   C2517041   5.986   0.652   5.521  0.0028 -0.1539  0.2435
  154SAPE   H5R17042   5.884   0.690   5.530  0.1480  0.1834  0.5058
  154SAPE   C2617043   6.023   0.591   5.403  0.3505 -0.0426 -0.8387
  154SAPE   H6R17044   5.946   0.599   5.325  0.7246  2.4505 -1.0414
  154SAPE   C2717045   6.157   0.526   5.377  0.2559 -0.1487  0.4206
  154SAPE   H7R17046   6.215   0.488   5.464  1.0114  1.0081  0.4461
  154SAPE   H7S17047   6.218   0.608   5.332  2.2604 -1.3104  0.9087
  154SAPE   C2817048   6.122   0.413   5.278 -0.1360 -0.5871  0.5642
  154SAPE   H8R17049   6.029   0.355   5.288 -1.7698  0.9916 -3.5520
  154SAPE   C2917050   6.188   0.402   5.163 -0.9145  0.1269 -0.5098
  154SAPE   H9R17051   6.155   0.320   5.098 -0.2279 -0.5651 -0.0156
  154SAPE  C21017052   6.314   0.479   5.129 -0.2771 -0.1374  0.3580
  154SAPE  H10R17053   6.364   0.540   5.208 -1.0908  0.6138  0.2976
  154SAPE  H10S17054   6.283   0.556   5.056 -0.3649 -0.5670 -0.0610
  154SAPE  C21117055   6.416   0.382   5.073  0.0525 -0.8156  0.5430
  154SAPE  H11R17056   6.422   0.282   5.119  0.0353 -0.6099  0.9975
  154SAPE  C21217057   6.494   0.413   4.964  0.5265  0.3223  0.1959
  154SAPE  H12R17058   6.553   0.332   4.920 -1.1394 -1.6983  1.4823
  154SAPE  C21317059   6.513   0.545   4.896 -0.0093  0.3702  0.5693
  154SAPE  H13R17060   6.604   0.592   4.938  1.2287 -0.3434 -1.2007
  154SAPE  H13S17061   6.421   0.606   4.908 -1.2598 -1.3157  0.0162
  154SAPE  C21417062   6.530   0.532   4.742 -0.1857 -0.1750  0.7192
  154SAPE  H14R17063   6.432   0.524   4.691  0.0400  2.2267 -0.1763
  154SAPE  C21517064   6.639   0.550   4.666  0.4956  0.5773 -0.6087
  154SAPE  H15R17065   6.626   0.525   4.560  0.9467 -1.4231 -0.2254
  154SAPE  C21617066   6.776   0.574   4.710 -0.3640  0.4271  0.2270
  154SAPE  H16R17067   6.785   0.606   4.816  0.8123 -0.6944  0.5001
  154SAPE  H16S17068   6.821   0.656   4.650  0.5071 -0.4655 -0.3668
  154SAPE  C21717069   6.869   0.451   4.687 -0.1379 -0.3169  0.0449
  154SAPE  H17R17070   6.826   0.356   4.724 -0.9057 -0.3491 -0.8742
  154SAPE  H17S17071   6.961   0.470   4.747 -0.6825  0.1736  0.7340
  154SAPE  C21817072   6.901   0.419   4.544 -0.3306  0.2086  0.4578
  154SAPE  H18R17073   6.804   0.402   4.493 -2.1144  1.3718  3.1778
  154SAPE  H18S17074   6.961   0.328   4.560  0.3416  1.1422  4.2479
  154SAPE  C21917075   6.976   0.527   4.472  0.2428 -0.7378  0.0107
  154SAPE  H19R17076   6.900   0.608   4.464 -0.6012 -1.5900 -0.7809
  154SAPE  H19S17077   7.006   0.514   4.365  1.9138  0.4099  0.2869
  154SAPE  C22017078   7.098   0.581   4.542 -0.5779  0.1832  0.5399
  154SAPE  H20R17079   7.111   0.692   4.537  2.0698 -0.1046 -2.3128
  154SAPE  H20S17080   7.187   0.542   4.488  0.5751  0.5497  2.1314
  154SAPE  H20T17081   7.096   0.553   4.649 -2.1245  1.6639  0.9399
  154SAPE   C3317082   5.783   1.226   5.512 -0.0980 -0.1040  0.0470
  154SAPE   H3X17083   5.788   1.335   5.530 -0.0059  0.0439 -0.8192
  154SAPE   H3Y17084   5.698   1.191   5.575  0.2280  0.0009  0.5454
  154SAPE   C3417085   5.762   1.215   5.361 -0.5804  0.2415  0.3248
  154SAPE   H4X17086   5.862   1.252   5.329  0.3974 -1.1439  1.6224
  154SAPE   H4Y17087   5.688   1.294   5.336  0.2387  1.6501  2.0817
  154SAPE   C3517088   5.720   1.070   5.318  0.5456  0.0570 -0.2077
  154SAPE   H5X17089   5.622   1.055   5.369  1.0490 -1.4781  0.3690
  154SAPE   H5Y17090   5.794   0.997   5.359  0.3749 -0.2185 -0.3838
  154SAPE   C3617091   5.717   1.045   5.166 -0.4923 -0.5778  0.1519
  154SAPE   H6X17092   5.776   1.124   5.115  0.0215 -2.1676 -1.8502
  154SAPE   H6Y17093   5.620   1.064   5.114 -0.1088  0.6655 -0.1536
  154SAPE   C3717094   5.759   0.902   5.124  0.0302 -0.4236 -0.4157
  154SAPE   H7X17095   5.861   0.882   5.163 -0.2177  0.3253  0.6573
  154SAPE   H7Y17096   5.748   0.899   5.013  0.3589 -1.8145 -0.4184
  154SAPE   C3817097   5.676   0.790   5.187 -0.2183 -0.7492 -0.5307
  154SAPE   H8X17098   5.566   0.806   5.183 -0.4915 -2.2974  0.0803
  154SAPE   H8Y17099   5.701   0.776   5.294  2.9316 -1.9037 -1.2980
  154SAPE   C3917100   5.692   0.666   5.097 -0.0709  0.5220 -0.2513
  154SAPE   H9X17101   5.677   0.575   5.160 -2.1271  1.1806  0.2891
  154SAPE   H9Y17102   5.798   0.662   5.064  0.4663 -3.4861  1.3387
  154SAPE  C31017103   5.590   0.673   4.983  0.0557  0.1936  1.0208
  154SAPE  H10X17104   5.583   0.774   4.936 -1.1207  0.2774  1.3441
  154SAPE  H10Y17105   5.490   0.628   4.999  0.2269 -1.3026 -1.5847
  154SAPE  C31117106   5.653   0.592   4.866  0.4894  0.0436 -0.3779
  154SAPE  H11X17107   5.637   0.488   4.900 -3.0941  0.3949 -0.6457
  154SAPE  H11Y17108   5.757   0.632   4.861 -0.6465  3.5357  0.8788
  154SAPE  C31217109   5.569   0.624   4.738 -0.5301 -0.2310 -0.0238
  154SAPE  H12X17110   5.619   0.581   4.649  0.9869  0.6968  0.3441
  154SAPE  H12Y17111   5.581   0.734   4.728 -1.8841 -0.0295  0.3272
  154SAPE  C31317112   5.417   0.593   4.750 -0.3890  0.3804  0.4730
  154SAPE  H13X17113   5.369   0.657   4.826  0.7959  2.2313 -0.2674
  154SAPE  H13Y17114   5.396   0.487   4.777  1.2848  0.1853  1.1196
  154SAPE  C31417115   5.339   0.606   4.617 -0.6580  0.1501 -0.1545
  154SAPE  H14X17116   5.258   0.529   4.612 -3.1822  2.7019 -1.6067
  154SAPE  H14Y17117   5.406   0.575   4.535  1.4390  0.2121  1.4627
  154SAPE  C31517118   5.278   0.745   4.601  0.3381 -0.3702 -0.3031
  154SAPE  H15X17119   5.357   0.823   4.610  0.1665 -0.2280  0.0114
  154SAPE  H15Y17120   5.200   0.751   4.680  0.0616 -0.5427 -0.5623
  154SAPE  C31617121   5.212   0.783   4.466 -0.5060 -0.0431  0.0941
  154SAPE  H16X17122   5.115   0.727   4.465 -1.1034  0.8787 -2.7901
  154SAPE  H16Y17123   5.272   0.737   4.385 -1.2310 -2.3043  0.7552
  154SAPE  C31717124   5.194   0.931   4.439  0.1829 -0.8235 -1.6797
  154SAPE  H17X17125   5.289   0.975   4.402  2.3924 -2.6649  1.4554
  154SAPE  H17Y17126   5.148   0.976   4.530  0.9723 -1.7210 -0.8319
  154SAPE  C31817127   5.087   0.956   4.327  0.0724  0.4745  0.2182
  154SAPE  H18X17128   5.132   0.919   4.232 -0.1275 -0.9111  0.6347
  154SAPE  H18Y17129   5.070   1.065   4.313 -1.4937  0.2749  0.3373
  154SAPE  H18Z17130   4.990   0.907   4.349  0.2536  0.6286  1.3918
  155SAPE     N17131   2.105   5.490   6.377  0.5643 -0.1771  0.2458
  155SAPE   HN117132   2.183   5.536   6.327  1.2386 -0.5573  0.9383
  155SAPE   HN217133   2.118   5.507   6.479 -0.0224  0.5156  0.2141
  155SAPE   HN317134   2.104   5.386   6.367  1.6652 -0.1360 -0.4114
  155SAPE   C1217135   1.971   5.563   6.348  0.0637  0.3782 -0.1633
  155SAPE  H12A17136   1.886   5.499   6.379 -0.3168  0.3477 -1.2086
  155SAPE  H12B17137   1.979   5.561   6.237  0.3346  0.2549 -0.1445
  155SAPE   C1117138   1.975   5.702   6.403  0.0662 -0.0679 -0.2289
  155SAPE  H11A17139   2.076   5.749   6.398 -0.5481  1.1674 -2.0831
  155SAPE  H11B17140   1.947   5.701   6.510  0.0178  1.7171 -0.1961
  155SAPE     P17141   1.902   5.895   6.237 -0.2767  0.2166 -0.2375
  155SAPE   O1317142   1.785   5.915   6.144  0.2726  0.4937 -0.4399
  155SAPE   O1417143   1.953   6.015   6.302  1.4085 -0.8760 -0.0026
  155SAPE   O1217144   1.876   5.781   6.344  0.4387 -0.3751 -0.0656
  155SAPE   O1117145   2.022   5.819   6.155 -0.1870 -0.3428 -0.5402
  155SAPE    C117146   2.152   5.885   6.169  0.1213 -0.0490  0.1028
  155SAPE    HA17147   2.167   5.947   6.260  2.6027 -2.5820  1.6043
  155SAPE    HB17148   2.232   5.808   6.170  0.5787  0.3653 -1.5261
  155SAPE    C217149   2.182   5.985   6.045  0.5662  0.6694 -0.6384
  155SAPE    HS17150   2.141   6.085   6.069 -1.2875  0.2425 -1.8252
  155SAPE   O2117151   2.131   5.932   5.916  0.2827  0.2930 -0.5586
  155SAPE   C2117152   2.074   6.022   5.835 -0.2615  0.0716 -0.5227
  155SAPE   O2217153   2.080   6.145   5.842  0.2641  0.5714 -0.3683
  155SAPE   C2217154   2.003   5.952   5.717 -0.2757 -0.3422  0.3576
  155SAPE   H2R17155   2.088   5.923   5.651 -0.6271 -2.3725  0.7325
  155SAPE   H2S17156   1.949   5.861   5.750 -0.6706  0.8862  3.3675
  155SAPE    C317157   2.340   6.009   6.030  0.7254  0.1892 -0.3038
  155SAPE    HX17158   2.382   5.918   5.983 -0.9045 -0.6337 -0.2457
  155SAPE    HY17159   2.381   6.039   6.128  2.2922 -1.7466 -0.3283
  155SAPE   O3117160   2.357   6.106   5.925 -0.3093 -0.4279 -0.2874
  155SAPE   C3117161   2.460   6.195   5.945 -0.0632  0.0850 -0.5961
  155SAPE   O3217162   2.525   6.201   6.049 -0.2358  0.8932  0.2744
  155SAPE   C3217163   2.487   6.287   5.829  0.2947 -0.0132  0.4808
  155SAPE   H2X17164   2.392   6.301   5.773  0.5112  0.3341  0.1947
  155SAPE   H2Y17165   2.567   6.238   5.769  1.4313 -1.3242  2.9429
  155SAPE   C2317166   1.884   6.013   5.638  0.2897 -0.5474 -0.2593
  155SAPE   H3R17167   1.909   6.110   5.591  2.1874 -0.7316  0.2945
  155SAPE   H3S17168   1.795   6.033   5.702  1.1241  1.0036  0.4734
  155SAPE   C2417169   1.830   5.924   5.523  0.0360 -0.7955 -0.5077
  155SAPE   H4R17170   1.736   5.962   5.479  0.4513 -0.0936 -0.8132
  155SAPE   H4S17171   1.819   5.830   5.581  0.5556 -2.0768 -2.3910
  155SAPE   C2517172   1.930   5.908   5.413 -0.2011  0.4188 -0.4799
  155SAPE   H5R17173   2.016   5.841   5.427 -1.6702 -1.5392 -0.5403
  155SAPE   C2617174   1.921   5.943   5.287 -0.3136  0.5320  1.0724
  155SAPE   H6R17175   2.009   5.919   5.225 -0.6902 -1.0542  1.1065
  155SAPE   C2717176   1.814   6.020   5.222  0.5928 -0.5091  0.5887
  155SAPE   H7R17177   1.735   6.065   5.286  1.3156  1.0146  0.4619
  155SAPE   H7S17178   1.764   5.938   5.165 -0.2571  1.1661 -1.2071
  155SAPE   C2817179   1.880   6.123   5.133 -0.3157  0.2115  0.1284
  155SAPE   H8R17180   1.943   6.197   5.185 -1.9667  0.8703  1.2675
  155SAPE   C2917181   1.861   6.146   5.006  0.4853 -0.0068 -0.2788
  155SAPE   H9R17182   1.921   6.221   4.950 -0.9037 -0.3999 -2.4074
  155SAPE  C21017183   1.765   6.068   4.915 -0.2165 -0.3576 -0.3884
  155SAPE  H10R17184   1.714   6.145   4.854 -0.3249  0.4025  0.6505
  155SAPE  H10S17185   1.683   6.010   4.963 -0.8278 -0.3050 -1.3275
  155SAPE  C21117186   1.847   5.978   4.824  0.0709  0.2324 -0.8691
  155SAPE  H11R17187   1.919   5.910   4.872 -2.5810 -1.0548  1.5536
  155SAPE  C21217188   1.834   5.982   4.689 -0.3019 -0.1598 -0.4368
  155SAPE  H12R17189   1.890   5.907   4.631  2.2387  1.6781 -0.5245
  155SAPE  C21317190   1.743   6.073   4.608 -1.8526 -0.3361 -0.2601
  155SAPE  H13R17191   1.763   6.183   4.609 -2.3300 -0.2278 -1.3618
  155SAPE  H13S17192   1.646   6.074   4.661 -0.9850  0.5147  1.3752
  155SAPE  C21417193   1.709   6.029   4.467 -0.4403 -0.0121 -0.1165
  155SAPE  H14R17194   1.625   5.958   4.472 -1.0822  0.7335 -0.1660
  155SAPE  C21517195   1.772   6.060   4.350  0.1401  0.3373  0.5048
  155SAPE  H15R17196   1.738   6.018   4.253  1.4387 -2.3358  1.1252
  155SAPE  C21617197   1.893   6.144   4.349  0.3506 -0.2320  0.2618
  155SAPE  H16R17198   1.960   6.131   4.262  0.8270 -0.4825  0.6589
  155SAPE  H16S17199   1.959   6.116   4.434  0.5039 -1.7335 -0.3272
  155SAPE  C21717200   1.860   6.292   4.363  0.0926 -1.0269  0.7222
  155SAPE  H17R17201   1.960   6.341   4.369  0.2181 -0.7522 -2.0684
  155SAPE  H17S17202   1.804   6.307   4.457  1.8489 -1.5227  1.9050
  155SAPE  C21817203   1.786   6.352   4.240  0.0169  0.6298 -0.2253
  155SAPE  H18R17204   1.680   6.322   4.226 -0.1431  2.3076 -3.3582
  155SAPE  H18S17205   1.833   6.325   4.143 -0.7670  0.4256 -0.5608
  155SAPE  C21917206   1.791   6.503   4.238 -0.4464  0.2657 -0.4817
  155SAPE  H19R17207   1.889   6.549   4.214 -0.3346  0.9009  1.0711
  155SAPE  H19S17208   1.773   6.533   4.343 -2.4600  0.5038 -0.8443
  155SAPE  C22017209   1.676   6.571   4.162 -0.2110 -0.7097  0.8081
  155SAPE  H20R17210   1.579   6.535   4.200 -0.7607  1.9626  2.2029
  155SAPE  H20S17211   1.678   6.547   4.054 -0.3511  1.2292  0.3460
  155SAPE  H20T17212   1.687   6.681   4.176 -1.4194 -0.6585  1.4235
  155SAPE   C3317213   2.549   6.427   5.873 -0.1655  0.4005  0.0808
  155SAPE   H3X17214   2.649   6.412   5.919 -1.2647  0.9876  2.9336
  155SAPE   H3Y17215   2.482   6.462   5.954 -0.1420  1.0851 -0.1930
  155SAPE   C3417216   2.558   6.525   5.744  0.3774 -0.0756  0.6281
  155SAPE   H4X17217   2.606   6.472   5.660 -2.7298 -1.2677 -0.5604
  155SAPE   H4Y17218   2.609   6.620   5.770 -0.1132  0.6675 -1.0585
  155SAPE   C3517219   2.411   6.564   5.708  0.5209 -0.4723  0.6063
  155SAPE   H5X17220   2.367   6.586   5.808 -0.1988  1.3413 -0.0760
  155SAPE   H5Y17221   2.345   6.492   5.656  0.6012  0.5197 -0.9458
  155SAPE   C3617222   2.396   6.689   5.629 -0.3836 -1.2272  0.2366
  155SAPE   H6X17223   2.426   6.777   5.689 -1.5168 -0.5955 -0.1032
  155SAPE   H6Y17224   2.286   6.699   5.619 -0.1520 -0.2542 -1.9235
  155SAPE   C3717225   2.455   6.692   5.484 -0.2023 -0.3467  0.4201
  155SAPE   H7X17226   2.565   6.688   5.504 -0.2180 -0.2843  0.5227
  155SAPE   H7Y17227   2.421   6.787   5.437  0.0916 -0.3294  0.2388
  155SAPE   C3817228   2.426   6.568   5.398  0.2119 -0.3019 -1.0875
  155SAPE   H8X17229   2.316   6.555   5.387  0.1070  0.3853 -0.9010
  155SAPE   H8Y17230   2.460   6.474   5.445 -1.6776 -0.8294 -0.7068
  155SAPE   C3917231   2.490   6.570   5.260  0.2199  0.6374 -0.5590
  155SAPE   H9X17232   2.594   6.601   5.281 -0.0471  0.6923  0.8533
  155SAPE   H9Y17233   2.431   6.644   5.202 -1.4993  0.4089  0.7735
  155SAPE  C31017234   2.502   6.443   5.180 -0.1541  0.5723 -0.0406
  155SAPE  H10X17235   2.402   6.408   5.146 -0.7588  3.6883 -1.8903
  155SAPE  H10Y17236   2.546   6.363   5.243 -0.5900  0.2170 -0.1812
  155SAPE  C31117237   2.593   6.443   5.052  0.1396  0.2445  0.1505
  155SAPE  H11X17238   2.595   6.340   5.010  2.7431  0.2272  0.1491
  155SAPE  H11Y17239   2.692   6.468   5.095 -0.4394  2.7630  0.1929
  155SAPE  C31217240   2.546   6.544   4.945  0.1778 -0.0734  0.7016
  155SAPE  H12X17241   2.572   6.645   4.983  0.4842  0.8355 -1.7231
  155SAPE  H12Y17242   2.437   6.544   4.926  0.2427 -0.4693  0.3225
  155SAPE  C31317243   2.620   6.519   4.815 -0.0207  0.6467 -0.1765
  155SAPE  H13X17244   2.730   6.510   4.830  0.1181  0.7030 -1.1077
  155SAPE  H13Y17245   2.607   6.606   4.747 -1.4377  0.6602  0.0963
  155SAPE  C31417246   2.560   6.411   4.730 -0.0056 -0.3101 -0.9569
  155SAPE  H14X17247   2.457   6.425   4.690  0.0838 -1.5923 -1.7029
  155SAPE  H14Y17248   2.563   6.315   4.786  0.3159 -1.2478 -2.5172
  155SAPE  C31517249   2.651   6.394   4.611  0.0374  0.3718  0.1179
  155SAPE  H15X17250   2.755   6.386   4.647  1.4427 -0.5989 -3.6315
  155SAPE  H15Y17251   2.642   6.486   4.549 -1.6139  0.4292  0.3753
  155SAPE  C31617252   2.612   6.280   4.516 -0.3553  0.6108 -0.1480
  155SAPE  H16X17253   2.526   6.325   4.461 -2.0933 -2.4029 -0.1025
  155SAPE  H16Y17254   2.575   6.194   4.575  1.9191 -1.0541 -1.0179
  155SAPE  C31717255   2.725   6.240   4.415 -0.1046 -0.1372  0.3543
  155SAPE  H17X17256   2.676   6.173   4.341 -0.9494 -0.8130  1.4923
  155SAPE  H17Y17257   2.800   6.185   4.476  2.5184  1.4604 -1.2059
  155SAPE  C31817258   2.793   6.348   4.327 -0.0933  0.5418 -0.4958
  155SAPE  H18X17259   2.831   6.430   4.392  0.4245 -1.5951  2.0969
  155SAPE  H18Y17260   2.720   6.384   4.252 -1.8499 -2.7535 -0.5216
  155SAPE  H18Z17261   2.887   6.312   4.279  1.2612  0.8568  1.7714
  156SAPE     N17262   3.124   5.611   6.565 -0.7403  0.4148 -0.6265
  156SAPE   HN117263   3.126   5.511   6.593  0.3269  0.4783 -0.4103
  156SAPE   HN217264   3.084   5.669   6.641  1.0716 -0.7197  1.2968
  156SAPE   HN317265   3.047   5.626   6.497 -0.9061  1.0689 -0.3079
  156SAPE   C1217266   3.257   5.676   6.517  0.3825  0.0113  0.2599
  156SAPE  H12A17267   3.252   5.687   6.407  0.5482  3.3632  0.4919
  156SAPE  H12B17268   3.344   5.617   6.554  2.0358  1.0581 -1.7504
  156SAPE   C1117269   3.267   5.820   6.573  0.1514  0.2048  0.3924
  156SAPE  H11A17270   3.362   5.860   6.533 -0.0357 -0.5823 -0.8754
  156SAPE  H11B17271   3.286   5.820   6.683 -0.3031 -0.5457  0.4789
  156SAPE     P17272   3.173   6.055   6.532  0.1829  0.0698  0.1547
  156SAPE   O1317273   3.044   6.115   6.503 -0.7604  0.2929  0.0210
  156SAPE   O1417274   3.232   6.112   6.648 -0.3130 -0.5623 -0.6597
  156SAPE   O1217275   3.155   5.902   6.534  0.1694 -0.2254  0.2853
  156SAPE   O1117276   3.274   6.074   6.410 -0.3288  0.2462  0.1987
  156SAPE    C117277   3.247   6.036   6.276 -0.5980 -0.5457 -0.0068
  156SAPE    HA17278   3.170   5.956   6.266 -2.3990  1.3264 -2.1064
  156SAPE    HB17279   3.219   6.122   6.212 -1.0343 -1.8587 -1.6278
  156SAPE    C217280   3.375   5.976   6.215 -0.1607 -0.0151  0.0169
  156SAPE    HS17281   3.417   5.901   6.286  2.7075  0.4748 -1.0213
  156SAPE   O2117282   3.476   6.086   6.197 -0.5291 -0.7388  0.0211
  156SAPE   C2117283   3.590   6.052   6.143  1.0859 -0.5515 -0.1473
  156SAPE   O2217284   3.638   5.943   6.132 -0.6911  0.0987  0.1271
  156SAPE   C2217285   3.662   6.182   6.094 -0.1501 -0.2458  0.0342
  156SAPE   H2R17286   3.590   6.233   6.026  0.5888 -0.8704 -1.2449
  156SAPE   H2S17287   3.671   6.244   6.186 -3.2938  1.6056 -0.7508
  156SAPE    C317288   3.353   5.888   6.089  0.3895  0.6632  0.1692
  156SAPE    HX17289   3.286   5.802   6.109  0.3482  0.6633  0.0265
  156SAPE    HY17290   3.448   5.835   6.065  1.3303  1.0808  2.6076
  156SAPE   O3117291   3.295   5.971   5.981 -0.0688 -0.0385  0.7458
  156SAPE   C3117292   3.374   6.023   5.889 -0.0919  0.5917 -0.4620
  156SAPE   O3217293   3.492   5.988   5.875 -0.1009 -1.0248  0.3772
  156SAPE   C3217294   3.301   6.125   5.805  0.4165  0.1329 -0.4808
  156SAPE   H2X17295   3.271   6.216   5.860  2.1923  1.3227 -1.3831
  156SAPE   H2Y17296   3.207   6.077   5.769  1.0243 -0.3313 -1.5101
  156SAPE   C2317297   3.800   6.161   6.023  0.6999 -0.0659  0.4421
  156SAPE   H3R17298   3.783   6.103   5.929  1.3686 -1.5031  1.1784
  156SAPE   H3S17299   3.868   6.103   6.088  1.4910 -0.0608 -0.3499
  156SAPE   C2417300   3.874   6.291   5.999  0.2304  0.2244 -0.4334
  156SAPE   H4R17301   3.977   6.258   5.974  0.1164  0.2703 -0.9897
  156SAPE   H4S17302   3.886   6.363   6.082 -0.0683 -0.5178  0.2639
  156SAPE   C2517303   3.795   6.368   5.894  0.3341 -0.3413 -0.2726
  156SAPE   H5R17304   3.733   6.449   5.934 -1.3521 -1.3182 -0.8174
  156SAPE   C2617305   3.796   6.362   5.760 -0.2336  0.0734 -0.1392
  156SAPE   H6R17306   3.721   6.414   5.699 -0.5743 -1.1316 -0.7669
  156SAPE   C2717307   3.888   6.293   5.671  0.0794  0.3432 -0.0730
  156SAPE   H7R17308   3.956   6.224   5.725 -2.5628 -1.5673  0.9864
  156SAPE   H7S17309   3.949   6.371   5.620 -1.5556  0.7366 -1.5213
  156SAPE   C2817310   3.812   6.198   5.574  0.1470 -0.7263  0.0450
  156SAPE   H8R17311   3.757   6.121   5.631  1.2172 -0.0039  2.1671
  156SAPE   C2917312   3.804   6.201   5.443  0.0987  0.7487  0.7769
  156SAPE   H9R17313   3.719   6.145   5.400 -0.8296  1.0985  2.0987
  156SAPE  C21017314   3.857   6.299   5.346 -0.3364 -0.6844 -0.2466
  156SAPE  H10R17315   3.897   6.392   5.393  1.2012 -0.9676 -0.9558
  156SAPE  H10S17316   3.782   6.329   5.269  1.2264 -0.0224 -1.5667
  156SAPE  C21117317   3.966   6.217   5.273 -0.1319  0.5228 -0.4606
  156SAPE  H11R17318   4.003   6.123   5.316 -1.7882  1.0292  2.2662
  156SAPE  C21217319   4.016   6.266   5.150  0.2596 -0.2860 -0.9372
  156SAPE  H12R17320   4.093   6.207   5.097  1.3155  1.6805 -1.7003
  156SAPE  C21317321   3.966   6.386   5.073  0.6306 -0.1578 -0.2153
  156SAPE  H13R17322   3.910   6.448   5.146 -1.9567 -2.1448 -0.3635
  156SAPE  H13S17323   3.893   6.357   4.995  0.5637  3.1079 -1.4830
  156SAPE  C21417324   4.072   6.472   5.007  0.2511 -0.2713 -0.4460
  156SAPE  H14R17325   4.148   6.514   5.075 -0.1804  2.2970 -1.4095
  156SAPE  C21517326   4.071   6.526   4.883 -0.5663  0.5283  0.2131
  156SAPE  H15R17327   4.152   6.595   4.852  0.2639 -0.1161  0.9020
  156SAPE  C21617328   3.982   6.478   4.771 -0.2094  0.8762  0.4197
  156SAPE  H16R17329   3.897   6.548   4.756 -0.0201  1.5268  2.1419
  156SAPE  H16S17330   3.928   6.386   4.803 -0.0876  0.2069 -1.2173
  156SAPE  C21717331   4.058   6.437   4.645  0.1369 -0.4348  0.7038
  156SAPE  H17R17332   4.113   6.527   4.609  0.4320 -0.7326  0.3973
  156SAPE  H17S17333   3.991   6.404   4.563  1.7488 -1.6265 -0.1977
  156SAPE  C21817334   4.171   6.331   4.656 -0.0934 -0.3729 -0.2875
  156SAPE  H18R17335   4.246   6.362   4.732  0.1054  0.8996 -0.9837
  156SAPE  H18S17336   4.229   6.305   4.565  0.4637 -0.7119  0.1526
  156SAPE  C21917337   4.111   6.197   4.699  0.7847  0.1076  0.6311
  156SAPE  H19R17338   4.073   6.189   4.803 -0.5075 -0.6150  0.1334
  156SAPE  H19S17339   4.196   6.125   4.704  0.2599 -0.6998 -1.1632
  156SAPE  C22017340   4.006   6.150   4.600  0.8207  0.1034 -0.0779
  156SAPE  H20R17341   3.985   6.041   4.604  1.1514  0.0508  0.2498
  156SAPE  H20S17342   4.048   6.150   4.497 -0.4956  1.1024 -0.6476
  156SAPE  H20T17343   3.909   6.205   4.602  1.1665  0.7032  0.6930
  156SAPE   C3317344   3.384   6.178   5.685 -0.4880 -0.7260 -0.0542
  156SAPE   H3X17345   3.446   6.094   5.649  0.4029 -0.5906  1.1102
  156SAPE   H3Y17346   3.447   6.263   5.719 -0.1383 -0.1472 -2.0448
  156SAPE   C3417347   3.289   6.223   5.571  0.0563  0.5009  0.0486
  156SAPE   H4X17348   3.203   6.275   5.619 -2.2225 -1.0752 -2.1283
  156SAPE   H4Y17349   3.244   6.140   5.512 -0.1472 -0.5228  1.5754
  156SAPE   C3517350   3.372   6.311   5.480  0.0343  0.0139  0.9598
  156SAPE   H5X17351   3.466   6.253   5.467 -0.1450 -0.1182  0.1718
  156SAPE   H5Y17352   3.389   6.412   5.523 -1.9037  0.7130  0.2279
  156SAPE   C3617353   3.308   6.328   5.337 -0.2480  0.1855  0.0043
  156SAPE   H6X17354   3.232   6.409   5.343 -0.0517  0.2841  1.5669
  156SAPE   H6Y17355   3.268   6.232   5.299  0.8680  0.0476 -0.8647
  156SAPE   C3717356   3.423   6.372   5.236  0.0502 -0.3261  0.2135
  156SAPE   H7X17357   3.499   6.291   5.232  0.1827 -0.1757 -0.4709
  156SAPE   H7Y17358   3.479   6.460   5.276 -0.1498 -0.5688  1.0532
  156SAPE   C3817359   3.381   6.418   5.094  0.7557 -0.0389  0.5782
  156SAPE   H8X17360   3.309   6.502   5.097  1.9073  0.9708  0.9880
  156SAPE   H8Y17361   3.320   6.332   5.058  0.1349  0.1049  1.2616
  156SAPE   C3917362   3.497   6.457   5.001 -0.1021  0.9650  0.6763
  156SAPE   H9X17363   3.584   6.391   5.024 -0.7148  0.1834  0.7833
  156SAPE   H9Y17364   3.546   6.554   5.023 -0.3621  0.9797  1.1929
  156SAPE  C31017365   3.471   6.433   4.851  0.0258  0.6162 -0.2876
  156SAPE  H10X17366   3.377   6.484   4.823 -1.6846 -1.8303  0.7180
  156SAPE  H10Y17367   3.446   6.328   4.828 -0.2590  0.2617  1.4834
  156SAPE  C31117368   3.587   6.456   4.759  0.8896 -0.0851 -0.7123
  156SAPE  H11X17369   3.658   6.373   4.777  1.4744  0.5440 -0.0269
  156SAPE  H11Y17370   3.644   6.550   4.777  0.0616  0.2090  0.4947
  156SAPE  C31217371   3.535   6.452   4.617 -0.1610 -0.0073 -0.1712
  156SAPE  H12X17372   3.441   6.510   4.607 -0.5039 -0.5085  0.0955
  156SAPE  H12Y17373   3.524   6.345   4.591  0.6316  0.0240 -0.6749
  156SAPE  C31317374   3.643   6.509   4.520  0.3124 -0.2577 -0.1280
  156SAPE  H13X17375   3.747   6.478   4.543  1.6971  4.0311  0.3073
  156SAPE  H13Y17376   3.658   6.618   4.533  1.9778 -0.6401  1.5987
  156SAPE  C31417377   3.607   6.491   4.369  0.6133  0.5489 -0.2472
  156SAPE  H14X17378   3.610   6.380   4.357  2.3730  0.5375  0.0338
  156SAPE  H14Y17379   3.681   6.533   4.298  1.2616  1.8992  1.1613
  156SAPE  C31517380   3.475   6.556   4.334 -0.2508  0.3588 -0.2618
  156SAPE  H15X17381   3.453   6.650   4.389  0.9380  1.8248 -2.1396
  156SAPE  H15Y17382   3.400   6.481   4.367 -1.4475  2.3907  1.9608
  156SAPE  C31617383   3.463   6.582   4.176  0.0323  0.4905 -0.4729
  156SAPE  H16X17384   3.452   6.482   4.130  0.0176  1.2889 -2.2822
  156SAPE  H16Y17385   3.558   6.632   4.146 -0.2659  1.8889  0.7487
  156SAPE  C31717386   3.350   6.678   4.142  0.2722 -0.0200  0.5466
  156SAPE  H17X17387   3.347   6.756   4.221 -4.2184  0.6287 -0.0068
  156SAPE  H17Y17388   3.253   6.623   4.146  1.0072 -1.4838 -0.9286
  156SAPE  C31817389   3.374   6.740   4.003 -0.4199 -0.5523 -0.5969
  156SAPE  H18X17390   3.469   6.797   4.000 -0.8571  0.1843 -0.5242
  156SAPE  H18Y17391   3.299   6.817   3.978  1.5026  1.4618 -0.4200
  156SAPE  H18Z17392   3.374   6.665   3.920  0.3141  0.1666 -1.2621
  157SAPE     N17393   3.444   6.273   6.578  0.5888 -0.7696  0.1483
  157SAPE   HN117394   3.360   6.222   6.612 -0.6888  0.5146 -0.9382
  157SAPE   HN217395   3.522   6.204   6.576  0.2361 -1.1751  0.2586
  157SAPE   HN317396   3.470   6.345   6.648  0.3680 -2.2126  1.7696
  157SAPE   C1217397   3.425   6.338   6.443 -0.5752 -0.0293 -0.1993
  157SAPE  H12A17398   3.418   6.256   6.368  2.9261  0.1045 -0.8573
  157SAPE  H12B17399   3.516   6.396   6.416  0.2625 -0.6428  1.1942
  157SAPE   C1117400   3.305   6.430   6.445 -0.3705 -0.4265  0.4576
  157SAPE  H11A17401   3.220   6.363   6.470 -0.7549 -0.0788  0.0968
  157SAPE  H11B17402   3.290   6.481   6.347  1.9205  1.2432  0.8906
  157SAPE     P17403   3.203   6.591   6.612 -0.0613 -0.7190 -0.1271
  157SAPE   O1317404   3.137   6.483   6.692 -0.0436 -0.2224  0.0086
  157SAPE   O1417405   3.228   6.720   6.677 -0.2900  0.0585  0.4939
  157SAPE   O1217406   3.335   6.529   6.547  0.0860 -0.6541  0.2670
  157SAPE   O1117407   3.111   6.620   6.488  0.1136 -0.0380  0.3685
  157SAPE    C117408   3.155   6.713   6.383 -0.1750 -0.0100  0.8613
  157SAPE    HA17409   3.141   6.816   6.420 -0.8440 -0.0680  0.7704
  157SAPE    HB17410   3.265   6.701   6.367 -0.4117 -1.0424 -0.1110
  157SAPE    C217411   3.081   6.680   6.252  0.7275 -0.4932 -0.2761
  157SAPE    HS17412   2.975   6.705   6.276  0.0428 -2.0234 -1.5366
  157SAPE   O2117413   3.087   6.540   6.220 -0.5084 -0.2486  0.5176
  157SAPE   C2117414   2.990   6.496   6.154  0.3156  0.0430 -0.0360
  157SAPE   O2217415   2.879   6.547   6.141  0.2574 -0.1216  0.0507
  157SAPE   C2217416   3.024   6.353   6.110 -0.2955  0.2493 -0.0807
  157SAPE   H2R17417   3.116   6.359   6.048  1.5481  2.6837  2.5904
  157SAPE   H2S17418   3.060   6.307   6.205 -0.6654  1.5853  0.7264
  157SAPE    C317419   3.118   6.778   6.139  0.1769 -0.7352  0.4792
  157SAPE    HX17420   3.218   6.743   6.104  0.0476 -2.9564  2.1365
  157SAPE    HY17421   3.136   6.883   6.171  1.3564 -1.3403  1.8985
  157SAPE   O3117422   3.026   6.778   6.027  0.6230  0.2506 -0.0394
  157SAPE   C3117423   2.913   6.847   6.051 -0.6965  0.6477 -0.4144
  157SAPE   O3217424   2.904   6.929   6.140 -0.1253  0.0114  0.7139
  157SAPE   C3217425   2.804   6.811   5.946  0.3644  0.0072  0.3745
  157SAPE   H2X17426   2.754   6.724   5.994  0.3945 -0.2570 -0.0570
  157SAPE   H2Y17427   2.856   6.775   5.854 -0.4979 -0.2590 -0.0213
  157SAPE   C2317428   2.909   6.287   6.035 -0.0377 -0.0045  0.1955
  157SAPE   H3R17429   2.884   6.355   5.950  2.7950 -1.6842 -2.1718
  157SAPE   H3S17430   2.818   6.277   6.097  0.4106 -2.1808  0.5825
  157SAPE   C2417431   2.940   6.146   5.981  0.2654 -0.8608 -0.2186
  157SAPE   H4R17432   2.988   6.095   6.067  1.0034 -1.6701 -1.0933
  157SAPE   H4S17433   3.023   6.147   5.908 -0.1355 -0.9899 -0.6803
  157SAPE   C2517434   2.813   6.072   5.938 -0.3226 -0.1143 -0.0541
  157SAPE   H5R17435   2.735   6.048   6.011 -0.0832 -1.3493 -0.1745
  157SAPE   C2617436   2.785   6.042   5.812 -0.3890 -0.0687  0.1467
  157SAPE   H6R17437   2.690   5.992   5.789 -1.2238  0.5022  2.1242
  157SAPE   C2717438   2.865   6.080   5.687 -0.2891 -0.0047 -0.1372
  157SAPE   H7R17439   2.868   5.993   5.617 -0.5962  1.2963 -1.8462
  157SAPE   H7S17440   2.969   6.105   5.717 -0.8422  3.0805 -0.4735
  157SAPE   C2817441   2.812   6.200   5.617 -0.2535  0.0653 -0.3499
  157SAPE   H8R17442   2.777   6.282   5.682 -2.4526 -1.3071  0.3369
  157SAPE   C2917443   2.810   6.209   5.484  0.1457  0.0525  0.2557
  157SAPE   H9R17444   2.779   6.299   5.428  0.3800  0.0251  0.0774
  157SAPE  C21017445   2.870   6.102   5.391  0.6771 -0.8867 -0.1162
  157SAPE  H10R17446   2.798   6.022   5.360 -0.4345 -0.2460  0.7612
  157SAPE  H10S17447   2.950   6.049   5.447 -0.8019 -3.0071  0.1098
  157SAPE  C21117448   2.916   6.177   5.268 -0.4415  0.8518 -0.2961
  157SAPE  H11R17449   2.974   6.269   5.284  1.2947 -0.2334  0.0379
  157SAPE  C21217450   2.910   6.136   5.144 -0.1004  0.0970 -0.8401
  157SAPE  H12R17451   2.968   6.193   5.071  1.0887  0.1016  0.0842
  157SAPE  C21317452   2.846   6.007   5.091 -0.3191  0.1036 -1.0167
  157SAPE  H13R17453   2.852   5.933   5.175  2.5880  0.8794 -0.4301
  157SAPE  H13S17454   2.924   5.982   5.015  0.4509 -2.7163  0.5409
  157SAPE  C21417455   2.706   6.008   5.027  0.2512  0.0079 -0.8343
  157SAPE  H14R17456   2.623   6.003   5.099 -1.7578  0.3995 -3.0009
  157SAPE  C21517457   2.678   6.013   4.896  0.1754 -0.9885 -0.1129
  157SAPE  H15R17458   2.574   6.021   4.861  0.2197  0.7547  0.0717
  157SAPE  C21617459   2.776   6.036   4.786  0.1377 -0.1534  0.4525
  157SAPE  H16R17460   2.867   6.084   4.826  1.7945 -2.6436 -0.0921
  157SAPE  H16S17461   2.725   6.107   4.716  0.7411  3.1616  3.1432
  157SAPE  C21717462   2.824   5.919   4.690  0.4089 -0.7897  0.1787
  157SAPE  H17R17463   2.887   5.972   4.616  0.9322  0.3898  1.4230
  157SAPE  H17S17464   2.733   5.884   4.638  0.2009 -1.5880  1.0390
  157SAPE  C21817465   2.903   5.810   4.757  0.4607  0.5260  0.2331
  157SAPE  H18R17466   2.835   5.758   4.828  2.4415 -0.6336  1.3680
  157SAPE  H18S17467   2.992   5.852   4.808  1.1891 -2.2770  1.4663
  157SAPE  C21917468   2.931   5.690   4.662  0.1550  0.7300  0.1609
  157SAPE  H19R17469   2.832   5.675   4.615  0.9413 -0.5246 -1.1781
  157SAPE  H19S17470   2.963   5.607   4.728  0.3931  0.5564 -0.1712
  157SAPE  C22017471   3.035   5.722   4.554 -0.4326  0.1604 -0.5384
  157SAPE  H20R17472   2.995   5.798   4.484 -1.1010 -0.2800 -0.6429
  157SAPE  H20S17473   3.067   5.638   4.489  4.5457  0.2203  1.3954
  157SAPE  H20T17474   3.126   5.760   4.604 -2.2905  0.8079  2.6170
  157SAPE   C3317475   2.714   6.929   5.920  0.3134  0.0428  0.8712
  157SAPE   H3X17476   2.698   6.989   6.012  0.1944  0.8245  0.3497
  157SAPE   H3Y17477   2.617   6.900   5.873 -0.6306  0.4702  2.4611
  157SAPE   C3417478   2.776   7.033   5.816  0.3885 -0.2780  0.3178
  157SAPE   H4X17479   2.874   7.055   5.863  1.7676 -0.8279 -2.1652
  157SAPE   H4Y17480   2.717   7.126   5.801  1.0414  0.4653  2.0615
  157SAPE   C3517481   2.787   6.962   5.680 -0.0479  0.1534  0.1113
  157SAPE   H5X17482   2.771   6.854   5.696  1.2448 -0.0365  0.2449
  157SAPE   H5Y17483   2.887   6.997   5.647 -0.6061 -0.5028 -2.4906
  157SAPE   C3617484   2.686   7.026   5.590 -0.0068  0.2688  0.1241
  157SAPE   H6X17485   2.706   7.135   5.583 -1.4359  0.5442  0.0551
  157SAPE   H6Y17486   2.579   7.005   5.610 -0.5863  1.4553 -1.5207
  157SAPE   C3717487   2.696   6.972   5.444 -0.0889  0.6508  0.3240
  157SAPE   H7X17488   2.680   6.863   5.431  1.1561  0.5387 -0.3435
  157SAPE   H7Y17489   2.799   6.994   5.409  1.1276  0.2012  3.3247
  157SAPE   C3817490   2.604   7.038   5.352 -0.8547  0.1035 -0.3706
  157SAPE   H8X17491   2.620   7.147   5.360 -0.1935  0.1655 -2.1481
  157SAPE   H8Y17492   2.501   7.000   5.370  0.0495 -1.9565  0.7840
  157SAPE   C3917493   2.648   7.006   5.211 -0.1487 -0.4027 -0.1548
  157SAPE   H9X17494   2.658   6.896   5.195 -1.2634 -0.1047 -3.8514
  157SAPE   H9Y17495   2.741   7.064   5.190  0.3031 -1.6903 -2.0299
  157SAPE  C31017496   2.550   7.059   5.096 -0.2965  0.2890  0.6540
  157SAPE  H10X17497   2.542   7.169   5.107 -1.0057  0.1697  1.3944
  157SAPE  H10Y17498   2.446   7.022   5.108  0.2410 -1.7418 -0.4406
  157SAPE  C31117499   2.584   7.023   4.948 -0.1920 -0.8162  0.5940
  157SAPE  H11X17500   2.596   6.913   4.939 -0.9130 -0.8599  0.0108
  157SAPE  H11Y17501   2.677   7.071   4.913 -2.0681  1.7648 -1.2124
  157SAPE  C31217502   2.468   7.054   4.858  0.1698 -0.0408 -0.2258
  157SAPE  H12X17503   2.427   7.155   4.880 -2.1733 -0.8776 -0.4921
  157SAPE  H12Y17504   2.390   6.978   4.879 -0.1207  0.0336 -1.0245
  157SAPE  C31317505   2.491   7.039   4.709  1.0010 -1.3276  0.6467
  157SAPE  H13X17506   2.548   6.947   4.684 -0.6834 -1.9655 -1.0566
  157SAPE  H13Y17507   2.549   7.124   4.665 -0.8246 -1.6547 -2.6534
  157SAPE  C31417508   2.362   7.031   4.626  0.5570 -0.1000 -0.8277
  157SAPE  H14X17509   2.297   7.116   4.657  0.0085 -0.6383 -0.4702
  157SAPE  H14Y17510   2.306   6.940   4.658 -0.5315  0.1690 -1.8935
  157SAPE  C31517511   2.365   7.036   4.470  0.2868  0.1274  0.3850
  157SAPE  H15X17512   2.264   7.000   4.440  0.9864 -1.8847  0.3269
  157SAPE  H15Y17513   2.438   6.959   4.439  0.1479 -0.3161  1.1366
  157SAPE  C31617514   2.394   7.172   4.416 -0.1514 -0.3916  0.2550
  157SAPE  H16X17515   2.492   7.213   4.449 -0.2875 -0.2677  0.5051
  157SAPE  H16Y17516   2.314   7.247   4.433 -0.5304 -0.4543 -1.1161
  157SAPE  C31717517   2.396   7.174   4.261 -0.2258  1.0543 -0.5642
  157SAPE  H17X17518   2.299   7.149   4.213 -0.8506  3.4164 -0.6401
  157SAPE  H17Y17519   2.475   7.102   4.230  2.2639  2.5020  1.9636
  157SAPE  C31817520   2.427   7.318   4.199 -0.6301  0.3654  0.2767
  157SAPE  H18X17521   2.408   7.324   4.090  2.7619  1.3702 -0.3859
  157SAPE  H18Y17522   2.535   7.339   4.217 -0.7106  1.3310 -0.2723
  157SAPE  H18Z17523   2.372   7.398   4.254  0.3372  1.5899 -0.4821
  158SAPE     N17524   5.749   4.751   6.928 -0.0964 -0.5940  0.3899
  158SAPE   HN117525   5.659   4.717   6.967 -0.6733  0.5143  0.0631
  158SAPE   HN217526   5.816   4.776   7.004  1.5144  1.4027 -1.5492
  158SAPE   HN317527   5.727   4.843   6.884  0.2248 -1.0770 -0.8179
  158SAPE   C1217528   5.800   4.644   6.832  0.7703  0.8308 -0.2818
  158SAPE  H12A17529   5.807   4.546   6.883 -2.7245 -0.7444 -2.4908
  158SAPE  H12B17530   5.900   4.683   6.803  0.7011  0.2660 -1.3276
  158SAPE   C1117531   5.694   4.645   6.722  0.0370 -0.0629  0.0414
  158SAPE  H11A17532   5.747   4.599   6.635 -0.1462 -0.1818 -0.0071
  158SAPE  H11B17533   5.670   4.747   6.687 -0.4296 -0.2472 -0.1821
  158SAPE     P17534   5.528   4.443   6.689 -0.4945  0.6405 -0.0480
  158SAPE   O1317535   5.645   4.351   6.689  0.6665  0.4672 -0.1143
  158SAPE   O1417536   5.402   4.411   6.762  0.3046  0.0133 -0.1351
  158SAPE   O1217537   5.574   4.575   6.761  0.0972  0.1677 -0.5714
  158SAPE   O1117538   5.510   4.488   6.541  0.3612  0.6922 -0.1459
  158SAPE    C117539   5.453   4.618   6.508 -0.3950  0.6146 -0.1476
  158SAPE    HA17540   5.373   4.647   6.580  0.0851  0.4959  0.4425
  158SAPE    HB17541   5.531   4.697   6.508 -0.5557  0.8149  1.5253
  158SAPE    C217542   5.379   4.624   6.369 -0.2513 -0.6276 -0.9705
  158SAPE    HS17543   5.380   4.733   6.348  2.6428 -0.8940 -2.8402
  158SAPE   O2117544   5.249   4.567   6.392  0.4592  0.5846  0.5589
  158SAPE   C2117545   5.157   4.617   6.314 -0.3186  0.1763 -0.0332
  158SAPE   O2217546   5.173   4.700   6.224  0.1013  0.3332  0.0679
  158SAPE   C2217547   5.039   4.528   6.322  0.2581 -0.4002  0.1649
  158SAPE   H2R17548   5.057   4.426   6.363 -2.4690 -1.8863 -1.9860
  158SAPE   H2S17549   4.972   4.571   6.400  0.4911 -1.1702  0.7987
  158SAPE    C317550   5.469   4.560   6.261 -0.4413  0.5486  0.3111
  158SAPE    HX17551   5.473   4.449   6.262  0.8070  0.5732 -0.1888
  158SAPE    HY17552   5.570   4.607   6.267  0.5771 -1.6347  1.3487
  158SAPE   O3117553   5.427   4.600   6.127  0.3628  0.2452  0.3773
  158SAPE   C3117554   5.349   4.512   6.064  0.2583 -0.0770 -0.6555
  158SAPE   O3217555   5.306   4.406   6.104 -0.5425 -0.2154  0.0896
  158SAPE   C3217556   5.320   4.558   5.928  0.9682 -0.4448 -0.6259
  158SAPE   H2X17557   5.260   4.652   5.932 -0.1714 -1.1856  0.8314
  158SAPE   H2Y17558   5.270   4.475   5.875  2.2319 -2.9869  1.8751
  158SAPE   C2317559   4.971   4.512   6.187 -0.0070 -0.1277 -0.3281
  158SAPE   H3R17560   5.038   4.445   6.129  0.0161  0.3990 -0.9200
  158SAPE   H3S17561   4.953   4.603   6.126  0.4479 -1.1524 -2.0542
  158SAPE   C2417562   4.841   4.435   6.205 -0.4164  0.5950 -0.6768
  158SAPE   H4R17563   4.867   4.348   6.270  1.2966  3.2680  2.5695
  158SAPE   H4S17564   4.820   4.391   6.106  1.9405 -0.5754 -0.7420
  158SAPE   C2517565   4.729   4.519   6.260 -0.7950  0.6349  0.5116
  158SAPE   H5R17566   4.769   4.599   6.324  3.5070  1.0616 -2.3230
  158SAPE   C2617567   4.599   4.509   6.211 -0.2068  0.1085 -0.1402
  158SAPE   H6R17568   4.520   4.575   6.249 -0.4578 -0.3147  0.0918
  158SAPE   C2717569   4.552   4.394   6.123  0.3333 -0.3018 -0.1757
  158SAPE   H7R17570   4.560   4.299   6.180  0.4637  1.0967  2.2573
  158SAPE   H7S17571   4.623   4.381   6.039  2.5448  0.4489  1.4950
  158SAPE   C2817572   4.410   4.403   6.063 -0.0286 -0.4054  0.5514
  158SAPE   H8R17573   4.347   4.469   6.125  1.4637  1.2558  0.3746
  158SAPE   C2917574   4.374   4.357   5.935 -0.0023  0.6463 -0.8846
  158SAPE   H9R17575   4.270   4.386   5.912 -0.9007 -1.2358  0.5216
  158SAPE  C21017576   4.460   4.282   5.841 -0.0849  0.1386  0.5679
  158SAPE  H10R17577   4.529   4.212   5.892  1.8881 -0.1881 -2.2544
  158SAPE  H10S17578   4.513   4.355   5.775 -0.0203 -0.1691  0.2775
  158SAPE  C21117579   4.364   4.199   5.759 -0.3962  0.6238  1.0362
  158SAPE  H11R17580   4.289   4.138   5.813 -1.7447  0.6785 -0.6691
  158SAPE  C21217581   4.356   4.190   5.621  0.0703 -0.1677  0.0920
  158SAPE  H12R17582   4.282   4.127   5.568  0.8094 -1.9740  1.1260
  158SAPE  C21317583   4.450   4.263   5.522  0.0066 -0.8318  0.0594
  158SAPE  H13R17584   4.470   4.207   5.428 -0.3902  1.8934 -1.7644
  158SAPE  H13S17585   4.551   4.255   5.567 -0.1765 -0.8231  0.4705
  158SAPE  C21417586   4.416   4.410   5.487 -0.3089  0.1073 -0.3908
  158SAPE  H14R17587   4.361   4.461   5.567  1.5218  1.3778  0.1108
  158SAPE  C21517588   4.451   4.481   5.376  0.3942  0.3938  0.2646
  158SAPE  H15R17589   4.412   4.583   5.363 -2.1961 -0.3630  1.4925
  158SAPE  C21617590   4.520   4.413   5.256  0.0208  0.9408 -0.0806
  158SAPE  H16R17591   4.453   4.335   5.214 -0.0372 -0.3938  2.3338
  158SAPE  H16S17592   4.612   4.361   5.290 -0.4947 -0.2622 -0.4445
  158SAPE  C21717593   4.560   4.523   5.149  0.2557  0.2042 -0.3389
  158SAPE  H17R17594   4.625   4.599   5.198 -0.5442  1.4263 -1.1199
  158SAPE  H17S17595   4.471   4.581   5.118  0.4962  0.8261  0.1264
  158SAPE  C21817596   4.620   4.462   5.024  0.0331  0.6959 -0.0287
  158SAPE  H18R17597   4.539   4.408   4.971  0.9029 -0.9014  0.1996
  158SAPE  H18S17598   4.695   4.386   5.054 -0.1946  1.2480  2.0826
  158SAPE  C21917599   4.679   4.569   4.935  0.0421 -0.3763 -0.0164
  158SAPE  H19R17600   4.759   4.613   4.998  1.2904 -1.2372 -0.9549
  158SAPE  H19S17601   4.596   4.640   4.916  0.4596 -0.3650 -2.0410
  158SAPE  C22017602   4.735   4.522   4.803 -0.6316  0.0171  0.4154
  158SAPE  H20R17603   4.670   4.442   4.763  0.6588  0.0073 -1.8803
  158SAPE  H20S17604   4.835   4.474   4.809 -0.0622  0.8835 -1.3970
  158SAPE  H20T17605   4.749   4.600   4.725  2.8772  2.5156  3.1949
  158SAPE   C3317606   5.452   4.577   5.851 -0.0622 -1.4126 -0.0338
  158SAPE   H3X17607   5.494   4.474   5.850  1.3962 -0.8582  0.7037
  158SAPE   H3Y17608   5.521   4.654   5.892 -2.9406  1.6591 -0.5210
  158SAPE   C3417609   5.436   4.610   5.695  0.4964 -0.3965 -0.5979
  158SAPE   H4X17610   5.381   4.521   5.657  2.2527 -1.4187 -0.8603
  158SAPE   H4Y17611   5.541   4.607   5.659  0.6885 -1.0253 -0.0066
  158SAPE   C3517612   5.369   4.745   5.655  0.1845  0.0144 -0.1689
  158SAPE   H5X17613   5.429   4.832   5.690  1.2515 -0.6781 -0.2062
  158SAPE   H5Y17614   5.268   4.746   5.701 -0.5817  0.7438 -1.8071
  158SAPE   C3617615   5.346   4.771   5.512 -0.0336  0.4080 -0.5516
  158SAPE   H6X17616   5.294   4.865   5.485 -0.5378  0.2423 -0.1838
  158SAPE   H6Y17617   5.281   4.690   5.471 -1.3128 -0.8140  3.3917
  158SAPE   C3717618   5.480   4.783   5.440 -0.7552 -0.2140 -0.6975
  158SAPE   H7X17619   5.547   4.695   5.451  1.0542  1.0119 -1.4004
  158SAPE   H7Y17620   5.545   4.863   5.482 -0.3776  1.0383 -3.4477
  158SAPE   C3817621   5.457   4.816   5.289  0.6698 -0.6258 -0.2801
  158SAPE   H8X17622   5.412   4.918   5.293  0.2192 -0.8344  0.0581
  158SAPE   H8Y17623   5.388   4.740   5.248  0.9582 -0.6081 -0.7980
  158SAPE   C3917624   5.592   4.796   5.208  0.4249 -1.2999 -0.1894
  158SAPE   H9X17625   5.627   4.693   5.227  2.6671 -0.6115 -0.2693
  158SAPE   H9Y17626   5.669   4.862   5.254  0.0528  1.0709 -2.6763
  158SAPE  C31017627   5.591   4.820   5.056  0.5037  0.3515  0.0377
  158SAPE  H10X17628   5.515   4.747   5.020 -0.5686  1.0780  0.7764
  158SAPE  H10Y17629   5.696   4.817   5.020  0.9549  2.0709  1.0622
  158SAPE  C31117630   5.534   4.961   5.023 -0.0515 -0.2977 -0.1619
  158SAPE  H11X17631   5.584   5.045   5.076 -1.3391  0.6170 -0.3457
  158SAPE  H11Y17632   5.427   4.966   5.051  0.0513  1.2664  0.0755
  158SAPE  C31217633   5.555   4.992   4.871 -0.0670  0.1508 -0.3044
  158SAPE  H12X17634   5.491   4.941   4.796  0.4600  0.3126 -0.8850
  158SAPE  H12Y17635   5.661   4.967   4.845  0.1513  0.5618  0.1849
  158SAPE  C31317636   5.539   5.141   4.838 -0.0465 -0.4418 -0.4566
  158SAPE  H13X17637   5.618   5.204   4.885 -0.2585  0.1728 -0.9211
  158SAPE  H13Y17638   5.443   5.180   4.878  1.0724  2.0326  0.0067
  158SAPE  C31417639   5.542   5.181   4.685  0.2107  0.5090  0.1746
  158SAPE  H14X17640   5.457   5.124   4.643  0.6553 -1.6774  2.0381
  158SAPE  H14Y17641   5.633   5.136   4.640 -0.9454  0.9165 -2.8466
  158SAPE  C31517642   5.533   5.334   4.655  0.5453 -0.3350  0.0549
  158SAPE  H15X17643   5.598   5.394   4.723 -0.7529 -0.9042  1.8714
  158SAPE  H15Y17644   5.430   5.360   4.687  0.2454  0.1291 -1.1990
  158SAPE  C31617645   5.588   5.370   4.513 -0.4070  0.3102 -0.8724
  158SAPE  H16X17646   5.687   5.323   4.498  0.3957  1.6882 -0.0738
  158SAPE  H16Y17647   5.603   5.479   4.502 -1.8573  0.5566 -0.6844
  158SAPE  C31717648   5.494   5.324   4.401 -0.3989  0.7443  0.5280
  158SAPE  H17X17649   5.448   5.230   4.438  2.6497 -0.4015  1.7269
  158SAPE  H17Y17650   5.553   5.296   4.312  0.0119 -0.0631  1.0440
  158SAPE  C31817651   5.380   5.414   4.357 -0.1395 -0.5344  0.5384
  158SAPE  H18X17652   5.319   5.426   4.449 -0.0345 -1.2904  0.7069
  158SAPE  H18Y17653   5.324   5.356   4.280  1.6098  1.6589 -2.6393
  158SAPE  H18Z17654   5.427   5.508   4.320 -0.8449 -0.8049 -1.1616
  159SAPE     N17655   0.882   3.343   1.851 -0.4388  0.2419  0.1822
  159SAPE   HN117656   0.880   3.442   1.882 -0.4626  0.3730 -0.2378
  159SAPE   HN217657   0.928   3.334   1.758 -2.3029 -0.2559 -0.7414
  159SAPE   HN317658   0.782   3.313   1.850 -0.0947 -1.0842  1.4715
  159SAPE   C1217659   0.972   3.260   1.944  0.4757  0.2401 -0.3090
  159SAPE  H12A17660   1.069   3.314   1.953  0.2488  0.4996  0.7742
  159SAPE  H12B17661   0.986   3.160   1.898 -0.1656 -1.6758  3.2929
  159SAPE   C1117662   0.901   3.235   2.077  0.6001  0.9028  0.4258
  159SAPE  H11A17663   0.915   3.328   2.136 -0.4037  0.6104  1.1682
  159SAPE  H11B17664   0.962   3.158   2.129  0.8364  1.1801  0.5595
  159SAPE     P17665   0.704   3.065   1.998  0.4712  0.1180 -0.4749
  159SAPE   O1317666   0.612   3.099   1.893 -0.0338  0.2768 -0.0354
  159SAPE   O1417667   0.809   2.966   1.959  0.4524  0.0243  0.0202
  159SAPE   O1217668   0.768   3.202   2.054  0.2587  0.0613  0.6068
  159SAPE   O1117669   0.611   3.015   2.114 -0.0319  0.1930  0.0055
  159SAPE    C117670   0.510   3.101   2.177  0.1641 -0.4321 -0.0802
  159SAPE    HA17671   0.513   3.204   2.137 -0.8997 -0.9275 -1.5237
  159SAPE    HB17672   0.410   3.059   2.154 -0.1174  0.5876 -0.7785
  159SAPE    C217673   0.521   3.095   2.330  0.3919 -0.4261 -0.2061
  159SAPE    HS17674   0.436   3.157   2.364  0.8422 -0.2971  0.7329
  159SAPE   O2117675   0.645   3.152   2.379 -0.1768  0.6036  0.0675
  159SAPE   C2117676   0.646   3.282   2.388 -0.5718 -0.6563  0.0463
  159SAPE   O2217677   0.559   3.359   2.346  0.3029  0.9913 -0.6896
  159SAPE   C2217678   0.774   3.330   2.454 -0.2825  0.2372 -0.7531
  159SAPE   H2R17679   0.811   3.252   2.524 -1.7395 -0.7039 -1.0003
  159SAPE   H2S17680   0.843   3.359   2.372  1.0706 -0.0266  0.2504
  159SAPE    C317681   0.505   2.946   2.389  0.3938 -0.1950 -0.1909
  159SAPE    HX17682   0.586   2.883   2.347  1.8635  1.3739  0.1932
  159SAPE    HY17683   0.405   2.901   2.370  1.3334 -2.5245  0.1051
  159SAPE   O3117684   0.510   2.959   2.532 -0.1123 -0.7786  0.3951
  159SAPE   C3117685   0.636   2.950   2.579 -0.0994 -0.0795 -0.4645
  159SAPE   O3217686   0.736   2.914   2.515  0.5267  0.3965 -0.3053
  159SAPE   C3217687   0.651   3.002   2.726 -0.1306 -0.0470  0.7443
  159SAPE   H2X17688   0.547   3.000   2.766 -0.9220 -0.2751 -1.1836
  159SAPE   H2Y17689   0.646   3.113   2.724 -2.7067 -0.0826  1.3077
  159SAPE   C2317690   0.756   3.458   2.542 -0.0936  0.3984 -0.5907
  159SAPE   H3R17691   0.671   3.435   2.610  0.0714 -1.4700 -0.9525
  159SAPE   H3S17692   0.721   3.539   2.475 -0.1575  1.0581  0.2251
  159SAPE   C2417693   0.870   3.501   2.637 -0.7223 -0.6959  0.7924
  159SAPE   H4R17694   0.842   3.601   2.675 -1.2560 -0.6024  0.1768
  159SAPE   H4S17695   0.960   3.520   2.574 -0.8710  0.3427  0.8787
  159SAPE   C2517696   0.917   3.400   2.743 -0.4092 -0.4313  0.0233
  159SAPE   H5R17697   1.003   3.338   2.713  0.2565  0.6141 -0.3013
  159SAPE   C2617698   0.851   3.371   2.855  0.0581 -0.8929  0.5327
  159SAPE   H6R17699   0.888   3.299   2.930 -1.4465 -0.3821  1.8152
  159SAPE   C2717700   0.716   3.427   2.895  0.7994 -0.1110  0.2095
  159SAPE   H7R17701   0.657   3.479   2.816 -0.6670  2.4527  2.8019
  159SAPE   H7S17702   0.726   3.512   2.966 -0.0520  0.1760  0.0015
  159SAPE   C2817703   0.630   3.325   2.956 -0.0883 -0.0182 -0.5323
  159SAPE   H8R17704   0.601   3.240   2.892  3.2525  1.5849 -4.6654
  159SAPE   C2917705   0.581   3.333   3.081  0.5524 -0.1322 -0.4178
  159SAPE   H9R17706   0.531   3.245   3.125 -0.2541  0.2224 -0.5927
  159SAPE  C21017707   0.602   3.433   3.193  0.2137 -0.7257  0.0954
  159SAPE  H10R17708   0.633   3.528   3.144  0.7840 -0.6224  0.6512
  159SAPE  H10S17709   0.679   3.407   3.268  0.6907  5.1661  2.2065
  159SAPE  C21117710   0.469   3.471   3.259 -0.3682  0.0968 -0.1972
  159SAPE  H11R17711   0.394   3.514   3.190 -1.7359 -2.4485 -0.3954
  159SAPE  C21217712   0.442   3.457   3.391 -0.2903  0.8242  0.5753
  159SAPE  H12R17713   0.361   3.514   3.440 -0.2247  1.8723 -0.4872
  159SAPE  C21317714   0.536   3.386   3.490  0.0259  0.0811 -0.2198
  159SAPE  H13R17715   0.525   3.440   3.587 -2.9114  0.5747 -0.7219
  159SAPE  H13S17716   0.641   3.409   3.463 -0.1869  0.6531 -0.5848
  159SAPE  C21417717   0.530   3.235   3.493  0.3889 -0.7109  0.3144
  159SAPE  H14R17718   0.527   3.179   3.398 -2.3849 -1.9729  1.0492
  159SAPE  C21517719   0.511   3.164   3.603 -0.8847 -0.1446  0.5296
  159SAPE  H15R17720   0.516   3.054   3.592  2.0169  0.0378 -1.2982
  159SAPE  C21617721   0.511   3.206   3.751 -0.2383  0.8809 -0.0977
  159SAPE  H16R17722   0.411   3.172   3.785 -0.4816 -0.1702 -1.8029
  159SAPE  H16S17723   0.514   3.317   3.759  1.0288  0.8463  0.1175
  159SAPE  C21717724   0.634   3.162   3.837 -0.0277  0.4599  0.9968
  159SAPE  H17R17725   0.729   3.190   3.786 -0.4465  0.2919  0.1123
  159SAPE  H17S17726   0.643   3.052   3.849 -0.2473  0.4672  1.2354
  159SAPE  C21817727   0.609   3.213   3.986  0.1887 -0.2331  0.1545
  159SAPE  H18R17728   0.505   3.180   4.006 -0.4463  0.8233 -1.2626
  159SAPE  H18S17729   0.615   3.323   3.980  0.6175  0.0211  3.5584
  159SAPE  C21917730   0.695   3.151   4.095 -0.0406  0.0046 -0.9082
  159SAPE  H19R17731   0.679   3.042   4.109 -1.2932  0.1124 -1.3554
  159SAPE  H19S17732   0.664   3.191   4.194 -0.2090  0.1229 -1.0088
  159SAPE  C22017733   0.844   3.176   4.077 -0.4385 -0.4868  0.3257
  159SAPE  H20R17734   0.889   3.122   3.991  1.8816 -2.4576  2.6011
  159SAPE  H20S17735   0.906   3.139   4.162  1.1414 -1.2707 -1.1124
  159SAPE  H20T17736   0.873   3.281   4.055  1.8170 -1.2669 -0.7469
  159SAPE   C3317737   0.766   2.946   2.812  0.0162  0.0389  0.7376
  159SAPE   H3X17738   0.858   3.004   2.788 -0.2320  0.9178  1.7972
  159SAPE   H3Y17739   0.775   2.837   2.795 -1.0224  0.3302 -2.2481
  159SAPE   C3417740   0.747   2.979   2.968 -0.0783  0.1853  0.6412
  159SAPE   H4X17741   0.708   3.082   2.979 -0.3015  0.2677 -0.6935
  159SAPE   H4Y17742   0.848   2.969   3.012  0.2541 -0.2523 -0.1868
  159SAPE   C3517743   0.655   2.878   3.037  0.8355  0.5377 -0.6927
  159SAPE   H5X17744   0.701   2.778   3.026  0.4009  0.2509  0.0628
  159SAPE   H5Y17745   0.551   2.870   2.997  1.3630  0.4141 -2.1142
  159SAPE   C3617746   0.634   2.907   3.185 -0.0563 -0.3811  0.1323
  159SAPE   H6X17747   0.600   3.012   3.201 -3.5848 -1.0660 -1.7365
  159SAPE   H6Y17748   0.738   2.898   3.224  1.5418  1.3079 -3.3178
  159SAPE   C3717749   0.539   2.814   3.257  0.3413 -0.6456 -0.3486
  159SAPE   H7X17750   0.564   2.707   3.246 -0.9287 -0.7520 -2.7322
  159SAPE   H7Y17751   0.440   2.832   3.209  0.1397  2.6721  0.9819
  159SAPE   C3817752   0.520   2.839   3.408 -0.7844 -0.5532 -0.3534
  159SAPE   H8X17753   0.489   2.945   3.422 -0.2706 -0.1796 -1.8640
  159SAPE   H8Y17754   0.618   2.822   3.458  1.2268  1.9576 -3.0292
  159SAPE   C3917755   0.407   2.752   3.464 -0.0803 -0.5210 -0.0380
  159SAPE   H9X17756   0.405   2.647   3.429 -1.7492 -0.2957 -0.7315
  159SAPE   H9Y17757   0.332   2.796   3.394  0.6134  0.6878 -0.0553
  159SAPE  C31017758   0.364   2.776   3.615  0.2374 -0.3384 -0.1849
  159SAPE  H10X17759   0.281   2.706   3.637 -1.4843  1.1389 -1.6397
  159SAPE  H10Y17760   0.318   2.878   3.617 -1.0844 -0.9026 -0.6841
  159SAPE  C31117761   0.481   2.767   3.709 -0.4956 -0.3169  0.2057
  159SAPE  H11X17762   0.548   2.855   3.696  2.4069 -2.3966 -0.1502
  159SAPE  H11Y17763   0.542   2.675   3.695 -0.1081  0.1358 -1.3295
  159SAPE  C31217764   0.442   2.798   3.854  0.8206 -0.1361 -0.2514
  159SAPE  H12X17765   0.389   2.895   3.861 -0.1223 -0.6044 -0.6682
  159SAPE  H12Y17766   0.529   2.829   3.916 -0.0806 -0.4782  1.2115
  159SAPE  C31317767   0.371   2.683   3.927  0.1235  0.3603 -0.2940
  159SAPE  H13X17768   0.279   2.664   3.868 -0.2283  0.5665  0.1798
  159SAPE  H13Y17769   0.341   2.712   4.030 -0.5523  1.7941 -0.8559
  159SAPE  C31417770   0.449   2.548   3.930 -0.1416  0.1745 -0.0772
  159SAPE  H14X17771   0.557   2.554   3.953 -0.1441  0.2322 -0.0786
  159SAPE  H14Y17772   0.434   2.495   3.834  0.1733  2.6606 -1.5984
  159SAPE  C31517773   0.377   2.451   4.032  0.5991 -0.1584  0.0084
  159SAPE  H15X17774   0.372   2.507   4.128 -0.5852  0.0963 -0.1803
  159SAPE  H15Y17775   0.433   2.358   4.055 -0.3387 -0.7912 -0.2170
  159SAPE  C31617776   0.240   2.425   3.976 -0.7202  0.0005  0.0457
  159SAPE  H16X17777   0.242   2.384   3.873 -2.0818  0.3364 -0.1368
  159SAPE  H16Y17778   0.181   2.518   3.965 -0.5695  0.0942  0.0200
  159SAPE  C31717779   0.148   2.315   4.057 -0.4101  0.5229 -0.4035
  159SAPE  H17X17780   0.211   2.230   4.091 -1.5094 -0.5456 -0.9502
  159SAPE  H17Y17781   0.065   2.262   4.008 -1.1618 -0.7763  2.0902
  159SAPE  C31817782   0.096   2.392   4.185 -0.3549 -0.1236  0.1406
  159SAPE  H18X17783   0.030   2.478   4.159 -2.4876 -1.8066 -0.3859
  159SAPE  H18Y17784   0.188   2.426   4.238  1.8995 -1.2632 -2.7925
  159SAPE  H18Z17785   0.037   2.323   4.250 -0.8024  1.0539  1.0220
  160SAPE     N17786   4.403   2.454   2.122  0.1007 -0.1366  0.2396
  160SAPE   HN117787   4.489   2.400   2.102 -1.0713 -2.5790  1.3275
  160SAPE   HN217788   4.387   2.523   2.046  4.9506  1.3999  0.3045
  160SAPE   HN317789   4.413   2.511   2.208 -0.4201 -0.0774  0.2652
  160SAPE   C1217790   4.300   2.344   2.126 -0.5783 -0.0595 -0.3537
  160SAPE  H12A17791   4.205   2.391   2.091 -2.5295 -1.8830  2.1494
  160SAPE  H12B17792   4.293   2.313   2.232  0.5255  0.5004 -0.1038
  160SAPE   C1117793   4.344   2.237   2.022 -0.3545 -0.3264  0.6770
  160SAPE  H11A17794   4.266   2.159   2.007  1.8544 -2.2968 -1.3539
  160SAPE  H11B17795   4.418   2.170   2.071 -2.1117 -0.0355  4.0635
  160SAPE     P17796   4.552   2.265   1.857  0.0570  0.0440 -0.2882
  160SAPE   O1317797   4.587   2.123   1.846 -0.1283  0.3229 -0.2747
  160SAPE   O1417798   4.588   2.365   1.755 -0.1300 -0.1643 -0.2918
  160SAPE   O1217799   4.404   2.278   1.897 -0.5307 -0.3346  0.2266
  160SAPE   O1117800   4.612   2.318   1.992  0.3995  0.3881 -0.3849
  160SAPE    C117801   4.744   2.271   2.030  0.4287  0.4366 -0.2374
  160SAPE    HA17802   4.814   2.274   1.944  0.6032 -0.6986 -0.1394
  160SAPE    HB17803   4.787   2.350   2.094 -1.1375  1.4652 -0.3829
  160SAPE    C217804   4.736   2.148   2.123 -0.0861 -0.3693  0.7611
  160SAPE    HS17805   4.664   2.081   2.071  1.7274  0.8733 -3.9633
  160SAPE   O2117806   4.701   2.183   2.257  0.2834 -0.1506 -0.7965
  160SAPE   C2117807   4.694   2.087   2.352  0.5219 -0.0370 -0.0796
  160SAPE   O2217808   4.679   1.971   2.323 -0.1285 -0.0306 -0.6214
  160SAPE   C2217809   4.684   2.152   2.490 -0.4063 -0.0405  0.1077
  160SAPE   H2R17810   4.679   2.080   2.574  0.4763  1.5488  1.5910
  160SAPE   H2S17811   4.782   2.204   2.497 -1.1736  1.6754 -1.2658
  160SAPE    C317812   4.874   2.083   2.116 -0.4129 -0.2776 -0.4352
  160SAPE    HX17813   4.912   2.079   2.011 -1.3704  2.2944 -0.9592
  160SAPE    HY17814   4.868   1.980   2.156 -1.2112  1.1665  3.6586
  160SAPE   O3117815   4.963   2.148   2.214  0.0629  0.2312 -0.3960
  160SAPE   C3117816   5.083   2.183   2.172 -0.4585 -0.0962  0.6540
  160SAPE   O3217817   5.134   2.162   2.067 -0.3233  0.0870 -0.0531
  160SAPE   C3217818   5.142   2.279   2.279 -0.5084  0.9260 -0.3011
  160SAPE   H2X17819   5.157   2.381   2.238  2.5959  0.6072 -0.1526
  160SAPE   H2Y17820   5.245   2.242   2.294 -0.9806 -0.0135  0.7801
  160SAPE   C2317821   4.571   2.256   2.499 -0.0487  0.1416  0.3037
  160SAPE   H3R17822   4.473   2.209   2.473  1.4830 -3.8885  1.0317
  160SAPE   H3S17823   4.579   2.335   2.421  3.2340  1.6996  2.0370
  160SAPE   C2417824   4.551   2.343   2.632  0.2430 -0.2093  0.3243
  160SAPE   H4R17825   4.516   2.285   2.719  1.4642  0.5448  1.3576
  160SAPE   H4S17826   4.470   2.416   2.611  1.4047  1.7260  2.1826
  160SAPE   C2517827   4.676   2.417   2.661 -0.5772  1.0193  0.5808
  160SAPE   H5R17828   4.717   2.478   2.580  1.9079 -1.5038 -0.2224
  160SAPE   C2617829   4.745   2.415   2.776 -0.2048  0.5121 -0.2589
  160SAPE   H6R17830   4.839   2.473   2.780  0.0821  0.1190 -0.9909
  160SAPE   C2717831   4.714   2.332   2.899  1.0799  0.1117 -0.1193
  160SAPE   H7R17832   4.615   2.349   2.946  1.8247 -0.6350  1.7888
  160SAPE   H7S17833   4.785   2.366   2.977  1.4818  1.9117 -1.2048
  160SAPE   C2817834   4.715   2.182   2.887 -0.1238 -0.2429  0.6189
  160SAPE   H8R17835   4.645   2.140   2.814 -1.3408  1.3371  0.8200
  160SAPE   C2917836   4.794   2.100   2.959 -0.0610  0.5996 -0.4541
  160SAPE   H9R17837   4.795   1.991   2.950 -0.9496  0.5118  0.3150
  160SAPE  C21017838   4.894   2.149   3.061 -0.0448  0.1701  0.6584
  160SAPE  H10R17839   4.940   2.250   3.052  2.3875 -0.8761  0.5133
  160SAPE  H10S17840   4.985   2.085   3.048 -0.7222 -0.5833 -0.5841
  160SAPE  C21117841   4.839   2.132   3.195  0.1111  0.2352 -0.0098
  160SAPE  H11R17842   4.729   2.129   3.195  0.0236  1.3886 -2.1941
  160SAPE  C21217843   4.895   2.152   3.310  0.0674  0.4210 -0.0062
  160SAPE  H12R17844   4.822   2.143   3.392 -1.3293  1.4267 -1.0787
  160SAPE  C21317845   5.039   2.177   3.340  0.8127  0.2002 -0.5704
  160SAPE  H13R17846   5.050   2.277   3.387  0.8831  0.3700 -0.9473
  160SAPE  H13S17847   5.091   2.170   3.242  1.5668  0.4317 -0.1941
  160SAPE  C21417848   5.091   2.073   3.434  0.0227 -0.0720  0.8812
  160SAPE  H14R17849   5.155   1.996   3.389 -0.1049 -0.4929  1.4031
  160SAPE  C21517850   5.082   2.081   3.570 -0.2923 -0.2124  0.1742
  160SAPE  H15R17851   5.144   2.001   3.614 -1.0991 -0.3391  1.0946
  160SAPE  C21617852   4.997   2.175   3.651 -0.3436  0.3082  0.4156
  160SAPE  H16R17853   4.926   2.228   3.585  0.6860  1.6658  0.3655
  160SAPE  H16S17854   5.051   2.262   3.693  0.8458 -0.1311 -0.1411
  160SAPE  C21717855   4.920   2.086   3.742 -0.3479  0.8768 -0.0814
  160SAPE  H17R17856   4.857   2.006   3.698 -0.7714 -0.7471  3.1386
  160SAPE  H17S17857   4.845   2.154   3.788 -2.2350 -0.5885 -0.8418
  160SAPE  C21817858   4.999   2.033   3.866 -0.1210 -0.2790 -0.5361
  160SAPE  H18R17859   5.077   2.108   3.890  0.5671 -1.7598  2.2767
  160SAPE  H18S17860   5.058   1.942   3.842 -0.9943 -1.1266  0.3975
  160SAPE  C21917861   4.910   1.993   3.981  0.4367 -0.0330  0.3870
  160SAPE  H19R17862   4.832   1.920   3.951 -0.2945  0.1237  1.8553
  160SAPE  H19S17863   4.850   2.083   4.006  1.0709  0.7749 -0.8761
  160SAPE  C22017864   4.994   1.944   4.097 -0.0067  0.1515 -0.3934
  160SAPE  H20R17865   5.032   1.842   4.072  0.1032  0.1732 -0.3165
  160SAPE  H20S17866   4.933   1.940   4.190  1.2586 -0.5155  0.4530
  160SAPE  H20T17867   5.078   2.006   4.136 -0.5861  0.1858  0.8504
  160SAPE   C3317868   5.059   2.295   2.408 -0.0491  0.1420 -0.8249
  160SAPE   H3X17869   5.033   2.191   2.438 -1.3117  0.2138 -1.6258
  160SAPE   H3Y17870   4.959   2.343   2.402  0.8593  2.1621 -0.7480
  160SAPE   C3417871   5.148   2.366   2.517  0.1889 -0.3276 -0.0950
  160SAPE   H4X17872   5.127   2.475   2.514  0.5768 -0.1538  2.0163
  160SAPE   H4Y17873   5.254   2.337   2.506  0.6836 -0.5053  3.8552
  160SAPE   C3517874   5.103   2.323   2.654  0.1689  0.0564  0.4622
  160SAPE   H5X17875   5.114   2.213   2.649  3.3126  0.3274 -0.5655
  160SAPE   H5Y17876   4.997   2.349   2.675  0.3077 -0.9835  2.6912
  160SAPE   C3617877   5.187   2.378   2.766 -0.5171 -0.1550 -0.5234
  160SAPE   H6X17878   5.295   2.359   2.747 -0.6194 -1.4086  0.0540
  160SAPE   H6Y17879   5.155   2.316   2.853 -1.3460  0.5157 -0.3388
  160SAPE   C3717880   5.167   2.525   2.796  0.2115  0.5837 -0.7831
  160SAPE   H7X17881   5.064   2.565   2.785 -0.0531  0.0754 -0.2447
  160SAPE   H7Y17882   5.233   2.586   2.732 -1.0910 -0.0917 -2.8801
  160SAPE   C3817883   5.201   2.555   2.941  0.5031  0.0145  0.5167
  160SAPE   H8X17884   5.185   2.664   2.952 -0.2092  0.0421 -0.6400
  160SAPE   H8Y17885   5.310   2.543   2.959  0.2667 -2.3046  0.7588
  160SAPE   C3917886   5.130   2.473   3.048  0.4750 -0.4762  0.0803
  160SAPE   H9X17887   5.182   2.381   3.081  0.7168 -0.5028 -0.3724
  160SAPE   H9Y17888   5.031   2.441   3.009  0.2209 -2.3807  2.0817
  160SAPE  C31017889   5.104   2.536   3.193  0.5454  0.1165  0.3895
  160SAPE  H10X17890   5.051   2.459   3.253  0.3684 -0.7841 -0.8910
  160SAPE  H10Y17891   5.049   2.633   3.190  1.8772  0.8754 -0.8369
  160SAPE  C31117892   5.231   2.565   3.265  0.1155 -0.0752  0.0584
  160SAPE  H11X17893   5.288   2.653   3.228 -1.4649  0.9151 -0.1388
  160SAPE  H11Y17894   5.292   2.474   3.248 -0.2896 -0.3145 -0.1265
  160SAPE  C31217895   5.202   2.585   3.416 -0.3459  0.4161 -0.5086
  160SAPE  H12X17896   5.135   2.503   3.449  1.4860 -1.8351 -2.0407
  160SAPE  H12Y17897   5.165   2.685   3.444  1.1082  0.6154  0.8532
  160SAPE  C31317898   5.325   2.562   3.504  0.2056 -0.1765 -0.2539
  160SAPE  H13X17899   5.396   2.647   3.507  1.0501 -0.8199 -1.2781
  160SAPE  H13Y17900   5.381   2.479   3.455  1.2519  1.3471 -1.7378
  160SAPE  C31417901   5.292   2.515   3.651 -1.2167 -0.3228 -0.1758
  160SAPE  H14X17902   5.208   2.443   3.652 -1.2253 -0.4864  3.9353
  160SAPE  H14Y17903   5.258   2.606   3.704  0.6007  0.5202 -0.3681
  160SAPE  C31517904   5.412   2.464   3.728  0.9156 -0.1459 -0.1091
  160SAPE  H15X17905   5.460   2.554   3.772 -0.6628  1.0470 -0.7064
  160SAPE  H15Y17906   5.480   2.412   3.657 -1.7819 -2.5580 -1.1369
  160SAPE  C31617907   5.370   2.360   3.833 -0.8468 -0.3482 -0.1634
  160SAPE  H16X17908   5.465   2.311   3.862  0.2774  1.9555  0.2672
  160SAPE  H16Y17909   5.308   2.282   3.784 -1.1736  0.7972 -1.6233
  160SAPE  C31717910   5.304   2.413   3.958  0.4186  0.4035  0.5076
  160SAPE  H17X17911   5.199   2.429   3.926 -0.2137 -0.1826  2.1830
  160SAPE  H17Y17912   5.358   2.501   3.997 -0.7541  1.4109 -0.0838
  160SAPE  C31817913   5.300   2.309   4.072  0.0440 -0.3182  0.7779
  160SAPE  H18X17914   5.250   2.214   4.045  1.1960 -1.1309  1.4314
  160SAPE  H18Y17915   5.245   2.356   4.157  1.1129  0.6243  0.9687
  160SAPE  H18Z17916   5.401   2.273   4.100  0.1347  0.4059  1.4129
  161SAPE     N17917   2.171   5.574   1.550 -0.1295  0.0990  0.4854
  161SAPE   HN117918   2.215   5.507   1.484 -0.5419 -2.0042  2.2101
  161SAPE   HN217919   2.142   5.516   1.632 -0.3698 -0.1136  0.2544
  161SAPE   HN317920   2.085   5.622   1.514  0.0805  1.3156  1.5151
  161SAPE   C1217921   2.270   5.679   1.595  0.1781 -0.9175 -0.6450
  161SAPE  H12A17922   2.287   5.750   1.511 -0.4581  2.5212  1.9135
  161SAPE  H12B17923   2.363   5.622   1.620 -0.3413 -1.8170 -0.7292
  161SAPE   C1117924   2.220   5.772   1.717  0.1060  0.6569  0.6997
  161SAPE  H11A17925   2.297   5.848   1.741  0.9708  0.4082 -1.0912
  161SAPE  H11B17926   2.214   5.704   1.805 -1.1720  0.2890  0.3494
  161SAPE     P17927   1.987   5.848   1.789 -0.1099  0.0629 -0.0650
  161SAPE   O1317928   1.930   5.981   1.764 -0.1641 -0.4710 -0.3796
  161SAPE   O1417929   1.891   5.734   1.782  0.3754 -0.4607 -0.4081
  161SAPE   O1217930   2.100   5.827   1.680  0.3155 -0.0516 -0.0281
  161SAPE   O1117931   2.049   5.857   1.941 -0.0419  0.2637  0.0450
  161SAPE    C117932   2.149   5.956   1.968 -0.2792  0.0882 -0.7971
  161SAPE    HA17933   2.206   5.976   1.875  0.2024  1.6897 -0.1974
  161SAPE    HB17934   2.117   6.056   2.004  0.2814  0.0866 -0.2735
  161SAPE    C217935   2.250   5.902   2.076  0.0653  0.5564 -0.4138
  161SAPE    HS17936   2.255   5.793   2.056  2.1943  0.4014  0.6867
  161SAPE   O2117937   2.203   5.936   2.202 -0.2256 -0.0419  0.2125
  161SAPE   C2117938   2.245   5.850   2.306 -0.5394 -0.7513  0.0236
  161SAPE   O2217939   2.311   5.753   2.289 -0.4439 -0.2062 -0.2955
  161SAPE   C2217940   2.206   5.919   2.439 -0.5960  0.6095 -0.6496
  161SAPE   H2R17941   2.306   5.925   2.487  0.3321  0.1628 -2.4345
  161SAPE   H2S17942   2.172   6.024   2.427 -0.4808  0.4844 -2.2216
  161SAPE    C317943   2.391   5.960   2.054  0.0443 -0.2819  0.0360
  161SAPE    HX17944   2.374   6.065   2.086 -1.1784  0.1301 -1.7842
  161SAPE    HY17945   2.418   5.970   1.946  0.9162 -1.6265  0.1057
  161SAPE   O3117946   2.496   5.897   2.136  0.0287  0.5446 -0.7768
  161SAPE   C3117947   2.550   5.791   2.073 -0.0742  0.4796  0.7584
  161SAPE   O3217948   2.514   5.742   1.968  0.4595 -0.1494 -0.0822
  161SAPE   C3217949   2.656   5.724   2.161 -0.1000 -0.7264  0.4786
  161SAPE   H2X17950   2.729   5.666   2.102  0.7947  0.3014  0.5457
  161SAPE   H2Y17951   2.604   5.649   2.225 -0.4216 -1.8018 -1.0132
  161SAPE   C2317952   2.102   5.836   2.518  0.1148 -0.0045  0.3080
  161SAPE   H3R17953   2.010   5.834   2.455  0.6283  0.5524 -0.4868
  161SAPE   H3S17954   2.078   5.891   2.612 -2.1464 -0.5144  0.0839
  161SAPE   C2417955   2.159   5.700   2.551  0.4153 -0.1594  0.1308
  161SAPE   H4R17956   2.256   5.724   2.600 -0.0663 -1.0960  1.6117
  161SAPE   H4S17957   2.177   5.645   2.456  2.9706  0.0661  0.4167
  161SAPE   C2517958   2.064   5.617   2.639 -0.0335 -0.2283  0.4000
  161SAPE   H5R17959   1.970   5.591   2.587 -0.4616  1.5997  0.1979
  161SAPE   C2617960   2.087   5.581   2.777  0.2103  0.2560  0.8763
  161SAPE   H6R17961   2.028   5.503   2.826  1.4919 -1.8317 -0.7210
  161SAPE   C2717962   2.204   5.614   2.864  0.2507 -0.4838  1.0210
  161SAPE   H7R17963   2.298   5.589   2.811 -0.7855 -1.9563 -0.2120
  161SAPE   H7S17964   2.202   5.559   2.961 -1.1814  1.5021  2.1901
  161SAPE   C2817965   2.220   5.762   2.893  0.3239 -0.6352 -0.9838
  161SAPE   H8R17966   2.249   5.831   2.812 -1.1691  0.7295 -0.4133
  161SAPE   C2917967   2.208   5.814   3.016 -0.1561  0.1277 -0.2343
  161SAPE   H9R17968   2.233   5.919   3.038  4.1428 -0.8284  0.3950
  161SAPE  C21017969   2.173   5.737   3.146  0.6010  0.0641  0.5625
  161SAPE  H10R17970   2.113   5.645   3.128  1.5265 -0.9541  2.4411
  161SAPE  H10S17971   2.101   5.797   3.207 -0.8520  2.1783 -2.9323
  161SAPE  C21117972   2.302   5.690   3.215 -0.2103 -0.0273 -0.2862
  161SAPE  H11R17973   2.388   5.681   3.147 -0.4468  2.9949 -1.1442
  161SAPE  C21217974   2.320   5.664   3.343  0.1878  0.0381 -0.1551
  161SAPE  H12R17975   2.417   5.634   3.386 -0.3442  0.9105  1.7771
  161SAPE  C21317976   2.216   5.712   3.439 -0.1513  0.4596 -0.1930
  161SAPE  H13R17977   2.115   5.692   3.397  0.4619 -0.5900 -1.2364
  161SAPE  H13S17978   2.230   5.821   3.456  0.5530  0.0357  2.2898
  161SAPE  C21417979   2.228   5.663   3.585 -0.5188  0.5666  0.6313
  161SAPE  H14R17980   2.298   5.580   3.604 -1.8586 -0.9522 -0.8045
  161SAPE  C21517981   2.161   5.720   3.682 -0.3741 -0.1655 -0.4569
  161SAPE  H15R17982   2.171   5.679   3.783  3.9535 -0.0834 -0.6524
  161SAPE  C21617983   2.067   5.834   3.667  0.1279  0.0196  0.0293
  161SAPE  H16R17984   1.973   5.808   3.721  0.3924 -0.7766  0.1145
  161SAPE  H16S17985   2.040   5.837   3.559  0.9296  0.7231 -0.1571
  161SAPE  C21717986   2.112   5.972   3.729 -0.4540 -0.1873 -0.1284
  161SAPE  H17R17987   2.043   6.049   3.688  1.7160  0.4743 -2.8826
  161SAPE  H17S17988   2.212   6.000   3.688 -1.0860  0.5209 -1.2281
  161SAPE  C21817989   2.113   5.987   3.883  0.2374  0.3520  0.0090
  161SAPE  H18R17990   2.200   5.931   3.925 -0.8112 -2.2492 -1.0888
  161SAPE  H18S17991   2.018   5.943   3.919  1.2219  0.4846  3.0700
  161SAPE  C21917992   2.135   6.134   3.923  0.0097  0.2382 -0.5059
  161SAPE  H19R17993   2.108   6.141   4.031  1.8497 -0.0178  0.0098
  161SAPE  H19S17994   2.066   6.203   3.869  0.7734  1.8129  0.4369
  161SAPE  C22017995   2.273   6.206   3.902  0.6008  0.2767  0.4363
  161SAPE  H20R17996   2.283   6.309   3.941 -1.9325  1.0462 -0.7368
  161SAPE  H20S17997   2.306   6.205   3.796  0.5964  1.7740  0.4061
  161SAPE  H20T17998   2.347   6.150   3.964  1.3046 -0.1990 -0.7972
  161SAPE   C3317999   2.734   5.813   2.258  0.2655 -0.2164  0.1247
  161SAPE   H3X18000   2.664   5.838   2.341 -1.6386 -0.7634 -1.2418
  161SAPE   H3Y18001   2.767   5.908   2.210  0.0688  0.6055  1.5598
  161SAPE   C3418002   2.849   5.743   2.331  0.3760 -0.7316  0.2490
  161SAPE   H4X18003   2.930   5.726   2.257 -0.5174 -0.3044 -0.8502
  161SAPE   H4Y18004   2.808   5.649   2.372 -1.6045 -0.0029  0.0269
  161SAPE   C3518005   2.903   5.821   2.452  0.6916  0.1973  1.1960
  161SAPE   H5X18006   2.825   5.844   2.528  0.9327 -0.4717  1.6553
  161SAPE   H5Y18007   2.944   5.921   2.424  0.5291 -0.2940 -0.8969
  161SAPE   C3618008   3.007   5.755   2.532  0.0739 -0.5576 -0.3037
  161SAPE   H6X18009   3.103   5.751   2.477  0.7371 -3.3648  0.8922
  161SAPE   H6Y18010   2.980   5.652   2.565 -0.9981 -0.0519  0.4588
  161SAPE   C3718011   3.032   5.832   2.663  0.6704 -0.2131  0.8575
  161SAPE   H7X18012   2.930   5.857   2.700  0.9338 -0.9284  2.0972
  161SAPE   H7Y18013   3.093   5.921   2.634  0.5224 -0.2606  0.3820
  161SAPE   C3818014   3.111   5.755   2.767 -0.2968  0.5099 -0.5943
  161SAPE   H8X18015   3.220   5.762   2.746 -0.6290  0.5453 -2.4254
  161SAPE   H8Y18016   3.076   5.650   2.755 -0.5535  0.3936  0.9686
  161SAPE   C3918017   3.086   5.796   2.913  0.0683 -0.2720 -0.4475
  161SAPE   H9X18018   2.978   5.784   2.934  0.2823 -0.4228  0.6277
  161SAPE   H9Y18019   3.120   5.902   2.920  2.2051 -1.0249  2.4820
  161SAPE  C31018020   3.161   5.718   3.022  0.1824  0.3737 -0.6012
  161SAPE  H10X18021   3.256   5.772   3.041 -0.1224 -0.2205  3.3944
  161SAPE  H10Y18022   3.174   5.614   2.985 -1.9323  0.3995 -1.5677
  161SAPE  C31118023   3.083   5.717   3.150 -0.0090  0.0046 -0.5931
  161SAPE  H11X18024   2.992   5.654   3.153 -0.6137  0.8539  2.9014
  161SAPE  H11Y18025   3.049   5.821   3.170 -1.5070 -0.4556 -0.6042
  161SAPE  C31218026   3.176   5.692   3.262 -0.3118  0.0235  0.0825
  161SAPE  H12X18027   3.261   5.762   3.250 -1.3732  1.1932 -0.7686
  161SAPE  H12Y18028   3.206   5.586   3.247 -0.3613 -0.0593  0.5503
  161SAPE  C31318029   3.105   5.720   3.397 -1.0421  0.7318  0.3246
  161SAPE  H13X18030   3.012   5.660   3.408 -0.0868 -0.3271  4.3051
  161SAPE  H13Y18031   3.090   5.830   3.405  0.4844  1.0035 -0.2981
  161SAPE  C31418032   3.189   5.665   3.509  0.3872  0.2642  0.2349
  161SAPE  H14X18033   3.293   5.702   3.494  0.3391  0.3664  0.1550
  161SAPE  H14Y18034   3.194   5.554   3.499  1.8305  0.4092 -1.0403
  161SAPE  C31518035   3.157   5.724   3.646  0.1554 -0.0933 -0.0140
  161SAPE  H15X18036   3.061   5.674   3.667 -0.1136  0.4370  0.0327
  161SAPE  H15Y18037   3.132   5.831   3.629 -0.9507 -0.3452 -0.0480
  161SAPE  C31618038   3.261   5.690   3.756 -0.6659 -0.0608  0.2722
  161SAPE  H16X18039   3.333   5.773   3.765 -0.0209 -0.7648  2.0512
  161SAPE  H16Y18040   3.315   5.599   3.724 -2.0701 -1.2437  1.1033
  161SAPE  C31718041   3.201   5.674   3.890  0.1496  0.2950 -0.6211
  161SAPE  H17X18042   3.270   5.638   3.969 -0.0665  0.9225 -0.1469
  161SAPE  H17Y18043   3.120   5.597   3.882 -1.7614  1.8824  2.0507
  161SAPE  C31818044   3.138   5.807   3.939 -0.1118 -0.0123 -0.6561
  161SAPE  H18X18045   3.080   5.781   4.031 -0.4771 -0.4649 -1.0097
  161SAPE  H18Y18046   3.078   5.857   3.861  0.5501  2.3212  0.2407
  161SAPE  H18Z18047   3.218   5.875   3.974  1.7287 -1.2681 -2.2014
  162SAPE     N18048   5.366   0.577   2.062  0.0628 -0.1008  0.0797
  162SAPE   HN118049   5.302   0.536   2.134  1.0984 -2.3551 -0.2070
  162SAPE   HN218050   5.372   0.508   1.985 -1.0886 -3.0628  2.4407
  162SAPE   HN318051   5.455   0.591   2.112 -0.5869  0.9547  0.9877
  162SAPE   C1218052   5.320   0.709   2.012 -0.1089 -0.0363  0.0680
  162SAPE  H12A18053   5.228   0.691   1.952 -0.1143  0.4974 -0.0874
  162SAPE  H12B18054   5.392   0.759   1.945 -0.9432  1.2571  0.0925
  162SAPE   C1118055   5.286   0.804   2.122  0.4587  0.1572 -0.2227
  162SAPE  H11A18056   5.245   0.900   2.084  1.0769  0.9825  1.0949
  162SAPE  H11B18057   5.378   0.844   2.171  0.8812 -1.7322  0.6006
  162SAPE     P18058   5.069   0.781   2.262 -0.0505 -0.1462 -0.0720
  162SAPE   O1318059   4.998   0.772   2.134  0.0540  0.1671 -0.3426
  162SAPE   O1418060   5.028   0.694   2.370  0.2698  0.1117 -0.1465
  162SAPE   O1218061   5.219   0.746   2.234  0.7345 -0.3763  0.1981
  162SAPE   O1118062   5.070   0.933   2.299  0.0798  0.2868  0.4469
  162SAPE    C118063   5.185   0.998   2.362 -0.1061  0.9426 -0.4336
  162SAPE    HA18064   5.287   0.967   2.331  0.7959  4.4216 -1.3755
  162SAPE    HB18065   5.165   1.104   2.339 -1.6291  0.7707 -0.0169
  162SAPE    C218066   5.177   0.986   2.519 -0.0584  0.3920  0.0997
  162SAPE    HS18067   5.174   0.879   2.548 -0.3617  0.6311  0.9900
  162SAPE   O2118068   5.054   1.051   2.556 -0.2383  0.2407 -0.0449
  162SAPE   C2118069   4.989   1.000   2.661 -0.0906 -0.5109  0.9431
  162SAPE   O2218070   5.027   0.901   2.721 -0.5398  0.5232 -0.6689
  162SAPE   C2218071   4.865   1.083   2.677 -0.0817 -0.4402 -0.5870
  162SAPE   H2R18072   4.895   1.186   2.706 -1.0599  0.3724 -2.2924
  162SAPE   H2S18073   4.809   1.094   2.581 -0.5944  0.5866 -0.1798
  162SAPE    C318074   5.307   1.056   2.582  0.5769  0.7466 -0.5106
  162SAPE    HX18075   5.328   1.155   2.534  1.7357  1.0529  0.5836
  162SAPE    HY18076   5.391   0.990   2.551  0.9935  2.2864 -2.9899
  162SAPE   O3118077   5.296   1.081   2.728 -0.2955 -0.0895  0.4353
  162SAPE   C3118078   5.332   0.980   2.804  0.5891 -0.7071 -0.0854
  162SAPE   O3218079   5.374   0.875   2.760 -0.0399  0.3924  0.2186
  162SAPE   C3218080   5.346   1.018   2.952  0.1713 -0.2085 -0.6726
  162SAPE   H2X18081   5.251   1.055   2.997  1.4033 -1.2022  3.1203
  162SAPE   H2Y18082   5.420   1.101   2.954  2.0857 -1.8575 -0.2385
  162SAPE   C2318083   4.771   1.029   2.792 -0.0888  0.4585 -0.5689
  162SAPE   H3R18084   4.714   0.943   2.752 -2.1744  2.1739 -1.5113
  162SAPE   H3S18085   4.691   1.106   2.802 -2.0545 -1.3694 -1.4896
  162SAPE   C2418086   4.834   1.000   2.929 -0.4399 -0.3697  0.1359
  162SAPE   H4R18087   4.896   1.091   2.943  0.5085 -0.3357 -3.3151
  162SAPE   H4S18088   4.899   0.911   2.919 -1.0657 -0.5402 -4.2246
  162SAPE   C2518089   4.729   0.970   3.034  0.4277 -0.3940 -0.3976
  162SAPE   H5R18090   4.659   0.886   3.020 -0.7016  0.5041 -0.2706
  162SAPE   C2618091   4.710   1.046   3.145  0.6464  0.7589 -0.6914
  162SAPE   H6R18092   4.647   0.993   3.218 -0.9757  2.1142 -1.0400
  162SAPE   C2718093   4.775   1.174   3.188 -0.0996 -0.0117 -0.4386
  162SAPE   H7R18094   4.701   1.218   3.259  1.1229  0.6511  0.4755
  162SAPE   H7S18095   4.791   1.239   3.100 -0.4927  1.6483  0.6756
  162SAPE   C2818096   4.909   1.156   3.259 -1.2242 -0.0430  0.7884
  162SAPE   H8R18097   4.977   1.083   3.214  1.1340  0.6724  2.9785
  162SAPE   C2918098   4.951   1.220   3.369 -0.2198  0.2399 -0.3468
  162SAPE   H9R18099   5.047   1.199   3.417 -0.7422 -2.1223 -0.2449
  162SAPE  C21018100   4.862   1.317   3.450  0.1050 -0.4699  0.9344
  162SAPE  H10R18101   4.871   1.302   3.560  2.5970 -0.5559  0.7741
  162SAPE  H10S18102   4.752   1.307   3.437  0.3933 -1.8265 -0.7791
  162SAPE  C21118103   4.898   1.463   3.419 -0.2333 -0.1359 -0.1271
  162SAPE  H11R18104   4.991   1.478   3.363 -0.6651 -1.9724 -1.4127
  162SAPE  C21218105   4.841   1.569   3.478  0.0017  0.3245 -0.0316
  162SAPE  H12R18106   4.864   1.673   3.451  0.2813  0.0210 -1.0025
  162SAPE  C21318107   4.724   1.553   3.576 -0.2036  0.1844  0.7326
  162SAPE  H13R18108   4.737   1.466   3.645 -0.8799  0.7496  1.6077
  162SAPE  H13S18109   4.637   1.526   3.513  0.7864  0.2191 -0.6822
  162SAPE  C21418110   4.705   1.685   3.644 -0.3890 -0.1861 -0.6247
  162SAPE  H14R18111   4.676   1.766   3.577 -1.3726  2.1224  2.3624
  162SAPE  C21518112   4.699   1.713   3.776 -0.0281 -0.2211  0.2505
  162SAPE  H15R18113   4.672   1.817   3.800 -2.3505 -0.2768 -1.7223
  162SAPE  C21618114   4.717   1.618   3.896  0.7427 -0.2466  1.0613
  162SAPE  H16R18115   4.801   1.650   3.963  0.7687  0.8569  0.5257
  162SAPE  H16S18116   4.715   1.510   3.869 -1.5300  0.2067 -0.8641
  162SAPE  C21718117   4.579   1.631   3.965  0.0595  0.2009 -0.7754
  162SAPE  H17R18118   4.500   1.583   3.903  0.3009 -2.0721  0.5762
  162SAPE  H17S18119   4.547   1.737   3.975  1.1670  0.7010 -2.2788
  162SAPE  C21818120   4.572   1.563   4.098  0.5415 -0.2225 -0.1476
  162SAPE  H18R18121   4.591   1.454   4.095  0.6390 -0.2302  0.5642
  162SAPE  H18S18122   4.465   1.563   4.128  1.1869  0.4713  2.4276
  162SAPE  C21918123   4.659   1.621   4.208 -0.0714  0.5061  0.0717
  162SAPE  H19R18124   4.647   1.729   4.228 -1.3773  0.0795  1.8714
  162SAPE  H19S18125   4.766   1.617   4.178 -0.1716  0.8451 -0.3379
  162SAPE  C22018126   4.656   1.535   4.342 -1.0715 -0.7703 -0.1388
  162SAPE  H20R18127   4.673   1.425   4.333  1.1073 -0.4420 -0.3629
  162SAPE  H20S18128   4.561   1.549   4.398  0.1329  0.9019  1.5986
  162SAPE  H20T18129   4.732   1.568   4.416 -1.0980 -1.6599  0.3020
  162SAPE   C3318130   5.399   0.905   3.048  0.0373  0.2776  0.1885
  162SAPE   H3X18131   5.489   0.862   3.000  0.4436  1.1611  0.1339
  162SAPE   H3Y18132   5.336   0.819   3.080  1.4417 -0.5396  0.8351
  162SAPE   C3418133   5.443   0.972   3.180 -0.3049  0.0765 -0.2491
  162SAPE   H4X18134   5.346   1.001   3.224  0.7951  2.2469  0.8848
  162SAPE   H4Y18135   5.493   1.070   3.164 -0.8453  0.5982  1.1317
  162SAPE   C3518136   5.529   0.879   3.268  0.9976 -1.0202  0.7734
  162SAPE   H5X18137   5.620   0.849   3.212  0.2643 -0.1357 -0.9734
  162SAPE   H5Y18138   5.465   0.791   3.287 -0.8747  0.1052 -0.0894
  162SAPE   C3618139   5.559   0.944   3.398  0.0201  0.0136 -0.7682
  162SAPE   H6X18140   5.603   1.045   3.383 -1.1899  0.6254 -0.3009
  162SAPE   H6Y18141   5.640   0.891   3.452  0.4210  0.2201 -1.1626
  162SAPE   C3718142   5.428   0.945   3.478 -0.3831 -0.8640  0.5687
  162SAPE   H7X18143   5.376   0.847   3.478  0.4629 -1.3649  2.4225
  162SAPE   H7Y18144   5.356   1.018   3.435  1.5299  0.3467 -0.7241
  162SAPE   C3818145   5.440   0.989   3.620 -0.3002  0.7438 -0.3067
  162SAPE   H8X18146   5.490   1.088   3.614  2.4439 -0.5015  0.6120
  162SAPE   H8Y18147   5.510   0.913   3.660  0.4943  2.2384  1.2389
  162SAPE   C3918148   5.305   0.984   3.688 -0.1714  0.7142 -0.0638
  162SAPE   H9X18149   5.327   0.959   3.794  1.2558 -0.7797 -0.6658
  162SAPE   H9Y18150   5.253   0.895   3.647  0.1741  0.9820 -1.1232
  162SAPE  C31018151   5.214   1.107   3.665 -0.0589  0.0571 -0.4889
  162SAPE  H10X18152   5.185   1.105   3.557 -1.7075  0.0336 -0.0707
  162SAPE  H10Y18153   5.265   1.203   3.691  0.6150  0.3614 -2.6550
  162SAPE  C31118154   5.077   1.102   3.731 -0.8413 -0.6656 -0.2853
  162SAPE  H11X18155   5.047   0.995   3.738  0.1801 -0.9087  0.6513
  162SAPE  H11Y18156   5.003   1.166   3.680  0.8652  1.2208 -0.5320
  162SAPE  C31218157   5.067   1.135   3.881  0.1062  0.7022  0.3841
  162SAPE  H12X18158   5.133   1.072   3.945 -0.6975 -0.6564 -0.0956
  162SAPE  H12Y18159   4.965   1.103   3.912  0.4656  0.7707  1.6952
  162SAPE  C31318160   5.080   1.285   3.908  0.3278 -0.1657 -0.1044
  162SAPE  H13X18161   5.014   1.345   3.842 -0.2524 -1.1647 -0.4598
  162SAPE  H13Y18162   5.184   1.318   3.887 -0.0749  1.1645 -0.1300
  162SAPE  C31418163   5.035   1.319   4.051 -0.0550  0.0279  0.1341
  162SAPE  H14X18164   5.100   1.270   4.127 -0.8406 -1.4880 -0.1325
  162SAPE  H14Y18165   4.933   1.278   4.065  0.2510 -0.6265  0.4694
  162SAPE  C31518166   5.044   1.472   4.084  0.2255 -0.9546 -0.5041
  162SAPE  H15X18167   4.983   1.535   4.016  2.1277  2.8849  1.0806
  162SAPE  H15Y18168   5.150   1.500   4.070  0.0277 -1.2178 -2.7988
  162SAPE  C31618169   5.012   1.510   4.230 -0.0359  0.4162 -0.3669
  162SAPE  H16X18170   4.907   1.501   4.266  0.6544  3.5547  3.0874
  162SAPE  H16Y18171   5.022   1.619   4.249 -1.3897  0.1585  2.3338
  162SAPE  C31718172   5.107   1.453   4.339 -0.5067  0.3482  0.3356
  162SAPE  H17X18173   5.210   1.484   4.310 -0.2179  1.0928  2.0934
  162SAPE  H17Y18174   5.097   1.343   4.332  2.6760  0.0384 -0.9836
  162SAPE  C31818175   5.069   1.492   4.478 -0.1836 -0.3931  0.0644
  162SAPE  H18X18176   4.962   1.478   4.505 -0.3465  0.5071 -0.0779
  162SAPE  H18Y18177   5.105   1.597   4.487  0.1828 -0.6732  2.6960
  162SAPE  H18Z18178   5.118   1.438   4.561 -1.4641 -0.1227  1.0365
  163SAPE     N18179   3.362   3.222   2.614  0.3493  0.5849 -0.3998
  163SAPE   HN118180   3.283   3.289   2.613  0.5722  0.8676  0.0624
  163SAPE   HN218181   3.340   3.121   2.604  1.2370  0.2282  0.8757
  163SAPE   HN318182   3.403   3.228   2.710 -0.6824  0.5934  0.0498
  163SAPE   C1218183   3.461   3.255   2.504  0.8058  0.0215  0.1907
  163SAPE  H12A18184   3.419   3.221   2.406 -0.5808 -2.6181  1.5957
  163SAPE  H12B18185   3.549   3.192   2.526 -0.0679 -0.5848  2.1290
  163SAPE   C1118186   3.491   3.406   2.514  1.1697  0.2761  0.3623
  163SAPE  H11A18187   3.577   3.421   2.445  0.3767 -0.2271 -0.7685
  163SAPE  H11B18188   3.521   3.438   2.616 -2.7230 -0.6376  2.0090
  163SAPE     P18189   3.379   3.629   2.429  0.0915  0.0050  0.5899
  163SAPE   O1318190   3.454   3.645   2.301 -0.5550  0.2052 -0.4993
  163SAPE   O1418191   3.241   3.684   2.442  0.1790  0.4352 -0.3139
  163SAPE   O1218192   3.374   3.473   2.470  0.2871  0.1723  0.7304
  163SAPE   O1118193   3.468   3.678   2.552 -0.0266  0.3370  0.5994
  163SAPE    C118194   3.477   3.817   2.585  0.6139  0.3733  0.2445
  163SAPE    HA18195   3.577   3.848   2.548  0.9712  0.6580  1.3865
  163SAPE    HB18196   3.399   3.877   2.533 -1.3210 -1.2204  1.1795
  163SAPE    C218197   3.464   3.836   2.741  0.5538 -0.4462 -0.4950
  163SAPE    HS18198   3.459   3.944   2.764 -0.1467 -0.2096 -1.6728
  163SAPE   O2118199   3.581   3.779   2.802  0.7460 -0.3199 -0.6737
  163SAPE   C2118200   3.696   3.823   2.788 -0.0554 -0.5614 -0.5082
  163SAPE   O2218201   3.729   3.932   2.748  0.3082 -0.2012 -0.0016
  163SAPE   C2218202   3.795   3.719   2.844 -0.8579 -0.6395  0.0211
  163SAPE   H2R18203   3.732   3.632   2.873 -0.8824 -1.0076 -1.0684
  163SAPE   H2S18204   3.857   3.680   2.760  0.3053 -2.6024  1.6641
  163SAPE    C318205   3.334   3.762   2.798 -0.5758 -0.4565  0.2567
  163SAPE    HX18206   3.353   3.657   2.768  1.8300  0.0825 -0.2689
  163SAPE    HY18207   3.256   3.812   2.735  0.3549 -0.7106 -1.1373
  163SAPE   O3118208   3.325   3.782   2.940  0.0740 -0.5568 -0.2926
  163SAPE   C3118209   3.392   3.694   3.019  0.2973  0.1411  0.0081
  163SAPE   O3218210   3.450   3.592   2.986 -0.0446 -0.3776 -0.3488
  163SAPE   C3218211   3.380   3.747   3.166 -0.7917 -0.1278 -0.8700
  163SAPE   H2X18212   3.284   3.715   3.213 -0.6546  0.1614 -0.3891
  163SAPE   H2Y18213   3.384   3.858   3.162 -0.4676 -0.1434 -0.9311
  163SAPE   C2318214   3.881   3.762   2.966  0.3101  0.3511 -0.1952
  163SAPE   H3R18215   3.817   3.762   3.057 -0.2285 -2.5882 -0.5023
  163SAPE   H3S18216   3.911   3.867   2.944 -1.9123  1.0990  0.1469
  163SAPE   C2418217   4.010   3.685   2.989  0.0040  0.2882  1.0762
  163SAPE   H4R18218   4.061   3.714   2.894 -4.0929 -1.3678 -1.8925
  163SAPE   H4S18219   4.001   3.575   2.977  0.0763  0.4620 -0.9331
  163SAPE   C2518220   4.089   3.722   3.111  0.2273 -0.4080  0.5172
  163SAPE   H5R18221   4.151   3.811   3.092 -1.4521  0.4486 -1.2975
  163SAPE   C2618222   4.076   3.675   3.236  0.0693  0.2183 -0.1683
  163SAPE   H6R18223   4.149   3.713   3.309 -0.5745  1.5126 -0.1758
  163SAPE   C2718224   4.000   3.557   3.286  0.4094 -0.6507  0.2472
  163SAPE   H7R18225   3.940   3.519   3.201  1.5337  0.2224 -0.9813
  163SAPE   H7S18226   3.946   3.582   3.380 -0.1951 -0.4924 -0.1368
  163SAPE   C2818227   4.093   3.442   3.319  0.7224  0.2405  0.6894
  163SAPE   H8R18228   4.127   3.389   3.229 -1.3835 -0.5285  0.2901
  163SAPE   C2918229   4.129   3.393   3.437 -0.4687 -0.1991  0.0548
  163SAPE   H9R18230   4.192   3.303   3.446  0.9147  0.9266  2.5133
  163SAPE  C21018231   4.088   3.455   3.567  0.0377  0.4618  0.3739
  163SAPE  H10R18232   4.037   3.373   3.622  0.1716 -0.5514 -0.9670
  163SAPE  H10S18233   4.022   3.543   3.553  0.1259  0.5069  0.2469
  163SAPE  C21118234   4.212   3.510   3.632 -0.0962  0.5215  0.3065
  163SAPE  H11R18235   4.275   3.574   3.569  0.5771 -0.6048 -0.1905
  163SAPE  C21218236   4.248   3.489   3.754  0.7754  0.0042 -0.9667
  163SAPE  H12R18237   4.348   3.524   3.784  0.8633  1.1127 -2.4354
  163SAPE  C21318238   4.158   3.418   3.864 -0.7003 -0.0474  0.0941
  163SAPE  H13R18239   4.055   3.460   3.853 -0.4994 -0.0711 -2.5262
  163SAPE  H13S18240   4.189   3.458   3.962  0.0797  1.9016 -0.8962
  163SAPE  C21418241   4.158   3.267   3.862  0.5898 -0.3251 -0.0915
  163SAPE  H14R18242   4.216   3.211   3.787 -1.8439 -0.9445 -1.6506
  163SAPE  C21518243   4.081   3.198   3.950  0.2153  0.0633  0.4825
  163SAPE  H15R18244   4.085   3.088   3.939  0.4062  0.2519 -1.8979
  163SAPE  C21618245   3.987   3.246   4.060 -0.1648  0.5064  0.2130
  163SAPE  H16R18246   3.894   3.188   4.079  0.1960  1.0056  4.7544
  163SAPE  H16S18247   3.943   3.346   4.037  1.7065  1.6459  1.2676
  163SAPE  C21718248   4.058   3.255   4.190 -0.0523 -0.2103  0.1367
  163SAPE  H17R18249   4.143   3.327   4.186 -0.1444 -0.1642 -1.5457
  163SAPE  H17S18250   4.101   3.154   4.209 -0.2793 -0.2503  0.4528
  163SAPE  C21818251   3.972   3.283   4.315  0.0993  0.2653  0.4376
  163SAPE  H18R18252   3.876   3.232   4.296 -0.1550  0.9361 -0.1285
  163SAPE  H18S18253   3.941   3.390   4.311  0.4424  0.3545  0.0546
  163SAPE  C21918254   4.046   3.243   4.440  0.3522  0.1875  0.5438
  163SAPE  H19R18255   4.149   3.283   4.448  0.0258  1.0730  0.3804
  163SAPE  H19S18256   4.061   3.133   4.451  2.3599  0.5360  1.9859
  163SAPE  C22018257   3.962   3.283   4.564  0.3463 -0.4675 -0.7999
  163SAPE  H20R18258   4.007   3.241   4.657  2.7707  1.2944 -1.0856
  163SAPE  H20S18259   3.853   3.263   4.551  0.1373  0.7701 -1.0337
  163SAPE  H20T18260   3.967   3.392   4.582  2.0773 -0.8253  1.2255
  163SAPE   C3318261   3.494   3.704   3.255  0.3053 -0.0176 -0.8716
  163SAPE   H3X18262   3.591   3.753   3.231 -0.5143  1.3352 -1.5883
  163SAPE   H3Y18263   3.509   3.594   3.255  0.0003 -0.1002 -3.2447
  163SAPE   C3418264   3.482   3.761   3.404  0.3604  0.3368  0.0150
  163SAPE   H4X18265   3.535   3.699   3.480 -2.7207 -0.6880  1.5098
  163SAPE   H4Y18266   3.378   3.748   3.441  0.3361 -0.1101 -0.2082
  163SAPE   C3518267   3.518   3.904   3.421  0.6717 -0.5421 -0.1060
  163SAPE   H5X18268   3.438   3.965   3.374 -0.8816 -0.4577  2.4657
  163SAPE   H5Y18269   3.616   3.921   3.372  1.3482 -0.0373  1.3628
  163SAPE   C3618270   3.520   3.944   3.567 -0.5892 -0.2342  0.0785
  163SAPE   H6X18271   3.575   3.869   3.629 -1.7413 -0.3378  1.0175
  163SAPE   H6Y18272   3.411   3.938   3.591 -0.0118 -0.9977  2.8661
  163SAPE   C3718273   3.597   4.081   3.592  0.1956  0.4090  0.1007
  163SAPE   H7X18274   3.570   4.143   3.504  0.7790 -1.2582 -1.3229
  163SAPE   H7Y18275   3.707   4.068   3.584  0.2150  0.3516  0.4350
  163SAPE   C3818276   3.555   4.149   3.720 -0.3521 -0.0021 -0.4035
  163SAPE   H8X18277   3.552   4.077   3.804  0.7459  2.9774  2.4083
  163SAPE   H8Y18278   3.452   4.190   3.716 -0.1945  0.4941  0.5625
  163SAPE   C3918279   3.670   4.251   3.766 -0.4747  1.3166  0.3240
  163SAPE   H9X18280   3.758   4.185   3.782 -2.2105 -1.3797 -0.6106
  163SAPE   H9Y18281   3.654   4.278   3.873 -1.0588  2.5862 -0.0666
  163SAPE  C31018282   3.701   4.374   3.680 -1.1619 -0.4677 -0.7677
  163SAPE  H10X18283   3.605   4.429   3.670 -1.4001 -0.3226  1.7602
  163SAPE  H10Y18284   3.735   4.331   3.584  2.4615  1.3942 -0.5116
  163SAPE  C31118285   3.807   4.464   3.742 -0.5279 -0.8695  0.0478
  163SAPE  H11X18286   3.760   4.483   3.841 -1.6211 -1.2332 -0.3853
  163SAPE  H11Y18287   3.824   4.551   3.676 -1.9800 -0.2787  0.4119
  163SAPE  C31218288   3.939   4.389   3.766  0.1964 -0.3514  0.2598
  163SAPE  H12X18289   3.962   4.346   3.666 -1.4481 -0.2961 -0.1894
  163SAPE  H12Y18290   3.927   4.307   3.839 -0.2790  0.8909  1.6317
  163SAPE  C31318291   4.052   4.487   3.806  0.1470 -0.3694 -0.2496
  163SAPE  H13X18292   4.074   4.563   3.728  0.8716 -1.1356 -0.8086
  163SAPE  H13Y18293   4.150   4.439   3.825  1.9107  2.7833 -0.6458
  163SAPE  C31418294   4.013   4.551   3.939  0.0763 -0.4989  0.4609
  163SAPE  H14X18295   3.937   4.480   3.978  0.5321 -1.2967 -0.0753
  163SAPE  H14Y18296   3.960   4.649   3.941  0.2154 -0.3709  3.7825
  163SAPE  C31518297   4.131   4.557   4.034 -0.1925 -0.4690  0.3172
  163SAPE  H15X18298   4.170   4.455   4.051  0.8637 -0.7493 -3.0640
  163SAPE  H15Y18299   4.106   4.596   4.135 -0.2385  0.9440 -0.2159
  163SAPE  C31618300   4.254   4.645   3.998  0.1552 -0.1604  0.5010
  163SAPE  H16X18301   4.233   4.751   4.025  1.3551  0.1320  0.3668
  163SAPE  H16Y18302   4.274   4.648   3.889 -2.8820 -1.0184 -0.1822
  163SAPE  C31718303   4.376   4.596   4.070  0.2236  0.0156 -0.8540
  163SAPE  H17X18304   4.457   4.672   4.065  1.7171 -1.0323  3.1577
  163SAPE  H17Y18305   4.415   4.503   4.024  0.3182 -0.0087 -0.7252
  163SAPE  C31818306   4.355   4.561   4.225 -0.2821 -0.2039 -0.2245
  163SAPE  H18X18307   4.285   4.477   4.242 -0.3661  0.4781  3.6931
  163SAPE  H18Y18308   4.303   4.644   4.278  0.3479 -0.9160  1.5656
  163SAPE  H18Z18309   4.449   4.538   4.279  0.3656  2.5040 -0.0668
  164SAPE     N18310   2.419   2.926   1.995  0.2596  0.0841 -0.3735
  164SAPE   HN118311   2.504   2.972   1.956  0.7723 -1.6507 -1.3933
  164SAPE   HN218312   2.382   2.969   2.082 -0.4812  0.7805 -1.0181
  164SAPE   HN318313   2.449   2.828   2.012  2.2642  0.8877  1.0972
  164SAPE   C1218314   2.314   2.936   1.887 -0.9317 -0.2258 -0.6375
  164SAPE  H12A18315   2.217   2.917   1.937 -0.1239 -1.3584  0.5759
  164SAPE  H12B18316   2.329   2.858   1.809 -0.0114 -0.9597  0.2520
  164SAPE   C1118317   2.327   3.071   1.823  0.2285  0.3702 -0.1140
  164SAPE  H11A18318   2.242   3.064   1.752  2.7236 -0.1259 -3.2435
  164SAPE  H11B18319   2.415   3.081   1.756  0.5377  0.0422  0.2427
  164SAPE     P18320   2.194   3.286   1.911  0.1372  0.2844 -0.1970
  164SAPE   O1318321   2.224   3.393   1.816 -0.2522 -0.0320  0.1788
  164SAPE   O1418322   2.063   3.213   1.904 -0.4287 -0.0234 -0.0497
  164SAPE   O1218323   2.313   3.182   1.920  0.1618  0.1108  0.1157
  164SAPE   O1118324   2.208   3.354   2.063 -0.3511  0.5930  0.2078
  164SAPE    C118325   2.245   3.269   2.171 -0.4559 -0.1481 -0.7288
  164SAPE    HA18326   2.257   3.161   2.145  1.0293  0.0836 -1.0920
  164SAPE    HB18327   2.340   3.299   2.220 -1.3836 -0.6142  1.5156
  164SAPE    C218328   2.148   3.279   2.293 -0.1234 -0.0642  0.4587
  164SAPE    HS18329   2.135   3.388   2.303  0.4383  0.0372  0.1171
  164SAPE   O2118330   2.208   3.232   2.416  0.3764  0.3664  0.1987
  164SAPE   C2118331   2.173   3.295   2.531  0.1307  0.0127  0.8979
  164SAPE   O2218332   2.099   3.393   2.532  0.6198 -0.2641 -0.5629
  164SAPE   C2218333   2.231   3.216   2.646  0.7179 -0.3333 -0.2473
  164SAPE   H2R18334   2.242   3.110   2.615  0.3520 -0.0859 -1.2760
  164SAPE   H2S18335   2.328   3.263   2.672 -0.5470  2.0662  0.4620
  164SAPE    C318336   2.014   3.213   2.255 -0.3235  0.4259  0.2930
  164SAPE    HX18337   2.040   3.106   2.241 -0.0211  0.3645  1.2974
  164SAPE    HY18338   1.985   3.257   2.157 -3.4529  0.4720  1.1075
  164SAPE   O3118339   1.911   3.223   2.354  0.3912  0.5003 -0.8774
  164SAPE   C3118340   1.845   3.339   2.345 -0.3960  0.1912 -0.5876
  164SAPE   O3218341   1.867   3.433   2.272 -0.1485  0.2004  0.0718
  164SAPE   C3218342   1.715   3.323   2.418 -0.2243  0.6002 -0.1739
  164SAPE   H2X18343   1.725   3.251   2.501  1.8930  1.1449  0.1129
  164SAPE   H2Y18344   1.646   3.282   2.341 -0.5315 -1.8471  1.3079
  164SAPE   C2318345   2.134   3.223   2.772  0.3936 -0.3461 -0.3310
  164SAPE   H3R18346   2.123   3.328   2.807  1.2300 -0.7911  1.3873
  164SAPE   H3S18347   2.199   3.189   2.856 -0.0432  1.4122  0.7829
  164SAPE   C2418348   1.995   3.150   2.762 -0.7360 -0.0182  0.0668
  164SAPE   H4R18349   2.018   3.055   2.709  2.2382  0.6886 -0.0561
  164SAPE   H4S18350   1.936   3.216   2.694 -1.4240  1.0887  1.6744
  164SAPE   C2518351   1.913   3.114   2.879  0.2511 -0.2046  0.3783
  164SAPE   H5R18352   1.963   3.050   2.953  1.5864  2.0802  1.5659
  164SAPE   C2618353   1.786   3.148   2.913 -0.3282  0.9485 -0.4461
  164SAPE   H6R18354   1.752   3.104   3.007  3.4280  2.2417  1.7548
  164SAPE   C2718355   1.681   3.230   2.837 -0.0434 -0.0104 -0.5294
  164SAPE   H7R18356   1.710   3.248   2.731  1.5910 -0.9919 -0.2794
  164SAPE   H7S18357   1.695   3.332   2.878  1.7900  0.6601 -2.5855
  164SAPE   C2818358   1.532   3.190   2.829 -0.4950 -0.1767 -0.4822
  164SAPE   H8R18359   1.504   3.117   2.752  0.3083 -0.5286 -0.4570
  164SAPE   C2918360   1.448   3.202   2.930 -0.7875  0.0467 -0.6422
  164SAPE   H9R18361   1.342   3.180   2.909 -1.3358  0.8862  1.0248
  164SAPE  C21018362   1.460   3.273   3.068  0.2454 -0.1026 -0.2068
  164SAPE  H10R18363   1.382   3.353   3.074  0.8309  0.4045  1.0999
  164SAPE  H10S18364   1.554   3.333   3.069 -0.2805  0.9068 -2.8722
  164SAPE  C21118365   1.466   3.192   3.200 -0.1726  0.8762 -0.2138
  164SAPE  H11R18366   1.502   3.088   3.191  2.9518  1.6298  1.6611
  164SAPE  C21218367   1.435   3.234   3.331  0.6503 -0.2418 -0.0697
  164SAPE  H12R18368   1.427   3.159   3.410  0.0351 -0.0785  0.0256
  164SAPE  C21318369   1.387   3.372   3.375 -0.0125  0.0057  0.1234
  164SAPE  H13R18370   1.335   3.377   3.473  0.9922  1.9549  0.6087
  164SAPE  H13S18371   1.307   3.389   3.300  2.3206  0.0828 -2.5080
  164SAPE  C21418372   1.493   3.482   3.367  0.4649  0.6731 -0.7715
  164SAPE  H14R18373   1.563   3.484   3.282  0.2267 -2.8747 -1.1751
  164SAPE  C21518374   1.513   3.569   3.468  0.3606 -0.2344  0.9639
  164SAPE  H15R18375   1.585   3.651   3.457 -2.0480  2.4798  3.6380
  164SAPE  C21618376   1.439   3.577   3.598  0.4812  0.3149  0.2697
  164SAPE  H16R18377   1.487   3.499   3.661  1.9413 -0.1805 -1.3979
  164SAPE  H16S18378   1.331   3.551   3.599  0.9010 -1.6427  1.2589
  164SAPE  C21718379   1.456   3.722   3.652  0.3645  0.4887 -0.1094
  164SAPE  H17R18380   1.410   3.794   3.581  0.3266 -0.5360 -1.1652
  164SAPE  H17S18381   1.562   3.754   3.653 -0.0977  2.1098  1.0108
  164SAPE  C21818382   1.383   3.745   3.785  0.3569 -0.8010  0.4768
  164SAPE  H18R18383   1.276   3.725   3.763 -0.0148  1.3041  0.1581
  164SAPE  H18S18384   1.387   3.849   3.825  0.5804 -0.2292 -0.9846
  164SAPE  C21918385   1.403   3.646   3.895 -0.6937  0.6717 -0.3264
  164SAPE  H19R18386   1.513   3.647   3.914 -0.0791  4.2388 -2.8799
  164SAPE  H19S18387   1.386   3.542   3.859  0.1927  0.5791 -0.5267
  164SAPE  C22018388   1.307   3.662   4.012  0.3411  0.0733  0.0946
  164SAPE  H20R18389   1.315   3.760   4.063  1.9658  1.1941 -2.1259
  164SAPE  H20S18390   1.342   3.600   4.097 -2.1992 -1.8200 -0.1138
  164SAPE  H20T18391   1.203   3.629   3.988  0.7496 -1.7002  0.6026
  164SAPE   C3318392   1.672   3.459   2.481  0.2184  0.5677 -0.3513
  164SAPE   H3X18393   1.566   3.441   2.509  0.2677  0.3705 -0.2917
  164SAPE   H3Y18394   1.671   3.542   2.407 -0.6813  0.7418 -0.1578
  164SAPE   C3418395   1.751   3.519   2.601 -0.0204  0.0240  0.6512
  164SAPE   H4X18396   1.847   3.567   2.573 -0.3266  0.0035 -0.4881
  164SAPE   H4Y18397   1.779   3.439   2.673  0.4154 -2.2595 -1.9300
  164SAPE   C3518398   1.672   3.613   2.695  0.1110  0.2625  0.4427
  164SAPE   H5X18399   1.577   3.570   2.731 -0.3794  1.1904  0.2825
  164SAPE   H5Y18400   1.644   3.707   2.642 -0.1575 -0.9600 -1.6932
  164SAPE   C3618401   1.756   3.652   2.820 -0.3420 -0.1364 -0.0713
  164SAPE   H6X18402   1.838   3.720   2.790 -0.6697  0.0928 -0.4547
  164SAPE   H6Y18403   1.808   3.558   2.849  0.5741 -0.1335 -1.5994
  164SAPE   C3718404   1.674   3.695   2.947 -0.5147  0.0812  0.6969
  164SAPE   H7X18405   1.635   3.611   3.009 -3.8768  1.1423  0.2057
  164SAPE   H7Y18406   1.582   3.746   2.910 -0.9052  0.7159  2.4266
  164SAPE   C3818407   1.758   3.793   3.038  0.0935 -0.4660 -0.9116
  164SAPE   H8X18408   1.782   3.885   2.979  0.3105  0.0500 -0.0318
  164SAPE   H8Y18409   1.858   3.754   3.064 -0.0069 -1.1730 -1.5472
  164SAPE   C3918410   1.677   3.842   3.163 -0.4605 -0.4412  1.0414
  164SAPE   H9X18411   1.623   3.751   3.198  0.1957 -1.5393 -0.6880
  164SAPE   H9Y18412   1.599   3.918   3.142 -2.1880 -2.1308  0.9930
  164SAPE  C31018413   1.760   3.882   3.291 -0.0957 -0.3831  0.6230
  164SAPE  H10X18414   1.687   3.908   3.369 -0.2920 -0.9003  0.6160
  164SAPE  H10Y18415   1.828   3.967   3.265 -2.2433  0.7468 -1.7753
  164SAPE  C31118416   1.845   3.764   3.347  0.4631 -0.5286 -0.4226
  164SAPE  H11X18417   1.917   3.727   3.271 -2.1272 -2.4753 -2.0846
  164SAPE  H11Y18418   1.768   3.687   3.368  1.9849 -1.8107  0.7514
  164SAPE  C31218419   1.918   3.790   3.480 -0.1232  0.0172  0.2177
  164SAPE  H12X18420   1.869   3.733   3.562 -0.4808 -1.1607 -0.7789
  164SAPE  H12Y18421   1.926   3.891   3.524  1.0505 -0.7406  1.8306
  164SAPE  C31318422   2.066   3.744   3.484 -0.2371  0.0478  0.4787
  164SAPE  H13X18423   2.140   3.819   3.449  1.1234 -1.1455  0.6899
  164SAPE  H13Y18424   2.086   3.652   3.425  1.6914 -0.8327  2.3571
  164SAPE  C31418425   2.102   3.705   3.627  0.3398  0.1960  0.3725
  164SAPE  H14X18426   2.033   3.620   3.650  1.8962 -0.6327  2.2761
  164SAPE  H14Y18427   2.073   3.794   3.687 -0.6976 -0.2678  0.5917
  164SAPE  C31518428   2.245   3.662   3.652  0.6458  0.0862  0.2740
  164SAPE  H15X18429   2.295   3.725   3.728 -0.2000 -0.2084  1.0999
  164SAPE  H15Y18430   2.296   3.688   3.557 -1.6092  0.3501 -0.9461
  164SAPE  C31618431   2.272   3.520   3.677  0.0617  0.5426  0.6154
  164SAPE  H16X18432   2.194   3.490   3.751  1.2240 -0.0000  1.6443
  164SAPE  H16Y18433   2.374   3.511   3.719  0.0660  1.0110  0.7165
  164SAPE  C31718434   2.271   3.429   3.555 -0.2627 -1.1470 -0.4227
  164SAPE  H17X18435   2.321   3.485   3.473 -0.9768 -0.5650 -0.4718
  164SAPE  H17Y18436   2.166   3.414   3.520 -0.1765 -1.2276 -0.6494
  164SAPE  C31818437   2.326   3.289   3.585  1.0358 -0.0173 -0.4996
  164SAPE  H18X18438   2.294   3.265   3.689 -2.3140 -0.1459 -1.4459
  164SAPE  H18Y18439   2.436   3.302   3.586  0.9230  1.0272  0.2834
  164SAPE  H18Z18440   2.292   3.214   3.510  1.1333 -2.6723  1.9551
  165SAPE     N18441   6.279   5.242   1.871 -0.3590  0.1425 -0.2943
  165SAPE   HN118442   6.372   5.288   1.879 -0.4592  0.2833  0.0461
  165SAPE   HN218443   6.281   5.147   1.914 -1.6228  0.2487  0.0215
  165SAPE   HN318444   6.263   5.228   1.769  0.0653  0.7769 -0.4568
  165SAPE   C1218445   6.178   5.313   1.955  0.3784  0.0443  0.1497
  165SAPE  H12A18446   6.127   5.370   1.874 -0.2197 -0.6807  0.0017
  165SAPE  H12B18447   6.227   5.372   2.034  1.3879 -1.0365  0.3515
  165SAPE   C1118448   6.081   5.218   2.031 -0.0405  0.5105  1.3276
  165SAPE  H11A18449   5.999   5.263   2.091 -0.7969 -0.7193  1.2603
  165SAPE  H11B18450   6.149   5.161   2.097  1.0590 -0.7833 -0.7989
  165SAPE     P18451   5.880   5.097   1.900  0.1066  0.0321 -0.2502
  165SAPE   O1318452   5.822   5.225   1.841 -0.2278  0.4193  0.5345
  165SAPE   O1418453   5.864   4.975   1.819 -0.0763 -0.5592  0.0348
  165SAPE   O1218454   6.036   5.114   1.943  0.0674 -0.3971  0.0290
  165SAPE   O1118455   5.797   5.085   2.032  0.1420  0.6394 -0.3498
  165SAPE    C118456   5.829   4.991   2.140  0.0733  0.1113 -0.4546
  165SAPE    HA18457   5.812   4.887   2.103  0.9869 -0.1384 -0.1963
  165SAPE    HB18458   5.935   4.982   2.172  0.0861 -4.2462 -1.1067
  165SAPE    C218459   5.745   5.008   2.269 -0.5553 -0.0651 -0.5750
  165SAPE    HS18460   5.770   4.924   2.336  0.1811  0.5174 -0.1048
  165SAPE   O2118461   5.603   5.013   2.249 -0.0764  0.3491 -0.2536
  165SAPE   C2118462   5.556   4.901   2.191  0.1209  0.2030  0.4452
  165SAPE   O2218463   5.614   4.792   2.207  0.2571 -0.1472 -0.1624
  165SAPE   C2218464   5.410   4.922   2.153 -0.2109 -0.1999 -0.1919
  165SAPE   H2R18465   5.403   5.028   2.119  1.6577  0.8452  2.3296
  165SAPE   H2S18466   5.371   4.850   2.079 -2.2197  0.4468  0.1573
  165SAPE    C318467   5.787   5.132   2.357  0.2990  0.2029  0.5037
  165SAPE    HX18468   5.763   5.216   2.287  3.6582  0.1412 -0.9060
  165SAPE    HY18469   5.898   5.127   2.361  0.4408  0.6669 -1.6768
  165SAPE   O3118470   5.729   5.127   2.489 -0.0631  0.3967  0.5225
  165SAPE   C3118471   5.623   5.200   2.514 -0.2087  0.3892 -0.1360
  165SAPE   O3218472   5.578   5.294   2.454  0.1053 -0.0682  0.2502
  165SAPE   C3218473   5.565   5.151   2.647  0.4269 -0.4366  0.2958
  165SAPE   H2X18474   5.640   5.165   2.728  0.4327  1.8029 -0.0239
  165SAPE   H2Y18475   5.541   5.043   2.636 -1.5065 -0.0051 -0.1533
  165SAPE   C2318476   5.308   4.891   2.273 -0.6407 -0.3867 -0.0187
  165SAPE   H3R18477   5.320   4.782   2.294 -2.1767 -0.0296  3.6693
  165SAPE   H3S18478   5.204   4.894   2.232 -0.5080 -1.2238 -0.4366
  165SAPE   C2418479   5.341   4.986   2.383  0.0493 -0.4666  0.1767
  165SAPE   H4R18480   5.365   5.082   2.332  0.8474 -1.6513 -1.7910
  165SAPE   H4S18481   5.434   4.944   2.428  0.6372  1.4424  0.8872
  165SAPE   C2518482   5.242   4.996   2.497 -0.4501  0.1040  0.2813
  165SAPE   H5R18483   5.174   5.082   2.498 -2.3542 -1.3145  1.9233
  165SAPE   C2618484   5.233   4.913   2.601  0.3255 -0.7295  0.4947
  165SAPE   H6R18485   5.156   4.941   2.673 -0.5586 -1.6076 -0.0771
  165SAPE   C2718486   5.308   4.788   2.632  0.2283  0.6376 -0.6334
  165SAPE   H7R18487   5.407   4.827   2.665  1.2501  0.2095 -3.0132
  165SAPE   H7S18488   5.310   4.725   2.541 -1.4102  0.1899 -0.3806
  165SAPE   C2818489   5.234   4.709   2.742  0.5733 -0.6546  0.4577
  165SAPE   H8R18490   5.194   4.614   2.706 -0.7840  1.0097 -2.8796
  165SAPE   C2918491   5.235   4.729   2.878 -0.5566 -0.1903 -0.7647
  165SAPE   H9R18492   5.180   4.664   2.948  0.8963 -0.2166  0.4032
  165SAPE  C21018493   5.299   4.842   2.951 -0.5178 -0.8097 -0.0746
  165SAPE  H10R18494   5.232   4.907   3.012  1.9429  1.1915  0.6599
  165SAPE  H10S18495   5.362   4.908   2.889  0.1171 -2.3857 -1.1680
  165SAPE  C21118496   5.410   4.790   3.037  0.4209 -0.2823 -0.1174
  165SAPE  H11R18497   5.479   4.722   2.987 -0.2675 -1.3289  0.3222
  165SAPE  C21218498   5.440   4.815   3.167  0.2995 -0.2299 -0.0293
  165SAPE  H12R18499   5.535   4.775   3.205  1.1001  0.2200 -1.4635
  165SAPE  C21318500   5.361   4.907   3.256 -0.0622 -0.4452  0.0851
  165SAPE  H13R18501   5.337   4.856   3.352  0.7024  0.1255  0.5829
  165SAPE  H13S18502   5.262   4.938   3.215 -0.4750 -2.6066 -0.7211
  165SAPE  C21418503   5.445   5.036   3.283  0.0708 -0.1959  0.0756
  165SAPE  H14R18504   5.488   5.079   3.191  1.6002 -2.5674 -0.4148
  165SAPE  C21518505   5.471   5.091   3.403  1.0132 -0.2394  0.0620
  165SAPE  H15R18506   5.527   5.185   3.410  2.0582 -0.8397 -0.0015
  165SAPE  C21618507   5.406   5.056   3.534  0.4156 -0.3272  0.6666
  165SAPE  H16R18508   5.343   4.964   3.533 -1.7065  1.0503  1.3221
  165SAPE  H16S18509   5.345   5.143   3.567 -0.6121 -1.2658  1.3379
  165SAPE  C21718510   5.512   5.021   3.646  0.2204 -0.1801  0.1207
  165SAPE  H17R18511   5.592   4.957   3.603 -1.0989 -1.3319 -0.7089
  165SAPE  H17S18512   5.449   4.959   3.714 -0.4704  0.0328 -0.3122
  165SAPE  C21818513   5.570   5.148   3.707 -0.0418  0.0164 -0.9757
  165SAPE  H18R18514   5.487   5.222   3.719  2.2504  2.4967  0.8246
  165SAPE  H18S18515   5.644   5.193   3.638  1.4238  2.7730  2.1023
  165SAPE  C21918516   5.641   5.119   3.842 -1.2812 -0.2735  0.4794
  165SAPE  H19R18517   5.729   5.054   3.823  0.5915  1.7763  1.5470
  165SAPE  H19S18518   5.562   5.087   3.913 -0.4196  1.7651  2.5121
  165SAPE  C22018519   5.699   5.251   3.911 -0.2462  0.7933 -0.2257
  165SAPE  H20R18520   5.640   5.340   3.878 -0.9670  0.5443  0.3412
  165SAPE  H20S18521   5.808   5.260   3.893 -0.4135  1.6225 -0.8693
  165SAPE  H20T18522   5.693   5.235   4.021  0.3903  1.4146 -0.0919
  165SAPE   C3318523   5.437   5.235   2.692  0.1404  0.1156 -0.2819
  165SAPE   H3X18524   5.364   5.227   2.608  0.4096 -1.3319 -0.4096
  165SAPE   H3Y18525   5.470   5.340   2.707 -0.6742  0.6281 -1.8560
  165SAPE   C3418526   5.375   5.184   2.828  0.1113 -0.7278  0.8527
  165SAPE   H4X18527   5.452   5.116   2.871 -0.3244 -1.3788  0.6297
  165SAPE   H4Y18528   5.289   5.123   2.792 -1.3313  2.7008 -2.1382
  165SAPE   C3518529   5.314   5.285   2.927 -0.0132  0.3091 -0.5283
  165SAPE   H5X18530   5.276   5.228   3.014 -0.0026 -0.1477 -0.8146
  165SAPE   H5Y18531   5.224   5.329   2.881 -0.7869 -1.2150 -0.5521
  165SAPE   C3618532   5.421   5.379   2.994 -0.2542 -0.6361 -0.3101
  165SAPE   H6X18533   5.441   5.460   2.920  0.9906 -1.6889 -1.1703
  165SAPE   H6Y18534   5.498   5.303   3.017 -1.2394 -1.4534  0.3983
  165SAPE   C3718535   5.367   5.438   3.122 -0.1372 -0.6026 -0.2257
  165SAPE   H7X18536   5.269   5.394   3.153  0.0595 -0.8716  0.0180
  165SAPE   H7Y18537   5.346   5.546   3.113  3.3964  0.4551  2.2875
  165SAPE   C3818538   5.455   5.419   3.244  0.8659 -0.5496 -0.1069
  165SAPE   H8X18539   5.548   5.479   3.228 -0.5604  1.6516 -0.5579
  165SAPE   H8Y18540   5.473   5.310   3.254 -2.6955 -1.0623  3.2748
  165SAPE   C3918541   5.389   5.465   3.382  0.0887  0.0511  0.0335
  165SAPE   H9X18542   5.308   5.403   3.424 -0.0812  1.4584  1.8941
  165SAPE   H9Y18543   5.348   5.566   3.364 -1.0095 -0.6977 -1.9597
  165SAPE  C31018544   5.491   5.488   3.492 -0.3202  0.0286  0.5947
  165SAPE  H10X18545   5.574   5.545   3.445  0.7135 -1.3567  0.6933
  165SAPE  H10Y18546   5.528   5.392   3.533 -2.6534 -1.6069 -0.8603
  165SAPE  C31118547   5.425   5.553   3.611 -0.3855 -0.1279 -0.8452
  165SAPE  H11X18548   5.347   5.478   3.635  0.5172 -1.0246 -0.6549
  165SAPE  H11Y18549   5.373   5.649   3.588 -0.1500  1.1704  3.1856
  165SAPE  C31218550   5.518   5.586   3.732  0.3434  0.2272 -0.2834
  165SAPE  H12X18551   5.589   5.669   3.710  0.2442  0.1423 -0.9491
  165SAPE  H12Y18552   5.573   5.492   3.753 -0.8551 -1.0230 -2.3934
  165SAPE  C31318553   5.438   5.617   3.862 -0.0690  0.7052 -0.3931
  165SAPE  H13X18554   5.394   5.521   3.897  2.0918  0.6063  2.3631
  165SAPE  H13Y18555   5.352   5.687   3.851 -2.4650 -1.4192  2.7145
  165SAPE  C31418556   5.530   5.683   3.964  0.3667  0.0574 -0.0618
  165SAPE  H14X18557   5.564   5.785   3.937  0.0638  0.2848  0.4033
  165SAPE  H14Y18558   5.607   5.611   3.995  0.1769 -0.6143 -1.0780
  165SAPE  C31518559   5.453   5.728   4.093 -0.2202 -0.2188  0.1485
  165SAPE  H15X18560   5.415   5.635   4.141  0.1882 -0.0047  0.8931
  165SAPE  H15Y18561   5.373   5.804   4.082  1.8613  2.0078 -0.2770
  165SAPE  C31618562   5.551   5.795   4.194  0.2033 -0.1132 -0.2312
  165SAPE  H16X18563   5.648   5.742   4.186 -0.3428 -1.1031 -0.4984
  165SAPE  H16Y18564   5.520   5.787   4.301  2.8663  1.2997  0.7422
  165SAPE  C31718565   5.577   5.944   4.170 -0.2765 -0.0605  0.9057
  165SAPE  H17X18566   5.485   5.993   4.131 -1.2718 -0.8513  2.1715
  165SAPE  H17Y18567   5.658   5.960   4.096  1.6505 -1.1854  2.6813
  165SAPE  C31818568   5.615   6.019   4.300 -0.6160  0.6005 -0.5674
  165SAPE  H18X18569   5.663   6.117   4.280  1.4931 -0.5807 -1.7115
  165SAPE  H18Y18570   5.682   5.960   4.366  0.0542  2.3041  0.3472
  165SAPE  H18Z18571   5.523   6.036   4.360  1.3109  1.4917  2.3518
  166SAPE     N18572   0.937   4.584   2.350  0.2579 -0.9977 -0.1342
  166SAPE   HN118573   1.012   4.538   2.405 -0.4647 -2.6171 -0.4189
  166SAPE   HN218574   0.961   4.679   2.316  2.7482 -1.0945  1.1130
  166SAPE   HN318575   0.853   4.581   2.412 -0.5906  1.4287 -1.0311
  166SAPE   C1218576   0.910   4.498   2.223 -0.3253 -0.1191  0.3668
  166SAPE  H12A18577   0.954   4.400   2.248  2.2315  0.6851 -0.7152
  166SAPE  H12B18578   0.959   4.546   2.136 -1.2762  2.1253  0.9848
  166SAPE   C1118579   0.757   4.477   2.201  0.2513 -0.0232  1.0334
  166SAPE  H11A18580   0.709   4.424   2.286 -2.1884 -0.2800 -0.4097
  166SAPE  H11B18581   0.739   4.408   2.115 -0.2576  3.3939 -1.8150
  166SAPE     P18582   0.558   4.614   2.079 -0.3819 -0.0271  0.2266
  166SAPE   O1318583   0.544   4.757   2.042 -0.0725 -0.4275 -0.3058
  166SAPE   O1418584   0.574   4.517   1.970 -0.3442 -0.1388  0.1083
  166SAPE   O1218585   0.681   4.601   2.175 -0.4057 -0.1216  0.0147
  166SAPE   O1118586   0.442   4.570   2.181 -0.3055  0.0376  0.1956
  166SAPE    C118587   0.431   4.423   2.205 -0.1529  0.0284 -0.7710
  166SAPE    HA18588   0.449   4.365   2.112  1.4043 -0.0875 -0.4248
  166SAPE    HB18589   0.507   4.402   2.284 -1.9213 -1.2084  0.7102
  166SAPE    C218590   0.285   4.389   2.262  0.1862  0.5309  0.5657
  166SAPE    HS18591   0.218   4.409   2.176 -0.1027  0.6719  0.8239
  166SAPE   O2118592   0.259   4.471   2.375  0.4830  0.5574  0.1056
  166SAPE   C2118593   0.132   4.523   2.393  0.0551  0.5694 -0.3186
  166SAPE   O2218594   0.043   4.523   2.312 -0.8295  0.0620 -0.2548
  166SAPE   C2218595   0.107   4.569   2.541 -0.4152 -0.0775  0.5534
  166SAPE   H2R18596   0.020   4.506   2.570 -1.4452  1.2329  0.4654
  166SAPE   H2S18597   0.197   4.536   2.597  0.3361 -0.9268 -1.1041
  166SAPE    C318598   0.262   4.234   2.286 -0.1725  0.1451  0.2899
  166SAPE    HX18599   0.305   4.174   2.203  1.9945 -2.1053  2.8309
  166SAPE    HY18600   0.153   4.213   2.280 -0.0115 -0.2566 -2.0275
  166SAPE   O3118601   0.325   4.183   2.415 -0.0523  0.0989 -0.2234
  166SAPE   C3118602   0.244   4.154   2.511 -0.0693 -0.1503  0.2454
  166SAPE   O3218603   0.120   4.164   2.516  0.5045 -0.2418 -0.1618
  166SAPE   C3218604   0.334   4.102   2.628 -0.3749 -0.7020  0.3457
  166SAPE   H2X18605   0.421   4.170   2.637 -1.2201  0.2093  2.0499
  166SAPE   H2Y18606   0.367   4.000   2.601 -1.1047 -1.2071  1.3028
  166SAPE   C2318607   0.070   4.714   2.564  0.0507 -0.1556  0.1658
  166SAPE   H3R18608   0.008   4.754   2.480  0.6853 -1.3294 -0.9012
  166SAPE   H3S18609   0.160   4.778   2.569  0.9863 -1.1746 -2.1894
  166SAPE   C2418610  -0.012   4.731   2.698 -0.0328  0.2469  0.5185
  166SAPE   H4R18611   0.037   4.665   2.773 -0.9914  0.1062  1.0443
  166SAPE   H4S18612  -0.116   4.698   2.675 -0.2299  0.2632  1.3463
  166SAPE   C2518613  -0.021   4.874   2.743  0.1194 -0.0707 -0.4683
  166SAPE   H5R18614  -0.040   4.950   2.666  0.7009  0.7084  0.1436
  166SAPE   C2618615   0.010   4.914   2.863 -0.4264  0.0920  0.3203
  166SAPE   H6R18616  -0.015   5.019   2.886  0.8754  0.3868  0.4787
  166SAPE   C2718617   0.062   4.828   2.978  0.2647 -0.3293  0.9416
  166SAPE   H7R18618   0.154   4.776   2.944  0.0818  0.0321 -0.1520
  166SAPE   H7S18619  -0.016   4.754   3.005  0.1247 -0.7388 -0.5071
  166SAPE   C2818620   0.102   4.916   3.094  0.0236  0.0375 -0.5599
  166SAPE   H8R18621   0.166   5.003   3.071  0.4492  0.1081  0.7590
  166SAPE   C2918622   0.065   4.906   3.222  0.4594  0.6180 -0.5088
  166SAPE   H9R18623   0.103   4.976   3.297 -0.9330  1.3813 -0.4710
  166SAPE  C21018624  -0.010   4.788   3.290 -0.1616  0.2907  0.0844
  166SAPE  H10R18625   0.001   4.698   3.226 -0.7558  1.0177 -1.0666
  166SAPE  H10S18626  -0.117   4.810   3.304 -0.3300 -0.4581  0.0115
  166SAPE  C21118627   0.056   4.755   3.420  0.1103 -0.0113 -0.1023
  166SAPE  H11R18628   0.153   4.703   3.415 -0.0860 -0.9859  3.5644
  166SAPE  C21218629   0.026   4.790   3.546  0.0696 -0.5523 -0.9449
  166SAPE  H12R18630   0.089   4.758   3.630 -0.6664 -0.6192 -0.4113
  166SAPE  C21318631  -0.091   4.879   3.586  0.0848  0.1091 -0.2904
  166SAPE  H13R18632  -0.090   4.970   3.522  1.1396  0.9752  0.9105
  166SAPE  H13S18633  -0.063   4.936   3.677  1.6981 -0.7080 -0.2352
  166SAPE  C21418634  -0.226   4.814   3.594 -0.2607  0.3819 -0.4709
  166SAPE  H14R18635  -0.265   4.790   3.493 -2.6314  0.0685  0.4522
  166SAPE  C21518636  -0.301   4.790   3.703  0.1436  0.1440 -0.4739
  166SAPE  H15R18637  -0.401   4.746   3.692 -0.0765  0.5652 -0.1945
  166SAPE  C21618638  -0.251   4.800   3.843 -0.0502  0.1138 -0.3890
  166SAPE  H16R18639  -0.323   4.874   3.882  0.3611  1.0598 -1.3806
  166SAPE  H16S18640  -0.143   4.828   3.845 -0.3171  1.2519  2.2672
  166SAPE  C21718641  -0.257   4.667   3.928  1.3443  0.1820 -0.1093
  166SAPE  H17R18642  -0.171   4.605   3.892 -0.1115 -0.8752 -1.9862
  166SAPE  H17S18643  -0.349   4.606   3.917  0.7886  1.1686 -1.0842
  166SAPE  C21818644  -0.227   4.701   4.080  0.4615 -0.2745 -0.3429
  166SAPE  H18R18645  -0.318   4.754   4.115  1.0185  0.0285  0.7256
  166SAPE  H18S18646  -0.142   4.772   4.070  1.9360 -1.3104  3.1775
  166SAPE  C21918647  -0.185   4.591   4.174 -0.4391  0.3605  0.1789
  166SAPE  H19R18648  -0.098   4.534   4.134 -0.7036  0.2061 -0.1842
  166SAPE  H19S18649  -0.271   4.528   4.202  0.8683 -0.5064  2.5566
  166SAPE  C22018650  -0.137   4.634   4.311  0.0264  0.6768 -0.6973
  166SAPE  H20R18651  -0.213   4.690   4.369  2.7965  1.0627  2.9548
  166SAPE  H20S18652  -0.048   4.700   4.300 -0.3016  1.7339  2.1855
  166SAPE  H20T18653  -0.100   4.546   4.368 -1.4086  0.7797  0.4425
  166SAPE   C3318654   0.247   4.092   2.752  0.2755 -0.0470 -0.1854
  166SAPE   H3X18655   0.314   4.047   2.829 -0.0049  0.1971  0.2091
  166SAPE   H3Y18656   0.168   4.015   2.744 -1.0044  1.0694  1.0189
  166SAPE   C3418657   0.196   4.229   2.799 -0.7027 -0.0951  0.0499
  166SAPE   H4X18658   0.141   4.287   2.722  1.9916  2.0443 -0.4193
  166SAPE   H4Y18659   0.286   4.291   2.818 -1.2474  0.8012 -0.2722
  166SAPE   C3518660   0.125   4.221   2.940  0.0953 -0.2318  0.2005
  166SAPE   H5X18661   0.195   4.190   3.021 -0.6021 -0.5286  0.7020
  166SAPE   H5Y18662   0.048   4.141   2.938 -1.2910  1.0606 -0.4321
  166SAPE   C3618663   0.054   4.351   2.974  0.1077 -0.7718 -0.5780
  166SAPE   H6X18664  -0.007   4.398   2.893 -1.0492 -0.3658  0.4965
  166SAPE   H6Y18665   0.149   4.408   2.976  0.3982 -1.2807  1.3105
  166SAPE   C3718666  -0.011   4.382   3.111 -0.1566 -0.9404  0.6106
  166SAPE   H7X18667  -0.107   4.326   3.115 -0.0516 -1.1144  0.7351
  166SAPE   H7Y18668  -0.042   4.488   3.105  0.3719 -0.7223  1.5905
  166SAPE   C3818669   0.068   4.345   3.229 -0.3728  0.4527 -0.0160
  166SAPE   H8X18670   0.158   4.410   3.231  0.3455 -0.4746 -1.1575
  166SAPE   H8Y18671   0.100   4.239   3.215  0.8903  0.6084  1.3514
  166SAPE   C3918672   0.009   4.352   3.369  0.0309  0.4668 -0.4834
  166SAPE   H9X18673  -0.058   4.266   3.391 -0.9111  1.1470 -0.6143
  166SAPE   H9Y18674  -0.042   4.451   3.368  0.1466  0.5275 -0.2679
  166SAPE  C31018675   0.130   4.353   3.476  0.7219 -0.2866 -0.0624
  166SAPE  H10X18676   0.185   4.449   3.463  0.0618  0.2991  1.2601
  166SAPE  H10Y18677   0.178   4.253   3.467 -1.1917 -1.4362  1.7153
  166SAPE  C31118678   0.076   4.346   3.619  0.4894 -0.4937 -0.5709
  166SAPE  H11X18679   0.076   4.238   3.647 -1.6399 -0.5055 -0.4914
  166SAPE  H11Y18680  -0.028   4.383   3.606  0.2757 -1.2933 -1.2059
  166SAPE  C31218681   0.155   4.450   3.709 -0.2473 -0.0563  0.2049
  166SAPE  H12X18682   0.130   4.553   3.677  2.3444  0.6295  0.1750
  166SAPE  H12Y18683   0.266   4.445   3.708 -0.2800 -1.1741 -0.0698
  166SAPE  C31318684   0.100   4.434   3.852 -0.2819 -0.2605 -0.0100
  166SAPE  H13X18685  -0.008   4.462   3.848 -0.0629  0.9691  1.7252
  166SAPE  H13Y18686   0.144   4.516   3.912  0.7118 -0.2362 -0.7475
  166SAPE  C31418687   0.142   4.303   3.919 -0.5995  0.0303  0.2124
  166SAPE  H14X18688   0.253   4.308   3.918 -0.6568  2.4438 -0.4097
  166SAPE  H14Y18689   0.096   4.213   3.873  0.5490  0.1714 -1.3072
  166SAPE  C31518690   0.097   4.306   4.063 -1.1137 -0.5714  1.1103
  166SAPE  H15X18691  -0.004   4.268   4.089 -0.6173 -2.0837  0.8806
  166SAPE  H15Y18692   0.098   4.411   4.100 -1.8397  0.5848 -1.8487
  166SAPE  C31618693   0.191   4.220   4.158  0.3360  0.2884 -0.1410
  166SAPE  H16X18694   0.291   4.267   4.154  1.3226 -1.6604  0.4231
  166SAPE  H16Y18695   0.217   4.121   4.115  0.3787  0.2515 -0.0293
  166SAPE  C31718696   0.129   4.212   4.298 -0.1153  0.4330  0.3824
  166SAPE  H17X18697   0.032   4.159   4.296 -0.1847  0.5665 -0.8655
  166SAPE  H17Y18698   0.108   4.310   4.346 -1.9378  0.7489 -0.9811
  166SAPE  C31818699   0.226   4.141   4.401  0.6228 -0.0642  0.1056
  166SAPE  H18X18700   0.334   4.155   4.377  0.4777  0.9258 -0.0347
  166SAPE  H18Y18701   0.203   4.033   4.395  0.0535  0.0106  0.8010
  166SAPE  H18Z18702   0.206   4.183   4.502 -1.1627 -0.7779  0.0720
  167SAPE     N18703   5.715   3.074   1.411  0.3819 -0.6000  0.8449
  167SAPE   HN118704   5.733   3.134   1.329  2.1854 -1.2703  0.7162
  167SAPE   HN218705   5.612   3.058   1.416  0.0179 -0.0054 -2.5150
  167SAPE   HN318706   5.754   3.110   1.500 -0.2035  1.8925  0.1605
  167SAPE   C1218707   5.764   2.937   1.383 -0.3072 -0.4557  0.4336
  167SAPE  H12A18708   5.873   2.940   1.365  0.0043 -1.8535  1.8587
  167SAPE  H12B18709   5.711   2.906   1.290  1.4319 -1.5179 -0.2403
  167SAPE   C1118710   5.719   2.849   1.505  0.9992  0.6123 -0.1721
  167SAPE  H11A18711   5.758   2.748   1.481  0.3102  0.5576 -1.1210
  167SAPE  H11B18712   5.608   2.845   1.509  0.9494  1.9556  0.4196
  167SAPE     P18713   5.692   2.925   1.751 -0.0523 -0.1665 -0.4115
  167SAPE   O1318714   5.795   2.921   1.860 -0.3161 -0.3497  0.4551
  167SAPE   O1418715   5.617   3.051   1.723 -0.3877 -0.1291 -0.3590
  167SAPE   O1218716   5.778   2.890   1.620 -0.2032 -0.0228 -0.0355
  167SAPE   O1118717   5.588   2.807   1.771 -0.0424  0.1429  0.3547
  167SAPE    C118718   5.633   2.670   1.769  0.3640 -0.2149  0.7979
  167SAPE    HA18719   5.569   2.618   1.694  0.9271  0.0765  0.1106
  167SAPE    HB18720   5.737   2.656   1.734  0.0476  0.9565 -0.7597
  167SAPE    C218721   5.626   2.593   1.907  0.3497  0.3840  0.4505
  167SAPE    HS18722   5.631   2.485   1.878  2.3233  0.3437  0.7911
  167SAPE   O2118723   5.511   2.613   1.989  0.0012 -0.2393 -0.3052
  167SAPE   C2118724   5.399   2.544   1.952  0.2683 -0.3216  0.9386
  167SAPE   O2218725   5.394   2.466   1.858 -0.0941  0.5266 -0.6596
  167SAPE   C2218726   5.273   2.593   2.034 -0.6672 -0.5481 -0.6187
  167SAPE   H2R18727   5.270   2.537   2.129  1.3220 -1.0160 -0.7890
  167SAPE   H2S18728   5.302   2.698   2.058 -0.4469 -1.0887  1.6862
  167SAPE    C318729   5.753   2.613   1.986  0.4120  0.9504 -0.8087
  167SAPE    HX18730   5.748   2.711   2.039  0.8260  0.7677 -0.4298
  167SAPE    HY18731   5.834   2.625   1.911  0.0734 -1.0169 -1.5486
  167SAPE   O3118732   5.788   2.504   2.072  0.2820 -0.5909 -0.3397
  167SAPE   C3118733   5.898   2.515   2.140 -0.1765 -0.0043 -0.0347
  167SAPE   O3218734   5.984   2.603   2.129 -0.1085 -0.1539  1.1591
  167SAPE   C3218735   5.909   2.400   2.243  0.6159  0.1698  1.0440
  167SAPE   H2X18736   5.944   2.305   2.197 -2.7469 -1.3582  1.3494
  167SAPE   H2Y18737   5.802   2.384   2.266  0.4477  0.6989  0.6516
  167SAPE   C2318738   5.143   2.587   1.956  0.2553  0.3071 -0.0447
  167SAPE   H3R18739   5.118   2.480   1.938 -0.0051 -0.5395  4.2261
  167SAPE   H3S18740   5.153   2.641   1.859 -1.0760 -0.8419 -0.8651
  167SAPE   C2418741   5.029   2.655   2.031 -0.2281  0.8893 -0.0896
  167SAPE   H4R18742   4.944   2.652   1.961 -2.4544 -0.3747  2.4820
  167SAPE   H4S18743   5.065   2.760   2.043 -2.8428  1.9318 -0.6364
  167SAPE   C2518744   4.984   2.600   2.162  0.0834 -0.2188  0.4084
  167SAPE   H5R18745   4.910   2.520   2.147  0.5694 -0.3867 -1.2718
  167SAPE   C2618746   5.005   2.657   2.286 -0.2761  0.7931  0.4482
  167SAPE   H6R18747   4.948   2.622   2.373 -1.9069  0.5196 -0.6874
  167SAPE   C2718748   5.088   2.780   2.319  0.0832 -0.5991 -0.8401
  167SAPE   H7R18749   5.024   2.870   2.311 -0.2836 -0.7437  0.3096
  167SAPE   H7S18750   5.166   2.794   2.242  0.0321  1.8632 -0.5298
  167SAPE   C2818751   5.137   2.775   2.463  0.1621 -0.1198  0.2134
  167SAPE   H8R18752   5.232   2.724   2.481  0.5215  1.3081  2.8667
  167SAPE   C2918753   5.078   2.834   2.571  0.4535 -0.1615 -0.8077
  167SAPE   H9R18754   5.130   2.838   2.668  0.9819 -0.3685 -1.0777
  167SAPE  C21018755   4.957   2.923   2.567  0.2593  0.4847 -0.2716
  167SAPE  H10R18756   4.941   2.967   2.467  0.5024  2.3212  0.4558
  167SAPE  H10S18757   4.973   3.010   2.634  1.2910 -0.0273  0.1807
  167SAPE  C21118758   4.839   2.839   2.604  0.7324 -0.8090  0.3653
  167SAPE  H11R18759   4.809   2.771   2.522  0.4239  0.0047 -0.2139
  167SAPE  C21218760   4.755   2.862   2.706  1.0299 -0.3664 -0.5632
  167SAPE  H12R18761   4.669   2.796   2.720  1.0264 -0.4090 -0.7851
  167SAPE  C21318762   4.771   2.964   2.823 -0.0054 -0.0546  0.3345
  167SAPE  H13R18763   4.872   3.008   2.816  0.3105 -0.9221 -1.0639
  167SAPE  H13S18764   4.757   2.907   2.917 -1.7754  0.2854  0.3062
  167SAPE  C21418765   4.661   3.066   2.797  0.2720 -1.0658  0.0051
  167SAPE  H14R18766   4.637   3.082   2.691  1.7028 -0.2446 -0.2212
  167SAPE  C21518767   4.601   3.144   2.895 -0.0243  0.0854  0.0937
  167SAPE  H15R18768   4.540   3.231   2.867  0.2045 -0.0751 -0.9343
  167SAPE  C21618769   4.636   3.148   3.040  0.2940 -0.4935  0.5076
  167SAPE  H16R18770   4.704   3.235   3.053  0.1272 -0.2640 -0.1030
  167SAPE  H16S18771   4.679   3.054   3.081 -0.8225 -0.0418  2.8716
  167SAPE  C21718772   4.512   3.163   3.131 -0.2870 -0.2288 -0.2750
  167SAPE  H17R18773   4.434   3.102   3.080  0.5433  0.0469 -1.9511
  167SAPE  H17S18774   4.469   3.265   3.131  0.6227  0.1982  1.7121
  167SAPE  C21818775   4.538   3.118   3.274  0.6401 -0.2762  0.2946
  167SAPE  H18R18776   4.631   3.161   3.317  0.0210  0.5047  0.9041
  167SAPE  H18S18777   4.557   3.009   3.267  2.2484 -0.0022 -0.0260
  167SAPE  C21918778   4.425   3.149   3.373 -0.3127 -0.3483 -0.6931
  167SAPE  H19R18779   4.330   3.115   3.326  0.0037 -1.8645 -0.3017
  167SAPE  H19S18780   4.431   3.259   3.385 -1.2956 -0.5017  1.6376
  167SAPE  C22018781   4.456   3.091   3.507  0.3110 -0.6264 -0.1333
  167SAPE  H20R18782   4.367   3.075   3.571  0.5233  0.6705  0.5294
  167SAPE  H20S18783   4.522   3.161   3.563 -0.0418  0.3850 -0.9242
  167SAPE  H20T18784   4.505   2.992   3.495  0.2010 -0.7266  0.2521
  167SAPE   C3318785   5.973   2.446   2.374  0.3132 -0.3111 -0.1808
  167SAPE   H3X18786   5.942   2.551   2.391  2.0127  0.2958 -0.6420
  167SAPE   H3Y18787   6.081   2.455   2.352 -0.0782  1.2904 -1.7321
  167SAPE   C3418788   5.938   2.369   2.495 -0.3850  0.4220  0.1302
  167SAPE   H4X18789   5.976   2.266   2.480  0.2720  0.2532  2.4653
  167SAPE   H4Y18790   5.829   2.369   2.516 -0.5402  2.3137 -0.5108
  167SAPE   C3518791   6.021   2.412   2.615  0.2087  0.8469  0.2915
  167SAPE   H5X18792   6.122   2.439   2.577  0.9049 -1.0904  0.6275
  167SAPE   H5Y18793   6.039   2.315   2.666 -4.7581  0.1742  1.2137
  167SAPE   C3618794   5.960   2.511   2.718 -0.0776  0.3565  0.0628
  167SAPE   H6X18795   5.851   2.493   2.710  0.0186  0.1274 -0.8374
  167SAPE   H6Y18796   5.971   2.620   2.700  0.6263  0.5074  1.2649
  167SAPE   C3718797   6.005   2.485   2.867 -0.7032  0.7468  0.6755
  167SAPE   H7X18798   6.114   2.497   2.885 -0.5240  0.7914 -0.3531
  167SAPE   H7Y18799   5.987   2.379   2.895  1.3340  1.1931  4.2473
  167SAPE   C3818800   5.921   2.563   2.963  0.8636  0.0091 -0.2378
  167SAPE   H8X18801   5.817   2.567   2.924  1.3352 -0.7126 -1.6451
  167SAPE   H8Y18802   5.942   2.672   2.957 -1.3761  0.5824  1.2705
  167SAPE   C3918803   5.933   2.520   3.111  0.4863 -0.4124  0.5269
  167SAPE   H9X18804   6.040   2.507   3.138  0.9946 -0.7545 -1.4714
  167SAPE   H9Y18805   5.889   2.419   3.123  1.1010 -0.4627  2.7380
  167SAPE  C31018806   5.885   2.625   3.214  0.3355  0.4346 -0.1656
  167SAPE  H10X18807   5.777   2.640   3.193  0.2893 -1.6436 -1.7280
  167SAPE  H10Y18808   5.931   2.725   3.196 -0.6820  1.3999  2.2561
  167SAPE  C31118809   5.907   2.601   3.366 -0.4920 -0.5216  0.8558
  167SAPE  H11X18810   6.018   2.605   3.378 -0.3106 -0.8893 -0.5046
  167SAPE  H11Y18811   5.886   2.499   3.406 -2.1768 -0.8054 -0.6553
  167SAPE  C31218812   5.836   2.698   3.468 -0.1870  0.0351 -0.2525
  167SAPE  H12X18813   5.728   2.681   3.450  0.0789 -1.9094 -0.2490
  167SAPE  H12Y18814   5.866   2.804   3.452 -0.5838  0.1796 -0.0454
  167SAPE  C31318815   5.870   2.660   3.607  0.3087  0.2949 -0.2045
  167SAPE  H13X18816   5.979   2.653   3.627  0.4476 -0.7494 -1.1918
  167SAPE  H13Y18817   5.839   2.554   3.621 -0.5533  0.5344 -0.2776
  167SAPE  C31418818   5.814   2.753   3.707  0.4207  0.4287 -0.6463
  167SAPE  H14X18819   5.703   2.753   3.711  0.4531  0.0803  1.1951
  167SAPE  H14Y18820   5.840   2.859   3.686  2.1522  0.4558  1.2725
  167SAPE  C31518821   5.860   2.716   3.849  0.0234  0.1894  0.6642
  167SAPE  H15X18822   5.971   2.714   3.858  0.1565 -0.6750 -0.7970
  167SAPE  H15Y18823   5.830   2.612   3.872  0.5963 -0.3133 -0.7294
  167SAPE  C31618824   5.805   2.823   3.944  0.2246  0.6526 -0.1228
  167SAPE  H16X18825   5.697   2.841   3.925 -0.1320  0.7634  1.7303
  167SAPE  H16Y18826   5.857   2.914   3.909  0.7176  0.0638 -0.9483
  167SAPE  C31718827   5.834   2.781   4.086  0.2338  0.3368 -0.1814
  167SAPE  H17X18828   5.940   2.747   4.095  0.2480  0.4227 -0.0248
  167SAPE  H17Y18829   5.766   2.698   4.114  1.1158  0.6958  3.5247
  167SAPE  C31818830   5.816   2.902   4.178  0.5821 -0.1079  0.4114
  167SAPE  H18X18831   5.708   2.927   4.185  0.8295  0.9000  0.8179
  167SAPE  H18Y18832   5.871   2.994   4.146  1.1790  0.0644  1.8180
  167SAPE  H18Z18833   5.841   2.873   4.282 -0.9855  2.8622  1.7348
  168SAPE     N18834   1.847   6.216   2.024  0.4162 -0.6312 -0.1922
  168SAPE   HN118835   1.849   6.124   2.072 -0.6220  0.1179  1.4046
  168SAPE   HN218836   1.758   6.209   1.971  1.3282 -3.6576 -1.5250
  168SAPE   HN318837   1.918   6.218   1.948 -1.2882 -0.7574 -1.8533
  168SAPE   C1218838   1.841   6.335   2.121 -0.0185 -0.2145  0.3815
  168SAPE  H12A18839   1.879   6.293   2.216  1.3777 -0.9245 -0.4532
  168SAPE  H12B18840   1.738   6.375   2.136 -0.5393 -0.8599 -1.2042
  168SAPE   C1118841   1.936   6.448   2.084 -0.1749  0.0241 -0.0088
  168SAPE  H11A18842   2.037   6.417   2.049 -1.3439 -1.6316 -2.1736
  168SAPE  H11B18843   1.959   6.493   2.183  0.3773 -0.0311 -0.1130
  168SAPE     P18844   1.940   6.682   1.984 -0.1956  0.1862 -0.1373
  168SAPE   O1318845   2.086   6.667   1.974  0.2846  0.4983  0.0833
  168SAPE   O1418846   1.874   6.757   1.875 -0.2155 -0.0871  0.0337
  168SAPE   O1218847   1.874   6.533   1.994  0.3046 -0.0194 -0.2279
  168SAPE   O1118848   1.901   6.728   2.127 -0.0495  0.1352 -0.3459
  168SAPE    C118849   1.763   6.734   2.170 -0.0941  0.7760 -0.0338
  168SAPE    HA18850   1.699   6.793   2.101 -1.1658 -1.2006 -0.8200
  168SAPE    HB18851   1.725   6.629   2.165  0.7194  0.5414 -3.0315
  168SAPE    C218852   1.748   6.780   2.311  0.1320  0.4875 -0.1352
  168SAPE    HS18853   1.779   6.887   2.313 -0.3050  0.6136  0.0344
  168SAPE   O2118854   1.821   6.701   2.406  0.3873 -0.2685 -0.1625
  168SAPE   C2118855   1.956   6.717   2.419  0.8340 -0.0369  0.8881
  168SAPE   O2218856   2.024   6.812   2.375  0.3662 -0.1638  0.1739
  168SAPE   C2218857   1.999   6.611   2.512 -0.2872  0.0752 -0.5930
  168SAPE   H2R18858   2.102   6.594   2.475 -0.8829 -0.5386 -2.0818
  168SAPE   H2S18859   1.999   6.654   2.614  0.2775 -0.1749 -0.4872
  168SAPE    C318860   1.597   6.780   2.348  0.2545 -0.3273  0.1169
  168SAPE    HX18861   1.564   6.674   2.345 -2.2096  0.3027  1.9046
  168SAPE    HY18862   1.551   6.837   2.264 -1.1058 -2.1528 -0.4590
  168SAPE   O3118863   1.563   6.841   2.471 -0.0016 -0.5684  0.2672
  168SAPE   C3118864   1.531   6.766   2.577  0.3335  0.2069 -0.7512
  168SAPE   O3218865   1.508   6.646   2.573  0.0011 -0.2593 -0.2135
  168SAPE   C3218866   1.556   6.849   2.703  0.4177 -0.0256  0.2232
  168SAPE   H2X18867   1.495   6.940   2.683 -1.4481 -1.1738  0.4203
  168SAPE   H2Y18868   1.664   6.872   2.693  1.4369 -4.4109 -0.9526
  168SAPE   C2318869   1.913   6.480   2.506  0.4616  0.7108 -0.3885
  168SAPE   H3R18870   1.920   6.435   2.405 -1.2783  1.8376 -1.0465
  168SAPE   H3S18871   1.804   6.497   2.517 -0.0364 -1.3956 -1.4535
  168SAPE   C2418872   1.961   6.390   2.617  0.3577  0.4424  0.3795
  168SAPE   H4R18873   1.890   6.308   2.642  1.1689 -0.1037  0.9439
  168SAPE   H4S18874   1.956   6.450   2.710  0.3886 -0.9048  1.2860
  168SAPE   C2518875   2.094   6.323   2.575 -0.3372 -0.3544  0.4375
  168SAPE   H5R18876   2.117   6.332   2.468  0.0082  3.2107  0.6908
  168SAPE   C2618877   2.183   6.260   2.646 -0.7121 -0.6561  0.2344
  168SAPE   H6R18878   2.262   6.205   2.592 -0.1582 -0.3561  0.7232
  168SAPE   C2718879   2.185   6.239   2.792 -0.0559 -0.0321 -0.1721
  168SAPE   H7R18880   2.282   6.186   2.802  0.5653  0.5980 -2.3692
  168SAPE   H7S18881   2.104   6.167   2.820 -0.5769  0.4601 -0.3840
  168SAPE   C2818882   2.180   6.357   2.878  0.5993  0.2009  0.8418
  168SAPE   H8R18883   2.204   6.453   2.829 -0.2267 -1.3611 -2.9812
  168SAPE   C2918884   2.164   6.354   3.008 -0.2613  0.2685  0.2111
  168SAPE   H9R18885   2.161   6.450   3.061 -2.6785  0.0619  0.5581
  168SAPE  C21018886   2.137   6.233   3.092 -0.9836 -0.4999  0.4606
  168SAPE  H10R18887   2.229   6.221   3.152 -0.4565  0.4062 -0.1345
  168SAPE  H10S18888   2.141   6.140   3.033  1.5651  0.2125 -0.6060
  168SAPE  C21118889   2.016   6.252   3.176  0.3798 -0.3207 -0.7051
  168SAPE  H11R18890   1.932   6.291   3.118  0.1074  0.2159  0.0376
  168SAPE  C21218891   2.010   6.231   3.309  0.6350 -0.5567 -0.4420
  168SAPE  H12R18892   1.915   6.229   3.364 -0.0375 -2.9003 -1.5386
  168SAPE  C21318893   2.130   6.181   3.393  0.2191 -0.1812  0.2230
  168SAPE  H13R18894   2.198   6.120   3.330  1.4645 -0.7546  2.0531
  168SAPE  H13S18895   2.103   6.109   3.473 -0.1281 -0.7901 -0.4365
  168SAPE  C21418896   2.200   6.301   3.447  0.0593 -0.3949 -0.6411
  168SAPE  H14R18897   2.167   6.405   3.429 -0.0567 -0.0792  1.1554
  168SAPE  C21518898   2.322   6.291   3.502 -0.4244 -0.5751  0.6659
  168SAPE  H15R18899   2.367   6.385   3.538 -2.0760 -0.3873  2.4550
  168SAPE  C21618900   2.403   6.168   3.513  0.2704  0.1596 -0.6276
  168SAPE  H16R18901   2.345   6.076   3.536  0.3428 -0.1512 -1.6248
  168SAPE  H16S18902   2.472   6.178   3.599  0.2257  2.0610 -0.7732
  168SAPE  C21718903   2.495   6.123   3.397 -0.1935  0.0127 -1.2367
  168SAPE  H17R18904   2.431   6.101   3.309  0.8583 -0.6357 -1.8646
  168SAPE  H17S18905   2.536   6.026   3.431  0.4938  0.9675  0.7870
  168SAPE  C21818906   2.599   6.227   3.370 -0.1237  0.2124  0.2580
  168SAPE  H18R18907   2.684   6.171   3.325 -1.2476  1.3694 -3.6974
  168SAPE  H18S18908   2.642   6.269   3.464 -0.9756  0.3591  0.5855
  168SAPE  C21918909   2.556   6.330   3.264  0.7068  0.4963  0.2208
  168SAPE  H19R18910   2.617   6.423   3.257 -1.1337  1.6284 -3.0118
  168SAPE  H19S18911   2.451   6.366   3.268  1.0159  1.3588  0.9942
  168SAPE  C22018912   2.586   6.284   3.118 -0.7531  0.1707  0.2969
  168SAPE  H20R18913   2.578   6.369   3.046 -0.1952  0.3060  0.3883
  168SAPE  H20S18914   2.523   6.200   3.083 -2.7427  1.2187  1.2002
  168SAPE  H20T18915   2.695   6.265   3.112 -0.4166  1.2775  2.0234
  168SAPE   C3318916   1.531   6.788   2.841 -0.1159 -0.2502 -0.1990
  168SAPE   H3X18917   1.624   6.756   2.893  1.7518  2.5522 -1.5727
  168SAPE   H3Y18918   1.456   6.706   2.839 -0.2606 -0.2121  1.7904
  168SAPE   C3418919   1.481   6.906   2.938  0.2391  0.3371 -0.2026
  168SAPE   H4X18920   1.393   6.952   2.887  0.2429  1.6750  0.9499
  168SAPE   H4Y18921   1.564   6.979   2.944  0.3513  0.1331  0.9912
  168SAPE   C3518922   1.437   6.855   3.069  0.9658 -0.0344  0.0383
  168SAPE   H5X18923   1.500   6.771   3.105 -2.8214 -1.2673  4.8159
  168SAPE   H5Y18924   1.332   6.821   3.068  1.1344 -0.5824 -1.6078
  168SAPE   C3618925   1.441   6.961   3.176 -0.3577 -0.4029  0.0668
  168SAPE   H6X18926   1.382   7.050   3.147 -1.2546 -1.2887 -0.9238
  168SAPE   H6Y18927   1.544   6.996   3.196  0.0360 -1.4818 -0.0162
  168SAPE   C3718928   1.394   6.922   3.318 -0.5627  0.2522  0.3536
  168SAPE   H7X18929   1.447   6.838   3.367 -0.3231 -1.6795 -2.9411
  168SAPE   H7Y18930   1.289   6.887   3.305 -0.9783  1.5962 -0.0948
  168SAPE   C3818931   1.388   7.042   3.412 -0.0464  1.0151  0.2383
  168SAPE   H8X18932   1.334   7.010   3.503  0.5939  0.7505  0.5306
  168SAPE   H8Y18933   1.334   7.128   3.367 -1.8353  0.5992  1.4851
  168SAPE   C3918934   1.530   7.087   3.458 -0.9857 -0.0101 -0.5128
  168SAPE   H9X18935   1.585   7.141   3.378  1.0482 -0.5629  0.4522
  168SAPE   H9Y18936   1.595   7.002   3.490  0.6744  0.8666 -1.4015
  168SAPE  C31018937   1.533   7.161   3.591  0.0298  0.1406 -0.5668
  168SAPE  H10X18938   1.472   7.109   3.669  0.8979  0.8107  0.6005
  168SAPE  H10Y18939   1.479   7.257   3.581 -0.4546  0.3456  2.7103
  168SAPE  C31118940   1.680   7.180   3.634 -0.2237 -0.2718 -0.4092
  168SAPE  H11X18941   1.713   7.241   3.548  0.7326 -1.5857 -1.0139
  168SAPE  H11Y18942   1.731   7.081   3.624 -1.1876 -0.7792 -0.4604
  168SAPE  C31218943   1.690   7.232   3.775  0.0855  0.2542 -0.6933
  168SAPE  H12X18944   1.608   7.302   3.800 -0.3176 -0.5684  0.3599
  168SAPE  H12Y18945   1.790   7.280   3.784  0.9037 -1.5287  0.3563
  168SAPE  C31318946   1.678   7.116   3.877 -1.2056  0.2155  0.8690
  168SAPE  H13X18947   1.738   7.026   3.852  0.1955  1.8249 -2.1779
  168SAPE  H13Y18948   1.573   7.082   3.868 -0.5315 -2.5166  2.3144
  168SAPE  C31418949   1.703   7.167   4.020  0.1044  0.1328 -0.7035
  168SAPE  H14X18950   1.645   7.261   4.026  0.6801  0.4536  0.0272
  168SAPE  H14Y18951   1.808   7.195   4.041 -0.6190  0.7250  2.5713
  168SAPE  C31518952   1.645   7.055   4.118  0.1413 -0.3958 -0.1445
  168SAPE  H15X18953   1.730   6.984   4.126  1.3244  0.9550 -0.3898
  168SAPE  H15Y18954   1.555   7.014   4.067  0.3022 -2.6088  1.2248
  168SAPE  C31618955   1.613   7.117   4.254 -0.7661  0.2679  0.6298
  168SAPE  H16X18956   1.516   7.171   4.247  0.6428  2.7800 -0.8782
  168SAPE  H16Y18957   1.691   7.191   4.279 -1.1019  0.5911  0.7221
  168SAPE  C31718958   1.623   7.012   4.363 -0.5288 -0.9024 -0.2973
  168SAPE  H17X18959   1.600   7.065   4.458 -0.7393 -0.7895 -0.4103
  168SAPE  H17Y18960   1.722   6.965   4.381  0.3536  1.1974  0.6645
  168SAPE  C31818961   1.528   6.893   4.362  0.2030 -0.3415  0.1157
  168SAPE  H18X18962   1.568   6.812   4.298 -0.6637 -0.9896  0.3637
  168SAPE  H18Y18963   1.430   6.926   4.320 -0.5234 -1.0622  1.1985
  168SAPE  H18Z18964   1.513   6.856   4.466 -4.3402 -2.5687 -1.0707
  169SAPE     N18965   6.590   2.921   2.114 -1.1699  0.2588  0.2479
  169SAPE   HN118966   6.660   2.992   2.085 -0.1121 -1.0562 -0.4993
  169SAPE   HN218967   6.634   2.837   2.156 -0.9929  0.1319 -0.1866
  169SAPE   HN318968   6.527   2.890   2.037 -1.3568 -0.9989  0.8777
  169SAPE   C1218969   6.520   2.991   2.226 -0.0411 -0.1943 -0.1093
  169SAPE  H12A18970   6.598   3.012   2.303  0.6582 -2.9232  0.0266
  169SAPE  H12B18971   6.443   2.924   2.270 -1.7766  1.3074 -0.7462
  169SAPE   C1118972   6.455   3.110   2.171  0.5352 -0.3241  0.2326
  169SAPE  H11A18973   6.526   3.176   2.116 -1.5478  2.9810  1.1929
  169SAPE  H11B18974   6.411   3.168   2.255  0.7946 -1.3624  1.1120
  169SAPE     P18975   6.299   3.175   1.987  0.1819 -0.1502  0.2253
  169SAPE   O1318976   6.415   3.241   1.924 -0.2795  0.1046 -0.4260
  169SAPE   O1418977   6.193   3.136   1.896  0.5321 -0.2370  0.1743
  169SAPE   O1218978   6.340   3.065   2.089  0.0368 -0.8958  0.4367
  169SAPE   O1118979   6.228   3.281   2.081  0.5379  0.7050 -0.4549
  169SAPE    C118980   6.111   3.238   2.159  0.1576  0.0989 -0.0377
  169SAPE    HA18981   6.027   3.210   2.092  0.5510  0.7088 -0.7993
  169SAPE    HB18982   6.128   3.154   2.231  0.4684  0.1851 -0.0125
  169SAPE    C218983   6.077   3.354   2.240 -0.1306 -0.4564 -0.2414
  169SAPE    HS18984   6.089   3.441   2.173 -0.1223 -0.6935 -0.5525
  169SAPE   O2118985   6.177   3.359   2.342  0.2170  0.3304  0.4573
  169SAPE   C2118986   6.183   3.473   2.413 -0.0583 -0.3851  0.2650
  169SAPE   O2218987   6.097   3.557   2.418 -0.5240 -0.8265 -0.6143
  169SAPE   C2218988   6.296   3.465   2.514  0.0623  0.6645  0.0936
  169SAPE   H2R18989   6.263   3.428   2.614  1.5890  1.2682  0.8589
  169SAPE   H2S18990   6.390   3.418   2.478 -0.4953  0.9716 -1.8566
  169SAPE    C318991   5.931   3.364   2.288  0.1425 -0.3289  0.1881
  169SAPE    HX18992   5.875   3.358   2.192 -0.7265  0.2182  0.6452
  169SAPE    HY18993   5.906   3.465   2.328 -1.1162 -0.9224  0.9877
  169SAPE   O3118994   5.878   3.266   2.370  0.7123  0.5166 -0.2701
  169SAPE   C3118995   5.752   3.233   2.365  0.4324 -0.0819 -0.1928
  169SAPE   O3218996   5.670   3.292   2.288  0.5596  0.2930  0.2073
  169SAPE   C3218997   5.727   3.106   2.449 -0.7783  0.0603 -0.1107
  169SAPE   H2X18998   5.790   3.029   2.400 -1.2478  0.1867 -0.9448
  169SAPE   H2Y18999   5.627   3.064   2.424 -0.5937 -0.9638  0.8306
  169SAPE   C2319000   6.344   3.614   2.548  0.8229  0.5630 -0.6576
  169SAPE   H3R19001   6.365   3.667   2.452  0.9865  0.4701 -0.6736
  169SAPE   H3S19002   6.443   3.591   2.594 -0.2073 -1.0940  0.8651
  169SAPE   C2419003   6.269   3.704   2.634 -0.8381  0.8011  1.1814
  169SAPE   H4R19004   6.160   3.702   2.611 -0.7603 -2.2844  0.6369
  169SAPE   H4S19005   6.309   3.804   2.606  1.4860 -0.5440 -0.7271
  169SAPE   C2519006   6.291   3.687   2.782 -0.1880  0.8448 -0.1822
  169SAPE   H5R19007   6.392   3.699   2.823  0.7348 -2.4479 -1.1298
  169SAPE   C2619008   6.202   3.624   2.860  0.4216 -0.2357  0.2681
  169SAPE   H6R19009   6.214   3.619   2.969  0.2419 -0.0835  0.2959
  169SAPE   C2719010   6.068   3.559   2.821  1.0035 -0.6115  0.0116
  169SAPE   H7R19011   6.071   3.541   2.712  0.7240  0.1505 -0.1262
  169SAPE   H7S19012   5.986   3.633   2.827  1.2148 -0.1703 -1.9063
  169SAPE   C2819013   6.015   3.435   2.886  0.1758 -0.1709  0.2752
  169SAPE   H8R19014   5.996   3.346   2.823  0.1347 -1.1147  1.5613
  169SAPE   C2919015   5.983   3.420   3.018 -0.9173  0.2791  0.9040
  169SAPE   H9R19016   5.958   3.320   3.056  1.2462 -0.4559  0.5801
  169SAPE  C21019017   6.010   3.531   3.122  0.2422 -0.3012  0.5537
  169SAPE  H10R19018   5.959   3.627   3.100  1.7176  0.7232  1.4400
  169SAPE  H10S19019   6.119   3.552   3.125  0.0204  1.0735 -0.1874
  169SAPE  C21119020   5.991   3.490   3.264  0.3110 -0.4018 -0.3684
  169SAPE  H11R19021   6.050   3.399   3.284 -0.1724 -1.7027 -4.0324
  169SAPE  C21219022   5.918   3.549   3.361 -0.4178  0.1386 -0.6841
  169SAPE  H12R19023   5.901   3.493   3.454 -1.0635 -0.4158 -1.1283
  169SAPE  C21319024   5.838   3.671   3.343 -0.5596  0.2573 -0.0797
  169SAPE  H13R19025   5.731   3.654   3.318 -1.1784 -0.6303  2.8063
  169SAPE  H13S19026   5.888   3.736   3.268 -0.0865  0.1934  0.1781
  169SAPE  C21419027   5.847   3.746   3.469 -0.0638  0.3736 -0.0903
  169SAPE  H14R19028   5.946   3.791   3.486 -0.3642  1.5741 -1.3618
  169SAPE  C21519029   5.753   3.757   3.566  0.5661  0.2436  0.4522
  169SAPE  H15R19030   5.776   3.820   3.653  0.7811  0.4907  0.2204
  169SAPE  C21619031   5.621   3.677   3.566 -0.0803  0.0738  0.3892
  169SAPE  H16R19032   5.595   3.624   3.472 -0.7312  0.8024  0.1424
  169SAPE  H16S19033   5.534   3.747   3.575 -1.5710 -1.1983 -2.6128
  169SAPE  C21719034   5.631   3.566   3.680  0.0472  0.1997 -0.6863
  169SAPE  H17R19035   5.714   3.493   3.666 -0.4752 -0.9544  1.7869
  169SAPE  H17S19036   5.539   3.506   3.664  1.2154 -1.1388 -2.8372
  169SAPE  C21819037   5.638   3.604   3.830  0.6584  0.0452  0.1129
  169SAPE  H18R19038   5.704   3.693   3.844 -0.1753  0.7436 -0.2893
  169SAPE  H18S19039   5.666   3.514   3.887  0.9149  0.2104  0.2516
  169SAPE  C21919040   5.494   3.644   3.876 -0.0832  0.2414 -0.5137
  169SAPE  H19R19041   5.424   3.559   3.861  1.2412 -1.1051  0.6987
  169SAPE  H19S19042   5.446   3.731   3.825 -0.8686  1.2405  1.7857
  169SAPE  C22019043   5.493   3.672   4.031  0.0006 -0.3308  0.2641
  169SAPE  H20R19044   5.533   3.591   4.096 -0.3362 -0.1849  0.6573
  169SAPE  H20S19045   5.390   3.693   4.068  0.2395  3.5076 -0.8148
  169SAPE  H20T19046   5.555   3.761   4.054 -1.5735  0.8781  0.0714
  169SAPE   C3319047   5.788   3.118   2.590  0.0115  0.1782 -0.3490
  169SAPE   H3X19048   5.724   3.170   2.665  1.1673  0.1908  0.6626
  169SAPE   H3Y19049   5.891   3.158   2.588 -0.1579  0.6747 -3.1404
  169SAPE   C3419050   5.802   2.980   2.652  0.1724 -0.5999  0.8275
  169SAPE   H4X19051   5.859   2.913   2.584 -0.6363  0.5950 -1.0920
  169SAPE   H4Y19052   5.703   2.930   2.664 -0.4388  0.8784  2.2554
  169SAPE   C3519053   5.879   2.987   2.779 -0.2806 -0.1692 -0.0133
  169SAPE   H5X19054   5.969   3.051   2.768 -0.5286  0.0520 -0.8355
  169SAPE   H5Y19055   5.907   2.884   2.811  1.0497  0.8389  2.3103
  169SAPE   C3619056   5.800   3.043   2.897 -0.1810 -0.1788  0.6923
  169SAPE   H6X19057   5.706   2.989   2.920 -1.1080  2.1119  2.6999
  169SAPE   H6Y19058   5.775   3.149   2.876  1.8353  0.2655  0.2465
  169SAPE   C3719059   5.892   3.031   3.026 -0.4916 -0.1705  0.3877
  169SAPE   H7X19060   5.997   3.066   3.015 -0.2620 -1.4683 -2.2223
  169SAPE   H7Y19061   5.904   2.923   3.050  1.6761  0.3072  1.7828
  169SAPE   C3819062   5.816   3.100   3.143 -0.0124 -0.3111 -0.1677
  169SAPE   H8X19063   5.710   3.066   3.152 -0.6213  1.5810  0.2711
  169SAPE   H8Y19064   5.803   3.209   3.128 -0.9818 -0.4609 -0.5081
  169SAPE   C3919065   5.888   3.069   3.273 -0.1079 -0.1091 -0.4516
  169SAPE   H9X19066   5.999   3.081   3.266  0.1108 -1.2842  0.6856
  169SAPE   H9Y19067   5.866   2.964   3.300 -0.7876  0.7904  3.0308
  169SAPE  C31019068   5.847   3.161   3.389 -0.1097  0.5304 -0.0347
  169SAPE  H10X19069   5.737   3.147   3.396 -0.1808  1.6369  1.7713
  169SAPE  H10Y19070   5.881   3.265   3.372  0.9943  0.0417 -0.9632
  169SAPE  C31119071   5.892   3.109   3.532  0.0616 -0.4088 -0.2100
  169SAPE  H11X19072   5.993   3.064   3.526 -0.4125 -1.3611 -1.6043
  169SAPE  H11Y19073   5.831   3.026   3.572 -0.2880  0.6672  1.6144
  169SAPE  C31219074   5.902   3.216   3.642 -0.0456 -0.1882 -1.1129
  169SAPE  H12X19075   5.812   3.281   3.637 -0.6814 -0.6156  2.2432
  169SAPE  H12Y19076   5.992   3.277   3.618  1.2981 -1.6305  0.0868
  169SAPE  C31319077   5.919   3.170   3.790  0.1955  1.5067 -0.1480
  169SAPE  H13X19078   5.997   3.091   3.787 -1.0628  0.2385 -0.7350
  169SAPE  H13Y19079   5.825   3.130   3.832  0.0157  0.8599 -1.1453
  169SAPE  C31419080   5.975   3.283   3.877  0.5657 -0.0725  0.0332
  169SAPE  H14X19081   5.903   3.368   3.883  1.8219  1.0275 -0.1018
  169SAPE  H14Y19082   6.066   3.330   3.835  0.8348 -2.2512 -1.9846
  169SAPE  C31519083   5.996   3.230   4.020  0.1392 -1.0773 -0.1353
  169SAPE  H15X19084   6.084   3.162   4.021  1.3347  0.2789 -2.6724
  169SAPE  H15Y19085   5.903   3.190   4.064  1.5760 -3.3038  1.0630
  169SAPE  C31619086   6.029   3.338   4.129 -0.6147  0.2737  0.0365
  169SAPE  H16X19087   5.955   3.419   4.116  0.6544  1.1528 -2.2912
  169SAPE  H16Y19088   6.131   3.380   4.114 -0.0878 -0.4574  1.3377
  169SAPE  C31719089   6.014   3.276   4.271 -0.7254  0.0734 -0.1869
  169SAPE  H17X19090   6.087   3.326   4.338 -0.2263  0.0395 -0.6995
  169SAPE  H17Y19091   6.058   3.174   4.275 -0.6983  0.0922  0.0534
  169SAPE  C31819092   5.879   3.280   4.338 -0.1184 -0.5403  0.2417
  169SAPE  H18X19093   5.840   3.381   4.361 -3.2795 -1.6842  0.2945
  169SAPE  H18Y19094   5.877   3.226   4.435 -1.0905  0.2247  0.6617
  169SAPE  H18Z19095   5.805   3.223   4.278 -1.5215  1.1164  0.3403
  170SAPE     N19096   0.770   4.059   2.031  0.3678  0.5217 -0.0497
  170SAPE   HN119097   0.852   4.119   2.007  1.4169 -1.4913 -1.8625
  170SAPE   HN219098   0.736   3.998   1.954 -0.3520  0.1953  0.5238
  170SAPE   HN319099   0.691   4.126   2.039 -0.4353 -0.3484 -0.5771
  170SAPE   C1219100   0.791   3.991   2.162  0.1809  0.1232  0.0353
  170SAPE  H12A19101   0.689   3.949   2.179  0.8389 -3.2113 -3.0258
  170SAPE  H12B19102   0.826   4.070   2.232 -0.8979  0.3956  0.3005
  170SAPE   C1119103   0.905   3.885   2.154 -0.8380 -0.2985 -0.6322
  170SAPE  H11A19104   0.918   3.843   2.256  1.5184  1.1977 -0.2318
  170SAPE  H11B19105   0.999   3.938   2.126 -0.3047 -0.9813 -0.1370
  170SAPE     P19106   0.837   3.644   2.073  0.0838 -0.1936 -0.0392
  170SAPE   O1319107   0.731   3.641   2.166  0.6574 -0.2008  0.1304
  170SAPE   O1419108   0.818   3.582   1.937  0.1277  0.6427 -0.3259
  170SAPE   O1219109   0.885   3.790   2.051 -0.0266 -0.9391  0.5150
  170SAPE   O1119110   0.960   3.576   2.143  0.2930 -0.3695 -0.1728
  170SAPE    C119111   1.097   3.616   2.115  0.4849 -0.1970  0.4589
  170SAPE    HA19112   1.136   3.540   2.044 -0.4240 -0.2928  0.0512
  170SAPE    HB19113   1.106   3.723   2.089  0.8942 -0.1700  0.7058
  170SAPE    C219114   1.183   3.591   2.237  0.6981 -0.8032  1.4303
  170SAPE    HS19115   1.287   3.621   2.213 -0.7970  1.9511 -2.6995
  170SAPE   O2119116   1.166   3.456   2.283 -0.3388 -0.2993 -0.4470
  170SAPE   C2119117   1.271   3.376   2.303 -0.3938 -1.0296 -0.1899
  170SAPE   O2219118   1.386   3.397   2.255 -0.2779 -0.1128 -0.6539
  170SAPE   C2219119   1.237   3.264   2.406 -0.0752 -0.1699 -0.6621
  170SAPE   H2R19120   1.197   3.309   2.499  2.3215  0.5365  0.0866
  170SAPE   H2S19121   1.148   3.212   2.366 -0.3506 -2.2103  2.2443
  170SAPE    C319122   1.145   3.684   2.350  0.1137 -0.2422 -0.2327
  170SAPE    HX19123   1.048   3.646   2.388  1.4233 -2.1373  1.4724
  170SAPE    HY19124   1.153   3.789   2.313 -1.4814  0.5202  1.4169
  170SAPE   O3119125   1.246   3.669   2.455  0.3116 -0.3058 -0.3881
  170SAPE   C3119126   1.204   3.723   2.568 -0.6063 -0.3676 -0.5029
  170SAPE   O3219127   1.096   3.775   2.589  0.1556  0.2071 -0.2730
  170SAPE   C3219128   1.316   3.693   2.681 -0.1295  0.1439  0.6655
  170SAPE   H2X19129   1.355   3.794   2.708  1.0724 -0.3770  0.9388
  170SAPE   H2Y19130   1.396   3.636   2.630 -2.1263 -0.5924 -1.7845
  170SAPE   C2319131   1.335   3.141   2.446  0.0321  0.1023  0.2587
  170SAPE   H3R19132   1.434   3.185   2.471 -0.0918 -0.5252  1.9552
  170SAPE   H3S19133   1.356   3.091   2.348 -2.2504  0.1731 -0.3284
  170SAPE   C2419134   1.270   3.035   2.532  0.1598  0.2896  0.1040
  170SAPE   H4R19135   1.194   2.990   2.464  0.2978 -0.1817  0.2585
  170SAPE   H4S19136   1.211   3.078   2.615 -2.6630 -1.4963 -0.8258
  170SAPE   C2519137   1.372   2.923   2.565  0.4806 -0.0108  0.5752
  170SAPE   H5R19138   1.439   2.906   2.480  0.2519  0.2278  0.3438
  170SAPE   C2619139   1.388   2.854   2.676  0.2450 -0.1482 -1.3919
  170SAPE   H6R19140   1.468   2.779   2.685 -1.6302 -2.2107 -1.0056
  170SAPE   C2719141   1.296   2.871   2.795  0.0852  0.3887  0.5800
  170SAPE   H7R19142   1.202   2.823   2.759  0.2459 -0.3235  1.1061
  170SAPE   H7S19143   1.264   2.977   2.803 -0.2497  0.3014  0.4137
  170SAPE   C2819144   1.329   2.826   2.933  0.1012  0.0645  0.1752
  170SAPE   H8R19145   1.434   2.803   2.953 -0.1028  0.6151  2.1023
  170SAPE   C2919146   1.245   2.824   3.040  0.3246 -0.5812  0.3454
  170SAPE   H9R19147   1.280   2.801   3.141  0.2802  2.6380  1.1891
  170SAPE  C21019148   1.113   2.900   3.039 -0.1484 -0.6892 -0.3982
  170SAPE  H10R19149   1.044   2.850   3.110 -1.4026  3.2109  1.3823
  170SAPE  H10S19150   1.068   2.888   2.938 -0.7748 -0.4127 -0.1553
  170SAPE  C21119151   1.118   3.047   3.070  0.0350  0.2961  0.1035
  170SAPE  H11R19152   1.137   3.109   2.981  1.3812 -1.0845 -0.6251
  170SAPE  C21219153   1.107   3.099   3.200  0.3313 -0.2961 -0.3998
  170SAPE  H12R19154   1.105   3.208   3.209  1.9191 -0.3297  0.6291
  170SAPE  C21319155   1.088   3.027   3.333  0.3524 -0.3235  0.0112
  170SAPE  H13R19156   1.182   3.044   3.389  1.2677 -1.8352 -0.9845
  170SAPE  H13S19157   1.085   2.916   3.323  1.4699 -0.2518 -1.4163
  170SAPE  C21419158   0.971   3.071   3.417 -0.0665 -0.0713 -0.0946
  170SAPE  H14R19159   0.876   3.065   3.363 -0.5268 -0.5515  0.7464
  170SAPE  C21519160   0.966   3.092   3.553 -0.2441  0.0031 -0.4722
  170SAPE  H15R19161   0.872   3.109   3.607 -0.5893 -1.6762 -0.4743
  170SAPE  C21619162   1.089   3.104   3.637 -0.4484 -0.0113  0.4456
  170SAPE  H16R19163   1.126   3.206   3.616 -0.1912 -0.4366 -1.3329
  170SAPE  H16S19164   1.160   3.026   3.602 -1.9839 -0.6305 -1.5168
  170SAPE  C21719165   1.067   3.096   3.792 -0.0990  0.0265  0.1624
  170SAPE  H17R19166   1.028   2.994   3.807 -0.3956  0.3995  2.2476
  170SAPE  H17S19167   0.999   3.176   3.829  0.3306  0.6195 -0.3031
  170SAPE  C21819168   1.192   3.113   3.878  0.2505  0.3358  0.6689
  170SAPE  H18R19169   1.224   3.219   3.866 -1.8606  0.9812  0.4554
  170SAPE  H18S19170   1.283   3.055   3.851  0.2106  1.8849 -3.4897
  170SAPE  C21919171   1.186   3.091   4.030  0.1184 -0.2120 -0.3497
  170SAPE  H19R19172   1.167   2.985   4.058 -1.1102  0.1075  0.0724
  170SAPE  H19S19173   1.106   3.149   4.080 -0.2235 -1.1913  0.2673
  170SAPE  C22019174   1.318   3.140   4.096  0.5626  0.0161  0.4288
  170SAPE  H20R19175   1.393   3.062   4.074  1.7053  0.7245  1.6943
  170SAPE  H20S19176   1.306   3.131   4.206  0.2010  0.2361  0.4095
  170SAPE  H20T19177   1.343   3.245   4.068 -1.7256  0.7397  0.8808
  170SAPE   C3319178   1.267   3.614   2.805  0.3115 -0.6226 -0.3688
  170SAPE   H3X19179   1.353   3.565   2.855  0.0407 -2.1458 -1.3067
  170SAPE   H3Y19180   1.205   3.528   2.771 -0.3045  0.0144 -0.9008
  170SAPE   C3419181   1.199   3.697   2.914 -0.0327  0.6183  0.0456
  170SAPE   H4X19182   1.111   3.758   2.885  0.7110  0.8556 -1.8268
  170SAPE   H4Y19183   1.275   3.772   2.945 -0.3204  1.0906 -0.3894
  170SAPE   C3519184   1.167   3.617   3.035  0.7998  0.3587 -0.2602
  170SAPE   H5X19185   1.262   3.576   3.076  0.6138  0.3061  0.1134
  170SAPE   H5Y19186   1.103   3.534   3.000  0.7018  0.1722  0.3595
  170SAPE   C3619187   1.095   3.699   3.143  0.6602  0.4278 -0.6131
  170SAPE   H6X19188   0.999   3.735   3.100 -0.3664 -0.8098  0.5431
  170SAPE   H6Y19189   1.152   3.792   3.165  1.0089 -0.2594  1.5636
  170SAPE   C3719190   1.064   3.618   3.268  0.4730  0.1650  0.3594
  170SAPE   H7X19191   1.161   3.587   3.312  0.2830 -0.0368  0.6362
  170SAPE   H7Y19192   1.009   3.524   3.248  3.1275 -1.8828  2.0011
  170SAPE   C3819193   1.001   3.691   3.386 -0.4959 -0.6154  0.0687
  170SAPE   H8X19194   0.923   3.759   3.347  2.5488  1.7748 -2.3408
  170SAPE   H8Y19195   1.069   3.756   3.444 -1.2005  0.5215 -0.3488
  170SAPE   C3919196   0.941   3.577   3.474 -0.0601  0.3578 -0.2505
  170SAPE   H9X19197   1.014   3.493   3.476 -1.7837 -1.2431  2.1895
  170SAPE   H9Y19198   0.854   3.537   3.417 -0.2775 -0.9532  0.9273
  170SAPE  C31019199   0.902   3.635   3.613 -0.5771 -0.0532 -0.1358
  170SAPE  H10X19200   0.843   3.729   3.600 -0.2204  0.0649 -0.9792
  170SAPE  H10Y19201   0.992   3.672   3.666  1.9135 -1.1853 -3.2555
  170SAPE  C31119202   0.817   3.534   3.697  0.1705 -0.0904 -0.4680
  170SAPE  H11X19203   0.885   3.448   3.714  0.9736  1.0069  2.5479
  170SAPE  H11Y19204   0.741   3.500   3.625  1.0549 -1.2362 -0.8938
  170SAPE  C31219205   0.774   3.595   3.827 -0.2026  0.0971  0.4323
  170SAPE  H12X19206   0.694   3.529   3.868  1.4307 -2.7015 -0.6109
  170SAPE  H12Y19207   0.721   3.693   3.816 -2.8065 -1.1356  1.0894
  170SAPE  C31319208   0.883   3.598   3.929  0.2571 -0.2171  0.0194
  170SAPE  H13X19209   0.961   3.664   3.885 -1.5443 -0.0623 -3.2386
  170SAPE  H13Y19210   0.929   3.497   3.929  2.3981  0.6163  2.7824
  170SAPE  C31419211   0.821   3.654   4.065 -0.1930  1.0138  0.5767
  170SAPE  H14X19212   0.722   3.611   4.090 -0.0445 -0.3858 -1.1027
  170SAPE  H14Y19213   0.810   3.764   4.048 -0.2411  1.0474  0.8243
  170SAPE  C31519214   0.925   3.628   4.175  0.1964  0.4648 -0.0145
  170SAPE  H15X19215   1.031   3.650   4.149  0.9685 -0.7619  1.9134
  170SAPE  H15Y19216   0.923   3.520   4.200 -1.6392  0.5663  0.4381
  170SAPE  C31619217   0.881   3.689   4.314 -0.2545  0.0888  0.2937
  170SAPE  H16X19218   0.963   3.644   4.376 -0.0021 -2.4686 -1.7281
  170SAPE  H16Y19219   0.776   3.667   4.341 -0.2719  0.6246  0.6759
  170SAPE  C31719220   0.911   3.834   4.316  0.0070 -0.1267 -0.9191
  170SAPE  H17X19221   0.829   3.877   4.255 -1.2934 -1.5720 -0.2650
  170SAPE  H17Y19222   1.008   3.863   4.270  0.0127 -1.3175 -1.6913
  170SAPE  C31819223   0.907   3.909   4.449  0.1439  0.2725 -0.6391
  170SAPE  H18X19224   0.806   3.907   4.495  0.3644 -0.4101 -0.1665
  170SAPE  H18Y19225   0.942   4.013   4.432  0.5699  0.2305 -0.0809
  170SAPE  H18Z19226   0.988   3.860   4.506  0.5424  0.6283 -0.8940
  171SAPE     N19227   1.259   2.663   1.654  0.1483 -0.1235 -0.0779
  171SAPE   HN119228   1.286   2.622   1.562  0.0208  1.0549 -0.6559
  171SAPE   HN219229   1.205   2.591   1.706  0.3388  0.2888  0.6930
  171SAPE   HN319230   1.186   2.734   1.633 -0.1749 -0.2092  0.7181
  171SAPE   C1219231   1.385   2.714   1.719 -0.0141 -0.1818 -0.2174
  171SAPE  H12A19232   1.459   2.631   1.719  0.6439  0.3780  1.1396
  171SAPE  H12B19233   1.363   2.734   1.826  1.5664 -1.0060  0.2997
  171SAPE   C1119234   1.456   2.832   1.653 -0.5322 -0.4000 -0.1546
  171SAPE  H11A19235   1.393   2.923   1.640 -2.1747 -1.2588  1.2813
  171SAPE  H11B19236   1.487   2.802   1.551  0.0231 -1.4215  0.3100
  171SAPE     P19237   1.600   2.997   1.787 -0.0745 -0.0566  0.0946
  171SAPE   O1319238   1.741   2.994   1.822 -0.9066  0.0673  0.0913
  171SAPE   O1419239   1.555   3.104   1.702  0.2184 -0.5284 -1.1080
  171SAPE   O1219240   1.579   2.860   1.718  0.0939  0.1512 -0.3702
  171SAPE   O1119241   1.500   2.990   1.910 -0.5416  0.1615 -0.3140
  171SAPE    C119242   1.547   3.046   2.039  0.4388  0.6505  0.0905
  171SAPE    HA19243   1.641   3.105   2.031  1.6348 -0.9322  1.6269
  171SAPE    HB19244   1.472   3.120   2.073 -1.3818  0.0767 -2.3873
  171SAPE    C219245   1.559   2.934   2.143 -0.1527 -0.6314 -0.1410
  171SAPE    HS19246   1.626   2.851   2.111  0.8227 -0.6618  1.8820
  171SAPE   O2119247   1.431   2.877   2.187 -0.1662  0.4223  0.0485
  171SAPE   C2119248   1.439   2.747   2.211  0.2504  0.2313  0.3091
  171SAPE   O2219249   1.539   2.676   2.204  0.6614  0.2682  0.0523
  171SAPE   C2219250   1.301   2.704   2.247  1.0803 -0.3743 -0.1345
  171SAPE   H2R19251   1.265   2.764   2.333  0.4871  1.1464 -1.4162
  171SAPE   H2S19252   1.233   2.729   2.163  1.6643 -2.0396 -1.1623
  171SAPE    C319253   1.634   2.984   2.269 -0.1478 -0.0158 -0.1147
  171SAPE    HX19254   1.578   3.076   2.295 -0.0261  0.2927 -0.9119
  171SAPE    HY19255   1.733   3.025   2.240 -0.8164  3.1497  1.6050
  171SAPE   O3119256   1.639   2.897   2.382  0.1501 -0.0319  0.4404
  171SAPE   C3119257   1.748   2.827   2.385 -0.1932 -0.3015  0.5127
  171SAPE   O3219258   1.844   2.834   2.308  0.4522 -0.0820 -0.2178
  171SAPE   C3219259   1.738   2.737   2.507 -0.0970 -0.0564  0.7614
  171SAPE   H2X19260   1.830   2.677   2.495 -0.6312 -0.7137 -0.0976
  171SAPE   H2Y19261   1.649   2.671   2.500  0.0149 -0.0432 -1.2271
  171SAPE   C2319262   1.300   2.554   2.283 -0.5375  0.2977 -0.0435
  171SAPE   H3R19263   1.323   2.490   2.195  1.2290 -2.6338  2.3679
  171SAPE   H3S19264   1.195   2.525   2.307 -0.7891  0.6849 -0.6469
  171SAPE   C2419265   1.385   2.523   2.409 -0.7338 -0.1790 -0.4541
  171SAPE   H4R19266   1.375   2.607   2.481 -1.2653  0.1518 -0.9078
  171SAPE   H4S19267   1.493   2.529   2.380 -0.1779 -1.5370  1.2055
  171SAPE   C2519268   1.347   2.383   2.455 -0.3654 -0.0854  0.6907
  171SAPE   H5R19269   1.327   2.304   2.382  2.2538 -1.2133  1.0971
  171SAPE   C2619270   1.322   2.350   2.581  0.1999  0.5957 -0.6757
  171SAPE   H6R19271   1.303   2.246   2.611 -0.7273  0.3738 -1.9363
  171SAPE   C2719272   1.322   2.443   2.699 -0.1143  0.0912 -0.5118
  171SAPE   H7R19273   1.232   2.415   2.758 -0.9218  0.6059 -1.4723
  171SAPE   H7S19274   1.295   2.545   2.664 -0.4614  0.0278 -0.4405
  171SAPE   C2819275   1.450   2.443   2.788 -0.2462  0.0532 -0.0677
  171SAPE   H8R19276   1.540   2.434   2.726 -0.6968  0.8537 -0.8479
  171SAPE   C2919277   1.456   2.426   2.926 -0.1400  1.1642 -0.3111
  171SAPE   H9R19278   1.558   2.411   2.966 -0.3924 -0.2317 -0.1552
  171SAPE  C21019279   1.337   2.417   3.016  0.3162 -0.7084 -1.1018
  171SAPE  H10R19280   1.253   2.478   2.979  1.1666 -0.0176 -1.9637
  171SAPE  H10S19281   1.358   2.480   3.105  0.4130 -0.0690 -1.5708
  171SAPE  C21119282   1.306   2.280   3.058  0.5373  0.2374 -0.8728
  171SAPE  H11R19283   1.237   2.228   2.989 -0.9550 -1.8976  2.0114
  171SAPE  C21219284   1.337   2.215   3.179 -0.6909  0.4573 -0.8915
  171SAPE  H12R19285   1.309   2.111   3.199  1.3727  0.1332  0.6632
  171SAPE  C21319286   1.416   2.288   3.290  0.0477 -0.2965  0.3020
  171SAPE  H13R19287   1.439   2.391   3.254  2.3792 -0.9068 -0.1227
  171SAPE  H13S19288   1.521   2.255   3.304  0.6332  2.1921  2.7772
  171SAPE  C21419289   1.350   2.289   3.428  0.1340 -0.3442  0.9415
  171SAPE  H14R19290   1.344   2.192   3.478 -1.8968 -0.6941  0.1242
  171SAPE  C21519291   1.311   2.389   3.499 -0.0996 -0.7452  0.3126
  171SAPE  H15R19292   1.251   2.366   3.588 -1.2283 -1.3455 -0.5590
  171SAPE  C21619293   1.314   2.534   3.452 -0.0928  0.4257  0.2448
  171SAPE  H16R19294   1.219   2.569   3.407 -0.9503 -2.2023 -0.1403
  171SAPE  H16S19295   1.392   2.538   3.373  0.5252  3.3405  0.8698
  171SAPE  C21719296   1.347   2.629   3.568 -0.1790  0.1740  0.1710
  171SAPE  H17R19297   1.451   2.621   3.605  0.3820  0.1828 -1.3703
  171SAPE  H17S19298   1.272   2.607   3.647  0.1322  1.2151  0.7806
  171SAPE  C21819299   1.330   2.774   3.525 -0.3231 -0.1632  0.3863
  171SAPE  H18R19300   1.223   2.802   3.517 -0.1084  0.4219 -0.7206
  171SAPE  H18S19301   1.377   2.784   3.424 -0.6078 -1.2269  0.1322
  171SAPE  C21919302   1.397   2.878   3.617  0.0820  0.3176  0.4558
  171SAPE  H19R19303   1.345   2.868   3.715 -2.3060  1.0209 -0.6718
  171SAPE  H19S19304   1.383   2.984   3.587  0.9442  1.1969  2.9128
  171SAPE  C22019305   1.545   2.871   3.647  0.2032 -0.9956  0.6423
  171SAPE  H20R19306   1.586   2.960   3.698  1.7870 -0.1267 -1.9646
  171SAPE  H20S19307   1.606   2.863   3.554 -0.6895 -0.0279 -0.0482
  171SAPE  H20T19308   1.566   2.784   3.713 -1.7064 -1.6732  0.4230
  171SAPE   C3319309   1.739   2.816   2.642 -0.2268 -0.6935 -0.1214
  171SAPE   H3X19310   1.653   2.886   2.651  0.9841  0.6407  1.4896
  171SAPE   H3Y19311   1.831   2.877   2.645  1.1355 -2.7099  2.2960
  171SAPE   C3419312   1.746   2.727   2.758 -0.2458  0.0573 -0.1968
  171SAPE   H4X19313   1.836   2.663   2.750 -0.9747 -0.9277 -0.7396
  171SAPE   H4Y19314   1.649   2.673   2.749 -0.2370 -0.5768  2.7510
  171SAPE   C3519315   1.736   2.807   2.889  0.7677 -0.0499 -0.0341
  171SAPE   H5X19316   1.639   2.861   2.883 -1.2185 -3.2795  0.6976
  171SAPE   H5Y19317   1.821   2.878   2.902 -0.6403  1.9464 -1.1019
  171SAPE   C3619318   1.731   2.704   3.003 -0.0846 -0.4602 -0.2492
  171SAPE   H6X19319   1.833   2.660   3.008  0.7809  1.5678  1.5917
  171SAPE   H6Y19320   1.661   2.618   2.990 -0.6885  0.1793 -1.3078
  171SAPE   C3719321   1.677   2.765   3.135 -0.2658 -0.3676  0.4498
  171SAPE   H7X19322   1.568   2.786   3.138 -0.8163 -2.4926 -1.6771
  171SAPE   H7Y19323   1.735   2.858   3.150 -1.2046  0.4702 -0.9964
  171SAPE   C3819324   1.719   2.680   3.251  0.1489 -0.1725  0.0677
  171SAPE   H8X19325   1.684   2.575   3.242 -0.6435  0.1744 -1.0328
  171SAPE   H8Y19326   1.667   2.735   3.333 -1.9546  1.0531 -1.9592
  171SAPE   C3919327   1.865   2.697   3.289  0.4768 -0.3779  0.2963
  171SAPE   H9X19328   1.909   2.800   3.286  1.8428 -0.9501 -0.5632
  171SAPE   H9Y19329   1.928   2.653   3.208  1.0043  1.8075 -0.5666
  171SAPE  C31019330   1.913   2.637   3.421  0.9289  0.3550  0.3071
  171SAPE  H10X19331   2.024   2.632   3.421  1.0367  1.9129 -0.6152
  171SAPE  H10Y19332   1.879   2.534   3.441  0.9584  0.5276  1.2880
  171SAPE  C31119333   1.877   2.717   3.545 -0.0201  0.3120  0.7031
  171SAPE  H11X19334   1.767   2.725   3.555 -0.1294  0.1113 -0.2325
  171SAPE  H11Y19335   1.919   2.819   3.535 -1.6362  0.9099 -0.3015
  171SAPE  C31219336   1.931   2.661   3.680 -0.1958 -0.0992  0.0405
  171SAPE  H12X19337   1.900   2.727   3.765 -1.5225 -0.9448  0.2473
  171SAPE  H12Y19338   2.042   2.663   3.677 -0.2240  0.5961 -1.3409
  171SAPE  C31319339   1.882   2.519   3.714  0.2388 -0.2938  0.3443
  171SAPE  H13X19340   1.926   2.488   3.811 -0.8102  1.1002  1.3050
  171SAPE  H13Y19341   1.921   2.448   3.638 -1.9321 -0.6266 -0.5254
  171SAPE  C31419342   1.729   2.516   3.730  0.0180  0.1039  0.1596
  171SAPE  H14X19343   1.685   2.545   3.633  1.7447  2.0528 -0.1109
  171SAPE  H14Y19344   1.711   2.593   3.808 -0.1881  0.7686 -0.5399
  171SAPE  C31519345   1.679   2.375   3.777  0.0533  1.0963  0.6087
  171SAPE  H15X19346   1.739   2.339   3.864 -0.5795 -0.1120  0.5716
  171SAPE  H15Y19347   1.689   2.293   3.702 -2.0402  0.0901  1.3422
  171SAPE  C31619348   1.536   2.373   3.818  0.0154 -0.3151 -0.6575
  171SAPE  H16X19349   1.471   2.423   3.743  0.4580  0.4922 -0.5106
  171SAPE  H16Y19350   1.527   2.423   3.916 -0.6230  0.6933 -1.2137
  171SAPE  C31719351   1.477   2.237   3.836 -0.2604  0.4722  0.4290
  171SAPE  H17X19352   1.517   2.172   3.917 -0.0656 -1.5455 -1.2124
  171SAPE  H17Y19353   1.483   2.179   3.741 -3.2390 -1.4852  1.2787
  171SAPE  C31819354   1.329   2.246   3.867 -0.3976  0.3578  0.1017
  171SAPE  H18X19355   1.267   2.271   3.779 -1.8581  0.8603  1.2264
  171SAPE  H18Y19356   1.314   2.326   3.942 -3.2624  0.5582 -0.5476
  171SAPE  H18Z19357   1.292   2.151   3.911  0.4247  0.4152  0.9604
  172SAPE     N19358   2.546   5.193   2.096 -0.6712  0.4787 -0.2292
  172SAPE   HN119359   2.605   5.277   2.075 -0.9730  0.6222 -0.5118
  172SAPE   HN219360   2.595   5.131   2.164  0.7315 -1.1887 -2.6005
  172SAPE   HN319361   2.533   5.151   2.002 -2.0479  0.4121 -0.0164
  172SAPE   C1219362   2.413   5.235   2.151  0.4486  0.5585 -0.8466
  172SAPE  H12A19363   2.381   5.322   2.089 -0.7101  0.3003 -0.6399
  172SAPE  H12B19364   2.432   5.278   2.251  0.1723 -1.5491  0.1481
  172SAPE   C1119365   2.326   5.114   2.169  0.4138 -0.0873 -0.0418
  172SAPE  H11A19366   2.231   5.149   2.214  1.4675  2.6375  0.2416
  172SAPE  H11B19367   2.366   5.053   2.253 -0.7634  1.2407  1.5484
  172SAPE     P19368   2.254   4.889   2.058 -0.3819  0.4051  0.2848
  172SAPE   O1319369   2.163   4.857   1.946  0.2458  0.7450  0.4647
  172SAPE   O1419370   2.376   4.812   2.060  0.1478 -0.2241 -0.0876
  172SAPE   O1219371   2.297   5.045   2.046 -0.4138  0.5679  0.5879
  172SAPE   O1119372   2.168   4.885   2.192 -0.4292  0.3392  0.6927
  172SAPE    C119373   2.154   4.771   2.265  0.3641  0.2754 -0.7696
  172SAPE    HA19374   2.063   4.716   2.235  0.0027  0.6253 -0.3463
  172SAPE    HB19375   2.238   4.699   2.269 -1.3086 -1.7726 -0.8945
  172SAPE    C219376   2.146   4.802   2.416 -0.7828  0.0420 -0.2603
  172SAPE    HS19377   2.088   4.716   2.457 -2.0086  0.0465 -1.8698
  172SAPE   O2119378   2.090   4.927   2.440 -0.3966  0.0517 -0.4487
  172SAPE   C2119379   1.980   4.937   2.489 -0.1802 -0.2367 -0.3243
  172SAPE   O2219380   1.897   4.850   2.522 -0.5536  0.1498 -0.8217
  172SAPE   C2219381   1.933   5.082   2.505 -0.6205  0.0602  0.2755
  172SAPE   H2R19382   1.943   5.137   2.409 -2.2548 -2.0203 -1.1717
  172SAPE   H2S19383   1.828   5.077   2.538 -1.0294  0.3221 -0.9312
  172SAPE    C319384   2.287   4.790   2.482  0.0480 -0.4879 -0.1699
  172SAPE    HX19385   2.351   4.853   2.416 -2.7647  1.8816 -0.9092
  172SAPE    HY19386   2.325   4.687   2.469 -0.0877 -0.3986 -1.3690
  172SAPE   O3119387   2.295   4.841   2.618  0.1088  0.5067  0.3778
  172SAPE   C3119388   2.255   4.749   2.703  0.1527  0.7929  0.2060
  172SAPE   O3219389   2.218   4.635   2.685 -0.0807  0.7724 -0.4019
  172SAPE   C3219390   2.264   4.817   2.840  0.8540  1.0279 -0.7193
  172SAPE   H2X19391   2.206   4.910   2.822 -0.0215  0.4976 -0.7159
  172SAPE   H2Y19392   2.369   4.838   2.869 -0.0662  3.2959  1.3439
  172SAPE   C2319393   2.027   5.161   2.595  0.2330  0.2821 -0.0476
  172SAPE   H3R19394   1.992   5.266   2.599  0.2700  0.2810  0.3872
  172SAPE   H3S19395   2.132   5.164   2.560  0.0975  1.2278 -0.3977
  172SAPE   C2419396   2.039   5.104   2.740  0.0077  0.2474  0.3344
  172SAPE   H4R19397   2.119   5.156   2.798  0.7283 -0.3111 -0.1387
  172SAPE   H4S19398   2.058   4.994   2.747  0.0356  0.3329  2.5260
  172SAPE   C2519399   1.908   5.113   2.817 -0.3072 -0.5952 -0.5945
  172SAPE   H5R19400   1.822   5.064   2.769 -0.4266 -0.2973 -0.6843
  172SAPE   C2619401   1.892   5.173   2.940 -0.2242  0.3494 -0.6872
  172SAPE   H6R19402   1.791   5.172   2.985  0.4219 -1.1887  0.8384
  172SAPE   C2719403   2.001   5.245   3.015 -0.2970  0.0288 -0.5566
  172SAPE   H7R19404   2.076   5.292   2.948  0.4304 -2.8452 -1.8950
  172SAPE   H7S19405   2.060   5.175   3.077 -1.4874  1.0773  1.8781
  172SAPE   C2819406   1.947   5.358   3.097 -0.4283  0.2486  0.3521
  172SAPE   H8R19407   1.945   5.455   3.045  1.2260 -1.1900 -2.6709
  172SAPE   C2919408   1.927   5.351   3.231  0.6477 -0.2548  0.1565
  172SAPE   H9R19409   1.880   5.424   3.299  2.3620 -1.1520  2.4222
  172SAPE  C21019410   1.935   5.218   3.313 -0.0479  0.0081  0.0602
  172SAPE  H10R19411   2.028   5.160   3.294 -1.1952 -2.5257  1.5822
  172SAPE  H10S19412   1.856   5.157   3.263  0.7230  0.8520 -2.3109
  172SAPE  C21119413   1.913   5.241   3.460  0.5469  1.0051 -0.3908
  172SAPE  H11R19414   1.864   5.332   3.497 -0.7116  1.0499 -2.0836
  172SAPE  C21219415   1.936   5.138   3.547  0.4495 -0.0830  0.1314
  172SAPE  H12R19416   1.936   5.159   3.655 -0.6502  0.3227  0.0616
  172SAPE  C21319417   1.997   5.003   3.518  0.6540 -0.1209 -0.0662
  172SAPE  H13R19418   1.992   4.964   3.414 -1.0926 -1.1967  0.3808
  172SAPE  H13S19419   1.943   4.931   3.583  1.0947 -3.0403 -2.6864
  172SAPE  C21419420   2.145   5.006   3.559 -0.1508 -0.1738 -0.8448
  172SAPE  H14R19421   2.200   5.069   3.488 -0.1938 -0.3667 -1.0502
  172SAPE  C21519422   2.210   4.951   3.664  0.0843 -0.0387  0.1303
  172SAPE  H15R19423   2.316   4.977   3.680 -0.4554  1.1193  2.0248
  172SAPE  C21619424   2.157   4.865   3.783  0.1907 -0.0199  0.4692
  172SAPE  H16R19425   2.210   4.770   3.808 -0.5415 -0.3567  0.7822
  172SAPE  H16S19426   2.052   4.837   3.757  0.7220  0.0219 -1.9476
  172SAPE  C21719427   2.141   4.945   3.919 -0.4852  0.2734 -0.4301
  172SAPE  H17R19428   2.077   4.883   3.986  0.2849 -2.2975 -1.9374
  172SAPE  H17S19429   2.083   5.038   3.903 -1.4277 -0.4166 -1.1727
  172SAPE  C21819430   2.272   4.978   3.995  0.0904 -0.9378  0.2597
  172SAPE  H18R19431   2.242   5.025   4.091 -3.1890  1.0010 -1.5573
  172SAPE  H18S19432   2.328   5.053   3.934 -1.4310  0.0809  0.0728
  172SAPE  C21919433   2.365   4.862   4.023  0.5040  0.5803  0.1110
  172SAPE  H19R19434   2.407   4.817   3.930 -1.4785 -2.1468  0.4012
  172SAPE  H19S19435   2.304   4.787   4.078 -1.3864  2.3115  0.4961
  172SAPE  C22019436   2.472   4.903   4.120  0.1915  0.2533  0.4060
  172SAPE  H20R19437   2.537   4.818   4.150 -1.3024 -1.5457 -1.1982
  172SAPE  H20S19438   2.429   4.946   4.213  0.4891  2.4714 -0.4246
  172SAPE  H20T19439   2.539   4.977   4.073 -0.2497 -0.0339 -0.7023
  172SAPE   C3319440   2.207   4.731   2.957  0.0957  0.0720 -0.7025
  172SAPE   H3X19441   2.250   4.629   2.966 -0.0232  0.1827  1.7356
  172SAPE   H3Y19442   2.103   4.708   2.925  0.6262 -2.5735 -0.8136
  172SAPE   C3419443   2.214   4.800   3.096  0.6968 -0.3166 -0.7098
  172SAPE   H4X19444   2.148   4.889   3.095 -0.3629 -1.0131  1.2607
  172SAPE   H4Y19445   2.315   4.846   3.093 -0.0842  1.4527 -2.4244
  172SAPE   C3519446   2.191   4.717   3.219 -0.0339  0.2188 -0.0437
  172SAPE   H5X19447   2.223   4.784   3.301  1.2299  1.6127 -1.6097
  172SAPE   H5Y19448   2.249   4.622   3.212  0.6891  0.5493  1.1813
  172SAPE   C3619449   2.046   4.683   3.240 -0.0747 -0.1985 -0.1707
  172SAPE   H6X19450   2.012   4.658   3.137 -1.5807  0.9137  0.0257
  172SAPE   H6Y19451   1.988   4.771   3.274  1.4740  1.3759 -1.4069
  172SAPE   C3719452   2.029   4.564   3.338 -0.5164  0.2201 -0.1995
  172SAPE   H7X19453   2.081   4.471   3.306  0.5489 -0.5562  3.3312
  172SAPE   H7Y19454   1.921   4.539   3.348 -0.5428  0.4798  0.2094
  172SAPE   C3819455   2.071   4.603   3.484  0.1581 -0.4564 -0.1130
  172SAPE   H8X19456   2.007   4.691   3.506 -1.3222 -1.7570  0.9073
  172SAPE   H8Y19457   2.181   4.623   3.490  0.3375 -1.7100  1.8069
  172SAPE   C3919458   2.042   4.490   3.584 -0.1098 -0.3686  0.2755
  172SAPE   H9X19459   2.115   4.409   3.568 -0.3037 -0.7126  1.0894
  172SAPE   H9Y19460   1.942   4.455   3.551 -1.0257  1.2946  1.1249
  172SAPE  C31019461   2.065   4.529   3.722  0.5232  0.2126  0.1941
  172SAPE  H10X19462   1.986   4.602   3.750  1.6050  0.5089  2.7045
  172SAPE  H10Y19463   2.163   4.577   3.743  1.0226 -0.5139 -0.4439
  172SAPE  C31119464   2.037   4.398   3.809 -0.5550 -0.4331  1.0359
  172SAPE  H11X19465   2.131   4.338   3.807  0.0833  0.5463  0.9786
  172SAPE  H11Y19466   1.961   4.339   3.752 -1.6166 -0.4219  2.3921
  172SAPE  C31219467   1.986   4.423   3.946 -0.4714 -0.1914 -0.1866
  172SAPE  H12X19468   1.878   4.429   3.968 -0.3320  1.0973  0.2529
  172SAPE  H12Y19469   2.038   4.514   3.985 -0.0677 -0.1408 -0.8209
  172SAPE  C31319470   2.029   4.318   4.059  0.0488  0.1870 -0.0641
  172SAPE  H13X19471   2.040   4.367   4.158  0.8770 -1.2687  0.5987
  172SAPE  H13Y19472   2.133   4.283   4.041 -0.4514 -1.6507  0.4304
  172SAPE  C31419473   1.930   4.204   4.084  0.5082 -0.0466 -0.6502
  172SAPE  H14X19474   1.826   4.243   4.089 -0.6560 -2.5336 -3.0440
  172SAPE  H14Y19475   1.951   4.148   4.178 -1.1038 -1.3837 -1.0505
  172SAPE  C31519476   1.933   4.102   3.961 -0.0555 -0.6756  0.2382
  172SAPE  H15X19477   2.038   4.082   3.928  0.2324 -1.0851  1.3714
  172SAPE  H15Y19478   1.886   4.147   3.870 -0.5358 -1.6770 -0.0147
  172SAPE  C31619479   1.869   3.967   3.996 -0.1330 -0.2376 -0.6462
  172SAPE  H16X19480   1.759   3.977   4.007 -0.0626  1.3432 -1.1409
  172SAPE  H16Y19481   1.920   3.935   4.090 -1.6481  0.7400  0.5627
  172SAPE  C31719482   1.877   3.877   3.877 -0.0673  0.5837  0.2350
  172SAPE  H17X19483   1.986   3.879   3.855 -0.5920  2.5240 -2.7359
  172SAPE  H17Y19484   1.826   3.908   3.784  0.0945 -0.7977 -0.3372
  172SAPE  C31819485   1.835   3.732   3.903  0.8387  0.7146 -0.1459
  172SAPE  H18X19486   1.726   3.730   3.924  1.1475 -0.2997  1.5304
  172SAPE  H18Y19487   1.892   3.691   3.989 -1.8298  1.1079  1.9204
  172SAPE  H18Z19488   1.848   3.663   3.817 -2.6711 -2.0089  1.2833
  173SLPC     N19489   0.723   4.513   6.680 -0.5151  0.4162  0.2365
  173SLPC   C1319490   0.858   4.520   6.617 -0.2938  0.6004 -0.2980
  173SLPC  H13A19491   0.916   4.591   6.675 -1.3327  0.6671  0.6973
  173SLPC  H13B19492   0.906   4.424   6.619  1.5082  1.4264  2.7657
  173SLPC  H13C19493   0.861   4.559   6.516  0.8808 -0.0457 -0.5303
  173SLPC   C1419494   0.639   4.627   6.630 -0.0042  0.0489 -0.0666
  173SLPC  H14A19495   0.667   4.729   6.651  0.1099 -0.2988  1.6093
  173SLPC  H14B19496   0.635   4.623   6.522 -0.7242 -0.8215 -0.0212
  173SLPC  H14C19497   0.542   4.602   6.672 -0.0339  0.9222  0.4207
  173SLPC   C1519498   0.737   4.522   6.829 -0.4169 -0.2748 -0.0719
  173SLPC  H15A19499   0.809   4.452   6.867  0.4143 -0.3023 -1.6261
  173SLPC  H15B19500   0.798   4.608   6.852 -0.8934 -0.2771  1.2882
  173SLPC  H15C19501   0.643   4.534   6.880  0.4973 -1.1569  1.8912
  173SLPC   C1219502   0.649   4.383   6.648  0.5781 -0.4928 -0.1179
  173SLPC  H12A19503   0.720   4.302   6.661 -1.2435 -2.0619  0.4755
  173SLPC  H12B19504   0.612   4.382   6.547 -1.9100  2.3798  0.6489
  173SLPC   C1119505   0.518   4.353   6.735 -0.2547 -1.0120  0.3572
  173SLPC  H11A19506   0.550   4.352   6.841  2.0763 -0.5796 -0.2957
  173SLPC  H11B19507   0.484   4.250   6.712 -1.9042 -0.3137 -0.5634
  173SLPC     P19508   0.330   4.446   6.576 -0.5336  0.2197  0.1027
  173SLPC   O1319509   0.207   4.369   6.602  0.3174  0.3388 -0.0111
  173SLPC   O1419510   0.312   4.585   6.525 -0.2142  0.4169 -0.2653
  173SLPC   O1219511   0.422   4.452   6.704  0.2099  0.2425 -0.0847
  173SLPC   O1119512   0.406   4.352   6.477  0.5637 -0.3400  0.3503
  173SLPC    C119513   0.461   4.397   6.354 -0.3721  0.2040  0.4012
  173SLPC    HA19514   0.518   4.490   6.374  1.1663 -0.7540  0.6607
  173SLPC    HB19515   0.542   4.327   6.322 -0.3446  0.5903 -0.3874
  173SLPC    C219516   0.359   4.412   6.246 -1.1138 -0.5831 -0.1583
  173SLPC    HS19517   0.296   4.501   6.268  2.0328  1.5005  1.3189
  173SLPC   O2119518   0.300   4.284   6.235  0.4084  0.5485 -0.0230
  173SLPC   C2119519   0.187   4.283   6.169  0.3905  0.0888  0.1212
  173SLPC   O2219520   0.125   4.378   6.132 -0.1381 -0.1037 -0.0339
  173SLPC   C2219521   0.147   4.134   6.135  1.0101 -1.0902  0.0780
  173SLPC   H2R19522   0.235   4.067   6.130  0.8073 -1.3714  0.2135
  173SLPC   H2S19523   0.083   4.095   6.217 -1.5496 -1.5258 -2.0051
  173SLPC    C319524   0.440   4.457   6.121 -0.1085  0.5125  0.0317
  173SLPC    HX19525   0.525   4.390   6.100 -0.1847 -0.1517  1.7193
  173SLPC    HY19526   0.480   4.559   6.141  1.6438  0.0317 -0.8790
  173SLPC   O3119527   0.356   4.456   5.992  0.1349 -0.7758  0.5405
  173SLPC   C3119528   0.284   4.567   5.972  0.2510 -0.4641 -0.0831
  173SLPC   O3219529   0.281   4.661   6.049  0.2093  0.0344  0.1918
  173SLPC   C3219530   0.216   4.548   5.837 -0.4911 -0.2752  0.3447
  173SLPC   H2X19531   0.118   4.500   5.854  0.0214 -1.1682  0.8610
  173SLPC   H2Y19532   0.271   4.469   5.782 -1.9255 -1.4443  0.5357
  173SLPC   C2319533   0.056   4.125   6.010 -0.4806 -0.2062  0.0917
  173SLPC   H3R19534  -0.033   4.190   6.021  0.2123  0.9086 -0.6515
  173SLPC   H3S19535   0.031   4.019   5.989 -0.3929 -0.2726  0.3218
  173SLPC   C2419536   0.132   4.178   5.885 -0.2283 -0.0135  0.0813
  173SLPC   H4R19537   0.241   4.155   5.884  0.4187  2.6247  1.1366
  173SLPC   H4S19538   0.133   4.289   5.890 -0.3384  0.1156 -1.9506
  173SLPC   C2519539   0.064   4.142   5.759  0.1216 -0.3049 -0.1037
  173SLPC   H5R19540  -0.043   4.145   5.786 -0.1171 -1.0958 -0.9109
  173SLPC   H5S19541   0.080   4.034   5.736 -2.1246 -1.0056  1.2945
  173SLPC   C2619542   0.105   4.235   5.647  0.6514 -0.0503 -0.8673
  173SLPC   H6R19543   0.214   4.225   5.629  0.4894 -0.0123 -1.9111
  173SLPC   H6S19544   0.075   4.342   5.656 -0.8509 -0.4413 -0.9150
  173SLPC   C2719545   0.026   4.193   5.524 -0.1371  0.4149 -0.4201
  173SLPC   H7R19546  -0.080   4.218   5.543 -0.5840 -1.5113 -0.1735
  173SLPC   H7S19547   0.041   4.084   5.513  2.0382  0.8060 -2.3067
  173SLPC   C2819548   0.062   4.266   5.386  0.7583 -0.3818  0.1410
  173SLPC   H8R19549   0.045   4.374   5.404  1.9428 -0.3061  0.9784
  173SLPC   H8S19550  -0.002   4.221   5.307  1.7668 -0.8135 -0.4541
  173SLPC   C2919551   0.209   4.254   5.353  0.0499 -0.3599  0.2135
  173SLPC   H9R19552   0.280   4.254   5.437  0.3837  2.0163 -0.0118
  173SLPC  C21019553   0.257   4.232   5.224  0.2481 -0.5889  0.3685
  173SLPC  H10R19554   0.365   4.224   5.209  0.3212 -0.1311  0.6222
  173SLPC  C21119555   0.172   4.213   5.106  0.0753 -0.1344  0.9322
  173SLPC  H11R19556   0.226   4.273   5.030 -1.5015  0.7033  0.4351
  173SLPC  H11S19557   0.080   4.275   5.118  0.2580  0.0523  1.3857
  173SLPC  C21219558   0.146   4.074   5.056  0.6238  0.1288  0.4950
  173SLPC  H12R19559   0.114   3.999   5.130  0.5907  0.5966  0.9595
  173SLPC  C21319560   0.148   4.038   4.925  0.3409  0.0872  0.0924
  173SLPC  H13R19561   0.119   3.938   4.890 -0.9938 -0.3732  2.3245
  173SLPC  C21419562   0.190   4.131   4.809  0.3536 -0.0337  0.5356
  173SLPC  H14R19563   0.206   4.238   4.836  0.4277 -0.4883  2.4293
  173SLPC  H14S19564   0.115   4.123   4.728 -0.0965 -2.9249  1.1271
  173SLPC  C21519565   0.325   4.082   4.748 -0.0574 -0.7314 -0.3291
  173SLPC  H15R19566   0.397   4.078   4.833 -1.2298  0.4057  0.7654
  173SLPC  H15S19567   0.358   4.160   4.676  0.6889 -0.3546  0.3919
  173SLPC  C21619568   0.310   3.941   4.687  0.0515  0.1014 -0.5444
  173SLPC  H16R19569   0.219   3.932   4.625 -0.0128 -1.6675 -0.2250
  173SLPC  H16S19570   0.301   3.867   4.770 -2.3251  1.7633  0.8133
  173SLPC  C21719571   0.435   3.897   4.607 -0.1320 -0.6188 -0.0334
  173SLPC  H17R19572   0.452   3.971   4.525 -0.8719  0.7498  0.9993
  173SLPC  H17S19573   0.410   3.803   4.554 -2.3543 -0.5918  0.8629
  173SLPC  C21819574   0.563   3.903   4.690  0.0635 -0.1542 -0.1450
  173SLPC  H18R19575   0.568   3.831   4.774 -0.9643 -2.9743 -2.3311
  173SLPC  H18S19576   0.585   4.006   4.724 -1.1789  0.7158 -1.8311
  173SLPC  H18T19577   0.650   3.869   4.630  0.5878  0.3102  0.3417
  173SLPC   C3319578   0.196   4.672   5.754 -0.0180 -0.5894 -0.3933
  173SLPC   H3X19579   0.286   4.723   5.712 -0.2162  1.3291  1.3280
  173SLPC   H3Y19580   0.149   4.744   5.824 -0.3071  1.1397 -2.2816
  173SLPC   C3419581   0.091   4.647   5.646 -0.0446 -0.4932  0.1458
  173SLPC   H4X19582   0.002   4.710   5.669 -0.3352 -0.5952 -0.6718
  173SLPC   H4Y19583   0.050   4.545   5.662 -1.5599 -0.1199 -1.0248
  173SLPC   C3519584   0.119   4.663   5.496 -0.6705  0.5042  0.5136
  173SLPC   H5X19585   0.171   4.576   5.450 -1.4774 -0.8466  2.0656
  173SLPC   H5Y19586   0.180   4.756   5.495  1.0837 -0.6073 -0.0196
  173SLPC   C3619587  -0.014   4.672   5.411 -0.2073  0.5753 -0.6759
  173SLPC   H6X19588  -0.091   4.735   5.459 -2.3503  0.2560 -3.4444
  173SLPC   H6Y19589  -0.057   4.571   5.397  2.2815 -0.6610 -0.0718
  173SLPC   C3719590   0.003   4.725   5.268 -0.3427  0.3617 -0.2450
  173SLPC   H7X19591   0.068   4.815   5.268  0.9323 -0.5117 -1.4448
  173SLPC   H7Y19592  -0.090   4.761   5.220 -0.0736 -0.5842 -1.5539
  173SLPC   C3819593   0.055   4.620   5.167  0.2787  0.9029 -0.0244
  173SLPC   H8X19594  -0.018   4.537   5.164  1.8556 -0.7443  2.6647
  173SLPC   H8Y19595   0.150   4.571   5.197 -0.2430 -0.8171 -1.0654
  173SLPC   C3919596   0.078   4.682   5.033 -0.4128 -0.3541  0.1504
  173SLPC   H9X19597   0.157   4.757   5.053  0.2356 -0.6870 -1.0684
  173SLPC   H9Y19598  -0.013   4.734   4.995 -1.2416 -0.3598  2.0233
  173SLPC  C31019599   0.133   4.583   4.926 -0.1008 -0.5988  0.3473
  173SLPC  H10X19600   0.056   4.504   4.915  0.6831 -1.3471  0.1125
  173SLPC  H10Y19601   0.232   4.546   4.958  0.8270  4.1741  4.2388
  173SLPC  C31119602   0.163   4.646   4.783  0.0070 -0.0924 -0.3412
  173SLPC  H11X19603   0.215   4.744   4.787 -1.2792  0.5853  0.6347
  173SLPC  H11Y19604   0.061   4.670   4.747  0.1644 -0.4858 -1.0684
  173SLPC  C31219605   0.222   4.537   4.693 -0.2692  0.1114  0.3687
  173SLPC  H12X19606   0.170   4.439   4.705 -0.3895  0.2541  1.0419
  173SLPC  H12Y19607   0.327   4.523   4.725  0.1258  0.8535 -0.5779
  173SLPC  C31319608   0.194   4.572   4.545  0.1107  0.5777 -0.0640
  173SLPC  H13X19609   0.091   4.613   4.538 -0.2432  0.4570  3.1958
  173SLPC  H13Y19610   0.190   4.481   4.481 -0.2328  1.3820 -1.2216
  173SLPC  C31419611   0.296   4.663   4.470  0.7130  0.0917 -0.6828
  173SLPC  H14X19612   0.404   4.649   4.491  0.8192 -1.5117 -2.0233
  173SLPC  H14Y19613   0.285   4.765   4.511 -0.1054 -1.1528  2.5171
  173SLPC  C31519614   0.271   4.667   4.318  0.9342 -0.0677 -0.8066
  173SLPC  H15X19615   0.166   4.670   4.281  0.5701 -1.5581  0.0063
  173SLPC  H15Y19616   0.297   4.569   4.272  0.3322 -0.1529 -0.9825
  173SLPC  C31619617   0.355   4.768   4.249  0.3242  0.9022 -0.3123
  173SLPC  H16X19618   0.461   4.751   4.276  0.2262  0.0278 -0.4475
  173SLPC  H16Y19619   0.332   4.873   4.280 -1.4134  0.2774  0.6362
  173SLPC  C31719620   0.334   4.752   4.095 -0.0354 -0.0223 -0.2913
  173SLPC  H17X19621   0.337   4.642   4.079  1.0418 -0.3109  1.5795
  173SLPC  H17Y19622   0.408   4.811   4.038  1.2125 -0.4541  0.8353
  173SLPC  C31819623   0.201   4.801   4.043  0.2482 -0.2441  0.1243
  173SLPC  H18X19624   0.200   4.791   3.933 -2.2920 -4.5509  0.3212
  173SLPC  H18Y19625   0.190   4.910   4.065 -0.7828  0.0375 -1.5866
  173SLPC  H18Z19626   0.115   4.741   4.078  0.1759  1.0183  2.3085
  174SLPC     N19627   6.002   2.929   6.554  0.0547  0.6423 -1.3121
  174SLPC   C1319628   6.141   2.937   6.502  0.2404  0.2453  0.5215
  174SLPC  H13A19629   6.170   3.032   6.459  0.5307  0.0912  0.3692
  174SLPC  H13B19630   6.219   2.916   6.574  1.8361 -0.0676 -1.2228
  174SLPC  H13C19631   6.158   2.858   6.431  0.7759 -1.3648  2.3325
  174SLPC   C1419632   5.908   2.965   6.445  0.4966 -0.5639 -0.0908
  174SLPC  H14A19633   5.929   3.057   6.392  0.7266 -1.3115 -1.3353
  174SLPC  H14B19634   5.927   2.902   6.360  1.3501  1.5087 -1.5311
  174SLPC  H14C19635   5.803   2.953   6.462 -0.0051  1.9572 -0.9143
  174SLPC   C1519636   5.979   3.035   6.662  0.2402  0.0929 -0.0123
  174SLPC  H15A19637   6.012   3.004   6.759  0.7126  0.3945 -0.0717
  174SLPC  H15B19638   6.023   3.129   6.631 -1.8232  0.8390 -0.9102
  174SLPC  H15C19639   5.873   3.033   6.681 -0.2173  1.5308 -2.0052
  174SLPC   C1219640   5.978   2.788   6.612  0.3868 -0.0906  0.3636
  174SLPC  H12A19641   5.891   2.807   6.674 -0.1955  1.8715 -0.9516
  174SLPC  H12B19642   6.060   2.756   6.674  0.5341  1.0580  0.7818
  174SLPC   C1119643   5.956   2.671   6.510 -0.6900 -0.5887  0.4248
  174SLPC  H11A19644   6.033   2.667   6.430 -2.3252 -0.4665 -1.2227
  174SLPC  H11B19645   5.862   2.693   6.455 -0.3373  0.9434  0.3834
  174SLPC     P19646   6.074   2.479   6.616 -0.4147 -0.1552 -0.7299
  174SLPC   O1319647   6.181   2.581   6.637 -0.2688  0.5073  0.4814
  174SLPC   O1419648   6.058   2.371   6.720  0.4929  0.7726  0.3801
  174SLPC   O1219649   5.940   2.554   6.583  0.3666  0.7991 -0.2982
  174SLPC   O1119650   6.098   2.408   6.478 -0.3683 -0.1736 -0.3171
  174SLPC    C119651   6.026   2.300   6.424  0.0318 -0.2889 -0.1063
  174SLPC    HA19652   6.087   2.209   6.446  1.6032  0.3357 -1.6506
  174SLPC    HB19653   5.927   2.292   6.473  0.6190  1.4792  1.4811
  174SLPC    C219654   5.996   2.311   6.271 -0.1070  0.5871  0.4969
  174SLPC    HS19655   5.990   2.208   6.230  1.9369  0.5516  0.1467
  174SLPC   O2119656   6.092   2.391   6.191 -0.0981  0.2458  0.5745
  174SLPC   C2119657   6.210   2.322   6.178 -0.3301  0.7670 -0.0804
  174SLPC   O2219658   6.229   2.212   6.219 -0.0396  0.4224 -0.1005
  174SLPC   C2219659   6.312   2.394   6.088 -0.7125 -0.3771  0.3063
  174SLPC   H2R19660   6.316   2.498   6.126  0.8326 -0.9632  1.8800
  174SLPC   H2S19661   6.414   2.352   6.101 -1.1421 -0.7582  3.1291
  174SLPC    C319662   5.862   2.380   6.238  0.7801  1.0089 -0.0252
  174SLPC    HX19663   5.870   2.486   6.271 -1.3521  1.1025  0.3138
  174SLPC    HY19664   5.795   2.328   6.310  1.1614  1.9098  1.0177
  174SLPC   O3119665   5.822   2.353   6.101  0.4702 -0.1983 -0.1775
  174SLPC   C3119666   5.845   2.461   6.021 -0.6361 -0.1215 -0.6356
  174SLPC   O3219667   5.902   2.565   6.055  0.2667 -0.0407 -0.6328
  174SLPC   C3219668   5.788   2.441   5.875  0.1593 -0.0468 -0.5321
  174SLPC   H2X19669   5.717   2.525   5.856  0.2639 -0.4611 -3.0643
  174SLPC   H2Y19670   5.726   2.349   5.879  0.8461 -0.4803  0.2682
  174SLPC   C2319671   6.259   2.404   5.942  0.3563  0.5483 -0.2855
  174SLPC   H3R19672   6.278   2.509   5.912  3.1427  0.8696  2.1303
  174SLPC   H3S19673   6.151   2.383   5.929  0.7080 -1.3390 -0.4605
  174SLPC   C2419674   6.341   2.319   5.853  0.0690  0.0849  0.4609
  174SLPC   H4R19675   6.331   2.209   5.855  0.5156 -0.0020 -1.0343
  174SLPC   H4S19676   6.449   2.340   5.869  0.1442 -0.9685  1.4402
  174SLPC   C2519677   6.317   2.357   5.703 -0.8906  0.1096 -0.6586
  174SLPC   H5R19678   6.300   2.465   5.684  0.8939  0.7485  1.0714
  174SLPC   H5S19679   6.224   2.303   5.672 -1.5246 -0.5156  2.0674
  174SLPC   C2619680   6.433   2.308   5.617 -0.6760  0.3155  0.4139
  174SLPC   H6R19681   6.435   2.197   5.621  0.8167  0.3399  1.1024
  174SLPC   H6S19682   6.526   2.346   5.664 -0.3230  3.1544 -2.1851
  174SLPC   C2719683   6.451   2.376   5.481  0.2056  0.5702 -0.9421
  174SLPC   H7R19684   6.543   2.330   5.440 -0.7640 -3.2096  0.6433
  174SLPC   H7S19685   6.478   2.483   5.492 -2.9112  1.4729 -0.9196
  174SLPC   C2819686   6.337   2.357   5.380 -0.7594  0.2539  0.0989
  174SLPC   H8R19687   6.250   2.394   5.437  0.9243  2.1903  1.5371
  174SLPC   H8S19688   6.323   2.247   5.368 -0.7246  0.2221  0.3547
  174SLPC   C2919689   6.362   2.436   5.253  0.2934 -0.2758  0.2334
  174SLPC   H9R19690   6.315   2.535   5.259  0.7206 -0.1519  1.9004
  174SLPC  C21019691   6.396   2.389   5.131  0.0594  0.0695 -0.0586
  174SLPC  H10R19692   6.408   2.463   5.052  2.3106  0.1554  0.2958
  174SLPC  C21119693   6.444   2.246   5.113  0.4238 -0.0784  0.1258
  174SLPC  H11R19694   6.362   2.197   5.055  0.4282  1.4372 -1.2443
  174SLPC  H11S19695   6.459   2.204   5.214 -0.1554  2.7534  1.5027
  174SLPC  C21219696   6.566   2.237   5.022  0.2937  0.1038  0.4388
  174SLPC  H12R19697   6.632   2.325   5.019  0.1722  0.3451  2.7963
  174SLPC  C21319698   6.614   2.123   4.959 -0.3370 -0.0735  0.3015
  174SLPC  H13R19699   6.713   2.127   4.911 -0.5800  2.3460 -0.1470
  174SLPC  C21419700   6.554   1.979   4.967 -1.0699  0.3546 -0.0432
  174SLPC  H14R19701   6.470   1.978   5.040 -0.4435  0.9971  0.6981
  174SLPC  H14S19702   6.627   1.917   5.022 -0.2715  0.9182 -0.4471
  174SLPC  C21519703   6.507   1.919   4.834  0.4004 -0.0621 -0.7122
  174SLPC  H15R19704   6.468   2.004   4.774 -1.0127  0.4524  0.8591
  174SLPC  H15S19705   6.429   1.842   4.853  2.5721 -2.2602 -0.1352
  174SLPC  C21619706   6.617   1.858   4.752 -0.5356  0.5958 -0.0112
  174SLPC  H16R19707   6.696   1.802   4.806 -0.5350 -0.1865 -0.7931
  174SLPC  H16S19708   6.660   1.946   4.699  2.0554 -1.5165 -1.6525
  174SLPC  C21719709   6.573   1.765   4.639 -0.5030  0.3618  0.3932
  174SLPC  H17R19710   6.488   1.804   4.580  0.4209  0.6007 -0.8189
  174SLPC  H17S19711   6.528   1.676   4.688 -3.1403  1.6928  0.5553
  174SLPC  C21819712   6.681   1.724   4.544 -0.7010  0.2529  1.0208
  174SLPC  H18R19713   6.729   1.813   4.495 -0.9043 -0.2261 -0.0747
  174SLPC  H18S19714   6.637   1.661   4.464 -0.3569  2.2002 -0.7890
  174SLPC  H18T19715   6.772   1.674   4.583  0.0712  1.5365  0.9430
  174SLPC   C3319716   5.898   2.430   5.772 -0.0672 -0.4740  0.4004
  174SLPC   H3X19717   5.957   2.339   5.796 -2.0820 -1.5265  1.6117
  174SLPC   H3Y19718   5.967   2.515   5.788  2.2575 -2.6547  2.8427
  174SLPC   C3419719   5.847   2.431   5.631  0.4601 -0.1181  0.5179
  174SLPC   H4X19720   5.798   2.529   5.612 -0.1152 -0.4091  0.4596
  174SLPC   H4Y19721   5.769   2.352   5.625 -0.4148  0.5706  2.2991
  174SLPC   C3519722   5.948   2.397   5.521  0.4647  0.1710 -0.3353
  174SLPC   H5X19723   5.985   2.295   5.545  2.8046  0.6233 -1.7366
  174SLPC   H5Y19724   6.029   2.472   5.510 -1.9787  2.7569 -2.1806
  174SLPC   C3619725   5.870   2.393   5.387  0.1630  0.2806 -0.2944
  174SLPC   H6X19726   5.800   2.478   5.374 -0.4477 -0.0309  0.8363
  174SLPC   H6Y19727   5.815   2.297   5.388  0.6042  0.0096  1.9647
  174SLPC   C3719728   5.974   2.385   5.274  0.0614 -0.7223  0.3262
  174SLPC   H7X19729   6.043   2.299   5.285  2.3617  0.8402 -1.1319
  174SLPC   H7Y19730   6.025   2.483   5.258  1.0001 -0.9969  1.5235
  174SLPC   C3819731   5.904   2.353   5.140 -0.2753 -0.0588  0.3271
  174SLPC   H8X19732   5.830   2.432   5.115  0.8526  0.5325 -1.3212
  174SLPC   H8Y19733   5.851   2.258   5.160 -0.1227 -0.0477  0.7915
  174SLPC   C3919734   6.005   2.366   5.019 -0.0102 -0.0235  0.1196
  174SLPC   H9X19735   6.075   2.279   5.016  0.1379  0.1240 -1.9791
  174SLPC   H9Y19736   6.072   2.454   5.024  1.6900 -1.3012  0.8860
  174SLPC  C31019737   5.919   2.368   4.888 -0.3043 -0.1313 -0.2686
  174SLPC  H10X19738   5.865   2.464   4.877  0.3024  0.3733  0.9552
  174SLPC  H10Y19739   5.852   2.280   4.884  0.4263 -0.6890 -0.5467
  174SLPC  C31119740   6.018   2.360   4.771 -0.1255 -0.2177 -0.4710
  174SLPC  H11X19741   6.083   2.272   4.789 -0.8524 -0.9358 -1.2846
  174SLPC  H11Y19742   6.078   2.454   4.777 -0.3214 -0.0574 -0.9254
  174SLPC  C31219743   5.953   2.362   4.628 -0.5194  0.2416  0.1718
  174SLPC  H12X19744   5.896   2.458   4.626  0.5475  0.8936  0.3425
  174SLPC  H12Y19745   5.882   2.284   4.594  0.5933  0.3174 -2.5686
  174SLPC  C31319746   6.065   2.350   4.522  0.0293  0.0613 -0.1958
  174SLPC  H13X19747   6.126   2.257   4.533 -0.4718 -0.3290 -0.7008
  174SLPC  H13Y19748   6.140   2.431   4.530  0.1970  0.0036 -1.1354
  174SLPC  C31419749   6.020   2.327   4.372  0.2589  0.1336  0.5591
  174SLPC  H14X19750   5.953   2.239   4.370  0.1742  0.1570 -3.1324
  174SLPC  H14Y19751   6.106   2.313   4.304  1.0054 -0.8484  1.6555
  174SLPC  C31519752   5.933   2.442   4.318 -0.4411 -0.0641  0.0670
  174SLPC  H15X19753   5.988   2.538   4.310  1.0384 -1.0159 -1.8023
  174SLPC  H15Y19754   5.856   2.455   4.397 -1.2866 -0.6365 -0.6438
  174SLPC  C31619755   5.865   2.407   4.183  0.7165  0.4139  0.2663
  174SLPC  H16X19756   5.947   2.396   4.109 -2.5662 -1.8077 -3.4325
  174SLPC  H16Y19757   5.808   2.492   4.140 -1.7157 -0.7192  1.0469
  174SLPC  C31719758   5.771   2.286   4.198 -0.1819 -0.3597  0.7102
  174SLPC  H17X19759   5.716   2.301   4.293  1.2522 -1.2594  1.7166
  174SLPC  H17Y19760   5.829   2.193   4.217  1.6648  0.3835 -0.9356
  174SLPC  C31819761   5.680   2.258   4.073 -0.1056 -0.5477 -0.1427
  174SLPC  H18X19762   5.599   2.333   4.064 -0.8078 -1.4015 -1.2340
  174SLPC  H18Y19763   5.643   2.153   4.081 -1.9417 -0.0659 -1.4660
  174SLPC  H18Z19764   5.740   2.269   3.980  0.4070 -0.7740  0.1624
  175SLPC     N19765   0.682   2.154   6.951  0.6715  0.5073  0.0600
  175SLPC   C1319766   0.824   2.127   6.928 -0.4751  0.8510 -0.7107
  175SLPC  H13A19767   0.881   2.210   6.965 -1.2452  1.5076 -0.9801
  175SLPC  H13B19768   0.861   2.037   6.975 -1.9891  0.6067  0.0806
  175SLPC  H13C19769   0.846   2.126   6.822 -1.1820 -2.0139 -0.9198
  175SLPC   C1419770   0.663   2.184   7.101 -0.0019 -0.0902 -0.2378
  175SLPC  H14A19771   0.707   2.107   7.162 -0.3121  0.4899  0.7393
  175SLPC  H14B19772   0.723   2.270   7.128 -1.2535  0.4900  0.8266
  175SLPC  H14C19773   0.561   2.213   7.125 -0.1377 -0.7768  0.0341
  175SLPC   C1519774   0.604   2.021   6.926  0.1450  0.7704 -0.5570
  175SLPC  H15A19775   0.622   1.993   6.823  0.3042  1.4194 -0.7141
  175SLPC  H15B19776   0.625   1.949   7.003  1.2387 -0.2455 -1.7549
  175SLPC  H15C19777   0.500   2.050   6.920 -0.0607  0.1704 -0.0309
  175SLPC   C1219778   0.642   2.270   6.863  0.5815  0.2916  1.0638
  175SLPC  H12A19779   0.688   2.362   6.896  0.3731  0.1333  1.8269
  175SLPC  H12B19780   0.534   2.275   6.868  0.6313  2.1108  0.8698
  175SLPC   C1119781   0.676   2.258   6.703 -0.2203  0.5125 -0.7595
  175SLPC  H11A19782   0.605   2.317   6.641  0.3490 -0.4637 -2.4116
  175SLPC  H11B19783   0.660   2.149   6.690 -1.1618  0.4735  0.4703
  175SLPC     P19784   0.889   2.382   6.586  0.5715 -0.1223 -0.2894
  175SLPC   O1319785   0.962   2.477   6.673 -0.5130  0.2504  0.3027
  175SLPC   O1419786   0.965   2.298   6.491 -0.3305  0.5305 -0.5272
  175SLPC   O1219787   0.818   2.287   6.689 -0.2554 -0.1891  0.6839
  175SLPC   O1119788   0.765   2.455   6.518 -0.0497  0.1047  0.0574
  175SLPC    C119789   0.699   2.393   6.405 -0.4561  0.3955  0.3004
  175SLPC    HA19790   0.657   2.293   6.430 -2.5601  0.9071 -0.8829
  175SLPC    HB19791   0.604   2.450   6.401 -0.7921 -0.0984  0.9237
  175SLPC    C219792   0.775   2.426   6.271 -0.1542  0.2325 -0.6116
  175SLPC    HS19793   0.878   2.384   6.278 -0.1368  0.2441 -0.8036
  175SLPC   O2119794   0.770   2.571   6.248  0.1095  0.1195 -0.2762
  175SLPC   C2119795   0.878   2.627   6.201 -0.2656 -0.2776 -0.0454
  175SLPC   O2219796   0.992   2.583   6.207 -0.0682  0.7087 -0.2891
  175SLPC   C2219797   0.830   2.752   6.131 -0.4826  0.1462 -0.5637
  175SLPC   H2R19798   0.780   2.719   6.037 -0.7101  1.3608 -0.8964
  175SLPC   H2S19799   0.755   2.805   6.193 -0.3181  0.0988 -0.3251
  175SLPC    C319800   0.714   2.349   6.155 -0.5465 -0.3529  0.4238
  175SLPC    HX19801   0.605   2.374   6.160  0.0139  2.6821 -0.1410
  175SLPC    HY19802   0.732   2.242   6.175  0.8922  0.0775  1.5477
  175SLPC   O3119803   0.767   2.389   6.028  0.0104 -0.4650 -0.4708
  175SLPC   C3119804   0.732   2.321   5.927  0.2500 -0.4589  0.1661
  175SLPC   O3219805   0.648   2.229   5.927 -0.9472  0.1222  0.4440
  175SLPC   C3219806   0.811   2.369   5.816 -0.5376 -0.1285  0.4786
  175SLPC   H2X19807   0.768   2.471   5.808  1.3319  0.6326 -0.3390
  175SLPC   H2Y19808   0.790   2.299   5.732  1.5588 -1.4231  0.9566
  175SLPC   C2319809   0.939   2.859   6.110 -0.1070 -0.0043  0.0354
  175SLPC   H3R19810   1.023   2.846   6.182  0.6966  1.2336 -0.6312
  175SLPC   H3S19811   0.883   2.955   6.111  0.8847  0.5849  0.2743
  175SLPC   C2419812   0.993   2.855   5.963  0.0268  0.1180 -0.1126
  175SLPC   H4R19813   1.032   2.755   5.935 -0.1636  0.2090 -0.7107
  175SLPC   H4S19814   1.085   2.917   5.955  0.4860 -0.2142  1.9936
  175SLPC   C2519815   0.901   2.923   5.853  0.3153  0.0235 -0.4194
  175SLPC   H5R19816   0.855   3.022   5.871  2.1566  1.0649 -1.1776
  175SLPC   H5S19817   0.824   2.847   5.828 -0.4196  0.5033  0.3217
  175SLPC   C2619818   0.973   2.940   5.722  0.2589 -0.0031  0.7070
  175SLPC   H6R19819   1.033   2.858   5.678  0.6172  0.6229  0.0127
  175SLPC   H6S19820   1.045   3.025   5.732  1.7618 -1.3243  1.7787
  175SLPC   C2719821   0.875   2.975   5.608 -0.6729  0.0259 -0.7686
  175SLPC   H7R19822   0.827   3.073   5.628 -0.5182  0.1201 -0.8521
  175SLPC   H7S19823   0.793   2.900   5.600 -0.3789 -0.3945  0.0100
  175SLPC   C2819824   0.949   2.994   5.472 -0.1376 -0.0685  0.0106
  175SLPC   H8R19825   1.001   2.901   5.440 -0.3519  0.0405 -0.6729
  175SLPC   H8S19826   1.033   3.067   5.466  0.4195 -0.7924 -2.8969
  175SLPC   C2919827   0.841   3.025   5.377  0.2334 -0.3954  0.1137
  175SLPC   H9R19828   0.760   3.094   5.405 -0.6703 -0.8949 -1.1675
  175SLPC  C21019829   0.837   2.976   5.252  0.1992  0.0213  0.3449
  175SLPC  H10R19830   0.748   3.003   5.193  0.6202  1.4562  0.3353
  175SLPC  C21119831   0.920   2.876   5.174 -0.3081 -0.4053 -0.1424
  175SLPC  H11R19832   0.949   2.787   5.234 -2.5395  0.8253  3.0864
  175SLPC  H11S19833   1.015   2.932   5.157 -0.2793  0.3013  2.0348
  175SLPC  C21219834   0.850   2.835   5.045 -0.9838  0.1263 -0.3312
  175SLPC  H12R19835   0.770   2.762   5.064  0.9308 -1.7060  1.2118
  175SLPC  C21319836   0.898   2.867   4.919  0.0169  0.2524 -0.4046
  175SLPC  H13R19837   0.859   2.808   4.835  0.3026 -0.0204 -0.3488
  175SLPC  C21419838   1.019   2.951   4.889  0.4433  0.6697 -0.5587
  175SLPC  H14R19839   1.109   2.913   4.941 -0.3978  0.6476  0.9651
  175SLPC  H14S19840   0.983   3.052   4.920 -1.8517 -0.0690 -0.5648
  175SLPC  C21519841   1.070   2.968   4.741  0.4733  0.4713 -0.5210
  175SLPC  H15R19842   1.150   3.046   4.740 -0.5916  1.5980 -1.0527
  175SLPC  H15S19843   0.989   2.995   4.670  0.5764 -2.5091 -1.9099
  175SLPC  C21619844   1.124   2.836   4.683 -0.8507  0.5959 -0.4790
  175SLPC  H16R19845   1.057   2.749   4.698 -3.5341  2.6476  0.2234
  175SLPC  H16S19846   1.214   2.815   4.745 -0.2276  2.2106 -0.7838
  175SLPC  C21719847   1.168   2.853   4.535  0.4550  0.1749  0.0191
  175SLPC  H17R19848   1.090   2.912   4.481 -0.2851 -1.7013 -1.0523
  175SLPC  H17S19849   1.166   2.748   4.500  0.4903 -0.1504  0.9763
  175SLPC  C21819850   1.300   2.923   4.521  0.1058  0.3966 -0.0610
  175SLPC  H18R19851   1.321   2.940   4.413 -1.6744  0.1894 -0.4670
  175SLPC  H18S19852   1.388   2.872   4.567  0.0408 -0.6550 -1.0592
  175SLPC  H18T19853   1.294   3.024   4.567 -0.0828 -0.0877  1.0140
  175SLPC   C3319854   0.965   2.385   5.851  0.0528 -0.0139 -0.3364
  175SLPC   H3X19855   1.009   2.307   5.917  1.4652 -0.6268 -1.9340
  175SLPC   H3Y19856   0.983   2.475   5.914  0.1321 -1.0915  1.2625
  175SLPC   C3419857   1.041   2.407   5.727  0.0645  0.3823  0.2123
  175SLPC   H4X19858   1.007   2.329   5.655 -1.5747  0.6991  0.6062
  175SLPC   H4Y19859   1.148   2.381   5.744 -0.2331 -0.6175  0.6543
  175SLPC   C3519860   1.036   2.543   5.660  0.2111 -0.0038 -0.2642
  175SLPC   H5X19861   1.069   2.616   5.737 -1.5592 -1.5893  2.1353
  175SLPC   H5Y19862   0.931   2.559   5.628  0.0169 -1.0846 -0.1852
  175SLPC   C3619863   1.132   2.559   5.539 -0.2828  0.7177  0.0278
  175SLPC   H6X19864   1.240   2.544   5.559 -0.4674  2.6823  3.1301
  175SLPC   H6Y19865   1.128   2.666   5.508 -0.8733  0.5875 -0.3637
  175SLPC   C3719866   1.081   2.485   5.409  0.2236  0.7063  0.4421
  175SLPC   H7X19867   0.974   2.515   5.404 -0.2303 -0.8859  0.1122
  175SLPC   H7Y19868   1.083   2.374   5.416  1.9554  0.4370 -2.6694
  175SLPC   C3819869   1.151   2.545   5.283 -0.4162  0.1943 -0.5480
  175SLPC   H8X19870   1.261   2.535   5.278 -0.2774  1.0799  0.5618
  175SLPC   H8Y19871   1.127   2.653   5.274 -0.5045  0.1547 -0.8072
  175SLPC   C3919872   1.090   2.474   5.155 -0.4884  0.0751 -0.1033
  175SLPC   H9X19873   0.980   2.487   5.157 -0.5687 -0.5189  2.4037
  175SLPC   H9Y19874   1.129   2.370   5.158  1.9226  0.9213  2.6280
  175SLPC  C31019875   1.140   2.538   5.030 -0.0853 -0.1734 -0.3280
  175SLPC  H10X19876   1.251   2.530   5.029 -0.1263 -1.2146  0.8090
  175SLPC  H10Y19877   1.109   2.645   5.030  1.5210  0.3352 -1.5354
  175SLPC  C31119878   1.066   2.478   4.904 -0.3325  0.7396 -0.0563
  175SLPC  H11X19879   0.989   2.546   4.862  0.9783  1.2731 -1.7710
  175SLPC  H11Y19880   1.026   2.384   4.948 -0.1444  1.3079  1.3666
  175SLPC  C31219881   1.163   2.425   4.793 -0.2057 -0.3061  0.1400
  175SLPC  H12X19882   1.224   2.340   4.832 -0.8358 -0.1134  1.5919
  175SLPC  H12Y19883   1.233   2.505   4.763 -0.1275 -0.1505  0.7296
  175SLPC  C31319884   1.077   2.378   4.672  0.5122 -0.3412  0.7684
  175SLPC  H13X19885   0.986   2.319   4.698  0.8259 -0.7386  0.9693
  175SLPC  H13Y19886   1.131   2.308   4.605 -0.2403  2.3317 -2.9587
  175SLPC  C31419887   1.038   2.493   4.568 -0.3954 -0.0316 -0.1337
  175SLPC  H14X19888   1.129   2.543   4.529 -1.0051  2.1217  1.0406
  175SLPC  H14Y19889   0.979   2.573   4.619  0.5393  0.3104  0.4523
  175SLPC  C31519890   0.941   2.439   4.452  0.4135 -0.1863  0.2625
  175SLPC  H15X19891   0.872   2.522   4.426 -1.6155 -1.5743  0.9580
  175SLPC  H15Y19892   0.893   2.348   4.492  0.6798 -0.8999 -0.9915
  175SLPC  C31619893   1.022   2.387   4.328  0.4624  0.5510 -0.3034
  175SLPC  H16X19894   1.052   2.281   4.347  0.7077  0.6456 -0.1627
  175SLPC  H16Y19895   1.116   2.443   4.307  0.5876  1.8277  3.0077
  175SLPC  C31719896   0.946   2.388   4.195  0.3870  0.2533  0.1960
  175SLPC  H17X19897   1.000   2.333   4.116 -0.9239 -1.3395  0.3659
  175SLPC  H17Y19898   0.939   2.494   4.161  0.5513 -0.1300 -1.0556
  175SLPC  C31819899   0.798   2.345   4.205 -0.4023  0.6974 -0.2301
  175SLPC  H18X19900   0.743   2.399   4.125  2.4587  2.9324 -0.8697
  175SLPC  H18Y19901   0.748   2.381   4.297  0.7463  0.3085  0.5705
  175SLPC  H18Z19902   0.788   2.234   4.198  0.3901  0.4103  2.2319
  176SLPC     N19903   1.722   0.404   6.782 -0.1255 -0.1164 -0.6420
  176SLPC   C1319904   1.839   0.464   6.710  0.3730 -0.3949  0.0639
  176SLPC  H13A19905   1.886   0.388   6.650 -1.2053  0.9918 -3.2348
  176SLPC  H13B19906   1.818   0.553   6.652 -0.7947 -0.6578  0.0605
  176SLPC  H13C19907   1.918   0.493   6.777 -1.1222  2.5260  0.7286
  176SLPC   C1419908   1.635   0.507   6.837  0.2917 -0.1421 -0.0969
  176SLPC  H14A19909   1.599   0.582   6.768  1.8655 -0.4827 -1.3486
  176SLPC  H14B19910   1.550   0.461   6.886  2.3916 -1.2436  2.7817
  176SLPC  H14C19911   1.698   0.555   6.909  1.1258 -2.1578  0.5729
  176SLPC   C1519912   1.785   0.328   6.887  0.5637  0.7746  0.1934
  176SLPC  H15A19913   1.717   0.279   6.954 -0.9925  0.7134 -1.3561
  176SLPC  H15B19914   1.835   0.244   6.842 -3.0189 -1.4440 -0.0174
  176SLPC  H15C19915   1.853   0.396   6.938  0.1629 -0.0788  1.9282
  176SLPC   C1219916   1.636   0.316   6.698 -1.1487  0.0456  0.4736
  176SLPC  H12A19917   1.552   0.362   6.650  0.8048  0.6588 -2.6585
  176SLPC  H12B19918   1.588   0.244   6.763  0.9442 -1.2008  0.7394
  176SLPC   C1119919   1.711   0.230   6.589 -0.5583  0.0909  0.2394
  176SLPC  H11A19920   1.751   0.290   6.505 -0.9599 -0.4327 -0.3327
  176SLPC  H11B19921   1.648   0.152   6.542 -1.1050  0.9488 -0.4661
  176SLPC     P19922   1.943   0.090   6.574  0.5426 -0.7334 -0.2750
  176SLPC   O1319923   2.005   0.188   6.482 -0.3242  0.0275  0.0053
  176SLPC   O1419924   2.030   0.019   6.672 -0.4296 -0.4761 -0.0034
  176SLPC   O1219925   1.817   0.156   6.654  0.0112 -1.0027  0.9096
  176SLPC   O1119926   1.859  -0.023   6.495  0.2040 -0.3001  0.4073
  176SLPC    C119927   1.925  -0.098   6.386  0.4251 -0.2097 -0.4527
  176SLPC    HA19928   2.031  -0.113   6.416  0.1993 -0.9358  0.0217
  176SLPC    HB19929   1.882  -0.199   6.372  2.8456 -1.6460  1.6078
  176SLPC    C219930   1.925  -0.018   6.253 -0.3521  0.7061 -0.1472
  176SLPC    HS19931   1.953   0.086   6.281 -2.5591  1.0891  0.7962
  176SLPC   O2119932   1.796  -0.019   6.200  0.3451  0.3143 -0.2163
  176SLPC   C2119933   1.740   0.088   6.136 -0.1239  0.2253 -0.3442
  176SLPC   O2219934   1.802   0.191   6.125  0.5751  0.7320 -0.0707
  176SLPC   C2219935   1.595   0.061   6.087  0.4404  0.5033  0.3121
  176SLPC   H2R19936   1.553  -0.003   6.168  1.2649  0.3823  0.6524
  176SLPC   H2S19937   1.522   0.145   6.091 -0.8219 -0.5257 -0.2325
  176SLPC    C319938   2.018  -0.074   6.144 -0.2938  0.5253  0.2709
  176SLPC    HX19939   1.981  -0.177   6.119  1.3073  0.1348 -0.6170
  176SLPC    HY19940   2.118  -0.094   6.186 -0.5047  1.2096  1.1157
  176SLPC   O3119941   2.016  -0.001   6.020 -0.4359 -0.1248  0.4083
  176SLPC   C3119942   2.090   0.118   6.027  0.5609 -0.0382 -0.7421
  176SLPC   O3219943   2.144   0.159   6.128  0.3631  0.0583  0.1465
  176SLPC   C3219944   2.083   0.187   5.896 -0.1842  0.0203  0.3170
  176SLPC   H2X19945   2.125   0.111   5.826 -0.5344  0.2491 -0.1490
  176SLPC   H2Y19946   2.141   0.281   5.903  0.6982 -0.3931 -1.0119
  176SLPC   C2319947   1.592  -0.014   5.951  0.1790 -0.0057 -0.4446
  176SLPC   H3R19948   1.499  -0.074   5.952  0.2978 -0.2198  1.4410
  176SLPC   H3S19949   1.677  -0.084   5.934  0.2421 -0.0832  0.1814
  176SLPC   C2419950   1.587   0.063   5.824  0.2820 -0.0323 -0.3124
  176SLPC   H4R19951   1.675   0.130   5.818 -0.6963  1.4198  0.6353
  176SLPC   H4S19952   1.503   0.134   5.806  1.0876  0.5988 -1.7998
  176SLPC   C2519953   1.591  -0.038   5.709 -0.3363  0.0760  0.2215
  176SLPC   H5R19954   1.512  -0.116   5.712  0.1435 -0.6444 -2.7171
  176SLPC   H5S19955   1.684  -0.099   5.709 -0.4305 -0.1086 -1.1248
  176SLPC   C2619956   1.575   0.016   5.565 -0.3977  0.2988  0.0749
  176SLPC   H6R19957   1.502   0.100   5.566 -0.6413  0.1104  1.9660
  176SLPC   H6S19958   1.531  -0.068   5.506 -0.7082 -1.0574  2.1535
  176SLPC   C2719959   1.708   0.051   5.497  0.2447  0.3784  0.0640
  176SLPC   H7R19960   1.784  -0.029   5.488  0.9999  0.9514  1.0925
  176SLPC   H7S19961   1.744   0.136   5.558  0.3809 -0.4099  1.1085
  176SLPC   C2819962   1.678   0.113   5.360 -0.6448 -0.1926  0.5551
  176SLPC   H8R19963   1.777   0.150   5.329 -0.6162  1.8209  2.7548
  176SLPC   H8S19964   1.612   0.201   5.372  1.5800  1.3568  2.0967
  176SLPC   C2919965   1.645  -0.000   5.256 -1.1249 -0.2189  0.5423
  176SLPC   H9R19966   1.718  -0.081   5.252  0.0176  0.8216 -0.5134
  176SLPC  C21019967   1.533  -0.008   5.178 -0.6608  0.4675 -0.7305
  176SLPC  H10R19968   1.515  -0.102   5.124  0.9023 -1.1611  1.3873
  176SLPC  C21119969   1.423   0.086   5.176  0.2466  0.9122  0.3553
  176SLPC  H11R19970   1.396   0.101   5.283 -1.0802  1.0223  0.0184
  176SLPC  H11S19971   1.339   0.024   5.138  1.9783 -1.2454 -0.1701
  176SLPC  C21219972   1.433   0.226   5.116 -0.1348 -0.5058 -0.6709
  176SLPC  H12R19973   1.537   0.262   5.124  0.8499 -3.4088  1.1821
  176SLPC  C21319974   1.344   0.281   5.037  0.5203 -0.0836  0.5227
  176SLPC  H13R19975   1.361   0.381   4.995 -0.7183 -0.4128 -0.8515
  176SLPC  C21419976   1.213   0.215   4.984 -0.8858 -0.7124 -0.7409
  176SLPC  H14R19977   1.198   0.110   5.017  1.0042 -0.6522  0.4309
  176SLPC  H14S19978   1.235   0.214   4.875  1.1986 -1.0426 -0.3482
  176SLPC  C21519979   1.083   0.295   5.033 -0.1370 -0.6848 -0.1300
  176SLPC  H15R19980   1.081   0.282   5.144  3.0352 -1.9845 -0.1160
  176SLPC  H15S19981   0.993   0.245   4.990  0.2821  0.9647 -3.1459
  176SLPC  C21619982   1.082   0.448   5.003 -0.0087  0.5425  0.0824
  176SLPC  H16R19983   1.070   0.468   4.894  2.0763 -0.2368 -0.3414
  176SLPC  H16S19984   1.183   0.483   5.036  0.0181  1.6580 -1.0842
  176SLPC  C21719985   0.968   0.520   5.075  0.3059  0.9879  0.4281
  176SLPC  H17R19986   0.877   0.460   5.054  0.5526  0.9616 -0.6296
  176SLPC  H17S19987   0.944   0.623   5.041 -1.9921  0.2352 -0.4498
  176SLPC  C21819988   0.988   0.532   5.227  0.0578 -0.3855  0.3936
  176SLPC  H18R19989   1.016   0.436   5.274 -2.6419 -0.4779  2.0104
  176SLPC  H18S19990   0.899   0.574   5.278 -0.9970 -1.8184 -0.1872
  176SLPC  H18T19991   1.072   0.601   5.250 -0.3189  0.9289 -1.8940
  176SLPC   C3319992   1.946   0.216   5.838 -0.5286 -0.7783  0.4410
  176SLPC   H3X19993   1.884   0.270   5.913 -1.5449 -0.0709 -0.8703
  176SLPC   H3Y19994   1.895   0.118   5.822 -0.2726 -0.7389 -0.7004
  176SLPC   C3419995   1.945   0.290   5.709  0.4058 -0.3481  0.3598
  176SLPC   H4X19996   1.952   0.221   5.623 -2.9828  0.5343 -0.7805
  176SLPC   H4Y19997   2.033   0.359   5.704 -0.2444  0.6685  1.9879
  176SLPC   C3519998   1.813   0.374   5.700 -0.3845 -0.0486 -0.0493
  176SLPC   H5X19999   1.799   0.436   5.791  1.3354 -0.6457  0.6682
  176SLPC   H5Y20000   1.723   0.309   5.708 -0.2381 -0.1422  1.0053
  176SLPC   C3620001   1.809   0.471   5.573  0.3865 -0.1545 -0.0104
  176SLPC   H6X20002   1.841   0.407   5.488  0.8100 -0.4248  0.3520
  176SLPC   H6Y20003   1.894   0.535   5.602  1.0429 -1.3839  0.8913
  176SLPC   C3720004   1.688   0.552   5.548 -0.3375  0.3746  0.9950
  176SLPC   H7X20005   1.669   0.641   5.612  0.2341  0.8789  0.4853
  176SLPC   H7Y20006   1.601   0.485   5.560  0.0362 -0.5818 -1.1107
  176SLPC   C3820007   1.685   0.607   5.404 -0.3835  0.4552  0.0405
  176SLPC   H8X20008   1.786   0.640   5.374  0.2093 -0.7873  0.6138
  176SLPC   H8Y20009   1.625   0.700   5.416  1.8843  2.1397 -1.0583
  176SLPC   C3920010   1.602   0.524   5.291  0.1176 -0.1002 -0.8175
  176SLPC   H9X20011   1.502   0.492   5.326  0.8918 -0.1806  1.5079
  176SLPC   H9Y20012   1.645   0.422   5.279  0.2400 -0.0725 -0.6126
  176SLPC  C31020013   1.586   0.591   5.151 -0.1016 -0.8511 -0.1597
  176SLPC  H10X20014   1.537   0.690   5.164 -0.4244 -0.8809 -1.0787
  176SLPC  H10Y20015   1.534   0.533   5.071  0.1967 -1.9130  0.4003
  176SLPC  C31120016   1.724   0.613   5.084 -0.4552  0.2163  0.0855
  176SLPC  H11X20017   1.770   0.513   5.068 -1.6928 -0.4720  0.6832
  176SLPC  H11Y20018   1.792   0.653   5.163 -0.6161 -1.4796  1.1423
  176SLPC  C31220019   1.736   0.695   4.953 -1.0081  0.2740 -0.1699
  176SLPC  H12X20020   1.692   0.637   4.869  3.2753  0.1091 -2.6369
  176SLPC  H12Y20021   1.846   0.707   4.941 -0.6137 -0.7234  1.9493
  176SLPC  C31320022   1.667   0.839   4.958 -0.7619 -0.1203  0.1679
  176SLPC  H13X20023   1.735   0.895   5.027  0.5436 -1.0480 -0.3163
  176SLPC  H13Y20024   1.572   0.827   5.014 -0.4542  0.7921  0.9140
  176SLPC  C31420025   1.658   0.903   4.818  0.2213 -0.2764  0.0546
  176SLPC  H14X20026   1.614   1.004   4.830  0.1236 -0.4011  0.8439
  176SLPC  H14Y20027   1.573   0.849   4.772  0.5284 -0.7184 -0.0079
  176SLPC  C31520028   1.787   0.902   4.743  0.4023 -0.0012  0.0299
  176SLPC  H15X20029   1.812   0.800   4.707  2.2596  1.1328 -2.2230
  176SLPC  H15Y20030   1.861   0.944   4.815  0.9533 -0.1503 -0.4423
  176SLPC  C31620031   1.808   0.990   4.619 -0.9587  0.3302  0.3958
  176SLPC  H16X20032   1.761   1.090   4.635  0.5908  0.8011  2.3731
  176SLPC  H16Y20033   1.773   0.942   4.525  0.0790  1.3624 -0.5444
  176SLPC  C31720034   1.962   1.013   4.592  0.6089 -0.1604  0.0367
  176SLPC  H17X20035   2.002   0.911   4.573  0.6847 -0.0997 -0.1305
  176SLPC  H17Y20036   2.014   1.039   4.687  1.8411 -4.2567  0.6881
  176SLPC  C31820037   1.996   1.120   4.487  0.5757  0.3170  0.2008
  176SLPC  H18X20038   1.948   1.106   4.388  0.8845  0.1804  0.0695
  176SLPC  H18Y20039   2.105   1.131   4.473  0.5631 -0.1556 -0.3229
  176SLPC  H18Z20040   1.960   1.213   4.534 -0.3428 -1.0818  2.4244
  177SLPC     N20041   0.905   0.786   6.707 -0.2364  0.0161  0.6615
  177SLPC   C1320042   0.894   0.640   6.740 -0.3981 -0.7195  0.2892
  177SLPC  H13A20043   0.910   0.623   6.845 -1.0369  2.5117  1.0394
  177SLPC  H13B20044   0.793   0.605   6.725 -0.1907 -1.8313  1.3214
  177SLPC  H13C20045   0.969   0.600   6.675  1.2974  0.7749  1.2300
  177SLPC   C1420046   1.036   0.835   6.748 -0.0412 -0.1221  0.3169
  177SLPC  H14A20047   1.110   0.770   6.702 -0.7078 -0.0853 -0.8529
  177SLPC  H14B20048   1.045   0.936   6.712 -0.5553 -0.4201 -0.6958
  177SLPC  H14C20049   1.053   0.832   6.854  0.4581 -0.4011  0.2384
  177SLPC   C1520050   0.790   0.852   6.775 -0.1330  0.0269  0.1022
  177SLPC  H15A20051   0.694   0.820   6.737  0.8158 -3.2115  0.1278
  177SLPC  H15B20052   0.794   0.847   6.883 -0.4099 -0.2336  0.1006
  177SLPC  H15C20053   0.782   0.955   6.743 -2.4059  0.1283  0.8596
  177SLPC   C1220054   0.893   0.790   6.562 -0.0271 -0.9745 -0.1071
  177SLPC  H12A20055   0.892   0.893   6.530 -3.3621 -0.5646  0.8668
  177SLPC  H12B20056   0.794   0.749   6.544  0.2310 -2.0554  0.8563
  177SLPC   C1120057   0.991   0.715   6.471  0.0238  0.6697 -0.0140
  177SLPC  H11A20058   1.096   0.741   6.496 -0.1624  0.9964  0.4466
  177SLPC  H11B20059   0.966   0.751   6.369 -0.8483  1.5462  0.4817
  177SLPC     P20060   0.859   0.509   6.403  0.1025 -0.3211 -0.1691
  177SLPC   O1320061   0.867   0.364   6.412  0.1236  0.2339  0.1439
  177SLPC   O1420062   0.727   0.567   6.451 -0.7467 -0.2018  0.7352
  177SLPC   O1220063   0.983   0.576   6.478 -0.0587  0.1003 -0.0966
  177SLPC   O1120064   0.876   0.553   6.250  0.0007 -0.1114 -0.2136
  177SLPC    C120065   1.008   0.529   6.191  0.7347 -0.3837  0.0832
  177SLPC    HA20066   1.082   0.500   6.269 -1.8629 -2.9035  1.8383
  177SLPC    HB20067   1.006   0.450   6.113 -0.6500  0.4944 -0.8280
  177SLPC    C220068   1.054   0.653   6.109 -0.2232  0.4106  0.6120
  177SLPC    HS20069   1.059   0.739   6.179  1.8256  2.3254 -1.7228
  177SLPC   O2120070   0.953   0.681   6.006  0.1630 -0.0176  0.0486
  177SLPC   C2120071   0.950   0.796   5.954 -0.6857 -0.0871 -0.4256
  177SLPC   O2220072   1.019   0.894   5.990 -0.0836  0.3387 -0.6334
  177SLPC   C2220073   0.848   0.800   5.840  0.1608  0.3495 -0.2927
  177SLPC   H2R20074   0.792   0.704   5.831  1.0340 -0.0122 -2.2054
  177SLPC   H2S20075   0.773   0.875   5.874 -0.3252 -0.4430  0.4037
  177SLPC    C320076   1.193   0.626   6.043  0.1744 -0.3683  0.2767
  177SLPC    HX20077   1.268   0.621   6.125 -0.1737  0.1120  0.6280
  177SLPC    HY20078   1.207   0.717   5.980  0.9558 -0.5370  0.1925
  177SLPC   O3120079   1.194   0.512   5.959 -0.3809 -0.0774 -0.0634
  177SLPC   C3120080   1.307   0.491   5.902  0.0376  0.6004 -0.6680
  177SLPC   O3220081   1.409   0.559   5.918 -0.0867 -0.2028  0.1526
  177SLPC   C3220082   1.302   0.357   5.825 -0.0310  0.1781  0.2221
  177SLPC   H2X20083   1.265   0.268   5.880  1.8206 -0.2400  0.8660
  177SLPC   H2Y20084   1.409   0.334   5.804 -0.5547 -2.4225  0.1010
  177SLPC   C2320085   0.915   0.843   5.712 -0.1347 -0.3746 -0.3568
  177SLPC   H3R20086   0.988   0.765   5.679 -0.2170 -0.8622  0.5875
  177SLPC   H3S20087   0.968   0.940   5.726  1.1070 -0.8964 -1.1905
  177SLPC   C2420088   0.823   0.854   5.587  0.1360 -0.4788 -0.0160
  177SLPC   H4R20089   0.749   0.932   5.615  0.1040  0.0766 -1.5351
  177SLPC   H4S20090   0.761   0.763   5.573 -0.8823  0.0382  0.9649
  177SLPC   C2520091   0.901   0.889   5.462  0.2321 -0.1380  0.4281
  177SLPC   H5R20092   0.972   0.808   5.437  1.0417  0.3488  1.0785
  177SLPC   H5S20093   0.964   0.976   5.492  0.8298 -0.9120  1.4471
  177SLPC   C2620094   0.807   0.917   5.345 -0.1663  1.1190  0.1393
  177SLPC   H6R20095   0.769   1.020   5.361 -1.0036  0.6031  1.6275
  177SLPC   H6S20096   0.729   0.839   5.334  0.8564  0.1604 -0.5302
  177SLPC   C2720097   0.888   0.918   5.210  0.1827 -0.2143  0.6670
  177SLPC   H7R20098   0.933   0.818   5.188 -0.4382 -0.5693  0.9773
  177SLPC   H7S20099   0.972   0.987   5.230 -1.1357  0.9990  2.2489
  177SLPC   C2820100   0.791   0.965   5.092  0.4900  0.5640 -0.4857
  177SLPC   H8R20101   0.721   1.040   5.137  1.7597  0.5692  1.5994
  177SLPC   H8S20102   0.735   0.873   5.065  2.4716 -0.9126  0.2535
  177SLPC   C2920103   0.868   1.015   4.982 -0.4355  0.3003  0.1389
  177SLPC   H9R20104   0.905   1.113   5.015 -0.4922 -0.4461  2.6011
  177SLPC  C21020105   0.884   0.964   4.854  0.0875 -0.2578  0.1518
  177SLPC  H10R20106   0.945   1.013   4.777 -1.5119 -1.3004 -1.8913
  177SLPC  C21120107   0.831   0.830   4.807 -0.2051 -0.9108  0.3589
  177SLPC  H11R20108   0.794   0.771   4.894 -0.2458 -0.5344  0.5979
  177SLPC  H11S20109   0.914   0.774   4.759 -0.4631  1.5802 -3.3495
  177SLPC  C21220110   0.713   0.840   4.710 -0.4577 -0.6867  0.4598
  177SLPC  H12R20111   0.650   0.930   4.719 -2.4606 -2.0498  0.7590
  177SLPC  C21320112   0.676   0.751   4.616  0.5794  0.8074 -0.3076
  177SLPC  H13R20113   0.584   0.771   4.560 -0.3069 -0.1141  0.7646
  177SLPC  C21420114   0.745   0.623   4.583  0.7840 -0.6423 -0.0065
  177SLPC  H14R20115   0.855   0.636   4.593  0.8231 -1.3760  0.5956
  177SLPC  H14S20116   0.728   0.595   4.476 -0.7025  1.1081 -0.2747
  177SLPC  C21520117   0.715   0.499   4.669  0.4571  0.4261  0.0692
  177SLPC  H15R20118   0.736   0.525   4.775 -1.0879 -0.4617  0.6316
  177SLPC  H15S20119   0.776   0.410   4.641 -0.5568  0.3911 -2.2318
  177SLPC  C21620120   0.564   0.461   4.673  0.2066 -0.3028  0.0554
  177SLPC  H16R20121   0.505   0.522   4.602  0.8663  0.5531  0.2280
  177SLPC  H16S20122   0.530   0.487   4.776 -1.1687 -2.3964  0.1850
  177SLPC  C21720123   0.542   0.317   4.633  0.0744 -0.3201 -0.0122
  177SLPC  H17R20124   0.442   0.276   4.659  1.3173 -2.2745  2.2545
  177SLPC  H17S20125   0.605   0.256   4.703 -0.6604  0.6858  1.5799
  177SLPC  C21820126   0.573   0.286   4.484 -0.2924 -0.8165  0.4180
  177SLPC  H18R20127   0.672   0.329   4.462 -0.1785 -0.1340  2.1048
  177SLPC  H18S20128   0.494   0.334   4.422 -0.2525  2.0490  2.3855
  177SLPC  H18T20129   0.573   0.177   4.461 -1.9806 -0.6808 -0.4017
  177SLPC   C3320130   1.227   0.369   5.692 -0.2423  0.3799  0.4194
  177SLPC   H3X20131   1.123   0.385   5.725  0.1430  1.4488  1.1607
  177SLPC   H3Y20132   1.230   0.267   5.647  0.1512  1.3154 -1.8304
  177SLPC   C3420133   1.269   0.473   5.584  0.2437  0.4432 -0.5527
  177SLPC   H4X20134   1.200   0.453   5.499  0.3767  0.0610 -0.5686
  177SLPC   H4Y20135   1.372   0.460   5.546  1.6598  1.2692  2.7202
  177SLPC   C3520136   1.242   0.615   5.631 -0.2525 -0.6645  0.9934
  177SLPC   H5X20137   1.312   0.649   5.710 -0.9333 -1.2585  1.8639
  177SLPC   H5Y20138   1.139   0.647   5.658 -1.2355 -1.5598 -1.3970
  177SLPC   C3620139   1.285   0.711   5.514 -0.2323  0.1221 -0.2184
  177SLPC   H6X20140   1.220   0.688   5.427  0.6701  1.7713 -1.3683
  177SLPC   H6Y20141   1.393   0.695   5.494 -0.5454 -0.8024 -1.2676
  177SLPC   C3720142   1.256   0.858   5.549 -0.4499  0.5030 -0.1569
  177SLPC   H7X20143   1.331   0.884   5.627  1.2576  0.5139 -1.7447
  177SLPC   H7Y20144   1.156   0.858   5.596 -0.0776 -0.2430  0.6674
  177SLPC   C3820145   1.269   0.958   5.437  0.5182 -0.7078 -0.5072
  177SLPC   H8X20146   1.287   1.056   5.486 -0.6440 -1.7741  2.2263
  177SLPC   H8Y20147   1.179   0.960   5.371 -0.2303  0.9904  0.5051
  177SLPC   C3920148   1.392   0.923   5.341  0.5273  0.3013  0.6485
  177SLPC   H9X20149   1.382   0.814   5.320 -1.3527 -0.0107  2.7260
  177SLPC   H9Y20150   1.483   0.952   5.399  2.5026 -0.3631 -1.8963
  177SLPC  C31020151   1.385   0.993   5.203  0.0336  0.6473 -0.3970
  177SLPC  H10X20152   1.486   1.000   5.159 -0.1518  1.3058 -0.7269
  177SLPC  H10Y20153   1.360   1.098   5.230 -0.1249  0.3985  0.4580
  177SLPC  C31120154   1.293   0.918   5.102 -0.1906  0.0896  0.0626
  177SLPC  H11X20155   1.191   0.910   5.146  0.0812  1.6030  1.0585
  177SLPC  H11Y20156   1.325   0.813   5.091 -2.5798 -0.8793  1.5155
  177SLPC  C31220157   1.290   0.991   4.962  0.1370  0.2944  0.0035
  177SLPC  H12X20158   1.393   1.028   4.944 -1.4584  4.3661 -2.3127
  177SLPC  H12Y20159   1.220   1.074   4.986  0.5518  0.4795  0.5792
  177SLPC  C31320160   1.237   0.900   4.853  0.4911  0.2696  0.1432
  177SLPC  H13X20161   1.140   0.852   4.880 -0.0312  2.1104  1.7529
  177SLPC  H13Y20162   1.310   0.818   4.838 -0.5531 -0.6579 -0.0152
  177SLPC  C31420163   1.215   0.978   4.726 -0.2010  0.0331  0.5611
  177SLPC  H14X20164   1.308   1.036   4.713 -0.2390  0.0966  0.5689
  177SLPC  H14Y20165   1.135   1.055   4.732 -1.0870 -0.7878 -0.2589
  177SLPC  C31520166   1.180   0.887   4.605 -0.2941  0.8749 -0.9439
  177SLPC  H15X20167   1.095   0.824   4.640  0.2810  1.4311  1.6960
  177SLPC  H15Y20168   1.261   0.815   4.581 -1.4461 -0.6864 -0.3244
  177SLPC  C31620169   1.142   0.962   4.484 -0.3375 -1.5317  0.6731
  177SLPC  H16X20170   1.238   0.992   4.439  0.2600  1.0477  3.3110
  177SLPC  H16Y20171   1.091   1.060   4.500  0.3304 -0.8321 -1.1888
  177SLPC  C31720172   1.056   0.883   4.390 -0.2354  0.2839  0.0545
  177SLPC  H17X20173   0.958   0.860   4.437  0.3214  0.8771  1.5796
  177SLPC  H17Y20174   1.110   0.788   4.372 -1.7395 -0.3286 -1.5108
  177SLPC  C31820175   1.037   0.954   4.255 -0.3104 -0.0932  0.0725
  177SLPC  H18X20176   0.984   0.890   4.181  0.0503 -2.1397  1.4813
  177SLPC  H18Y20177   1.140   0.976   4.219  0.2694  0.3423  1.8913
  177SLPC  H18Z20178   0.971   1.042   4.269 -0.6620 -0.3314 -0.0657
  178SLPC     N20179   4.205   5.986   7.174 -0.0263  0.3187  0.4161
  178SLPC   C1320180   4.111   5.913   7.079 -0.1551  0.4558 -0.3025
  178SLPC  H13A20181   4.143   5.810   7.084  0.5834  0.6688 -0.4589
  178SLPC  H13B20182   4.007   5.919   7.106  0.1844 -2.1468  1.9936
  178SLPC  H13C20183   4.135   5.947   6.979 -2.2471 -1.0656 -1.4032
  178SLPC   C1420184   4.188   5.934   7.316  0.6237 -0.4912 -0.2216
  178SLPC  H14A20185   4.088   5.950   7.353  0.2278  0.6901 -1.6897
  178SLPC  H14B20186   4.210   5.829   7.325  2.1435 -0.2023 -0.3299
  178SLPC  H14C20187   4.251   5.991   7.383 -2.1782  1.8976  0.5776
  178SLPC   C1520188   4.183   6.130   7.176 -0.0906  0.8489 -0.6131
  178SLPC  H15A20189   4.266   6.173   7.230 -0.3000 -0.6177  0.9540
  178SLPC  H15B20190   4.174   6.173   7.077 -0.7379 -2.0714 -1.9534
  178SLPC  H15C20191   4.090   6.150   7.227  0.1845 -2.3864  1.3991
  178SLPC   C1220192   4.350   5.954   7.123  0.2453  0.0161 -0.4937
  178SLPC  H12A20193   4.360   5.847   7.126 -0.9548 -0.1452 -1.4345
  178SLPC  H12B20194   4.429   5.989   7.188 -1.1492  0.1357  1.2114
  178SLPC   C1120195   4.377   5.992   6.975  0.6280 -0.2473  1.0359
  178SLPC  H11A20196   4.486   6.010   6.962  0.4264  1.6977  1.7733
  178SLPC  H11B20197   4.338   6.094   6.956 -3.7854 -1.9129  0.0818
  178SLPC     P20198   4.371   5.748   6.882 -0.2224 -0.2953 -0.0464
  178SLPC   O1320199   4.510   5.740   6.935 -0.4285 -0.1682  0.0770
  178SLPC   O1420200   4.259   5.660   6.944 -0.9012 -0.1672 -0.0647
  178SLPC   O1220201   4.319   5.900   6.886  0.1853 -0.7742 -0.9074
  178SLPC   O1120202   4.383   5.713   6.728  0.3249 -0.2883 -0.3959
  178SLPC    C120203   4.394   5.808   6.623 -0.4288  0.0492 -0.2520
  178SLPC    HA20204   4.289   5.837   6.598 -0.4572  1.0249  0.8842
  178SLPC    HB20205   4.459   5.887   6.666  1.2086 -0.7431 -1.2055
  178SLPC    C220206   4.452   5.742   6.492  0.1723 -0.1700 -0.9856
  178SLPC    HS20207   4.560   5.723   6.507 -0.4138 -3.5497 -0.3884
  178SLPC   O2120208   4.426   5.826   6.380  0.3637 -0.6719 -0.1957
  178SLPC   C2120209   4.475   5.952   6.377  0.0411  0.3406 -0.4672
  178SLPC   O2220210   4.529   6.007   6.472  0.3366  0.5155 -0.3715
  178SLPC   C2220211   4.461   5.998   6.229  0.0498 -0.3798 -0.4061
  178SLPC   H2R20212   4.359   6.028   6.198 -0.1499 -0.0173  0.5776
  178SLPC   H2S20213   4.519   6.092   6.218  0.9082 -0.8651 -0.1228
  178SLPC    C320214   4.385   5.600   6.472 -0.5252 -0.4766  0.3126
  178SLPC    HX20215   4.277   5.613   6.495 -0.1549  0.4825  1.6661
  178SLPC    HY20216   4.440   5.550   6.555 -0.4048  0.5666  0.8818
  178SLPC   O3120217   4.419   5.538   6.341 -0.0207 -0.4376 -0.2166
  178SLPC   C3120218   4.313   5.471   6.279  1.0200  0.5287  0.1803
  178SLPC   O3220219   4.204   5.465   6.334 -0.0067  0.9675 -0.1800
  178SLPC   C3220220   4.358   5.415   6.149 -0.1506 -0.4731  0.0929
  178SLPC   H2X20221   4.422   5.329   6.177  1.3993  0.3959 -0.6583
  178SLPC   H2Y20222   4.408   5.497   6.093  1.8242 -0.6016  1.5531
  178SLPC   C2320223   4.537   5.910   6.124  0.9952 -0.1312  0.4525
  178SLPC   H3R20224   4.478   5.822   6.090  3.4910 -1.8910  0.4351
  178SLPC   H3S20225   4.631   5.875   6.172  0.3818 -0.9387  1.0981
  178SLPC   C2420226   4.568   5.990   6.000  0.0885 -0.0882  0.3016
  178SLPC   H4R20227   4.596   6.088   6.044 -1.2786 -0.3195  1.7868
  178SLPC   H4S20228   4.478   6.003   5.936  0.8789  1.0147 -0.6160
  178SLPC   C2520229   4.670   5.923   5.903  0.3114 -0.0261  0.2922
  178SLPC   H5R20230   4.623   5.832   5.862 -1.6290  0.8758  0.4288
  178SLPC   H5S20231   4.755   5.902   5.972  0.3538  0.3387  0.3560
  178SLPC   C2620232   4.715   6.004   5.782  0.7893  0.6559  0.1011
  178SLPC   H6R20233   4.765   6.095   5.820  1.5332  0.9804 -1.5717
  178SLPC   H6S20234   4.627   6.033   5.720  0.2580  0.3138  0.6780
  178SLPC   C2720235   4.807   5.928   5.685 -0.5591 -0.5951 -0.1367
  178SLPC   H7R20236   4.747   5.849   5.637  0.0210 -1.2335  0.1698
  178SLPC   H7S20237   4.883   5.877   5.749  2.5150  2.5744 -0.9403
  178SLPC   C2820238   4.866   6.015   5.581  0.0528 -0.5624  0.7243
  178SLPC   H8R20239   4.933   6.093   5.624  0.6771 -0.1265 -0.9545
  178SLPC   H8S20240   4.781   6.075   5.541 -1.5577 -1.7008  2.2840
  178SLPC   C2920241   4.966   5.951   5.488 -0.2380 -0.3118 -0.0854
  178SLPC   H9R20242   5.051   5.900   5.535  1.6081  1.2631 -1.5280
  178SLPC  C21020243   4.975   5.974   5.355 -0.8347 -0.6226  0.2137
  178SLPC  H10R20244   5.041   5.906   5.299  0.9972  1.7719 -0.6939
  178SLPC  C21120245   4.895   6.065   5.264 -0.4512 -0.0386 -0.6877
  178SLPC  H11R20246   4.962   6.144   5.223  1.9969 -0.8863  1.4574
  178SLPC  H11S20247   4.825   6.123   5.328  1.0298  2.5294 -1.2322
  178SLPC  C21220248   4.817   5.991   5.163 -0.1536  0.8742 -0.2483
  178SLPC  H12R20249   4.726   5.942   5.201  1.4518  0.4758  3.4610
  178SLPC  C21320250   4.850   5.982   5.035  0.0020  0.0522 -0.2091
  178SLPC  H13R20251   4.790   5.930   4.960 -1.1590 -0.2360  0.8882
  178SLPC  C21420252   4.982   6.027   4.985  0.0894 -0.3039 -0.6027
  178SLPC  H14R20253   5.060   5.966   5.036 -1.6727 -0.7056  1.8201
  178SLPC  H14S20254   4.997   6.135   5.006 -0.4115  0.3349 -3.2052
  178SLPC  C21520255   5.007   6.023   4.838 -0.5593 -0.3817  0.8447
  178SLPC  H15R20256   4.932   6.087   4.787  0.0340 -0.3318  0.0236
  178SLPC  H15S20257   4.990   5.918   4.806 -2.6070  0.5646 -1.4636
  178SLPC  C21620258   5.143   6.077   4.808  0.6083 -0.5579  0.2134
  178SLPC  H16R20259   5.213   5.992   4.817 -1.7716 -2.5641  0.6725
  178SLPC  H16S20260   5.178   6.161   4.872  1.0786 -1.8404  1.6805
  178SLPC  C21720261   5.158   6.122   4.660  0.2880 -0.3444 -0.2798
  178SLPC  H17R20262   5.256   6.170   4.639 -1.0798  3.7078  1.6323
  178SLPC  H17S20263   5.076   6.195   4.647 -0.1488 -0.4823  1.4638
  178SLPC  C21820264   5.129   6.014   4.548  0.3295  0.2016 -0.4286
  178SLPC  H18R20265   5.207   5.935   4.546 -1.4513 -1.6420 -0.6224
  178SLPC  H18S20266   5.125   6.057   4.446  0.2579  1.2789  0.0101
  178SLPC  H18T20267   5.030   5.967   4.567  0.3071  0.3449 -0.1944
  178SLPC   C3320268   4.237   5.366   6.063 -0.0486 -0.0451 -0.1580
  178SLPC   H3X20269   4.148   5.428   6.085  0.2652  0.2838  0.2056
  178SLPC   H3Y20270   4.223   5.257   6.077  4.9722 -1.1538 -1.7106
  178SLPC   C3420271   4.267   5.377   5.909  0.1581 -0.1861  0.3729
  178SLPC   H4X20272   4.364   5.331   5.878 -0.3075  0.2353 -1.8664
  178SLPC   H4Y20273   4.280   5.485   5.887 -1.8396 -0.1414 -0.7891
  178SLPC   C3520274   4.156   5.318   5.826  0.3860  0.0825 -0.4660
  178SLPC   H5X20275   4.061   5.372   5.843  1.6619  1.9305  1.3074
  178SLPC   H5Y20276   4.147   5.212   5.857 -0.1756 -0.1715 -1.4548
  178SLPC   C3620277   4.200   5.313   5.682  0.1054  0.3930  0.5521
  178SLPC   H6X20278   4.306   5.278   5.681 -0.5665 -2.2258 -3.2338
  178SLPC   H6Y20279   4.204   5.416   5.641 -0.2442  0.2362  0.1198
  178SLPC   C3720280   4.122   5.215   5.590 -0.4737 -0.2952 -0.3184
  178SLPC   H7X20281   4.015   5.243   5.587 -0.0207  1.5913 -0.0862
  178SLPC   H7Y20282   4.146   5.114   5.629  1.2211  1.2101  3.0218
  178SLPC   C3820283   4.177   5.216   5.448 -0.2298 -0.3641  0.5207
  178SLPC   H8X20284   4.274   5.163   5.438 -1.6032 -2.5798 -3.2488
  178SLPC   H8Y20285   4.190   5.324   5.424 -2.2885 -0.4291 -1.2814
  178SLPC   C3920286   4.080   5.162   5.340 -0.4809 -0.1341  0.3588
  178SLPC   H9X20287   3.987   5.224   5.337 -1.4129 -1.4724  0.6802
  178SLPC   H9Y20288   4.035   5.064   5.365 -1.0026  0.3476  1.3777
  178SLPC  C31020289   4.149   5.147   5.203  0.3124 -0.2451 -0.8278
  178SLPC  H10X20290   4.237   5.079   5.205  0.8575  0.0797 -4.9894
  178SLPC  H10Y20291   4.176   5.252   5.182  0.0104 -0.0699 -0.3435
  178SLPC  C31120292   4.071   5.092   5.081 -0.1595  0.0878 -0.0737
  178SLPC  H11X20293   3.981   5.153   5.057 -1.7120 -1.6341  1.0302
  178SLPC  H11Y20294   4.027   4.992   5.103 -1.9255  1.1197  1.3859
  178SLPC  C31220295   4.162   5.090   4.959 -0.2589 -0.0882 -0.7518
  178SLPC  H12X20296   4.240   5.013   4.978 -0.3529 -0.4043 -1.6374
  178SLPC  H12Y20297   4.223   5.183   4.965  1.1456 -1.0497  1.4146
  178SLPC  C31320298   4.096   5.076   4.821 -0.6275 -0.0355  0.1786
  178SLPC  H13X20299   4.054   4.976   4.797 -2.4460  0.2024  2.0549
  178SLPC  H13Y20300   4.176   5.087   4.745 -0.8375 -2.8409 -0.5481
  178SLPC  C31420301   3.984   5.182   4.803 -0.3353  1.0348  1.1605
  178SLPC  H14X20302   4.011   5.289   4.822 -2.3438  1.9036 -0.4819
  178SLPC  H14Y20303   3.899   5.165   4.872 -0.7443  1.2045  0.7048
  178SLPC  C31520304   3.930   5.174   4.652  0.6439 -0.3498 -0.1100
  178SLPC  H15X20305   3.886   5.074   4.632  0.9252 -0.5423  0.2178
  178SLPC  H15Y20306   4.016   5.187   4.583 -0.1233  0.0333 -1.0221
  178SLPC  C31620307   3.826   5.282   4.618 -0.0026  0.1434 -0.2235
  178SLPC  H16X20308   3.874   5.382   4.632  0.5048 -0.2630  1.1886
  178SLPC  H16Y20309   3.747   5.275   4.695  0.3742 -0.8429  0.0864
  178SLPC  C31720310   3.768   5.261   4.482  0.9380 -0.8505  0.2223
  178SLPC  H17X20311   3.679   5.324   4.465 -0.4807 -2.8032  0.0944
  178SLPC  H17Y20312   3.722   5.160   4.480  0.5316 -0.6530 -1.2643
  178SLPC  C31820313   3.863   5.277   4.361  0.3591  0.0496 -0.5056
  178SLPC  H18X20314   3.941   5.198   4.371  0.3011  0.0565  0.0843
  178SLPC  H18Y20315   3.903   5.380   4.370 -1.2144  0.6810 -0.5083
  178SLPC  H18Z20316   3.806   5.263   4.268  0.1927  0.4250 -0.4604
  179SLPC     N20317   4.066   3.357   2.032 -0.2732 -0.1293  0.1212
  179SLPC   C1320318   4.093   3.413   1.897  0.0518  0.0247  0.3807
  179SLPC  H13A20319   4.017   3.374   1.830  0.2792  2.3420 -1.3537
  179SLPC  H13B20320   4.097   3.521   1.889 -0.8553  0.1681  1.5642
  179SLPC  H13C20321   4.178   3.376   1.842 -0.4715 -3.1154  1.4780
  179SLPC   C1420322   3.936   3.406   2.081  0.2038 -0.0859  0.0723
  179SLPC  H14A20323   3.846   3.390   2.023  0.0663  0.9755 -0.0271
  179SLPC  H14B20324   3.905   3.349   2.167  0.4233 -2.7374 -1.4920
  179SLPC  H14C20325   3.943   3.511   2.101  0.0152  0.0221 -0.4052
  179SLPC   C1520326   4.175   3.384   2.125 -0.3038 -0.2775 -0.1937
  179SLPC  H15A20327   4.271   3.355   2.084  0.2291 -0.6267  1.2537
  179SLPC  H15B20328   4.185   3.486   2.159  1.3893  0.1700 -1.8080
  179SLPC  H15C20329   4.168   3.317   2.209 -0.4552 -1.2057 -0.9321
  179SLPC   C1220330   4.055   3.206   2.019  0.7592  0.2100  0.2015
  179SLPC  H12A20331   4.148   3.160   1.989  1.2448  1.7627 -0.7627
  179SLPC  H12B20332   3.986   3.191   1.938  0.2244  0.5850  0.5812
  179SLPC   C1120333   4.005   3.122   2.149 -0.6586 -0.3830 -0.3900
  179SLPC  H11A20334   4.066   3.159   2.234 -1.8287  2.5225 -0.6792
  179SLPC  H11B20335   4.017   3.012   2.137 -1.4780 -0.6676  1.1559
  179SLPC     P20336   3.806   3.172   2.319 -0.0438 -0.0275 -0.1313
  179SLPC   O1320337   3.804   3.315   2.356 -0.8865  0.4126  0.0624
  179SLPC   O1420338   3.672   3.105   2.329 -0.3193 -0.2176 -0.1098
  179SLPC   O1220339   3.867   3.145   2.179 -0.4057 -0.5095 -0.0457
  179SLPC   O1120340   3.899   3.103   2.426 -0.3741 -0.0653  0.5684
  179SLPC    C120341   3.948   2.967   2.403 -0.0004 -0.4346  0.2667
  179SLPC    HA20342   3.918   2.934   2.301 -0.1811  2.1630 -0.6058
  179SLPC    HB20343   4.059   2.972   2.409 -0.0751 -0.1905  1.8225
  179SLPC    C220344   3.885   2.889   2.520 -0.1897 -0.9760 -0.5521
  179SLPC    HS20345   3.784   2.927   2.544  0.8081  1.5293 -0.0148
  179SLPC   O2120346   3.952   2.909   2.642 -0.2178  0.5875 -0.0539
  179SLPC   C2120347   3.918   3.010   2.723  0.1863  0.2982 -0.7480
  179SLPC   O2220348   3.816   3.075   2.724 -0.2644 -0.1427 -0.4268
  179SLPC   C2220349   4.044   3.034   2.807  0.0536 -0.0066  0.0847
  179SLPC   H2R20350   4.047   2.950   2.881  1.3247 -0.2178 -0.1868
  179SLPC   H2S20351   4.127   3.012   2.737 -0.3543 -2.0754  0.1798
  179SLPC    C320352   3.872   2.744   2.478  0.0676 -0.2275 -0.2973
  179SLPC    HX20353   3.967   2.697   2.446  0.5509  1.0230 -0.7741
  179SLPC    HY20354   3.812   2.736   2.385 -1.0575  1.2385  0.2626
  179SLPC   O3120355   3.816   2.665   2.583 -0.6394 -0.2340 -0.2317
  179SLPC   C3120356   3.901   2.584   2.652 -0.0958 -0.5764  0.6128
  179SLPC   O3220357   4.012   2.555   2.622  0.1952  0.0822  0.0348
  179SLPC   C3220358   3.827   2.530   2.773 -0.1935  0.1151  0.3235
  179SLPC   H2X20359   3.900   2.455   2.811  1.1598  1.3568  0.3039
  179SLPC   H2Y20360   3.729   2.498   2.733  0.4354  1.2633 -2.3575
  179SLPC   C2320361   4.050   3.167   2.883  0.0578  0.4974  0.1147
  179SLPC   H3R20362   4.021   3.253   2.818 -2.0990  0.4578  0.9663
  179SLPC   H3S20363   4.155   3.192   2.912  0.9145  0.6272 -2.7347
  179SLPC   C2420364   3.955   3.181   3.006 -0.2385  0.0801 -0.6398
  179SLPC   H4R20365   3.851   3.190   2.969 -1.0505  1.4761  1.7367
  179SLPC   H4S20366   3.977   3.280   3.051  0.7186 -0.1532 -0.5686
  179SLPC   C2520367   3.956   3.080   3.114  0.2830  0.1607  0.4287
  179SLPC   H5R20368   4.041   3.099   3.183  0.9809 -0.9218 -0.1006
  179SLPC   H5S20369   3.971   2.976   3.079 -1.7745 -1.3914  3.6399
  179SLPC   C2620370   3.824   3.065   3.184  0.7599 -0.5701 -0.4569
  179SLPC   H6R20371   3.839   2.992   3.267 -1.0757 -0.2774  0.1784
  179SLPC   H6S20372   3.745   3.032   3.112  0.2203  1.3997 -0.8177
  179SLPC   C2720373   3.780   3.195   3.252  0.1856 -0.5152 -0.3955
  179SLPC   H7R20374   3.780   3.280   3.181  0.4820 -1.4723 -1.5669
  179SLPC   H7S20375   3.867   3.210   3.320  0.0418 -1.8591  0.1043
  179SLPC   C2820376   3.644   3.197   3.324  0.1368 -0.3935  0.2942
  179SLPC   H8R20377   3.652   3.281   3.396  0.0452 -0.2599  0.1500
  179SLPC   H8S20378   3.629   3.101   3.379  0.4363  0.0116  1.0864
  179SLPC   C2920379   3.525   3.209   3.237  0.5898 -0.0696  0.3958
  179SLPC   H9R20380   3.541   3.186   3.131 -0.5568  1.0029 -0.0332
  179SLPC  C21020381   3.403   3.245   3.273  0.3739 -0.1884 -0.0151
  179SLPC  H10R20382   3.325   3.260   3.197 -0.8965 -1.9110  0.8817
  179SLPC  C21120383   3.357   3.283   3.412  0.0392  0.4589 -0.3141
  179SLPC  H11R20384   3.365   3.393   3.430  1.1432  0.5479 -1.3007
  179SLPC  H11S20385   3.406   3.225   3.493 -0.5649  1.1617  0.5810
  179SLPC  C21220386   3.209   3.247   3.427  0.0227  0.1618  0.0643
  179SLPC  H12R20387   3.132   3.323   3.407  1.1989  0.9980 -1.4231
  179SLPC  C21320388   3.170   3.119   3.441  0.1118  0.1114 -0.0538
  179SLPC  H13R20389   3.061   3.106   3.450  0.1753 -1.4214 -1.0793
  179SLPC  C21420390   3.261   2.996   3.457 -0.2521 -0.2932 -0.6137
  179SLPC  H14R20391   3.370   3.011   3.443 -0.2914  0.4097 -0.1927
  179SLPC  H14S20392   3.225   2.918   3.386 -1.9909  0.0868 -0.2059
  179SLPC  C21520393   3.256   2.929   3.592 -0.0489  0.3166  0.0085
  179SLPC  H15R20394   3.307   2.831   3.594  0.8411  0.7830  1.2810
  179SLPC  H15S20395   3.152   2.909   3.627  0.2650 -0.4896  0.5026
  179SLPC  C21620396   3.323   3.017   3.700 -0.5193 -0.0143  0.3645
  179SLPC  H16R20397   3.281   3.117   3.721  0.5115  1.3541 -3.4196
  179SLPC  H16S20398   3.417   3.028   3.642 -0.1172 -1.3058  0.7184
  179SLPC  C21720399   3.353   2.932   3.822 -0.5129  0.0579 -0.2155
  179SLPC  H17R20400   3.443   2.870   3.799  0.9147  1.9796 -0.1337
  179SLPC  H17S20401   3.269   2.862   3.838  0.9844 -1.9404 -0.7705
  179SLPC  C21820402   3.361   3.027   3.946  0.1746  0.2593 -0.2356
  179SLPC  H18R20403   3.387   2.959   4.030  1.9523  0.2229 -0.7723
  179SLPC  H18S20404   3.267   3.085   3.957  0.1930  0.3104 -0.3426
  179SLPC  H18T20405   3.445   3.100   3.938 -0.3517  0.9143  0.1097
  179SLPC   C3320406   3.794   2.645   2.869  1.4835 -0.0525 -0.2564
  179SLPC   H3X20407   3.727   2.597   2.943  0.4926  1.7029  0.0403
  179SLPC   H3Y20408   3.738   2.723   2.813  1.7159 -1.6733 -2.9062
  179SLPC   C3420409   3.918   2.713   2.932  0.9761 -0.5028  0.6340
  179SLPC   H4X20410   3.885   2.801   2.991  0.5457  0.0497 -0.3924
  179SLPC   H4Y20411   3.974   2.755   2.845 -1.5552 -0.1722 -0.9513
  179SLPC   C3520412   4.005   2.621   3.024 -0.5159 -0.4847 -0.2319
  179SLPC   H5X20413   3.940   2.549   3.079 -1.2053  0.0320 -0.3661
  179SLPC   H5Y20414   4.077   2.564   2.961 -0.3218  1.3162 -1.7091
  179SLPC   C3620415   4.077   2.715   3.127  0.1028  0.2867  0.0001
  179SLPC   H6X20416   3.995   2.748   3.196  0.5455 -1.4827  1.4410
  179SLPC   H6Y20417   4.116   2.810   3.084  0.3207 -0.2274 -0.9599
  179SLPC   C3720418   4.178   2.639   3.217 -0.1859  0.4962 -0.7110
  179SLPC   H7X20419   4.273   2.621   3.163 -1.1939  1.3291 -2.8597
  179SLPC   H7Y20420   4.136   2.537   3.231 -1.0987  0.7852 -1.2908
  179SLPC   C3820421   4.203   2.708   3.355  1.0054  0.0687  0.2492
  179SLPC   H8X20422   4.112   2.739   3.409  1.8145 -0.2781  1.8671
  179SLPC   H8Y20423   4.249   2.802   3.319 -1.1828  0.3120 -2.2720
  179SLPC   C3920424   4.283   2.617   3.443  0.1270  0.3506  0.4683
  179SLPC   H9X20425   4.348   2.542   3.394 -2.5898 -0.5827 -1.9495
  179SLPC   H9Y20426   4.218   2.543   3.493  0.2587 -0.9830 -1.2559
  179SLPC  C31020427   4.364   2.698   3.545  0.4088 -0.2120 -0.3725
  179SLPC  H10X20428   4.428   2.770   3.490 -0.3397 -0.4775 -1.6387
  179SLPC  H10Y20429   4.414   2.625   3.612 -1.0571 -0.8844  0.0230
  179SLPC  C31120430   4.276   2.783   3.638  0.3530 -0.0821  0.5366
  179SLPC  H11X20431   4.196   2.731   3.696  0.9469  0.0852  1.5243
  179SLPC  H11Y20432   4.225   2.866   3.584  1.2736 -0.3721 -0.8140
  179SLPC  C31220433   4.346   2.853   3.754 -0.0903  0.0458  0.3153
  179SLPC  H12X20434   4.275   2.917   3.810 -0.5914 -1.1093  1.0498
  179SLPC  H12Y20435   4.441   2.904   3.728 -0.1542  0.1811  0.3446
  179SLPC  C31320436   4.387   2.741   3.870 -0.6575 -0.0977  0.3172
  179SLPC  H13X20437   4.420   2.649   3.816 -1.1029  0.4672 -0.9669
  179SLPC  H13Y20438   4.299   2.712   3.930 -0.5242 -0.4641  0.3393
  179SLPC  C31420439   4.494   2.796   3.967  0.2714  0.5022  0.2156
  179SLPC  H14X20440   4.573   2.852   3.912 -0.7434  3.2259  1.3632
  179SLPC  H14Y20441   4.542   2.711   4.020 -0.6052 -0.7823 -0.9583
  179SLPC  C31520442   4.433   2.914   4.050  0.1357 -0.4450  0.3711
  179SLPC  H15X20443   4.396   2.881   4.149 -0.2177 -0.0874  0.3564
  179SLPC  H15Y20444   4.336   2.947   4.007  0.5807  1.8027  0.9958
  179SLPC  C31620445   4.512   3.048   4.063  0.0278  0.0742 -0.3421
  179SLPC  H16X20446   4.527   3.103   3.968 -1.6296  1.4933  0.1648
  179SLPC  H16Y20447   4.613   3.032   4.107  0.4022  1.7665 -0.5283
  179SLPC  C31720448   4.436   3.135   4.162  0.8292 -0.8694  0.0675
  179SLPC  H17X20449   4.444   3.079   4.258  1.8084 -1.4507 -0.3350
  179SLPC  H17Y20450   4.328   3.146   4.138  1.4344  1.7915 -1.9454
  179SLPC  C31820451   4.499   3.273   4.195  0.8232  0.0846  0.4794
  179SLPC  H18X20452   4.465   3.305   4.296 -1.8661  1.3209 -0.6963
  179SLPC  H18Y20453   4.454   3.340   4.118 -0.1302 -0.7967  0.2423
  179SLPC  H18Z20454   4.608   3.263   4.176  0.1941 -2.4276 -2.8804
  180SLPC     N20455   4.653   3.308   1.835  0.9183 -0.4125 -0.4500
  180SLPC   C1320456   4.703   3.274   1.967 -0.4410  0.1514  1.0177
  180SLPC  H13A20457   4.619   3.253   2.031 -0.1208 -0.5479  1.2240
  180SLPC  H13B20458   4.756   3.181   1.976 -0.5190  0.3048  4.1768
  180SLPC  H13C20459   4.765   3.345   2.021 -0.5538 -0.5929  2.1599
  180SLPC   C1420460   4.757   3.276   1.733 -0.0934  0.4684  0.2805
  180SLPC  H14A20461   4.727   3.295   1.631 -0.5103  1.2696  0.5519
  180SLPC  H14B20462   4.845   3.334   1.754 -1.2868  1.6080  2.4359
  180SLPC  H14C20463   4.792   3.173   1.736 -1.0928  0.0585 -0.9789
  180SLPC   C1520464   4.639   3.451   1.825  0.0719  0.7894  0.3107
  180SLPC  H15A20465   4.573   3.474   1.743 -0.4050 -0.9637  0.1757
  180SLPC  H15B20466   4.585   3.489   1.912 -2.1446  3.5615 -2.0418
  180SLPC  H15C20467   4.731   3.506   1.818 -1.0619  2.7420 -0.2372
  180SLPC   C1220468   4.533   3.224   1.810  0.3694 -0.1666 -0.4474
  180SLPC  H12A20469   4.553   3.128   1.856 -1.1501  0.2031  1.0810
  180SLPC  H12B20470   4.519   3.230   1.703  2.5363  0.6110 -0.7331
  180SLPC   C1120471   4.410   3.272   1.898 -0.1194 -0.6872 -0.2515
  180SLPC  H11A20472   4.314   3.236   1.854 -0.2880 -1.8951  1.0228
  180SLPC  H11B20473   4.396   3.382   1.891 -0.7139 -0.7768 -0.6209
  180SLPC     P20474   4.404   3.082   2.073  0.1232 -0.0791  0.4032
  180SLPC   O1320475   4.293   3.025   1.992 -0.0937  0.3142 -0.2578
  180SLPC   O1420476   4.542   3.025   2.065  0.2587  0.4648  0.8824
  180SLPC   O1220477   4.422   3.232   2.036 -0.5535  0.1983 -0.3494
  180SLPC   O1120478   4.337   3.072   2.216 -0.6273 -0.0730 -0.2420
  180SLPC    C120479   4.402   3.145   2.324  0.2198  0.4227  0.0033
  180SLPC    HA20480   4.512   3.137   2.328  0.1549 -1.5931 -1.1733
  180SLPC    HB20481   4.374   3.252   2.308  0.1152  0.4739  0.5305
  180SLPC    C220482   4.357   3.106   2.469 -0.0549 -0.1641  0.0656
  180SLPC    HS20483   4.246   3.097   2.462 -0.2757  2.2843 -0.6180
  180SLPC   O2120484   4.393   3.208   2.565 -0.2451  0.1322  0.9685
  180SLPC   C2120485   4.323   3.319   2.563  0.6462  0.0378  0.1803
  180SLPC   O2220486   4.239   3.344   2.476  0.4070  0.1118 -0.7347
  180SLPC   C2220487   4.391   3.429   2.651 -0.2046  0.2675  0.6401
  180SLPC   H2R20488   4.499   3.408   2.665  0.7334  2.4638 -2.3687
  180SLPC   H2S20489   4.396   3.520   2.588 -0.3124 -1.2869 -1.7648
  180SLPC    C320490   4.420   2.960   2.506  0.5619 -0.8163  0.0166
  180SLPC    HX20491   4.531   2.967   2.508  0.5444 -0.5328  0.0117
  180SLPC    HY20492   4.379   2.901   2.421  1.2107 -0.6234 -0.4408
  180SLPC   O3120493   4.359   2.907   2.635 -0.5865 -0.2636  0.2421
  180SLPC   C3120494   4.374   2.777   2.646 -0.4027 -0.0638 -0.0576
  180SLPC   O3220495   4.432   2.700   2.570  0.1853  0.2004  0.5041
  180SLPC   C3220496   4.299   2.736   2.773  0.0455  0.1100 -0.0519
  180SLPC   H2X20497   4.213   2.676   2.736 -0.4402 -0.4213  1.7995
  180SLPC   H2Y20498   4.249   2.818   2.829 -2.0881 -2.3616  1.9408
  180SLPC   C2320499   4.316   3.453   2.780  0.0375 -0.4014 -0.4067
  180SLPC   H3R20500   4.327   3.363   2.844  1.4759 -0.1456 -0.2410
  180SLPC   H3S20501   4.207   3.469   2.768  0.1314  3.6333  1.9852
  180SLPC   C2420502   4.367   3.566   2.876  0.2327  0.1400  0.0771
  180SLPC   H4R20503   4.289   3.588   2.952  0.3143  0.0299  0.1929
  180SLPC   H4S20504   4.394   3.652   2.811 -1.5050 -0.1643 -1.0999
  180SLPC   C2520505   4.490   3.531   2.947 -0.5393 -0.0025  0.4046
  180SLPC   H5R20506   4.577   3.541   2.879  0.5692  2.5073  2.0162
  180SLPC   H5S20507   4.469   3.427   2.978 -1.5351  0.3346  0.9081
  180SLPC   C2620508   4.527   3.601   3.077  0.4157 -0.2902 -0.0931
  180SLPC   H6R20509   4.473   3.698   3.079 -0.3575 -0.7138  1.1385
  180SLPC   H6S20510   4.637   3.613   3.079  0.4335  0.1609 -2.0892
  180SLPC   C2720511   4.502   3.527   3.210 -1.0286 -0.7197 -0.8703
  180SLPC   H7R20512   4.562   3.434   3.218 -1.2961 -0.8448 -0.3229
  180SLPC   H7S20513   4.397   3.498   3.234 -0.3517 -0.7466  2.5744
  180SLPC   C2820514   4.559   3.628   3.318 -0.3403 -0.0061  1.0253
  180SLPC   H8R20515   4.488   3.713   3.318 -0.1765  0.1319  0.7865
  180SLPC   H8S20516   4.661   3.660   3.285 -0.0876  0.4288  2.1656
  180SLPC   C2920517   4.561   3.557   3.451 -0.0540 -0.5758 -0.2788
  180SLPC   H9R20518   4.601   3.455   3.458 -1.7194 -1.4003 -2.1514
  180SLPC  C21020519   4.544   3.619   3.574  0.4916  0.0904 -0.5169
  180SLPC  H10R20520   4.575   3.568   3.666 -0.5054  2.0057  0.9769
  180SLPC  C21120521   4.500   3.761   3.600 -0.4602  0.3782  0.0938
  180SLPC  H11R20522   4.399   3.764   3.647 -0.9822 -1.1146 -0.8418
  180SLPC  H11S20523   4.483   3.817   3.505  0.2640 -2.4532 -1.8169
  180SLPC  C21220524   4.595   3.842   3.686 -0.5730  1.1942 -0.3475
  180SLPC  H12R20525   4.669   3.898   3.628 -0.1992 -0.0738 -1.1273
  180SLPC  C21320526   4.593   3.851   3.819  0.2138  0.1166  0.1891
  180SLPC  H13R20527   4.662   3.921   3.869 -0.1341  1.5366 -1.1934
  180SLPC  C21420528   4.509   3.775   3.917 -0.2176  0.9242  0.5670
  180SLPC  H14R20529   4.454   3.689   3.871  1.1722  1.3225 -2.0254
  180SLPC  H14S20530   4.424   3.842   3.941  0.2581  1.2166  1.4573
  180SLPC  C21520531   4.580   3.739   4.055 -0.1521 -0.1687 -0.0380
  180SLPC  H15R20532   4.505   3.709   4.131 -1.5434  1.7641 -0.5874
  180SLPC  H15S20533   4.627   3.828   4.103 -2.1714  0.6110  0.6066
  180SLPC  C21620534   4.685   3.628   4.044  0.1890  0.0583  0.4594
  180SLPC  H16R20535   4.749   3.661   3.959 -0.8690  1.1939  0.0654
  180SLPC  H16S20536   4.624   3.538   4.021  0.5275  0.2403 -1.2824
  180SLPC  C21720537   4.771   3.615   4.175 -0.7325 -0.2474  0.8886
  180SLPC  H17R20538   4.698   3.590   4.255 -0.3462 -0.8743  1.0552
  180SLPC  H17S20539   4.809   3.717   4.198  0.5393 -0.3995 -0.3799
  180SLPC  C21820540   4.875   3.505   4.176  0.3371 -0.1583  0.2931
  180SLPC  H18R20541   4.827   3.406   4.162 -1.2386  0.6189 -0.0671
  180SLPC  H18S20542   4.922   3.514   4.276  2.4766  0.8595 -0.7403
  180SLPC  H18T20543   4.957   3.513   4.101 -0.5262  0.8748 -0.5867
  180SLPC   C3320544   4.372   2.642   2.868 -0.4126 -0.2939  0.3538
  180SLPC   H3X20545   4.417   2.550   2.826 -2.8289 -1.2935 -0.2267
  180SLPC   H3Y20546   4.297   2.609   2.943  0.4766 -2.4098  0.3553
  180SLPC   C3420547   4.488   2.718   2.938  0.6120  0.1273 -0.0570
  180SLPC   H4X20548   4.472   2.825   2.963  0.1655  0.1865 -0.5686
  180SLPC   H4Y20549   4.572   2.710   2.866  0.4052 -0.5729 -0.2336
  180SLPC   C3520550   4.539   2.647   3.060  0.3030  0.2846  0.6094
  180SLPC   H5X20551   4.500   2.543   3.059 -1.6346  0.9501  1.5274
  180SLPC   H5Y20552   4.504   2.699   3.152  1.5387 -0.4258  1.5049
  180SLPC   C3620553   4.694   2.641   3.085  0.7173 -0.1374  0.5660
  180SLPC   H6X20554   4.729   2.745   3.103  0.6835 -0.1830  0.8931
  180SLPC   H6Y20555   4.738   2.614   2.986  0.4500  0.4977  0.2630
  180SLPC   C3720556   4.733   2.544   3.200 -0.2483 -0.0639 -0.6917
  180SLPC   H7X20557   4.843   2.537   3.208 -0.3468  0.6072  3.0286
  180SLPC   H7Y20558   4.704   2.440   3.172  2.0375 -1.5434  1.9923
  180SLPC   C3820559   4.689   2.583   3.341 -0.4552  0.2891 -0.0611
  180SLPC   H8X20560   4.590   2.540   3.365 -0.6801  1.0410  0.3894
  180SLPC   H8Y20561   4.656   2.689   3.350 -2.1549 -0.0504 -1.6395
  180SLPC   C3920562   4.785   2.546   3.450 -0.5394  0.0031 -0.2010
  180SLPC   H9X20563   4.881   2.595   3.421 -0.1586 -0.8851 -0.4702
  180SLPC   H9Y20564   4.799   2.436   3.444 -2.4100 -0.3417  1.0353
  180SLPC  C31020565   4.738   2.590   3.592  0.0973 -0.5857  0.7726
  180SLPC  H10X20566   4.627   2.589   3.596  0.0424  0.0149 -0.3062
  180SLPC  H10Y20567   4.768   2.696   3.606 -2.0150  0.2673 -0.7595
  180SLPC  C31120568   4.801   2.506   3.700 -0.1053  0.0071 -0.6113
  180SLPC  H11X20569   4.910   2.496   3.678  0.0729  0.5651 -0.0368
  180SLPC  H11Y20570   4.755   2.406   3.687 -1.0845  0.4348 -0.5363
  180SLPC  C31220571   4.781   2.553   3.847  0.5453 -0.0040 -0.0698
  180SLPC  H12X20572   4.673   2.562   3.869  0.2149  0.8263 -1.7689
  180SLPC  H12Y20573   4.824   2.655   3.860  0.3047 -0.0592  1.3057
  180SLPC  C31320574   4.831   2.454   3.954  0.4890  0.3175  0.4772
  180SLPC  H13X20575   4.941   2.449   3.949  0.4490 -1.7267  1.0507
  180SLPC  H13Y20576   4.795   2.352   3.926  3.5359 -0.4951 -0.8510
  180SLPC  C31420577   4.788   2.486   4.097  0.1789  0.6815 -0.3878
  180SLPC  H14X20578   4.804   2.406   4.172 -0.7943  2.1991  1.5008
  180SLPC  H14Y20579   4.678   2.497   4.086 -0.5161 -2.7086  1.7035
  180SLPC  C31520580   4.841   2.630   4.124  0.5735 -0.0355 -0.0167
  180SLPC  H15X20581   4.790   2.659   4.218 -3.0253 -1.2552 -1.4223
  180SLPC  H15Y20582   4.785   2.692   4.051  1.4835 -0.4878 -1.1325
  180SLPC  C31620583   4.992   2.650   4.115 -0.2964  0.4247  0.0890
  180SLPC  H16X20584   5.029   2.632   4.012 -1.7690  0.9963 -0.5595
  180SLPC  H16Y20585   5.031   2.563   4.171  0.2167  0.8693  0.4295
  180SLPC  C31720586   5.038   2.782   4.178 -0.3769 -0.0738  0.4510
  180SLPC  H17X20587   4.979   2.863   4.129 -0.4277 -0.0595  0.5329
  180SLPC  H17Y20588   5.140   2.802   4.141 -0.5373  1.5755  0.8092
  180SLPC  C31820589   5.034   2.798   4.330 -0.3901 -0.7311 -1.0104
  180SLPC  H18X20590   5.059   2.703   4.383 -1.4302 -0.6926 -0.4329
  180SLPC  H18Y20591   4.928   2.824   4.353 -0.8111 -3.0097 -0.0914
  180SLPC  H18Z20592   5.108   2.872   4.366 -0.6154 -0.9319 -0.0937
  181SLPC     N20593   2.170   0.154   1.992  0.4258 -0.2763  0.4633
  181SLPC   C1320594   2.061   0.154   1.892 -0.1181 -0.4295  0.1467
  181SLPC  H13A20595   2.002   0.065   1.880 -0.0591 -0.5088  0.4544
  181SLPC  H13B20596   1.985   0.226   1.921 -1.2038 -0.0171 -3.2232
  181SLPC  H13C20597   2.090   0.201   1.799 -2.2381  0.3386 -0.1856
  181SLPC   C1420598   2.250   0.275   1.982 -0.0458 -0.9843 -0.0624
  181SLPC  H14A20599   2.279   0.292   1.880  2.0508 -4.2859 -0.1847
  181SLPC  H14B20600   2.206   0.364   2.025  1.1943 -0.7198  0.7111
  181SLPC  H14C20601   2.345   0.266   2.034 -1.2998  0.2515  2.6471
  181SLPC   C1520602   2.258   0.042   1.950  0.1694 -0.8094  0.0813
  181SLPC  H15A20603   2.325   0.017   2.031  2.4741 -1.7456 -1.9509
  181SLPC  H15B20604   2.208  -0.052   1.933 -1.1835  0.0091 -0.5864
  181SLPC  H15C20605   2.319   0.074   1.866  0.1741  3.0178  1.3633
  181SLPC   C1220606   2.114   0.131   2.123  0.0533  0.1678 -0.2466
  181SLPC  H12A20607   2.184   0.156   2.200 -2.4353  0.9907  1.8931
  181SLPC  H12B20608   2.088   0.027   2.133 -0.3477  0.4268  1.6495
  181SLPC   C1120609   1.989   0.214   2.166 -0.0337  0.0777 -0.4953
  181SLPC  H11A20610   1.965   0.202   2.274  1.0253  2.0003 -0.0015
  181SLPC  H11B20611   1.894   0.177   2.120 -0.8977 -1.0427  2.0196
  181SLPC     P20612   1.924   0.455   2.076  0.3808  0.0298 -0.2867
  181SLPC   O1320613   1.985   0.579   2.033  0.5304 -0.7603  0.2219
  181SLPC   O1420614   1.849   0.380   1.969 -0.6354 -0.1604 -0.3687
  181SLPC   O1220615   2.023   0.350   2.153 -0.0445 -0.6214 -0.0638
  181SLPC   O1120616   1.818   0.490   2.193  0.0218 -0.0068  0.1808
  181SLPC    C120617   1.856   0.581   2.297 -0.5146 -0.5372  0.6113
  181SLPC    HA20618   1.918   0.664   2.259 -1.8129  0.5391  0.7581
  181SLPC    HB20619   1.771   0.637   2.343  1.7958  4.2761 -0.3691
  181SLPC    C220620   1.936   0.510   2.415 -0.4233 -0.3065 -0.5555
  181SLPC    HS20621   2.031   0.480   2.364 -0.2761  1.6729 -1.5234
  181SLPC   O2120622   1.852   0.400   2.463  0.4839 -0.1824 -0.2328
  181SLPC   C2120623   1.920   0.301   2.518 -0.1133  0.2586 -0.1698
  181SLPC   O2220624   2.036   0.287   2.507 -0.5665  0.5316 -0.0502
  181SLPC   C2220625   1.827   0.230   2.614 -0.2283  0.2074  0.3574
  181SLPC   H2R20626   1.725   0.269   2.596  0.1460 -0.0131 -2.8778
  181SLPC   H2S20627   1.827   0.130   2.567  0.6753  0.5588 -0.4249
  181SLPC    C320628   1.972   0.613   2.528 -0.0372 -0.8276  0.0804
  181SLPC    HX20629   1.880   0.662   2.567  0.2014  1.9715 -2.4369
  181SLPC    HY20630   2.033   0.695   2.483 -1.8639  0.4417 -0.1895
  181SLPC   O3120631   2.032   0.556   2.642  0.3782  0.2687  0.8827
  181SLPC   C3120632   2.166   0.545   2.632 -0.4170  0.8102  0.1299
  181SLPC   O3220633   2.231   0.590   2.539  0.5127  0.8197 -0.6613
  181SLPC   C3220634   2.229   0.462   2.749  0.0937 -0.3718  0.5781
  181SLPC   H2X20635   2.154   0.391   2.788  1.2179 -2.3781 -0.7342
  181SLPC   H2Y20636   2.225   0.548   2.820 -1.9454  1.4990 -1.6318
  181SLPC   C2320637   1.875   0.224   2.760  0.1611 -0.2870 -0.0329
  181SLPC   H3R20638   1.799   0.254   2.834  1.2794 -0.1885  1.1203
  181SLPC   H3S20639   1.964   0.284   2.789 -0.1074 -0.7789  1.9145
  181SLPC   C2420640   1.905   0.077   2.805 -0.3203 -0.4876  0.2957
  181SLPC   H4R20641   1.952   0.009   2.731 -1.8229 -2.5653  1.1596
  181SLPC   H4S20642   1.805   0.033   2.826 -0.4631  0.6134  2.1368
  181SLPC   C2520643   1.983   0.084   2.933  0.7039  0.6959  0.9247
  181SLPC   H5R20644   1.938   0.148   3.011  0.7197  0.5885  1.0234
  181SLPC   H5S20645   2.085   0.126   2.924  0.7131  0.2271 -2.0851
  181SLPC   C2620646   2.009  -0.061   2.995 -0.5944 -0.4405  0.4690
  181SLPC   H6R20647   2.065  -0.037   3.087  1.6728  1.6431 -1.3265
  181SLPC   H6S20648   2.071  -0.125   2.929 -1.1547 -0.5901  0.0760
  181SLPC   C2720649   1.878  -0.139   3.019 -0.0069 -0.4707 -0.0945
  181SLPC   H7R20650   1.833  -0.161   2.920 -0.8974  0.4405  0.0964
  181SLPC   H7S20651   1.815  -0.073   3.082  1.0134  1.1040 -0.6712
  181SLPC   C2820652   1.914  -0.266   3.097  0.0732 -0.0779 -0.7931
  181SLPC   H8R20653   1.967  -0.241   3.192 -0.3418  2.1785 -1.1050
  181SLPC   H8S20654   1.988  -0.319   3.033 -0.7384 -0.6277 -1.2930
  181SLPC   C2920655   1.785  -0.333   3.132  0.2851  0.1553 -0.4265
  181SLPC   H9R20656   1.715  -0.352   3.050 -1.9557  1.5948  1.0466
  181SLPC  C21020657   1.733  -0.356   3.261  0.2924  0.3112 -0.0030
  181SLPC  H10R20658   1.639  -0.412   3.270  0.2652  0.4865  0.8175
  181SLPC  C21120659   1.800  -0.329   3.392  0.0723 -0.4140 -0.2183
  181SLPC  H11R20660   1.909  -0.351   3.394  0.5484  1.6822 -1.0605
  181SLPC  H11S20661   1.755  -0.385   3.478  1.7576  1.8558  2.3190
  181SLPC  C21220662   1.758  -0.189   3.429 -0.5082  0.2229 -0.3765
  181SLPC  H12R20663   1.654  -0.163   3.402 -0.3629  0.7577 -0.4354
  181SLPC  C21320664   1.823  -0.105   3.507  0.0479 -0.1284 -0.0519
  181SLPC  H13R20665   1.782  -0.004   3.517 -0.6115 -0.3967 -0.0215
  181SLPC  C21420666   1.960  -0.132   3.579  1.1117  0.7438  0.2440
  181SLPC  H14R20667   2.031  -0.049   3.560 -1.9042  3.2005 -1.1373
  181SLPC  H14S20668   1.999  -0.229   3.542  1.2950  0.9761 -0.1874
  181SLPC  C21520669   1.931  -0.144   3.732 -0.9224 -0.0952  0.1217
  181SLPC  H15R20670   1.885  -0.051   3.771  0.6180  0.9907 -0.5370
  181SLPC  H15S20671   2.030  -0.158   3.782 -0.6032 -1.2317 -0.7980
  181SLPC  C21620672   1.831  -0.257   3.774 -0.0434 -0.3710 -0.2554
  181SLPC  H16R20673   1.736  -0.244   3.719 -0.3166 -0.5375  0.1736
  181SLPC  H16S20674   1.807  -0.247   3.882  1.5843 -1.6727  0.2754
  181SLPC  C21720675   1.882  -0.394   3.739  0.2032 -0.6065 -0.2384
  181SLPC  H17R20676   1.982  -0.404   3.786  1.5999 -0.0083 -2.9205
  181SLPC  H17S20677   1.898  -0.391   3.629  0.7623 -0.4767 -0.1538
  181SLPC  C21820678   1.795  -0.514   3.775 -0.2968 -0.2796 -0.8647
  181SLPC  H18R20679   1.779  -0.520   3.885 -0.9418 -2.1709 -1.0229
  181SLPC  H18S20680   1.852  -0.605   3.748 -0.8490 -0.8645 -0.1092
  181SLPC  H18T20681   1.697  -0.527   3.726  0.0264 -2.6955 -1.0036
  181SLPC   C3320682   2.375   0.414   2.730 -0.6212  0.5121 -0.1327
  181SLPC   H3X20683   2.437   0.504   2.708  0.2763 -0.1644 -0.4619
  181SLPC   H3Y20684   2.364   0.351   2.639 -2.8780 -1.4067  1.3576
  181SLPC   C3420685   2.430   0.333   2.841 -0.5765 -0.0169  0.3383
  181SLPC   H4X20686   2.539   0.321   2.827 -0.3431  0.2153  1.7659
  181SLPC   H4Y20687   2.383   0.233   2.834  0.1691 -0.4452  1.1662
  181SLPC   C3520688   2.406   0.385   2.980 -0.3740  0.7774  0.2568
  181SLPC   H5X20689   2.300   0.365   3.008 -0.0799 -1.3661  0.0167
  181SLPC   H5Y20690   2.435   0.491   2.995 -1.9217  2.0189 -4.0060
  181SLPC   C3620691   2.486   0.302   3.084  0.6385  0.3205  0.8660
  181SLPC   H6X20692   2.592   0.335   3.079  1.1195 -1.2953 -0.5449
  181SLPC   H6Y20693   2.487   0.194   3.060 -0.0885  0.3845  0.5151
  181SLPC   C3720694   2.437   0.325   3.229 -0.3097 -0.5318  1.2704
  181SLPC   H7X20695   2.338   0.277   3.243 -1.0043 -0.0269 -1.4620
  181SLPC   H7Y20696   2.416   0.434   3.241 -0.1946  0.0739 -2.7362
  181SLPC   C3820697   2.536   0.278   3.326 -0.2818  0.8609  0.0960
  181SLPC   H8X20698   2.636   0.325   3.319 -0.2740  1.0675  1.3771
  181SLPC   H8Y20699   2.556   0.169   3.316  2.0510  1.2938 -0.7611
  181SLPC   C3920700   2.482   0.285   3.466  0.8747  0.1087 -0.1559
  181SLPC   H9X20701   2.389   0.226   3.475  0.8903 -0.0395 -0.8499
  181SLPC   H9Y20702   2.453   0.391   3.486 -2.0140 -0.2315 -1.9285
  181SLPC  C31020703   2.585   0.234   3.567 -0.6315  0.0735  1.0531
  181SLPC  H10X20704   2.674   0.299   3.554 -0.6792  0.1890  1.2898
  181SLPC  H10Y20705   2.624   0.132   3.548 -0.6843  0.0631  1.0012
  181SLPC  C31120706   2.541   0.243   3.699 -0.1741  0.0686 -1.4694
  181SLPC  H11X20707   2.452   0.184   3.732  1.3797 -1.2743  0.6205
  181SLPC  H11Y20708   2.505   0.347   3.713  0.4904  0.3476 -1.7859
  181SLPC  C31220709   2.654   0.234   3.796  0.3294 -0.0563 -1.0330
  181SLPC  H12X20710   2.731   0.309   3.768  2.3945 -1.8658 -0.4246
  181SLPC  H12Y20711   2.705   0.136   3.808  0.0809  0.1073  2.7522
  181SLPC  C31320712   2.602   0.269   3.942  0.6184  0.2280  0.5248
  181SLPC  H13X20713   2.498   0.236   3.960  1.0463 -1.4284  0.1412
  181SLPC  H13Y20714   2.598   0.379   3.961 -0.7485  0.2583  0.1690
  181SLPC  C31420715   2.690   0.222   4.057 -0.2424 -1.0495  0.7794
  181SLPC  H14X20716   2.638   0.261   4.146 -1.5484 -1.6836  0.3237
  181SLPC  H14Y20717   2.796   0.256   4.054 -0.1591 -1.3390 -1.0205
  181SLPC  C31520718   2.690   0.071   4.099  0.7479  0.0308 -0.1533
  181SLPC  H15X20719   2.729   0.011   4.014  0.3774  2.0884 -1.8775
  181SLPC  H15Y20720   2.585   0.042   4.118  0.6311  0.5070 -0.0450
  181SLPC  C31620721   2.774   0.037   4.226  0.5835  0.1625  0.8111
  181SLPC  H16X20722   2.773   0.121   4.299  1.0272 -1.6852  3.0985
  181SLPC  H16Y20723   2.878   0.013   4.195  0.1241 -1.2474  0.2659
  181SLPC  C31720724   2.713  -0.092   4.293 -0.4354  0.2224  0.1357
  181SLPC  H17X20725   2.720  -0.176   4.220 -1.0318 -1.2024  1.6230
  181SLPC  H17Y20726   2.611  -0.070   4.331 -0.0246  0.5610  1.0768
  181SLPC  C31820727   2.797  -0.144   4.405 -0.6845 -0.1039  0.0733
  181SLPC  H18X20728   2.762  -0.235   4.458 -0.3120  0.9149  2.1829
  181SLPC  H18Y20729   2.803  -0.060   4.478 -1.8140 -1.8926  2.3417
  181SLPC  H18Z20730   2.897  -0.172   4.365 -1.6589 -1.5836 -1.4398
  182SLPC     N20731   3.115   6.679   1.495 -0.6885  0.0616 -0.1475
  182SLPC   C1320732   2.969   6.715   1.498  0.0826 -0.4400  0.2946
  182SLPC  H13A20733   2.964   6.809   1.551 -1.4393 -0.5826  0.4399
  182SLPC  H13B20734   2.933   6.737   1.398 -1.6963 -2.2977  0.4448
  182SLPC  H13C20735   2.916   6.632   1.543  1.1822 -1.7326 -0.7119
  182SLPC   C1420736   3.194   6.785   1.421 -0.1439  0.2128  0.3626
  182SLPC  H14A20737   3.200   6.886   1.459 -0.3513  1.1366 -1.9126
  182SLPC  H14B20738   3.294   6.747   1.405  0.0009  1.1317 -0.9673
  182SLPC  H14C20739   3.150   6.781   1.323  0.4714  0.2511  0.0841
  182SLPC   C1520740   3.145   6.545   1.434  0.1928  0.5187  0.6864
  182SLPC  H15A20741   3.076   6.466   1.459  0.4788  0.1045  0.1878
  182SLPC  H15B20742   3.129   6.559   1.329 -2.4077 -1.7632  0.6700
  182SLPC  H15C20743   3.250   6.521   1.448  0.5904  0.4422 -1.9422
  182SLPC   C1220744   3.160   6.681   1.643  0.5424  0.4625 -0.2421
  182SLPC  H12A20745   3.265   6.683   1.668  0.0761 -2.0561  2.4527
  182SLPC  H12B20746   3.135   6.592   1.698  1.0093  1.8728  2.4097
  182SLPC   C1120747   3.101   6.789   1.741  0.3135 -0.0073  0.0266
  182SLPC  H11A20748   3.098   6.886   1.687  1.5327 -0.8887 -1.7557
  182SLPC  H11B20749   3.156   6.807   1.836  0.5041  1.6353 -0.3577
  182SLPC     P20750   2.926   6.641   1.877 -0.3534  0.0293 -0.1323
  182SLPC   O1320751   2.781   6.626   1.885  0.1949  0.5906  0.6066
  182SLPC   O1420752   3.002   6.518   1.850 -0.2818  0.2386 -0.1353
  182SLPC   O1220753   2.966   6.753   1.771 -0.1405  0.1382  0.2245
  182SLPC   O1120754   2.979   6.715   2.005  0.0901 -0.1398  1.0153
  182SLPC    C120755   2.958   6.860   2.033  0.1145  0.5794 -0.1582
  182SLPC    HA20756   3.016   6.907   1.951  1.1229 -0.4581 -0.0472
  182SLPC    HB20757   2.851   6.884   2.014 -0.9565 -4.6231 -2.2942
  182SLPC    C220758   3.017   6.903   2.170 -0.4500  0.2413 -0.2485
  182SLPC    HS20759   3.125   6.879   2.162  0.0513  2.4513 -0.5809
  182SLPC   O2120760   2.975   6.807   2.269 -0.4430 -0.3083  0.4143
  182SLPC   C2120761   2.858   6.833   2.326 -0.1589  0.5813 -0.0212
  182SLPC   O2220762   2.762   6.890   2.278  0.1129  0.4390 -0.1256
  182SLPC   C2220763   2.846   6.756   2.452  0.0908  0.2587  0.2779
  182SLPC   H2R20764   2.741   6.720   2.456 -0.1821  0.8940 -0.7939
  182SLPC   H2S20765   2.916   6.670   2.459 -0.8747 -0.7123 -1.3112
  182SLPC    C320766   3.012   7.051   2.207  0.5666 -1.3925 -0.1011
  182SLPC    HX20767   2.907   7.086   2.197  1.1515 -0.1562 -2.8173
  182SLPC    HY20768   3.068   7.107   2.129 -0.3991 -0.5336 -0.1940
  182SLPC   O3120769   3.049   7.082   2.342 -0.5371 -0.0676  0.4358
  182SLPC   C3120770   3.170   7.129   2.355  0.9360  0.7965 -0.3349
  182SLPC   O3220771   3.253   7.131   2.264 -0.2768  0.6263  0.1703
  182SLPC   C3220772   3.191   7.181   2.490  1.0805  0.0522 -0.1094
  182SLPC   H2X20773   3.195   7.103   2.569  2.1115  0.6614  0.4730
  182SLPC   H2Y20774   3.099   7.243   2.491  1.1712  0.1832  1.0000
  182SLPC   C2320775   2.871   6.853   2.572  0.6358  0.1519 -0.8174
  182SLPC   H3R20776   2.791   6.930   2.574  0.3994  0.2191 -4.6394
  182SLPC   H3S20777   2.958   6.916   2.544  0.9676 -0.3888 -1.0215
  182SLPC   C2420778   2.870   6.785   2.707 -0.0913  0.1280 -0.3741
  182SLPC   H4R20779   2.899   6.848   2.794 -1.1814  0.8695 -0.5235
  182SLPC   H4S20780   2.952   6.710   2.705  2.5857  2.6003  3.0188
  182SLPC   C2520781   2.737   6.727   2.754 -0.2922 -0.7132  0.3865
  182SLPC   H5R20782   2.688   6.667   2.675  0.2747  0.3748 -0.8460
  182SLPC   H5S20783   2.661   6.803   2.781 -2.7377 -2.3881 -1.3695
  182SLPC   C2620784   2.766   6.636   2.878 -0.0814  0.6420 -0.0535
  182SLPC   H6R20785   2.832   6.553   2.846 -1.2960  0.3452 -1.9765
  182SLPC   H6S20786   2.671   6.581   2.898  1.6966 -2.3004  0.8993
  182SLPC   C2720787   2.805   6.715   2.998 -0.3721 -0.1224  0.7372
  182SLPC   H7R20788   2.770   6.819   2.985 -0.4788 -0.1478  0.8125
  182SLPC   H7S20789   2.915   6.710   3.016 -0.3213  1.4877  0.9646
  182SLPC   C2820790   2.745   6.643   3.120  0.1441  0.0829 -0.0167
  182SLPC   H8R20791   2.793   6.543   3.126 -0.7339 -0.3702 -0.5118
  182SLPC   H8S20792   2.640   6.616   3.098 -0.1176 -0.2396  1.5104
  182SLPC   C2920793   2.749   6.730   3.245 -1.1059  0.0681  0.1143
  182SLPC   H9R20794   2.725   6.836   3.228 -0.6834  0.2425  0.5829
  182SLPC  C21020795   2.800   6.691   3.357  0.2220  0.3088 -0.0186
  182SLPC  H10R20796   2.817   6.763   3.438  2.5400 -0.7563  0.5181
  182SLPC  C21120797   2.837   6.548   3.399  0.3617 -0.7221 -0.6358
  182SLPC  H11R20798   2.945   6.542   3.424 -0.0093 -2.9157  0.6939
  182SLPC  H11S20799   2.817   6.472   3.321 -0.4575 -0.8847 -0.2755
  182SLPC  C21220800   2.763   6.523   3.528 -0.7398 -0.5235 -0.4618
  182SLPC  H12R20801   2.663   6.481   3.509  0.0315 -3.0027  0.5481
  182SLPC  C21320802   2.803   6.547   3.657 -0.1054 -0.6967 -0.4498
  182SLPC  H13R20803   2.725   6.536   3.734 -0.7345  0.0716 -0.9556
  182SLPC  C21420804   2.935   6.607   3.693 -0.0916  0.9325  0.2666
  182SLPC  H14R20805   2.971   6.691   3.630  0.1097  0.8795  0.3103
  182SLPC  H14S20806   3.008   6.524   3.683 -0.2112  0.7063  1.1963
  182SLPC  C21520807   2.945   6.661   3.837 -0.1044 -0.3106 -0.3753
  182SLPC  H15R20808   2.858   6.725   3.864 -0.7947 -1.5832  0.4956
  182SLPC  H15S20809   3.036   6.724   3.846 -1.0408  1.3045 -1.5629
  182SLPC  C21620810   2.960   6.553   3.948 -0.0044 -0.7744 -0.4061
  182SLPC  H16R20811   2.879   6.479   3.930  0.0494 -0.2121 -3.5817
  182SLPC  H16S20812   2.958   6.604   4.047 -2.4636 -0.5877 -0.5045
  182SLPC  C21720813   3.096   6.479   3.939 -0.1911 -0.3612  0.8346
  182SLPC  H17R20814   3.177   6.555   3.949 -0.6108  0.1170  0.6326
  182SLPC  H17S20815   3.104   6.436   3.837 -0.1716  0.6756  0.3911
  182SLPC  C21820816   3.119   6.363   4.044 -0.1727  0.1943  0.1862
  182SLPC  H18R20817   3.218   6.315   4.025 -0.1429  0.6637 -0.9208
  182SLPC  H18S20818   3.039   6.287   4.037 -0.0083  0.1058 -0.8690
  182SLPC  H18T20819   3.109   6.403   4.147 -2.1356  1.5925 -0.4964
  182SLPC   C3320820   3.318   7.268   2.506 -0.3127  0.8369 -0.3366
  182SLPC   H3X20821   3.327   7.341   2.423  1.4159 -2.2645 -3.1210
  182SLPC   H3Y20822   3.409   7.206   2.492 -0.1908  0.7486  0.7589
  182SLPC   C3420823   3.322   7.342   2.642  0.6808  0.1488  0.6115
  182SLPC   H4X20824   3.224   7.386   2.673  1.1565  1.5672  0.1748
  182SLPC   H4Y20825   3.401   7.419   2.653 -0.0639  0.7619  1.8038
  182SLPC   C3520826   3.355   7.238   2.759  0.2255 -0.2360  1.1276
  182SLPC   H5X20827   3.452   7.187   2.745  1.5376  2.1556  1.0147
  182SLPC   H5Y20828   3.265   7.172   2.761 -0.7395  0.9517 -0.4476
  182SLPC   C3620829   3.382   7.302   2.891  0.1552  0.3321 -0.4447
  182SLPC   H6X20830   3.284   7.332   2.933  0.3629  0.0299  0.2635
  182SLPC   H6Y20831   3.455   7.384   2.875  0.5394 -0.1100 -1.0007
  182SLPC   C3720832   3.447   7.200   2.985  0.3007 -0.0529  1.1784
  182SLPC   H7X20833   3.498   7.129   2.917 -1.6548  0.6100 -1.1126
  182SLPC   H7Y20834   3.372   7.133   3.032 -1.3166  0.2327 -0.8655
  182SLPC   C3820835   3.537   7.270   3.080  0.3169 -0.9825  0.0556
  182SLPC   H8X20836   3.603   7.350   3.039  0.7124  0.0771  2.5484
  182SLPC   H8Y20837   3.602   7.189   3.119 -0.7614 -1.9174 -0.0569
  182SLPC   C3920838   3.463   7.340   3.194 -0.1476 -0.0032 -1.3244
  182SLPC   H9X20839   3.408   7.421   3.141 -0.5714 -0.0050 -0.8910
  182SLPC   H9Y20840   3.540   7.376   3.265 -0.8438  1.2464 -1.1567
  182SLPC  C31020841   3.360   7.260   3.273 -0.4341  0.2050 -0.6549
  182SLPC  H10X20842   3.269   7.245   3.213 -1.2470  0.3037  0.5219
  182SLPC  H10Y20843   3.333   7.318   3.364  1.2653  1.1499 -0.7001
  182SLPC  C31120844   3.394   7.116   3.317  0.2639  0.6345 -0.0731
  182SLPC  H11X20845   3.429   7.056   3.230  0.4531  1.7912 -0.8138
  182SLPC  H11Y20846   3.298   7.068   3.345  0.2440  0.6355 -0.1397
  182SLPC  C31220847   3.506   7.091   3.425  0.0181 -0.0060  0.1651
  182SLPC  H12X20848   3.588   7.150   3.380 -0.3963 -1.1497 -2.2824
  182SLPC  H12Y20849   3.535   6.984   3.436 -2.9638 -0.8429  1.0714
  182SLPC  C31320850   3.471   7.135   3.564  0.9153  0.2783 -0.8800
  182SLPC  H13X20851   3.397   7.068   3.613  0.3504  0.1215 -1.9125
  182SLPC  H13Y20852   3.419   7.233   3.559  1.5125  0.7589  1.2264
  182SLPC  C31420853   3.590   7.162   3.655  0.1038 -1.0981 -0.0290
  182SLPC  H14X20854   3.656   7.242   3.615  0.0545 -0.3660  1.3072
  182SLPC  H14Y20855   3.645   7.067   3.674  0.2909 -1.8253 -3.5593
  182SLPC  C31520856   3.549   7.199   3.801 -0.1392 -0.2576 -0.4187
  182SLPC  H15X20857   3.476   7.126   3.843 -0.8785  0.4386 -0.4547
  182SLPC  H15Y20858   3.503   7.300   3.803  2.2087  0.9399 -2.0076
  182SLPC  C31620859   3.658   7.194   3.913  0.0998  0.3781  0.8254
  182SLPC  H16X20860   3.742   7.265   3.894  1.1990 -1.1982 -0.5761
  182SLPC  H16Y20861   3.710   7.097   3.898 -1.7458 -0.4208 -0.7970
  182SLPC  C31720862   3.598   7.207   4.049 -0.1606  1.1280 -0.7452
  182SLPC  H17X20863   3.553   7.107   4.066  1.5317  0.4779  0.1278
  182SLPC  H17Y20864   3.517   7.282   4.057 -0.9149  0.1144  2.1166
  182SLPC  C31820865   3.712   7.227   4.156 -0.1849  0.4236 -0.1241
  182SLPC  H18X20866   3.674   7.255   4.256  1.8712  1.2246  0.4687
  182SLPC  H18Y20867   3.780   7.310   4.130 -0.1912  0.2914 -0.5742
  182SLPC  H18Z20868   3.780   7.139   4.150 -2.2062 -1.1443 -2.4627
  183SLPC     N20869   6.750   1.515   1.739  0.6586 -0.1053 -0.6359
  183SLPC   C1320870   6.882   1.469   1.689  0.1676  0.1112 -0.2561
  183SLPC  H13A20871   6.872   1.442   1.584 -0.4860 -0.3115 -0.0945
  183SLPC  H13B20872   6.957   1.546   1.685 -1.6712  1.9427 -3.4499
  183SLPC  H13C20873   6.919   1.388   1.750 -0.3503 -1.0864 -1.4551
  183SLPC   C1420874   6.642   1.410   1.751 -0.1746  0.2387  0.2939
  183SLPC  H14A20875   6.659   1.331   1.822  1.6714 -1.3078 -1.7542
  183SLPC  H14B20876   6.543   1.449   1.773 -1.2371 -1.7924 -0.6488
  183SLPC  H14C20877   6.640   1.358   1.656 -1.4619  0.8599 -0.0420
  183SLPC   C1520878   6.694   1.615   1.641  0.3724  0.7712  0.2270
  183SLPC  H15A20879   6.606   1.667   1.672 -0.6431 -0.2134 -0.8808
  183SLPC  H15B20880   6.767   1.686   1.604  3.5621 -3.0937 -1.8234
  183SLPC  H15C20881   6.659   1.571   1.548 -0.6384 -0.3880  1.1292
  183SLPC   C1220882   6.773   1.586   1.879 -0.2915 -0.1624 -0.1517
  183SLPC  H12A20883   6.834   1.671   1.856  0.7862 -1.2317 -1.4189
  183SLPC  H12B20884   6.829   1.520   1.944  1.2734  1.5831  0.3763
  183SLPC   C1120885   6.655   1.635   1.967  0.4983  0.3079 -0.3432
  183SLPC  H11A20886   6.588   1.701   1.909 -0.5034  0.6202  1.1145
  183SLPC  H11B20887   6.701   1.697   2.047  0.9630 -0.3420 -0.0944
  183SLPC     P20888   6.664   1.435   2.139  0.0975  0.4785 -0.0830
  183SLPC   O1320889   6.594   1.305   2.145 -0.5907 -0.1407 -0.0855
  183SLPC   O1420890   6.807   1.431   2.099 -0.0878 -0.4224 -0.1147
  183SLPC   O1220891   6.594   1.518   2.031 -0.3361 -0.4052  0.1980
  183SLPC   O1120892   6.644   1.509   2.271 -0.8091 -0.0175  0.0991
  183SLPC    C120893   6.522   1.544   2.326  0.3084  0.2985  0.1414
  183SLPC    HA20894   6.452   1.563   2.243  0.9548 -0.6702 -0.6582
  183SLPC    HB20895   6.479   1.466   2.393 -1.6794  2.0054  0.9560
  183SLPC    C220896   6.525   1.672   2.411  0.2678  0.0202 -0.1657
  183SLPC    HS20897   6.589   1.739   2.349  0.6015  0.1032  0.2636
  183SLPC   O2120898   6.601   1.645   2.529  0.1434 -0.1876  0.0732
  183SLPC   C2120899   6.647   1.754   2.588 -0.0046  0.2918  0.0032
  183SLPC   O2220900   6.641   1.863   2.538 -0.4697 -0.1947 -0.1697
  183SLPC   C2220901   6.697   1.721   2.725 -0.1198  0.4232 -0.0597
  183SLPC   H2R20902   6.623   1.670   2.791 -1.1652  0.0790 -1.4363
  183SLPC   H2S20903   6.785   1.654   2.715 -0.5650  0.0143 -1.6208
  183SLPC    C320904   6.376   1.724   2.443 -0.1912  0.5447 -0.4822
  183SLPC    HX20905   6.337   1.739   2.340  0.5218  1.0411 -0.6896
  183SLPC    HY20906   6.386   1.821   2.496  2.4540 -0.7999  1.7084
  183SLPC   O3120907   6.291   1.634   2.527 -0.4696 -0.0038  0.2426
  183SLPC   C3120908   6.164   1.650   2.519  0.0802 -0.2035 -0.6769
  183SLPC   O3220909   6.110   1.740   2.451 -0.1759  0.4469  0.1384
  183SLPC   C3220910   6.090   1.543   2.596 -0.2295  0.1538  0.0388
  183SLPC   H2X20911   6.160   1.457   2.609  1.4973  1.5445  0.3613
  183SLPC   H2Y20912   6.006   1.509   2.533  0.3846 -1.4396  0.0167
  183SLPC   C2320913   6.761   1.845   2.797  0.3740 -1.3102 -0.2842
  183SLPC   H3R20914   6.835   1.903   2.739  0.2413 -1.6154 -0.7621
  183SLPC   H3S20915   6.819   1.805   2.883 -0.4975  0.4852  1.2126
  183SLPC   C2420916   6.649   1.945   2.846 -0.4507  0.3146  0.1748
  183SLPC   H4R20917   6.570   1.888   2.899 -1.4434  0.4134 -1.1424
  183SLPC   H4S20918   6.602   1.991   2.756 -0.7622 -0.5452 -0.1143
  183SLPC   C2520919   6.690   2.061   2.939 -0.0362  0.4371  0.6572
  183SLPC   H5R20920   6.603   2.128   2.955 -2.3295 -1.3102 -3.0418
  183SLPC   H5S20921   6.770   2.114   2.884 -1.0905  1.1559 -0.2068
  183SLPC   C2620922   6.744   2.004   3.074 -0.1366 -0.9890 -0.1341
  183SLPC   H6R20923   6.831   1.937   3.058  0.8610  0.2519 -0.1385
  183SLPC   H6S20924   6.670   1.965   3.146 -0.0743 -0.2793  0.3296
  183SLPC   C2720925   6.792   2.134   3.157 -0.8171  0.2318 -0.1462
  183SLPC   H7R20926   6.698   2.190   3.179 -1.3736 -0.3543 -0.9937
  183SLPC   H7S20927   6.852   2.199   3.091  1.1706 -0.3872  0.9738
  183SLPC   C2820928   6.882   2.104   3.277  0.6045  0.0432 -0.1025
  183SLPC   H8R20929   6.917   2.199   3.322 -1.7744 -0.0974  2.3009
  183SLPC   H8S20930   6.971   2.042   3.254  0.9136  0.9329 -1.3745
  183SLPC   C2920931   6.788   2.049   3.389 -0.0367 -0.1779  0.0237
  183SLPC   H9R20932   6.680   2.067   3.380  0.1410 -0.0015 -2.8038
  183SLPC  C21020933   6.818   1.966   3.497  0.2453  0.5840 -0.1049
  183SLPC  H10R20934   6.738   1.928   3.562 -1.6446  2.6328 -1.0870
  183SLPC  C21120935   6.954   1.908   3.525  0.1515  0.0032 -0.3604
  183SLPC  H11R20936   7.001   1.955   3.614  0.1244 -2.3244  0.9831
  183SLPC  H11S20937   7.011   1.912   3.430 -0.2702 -1.3704 -0.6933
  183SLPC  C21220938   6.934   1.757   3.556 -0.3224 -0.3149  0.6204
  183SLPC  H12R20939   6.925   1.692   3.468  0.1285  0.1618  0.2169
  183SLPC  C21320940   6.926   1.711   3.679 -0.3264  0.1384 -0.2710
  183SLPC  H13R20941   6.889   1.611   3.706  0.1044 -0.0029 -0.1850
  183SLPC  C21420942   6.934   1.794   3.806 -0.5143 -0.0770 -0.2223
  183SLPC  H14R20943   6.915   1.902   3.787 -1.7000 -0.0648  0.8998
  183SLPC  H14S20944   7.037   1.790   3.849 -0.8219  1.1408  0.6786
  183SLPC  C21520945   6.839   1.747   3.916  0.8562 -0.1142  0.1470
  183SLPC  H15R20946   6.886   1.783   4.011  0.9400 -0.8936  0.4103
  183SLPC  H15S20947   6.854   1.639   3.935  1.7935 -0.0470 -0.1313
  183SLPC  C21620948   6.694   1.787   3.888 -0.5028  0.3658 -0.4859
  183SLPC  H16R20949   6.640   1.726   3.812 -0.9767 -1.2248  1.0528
  183SLPC  H16S20950   6.696   1.896   3.869 -1.1156  0.7223  1.3450
  183SLPC  C21720951   6.609   1.764   4.015 -0.2072 -0.4520 -0.1763
  183SLPC  H17R20952   6.668   1.812   4.096  1.3995  1.6804 -2.4568
  183SLPC  H17S20953   6.611   1.655   4.036  5.8305 -0.9799 -1.5592
  183SLPC  C21820954   6.470   1.828   4.019  0.4889  0.0373  0.4210
  183SLPC  H18R20955   6.486   1.937   4.005 -2.7812  0.3862 -1.5970
  183SLPC  H18S20956   6.409   1.817   4.111 -1.3923 -1.6575 -0.9349
  183SLPC  H18T20957   6.414   1.791   3.931 -0.4053  0.5338  0.7713
  183SLPC   C3320958   6.043   1.586   2.734  0.4288 -0.2986 -0.3491
  183SLPC   H3X20959   5.951   1.524   2.742 -1.5585  2.1881 -1.9957
  183SLPC   H3Y20960   6.015   1.694   2.727  3.0470  0.4307 -0.7968
  183SLPC   C3420961   6.144   1.565   2.852  0.4295 -0.6971  0.5811
  183SLPC   H4X20962   6.136   1.649   2.924 -0.3868 -0.9764  0.8265
  183SLPC   H4Y20963   6.246   1.595   2.819  0.5038  0.9126  2.1172
  183SLPC   C3520964   6.138   1.426   2.919  0.1762 -0.9845  0.1368
  183SLPC   H5X20965   6.182   1.355   2.847  0.6890  0.3226 -0.8707
  183SLPC   H5Y20966   6.029   1.409   2.933  0.1056 -1.8809 -1.3080
  183SLPC   C3620967   6.204   1.433   3.058  0.4183  0.1191  0.5339
  183SLPC   H6X20968   6.163   1.521   3.111  1.8593  0.3834  1.2569
  183SLPC   H6Y20969   6.312   1.450   3.039  0.4389 -0.5854 -0.0181
  183SLPC   C3720970   6.203   1.305   3.137  0.3430  0.0401  0.1800
  183SLPC   H7X20971   6.235   1.217   3.076 -0.9897 -0.7664  0.6002
  183SLPC   H7Y20972   6.098   1.290   3.169  0.1518 -1.1118 -0.8951
  183SLPC   C3820973   6.291   1.302   3.262  0.6708 -0.9804  0.6097
  183SLPC   H8X20974   6.276   1.398   3.315 -0.9411 -0.2299 -1.1087
  183SLPC   H8Y20975   6.399   1.298   3.237  0.6199  2.3193 -0.5628
  183SLPC   C3920976   6.260   1.196   3.369 -0.8457 -0.2026  0.1952
  183SLPC   H9X20977   6.269   1.092   3.330 -0.5209  0.1011 -0.5496
  183SLPC   H9Y20978   6.162   1.212   3.418 -0.8984 -0.6386  0.2342
  183SLPC  C31020979   6.371   1.198   3.475 -0.3756 -0.0487 -0.2081
  183SLPC  H10X20980   6.357   1.293   3.531 -0.5408 -0.1586 -0.0630
  183SLPC  H10Y20981   6.474   1.205   3.432  0.0945 -0.0726  0.8748
  183SLPC  C31120982   6.376   1.073   3.565  0.1747 -0.3665 -0.3711
  183SLPC  H11X20983   6.413   0.989   3.502 -2.4234 -2.6423  0.9258
  183SLPC  H11Y20984   6.271   1.040   3.582 -0.0896 -0.0798 -1.3391
  183SLPC  C31220985   6.434   1.085   3.715 -0.8361 -0.2966 -0.1006
  183SLPC  H12X20986   6.415   0.981   3.749 -0.9672 -0.4545 -0.6443
  183SLPC  H12Y20987   6.381   1.154   3.783  1.7512  0.3730  1.3768
  183SLPC  C31320988   6.582   1.118   3.702  0.0491 -0.9124  0.0125
  183SLPC  H13X20989   6.589   1.209   3.639 -0.4966 -0.7602  0.1663
  183SLPC  H13Y20990   6.626   1.034   3.644  0.7756 -1.8350  1.7814
  183SLPC  C31420991   6.662   1.147   3.830  0.3897  0.0526 -0.2749
  183SLPC  H14X20992   6.766   1.179   3.806  1.0657 -2.0090 -0.2958
  183SLPC  H14Y20993   6.674   1.041   3.863 -2.1869 -0.8698 -2.0062
  183SLPC  C31520994   6.589   1.239   3.933 -0.4819 -0.8297  1.3765
  183SLPC  H15X20995   6.533   1.176   4.005  0.0950  1.0387  3.5992
  183SLPC  H15Y20996   6.511   1.302   3.885 -0.9432 -0.6788  2.2919
  183SLPC  C31620997   6.689   1.336   4.008 -1.1666  0.0207 -0.3172
  183SLPC  H16X20998   6.735   1.412   3.942  2.6406 -0.2162  1.7694
  183SLPC  H16Y20999   6.782   1.284   4.037 -1.5242 -0.5155 -0.1220
  183SLPC  C31721000   6.630   1.390   4.140  0.0865  0.4737  0.2882
  183SLPC  H17X21001   6.611   1.307   4.212  0.4506 -0.0946 -0.2668
  183SLPC  H17Y21002   6.534   1.444   4.130 -0.4214 -0.7812 -2.7559
  183SLPC  C31821003   6.731   1.471   4.229 -0.8411  0.6561  0.1385
  183SLPC  H18X21004   6.838   1.458   4.203 -0.5078  2.6759  0.2868
  183SLPC  H18Y21005   6.712   1.452   4.336 -1.5753 -0.4060 -0.1645
  183SLPC  H18Z21006   6.707   1.578   4.209  0.6010  1.3449  1.8593
  184SLPC     N21007   0.377   2.717   1.707  0.0354 -0.4292 -0.2975
  184SLPC   C1321008   0.451   2.851   1.718  0.1074  0.4495 -0.4902
  184SLPC  H13A21009   0.396   2.933   1.761  1.0291  0.1488  1.3532
  184SLPC  H13B21010   0.544   2.836   1.771 -0.1652 -1.9514 -0.5676
  184SLPC  H13C21011   0.471   2.888   1.619 -0.0617  1.2801 -0.2221
  184SLPC   C1421012   0.457   2.627   1.613  0.3448 -0.2185 -0.2837
  184SLPC  H14A21013   0.388   2.566   1.556  1.0567  0.1507 -1.5832
  184SLPC  H14B21014   0.529   2.678   1.551 -1.7509  2.4298 -0.7496
  184SLPC  H14C21015   0.518   2.565   1.676  0.0138 -1.4774 -1.1638
  184SLPC   C1521016   0.254   2.749   1.626 -0.1141 -0.4816 -0.0683
  184SLPC  H15A21017   0.273   2.759   1.521  1.2075  2.0632  0.3265
  184SLPC  H15B21018   0.175   2.684   1.662  0.0761  0.1897  1.6861
  184SLPC  H15C21019   0.217   2.847   1.653 -1.4636 -0.8264 -0.5867
  184SLPC   C1221020   0.342   2.664   1.849  0.5531 -0.2149  0.1524
  184SLPC  H12A21021   0.296   2.733   1.918  2.0736 -1.5931  2.7127
  184SLPC  H12B21022   0.434   2.625   1.890  1.1880 -0.8082 -1.7196
  184SLPC   C1121023   0.248   2.533   1.867  0.3814 -0.1485  0.5041
  184SLPC  H11A21024   0.147   2.578   1.855  0.2713  0.2130  2.5121
  184SLPC  H11B21025   0.256   2.494   1.970  0.1585  0.6478  0.8317
  184SLPC     P21026   0.377   2.319   1.776 -0.2293  0.0777 -0.0008
  184SLPC   O1321027   0.326   2.223   1.876  0.4870  0.4370 -0.1007
  184SLPC   O1421028   0.408   2.277   1.636  0.1731  0.3660  0.1823
  184SLPC   O1221029   0.272   2.439   1.757 -0.0074  0.0239 -0.2505
  184SLPC   O1121030   0.500   2.384   1.831 -0.4138 -0.8170 -0.1938
  184SLPC    C121031   0.625   2.324   1.867 -0.0236 -0.1573 -0.6614
  184SLPC    HA21032   0.615   2.213   1.865 -1.2785 -0.0677 -0.2211
  184SLPC    HB21033   0.685   2.347   1.776  0.5406  1.7661  0.1424
  184SLPC    C221034   0.684   2.379   2.004  0.4316 -0.2175  0.7988
  184SLPC    HS21035   0.753   2.303   2.047  0.9597  0.4867  1.2088
  184SLPC   O2121036   0.579   2.408   2.091  0.8004 -0.6803 -0.5412
  184SLPC   C2121037   0.530   2.309   2.156  0.8177 -1.0876  0.9988
  184SLPC   O2221038   0.573   2.195   2.159 -0.0401  0.0713  0.3501
  184SLPC   C2221039   0.409   2.358   2.230 -0.0477  0.4870  0.1857
  184SLPC   H2R21040   0.359   2.439   2.172  0.4787  0.5251 -0.2205
  184SLPC   H2S21041   0.348   2.266   2.245  1.8348 -0.8544 -0.0561
  184SLPC    C321042   0.760   2.506   1.985  0.4247 -0.2135  0.1675
  184SLPC    HX21043   0.684   2.583   1.959 -1.5311 -2.5720 -1.5806
  184SLPC    HY21044   0.819   2.501   1.891 -0.0080 -1.2202 -0.0654
  184SLPC   O3121045   0.847   2.540   2.102 -0.0417  0.1500 -0.4759
  184SLPC   C3121046   0.794   2.619   2.192  0.0151 -0.8675 -0.3895
  184SLPC   O3221047   0.685   2.684   2.185 -1.4052  0.2917  0.0618
  184SLPC   C3221048   0.878   2.620   2.318  0.5164 -0.2150  0.1480
  184SLPC   H2X21049   0.904   2.726   2.340  3.7775 -0.6587 -1.0539
  184SLPC   H2Y21050   0.973   2.573   2.285  1.2745  2.5526 -2.0016
  184SLPC   C2321051   0.438   2.416   2.369  0.4292 -0.0173 -1.3604
  184SLPC   H3R21052   0.520   2.491   2.361 -0.1656  0.7197 -0.6462
  184SLPC   H3S21053   0.461   2.345   2.451 -0.1753  0.4956 -0.7350
  184SLPC   C2421054   0.310   2.497   2.417 -0.1351 -0.1738 -0.0616
  184SLPC   H4R21055   0.216   2.450   2.380 -1.3796  1.5922  0.6876
  184SLPC   H4S21056   0.306   2.603   2.383 -2.1718 -0.5373 -1.0996
  184SLPC   C2521057   0.310   2.506   2.573 -0.9369  0.0284 -0.6526
  184SLPC   H5R21058   0.343   2.411   2.621 -1.0938 -0.1319 -0.8600
  184SLPC   H5S21059   0.206   2.520   2.609 -0.8744  0.8051 -0.7496
  184SLPC   C2621060   0.414   2.614   2.629 -0.3637  0.1047 -0.2575
  184SLPC   H6R21061   0.419   2.712   2.578 -1.5281  0.4617  0.2852
  184SLPC   H6S21062   0.516   2.575   2.606 -0.8490 -0.0029 -2.5109
  184SLPC   C2721063   0.410   2.636   2.784  0.0247  0.2747 -0.0793
  184SLPC   H7R21064   0.330   2.708   2.811  1.3699  0.7655  3.0518
  184SLPC   H7S21065   0.504   2.685   2.819 -1.2294  3.1179 -0.4389
  184SLPC   C2821066   0.378   2.512   2.877  0.0749 -0.0610  0.0182
  184SLPC   H8R21067   0.446   2.426   2.860 -1.2313 -1.3180  0.8956
  184SLPC   H8S21068   0.278   2.478   2.842 -0.9289  1.8991  0.8060
  184SLPC   C2921069   0.380   2.560   3.018 -0.0512  0.0621  0.4733
  184SLPC   H9R21070   0.458   2.636   3.037 -1.5473  1.2357  2.3765
  184SLPC  C21021071   0.294   2.543   3.119  0.7942  1.2401 -0.7807
  184SLPC  H10R21072   0.310   2.572   3.223  0.2514  0.2022 -0.3880
  184SLPC  C21121073   0.170   2.460   3.117  0.4534  0.2199 -0.3027
  184SLPC  H11R21074   0.178   2.392   3.204 -2.0381  0.1580 -0.0517
  184SLPC  H11S21075   0.154   2.387   3.035 -2.0263 -1.1310  1.2396
  184SLPC  C21221076   0.042   2.541   3.118 -0.6624  0.3487  0.0274
  184SLPC  H12R21077   0.021   2.600   3.027  0.8392  1.4380  0.3432
  184SLPC  C21321078  -0.038   2.551   3.220  0.0459  0.0771 -0.2010
  184SLPC  H13R21079  -0.130   2.610   3.210 -1.2853 -1.8961 -0.2371
  184SLPC  C21421080  -0.036   2.481   3.355  0.0173 -0.5489 -0.0197
  184SLPC  H14R21081   0.059   2.424   3.359  0.7465  0.6066 -0.3674
  184SLPC  H14S21082  -0.124   2.414   3.353 -0.8606  0.4432  1.9279
  184SLPC  C21521083  -0.068   2.585   3.464  0.3563 -0.7135 -0.2104
  184SLPC  H15R21084  -0.162   2.643   3.451  1.7538  1.8622  0.4983
  184SLPC  H15S21085   0.005   2.668   3.459 -1.7747  1.2186 -1.2803
  184SLPC  C21621086  -0.066   2.533   3.612 -0.1006 -0.1673 -0.4184
  184SLPC  H16R21087   0.042   2.523   3.633  0.5750  1.0996 -2.9160
  184SLPC  H16S21088  -0.112   2.433   3.602  0.1413 -0.2034 -1.2633
  184SLPC  C21721089  -0.141   2.620   3.720 -0.2224 -0.1639  0.2175
  184SLPC  H17R21090  -0.154   2.558   3.811  0.3591  0.1601  0.5258
  184SLPC  H17S21091  -0.241   2.652   3.682  0.7127  2.2053 -0.4451
  184SLPC  C21821092  -0.079   2.761   3.752 -0.3354  0.2468 -0.8191
  184SLPC  H18R21093   0.011   2.739   3.814  0.1981  4.1674  0.0681
  184SLPC  H18S21094  -0.143   2.821   3.820  3.6882  2.0114  1.8399
  184SLPC  H18T21095  -0.055   2.822   3.663 -0.8753  1.6127 -0.0565
  184SLPC   C3321096   0.808   2.547   2.431  0.3225 -0.3593 -0.7291
  184SLPC   H3X21097   0.787   2.440   2.411 -0.3433 -1.6323  4.8880
  184SLPC   H3Y21098   0.714   2.597   2.463 -0.3811 -1.4424 -1.0547
  184SLPC   C3421099   0.899   2.536   2.555  0.1616  0.2185  0.4605
  184SLPC   H4X21100   0.916   2.641   2.585 -0.0193  0.0556  1.1585
  184SLPC   H4Y21101   1.002   2.509   2.523  0.0960  0.4043  0.0884
  184SLPC   C3521102   0.850   2.446   2.674  0.0314  0.4228 -0.6826
  184SLPC   H5X21103   0.859   2.337   2.653  0.5088  0.4259 -0.5030
  184SLPC   H5Y21104   0.746   2.479   2.695 -0.1511 -1.1994  1.3697
  184SLPC   C3621105   0.933   2.485   2.793  0.3456  0.4301  0.5409
  184SLPC   H6X21106   0.948   2.595   2.799  0.8034  0.3585  0.7959
  184SLPC   H6Y21107   1.029   2.432   2.811 -0.7823 -1.4707  1.2390
  184SLPC   C3721108   0.853   2.452   2.921 -0.0732  1.1033  0.3709
  184SLPC   H7X21109   0.837   2.344   2.944  0.2234  0.7230 -1.0956
  184SLPC   H7Y21110   0.756   2.505   2.918 -0.0347  1.1557  0.0859
  184SLPC   C3821111   0.927   2.512   3.039  0.1150 -0.5443 -0.0847
  184SLPC   H8X21112   0.940   2.622   3.025 -0.0885 -0.1777  2.2407
  184SLPC   H8Y21113   1.029   2.469   3.045  0.5369 -0.0717 -2.6646
  184SLPC   C3921114   0.841   2.499   3.163  0.2042 -0.5203 -0.0638
  184SLPC   H9X21115   0.815   2.392   3.183  0.2776 -0.7415 -1.0855
  184SLPC   H9Y21116   0.745   2.549   3.136  0.6096 -0.0458 -0.6322
  184SLPC  C31021117   0.902   2.588   3.274  0.3095  0.0971 -0.5090
  184SLPC  H10X21118   0.883   2.693   3.246 -2.2104  0.3306  1.6508
  184SLPC  H10Y21119   1.012   2.573   3.284  0.7130  1.9713 -1.6479
  184SLPC  C31121120   0.836   2.555   3.408 -0.1681  0.0021 -0.3486
  184SLPC  H11X21121   0.827   2.445   3.425 -0.7486 -0.8163 -4.7336
  184SLPC  H11Y21122   0.731   2.589   3.423 -0.6493 -2.2776  2.4356
  184SLPC  C31221123   0.916   2.631   3.518  1.0122 -0.2275  0.2471
  184SLPC  H12X21124   0.917   2.736   3.482 -0.3854  0.1013  1.1099
  184SLPC  H12Y21125   1.018   2.585   3.517  0.5360 -1.3440  1.0990
  184SLPC  C31321126   0.869   2.615   3.658  0.0768 -0.6356 -0.8047
  184SLPC  H13X21127   0.879   2.508   3.684 -2.6267 -0.9360 -0.7734
  184SLPC  H13Y21128   0.765   2.649   3.677 -0.7552 -3.0909 -0.6221
  184SLPC  C31421129   0.954   2.699   3.758  0.8078 -0.6235 -0.6518
  184SLPC  H14X21130   0.928   2.806   3.769  0.7816 -0.7330  0.4721
  184SLPC  H14Y21131   1.058   2.691   3.718  1.2709 -0.5488  0.5123
  184SLPC  C31521132   0.950   2.644   3.896 -0.3574 -0.0304 -0.1857
  184SLPC  H15X21133   0.989   2.540   3.889 -0.8160 -0.2948  0.9406
  184SLPC  H15Y21134   0.842   2.643   3.919 -0.4095  1.5802 -0.2426
  184SLPC  C31621135   1.045   2.710   3.995  0.4556 -0.6313 -0.3729
  184SLPC  H16X21136   1.012   2.689   4.099 -0.7023 -1.8787 -0.9538
  184SLPC  H16Y21137   1.044   2.818   3.970 -0.7083 -0.3689  0.6629
  184SLPC  C31721138   1.189   2.659   3.993  0.0188 -0.3698 -0.7344
  184SLPC  H17X21139   1.244   2.681   3.900 -0.2633 -2.4384 -1.4392
  184SLPC  H17Y21140   1.186   2.548   3.997  0.1687 -0.4573 -2.5307
  184SLPC  C31821141   1.276   2.709   4.111 -0.0581  0.5110 -0.6466
  184SLPC  H18X21142   1.250   2.658   4.206 -0.4975  0.8087 -0.6050
  184SLPC  H18Y21143   1.282   2.820   4.111 -2.0453  0.7196  2.0666
  184SLPC  H18Z21144   1.382   2.676   4.104 -0.3755 -1.6001  2.4224
  185POPC     N21145   2.671   5.438   6.515  0.2604 -0.8342  0.3038
  185POPC   C1221146   2.720   5.462   6.372  0.1481 -0.3676 -0.0044
  185POPC  H12A21147   2.824   5.434   6.363  0.4494  0.2314  1.4681
  185POPC  H12B21148   2.712   5.566   6.346  0.2838 -0.2398  0.4617
  185POPC   C1321149   2.532   5.503   6.527 -0.1872  0.2832  0.1679
  185POPC  H13A21150   2.484   5.482   6.622 -1.9866 -0.3212 -0.8230
  185POPC  H13B21151   2.537   5.607   6.498  0.2820  0.0138 -0.7575
  185POPC  H13C21152   2.466   5.459   6.453  0.3610 -0.3234  0.0266
  185POPC   C1421153   2.657   5.292   6.552  0.7268  1.1131 -0.0881
  185POPC  H14A21154   2.604   5.282   6.646  0.6408  1.2458 -0.1213
  185POPC  H14B21155   2.612   5.247   6.466  0.8130  2.2856 -0.7758
  185POPC  H14C21156   2.751   5.243   6.575  0.7573  0.6273 -1.2251
  185POPC   C1521157   2.760   5.502   6.617 -0.1115  0.7331 -0.2028
  185POPC  H15A21158   2.782   5.605   6.591 -0.4784  0.6920 -0.6847
  185POPC  H15B21159   2.853   5.452   6.641 -1.4052 -1.6444  0.0680
  185POPC  H15C21160   2.711   5.506   6.713  1.4959 -2.1975  0.8386
  185POPC   C1121161   2.634   5.397   6.255 -0.0712 -0.5688 -0.1914
  185POPC  H11A21162   2.628   5.289   6.280 -3.4252 -0.0978  1.6109
  185POPC  H11B21163   2.678   5.399   6.153  1.3403 -1.2585  0.3765
  185POPC     P21164   2.445   5.568   6.177 -0.0075  0.2030 -0.4954
  185POPC   O1321165   2.513   5.691   6.231  0.2044  0.0301 -0.4794
  185POPC   O1421166   2.301   5.554   6.199 -0.6878  0.2471  0.3010
  185POPC   O1221167   2.501   5.442   6.245 -0.3191  0.0855 -0.6651
  185POPC   O1121168   2.483   5.565   6.028  0.0482  0.4313  0.1875
  185POPC    C121169   2.422   5.464   5.952 -0.5312 -0.5706 -0.0024
  185POPC    HA21170   2.394   5.367   5.999  0.1459 -1.1249 -0.7138
  185POPC    HB21171   2.491   5.428   5.873  0.5385  0.3056  0.4946
  185POPC    C221172   2.287   5.509   5.888  0.1415 -0.0707 -0.3156
  185POPC    HS21173   2.215   5.484   5.969 -0.4029 -0.2163 -0.8389
  185POPC   O2121174   2.266   5.443   5.756  0.3073 -0.0983  0.2461
  185POPC   C2121175   2.193   5.343   5.764 -0.7794  0.2198 -0.0173
  185POPC   O2221176   2.167   5.278   5.868  0.2187  0.3556 -0.1691
  185POPC   C2221177   2.141   5.292   5.632 -0.0037 -0.8313 -0.2794
  185POPC   H2R21178   2.090   5.376   5.581  0.8767  0.3911  0.7998
  185POPC   H2S21179   2.080   5.202   5.655  1.2562 -1.7203 -0.3261
  185POPC    C321180   2.285   5.660   5.871  0.3192  0.5134  0.4682
  185POPC    HX21181   2.305   5.700   5.973 -0.6652  0.7795  0.5661
  185POPC    HY21182   2.184   5.701   5.850  0.7646  0.5415 -1.8626
  185POPC   O3121183   2.383   5.710   5.781  0.2150  0.0554 -0.0734
  185POPC   C3121184   2.354   5.699   5.645  0.3264 -0.5952 -0.2168
  185POPC   O3221185   2.240   5.673   5.610  0.3271  0.8192  0.0123
  185POPC   C3221186   2.481   5.708   5.559  0.8584  0.8870 -0.1129
  185POPC   H2X21187   2.457   5.694   5.451  0.3756  0.7279  0.0122
  185POPC   H2Y21188   2.544   5.621   5.587  1.0645  1.8170  2.6256
  185POPC   C2321189   2.257   5.238   5.541  0.2587  0.3029  0.0697
  185POPC   H3R21190   2.224   5.147   5.487  3.0639 -1.1025  0.4924
  185POPC   H3S21191   2.345   5.211   5.604  0.5820  0.8706 -0.1253
  185POPC   C2421192   2.296   5.346   5.445  0.0628 -0.2828  1.0208
  185POPC   H4R21193   2.389   5.315   5.395 -1.3458  0.0297 -2.0136
  185POPC   H4S21194   2.298   5.444   5.497 -2.8885  0.1649  0.4749
  185POPC   C2521195   2.208   5.344   5.318  0.5879 -0.4199 -0.4236
  185POPC   H5R21196   2.108   5.370   5.359  1.2173 -0.3552  1.1545
  185POPC   H5S21197   2.197   5.240   5.279  0.7032 -0.3911 -0.5333
  185POPC   C2621198   2.247   5.454   5.214 -0.7432 -0.1072 -0.6346
  185POPC   H6R21199   2.185   5.437   5.123  0.7970  0.2293 -1.7733
  185POPC   H6S21200   2.356   5.446   5.193 -0.7104  1.4420 -1.1802
  185POPC   C2721201   2.216   5.592   5.268  0.2190  0.0125 -0.2446
  185POPC   H7R21202   2.284   5.627   5.348  1.1675  2.3341 -1.9258
  185POPC   H7S21203   2.115   5.575   5.309  0.0793 -1.3642 -1.1038
  185POPC   C2821204   2.210   5.699   5.153  0.0834  0.7529 -0.3482
  185POPC   H8R21205   2.164   5.786   5.204 -1.9833 -0.5639  0.1915
  185POPC   H8S21206   2.138   5.669   5.075  0.0728  1.7584 -0.7269
  185POPC   C2921207   2.348   5.736   5.090  0.0531  0.8662 -0.0637
  185POPC   H9121208   2.409   5.806   5.148 -0.6822 -1.2187  3.4776
  185POPC  C21021209   2.404   5.691   4.973  0.6377  0.7163 -0.0564
  185POPC  H10121210   2.506   5.720   4.946  0.7427 -0.5222 -1.0763
  185POPC  C21121211   2.338   5.593   4.876  0.2689  0.5308  0.3744
  185POPC  H11R21212   2.261   5.540   4.936 -0.3760  0.6832 -0.2984
  185POPC  H11S21213   2.413   5.517   4.845  0.3364  1.2485 -1.3130
  185POPC  C21221214   2.250   5.641   4.756 -0.1685  0.1744  0.2790
  185POPC  H12R21215   2.166   5.697   4.801  0.5813 -0.3742  2.4993
  185POPC  H12S21216   2.209   5.554   4.700 -0.7281  1.3575 -1.1986
  185POPC  C21321217   2.318   5.740   4.653 -0.3021  0.1791 -0.3574
  185POPC  H13R21218   2.318   5.835   4.711  0.4118  0.8744 -1.4547
  185POPC  H13S21219   2.247   5.730   4.569 -1.1079 -3.4499  0.6080
  185POPC  C21421220   2.456   5.699   4.617  0.3171  0.3062 -0.5331
  185POPC  H14R21221   2.448   5.593   4.584 -1.2168  0.2714 -0.1287
  185POPC  H14S21222   2.519   5.686   4.707  0.3254  1.6842 -0.3157
  185POPC  C21521223   2.528   5.781   4.516 -0.0555 -0.4784  0.2782
  185POPC  H15R21224   2.633   5.745   4.509 -0.4418 -1.4310 -0.7847
  185POPC  H15S21225   2.529   5.886   4.554 -1.1397 -1.3021  2.7979
  185POPC  C21621226   2.461   5.781   4.373  0.4368  0.5366 -0.2937
  185POPC  H16R21227   2.362   5.832   4.372 -0.5035 -1.2384 -0.9319
  185POPC  H16S21228   2.438   5.675   4.350  0.6584  0.8193 -1.9250
  185POPC  C21721229   2.556   5.835   4.260  0.0284  0.2994 -0.3602
  185POPC  H17R21230   2.637   5.759   4.257  0.5441  0.6367  2.4584
  185POPC  H17S21231   2.588   5.937   4.290 -0.9911  0.1627  1.3412
  185POPC  C21821232   2.494   5.838   4.118 -0.5203 -0.4536 -0.8326
  185POPC  H18R21233   2.552   5.767   4.056  0.0959 -0.4870 -0.2403
  185POPC  H18S21234   2.517   5.934   4.066  1.0636 -0.4892 -0.2633
  185POPC  H18T21235   2.384   5.823   4.118 -0.5937 -0.4115  1.7068
  185POPC   C3321236   2.556   5.843   5.597  0.6827  0.1510  0.7041
  185POPC   H3X21237   2.660   5.818   5.564  0.9434  3.8841 -1.9052
  185POPC   H3Y21238   2.558   5.868   5.705  0.9762  0.7659  0.5588
  185POPC   C3421239   2.505   5.955   5.512 -0.2720  0.1579  0.0569
  185POPC   H4X21240   2.505   5.914   5.409  0.3408 -0.2716  0.2237
  185POPC   H4Y21241   2.569   6.046   5.513 -1.8394  1.2930  0.8664
  185POPC   C3521242   2.359   5.996   5.545 -0.3867 -1.1569  0.0464
  185POPC   H5X21243   2.358   6.011   5.655  0.1316  2.9532 -0.3487
  185POPC   H5Y21244   2.293   5.919   5.499 -1.9751 -0.7721  1.5433
  185POPC   C3621245   2.338   6.140   5.502  0.6879  0.6900  0.4876
  185POPC   H6X21246   2.437   6.191   5.508  2.3376 -2.0512 -1.1937
  185POPC   H6Y21247   2.269   6.195   5.570  1.6667  0.7504  1.4691
  185POPC   C3721248   2.260   6.160   5.371 -0.6942 -0.8579  0.1366
  185POPC   H7X21249   2.265   6.270   5.359 -0.7498 -0.9607 -0.9169
  185POPC   H7Y21250   2.152   6.135   5.385 -0.2393 -1.7609  2.7611
  185POPC   C3821251   2.315   6.095   5.249 -0.0958  0.4066  0.1791
  185POPC   H8X21252   2.328   5.985   5.251  0.7182  0.5015  0.0906
  185POPC   H8Y21253   2.419   6.126   5.225 -1.0285  1.4476 -3.0772
  185POPC   C3921254   2.227   6.134   5.134  0.6125 -0.7521 -0.1442
  185POPC   H9X21255   2.198   6.241   5.138 -0.2960 -1.0229  1.1523
  185POPC   H9Y21256   2.133   6.075   5.136 -0.0708 -0.0410 -3.7518
  185POPC  C31021257   2.293   6.121   5.000  0.1849 -0.2436 -0.0381
  185POPC  H10X21258   2.350   6.025   4.997  0.5744 -0.0199  0.1095
  185POPC  H10Y21259   2.360   6.210   4.994  0.5523 -0.1446  3.6404
  185POPC  C31121260   2.194   6.143   4.883  0.4826  0.2006  0.2787
  185POPC  H11X21261   2.140   6.235   4.915  2.5516  1.1272  1.2727
  185POPC  H11Y21262   2.130   6.052   4.893 -0.0817  0.6580  0.9324
  185POPC  C31221263   2.267   6.156   4.744  0.1123  0.2480 -0.0591
  185POPC  H12X21264   2.318   6.065   4.704  2.2051  1.5145 -0.4330
  185POPC  H12Y21265   2.359   6.218   4.740  1.2710 -1.4306 -0.7610
  185POPC  C31321266   2.166   6.213   4.640  0.4034  0.4547  0.0606
  185POPC  H13X21267   2.122   6.308   4.678  1.4276  1.7270 -1.7632
  185POPC  H13Y21268   2.080   6.145   4.623  1.4726 -0.8955 -0.1312
  185POPC  C31421269   2.241   6.250   4.516 -0.6512 -0.1049 -0.0423
  185POPC  H14X21270   2.319   6.322   4.547  0.1105 -1.7724  2.2179
  185POPC  H14Y21271   2.174   6.306   4.448 -0.8267  1.2538  1.1874
  185POPC  C31521272   2.273   6.126   4.430 -0.4341  0.2680 -0.0929
  185POPC  H15X21273   2.187   6.055   4.438  0.9476 -1.2286  3.0432
  185POPC  H15Y21274   2.352   6.069   4.482 -1.0302 -2.2423 -1.7133
  185POPC  C31621275   2.321   6.142   4.289 -0.4645  0.3628 -0.6278
  185POPC  H16X21276   2.411   6.208   4.290 -0.7835  0.8051 -0.4693
  185POPC  H16Y21277   2.244   6.178   4.217 -0.4050 -0.9236 -1.3620
  185POPC  H16Z21278   2.348   6.045   4.244 -0.6852  0.3611 -0.7539
  186POPC     N21279   5.625   0.247   6.505 -0.4051  0.1601 -0.3922
  186POPC   C1221280   5.727   0.238   6.392 -0.2919  0.0852  0.1491
  186POPC  H12A21281   5.828   0.223   6.426  0.7765  0.5520 -2.5374
  186POPC  H12B21282   5.743   0.337   6.350  1.8113 -1.4399 -3.0368
  186POPC   C1321283   5.506   0.330   6.465 -0.2015 -0.0368  0.3114
  186POPC  H13A21284   5.526   0.432   6.438  2.6739 -0.7292 -0.4336
  186POPC  H13B21285   5.450   0.277   6.389 -1.7952  2.5687 -0.4889
  186POPC  H13C21286   5.433   0.334   6.545 -0.7714  2.7674 -0.2405
  186POPC   C1421287   5.567   0.111   6.539 -1.0308 -0.1724 -0.1208
  186POPC  H14A21288   5.612   0.062   6.624 -1.2435  1.3981  0.9350
  186POPC  H14B21289   5.464   0.130   6.564 -1.0932  1.6774 -1.5108
  186POPC  H14C21290   5.566   0.050   6.450  0.7556  0.9400 -0.9827
  186POPC   C1521291   5.684   0.306   6.622 -0.1527 -0.2503 -0.0524
  186POPC  H15A21292   5.750   0.386   6.593  0.1460  0.1223  1.5829
  186POPC  H15B21293   5.755   0.234   6.659 -2.6688 -2.9801 -0.1128
  186POPC  H15C21294   5.607   0.322   6.697 -0.5183 -2.0301 -0.0175
  186POPC   C1121295   5.703   0.154   6.270 -0.4339 -0.4658  0.5456
  186POPC  H11A21296   5.789   0.183   6.205 -0.0906  0.7930  1.5152
  186POPC  H11B21297   5.609   0.178   6.217 -0.8743  2.5324  2.4415
  186POPC     P21298   5.831  -0.072   6.352  0.4878 -0.2534 -0.0885
  186POPC   O1321299   5.787  -0.170   6.448  0.1398  0.4153  0.1307
  186POPC   O1421300   5.943   0.015   6.386  0.3771 -0.1438 -0.9262
  186POPC   O1221301   5.710   0.015   6.304  0.2983  0.1291  0.0647
  186POPC   O1121302   5.889  -0.149   6.218 -0.0373 -0.0192  0.3566
  186POPC    C121303   5.805  -0.206   6.115 -0.2869 -0.8767  0.1094
  186POPC    HA21304   5.707  -0.242   6.151 -0.6391  0.3618  0.4192
  186POPC    HB21305   5.853  -0.301   6.082  1.7901  0.8712 -2.4053
  186POPC    C221306   5.799  -0.117   5.989  0.5350 -0.2046 -0.0704
  186POPC    HS21307   5.705  -0.059   6.002  0.9940  0.3850  0.6913
  186POPC   O2121308   5.799  -0.208   5.871  0.1845  0.1317 -0.3215
  186POPC   C2121309   5.731  -0.162   5.769 -0.0890  0.3638 -0.1423
  186POPC   O2221310   5.658  -0.065   5.773  0.2714  0.6981  0.0085
  186POPC   C2221311   5.749  -0.250   5.644 -0.5328  0.1511 -0.0890
  186POPC   H2R21312   5.729  -0.354   5.678  1.3701 -0.0743  0.4653
  186POPC   H2S21313   5.859  -0.241   5.632 -0.4082 -1.1598 -0.0806
  186POPC    C321314   5.911  -0.012   5.968 -0.7963 -0.6894 -0.5465
  186POPC    HX21315   6.004  -0.069   5.951 -0.0257 -0.0157  1.1665
  186POPC    HY21316   5.927   0.055   6.056  3.0291 -1.3407 -0.5959
  186POPC   O3121317   5.891   0.074   5.860  0.1666 -0.0987 -0.6862
  186POPC   C3121318   5.813   0.180   5.860  0.2292  0.3789 -0.2303
  186POPC   O3221319   5.732   0.210   5.950 -0.1019 -0.3622  0.3961
  186POPC   C3221320   5.838   0.255   5.731  0.1630 -0.3154  0.6463
  186POPC   H2X21321   5.868   0.184   5.651 -4.0529  1.3651 -2.8792
  186POPC   H2Y21322   5.925   0.318   5.757 -0.3744  1.0857 -0.7483
  186POPC   C2321323   5.680  -0.178   5.523 -0.3402  0.8895  0.0667
  186POPC   H3R21324   5.709  -0.071   5.519 -1.6463  1.2367 -0.2404
  186POPC   H3S21325   5.570  -0.184   5.531 -0.3830  0.6644 -0.6641
  186POPC   C2421326   5.731  -0.236   5.386 -0.1745  0.2676  0.1038
  186POPC   H4R21327   5.840  -0.215   5.377 -0.2597  0.8733  0.4323
  186POPC   H4S21328   5.668  -0.182   5.313 -1.2689 -1.2364 -0.1094
  186POPC   C2521329   5.699  -0.385   5.371 -0.2256  0.9611  0.3810
  186POPC   H5R21330   5.593  -0.400   5.400 -0.3192 -2.8465 -1.3720
  186POPC   H5S21331   5.765  -0.444   5.438 -2.1436  0.1157  1.6200
  186POPC   C2621332   5.722  -0.430   5.224  0.6336 -0.4322  0.1253
  186POPC   H6R21333   5.760  -0.534   5.231  1.0316 -0.2146  1.5639
  186POPC   H6S21334   5.809  -0.371   5.190  0.6000  0.5963  1.6847
  186POPC   C2721335   5.609  -0.411   5.118  0.1808  0.1237  0.0754
  186POPC   H7R21336   5.518  -0.469   5.145 -0.3711  0.2388 -1.4054
  186POPC   H7S21337   5.651  -0.454   5.024  1.2742  0.0336  0.5922
  186POPC   C2821338   5.553  -0.268   5.092  0.1469  0.0694 -0.3323
  186POPC   H8R21339   5.510  -0.250   5.193 -2.9008  2.4615 -1.8968
  186POPC   H8S21340   5.462  -0.288   5.032 -0.5239  0.5975  0.4884
  186POPC   C2921341   5.647  -0.173   5.031 -0.3504 -0.0172 -0.3069
  186POPC   H9121342   5.734  -0.147   5.094  0.3277 -1.4696 -0.6035
  186POPC  C21021343   5.649  -0.123   4.909  0.9218  0.0417  0.8750
  186POPC  H10121344   5.722  -0.045   4.882  1.0191  0.0856  1.2530
  186POPC  C21121345   5.543  -0.147   4.799 -0.4513 -0.1809 -0.0950
  186POPC  H11R21346   5.517  -0.052   4.747 -1.3508  1.0008  2.3173
  186POPC  H11S21347   5.451  -0.172   4.857 -0.4656 -1.5242 -0.6767
  186POPC  C21221348   5.569  -0.249   4.698 -0.1180  0.5701  0.0141
  186POPC  H12R21349   5.473  -0.267   4.644 -0.4954 -0.8385  1.0827
  186POPC  H12S21350   5.608  -0.341   4.748  0.9978  0.5200 -0.8964
  186POPC  C21321351   5.680  -0.228   4.598  0.0625 -0.9917  0.5134
  186POPC  H13R21352   5.776  -0.214   4.653  1.0944  3.8017 -2.0360
  186POPC  H13S21353   5.653  -0.130   4.555 -1.0835 -1.2326  0.6505
  186POPC  C21421354   5.677  -0.342   4.495  0.0000 -0.1029 -0.5269
  186POPC  H14R21355   5.575  -0.361   4.457 -0.0883  1.0257 -0.8792
  186POPC  H14S21356   5.695  -0.428   4.564 -2.5132  0.7273  1.3055
  186POPC  C21521357   5.766  -0.339   4.372 -0.2008  0.2691 -0.2855
  186POPC  H15R21358   5.872  -0.332   4.403  0.0324  0.3684 -1.0915
  186POPC  H15S21359   5.754  -0.252   4.304  0.4684  1.2872  0.8390
  186POPC  C21621360   5.766  -0.471   4.290  0.7002 -0.5841  0.4705
  186POPC  H16R21361   5.662  -0.485   4.256  0.0840 -1.8245  2.7382
  186POPC  H16S21362   5.802  -0.551   4.358  0.0125 -0.8216  0.5515
  186POPC  C21721363   5.850  -0.455   4.161 -0.2019  0.1474 -0.7348
  186POPC  H17R21364   5.948  -0.426   4.205 -0.4630  0.7539 -0.5503
  186POPC  H17S21365   5.824  -0.369   4.096  2.0776  0.0710 -1.8625
  186POPC  C21821366   5.852  -0.579   4.073 -0.1482  0.0172 -0.7084
  186POPC  H18R21367   5.895  -0.656   4.140 -0.7635  0.9511  0.7933
  186POPC  H18S21368   5.908  -0.570   3.977 -1.4470  0.2314 -1.4705
  186POPC  H18T21369   5.751  -0.620   4.052 -0.5058  0.6389 -0.2189
  186POPC   C3321370   5.727   0.350   5.690 -0.2253 -0.5270  0.2067
  186POPC   H3X21371   5.753   0.433   5.621 -4.4158  1.5033  0.6850
  186POPC   H3Y21372   5.683   0.403   5.778  0.5417 -1.5738  1.2498
  186POPC   C3421373   5.605   0.270   5.635  0.4112 -0.1692  0.2542
  186POPC   H4X21374   5.545   0.239   5.724  0.3248  0.9406  0.5909
  186POPC   H4Y21375   5.640   0.175   5.590 -1.8305 -1.6818  1.4819
  186POPC   C3521376   5.514   0.357   5.542  0.5870 -0.1724 -0.1179
  186POPC   H5X21377   5.489   0.444   5.607 -0.1156 -0.5320  0.0984
  186POPC   H5Y21378   5.410   0.322   5.527  0.3357 -0.3436  1.7917
  186POPC   C3621379   5.574   0.412   5.409  0.3565  0.3321 -0.2450
  186POPC   H6X21380   5.680   0.442   5.426  0.0685  0.4682  1.4595
  186POPC   H6Y21381   5.516   0.496   5.365  1.5971  2.1552  1.4260
  186POPC   C3721382   5.580   0.303   5.303 -0.1546  0.3173 -0.3057
  186POPC   H7X21383   5.610   0.211   5.357 -2.2856 -0.6036 -0.5966
  186POPC   H7Y21384   5.656   0.331   5.228  0.9265  1.5982  1.1918
  186POPC   C3821385   5.445   0.293   5.233  0.3513  0.6013 -0.1133
  186POPC   H8X21386   5.436   0.377   5.161  3.1015 -0.1625 -1.5022
  186POPC   H8Y21387   5.360   0.297   5.304  0.5535 -1.6095  0.3133
  186POPC   C3921388   5.436   0.156   5.153 -0.4447 -0.4166  0.0678
  186POPC   H9X21389   5.456   0.071   5.221 -0.5598 -1.2631 -0.9352
  186POPC   H9Y21390   5.525   0.165   5.087 -1.2876  0.7510 -0.9597
  186POPC  C31021391   5.303   0.128   5.093 -0.0983  0.5256 -0.3834
  186POPC  H10X21392   5.224   0.135   5.170 -0.5171  2.2502 -0.9240
  186POPC  H10Y21393   5.312   0.025   5.051 -0.3981  0.9304 -1.4928
  186POPC  C31121394   5.263   0.228   4.978 -0.0116  0.3029 -0.1638
  186POPC  H11X21395   5.357   0.233   4.919  0.9722 -0.5281  1.2660
  186POPC  H11Y21396   5.240   0.330   5.015 -2.4460 -0.5413  0.8485
  186POPC  C31221397   5.149   0.163   4.895  0.6570 -0.1944  0.5003
  186POPC  H12X21398   5.080   0.123   4.972 -0.0187  1.9837  1.1162
  186POPC  H12Y21399   5.198   0.080   4.840  5.1833  1.2353  1.9293
  186POPC  C31321400   5.076   0.256   4.801 -0.0443 -0.3356 -0.4865
  186POPC  H13X21401   5.040   0.205   4.710 -0.3015 -0.5334 -0.2759
  186POPC  H13Y21402   5.136   0.345   4.772 -2.6282  1.1154 -1.7383
  186POPC  C31421403   4.953   0.304   4.878  0.1858  0.7285 -0.3902
  186POPC  H14X21404   4.977   0.369   4.965 -0.4441  1.1470 -0.5255
  186POPC  H14Y21405   4.899   0.215   4.918  0.8445  0.5070  0.0238
  186POPC  C31521406   4.846   0.383   4.798 -0.2868  0.4329  0.0509
  186POPC  H15X21407   4.813   0.309   4.722  2.2019  0.5555 -1.2680
  186POPC  H15Y21408   4.887   0.471   4.744 -1.7337 -1.1119 -3.9191
  186POPC  C31621409   4.733   0.437   4.886 -0.2911  0.2940  0.4724
  186POPC  H16X21410   4.661   0.361   4.923 -1.4319  1.1135 -0.0003
  186POPC  H16Y21411   4.679   0.522   4.839  0.5122 -0.0131 -1.0745
  186POPC  H16Z21412   4.793   0.475   4.972  2.2220 -1.6050 -0.3082
  187POPC     N21413   6.094   4.561   1.848  0.1512 -0.7114 -0.8238
  187POPC   C1221414   6.087   4.705   1.903 -0.2768 -0.6101 -0.5505
  187POPC  H12A21415   6.003   4.761   1.865  0.1250 -1.6911 -3.2742
  187POPC  H12B21416   6.166   4.753   1.846  2.3065 -4.0097 -0.1427
  187POPC   C1321417   6.045   4.547   1.711  0.5821 -0.5495  0.3884
  187POPC  H13A21418   6.108   4.598   1.639 -1.1060 -1.0172 -1.5029
  187POPC  H13B21419   6.036   4.444   1.679 -0.2833 -0.4856  0.4121
  187POPC  H13C21420   5.945   4.588   1.714 -0.2705 -2.5359  1.3760
  187POPC   C1421421   6.235   4.512   1.865 -0.0158  0.3079  0.8588
  187POPC  H14A21422   6.293   4.587   1.814 -0.9237  1.9749  2.1741
  187POPC  H14B21423   6.264   4.518   1.968 -0.7858 -2.8353  1.3477
  187POPC  H14C21424   6.243   4.411   1.826 -0.1763  0.7052 -0.2339
  187POPC   C1521425   6.011   4.470   1.935  0.3278  0.6244  0.2091
  187POPC  H15A21426   5.909   4.502   1.920  0.5325  1.3544  0.3508
  187POPC  H15B21427   6.045   4.491   2.036  0.1689  3.9976 -0.3290
  187POPC  H15C21428   6.033   4.370   1.901 -0.0553  0.9743 -1.1286
  187POPC   C1121429   6.114   4.748   2.053 -0.1860 -0.2391  0.0906
  187POPC  H11A21430   6.034   4.717   2.123  1.0297 -1.2101  1.0954
  187POPC  H11B21431   6.119   4.859   2.044  3.2457 -0.4628 -2.9072
  187POPC     P21432   6.309   4.724   2.225  0.0460 -0.3192 -0.1641
  187POPC   O1321433   6.307   4.870   2.261  0.1817  0.0054  0.6696
  187POPC   O1421434   6.438   4.651   2.221 -0.4143  0.1162  0.1588
  187POPC   O1221435   6.247   4.704   2.087  0.0580  0.3706 -0.7591
  187POPC   O1121436   6.212   4.639   2.314 -0.3690 -0.1965 -0.7401
  187POPC    C121437   6.197   4.493   2.310  0.3136 -0.3105  0.0405
  187POPC    HA21438   6.296   4.448   2.286  1.2399  1.1157  1.0503
  187POPC    HB21439   6.137   4.460   2.223 -0.2919  0.0469  0.3189
  187POPC    C221440   6.160   4.429   2.443  0.1633 -0.1105  0.3826
  187POPC    HS21441   6.058   4.469   2.464 -0.8385 -0.9688 -2.4296
  187POPC   O2121442   6.265   4.472   2.538  0.4314 -0.2624 -0.3245
  187POPC   C2121443   6.224   4.539   2.643 -0.3690 -0.7790 -0.4340
  187POPC   O2221444   6.106   4.562   2.656 -0.1601 -0.1606  0.5610
  187POPC   C2221445   6.340   4.584   2.734  0.7130  0.1167 -1.0355
  187POPC   H2R21446   6.352   4.693   2.713 -2.6257  0.6653 -0.7597
  187POPC   H2S21447   6.436   4.537   2.703  3.5296  3.4389  1.7771
  187POPC    C321448   6.162   4.273   2.437  0.6791  0.8026 -0.1463
  187POPC    HX21449   6.267   4.249   2.414  0.7957  1.1104  0.0479
  187POPC    HY21450   6.094   4.241   2.355 -3.2376  1.0863  2.7029
  187POPC   O3121451   6.121   4.211   2.562 -0.8222  0.6017  0.0747
  187POPC   C3121452   5.987   4.181   2.571 -0.8632  0.5121  0.1210
  187POPC   O3221453   5.898   4.216   2.501 -0.2709 -0.4067  0.2865
  187POPC   C3221454   5.968   4.069   2.671 -0.2963 -1.3071 -0.2278
  187POPC   H2X21455   6.031   4.078   2.762  0.1048 -0.4379 -0.5760
  187POPC   H2Y21456   5.992   3.971   2.625 -1.3732 -2.2714  1.2004
  187POPC   C2321457   6.307   4.558   2.881 -0.3002 -1.1261  1.0322
  187POPC   H3R21458   6.248   4.466   2.900  0.0274 -1.2913  1.2565
  187POPC   H3S21459   6.249   4.644   2.922 -0.2813  0.5762 -2.1862
  187POPC   C2421460   6.439   4.543   2.966 -0.6203  0.5809  1.0480
  187POPC   H4R21461   6.517   4.615   2.933 -0.2875 -0.8022 -1.3890
  187POPC   H4S21462   6.479   4.442   2.945  0.5082  1.5448 -1.8636
  187POPC   C2521463   6.409   4.547   3.121 -0.0059 -0.2397  0.3360
  187POPC   H5R21464   6.343   4.464   3.155  0.4837 -1.5883 -1.7914
  187POPC   H5S21465   6.364   4.645   3.147  3.8060  1.9138 -0.4432
  187POPC   C2621466   6.542   4.552   3.198  0.0601  0.3117 -0.1601
  187POPC   H6R21467   6.586   4.652   3.177 -0.1546  0.5050  0.2875
  187POPC   H6S21468   6.604   4.467   3.164 -0.2326  0.5561 -1.3645
  187POPC   C2721469   6.525   4.563   3.351 -0.0517  0.0966  0.0838
  187POPC   H7R21470   6.449   4.638   3.382  0.6763 -0.0768  2.5613
  187POPC   H7S21471   6.618   4.612   3.386 -0.1306 -0.2553  0.8113
  187POPC   C2821472   6.496   4.427   3.410 -0.5314  0.0767 -0.0670
  187POPC   H8R21473   6.550   4.335   3.379 -1.9708 -1.1434  0.9152
  187POPC   H8S21474   6.388   4.401   3.401 -0.3256 -1.0880  0.5825
  187POPC   C2921475   6.538   4.437   3.552  0.3306 -0.5429  0.0067
  187POPC   H9121476   6.646   4.453   3.562  0.3841 -0.9638  0.0974
  187POPC  C21021477   6.457   4.431   3.661 -0.0866  1.2441 -0.0944
  187POPC  H10121478   6.510   4.424   3.758 -2.5343 -1.0381  1.2049
  187POPC  C21121479   6.309   4.404   3.669  0.3080  0.1855  0.0417
  187POPC  H11R21480   6.257   4.431   3.575 -1.7951 -1.5907  0.6214
  187POPC  H11S21481   6.272   4.469   3.751  0.2626 -2.1675  2.0170
  187POPC  C21221482   6.267   4.265   3.715  0.3048 -0.1258  0.4805
  187POPC  H12R21483   6.304   4.248   3.819 -0.2461  1.7863  1.0198
  187POPC  H12S21484   6.312   4.193   3.643 -0.6796  0.2987 -0.5797
  187POPC  C21321485   6.114   4.236   3.702  0.2274 -0.4793  0.0226
  187POPC  H13R21486   6.093   4.128   3.713  1.1148 -0.5700  1.0367
  187POPC  H13S21487   6.093   4.268   3.598  1.1062 -0.7386 -0.2462
  187POPC  C21421488   6.015   4.309   3.796 -0.2798 -0.0648  0.3813
  187POPC  H14R21489   5.909   4.288   3.768  0.6163 -3.8174 -0.6854
  187POPC  H14S21490   6.022   4.420   3.792 -1.1640 -0.0203 -0.3003
  187POPC  C21521491   6.022   4.254   3.939 -0.5182 -0.1599 -0.9045
  187POPC  H15R21492   5.955   4.309   4.008 -0.6270  0.0750 -1.1947
  187POPC  H15S21493   6.122   4.271   3.984 -0.9901 -0.1804  0.1774
  187POPC  C21621494   5.984   4.110   3.960  0.6829  0.1983 -0.2801
  187POPC  H16R21495   6.067   4.051   3.916  0.8693  0.3371 -0.1117
  187POPC  H16S21496   5.893   4.102   3.896  1.5529  1.4279 -1.7590
  187POPC  C21721497   5.952   4.075   4.102  0.0237 -0.3047 -0.1817
  187POPC  H17R21498   5.864   4.136   4.132  0.5195  0.4344 -0.2081
  187POPC  H17S21499   6.040   4.102   4.164  0.0862 -2.2654  0.6735
  187POPC  C21821500   5.917   3.924   4.123 -0.4634 -0.7151 -0.3485
  187POPC  H18R21501   5.806   3.911   4.123 -0.3743 -2.2887  2.3528
  187POPC  H18S21502   5.952   3.883   4.219 -0.7084 -0.2934 -0.0759
  187POPC  H18T21503   5.971   3.863   4.048  0.8241 -0.0189 -0.0016
  187POPC   C3321504   5.820   4.063   2.710 -0.0774 -0.5903  0.6040
  187POPC   H3X21505   5.767   4.037   2.616 -2.4684  0.3991  1.5973
  187POPC   H3Y21506   5.785   4.159   2.756  0.5623 -0.9018  1.7970
  187POPC   C3421507   5.797   3.963   2.818 -0.0396 -0.2832 -0.5325
  187POPC   H4X21508   5.835   3.997   2.916 -1.3980 -1.7508  0.5468
  187POPC   H4Y21509   5.856   3.870   2.804  1.2016  0.1909  1.2397
  187POPC   C3521510   5.650   3.933   2.842 -0.3843 -0.0421  0.1336
  187POPC   H5X21511   5.616   3.875   2.753  0.4455  0.5187 -0.5776
  187POPC   H5Y21512   5.592   4.027   2.850 -0.6438 -0.1508 -0.4079
  187POPC   C3621513   5.623   3.831   2.955 -0.3842  0.0612 -0.1668
  187POPC   H6X21514   5.687   3.741   2.944 -1.3668 -0.6792  0.0881
  187POPC   H6Y21515   5.526   3.780   2.941  0.2408 -1.9803  2.1793
  187POPC   C3721516   5.649   3.879   3.099  0.8827 -0.8330  0.4222
  187POPC   H7X21517   5.760   3.884   3.103  0.8640  0.6779  0.0582
  187POPC   H7Y21518   5.612   3.815   3.181 -0.1726  1.6266  1.9881
  187POPC   C3821519   5.593   4.015   3.144 -0.3083 -0.1247 -0.0407
  187POPC   H8X21520   5.483   4.007   3.138 -0.5559  2.7496 -0.5539
  187POPC   H8Y21521   5.625   4.093   3.072  0.3328 -0.5111 -0.1839
  187POPC   C3921522   5.649   4.060   3.278 -0.6517 -0.3306  0.1302
  187POPC   H9X21523   5.670   4.169   3.271 -0.7246 -0.3038  0.3009
  187POPC   H9Y21524   5.747   4.009   3.295 -1.6689 -2.9001 -1.1935
  187POPC  C31021525   5.558   4.037   3.401 -0.5193 -0.6743 -0.6501
  187POPC  H10X21526   5.538   3.929   3.419  0.1504 -1.0310 -1.9668
  187POPC  H10Y21527   5.459   4.081   3.378  0.6012  2.4932  0.0610
  187POPC  C31121528   5.614   4.116   3.521 -0.3271  0.3257 -0.6867
  187POPC  H11X21529   5.621   4.226   3.502  4.7051  0.6461  1.4099
  187POPC  H11Y21530   5.720   4.083   3.530 -0.5490 -0.0954  0.6032
  187POPC  C31221531   5.550   4.068   3.650 -0.3255  0.1722  0.5405
  187POPC  H12X21532   5.551   3.958   3.664 -0.4112  0.2771  1.4048
  187POPC  H12Y21533   5.443   4.101   3.644 -1.0762 -2.0240  0.9224
  187POPC  C31321534   5.601   4.133   3.782  0.4490 -0.4308  0.4789
  187POPC  H13X21535   5.627   4.240   3.773  0.1058 -0.4954 -1.7773
  187POPC  H13Y21536   5.691   4.076   3.815  0.2922 -0.7100  0.4316
  187POPC  C31421537   5.488   4.120   3.892  0.3515  0.3633 -0.3122
  187POPC  H14X21538   5.449   4.016   3.896  0.7569  0.1953 -0.6390
  187POPC  H14Y21539   5.400   4.183   3.868 -0.8262 -0.8354  0.7238
  187POPC  C31521540   5.544   4.160   4.033 -0.1730  0.4920  0.2327
  187POPC  H15X21541   5.584   4.264   4.029 -1.6728  1.0731  0.0135
  187POPC  H15Y21542   5.634   4.095   4.038  0.8060  1.6753 -0.9526
  187POPC  C31621543   5.452   4.152   4.147  0.4213  0.1984 -0.3733
  187POPC  H16X21544   5.376   4.233   4.146  0.4529  0.3716  2.4893
  187POPC  H16Y21545   5.507   4.187   4.238 -0.3141  1.7440 -0.4840
  187POPC  H16Z21546   5.406   4.055   4.174 -1.3304  1.1222  0.1143
  188POPC     N21547   5.048   5.871   1.607  0.7992 -0.3548 -0.1865
  188POPC   C1221548   5.019   6.005   1.683 -0.6395  0.0161 -0.4412
  188POPC  H12A21549   4.914   6.024   1.664 -0.7337 -0.6534 -0.6263
  188POPC  H12B21550   5.072   6.080   1.627  2.3635 -1.6566 -0.0293
  188POPC   C1321551   4.965   5.766   1.659 -0.6520 -0.2965 -0.1099
  188POPC  H13A21552   4.859   5.790   1.658 -0.7673 -0.7092  1.0362
  188POPC  H13B21553   4.981   5.668   1.618 -0.8668  0.1332 -1.2747
  188POPC  H13C21554   4.982   5.756   1.765  0.8340 -3.1697 -0.5078
  188POPC   C1421555   5.031   5.892   1.460 -0.5553 -0.7476 -0.1508
  188POPC  H14A21556   5.099   5.967   1.422  1.6559 -1.4060  2.1850
  188POPC  H14B21557   5.053   5.800   1.409  0.4318  0.1094 -1.3388
  188POPC  H14C21558   4.928   5.914   1.441 -0.2785  1.9443  1.0339
  188POPC   C1521559   5.188   5.839   1.637 -0.3545  0.1152  0.2008
  188POPC  H15A21560   5.241   5.932   1.625 -1.7322  0.9774  0.5296
  188POPC  H15B21561   5.230   5.752   1.589  1.1606  0.4180  0.9284
  188POPC  H15C21562   5.201   5.808   1.739  0.4130  0.0578  0.0899
  188POPC   C1121563   5.041   6.010   1.835  0.3746  0.2175  0.2456
  188POPC  H11A21564   5.017   6.113   1.869 -1.9323 -0.3839  0.6128
  188POPC  H11B21565   5.145   6.011   1.873  0.2034  0.0810  0.7339
  188POPC     P21566   4.806   5.960   1.932  0.2661 -0.2146 -0.2001
  188POPC   O1321567   4.728   5.839   1.959  0.6184  0.3011 -0.8921
  188POPC   O1421568   4.764   6.062   1.829  0.0239 -0.1837 -0.1519
  188POPC   O1221569   4.959   5.923   1.908 -0.4907 -0.1334  0.5988
  188POPC   O1121570   4.808   6.044   2.066 -0.1506 -0.2781  0.3904
  188POPC    C121571   4.897   6.009   2.176  0.6106  0.0159  0.3106
  188POPC    HA21572   4.888   6.093   2.248  1.3868  0.3679  0.0101
  188POPC    HB21573   5.003   5.999   2.145  0.3629  1.4135 -1.0959
  188POPC    C221574   4.854   5.890   2.258 -0.3883 -0.1363 -0.6866
  188POPC    HS21575   4.853   5.806   2.186  0.5648  1.1565 -2.2736
  188POPC   O2121576   4.722   5.917   2.308 -0.7075 -0.1865  0.4849
  188POPC   C2121577   4.644   5.816   2.329 -0.5346 -0.1935 -0.2109
  188POPC   O2221578   4.675   5.698   2.306 -0.2406 -0.8151  0.1242
  188POPC   C2221579   4.505   5.868   2.371 -0.3590 -0.4060  0.4583
  188POPC   H2R21580   4.427   5.819   2.309  0.0529  0.0607 -0.4621
  188POPC   H2S21581   4.504   5.979   2.362 -0.2967 -0.5795 -3.4406
  188POPC    C321582   4.959   5.860   2.374  0.4370  0.2028  1.4394
  188POPC    HX21583   4.969   5.951   2.438 -0.0694 -0.6124  2.7200
  188POPC    HY21584   5.059   5.845   2.328 -0.7780 -0.4106 -1.1178
  188POPC   O3121585   4.917   5.743   2.458 -0.1515 -0.3823  0.3649
  188POPC   C3121586   4.987   5.735   2.566 -0.1284 -0.9447 -1.0849
  188POPC   O3221587   5.094   5.796   2.582  0.2077 -1.0466  0.6186
  188POPC   C3221588   4.925   5.630   2.664  0.0458  0.4988 -0.2887
  188POPC   H2X21589   4.959   5.535   2.619 -0.0155  0.3793 -0.0810
  188POPC   H2Y21590   4.815   5.648   2.672 -0.3984 -1.5908 -1.0369
  188POPC   C2321591   4.470   5.814   2.513 -0.2716  0.6388  0.3994
  188POPC   H3R21592   4.485   5.704   2.516  1.5473  0.8795  0.8750
  188POPC   H3S21593   4.365   5.840   2.539 -0.4274  0.3207  0.0982
  188POPC   C2421594   4.548   5.873   2.634 -0.4722 -1.0628  0.3135
  188POPC   H4R21595   4.532   5.982   2.621  1.4521 -0.9514 -1.8884
  188POPC   H4S21596   4.657   5.855   2.617  0.0182  3.0874 -2.2084
  188POPC   C2521597   4.488   5.833   2.770  0.5024 -0.5052  0.1166
  188POPC   H5R21598   4.437   5.734   2.764 -1.5623  0.4272  1.2989
  188POPC   H5S21599   4.409   5.909   2.790  0.3546 -0.4975 -0.4763
  188POPC   C2621600   4.588   5.828   2.891  0.1363 -0.2725 -0.1821
  188POPC   H6R21601   4.618   5.933   2.912 -0.2958 -0.7315  3.5069
  188POPC   H6S21602   4.669   5.762   2.855 -0.2565  0.0609 -1.7384
  188POPC   C2721603   4.524   5.758   3.007 -0.1819  0.1746 -0.2125
  188POPC   H7R21604   4.604   5.729   3.078 -0.7411 -1.1483 -0.0869
  188POPC   H7S21605   4.466   5.677   2.957 -0.4367  0.2421 -0.0274
  188POPC   C2821606   4.428   5.843   3.088  0.3306  0.1052  0.5283
  188POPC   H8R21607   4.378   5.766   3.151 -1.3948  0.6737 -0.1090
  188POPC   H8S21608   4.353   5.879   3.014 -0.5202 -1.5956  0.5190
  188POPC   C2921609   4.475   5.964   3.169 -0.0729 -0.3727  0.3582
  188POPC   H9121610   4.474   6.064   3.125 -2.7261  0.0136  1.1604
  188POPC  C21021611   4.526   5.952   3.292  0.3460 -0.0624 -0.3357
  188POPC  H10121612   4.566   6.040   3.344  0.2680 -0.5247  0.5239
  188POPC  C21121613   4.545   5.827   3.367  0.0840  0.5134  0.0199
  188POPC  H11R21614   4.652   5.801   3.357  0.4424  1.8727  0.1546
  188POPC  H11S21615   4.491   5.741   3.321 -0.3030  1.3001 -1.0337
  188POPC  C21221616   4.525   5.833   3.520 -0.0056 -0.2643 -0.0874
  188POPC  H12R21617   4.482   5.743   3.569 -0.3996 -1.0178 -1.7419
  188POPC  H12S21618   4.446   5.909   3.538 -0.6592 -0.3609 -2.2882
  188POPC  C21321619   4.647   5.896   3.589 -0.6022  0.2233 -0.5667
  188POPC  H13R21620   4.696   5.964   3.516  0.4671 -1.4714 -1.4968
  188POPC  H13S21621   4.719   5.816   3.618 -2.3936 -0.7370  1.5270
  188POPC  C21421622   4.610   5.966   3.720 -0.3967  0.3437 -0.5453
  188POPC  H14R21623   4.521   6.032   3.712 -1.5027 -0.8512  1.0456
  188POPC  H14S21624   4.694   6.028   3.757  0.6563 -1.4708  0.2573
  188POPC  C21521625   4.573   5.863   3.831 -1.4914  0.0371  0.7146
  188POPC  H15R21626   4.668   5.812   3.861 -0.2387  2.8674  1.9246
  188POPC  H15S21627   4.498   5.789   3.796 -0.7517 -0.8747  0.9974
  188POPC  C21621628   4.534   5.924   3.965  0.1638 -0.1313  0.3274
  188POPC  H16R21629   4.429   5.961   3.951 -0.0453 -1.6537 -2.9484
  188POPC  H16S21630   4.596   6.014   3.985 -1.9392  1.4626  0.0535
  188POPC  C21721631   4.556   5.820   4.074 -0.6764  0.0912  0.0931
  188POPC  H17R21632   4.543   5.870   4.173  1.2475  2.4350 -0.7372
  188POPC  H17S21633   4.664   5.798   4.065 -0.1692  2.3218  0.0343
  188POPC  C21821634   4.473   5.692   4.062  0.2812 -0.4138 -0.5643
  188POPC  H18R21635   4.503   5.627   3.977  0.6686  1.8602 -2.2786
  188POPC  H18S21636   4.370   5.713   4.026 -0.7725 -0.2059  2.3421
  188POPC  H18T21637   4.478   5.631   4.155  1.1338  0.5563  0.0593
  188POPC   C3321638   4.984   5.635   2.810 -0.1691 -0.4046 -0.1716
  188POPC   H3X21639   4.963   5.736   2.851 -0.3172 -0.1366 -0.9023
  188POPC   H3Y21640   5.095   5.635   2.811 -0.1646 -0.2333 -0.5807
  188POPC   C3421641   4.919   5.534   2.901 -0.0455 -0.5627  0.2959
  188POPC   H4X21642   4.929   5.431   2.861 -0.4755  0.4431 -2.7122
  188POPC   H4Y21643   4.812   5.564   2.901  0.4386  1.2675  0.6163
  188POPC   C3521644   4.982   5.536   3.040 -0.3743  0.0489 -0.7481
  188POPC   H5X21645   5.088   5.502   3.037 -0.8500 -1.8671  1.3662
  188POPC   H5Y21646   4.933   5.456   3.099 -0.1980  1.6215  1.6778
  188POPC   C3621647   4.974   5.664   3.126  0.4270 -0.8876  0.8837
  188POPC   H6X21648   4.866   5.690   3.132  0.4950 -0.5810  0.7678
  188POPC   H6Y21649   5.009   5.755   3.073 -0.9329 -0.9836 -0.2426
  188POPC   C3721650   5.032   5.647   3.262 -0.3554 -0.2776  0.2575
  188POPC   H7X21651   5.065   5.749   3.290 -2.0715  0.9276 -1.7915
  188POPC   H7Y21652   5.129   5.595   3.254 -0.5565 -0.6002 -0.1105
  188POPC   C3821653   4.935   5.597   3.367 -0.1747  0.8633  0.6349
  188POPC   H8X21654   4.886   5.513   3.313  0.5405  0.4534  0.6114
  188POPC   H8Y21655   4.854   5.670   3.386  1.8919  2.7965  2.6545
  188POPC   C3921656   4.998   5.561   3.497  0.2519 -0.1079  0.5562
  188POPC   H9X21657   5.086   5.497   3.475  1.6271  1.5442  1.0866
  188POPC   H9Y21658   4.943   5.514   3.582  1.1199  1.5242  2.0880
  188POPC  C31021659   5.067   5.686   3.552  0.3002 -0.6318 -1.0386
  188POPC  H10X21660   4.999   5.773   3.545  1.7574  0.6572  0.0799
  188POPC  H10Y21661   5.157   5.722   3.497  0.2581 -0.9934 -1.3493
  188POPC  C31121662   5.110   5.668   3.700  0.1009  0.1786  0.4900
  188POPC  H11X21663   5.185   5.746   3.723  1.2726 -1.0148  0.8397
  188POPC  H11Y21664   5.152   5.566   3.712  0.3128 -0.2977 -3.2675
  188POPC  C31221665   5.008   5.688   3.811  0.1696  0.2429 -0.3099
  188POPC  H12X21666   4.915   5.630   3.790  2.4147 -3.9523  0.2596
  188POPC  H12Y21667   4.984   5.796   3.819 -1.6768 -0.2655  2.9822
  188POPC  C31321668   5.073   5.644   3.947  0.6547 -0.5141 -0.0823
  188POPC  H13X21669   5.176   5.685   3.943  0.8142 -0.7029  1.3632
  188POPC  H13Y21670   5.087   5.534   3.956 -1.1377 -0.6587  1.8645
  188POPC  C31421671   5.000   5.701   4.066 -0.4806 -0.3033 -0.0782
  188POPC  H14X21672   4.891   5.688   4.052 -0.5673  1.1661 -0.9368
  188POPC  H14Y21673   5.014   5.811   4.070 -0.8623 -0.2237 -0.8310
  188POPC  C31521674   5.045   5.641   4.200  0.3693 -0.0967 -0.5248
  188POPC  H15X21675   5.155   5.640   4.213  0.4197  1.1956 -0.7391
  188POPC  H15Y21676   5.007   5.538   4.181 -0.3980  0.2435 -0.8724
  188POPC  C31621677   4.959   5.688   4.315 -0.3276 -0.0333 -0.3043
  188POPC  H16X21678   5.002   5.662   4.414 -1.2104  1.2539  0.4485
  188POPC  H16Y21679   4.860   5.637   4.303 -0.0256 -0.3025 -1.9664
  188POPC  H16Z21680   4.948   5.798   4.303 -2.3468 -0.2006 -0.4089
  189SAPI   C1221681   2.043   3.764   6.346  0.4646  0.4384  0.1336
  189SAPI    H221682   2.083   3.813   6.255 -1.0122  1.9964  0.2760
  189SAPI    O221683   2.022   3.862   6.446  0.3390 -0.5102 -0.0256
  189SAPI   HO221684   2.105   3.859   6.494  0.4699 -0.3615 -0.2411
  189SAPI   C1321685   1.913   3.688   6.326 -0.4732 -0.4366 -1.0824
  189SAPI    H321686   1.940   3.600   6.263  1.2459 -0.4253 -0.4155
  189SAPI    O321687   1.827   3.766   6.246  0.2011  0.1520 -0.5189
  189SAPI   HO321688   1.801   3.852   6.282 -5.1206 -0.6494 -1.5363
  189SAPI   C1421689   1.849   3.646   6.455  0.0016 -1.2982 -1.2252
  189SAPI    H421690   1.822   3.742   6.503 -0.3429 -2.2360  0.5676
  189SAPI    O421691   1.731   3.572   6.439  0.1078 -0.5392 -0.1461
  189SAPI   HO421692   1.672   3.625   6.385  1.1570  0.4981 -0.3210
  189SAPI   C1521693   1.943   3.583   6.554 -0.4902  1.3125  0.2964
  189SAPI    H521694   1.942   3.475   6.527 -3.5383  1.3342  0.0399
  189SAPI    O521695   1.904   3.586   6.692 -0.2209  0.1848  0.4656
  189SAPI   HO521696   1.909   3.494   6.720 -0.2303 -0.2645 -0.9054
  189SAPI   C1621697   2.096   3.610   6.533  0.3458 -0.1071 -0.4961
  189SAPI    H621698   2.114   3.695   6.603 -0.4656 -0.5305  0.2391
  189SAPI    O621699   2.178   3.510   6.583  0.7650  0.9427 -0.1061
  189SAPI   HO621700   2.253   3.501   6.524  0.4329  0.9916 -0.5382
  189SAPI   C1121701   2.143   3.660   6.400 -0.3074  0.5028 -0.8953
  189SAPI    H121702   2.141   3.568   6.338 -2.3660 -1.1013  1.3626
  189SAPI     P21703   2.417   3.640   6.387 -0.3529 -0.2972  0.2320
  189SAPI   O1321704   2.389   3.494   6.404  0.1238  0.5480 -0.4512
  189SAPI   O1421705   2.518   3.704   6.478  0.3865 -0.1946 -0.7122
  189SAPI   O1221706   2.274   3.718   6.405  0.6369  0.9388  0.3946
  189SAPI   O1121707   2.452   3.666   6.239 -0.0596  0.4676  0.0768
  189SAPI    C121708   2.478   3.799   6.187  0.4545 -0.2762  0.5382
  189SAPI    HA21709   2.415   3.879   6.232 -0.0822 -1.1184  1.3271
  189SAPI    HB21710   2.586   3.825   6.197  0.1735  0.3244  2.3303
  189SAPI    C221711   2.461   3.811   6.035  0.3505  0.0380 -0.5627
  189SAPI    HS21712   2.514   3.899   5.994  1.9464 -0.8182 -0.4391
  189SAPI   O2121713   2.318   3.813   6.022  0.3960 -0.3802  0.9956
  189SAPI   C2121714   2.275   3.937   5.975  0.2743  1.2627 -0.0861
  189SAPI   O2221715   2.347   4.030   5.952  0.3227 -0.2472 -0.4314
  189SAPI   C2221716   2.126   3.921   5.957 -0.4999  0.4310 -0.5779
  189SAPI   H2R21717   2.100   3.834   5.893  0.2825 -0.3669  0.1690
  189SAPI   H2S21718   2.086   3.896   6.057  1.4774  0.7566  0.3583
  189SAPI    C321719   2.513   3.679   5.974  0.0520 -0.9645 -0.4177
  189SAPI    HX21720   2.456   3.596   6.020 -0.2248 -0.6977 -0.2745
  189SAPI    HY21721   2.619   3.669   6.006 -0.0760  0.8093  0.6853
  189SAPI   O3121722   2.511   3.668   5.832  0.6623 -0.5303  0.3537
  189SAPI   C3121723   2.604   3.737   5.764  0.2787 -0.7060 -0.4432
  189SAPI   O3221724   2.684   3.816   5.810  0.2841  0.0367 -0.2161
  189SAPI   C3221725   2.588   3.719   5.618  0.2628  0.1012 -0.0623
  189SAPI   H2X21726   2.660   3.788   5.570 -0.7029  0.9192 -0.3777
  189SAPI   H2Y21727   2.487   3.747   5.580 -0.0604 -0.9563 -0.0120
  189SAPI   C2321728   2.066   4.056   5.909 -0.0633 -0.0967 -0.6994
  189SAPI   H3R21729   2.071   4.134   5.988 -0.3991  0.5749 -1.3282
  189SAPI   H3S21730   1.957   4.037   5.893  0.3614 -2.4915 -1.0434
  189SAPI   C2421731   2.124   4.113   5.776  0.6834 -0.7694 -0.4240
  189SAPI   H4R21732   2.219   4.169   5.794 -0.2236  0.5540  0.4103
  189SAPI   H4S21733   2.054   4.182   5.724  0.4380 -0.8877 -0.2520
  189SAPI   C2521734   2.140   4.004   5.670 -0.2103 -0.5497 -0.2634
  189SAPI   H5R21735   2.048   3.953   5.635 -0.9362  0.2911  0.3655
  189SAPI   C2621736   2.255   3.978   5.608 -0.3280  0.0519  0.2399
  189SAPI   H6R21737   2.250   3.889   5.544 -0.8245 -0.5528  1.1010
  189SAPI   C2721738   2.391   4.034   5.635 -0.0005  0.1446  0.0677
  189SAPI   H7R21739   2.432   3.977   5.720  1.2526  1.5010  0.4114
  189SAPI   H7S21740   2.376   4.140   5.668 -0.0068  0.4198 -0.7984
  189SAPI   C2821741   2.481   4.024   5.520  0.3671 -0.0306 -0.1455
  189SAPI   H8R21742   2.433   3.994   5.426 -1.0115 -0.9050  0.8033
  189SAPI   C2921743   2.608   4.069   5.502 -0.5202  0.0541 -0.3283
  189SAPI   H9R21744   2.663   4.043   5.410  0.0481 -1.4886  0.4278
  189SAPI  C21021745   2.695   4.119   5.619  0.4163  0.0103 -0.1978
  189SAPI  H10R21746   2.796   4.131   5.576  0.5917  1.1916  0.4921
  189SAPI  H10S21747   2.696   4.038   5.695 -0.1621  0.6398  0.5002
  189SAPI  C21121748   2.667   4.255   5.675  0.5103 -0.4548  0.2613
  189SAPI  H11R21749   2.612   4.248   5.771 -0.0868 -0.9773 -0.1095
  189SAPI  C21221750   2.698   4.376   5.629  0.2808 -0.4143 -0.0327
  189SAPI  H12R21751   2.674   4.463   5.693 -0.3885 -1.3872  1.0699
  189SAPI  C21321752   2.757   4.399   5.492  1.1589 -0.6595 -0.2670
  189SAPI  H13R21753   2.811   4.305   5.467  0.5640 -1.7201  2.1616
  189SAPI  H13S21754   2.823   4.488   5.497  0.9436 -0.5665  2.0817
  189SAPI  C21421755   2.655   4.423   5.382 -0.4022  0.0025 -0.7188
  189SAPI  H14R21756   2.553   4.409   5.419 -0.0279 -0.6575  0.1018
  189SAPI  C21521757   2.688   4.450   5.257  0.3741 -0.7488 -0.0598
  189SAPI  H15R21758   2.605   4.478   5.192 -0.2399 -0.0538  0.9950
  189SAPI  C21621759   2.826   4.469   5.193 -0.0994 -0.1893 -0.1857
  189SAPI  H16R21760   2.882   4.374   5.194 -0.5036 -0.4803 -2.0314
  189SAPI  H16S21761   2.884   4.536   5.260 -1.9511  0.3473  0.9752
  189SAPI  C21721762   2.819   4.518   5.047 -0.4310  0.4414 -0.8938
  189SAPI  H17R21763   2.920   4.544   5.009 -1.2549  2.3260 -1.9088
  189SAPI  H17S21764   2.757   4.610   5.035 -0.5871  0.2289 -1.7642
  189SAPI  C21821765   2.768   4.398   4.962 -0.2694 -0.0817  0.2814
  189SAPI  H18R21766   2.657   4.393   4.969 -0.5568  2.0124 -1.7508
  189SAPI  H18S21767   2.815   4.303   4.995  0.5880 -0.8512 -2.8375
  189SAPI  C21921768   2.801   4.423   4.816 -0.0288 -0.0639 -0.4541
  189SAPI  H19R21769   2.907   4.457   4.807 -0.0408  1.1958  2.8259
  189SAPI  H19S21770   2.743   4.512   4.783 -0.4558 -0.4654 -0.7836
  189SAPI  C22021771   2.750   4.317   4.720 -0.1326  0.1284  0.7944
  189SAPI  H20R21772   2.815   4.229   4.736  1.2189  0.4660 -2.1114
  189SAPI  H20S21773   2.763   4.350   4.614  2.1847  1.8480  1.5515
  189SAPI  H20T21774   2.645   4.288   4.744 -0.8238  0.5259 -1.4152
  189SAPI   C3321775   2.626   3.576   5.584 -0.0489 -0.5067  0.1089
  189SAPI   H3X21776   2.572   3.501   5.644  1.2702  0.7318  3.0159
  189SAPI   H3Y21777   2.736   3.564   5.595  0.1761 -0.4133 -1.7341
  189SAPI   C3421778   2.601   3.542   5.438 -0.4058 -0.3799 -0.2403
  189SAPI   H4X21779   2.504   3.489   5.429  0.9805 -2.9979 -0.7612
  189SAPI   H4Y21780   2.681   3.478   5.396 -0.4263  0.5951 -1.8330
  189SAPI   C3521781   2.588   3.657   5.339  0.2826  0.3960 -0.4892
  189SAPI   H5X21782   2.688   3.706   5.333  1.0723 -1.2796 -1.7513
  189SAPI   H5Y21783   2.510   3.727   5.377  0.2140  0.7027 -1.1819
  189SAPI   C3621784   2.530   3.622   5.198  0.3651 -1.0421 -0.8300
  189SAPI   H6X21785   2.450   3.687   5.159  0.3521 -0.2592  0.4577
  189SAPI   H6Y21786   2.489   3.519   5.194 -0.1856 -0.9054  0.7652
  189SAPI   C3721787   2.650   3.631   5.098  0.8161 -0.8573  0.1552
  189SAPI   H7X21788   2.735   3.576   5.145  1.5715  1.3493  1.5077
  189SAPI   H7Y21789   2.684   3.737   5.106 -3.4142  0.6047  1.2416
  189SAPI   C3821790   2.613   3.582   4.959  0.1723 -0.4686 -0.2448
  189SAPI   H8X21791   2.504   3.586   4.940 -0.1422 -3.8924  0.2095
  189SAPI   H8Y21792   2.651   3.479   4.947  1.2993  0.0302 -1.1574
  189SAPI   C3921793   2.680   3.649   4.843 -1.3267 -0.4757  0.4137
  189SAPI   H9X21794   2.789   3.641   4.857 -0.8905  3.6277  0.6153
  189SAPI   H9Y21795   2.662   3.759   4.849 -0.2749 -0.3457  1.4937
  189SAPI  C31021796   2.650   3.591   4.709  0.0064  0.1094 -0.0905
  189SAPI  H10X21797   2.544   3.618   4.688  0.3646  0.6535 -1.2511
  189SAPI  H10Y21798   2.662   3.481   4.704 -0.6677  0.0140  0.1954
  189SAPI  C31121799   2.725   3.664   4.600 -0.5857 -0.2680 -0.1836
  189SAPI  H11X21800   2.833   3.661   4.627 -0.7106  0.8275  0.5308
  189SAPI  H11Y21801   2.696   3.771   4.605  0.8176  0.0927  2.6501
  189SAPI  C31221802   2.718   3.601   4.462  0.8041  0.7852 -0.2953
  189SAPI  H12X21803   2.760   3.499   4.477 -1.5848 -0.0735  1.0186
  189SAPI  H12Y21804   2.788   3.649   4.390  1.5893 -1.0825 -0.8562
  189SAPI  C31321805   2.574   3.588   4.400  0.0906 -0.1931 -0.0996
  189SAPI  H13X21806   2.562   3.673   4.330  1.3215 -0.1634 -0.2899
  189SAPI  H13Y21807   2.501   3.570   4.482  1.1300 -1.4098  0.5766
  189SAPI  C31421808   2.557   3.468   4.307 -0.3276 -0.2009 -0.2661
  189SAPI  H14X21809   2.454   3.460   4.267 -0.7292 -0.8938  0.8496
  189SAPI  H14Y21810   2.557   3.381   4.376  0.0882  0.7455  0.9621
  189SAPI  C31521811   2.663   3.447   4.201  0.3777 -0.0184 -0.1456
  189SAPI  H15X21812   2.668   3.341   4.167  0.3827  0.4218 -1.5544
  189SAPI  H15Y21813   2.760   3.468   4.251  0.1266 -1.3316  0.9737
  189SAPI  C31621814   2.648   3.530   4.073 -0.6123 -0.9529  0.5399
  189SAPI  H16X21815   2.743   3.518   4.016 -0.9693 -2.4625  0.2276
  189SAPI  H16Y21816   2.652   3.639   4.095  0.5472 -0.4518 -1.8021
  189SAPI  C31721817   2.536   3.495   3.982  0.0449 -0.7445 -0.3985
  189SAPI  H17X21818   2.546   3.541   3.881  1.5911 -0.7097 -0.2459
  189SAPI  H17Y21819   2.441   3.541   4.016 -0.4125 -0.7945 -1.5601
  189SAPI  C31821820   2.518   3.353   3.950  0.3722 -0.0199 -0.2189
  189SAPI  H18X21821   2.446   3.326   3.869  0.5310  1.0238 -0.7307
  189SAPI  H18Y21822   2.476   3.306   4.042  3.6763  0.6552  1.7831
  189SAPI  H18Z21823   2.617   3.308   3.927  1.0808  1.5519 -0.3408
  190SAPI   C1221824   2.431   2.125   6.604  0.8412 -0.5736 -0.8046
  190SAPI    H221825   2.351   2.171   6.542  0.9761  0.0079 -0.5501
  190SAPI    O221826   2.539   2.094   6.520 -0.5043 -0.3245 -0.3016
  190SAPI   HO221827   2.524   2.001   6.504 -1.8465  0.0005 -1.1464
  190SAPI   C1321828   2.461   2.209   6.725 -0.3094 -0.5642  0.8093
  190SAPI    H321829   2.362   2.226   6.773 -0.6529  1.5721 -0.5187
  190SAPI    O321830   2.491   2.349   6.690  0.1817  0.1567 -0.3399
  190SAPI   HO321831   2.583   2.353   6.662 -0.3040  0.2943 -2.0341
  190SAPI   C1421832   2.563   2.148   6.823  0.2634  0.0919  0.0147
  190SAPI    H421833   2.653   2.144   6.757  0.7417 -0.1126  0.6699
  190SAPI    O421834   2.593   2.219   6.938  0.3331  0.7691  0.2661
  190SAPI   HO421835   2.508   2.231   6.983 -0.0237  0.7568 -0.3989
  190SAPI   C1521836   2.532   2.000   6.855  0.3746 -0.2782 -0.2886
  190SAPI    H521837   2.459   2.005   6.938  1.4509  0.7288  0.6262
  190SAPI    O521838   2.655   1.934   6.896 -0.1196 -0.0323 -0.5115
  190SAPI   HO521839   2.649   1.890   6.982  0.9976  2.7324  1.1212
  190SAPI   C1621840   2.464   1.923   6.747 -0.2888  0.8679  0.4553
  190SAPI    H621841   2.542   1.883   6.679 -0.7133 -0.2595  0.6100
  190SAPI    O621842   2.411   1.800   6.787 -0.8273  0.4798 -0.2525
  190SAPI   HO621843   2.394   1.811   6.881  0.1957  0.6881 -0.0863
  190SAPI   C1121844   2.369   1.996   6.651  0.5245 -0.9526 -0.1698
  190SAPI    H121845   2.286   2.016   6.721  1.3208 -1.1603  0.8556
  190SAPI     P21846   2.166   1.880   6.516  0.0634 -0.2168 -0.3726
  190SAPI   O1321847   2.075   1.984   6.568  0.1057  0.4299  0.2400
  190SAPI   O1421848   2.137   1.739   6.548  0.4008  0.9054  0.1768
  190SAPI   O1221849   2.324   1.911   6.540 -0.1878  0.2354 -1.1758
  190SAPI   O1121850   2.157   1.899   6.364 -0.0681  0.2604 -0.1711
  190SAPI    C121851   2.240   1.974   6.280 -0.7430 -0.5967  0.3323
  190SAPI    HA21852   2.236   2.080   6.312  1.7432 -1.2035  3.2127
  190SAPI    HB21853   2.346   1.941   6.278 -0.3416  0.5971  0.9248
  190SAPI    C221854   2.190   1.953   6.132 -0.2222 -0.2264 -0.4910
  190SAPI    HS21855   2.079   1.952   6.136 -0.2353  0.4009 -0.5930
  190SAPI   O2121856   2.239   1.827   6.083  0.2562 -0.0886  0.0281
  190SAPI   C2121857   2.162   1.775   5.991  0.4539 -0.2123 -0.0469
  190SAPI   O2221858   2.042   1.801   5.967  0.2697 -0.0700 -0.5672
  190SAPI   C2221859   2.249   1.668   5.925  0.5778  0.2774 -0.8230
  190SAPI   H2R21860   2.287   1.597   6.002 -1.5521  0.1774  0.2069
  190SAPI   H2S21861   2.174   1.619   5.858 -0.6230 -1.5466  1.6867
  190SAPI    C321862   2.235   2.064   6.039  0.4186 -0.4093  0.1600
  190SAPI    HX21863   2.346   2.056   6.041  0.4081 -0.6822 -0.4470
  190SAPI    HY21864   2.196   2.161   6.077 -0.8222 -0.5192 -0.8172
  190SAPI   O3121865   2.194   2.052   5.904  0.0155 -0.0541  0.2680
  190SAPI   C3121866   2.068   2.098   5.890 -0.3090  0.3042  0.2234
  190SAPI   O3221867   1.999   2.147   5.974  0.1806 -0.0922 -0.2779
  190SAPI   C3221868   2.032   2.107   5.742 -0.2490  0.2624  0.2003
  190SAPI   H2X21869   1.983   2.012   5.711 -0.4959  1.0066 -1.8245
  190SAPI   H2Y21870   2.127   2.112   5.684  0.0840 -1.7572  0.4962
  190SAPI   C2321871   2.376   1.732   5.862  0.0462 -0.5986  0.3906
  190SAPI   H3R21872   2.461   1.660   5.865  0.6893  0.1547  0.7789
  190SAPI   H3S21873   2.418   1.812   5.928  2.2767 -0.4527 -1.0829
  190SAPI   C2421874   2.344   1.772   5.719  0.1235 -0.4781  0.2462
  190SAPI   H4R21875   2.268   1.853   5.713  1.3085  0.5820 -1.1900
  190SAPI   H4S21876   2.295   1.688   5.666  0.0143  0.9089 -1.9751
  190SAPI   C2521877   2.470   1.799   5.637  0.7628  0.4039  0.4026
  190SAPI   H5R21878   2.562   1.805   5.697  0.3329 -1.5469  1.3418
  190SAPI   C2621879   2.469   1.824   5.512  0.0422  0.5423  0.7554
  190SAPI   H6R21880   2.570   1.823   5.468  0.4809  0.2277  1.7402
  190SAPI   C2721881   2.351   1.842   5.412 -1.0399 -0.0884 -0.9839
  190SAPI   H7R21882   2.256   1.819   5.465  0.1033 -0.2576  1.1071
  190SAPI   H7S21883   2.362   1.755   5.344  2.0968 -1.2941  0.8838
  190SAPI   C2821884   2.336   1.984   5.356  0.3994 -0.3155 -0.5178
  190SAPI   H8R21885   2.275   2.055   5.413 -0.4344 -2.5915  1.5868
  190SAPI   C2921886   2.374   2.023   5.232 -0.6160 -0.2113 -0.5366
  190SAPI   H9R21887   2.357   2.127   5.200 -0.1374  0.0364 -0.0035
  190SAPI  C21021888   2.440   1.943   5.122 -0.1039  0.0822 -1.0523
  190SAPI  H10R21889   2.530   1.887   5.157  0.8961  1.9340 -0.5699
  190SAPI  H10S21890   2.477   2.012   5.044 -0.3715  0.9695 -0.4116
  190SAPI  C21121891   2.339   1.852   5.055  0.4426 -0.7746 -0.4667
  190SAPI  H11R21892   2.273   1.802   5.127 -0.4930  0.4337 -0.4606
  190SAPI  C21221893   2.341   1.810   4.928  1.0262  0.6490 -0.0349
  190SAPI  H12R21894   2.261   1.740   4.898  1.1556  0.3970  0.1939
  190SAPI  C21321895   2.442   1.822   4.813 -0.3284  0.0941 -0.0359
  190SAPI  H13R21896   2.388   1.857   4.722 -1.4790 -2.0581 -0.2455
  190SAPI  H13S21897   2.477   1.724   4.775  2.1021  1.2249 -0.9265
  190SAPI  C21421898   2.580   1.880   4.827  0.4651 -0.0800  0.8214
  190SAPI  H14R21899   2.653   1.802   4.852  0.7534 -0.9932 -2.3697
  190SAPI  C21521900   2.610   2.011   4.805 -0.5998  0.0597  0.5505
  190SAPI  H15R21901   2.715   2.038   4.825 -0.0237 -1.3665 -0.4235
  190SAPI  C21621902   2.525   2.126   4.767  0.1736 -0.5387 -0.0552
  190SAPI  H16R21903   2.507   2.193   4.854 -0.7610 -1.9349  0.8635
  190SAPI  H16S21904   2.426   2.103   4.723  0.6751 -1.3138 -0.8242
  190SAPI  C21721905   2.594   2.213   4.669 -0.4600  0.0648  0.0282
  190SAPI  H17R21906   2.696   2.239   4.705  0.0525 -1.6042 -0.1180
  190SAPI  H17S21907   2.537   2.309   4.664 -0.1822  0.2962  1.1130
  190SAPI  C21821908   2.596   2.150   4.527  0.2410 -0.2705  0.3763
  190SAPI  H18R21909   2.493   2.153   4.485  1.2639  3.6296 -2.4311
  190SAPI  H18S21910   2.630   2.045   4.516 -1.9569 -0.8864 -1.3672
  190SAPI  C21921911   2.696   2.227   4.428 -0.0033 -0.0198  0.1180
  190SAPI  H19R21912   2.801   2.194   4.445  0.0321  0.8234  1.6953
  190SAPI  H19S21913   2.686   2.335   4.453 -2.9653 -0.3562  0.7576
  190SAPI  C22021914   2.659   2.204   4.283  0.5031 -0.4609  0.6812
  190SAPI  H20R21915   2.549   2.207   4.268  0.1298  0.8035  3.1378
  190SAPI  H20S21916   2.681   2.099   4.252  0.3291 -0.6444  1.1637
  190SAPI  H20T21917   2.697   2.282   4.214 -0.4684 -1.6112 -1.2379
  190SAPI   C3321918   1.936   2.225   5.697  0.3379  0.3348 -0.4890
  190SAPI   H3X21919   1.956   2.318   5.756 -1.1836 -0.3360  1.1882
  190SAPI   H3Y21920   1.832   2.199   5.728  0.0687 -1.6071 -2.7515
  190SAPI   C3421921   1.933   2.258   5.541  0.0465 -0.3608 -0.0892
  190SAPI   H4X21922   1.856   2.338   5.543 -1.9480 -2.2051 -0.0215
  190SAPI   H4Y21923   1.891   2.177   5.478  0.7744 -0.4080 -0.5159
  190SAPI   C3521924   2.069   2.310   5.493  0.8913  0.4483  0.0726
  190SAPI   H5X21925   2.150   2.234   5.489 -0.5892 -1.2137  0.6991
  190SAPI   H5Y21926   2.097   2.379   5.576 -2.5404 -0.3644  2.1220
  190SAPI   C3621927   2.055   2.380   5.361 -0.7659  0.2644  0.1444
  190SAPI   H6X21928   2.135   2.456   5.351 -0.2483 -0.4638 -1.7597
  190SAPI   H6Y21929   1.961   2.437   5.348 -1.8469 -1.6152 -0.6571
  190SAPI   C3721930   2.089   2.290   5.242 -0.4500 -1.0581  0.1114
  190SAPI   H7X21931   2.032   2.200   5.210 -1.8182  0.3530 -1.6763
  190SAPI   H7Y21932   2.190   2.248   5.263 -1.0326 -1.4600  2.3538
  190SAPI   C3821933   2.113   2.361   5.105 -0.5453 -0.4401 -0.2271
  190SAPI   H8X21934   2.208   2.418   5.095  2.1179 -3.7662  3.1503
  190SAPI   H8Y21935   2.035   2.439   5.089  1.4371  1.3502 -1.6836
  190SAPI   C3921936   2.097   2.265   4.983  0.0679 -0.1379  0.5511
  190SAPI   H9X21937   2.000   2.211   4.990  0.3917 -0.6859  0.8296
  190SAPI   H9Y21938   2.180   2.194   5.001 -0.7631 -1.5162 -0.8090
  190SAPI  C31021939   2.112   2.343   4.848 -0.4162 -1.0978 -0.5203
  190SAPI  H10X21940   2.218   2.371   4.829 -1.1800  1.4340 -1.3655
  190SAPI  H10Y21941   2.049   2.434   4.838 -1.3923 -1.8864 -1.9429
  190SAPI  C31121942   2.064   2.252   4.731 -0.4719  0.1004 -0.5236
  190SAPI  H11X21943   1.966   2.205   4.756 -0.7755 -0.6601 -2.8643
  190SAPI  H11Y21944   2.137   2.170   4.717 -2.1444 -1.2402 -1.8393
  190SAPI  C31221945   2.028   2.330   4.601  0.4405  0.6961  0.2172
  190SAPI  H12X21946   1.950   2.407   4.618  0.8242  1.1263  0.0588
  190SAPI  H12Y21947   1.989   2.255   4.528 -1.4041  1.3416  0.4841
  190SAPI  C31321948   2.135   2.411   4.535  0.3684 -0.1028 -0.2737
  190SAPI  H13X21949   2.216   2.351   4.488  2.5462  3.0217 -0.8156
  190SAPI  H13Y21950   2.160   2.486   4.614 -0.6749  1.3276 -1.2483
  190SAPI  C31421951   2.079   2.496   4.417  0.3052  0.3951 -0.4742
  190SAPI  H14X21952   2.001   2.570   4.446  1.2331  1.5248 -0.8198
  190SAPI  H14Y21953   2.027   2.422   4.352 -1.9256 -1.5976  3.2120
  190SAPI  C31521954   2.191   2.584   4.350 -0.2137 -0.0663 -0.2793
  190SAPI  H15X21955   2.221   2.660   4.425  1.4149  0.4691 -1.4078
  190SAPI  H15Y21956   2.153   2.637   4.260 -0.9963  1.5415  0.9596
  190SAPI  C31621957   2.313   2.499   4.300 -0.5407  0.2430  0.0815
  190SAPI  H16X21958   2.281   2.421   4.228  0.5663  1.4613 -1.8026
  190SAPI  H16Y21959   2.371   2.448   4.381 -0.8288  1.6649  1.2243
  190SAPI  C31721960   2.423   2.585   4.235  0.6041 -0.3303  0.2590
  190SAPI  H17X21961   2.463   2.655   4.311 -3.4212  3.0204 -0.3426
  190SAPI  H17Y21962   2.376   2.641   4.152 -0.2021 -1.6814 -0.2246
  190SAPI  C31821963   2.537   2.510   4.170  0.5083 -0.4742  0.3147
  190SAPI  H18X21964   2.602   2.581   4.113 -0.3677 -1.3218 -1.8485
  190SAPI  H18Y21965   2.496   2.443   4.091 -1.5603  0.5384  0.4692
  190SAPI  H18Z21966   2.594   2.455   4.248  1.0301  0.6527  0.7457
  191SAPI   C1221967   4.420   6.210   1.562 -0.7689  1.0411  0.1280
  191SAPI    H221968   4.406   6.304   1.621 -2.7502  0.8500  0.0281
  191SAPI    O221969   4.449   6.256   1.431  0.1385  0.0551 -0.3727
  191SAPI   HO221970   4.533   6.302   1.442  1.3917 -2.3593  0.9626
  191SAPI   C1321971   4.532   6.130   1.609 -0.1719 -0.0997  0.0274
  191SAPI    H321972   4.501   6.072   1.699 -1.6533 -4.7528 -3.1235
  191SAPI    O321973   4.647   6.206   1.647  0.4240  0.5816 -0.2533
  191SAPI   HO321974   4.696   6.142   1.699  1.2165 -0.6600 -2.4218
  191SAPI   C1421975   4.564   6.011   1.520 -0.2690  0.7633 -0.1340
  191SAPI    H421976   4.607   6.064   1.433 -2.0518  2.6254  0.0317
  191SAPI    O421977   4.661   5.927   1.584 -0.3801  0.2579  0.6396
  191SAPI   HO421978   4.612   5.886   1.656  0.2420 -1.9835 -0.1562
  191SAPI   C1521979   4.442   5.932   1.469  0.8166  0.8870 -0.2206
  191SAPI    H521980   4.424   5.859   1.551  1.6439  1.5703  0.5776
  191SAPI    O521981   4.460   5.856   1.356  0.2556 -0.4243  0.1166
  191SAPI   HO521982   4.389   5.797   1.330  1.1886 -0.3825 -3.0237
  191SAPI   C1621983   4.314   6.010   1.466  0.1250  0.0643 -0.1230
  191SAPI    H621984   4.305   6.066   1.370 -0.2395  0.0861 -0.0762
  191SAPI    O621985   4.201   5.925   1.462 -0.2297 -0.0009  0.8096
  191SAPI   HO621986   4.141   5.949   1.391  0.6353 -1.4578 -0.4910
  191SAPI   C1121987   4.298   6.119   1.570  0.1129 -0.0588 -0.2510
  191SAPI    H121988   4.289   6.067   1.668  1.2690  1.3038  0.6302
  191SAPI     P21989   4.038   6.180   1.626  0.0677  0.0525 -0.3177
  191SAPI   O1321990   4.037   6.045   1.682 -0.2266  0.4853  0.2373
  191SAPI   O1421991   3.927   6.222   1.531 -0.1421 -0.0940  0.0945
  191SAPI   O1221992   4.184   6.203   1.553  0.4838 -0.7897 -0.5109
  191SAPI   O1121993   4.033   6.286   1.743  0.0455 -0.4785 -0.6584
  191SAPI    C121994   4.140   6.290   1.839  0.3468 -0.4310 -0.2961
  191SAPI    HA21995   4.218   6.216   1.812  0.1666 -0.1741 -1.5747
  191SAPI    HB21996   4.182   6.393   1.830 -1.2477  0.2476 -0.2984
  191SAPI    C221997   4.090   6.259   1.982  0.0120 -0.1390  0.3670
  191SAPI    HS21998   4.049   6.156   1.985 -0.1422 -0.0646  1.0807
  191SAPI   O2121999   3.995   6.360   2.013  0.5361  0.3028 -0.0115
  191SAPI   C2122000   3.901   6.326   2.097 -0.7414  0.1263  0.3625
  191SAPI   O2222001   3.888   6.218   2.156 -0.2100 -0.4124 -0.4407
  191SAPI   C2222002   3.799   6.437   2.092  0.6619  0.3954 -0.0913
  191SAPI   H2R22003   3.848   6.535   2.074  2.5848 -0.5000 -0.0424
  191SAPI   H2S22004   3.734   6.409   2.006  0.9872  0.2557 -0.2932
  191SAPI    C322005   4.203   6.265   2.089 -0.1493 -0.2028 -0.1435
  191SAPI    HX22006   4.229   6.373   2.086 -1.0409 -0.0028 -1.6331
  191SAPI    HY22007   4.294   6.213   2.053  0.2192 -0.5187  1.1683
  191SAPI   O3122008   4.167   6.225   2.223  0.3702 -0.3825 -0.3712
  191SAPI   C3122009   4.173   6.094   2.252 -0.2053  0.2195 -0.7218
  191SAPI   O3222010   4.239   6.017   2.183  0.4212  0.0805  0.0246
  191SAPI   C3222011   4.113   6.065   2.386  0.3029  0.6094  0.5599
  191SAPI   H2X22012   4.024   6.130   2.378  0.6068  1.0476  0.7053
  191SAPI   H2Y22013   4.185   6.093   2.467  0.6020 -1.0913  0.9279
  191SAPI   C2322014   3.726   6.448   2.228  0.2265 -0.1669 -0.7793
  191SAPI   H3R22015   3.683   6.353   2.265 -0.0579  0.1168 -0.3741
  191SAPI   H3S22016   3.641   6.519   2.226  0.2775 -0.1075 -2.3969
  191SAPI   C2422017   3.815   6.504   2.343 -0.2324  0.4711 -0.0032
  191SAPI   H4R22018   3.838   6.608   2.310 -0.1058  0.4968  0.1618
  191SAPI   H4S22019   3.908   6.443   2.348 -0.4700  0.2015  3.2246
  191SAPI   C2522020   3.754   6.496   2.478  0.1697 -0.4465 -0.8938
  191SAPI   H5R22021   3.650   6.531   2.481  0.0855 -0.7177 -0.6223
  191SAPI   C2622022   3.809   6.452   2.595  0.4269 -0.2912 -0.3123
  191SAPI   H6R22023   3.743   6.440   2.682  0.8803  0.2767  0.1113
  191SAPI   C2722024   3.947   6.399   2.622 -0.1297  0.1969  0.2190
  191SAPI   H7R22025   3.991   6.362   2.528  2.3657 -1.6204  1.9591
  191SAPI   H7S22026   3.926   6.306   2.680  2.0824 -0.8248 -0.5040
  191SAPI   C2822027   4.029   6.495   2.707 -0.2661 -0.6384  0.4588
  191SAPI   H8R22028   4.068   6.578   2.645 -0.7729 -1.2045 -0.6575
  191SAPI   C2922029   4.059   6.507   2.835 -0.5989  0.0541 -0.3265
  191SAPI   H9R22030   4.129   6.585   2.866  1.4775 -0.0620 -4.0619
  191SAPI  C21022031   4.005   6.416   2.947  0.1600  0.0104 -0.1816
  191SAPI  H10R22032   4.081   6.386   3.022  1.2270 -1.9090 -1.9228
  191SAPI  H10S22033   3.973   6.317   2.907 -1.4622  0.7598 -0.8643
  191SAPI  C21122034   3.881   6.465   3.020  0.6125  0.5933  0.0155
  191SAPI  H11R22035   3.811   6.517   2.954  0.1911 -1.2294 -1.0438
  191SAPI  C21222036   3.850   6.445   3.151 -0.0452  0.0947  0.5218
  191SAPI  H12R22037   3.769   6.508   3.190 -0.0514  1.5239 -1.6466
  191SAPI  C21322038   3.931   6.371   3.255  0.2409 -0.6099 -0.3510
  191SAPI  H13R22039   3.998   6.451   3.296 -1.4855  1.5363 -1.5354
  191SAPI  H13S22040   3.994   6.290   3.213  1.7518  1.3521 -2.1029
  191SAPI  C21422041   3.840   6.325   3.364 -0.0640 -0.6933  0.4644
  191SAPI  H14R22042   3.741   6.288   3.332 -0.7701  1.5866 -0.1958
  191SAPI  C21522043   3.854   6.329   3.499  0.4521 -0.1681  0.5343
  191SAPI  H15R22044   3.766   6.297   3.557  0.5351 -0.0063  0.7498
  191SAPI  C21622045   3.976   6.373   3.581  0.0050 -0.4133  1.6074
  191SAPI  H16R22046   4.058   6.386   3.507 -2.5755  0.5496 -1.2582
  191SAPI  H16S22047   4.006   6.289   3.648 -1.4322 -0.0699  2.7328
  191SAPI  C21722048   3.955   6.494   3.667 -0.0567  0.2663  0.6249
  191SAPI  H17R22049   3.959   6.583   3.600  1.3484 -0.6468 -0.5719
  191SAPI  H17S22050   4.050   6.492   3.726  1.2133 -1.6698 -1.2983
  191SAPI  C21822051   3.835   6.482   3.771  0.6909 -0.8380  0.5447
  191SAPI  H18R22052   3.856   6.398   3.840 -0.0675 -0.8403  0.7892
  191SAPI  H18S22053   3.734   6.460   3.729  0.1989  1.5010  0.3513
  191SAPI  C21922054   3.838   6.615   3.848  0.4408  0.0962 -0.7994
  191SAPI  H19R22055   3.853   6.693   3.771 -1.7916  1.8772  0.4499
  191SAPI  H19S22056   3.920   6.625   3.923 -0.0972  0.1945 -0.2209
  191SAPI  C22022057   3.706   6.634   3.917 -1.0829 -1.0499  0.0584
  191SAPI  H20R22058   3.707   6.736   3.960  1.0040 -0.7650 -0.5727
  191SAPI  H20S22059   3.691   6.566   4.004 -1.4446 -0.2441  0.6292
  191SAPI  H20T22060   3.611   6.620   3.861 -2.2378  0.5844  1.5044
  191SAPI   C3322061   4.064   5.920   2.409 -0.0166 -0.3750  0.4874
  191SAPI   H3X22062   4.152   5.853   2.410 -0.1128 -0.4969  0.9705
  191SAPI   H3Y22063   3.991   5.906   2.326 -0.0061  3.6881 -0.4171
  191SAPI   C3422064   3.978   5.902   2.539  0.4054 -0.3430 -0.0743
  191SAPI   H4X22065   3.950   5.796   2.556  0.4814 -0.5616 -1.2389
  191SAPI   H4Y22066   3.886   5.963   2.531  0.2522  0.2745  4.0261
  191SAPI   C3522067   4.055   5.943   2.664 -0.5710 -0.6864 -0.3411
  191SAPI   H5X22068   4.090   6.048   2.653 -1.3729 -0.3275  0.3730
  191SAPI   H5Y22069   4.148   5.884   2.673  0.3955  1.0681  2.8259
  191SAPI   C3622070   3.974   5.941   2.796  0.9489 -0.2310  0.1029
  191SAPI   H6X22071   3.917   5.847   2.809  0.5688  0.0013  0.1454
  191SAPI   H6Y22072   3.907   6.030   2.801  1.7498  0.4031 -0.0982
  191SAPI   C3722073   4.068   5.964   2.911  0.4485 -0.1385  0.0298
  191SAPI   H7X22074   4.128   6.057   2.905  0.0766  0.1539  0.8042
  191SAPI   H7Y22075   4.139   5.879   2.923  1.7064  0.4893 -2.3536
  191SAPI   C3822076   3.988   5.975   3.038 -0.1938  0.1653  0.0394
  191SAPI   H8X22077   3.919   5.892   3.064  0.9491 -0.1314  2.3285
  191SAPI   H8Y22078   3.923   6.064   3.025  0.5282  0.8633  1.1345
  191SAPI   C3922079   4.072   5.995   3.156 -0.0288 -0.0404 -0.6629
  191SAPI   H9X22080   4.113   6.098   3.143 -1.7707  0.4913 -2.6859
  191SAPI   H9Y22081   4.155   5.923   3.159 -1.3629 -1.6629 -1.2416
  191SAPI  C31022082   4.006   5.975   3.288 -1.0339  0.0613 -0.1491
  191SAPI  H10X22083   3.947   5.881   3.287 -2.6128  1.0119 -1.3205
  191SAPI  H10Y22084   3.937   6.060   3.308 -2.1962 -1.1991  1.3561
  191SAPI  C31122085   4.103   5.970   3.411  0.3653  0.5783 -0.0049
  191SAPI  H11X22086   4.161   6.065   3.405 -0.9186  1.2949 -1.9469
  191SAPI  H11Y22087   4.183   5.895   3.394  1.5771  1.9969 -0.8486
  191SAPI  C31222088   4.026   5.958   3.545  0.0668 -0.0259  0.5303
  191SAPI  H12X22089   3.997   5.851   3.554  1.9444 -0.5877  0.4822
  191SAPI  H12Y22090   3.944   6.032   3.556  2.0621  2.1856  1.5452
  191SAPI  C31322091   4.112   5.992   3.667 -0.5268  0.0398  0.3716
  191SAPI  H13X22092   4.166   6.088   3.654 -1.8776  0.8658  0.6378
  191SAPI  H13Y22093   4.195   5.919   3.672  0.2297  0.9427  1.9008
  191SAPI  C31422094   4.030   5.997   3.796  0.1809 -0.2266  0.4983
  191SAPI  H14X22095   3.956   5.917   3.817 -0.8690  1.2129  2.7901
  191SAPI  H14Y22096   3.964   6.087   3.789  0.9086  0.4346  1.7267
  191SAPI  C31522097   4.122   6.010   3.916  0.0604  0.3575 -0.2439
  191SAPI  H15X22098   4.203   6.078   3.883 -0.5343  1.1236 -0.1504
  191SAPI  H15Y22099   4.169   5.913   3.941 -2.0826 -0.7096 -0.1658
  191SAPI  C31622100   4.052   6.057   4.047  0.0653 -0.0369 -0.3644
  191SAPI  H16X22101   4.109   6.064   4.142 -0.5316  2.1983 -0.1221
  191SAPI  H16Y22102   3.973   5.983   4.073  2.6163 -2.1086  2.2564
  191SAPI  C31722103   3.983   6.200   4.040  0.2118 -0.8074 -0.0067
  191SAPI  H17X22104   3.929   6.205   3.943  0.8501 -0.1694 -0.3401
  191SAPI  H17Y22105   4.068   6.271   4.035 -1.0407  0.8806  1.3971
  191SAPI  C31822106   3.899   6.229   4.168  0.3950 -0.0074 -0.2678
  191SAPI  H18X22107   3.819   6.153   4.176 -0.2179  0.3006 -2.7505
  191SAPI  H18Y22108   3.862   6.334   4.161 -0.8475 -0.3764  0.5547
  191SAPI  H18Z22109   3.964   6.206   4.255  0.2774 -1.7917 -0.6179
  192SAPI   C1222110   0.832   5.161   2.071 -0.1606  0.0896  0.3043
  192SAPI    H222111   0.807   5.260   2.115 -0.5360 -0.4144  1.2440
  192SAPI    O222112   0.736   5.133   1.973  0.1053  0.1935  0.1627
  192SAPI   HO222113   0.655   5.151   2.022  1.2302  1.6494  1.6038
  192SAPI   C1322114   0.973   5.173   2.018  0.0464 -0.5184 -0.2412
  192SAPI    H322115   1.034   5.190   2.109 -0.6921 -0.6710  0.2952
  192SAPI    O322116   0.987   5.285   1.935  0.1776 -0.5144 -0.4642
  192SAPI   HO322117   1.069   5.331   1.952  0.1554 -1.2361  1.9740
  192SAPI   C1422118   1.011   5.047   1.952 -0.1787 -0.2844 -0.3494
  192SAPI    H422119   0.957   5.040   1.855  1.2905 -2.1075 -1.1103
  192SAPI    O422120   1.149   5.041   1.931  0.4058  0.3842  0.5915
  192SAPI   HO422121   1.162   5.004   1.843 -2.3553  1.5549 -0.4165
  192SAPI   C1522122   0.960   4.915   2.020  0.3526 -0.2415 -0.7480
  192SAPI    H522123   1.040   4.886   2.091 -0.8052  0.1970  0.7913
  192SAPI    O522124   0.952   4.813   1.928  0.1119 -0.1931  0.2339
  192SAPI   HO522125   1.019   4.746   1.945  0.4595  0.6112  2.3486
  192SAPI   C1622126   0.843   4.924   2.125 -0.6196  0.1119  0.8397
  192SAPI    H622127   0.750   4.901   2.069 -0.4397 -0.6330  0.8410
  192SAPI    O622128   0.845   4.821   2.222  0.1828  0.3370  0.3660
  192SAPI   HO622129   0.775   4.760   2.197  0.0260  0.0868  1.3780
  192SAPI   C1122130   0.821   5.063   2.183 -0.3749 -0.4455 -0.1514
  192SAPI    H122131   0.911   5.080   2.244 -0.3077  1.9353 -0.8389
  192SAPI     P22132   0.666   5.191   2.360 -0.0315 -0.3625  0.1026
  192SAPI   O1322133   0.619   5.309   2.280  0.4495 -0.0486 -0.5037
  192SAPI   O1422134   0.782   5.213   2.453  0.1528  0.4631  0.2870
  192SAPI   O1222135   0.694   5.067   2.257  0.7412  0.0316 -0.5851
  192SAPI   O1122136   0.552   5.130   2.445  0.3429 -0.3141  0.5469
  192SAPI    C122137   0.444   5.055   2.389 -1.1402 -1.0412  0.1382
  192SAPI    HA22138   0.347   5.109   2.383 -2.2324 -3.0385 -1.1426
  192SAPI    HB22139   0.461   5.028   2.283  0.6169  2.1724 -0.5523
  192SAPI    C222140   0.418   4.944   2.487  1.1478  0.4489 -0.0977
  192SAPI    HS22141   0.319   4.901   2.460  0.8528  0.7521  0.4873
  192SAPI   O2122142   0.409   5.000   2.624  0.5679  0.1479 -0.2354
  192SAPI   C2122143   0.305   5.079   2.642  0.1796  0.9438  0.4484
  192SAPI   O2222144   0.213   5.100   2.571 -0.1237 -0.1955 -0.0485
  192SAPI   C2222145   0.324   5.139   2.777 -0.0811  0.3235 -0.3486
  192SAPI   H2R22146   0.271   5.071   2.846 -2.1223  1.7926 -0.3708
  192SAPI   H2S22147   0.431   5.160   2.799 -0.1965 -0.3844  0.9483
  192SAPI    C322148   0.527   4.840   2.468  0.6611 -0.2335 -0.2795
  192SAPI    HX22149   0.624   4.891   2.484 -0.5720  1.9392  0.7005
  192SAPI    HY22150   0.532   4.798   2.365 -1.0576 -2.0880  0.3292
  192SAPI   O3122151   0.518   4.739   2.565  0.1620 -0.3219 -0.3038
  192SAPI   C3122152   0.618   4.653   2.545 -0.4054 -0.5033  0.8314
  192SAPI   O3222153   0.717   4.664   2.471  0.8054  0.2623  0.0809
  192SAPI   C3222154   0.568   4.522   2.602 -0.0272  0.5020 -0.2275
  192SAPI   H2X22155   0.602   4.448   2.526  1.6360  1.3503 -0.3567
  192SAPI   H2Y22156   0.459   4.534   2.621 -0.3083  1.4720 -2.1737
  192SAPI   C2322157   0.253   5.278   2.781  0.9588 -0.1669 -0.5042
  192SAPI   H3R22158   0.274   5.317   2.883  1.6874 -1.7318 -0.0226
  192SAPI   H3S22159   0.142   5.273   2.780  0.9555 -0.3850  0.1496
  192SAPI   C2422160   0.301   5.370   2.671 -0.0995 -0.4852 -0.1550
  192SAPI   H4R22161   0.258   5.471   2.693  1.7797  0.2857  0.1540
  192SAPI   H4S22162   0.255   5.330   2.578  0.4806 -0.3777 -0.4899
  192SAPI   C2522163   0.449   5.391   2.650 -0.0349  0.4607 -0.1986
  192SAPI   H5R22164   0.493   5.316   2.582  1.8944  0.5105  0.9287
  192SAPI   C2622165   0.525   5.495   2.692  0.5921  0.4589 -0.5677
  192SAPI   H6R22166   0.634   5.487   2.676  0.5502 -1.9156  0.0789
  192SAPI   C2722167   0.483   5.589   2.803 -0.2112 -0.5598 -0.3517
  192SAPI   H7R22168   0.490   5.544   2.905 -1.2714  1.6933  0.8049
  192SAPI   H7S22169   0.374   5.598   2.789 -0.5639 -1.6773  1.3392
  192SAPI   C2822170   0.545   5.734   2.798  0.4733 -0.1616 -0.3586
  192SAPI   H8R22171   0.583   5.777   2.704  0.0925 -1.3312 -1.0587
  192SAPI   C2922172   0.557   5.824   2.899  0.5902 -0.3261  0.5202
  192SAPI   H9R22173   0.601   5.923   2.878 -0.9920 -0.0438 -1.7862
  192SAPI  C21022174   0.518   5.795   3.042 -0.1975 -0.1608 -0.3325
  192SAPI  H10R22175   0.546   5.882   3.105 -1.3316  0.3996 -0.5985
  192SAPI  H10S22176   0.575   5.704   3.074 -0.7385 -0.5105 -0.3583
  192SAPI  C21122177   0.370   5.787   3.067 -0.2197  0.5689  0.2344
  192SAPI  H11R22178   0.311   5.815   2.978 -1.4389  2.0855  1.4641
  192SAPI  C21222179   0.294   5.743   3.171  0.3974 -1.1731 -0.1638
  192SAPI  H12R22180   0.184   5.750   3.168  0.4975  3.2950 -0.3866
  192SAPI  C21322181   0.352   5.693   3.307  0.4495  0.2060 -0.6906
  192SAPI  H13R22182   0.454   5.651   3.292  0.6829  0.7691 -0.7185
  192SAPI  H13S22183   0.293   5.600   3.320  0.8977 -0.3597 -2.3849
  192SAPI  C21422184   0.348   5.789   3.423 -0.8496 -0.0371  0.4257
  192SAPI  H14R22185   0.400   5.885   3.408  0.3326 -0.4923  1.4013
  192SAPI  C21522186   0.278   5.780   3.536  0.5404 -0.1241 -0.8438
  192SAPI  H15R22187   0.283   5.850   3.621  0.7138 -0.0047 -0.9528
  192SAPI  C21622188   0.178   5.679   3.569  0.2591 -0.6128 -0.2915
  192SAPI  H16R22189   0.178   5.584   3.511  0.1077  0.8915 -2.8665
  192SAPI  H16S22190   0.073   5.713   3.555 -0.0205 -1.7731 -1.1998
  192SAPI  C21722191   0.177   5.626   3.720  0.7238 -0.3819  0.4764
  192SAPI  H17R22192   0.278   5.647   3.762 -0.3843  5.1557  1.0497
  192SAPI  H17S22193   0.140   5.522   3.732 -0.4222  0.1438  1.7315
  192SAPI  C21822194   0.082   5.709   3.813 -0.9289  0.8443  0.2420
  192SAPI  H18R22195  -0.014   5.711   3.758 -1.2657 -1.3108  0.6726
  192SAPI  H18S22196   0.119   5.814   3.822  0.3215  0.3930  0.6654
  192SAPI  C21922197   0.039   5.648   3.953 -0.0905  0.1733  0.0002
  192SAPI  H19R22198  -0.027   5.561   3.933  2.1494 -2.0855  1.8148
  192SAPI  H19S22199  -0.028   5.721   4.003 -1.2063 -0.0678 -1.0709
  192SAPI  C22022200   0.152   5.608   4.041  0.5267  0.7478 -0.7747
  192SAPI  H20R22201   0.211   5.699   4.064 -1.4715  1.9485 -0.1347
  192SAPI  H20S22202   0.210   5.526   3.994 -0.3693 -0.2156 -0.2408
  192SAPI  H20T22203   0.114   5.565   4.136  0.9254 -1.3372 -1.4999
  192SAPI   C3322204   0.639   4.490   2.735  0.7200 -0.2323 -0.8240
  192SAPI   H3X22205   0.737   4.540   2.748  0.3730 -0.2726  3.1499
  192SAPI   H3Y22206   0.656   4.381   2.748 -0.9286 -0.5175 -0.8497
  192SAPI   C3422207   0.544   4.539   2.849  0.7745  0.5402  1.0225
  192SAPI   H4X22208   0.442   4.498   2.836  0.6394  1.2485 -0.3212
  192SAPI   H4Y22209   0.538   4.649   2.838 -1.4312  0.3621 -0.1404
  192SAPI   C3522210   0.587   4.502   2.985  0.2002  0.5349 -0.3570
  192SAPI   H5X22211   0.682   4.554   3.009  0.0426  1.0563 -0.8478
  192SAPI   H5Y22212   0.598   4.393   3.001 -0.4846  0.2775 -1.5416
  192SAPI   C3622213   0.471   4.531   3.091  0.1344  0.3095  0.3184
  192SAPI   H6X22214   0.370   4.510   3.048 -0.6085  0.8477  1.7219
  192SAPI   H6Y22215   0.472   4.640   3.110 -2.3312  0.4092  0.2088
  192SAPI   C3722216   0.501   4.461   3.229  0.0040 -0.7709 -0.3003
  192SAPI   H7X22217   0.574   4.380   3.206  0.3357 -0.2912 -0.9515
  192SAPI   H7Y22218   0.407   4.407   3.254 -0.0882 -0.4827 -0.0070
  192SAPI   C3822219   0.542   4.557   3.343  0.2035 -0.0324  0.3117
  192SAPI   H8X22220   0.464   4.635   3.359  1.0789  0.6761  1.2959
  192SAPI   H8Y22221   0.641   4.599   3.315 -0.3176  1.4853  0.6370
  192SAPI   C3922222   0.567   4.482   3.473  0.3598  0.1345  0.4852
  192SAPI   H9X22223   0.665   4.430   3.465  1.1654  1.7224 -0.9597
  192SAPI   H9Y22224   0.495   4.399   3.486 -1.1951  1.3281 -0.1165
  192SAPI  C31022225   0.567   4.562   3.608 -0.3348  0.3746 -0.4756
  192SAPI  H10X22226   0.471   4.604   3.644  0.7291  3.9585 -1.3458
  192SAPI  H10Y22227   0.642   4.644   3.608  0.3591 -0.1449  2.7017
  192SAPI  C31122228   0.621   4.455   3.714  0.1206 -0.0917 -0.7842
  192SAPI  H11X22229   0.731   4.442   3.708  0.3340  1.0233  0.2825
  192SAPI  H11Y22230   0.574   4.358   3.686 -1.2945  0.9384 -2.1717
  192SAPI  C31222231   0.584   4.493   3.859 -0.2001 -0.6654 -0.3182
  192SAPI  H12X22232   0.473   4.486   3.871 -0.3455  0.0774 -1.1145
  192SAPI  H12Y22233   0.622   4.595   3.877  0.7226 -0.5448 -2.5983
  192SAPI  C31322234   0.646   4.400   3.968  0.0383  0.0736  0.4960
  192SAPI  H13X22235   0.756   4.417   3.960 -0.2291  1.9273  0.3651
  192SAPI  H13Y22236   0.604   4.300   3.944 -0.3743  0.4125 -0.2321
  192SAPI  C31422237   0.610   4.450   4.104  0.0405  0.0669 -0.0231
  192SAPI  H14X22238   0.506   4.490   4.105 -0.0492 -0.1453 -0.8588
  192SAPI  H14Y22239   0.676   4.535   4.132 -2.2836  1.8886  0.1960
  192SAPI  C31522240   0.625   4.335   4.207  0.3286  0.3079 -0.4207
  192SAPI  H15X22241   0.734   4.314   4.210  0.7529  2.3446  1.3160
  192SAPI  H15Y22242   0.562   4.251   4.171 -1.3801  1.6441 -0.6949
  192SAPI  C31622243   0.581   4.378   4.348  0.0883 -0.2498  0.8339
  192SAPI  H16X22244   0.472   4.392   4.339 -0.3355 -2.0398  2.5640
  192SAPI  H16Y22245   0.648   4.463   4.374  1.7593 -1.1879 -0.1900
  192SAPI  C31722246   0.601   4.270   4.453 -0.2859 -0.3058  0.1020
  192SAPI  H17X22247   0.710   4.248   4.446  0.5107  2.3956  2.2057
  192SAPI  H17Y22248   0.544   4.183   4.414  1.3524 -1.1987 -0.3899
  192SAPI  C31822249   0.565   4.309   4.596 -0.3405  0.5606  0.0925
  192SAPI  H18X22250   0.597   4.220   4.655 -0.4311 -1.4138 -2.6588
  192SAPI  H18Y22251   0.455   4.325   4.590 -0.6802 -1.2426  0.8777
  192SAPI  H18Z22252   0.617   4.405   4.619 -0.7221  0.6483  0.6225
  193SOD    SOD22253   1.326   0.662   8.552  0.2025 -0.0764  0.4524
  194SOD    SOD22254   6.210   0.111   1.914  0.1684  0.1736  0.0755
  195SOD    SOD22255   4.603   2.376   1.524  0.2981 -0.3084 -0.2313
  196SOD    SOD22256   0.781   6.468   1.708  0.2780  0.6028  0.0825
  197SOD    SOD22257   6.782   0.694   6.741  0.3227  0.3401 -0.1822
  198SOD    SOD22258   6.012   0.526   7.041 -0.3571 -0.1458 -0.1339
  199SOD    SOD22259   5.122   4.098   6.502 -0.3898 -0.2768 -0.1269
  200SOD    SOD22260   5.772   3.040   7.082 -0.0336  0.1863  0.1523
  201SOD    SOD22261   4.835   4.711   8.224 -0.0545  0.3782  0.3057
  202SOD    SOD22262   3.488   3.633   1.244 -0.3168  0.5830 -0.0525
  203SOD    SOD22263   4.568   1.999   7.236  0.3321 -0.3054  0.1077
  204SOD    SOD22264   4.963   0.200   6.691 -0.1061 -0.4136  0.4478
  205SOD    SOD22265   0.878   1.241   0.503  0.2379  0.6568 -0.1184
  206SOD    SOD22266   3.296   3.276   7.833  0.1870  0.3063 -0.2196
  207SOD    SOD22267   0.345   4.540   1.206  0.3707  0.1849 -0.1101
  208SOD    SOD22268   1.611   3.752   7.917 -0.6082 -0.0689  0.4964
  209SOD    SOD22269   4.580   5.268   7.131 -0.1337 -0.1880  0.2511
  210SOD    SOD22270   2.066   0.983   7.610 -0.5567  0.3549  0.3409
  211SOD    SOD22271   0.722   5.115   1.503 -0.3073 -0.0352 -0.0097
  212SOD    SOD22272   6.098   6.708   7.641 -0.5802  0.3060 -0.2427
  213SOD    SOD22273   1.755   4.789   0.931 -0.4247 -0.3795 -0.7749
  214SOD    SOD22274   1.514   3.915   1.836 -0.2668 -0.2946  0.7543
  215SOD    SOD22275   0.321   3.926   6.585  0.3840 -0.2687 -0.1970
  216SOD    SOD22276   2.206   1.528   6.460 -0.1136  0.3294  0.4018
  217SOD    SOD22277   6.232   4.095   2.023 -0.0896 -0.1547  0.2423
  218SOD    SOD22278   4.839   6.035   0.684 -0.4026 -0.3991 -0.2989
  219SOD    SOD22279   3.902   3.680   2.396 -0.0161 -0.3030  0.1473
  220SOD    SOD22280   2.937   0.382   8.031  0.0169  0.2695  0.1409
  221SOD    SOD22281   2.270   3.737   2.013  0.5159 -0.1725 -0.2317
  222SOD    SOD22282   0.654   4.101   0.314  0.1784 -0.1533 -0.1194
  223SOD    SOD22283   3.687   5.453   0.879 -0.1225  0.3251  0.2016
  224SOD    SOD22284   3.068   0.315   7.055  0.3792 -0.3628 -0.2474
  225SOD    SOD22285   0.272   1.318   7.092  0.7084  0.0103 -0.3620
  226SOD    SOD22286   4.372   0.911   1.395  0.3840 -0.2271  0.4266
  227SOD    SOD22287   1.021   1.186   1.808 -0.1970  0.1420 -0.2939
  228SOD    SOD22288   5.227   6.770   6.291  0.2986  0.3564 -0.6895
  229SOD    SOD22289   4.625   5.537   0.881 -0.3330  0.0121  0.0579
  230SOD    SOD22290   5.080   4.447   1.483 -0.1426 -0.5049  0.3714
  231SOD    SOD22291   0.261   5.596   6.938 -0.0320 -0.1229  0.1017
  232SOD    SOD22292   5.306   2.696   1.150 -0.4958  0.4248  0.0996
  233SOD    SOD22293   2.001   2.827   8.096 -0.3153 -0.4877  0.1665
  234CLA    CLA22294   1.576   0.585   7.948  0.1820  0.1607 -0.3053
  235CLA    CLA22295   3.665   2.294   1.703 -0.0955 -0.1853  0.0708
  236CLA    CLA22296   2.101   4.665   0.704  0.0748 -0.0733 -0.1962
  237CLA    CLA22297   6.067   3.659   8.313  0.0184  0.0477  0.1168
  238CLA    CLA22298   4.047   3.103   7.410 -0.0370  0.1368 -0.0183
  239CLA    CLA22299   6.464   0.636   7.127  0.0110  0.2517  0.1490
  240CLA    CLA22300   4.426   4.689   1.119  0.1529  0.0776  0.3339
  241CLA    CLA22301   6.119   4.007   1.527  0.0143 -0.2759  0.4485
  242CLA    CLA22302   6.247   5.603   0.541  0.2155 -0.4188  0.1362
  243CLA    CLA22303   0.991   3.388   7.306 -0.1385  0.1687  0.3960
  244CLA    CLA22304   0.495   5.694   0.532  0.6999  0.3080  0.0297
  245CLA    CLA22305   3.353   5.373   7.130 -0.3401  0.1886 -0.0840
  246CLA    CLA22306   5.778   5.311   0.912 -0.0522 -0.3841 -0.0997
  247CLA    CLA22307   6.695   0.210   1.374 -0.0763  0.1686 -0.6809
  248CLA    CLA22308   3.266   0.321   7.571  0.3937 -0.2554 -0.0625
  249CLA    CLA22309   0.561   5.083   0.690  0.1320 -0.2421 -0.0557
  250CLA    CLA22310   1.481   1.968   7.330 -0.2405 -0.0786 -0.1216
  251TIP3   OH222311   3.006   2.485   0.709 -0.3903  0.2656 -0.3701
  251TIP3    H122312   2.980   2.505   0.619  1.0314  0.5494 -0.7376
  251TIP3    H222313   2.924   2.488   0.759 -1.1687  0.2991 -1.6104
  252TIP3   OH222314   5.556   0.679   1.372 -0.3425 -0.3917 -0.0576
  252TIP3    H122315   5.597   0.709   1.291 -1.2479  1.2123  0.0364
  252TIP3    H222316   5.567   0.584   1.370  0.6277 -0.2855 -1.5114
  253TIP3   OH222317   6.053   1.291   7.824 -0.3319  1.0686 -0.4304
  253TIP3    H122318   6.027   1.362   7.765  0.8692  1.0671 -0.9987
  253TIP3    H222319   6.084   1.336   7.903 -2.0082  1.0688  0.2725
  254TIP3   OH222320   0.023   6.066   0.219  0.1236 -0.2709 -0.1903
  254TIP3    H122321  -0.050   6.080   0.159 -1.2259 -2.1289  0.9036
  254TIP3    H222322   0.084   6.010   0.171 -1.0218 -1.8806  0.1561
  255TIP3   OH222323   3.073   5.661   8.448  0.4288 -0.0687  0.5315
  255TIP3    H122324   3.024   5.699   8.375 -2.4431 -0.8071  1.9046
  255TIP3    H222325   3.165   5.679   8.428 -0.2313  0.0178 -3.0600
  256TIP3   OH222326   4.435   2.078   7.421 -0.0502 -0.8414 -0.1679
  256TIP3    H122327   4.433   2.097   7.515 -1.2451  3.3957 -0.8421
  256TIP3    H222328   4.344   2.061   7.398 -0.1048  0.2635 -0.8413
  257TIP3   OH222329   5.824   5.958   8.098  0.1432 -0.4220  0.2453
  257TIP3    H122330   5.759   5.964   8.028 -0.4270 -0.2526  0.7795
  257TIP3    H222331   5.903   5.928   8.054  0.1251  0.7826 -0.6778
  258TIP3   OH222332   6.096   1.875   1.184 -0.7601 -0.0147  0.6584
  258TIP3    H122333   6.060   1.829   1.109  0.3989  0.0189  0.0621
  258TIP3    H222334   6.063   1.827   1.260 -1.6428 -0.2689  0.1261
  259TIP3   OH222335   4.565   0.822   1.491 -0.5161 -0.1279 -0.4129
  259TIP3    H122336   4.560   0.769   1.570  0.4400  0.3090 -0.0398
  259TIP3    H222337   4.648   0.870   1.500 -2.6627  3.7634  0.7342
  260TIP3   OH222338   3.683   4.078   0.602  0.0187 -0.0298 -0.3649
  260TIP3    H122339   3.701   4.147   0.539  0.8512 -0.0106 -0.1309
  260TIP3    H222340   3.734   4.103   0.680 -2.8580  1.2236  1.2595
  261TIP3   OH222341   5.061   0.396   8.206 -0.4047  0.2350  0.1658
  261TIP3    H122342   5.146   0.420   8.241 -0.7650 -0.0279  1.2590
  261TIP3    H222343   5.054   0.445   8.124  0.4419  0.8979  0.4780
  262TIP3   OH222344   0.796   3.476   7.575  0.0351  0.1604  0.3439
  262TIP3    H122345   0.832   3.429   7.500 -0.6384 -0.8603  0.6465
  262TIP3    H222346   0.702   3.484   7.556 -0.4672 -1.5996  1.8173
  263TIP3   OH222347   3.441   6.589   7.692 -0.1049 -0.2635 -0.0423
  263TIP3    H122348   3.523   6.601   7.644 -0.9224  0.4438 -1.3230
  263TIP3    H222349   3.391   6.526   7.639  0.1817 -1.8675  1.5035
  264TIP3   OH222350   5.651   4.908   7.557 -0.0456  0.4329  0.1362
  264TIP3    H122351   5.681   4.850   7.487 -1.3251  1.4395 -1.2930
  264TIP3    H222352   5.599   4.851   7.615  0.1636 -0.2015 -0.2966
  265TIP3   OH222353   4.145   5.739   8.493  0.1656 -0.4961 -0.0675
  265TIP3    H122354   4.132   5.705   8.582  0.0248  1.4741  0.7219
  265TIP3    H222355   4.057   5.743   8.456  0.1035 -0.3840  0.0884
  266TIP3   OH222356   4.622   1.934   8.641  0.1391 -0.2902  0.1879
  266TIP3    H122357   4.580   2.011   8.603 -3.7070 -2.6138 -0.8263
  266TIP3    H222358   4.713   1.939   8.611 -1.2012  1.1239 -4.5338
  267TIP3   OH222359   2.111   0.356   7.362 -0.2884  0.6508  0.3759
  267TIP3    H122360   2.191   0.337   7.313 -0.8960 -3.0146  0.5657
  267TIP3    H222361   2.140   0.411   7.435  1.9098  0.1142 -0.0177
  268TIP3   OH222362   6.212   0.286   7.684  0.6070  0.0707  0.0275
  268TIP3    H122363   6.286   0.344   7.703 -1.2689  2.6336  0.1328
  268TIP3    H222364   6.156   0.292   7.762  0.4494 -2.1962  0.1642
  269TIP3   OH222365   6.234   2.396   8.593  0.1337 -0.3268 -1.0141
  269TIP3    H122366   6.178   2.372   8.666 -1.0787 -1.9174 -2.3844
  269TIP3    H222367   6.319   2.357   8.613 -0.4358 -1.5111 -0.8499
  270TIP3   OH222368   2.516   6.251   7.301 -0.9967  0.1142 -0.0625
  270TIP3    H122369   2.580   6.235   7.231 -1.7389 -0.5483 -0.6054
  270TIP3    H222370   2.450   6.182   7.290 -1.1780  0.0416  1.2452
  271TIP3   OH222371   1.154   6.402   8.176  0.4266  0.1334  0.1026
  271TIP3    H122372   1.245   6.411   8.148  0.7292  1.5900  1.3998
  271TIP3    H222373   1.106   6.469   8.127 -0.0501 -0.8179 -0.7962
  272TIP3   OH222374   6.613   3.692   8.601 -0.9611 -0.2075 -0.1508
  272TIP3    H122375   6.676   3.676   8.531 -1.4837  0.4861 -0.8021
  272TIP3    H222376   6.528   3.684   8.558 -1.4547 -3.2007  1.1235
  273TIP3   OH222377   2.189   1.091   7.012 -0.2377 -0.2385  0.2188
  273TIP3    H122378   2.202   1.018   6.952 -2.8478 -0.0324 -0.7656
  273TIP3    H222379   2.200   1.169   6.958 -0.9189 -0.0058  0.4042
  274TIP3   OH222380   4.676   2.879   1.261 -0.6569  0.2214 -0.5907
  274TIP3    H122381   4.663   2.974   1.262 -1.2218  0.1553  0.8958
  274TIP3    H222382   4.646   2.852   1.175  0.0039  1.4483 -1.2308
  275TIP3   OH222383   1.552   1.262   6.431  0.1860 -0.2250 -0.1543
  275TIP3    H122384   1.591   1.312   6.359  0.8829 -1.7085 -0.8589
  275TIP3    H222385   1.624   1.252   6.494 -0.3389  0.8120  0.6468
  276TIP3   OH222386   4.835   6.539   7.296  0.1459  0.4189  0.1003
  276TIP3    H122387   4.930   6.546   7.309  0.3130  0.1994 -0.8764
  276TIP3    H222388   4.797   6.590   7.367  1.0204  1.2520 -0.0060
  277TIP3   OH222389   4.912   6.357   2.422  0.4972  0.4559  0.4479
  277TIP3    H122390   4.823   6.346   2.389 -0.2880  1.1366  2.2088
  277TIP3    H222391   4.916   6.449   2.450  1.6110  0.3200  0.7682
  278TIP3   OH222392   5.699   0.075   8.016  0.3077  0.1576  0.0567
  278TIP3    H122393   5.616   0.050   8.057  0.9338 -1.1424  0.5723
  278TIP3    H222394   5.759   0.090   8.089  0.6819  0.5622 -0.3277
  279TIP3   OH222395   4.123   3.841   7.370 -0.0301 -0.7052  0.4827
  279TIP3    H122396   4.136   3.758   7.324  0.8418 -1.0528  1.3340
  279TIP3    H222397   4.131   3.819   7.463 -2.4739 -0.1538  0.9100
  280TIP3   OH222398   6.074   2.112   1.026 -0.4107 -0.7660 -0.4554
  280TIP3    H122399   5.982   2.133   1.010 -0.9172 -1.6144  1.0857
  280TIP3    H222400   6.071   2.033   1.080  1.1759 -0.1109  0.6744
  281TIP3   OH222401   0.408   2.896   0.346 -0.0429  0.0031  0.3638
  281TIP3    H122402   0.470   2.968   0.360 -0.0628  0.5252 -1.9048
  281TIP3    H222403   0.459   2.827   0.304 -0.4310 -0.6018  0.8722
  282TIP3   OH222404   2.279   0.098   6.372  0.1623  0.0682  0.1193
  282TIP3    H122405   2.277   0.070   6.280 -1.1595  1.4192 -0.2936
  282TIP3    H222406   2.210   0.047   6.414 -1.3046  1.6079 -0.3331
  283TIP3   OH222407   1.509   5.111   0.343 -0.7368 -0.0597 -0.1696
  283TIP3    H122408   1.455   5.032   0.340 -3.8022  1.8375  0.5218
  283TIP3    H222409   1.490   5.150   0.428  1.1742  1.1608 -0.2453
  284TIP3   OH222410   4.585   1.638   0.087 -0.2091  0.2017  0.3740
  284TIP3    H122411   4.664   1.666   0.134  1.0210  0.0563 -1.4772
  284TIP3    H222412   4.520   1.705   0.107  0.2235  0.1430  2.2409
  285TIP3   OH222413   5.363   0.394   7.347 -0.1311  0.1863  0.7932
  285TIP3    H122414   5.414   0.455   7.292  0.3610 -0.5337  0.4308
  285TIP3    H222415   5.326   0.449   7.415  1.6597  0.6514  1.4493
  286TIP3   OH222416   4.476   0.459   0.889  0.0789 -0.0144  0.4549
  286TIP3    H122417   4.436   0.473   0.975 -1.9141  0.0412 -0.4101
  286TIP3    H222418   4.525   0.378   0.897 -2.9143 -1.9290  0.7779
  287TIP3   OH222419   2.627   3.478   7.711  0.0769 -0.0493  0.0454
  287TIP3    H122420   2.559   3.411   7.699  0.5920 -0.3406 -1.5186
  287TIP3    H222421   2.664   3.491   7.623  3.0618 -0.9860  1.0385
  288TIP3   OH222422   1.759   5.223   7.222 -0.2213 -0.0649  0.2207
  288TIP3    H122423   1.853   5.214   7.202 -0.1783  0.1913  0.3053
  288TIP3    H222424   1.725   5.133   7.220  0.5860 -0.5371  3.0628
  289TIP3   OH222425   0.983   1.798   0.821  0.4344  0.3912  0.4378
  289TIP3    H122426   0.999   1.758   0.907 -4.2854 -0.8839  0.9693
  289TIP3    H222427   1.034   1.746   0.760  2.3908  0.1250  2.1955
  290TIP3   OH222428   6.120   4.454   6.929 -0.1852  0.0542 -0.3239
  290TIP3    H122429   6.166   4.380   6.967  0.1025  0.0253 -0.7229
  290TIP3    H222430   6.100   4.427   6.839 -0.1860  0.4112 -0.4347
  291TIP3   OH222431   0.107   6.040   1.670 -0.0131 -0.0444  0.5873
  291TIP3    H122432   0.175   6.092   1.628 -1.8056  0.6129 -1.7938
  291TIP3    H222433   0.093   6.081   1.755  2.5764 -0.2990  1.1978
  292TIP3   OH222434   5.793   6.290   0.497  0.9226  0.3183  0.1186
  292TIP3    H122435   5.772   6.203   0.531  0.0583 -0.3709 -2.0088
  292TIP3    H222436   5.720   6.346   0.526 -0.0835 -0.3819 -0.9604
  293TIP3   OH222437   2.925   3.042   1.643  0.8341  0.0370 -0.1031
  293TIP3    H122438   2.847   3.008   1.687 -0.2781  0.3656 -1.7221
  293TIP3    H222439   2.977   3.080   1.714 -0.8365  0.5112  0.9371
  294TIP3   OH222440   5.877   0.197   1.377 -0.0721  0.0958 -0.3128
  294TIP3    H122441   5.962   0.170   1.343  0.5737  1.1497  0.3909
  294TIP3    H222442   5.847   0.124   1.431  0.4557 -0.2190 -0.4436
  295TIP3   OH222443   4.898   0.451   2.287 -0.3594  0.2138 -0.0355
  295TIP3    H122444   4.943   0.534   2.303  1.0864 -0.5925  0.3409
  295TIP3    H222445   4.933   0.420   2.203 -1.5718  0.4038 -0.6243
  296TIP3   OH222446   3.737   5.433   0.656 -0.5748  0.2699  0.2389
  296TIP3    H122447   3.739   5.503   0.591  1.8171 -1.1688 -1.3604
  296TIP3    H222448   3.712   5.355   0.607  0.3814 -0.6921  1.2321
  297TIP3   OH222449   3.611   6.401   1.076 -0.3464  0.9731 -0.5417
  297TIP3    H122450   3.701   6.434   1.068 -0.8326  2.2476 -1.0062
  297TIP3    H222451   3.558   6.480   1.082 -1.2342  0.2852  2.3993
  298TIP3   OH222452   1.874   0.185   1.074 -0.7419  0.2524 -0.5312
  298TIP3    H122453   1.950   0.191   1.132 -1.1378  1.2685 -0.0897
  298TIP3    H222454   1.883   0.100   1.031 -1.0501 -1.0973  1.8806
  299TIP3   OH222455   4.823   0.191   8.517 -0.2333  0.5260 -0.3999
  299TIP3    H122456   4.918   0.199   8.525 -0.2022 -0.7744  0.9263
  299TIP3    H222457   4.791   0.280   8.531  0.6840  0.6066  1.5822
  300TIP3   OH222458   5.451   5.652   8.359  0.2692  0.2515 -0.2568
  300TIP3    H122459   5.505   5.575   8.377 -1.7771 -1.1297  0.2825
  300TIP3    H222460   5.420   5.681   8.445 -0.0605  0.8758 -0.5771
  301TIP3   OH222461   3.208   1.531   0.366 -0.0651  0.6299 -0.4446
  301TIP3    H122462   3.204   1.473   0.290 -2.7351 -1.9901  1.4614
  301TIP3    H222463   3.287   1.503   0.413 -1.2023 -1.4891  0.3370
  302TIP3   OH222464   3.327   6.857   7.325  0.7189  0.2685  0.6279
  302TIP3    H122465   3.371   6.874   7.409 -0.9029  2.6594  1.1093
  302TIP3    H222466   3.234   6.857   7.347  0.2186  1.7185 -1.2442
  303TIP3   OH222467   3.609   1.071   8.446  0.0744  0.0301  0.1776
  303TIP3    H122468   3.646   0.999   8.498  0.3517  0.4900  0.6267
  303TIP3    H222469   3.682   1.132   8.434  0.0543 -0.1396 -0.8941
  304TIP3   OH222470   5.132   3.762   1.819 -0.2718 -0.1662 -0.5936
  304TIP3    H122471   5.091   3.846   1.798  0.4371 -0.0577 -1.6705
  304TIP3    H222472   5.140   3.718   1.734 -1.2056 -1.6035  0.0342
  305TIP3   OH222473   2.320   0.041   7.218  0.5159 -0.3860 -0.1965
  305TIP3    H122474   2.243   0.046   7.274 -0.1332  1.2168 -1.1847
  305TIP3    H222475   2.295  -0.020   7.148  0.7201 -1.0543  0.2971
  306TIP3   OH222476   3.467   6.724   0.438 -0.8449 -0.5206 -0.0065
  306TIP3    H122477   3.455   6.819   0.433  0.3080 -0.3619 -0.1582
  306TIP3    H222478   3.380   6.687   0.424 -1.1178  0.4932 -1.1450
  307TIP3   OH222479   0.548   5.007   6.913 -0.4749  0.1455 -0.2474
  307TIP3    H122480   0.567   4.975   6.825 -0.7571 -0.9592  0.0741
  307TIP3    H222481   0.460   4.975   6.932 -1.0372  1.6492 -0.1189
  308TIP3   OH222482   2.259   6.258   6.711 -0.3174 -0.3032 -0.8425
  308TIP3    H122483   2.210   6.339   6.696  2.0912  0.9511 -2.6916
  308TIP3    H222484   2.291   6.266   6.801 -1.7412 -0.2035 -0.3145
  309TIP3   OH222485   4.809   1.559   8.327 -0.2906  0.0052 -0.9646
  309TIP3    H122486   4.877   1.602   8.378 -1.5138  1.0663 -0.1600
  309TIP3    H222487   4.835   1.573   8.236  0.9275 -0.2462 -0.6755
  310TIP3   OH222488   4.815   4.261   2.024  0.3100  0.6145  0.2595
  310TIP3    H122489   4.822   4.168   2.005  1.3394  0.7018  0.1654
  310TIP3    H222490   4.856   4.271   2.110 -1.1420  0.7688  0.9839
  311TIP3   OH222491   2.312   4.931   0.237  0.3389 -0.0925 -0.8186
  311TIP3    H122492   2.276   4.911   0.150  0.5044  2.2816 -1.4978
  311TIP3    H222493   2.255   4.883   0.297 -1.2051  0.0113 -2.1258
  312TIP3   OH222494   3.179   0.686   0.255 -0.8384 -0.1953 -0.2658
  312TIP3    H122495   3.118   0.631   0.303 -1.6528  1.7329  1.0233
  312TIP3    H222496   3.151   0.776   0.274  2.1280  0.7761  0.0471
  313TIP3   OH222497   2.398   5.252   7.419 -0.1620  0.6353  0.1091
  313TIP3    H122498   2.478   5.290   7.456  0.6719 -0.6736 -0.2692
  313TIP3    H222499   2.404   5.159   7.439 -1.3683  0.4384 -0.3567
  314TIP3   OH222500   6.699   1.157   8.045  0.3421  0.0427 -0.1737
  314TIP3    H122501   6.697   1.183   7.953 -1.2218 -3.1968 -1.2068
  314TIP3    H222502   6.625   1.204   8.084 -0.3762 -0.2465 -1.1432
  315TIP3   OH222503   4.053   1.958   0.533  0.6625  0.4729  0.5714
  315TIP3    H122504   3.965   1.985   0.506 -0.4546 -0.8129  2.6509
  315TIP3    H222505   4.086   1.908   0.459  0.0909  1.8305 -0.6593
  316TIP3   OH222506   0.630   0.676   1.740 -0.2070 -0.3306 -0.1124
  316TIP3    H122507   0.600   0.586   1.723 -0.1520 -0.8673  2.2789
  316TIP3    H222508   0.604   0.693   1.830  0.9627  1.5876 -0.0917
  317TIP3   OH222509   4.168   4.750   1.559  0.3308 -0.2701 -0.4538
  317TIP3    H122510   4.089   4.720   1.514  0.4888 -1.2003 -0.1223
  317TIP3    H222511   4.226   4.674   1.560  1.7750  0.7362 -1.8451
  318TIP3   OH222512   2.892   2.480   7.425 -0.0769  0.6209  0.2311
  318TIP3    H122513   2.891   2.549   7.359 -0.7202  0.0977 -0.3171
  318TIP3    H222514   2.983   2.452   7.429 -0.0645  0.5196 -0.5886
  319TIP3   OH222515   4.263   4.995   0.019  0.2706  0.6362  0.4332
  319TIP3    H122516   4.186   5.050   0.032  0.2706  0.8956 -0.5936
  319TIP3    H222517   4.249   4.954  -0.066  0.8646  0.0152  0.6237
  320TIP3   OH222518   6.076   5.759   6.569 -0.1508  0.2693  0.1545
  320TIP3    H122519   6.106   5.830   6.626 -1.3316 -0.2250  1.4284
  320TIP3    H222520   6.069   5.799   6.482 -1.3308  1.8799  0.9521
  321TIP3   OH222521   3.270   5.045   8.213  0.1228 -0.7547 -0.4951
  321TIP3    H122522   3.189   5.095   8.221 -0.0179 -1.2167  1.7704
  321TIP3    H222523   3.241   4.954   8.200  0.2751 -0.8480 -0.1999
  322TIP3   OH222524   3.249   1.935   7.791 -0.2143  0.5488  0.0139
  322TIP3    H122525   3.318   1.873   7.768 -0.6519 -0.4997  1.3991
  322TIP3    H222526   3.186   1.929   7.720  0.9232  1.2886 -1.1176
  323TIP3   OH222527   6.513   6.097   8.433  0.8643 -0.5494  0.7306
  323TIP3    H122528   6.488   6.011   8.401 -0.9012 -0.2079  1.0541
  323TIP3    H222529   6.499   6.156   8.358  1.8414 -0.4951  0.5776
  324TIP3   OH222530   0.285   6.295   7.719 -0.0659 -0.4654  0.1571
  324TIP3    H122531   0.304   6.367   7.660 -0.6230  0.5420  1.1757
  324TIP3    H222532   0.281   6.218   7.662  1.0185  0.2089 -0.8824
  325TIP3   OH222533   4.393   2.285   1.538 -0.0701 -0.2687 -0.2794
  325TIP3    H122534   4.371   2.196   1.566  1.9211 -0.1052  2.1623
  325TIP3    H222535   4.320   2.338   1.571 -0.0517 -0.7046  0.4974
  326TIP3   OH222536   2.293   0.439   6.129  0.0616  0.3657 -0.0105
  326TIP3    H122537   2.326   0.473   6.046 -0.9805  1.0741 -0.1483
  326TIP3    H222538   2.330   0.351   6.135 -2.0345 -0.8413 -2.6150
  327TIP3   OH222539   2.608   0.701   5.865  0.3990 -0.1599  0.9340
  327TIP3    H122540   2.688   0.743   5.833  1.1877 -0.3529  2.6000
  327TIP3    H222541   2.580   0.755   5.939 -0.6913 -0.4444  0.7482
  328TIP3   OH222542   2.069   2.859   0.035  0.3280 -0.2756 -0.0283
  328TIP3    H122543   2.081   2.804   0.113 -2.1739 -0.7198  0.1103
  328TIP3    H222544   2.134   2.825  -0.027  0.4137 -1.8574  0.8567
  329TIP3   OH222545   4.426   5.058   0.783 -0.1036  0.2015  0.0937
  329TIP3    H122546   4.391   5.001   0.852  0.0868  0.6264  0.5470
  329TIP3    H222547   4.477   4.999   0.727 -0.7972 -0.2658 -0.0637
  330TIP3   OH222548   2.029   1.425   6.561  0.3703 -0.2127 -0.1858
  330TIP3    H122549   2.067   1.350   6.605 -1.1100 -0.2988  1.0305
  330TIP3    H222550   1.939   1.430   6.594 -0.1025  1.0808 -1.5192
  331TIP3   OH222551   2.779   4.189   7.009  0.1131  0.3407  0.4014
  331TIP3    H122552   2.844   4.253   6.980  1.7262 -0.9518  0.9416
  331TIP3    H222553   2.827   4.133   7.071 -0.9931 -1.7933 -0.5483
  332TIP3   OH222554   6.647   4.365   8.457 -0.2063  0.1917  0.4592
  332TIP3    H122555   6.554   4.386   8.471 -0.8276 -1.6232 -0.5683
  332TIP3    H222556   6.681   4.348   8.545 -0.9070  0.6337  0.8278
  333TIP3   OH222557   0.090   5.558   2.524 -0.0307 -0.7827  0.0343
  333TIP3    H122558   0.025   5.625   2.544 -0.1551 -1.0173  0.4291
  333TIP3    H222559   0.044   5.475   2.537  0.2944 -0.9480  0.1493
  334TIP3   OH222560   0.173   4.793   0.512  0.5677  0.4253 -0.4655
  334TIP3    H122561   0.175   4.698   0.505  1.0696  0.4021 -0.0870
  334TIP3    H222562   0.213   4.812   0.597 -1.6511  0.8714  0.5448
  335TIP3   OH222563   3.759   2.854   0.036  0.0612 -0.1581  0.1335
  335TIP3    H122564   3.763   2.822  -0.054  0.5963  0.0968  0.0645
  335TIP3    H222565   3.687   2.804   0.076 -1.1784  0.7729 -0.8464
  336TIP3   OH222566   0.252   4.742   2.251 -0.4072 -0.4289 -0.3324
  336TIP3    H122567   0.320   4.684   2.218  2.1597  1.5996  1.0370
  336TIP3    H222568   0.173   4.716   2.203  1.1237 -3.3590 -1.4923
  337TIP3   OH222569   4.861   4.260   8.579  0.0205 -0.1873 -0.4231
  337TIP3    H122570   4.909   4.178   8.584  0.8468  0.3287  0.2819
  337TIP3    H222571   4.921   4.326   8.613  0.1909  1.1001 -2.9819
  338TIP3   OH222572   5.719   1.548   1.324  0.4204  0.3492 -0.1855
  338TIP3    H122573   5.666   1.594   1.258 -0.4544 -0.0522  0.2197
  338TIP3    H222574   5.691   1.586   1.408  2.1556  1.4895 -0.0742
  339TIP3   OH222575   2.767   5.262   2.293  0.1145 -0.6237 -0.6092
  339TIP3    H122576   2.720   5.315   2.357 -0.1597 -1.1066 -0.4111
  339TIP3    H222577   2.778   5.177   2.335  0.1014 -0.8857 -1.1305
  340TIP3   OH222578   3.681   4.956   7.094  0.3865 -0.0532 -0.1303
  340TIP3    H122579   3.612   5.018   7.070 -0.0115 -0.3851  0.1433
  340TIP3    H222580   3.756   4.983   7.042  0.0739  0.3619 -0.3756
  341TIP3   OH222581   4.759   1.294   8.310  0.2571  0.0107  0.3125
  341TIP3    H122582   4.789   1.369   8.360 -0.6426  0.7364 -0.2090
  341TIP3    H222583   4.838   1.243   8.292  0.8128  0.6184  1.0123
  342TIP3   OH222584   0.899   6.666   1.562  0.4749 -0.0176  0.3004
  342TIP3    H122585   0.916   6.754   1.530 -0.5814  0.1277  0.0941
  342TIP3    H222586   0.843   6.627   1.495 -0.1247 -0.3949  1.0006
  343TIP3   OH222587   3.248   4.835   1.368  0.0657  0.3886  0.4088
  343TIP3    H122588   3.181   4.775   1.403 -0.6730  1.3572  0.7004
  343TIP3    H222589   3.217   4.922   1.393  1.0478  0.9068 -0.1390
  344TIP3   OH222590   5.653   5.573   6.465 -0.3210 -0.4634 -0.1155
  344TIP3    H122591   5.690   5.591   6.378 -0.0572 -0.3615  0.0181
  344TIP3    H222592   5.570   5.622   6.466  1.5143  2.9062  1.1597
  345TIP3   OH222593   4.205   2.166   7.669 -0.2709 -0.7642  0.3377
  345TIP3    H122594   4.297   2.190   7.656 -0.3019  0.0936  1.5052
  345TIP3    H222595   4.209   2.081   7.713 -0.0651 -1.0832 -0.2830
  346TIP3   OH222596   6.372   2.636   8.456 -0.3966 -0.8557 -0.0578
  346TIP3    H122597   6.383   2.723   8.493 -1.4273 -0.8933  0.3771
  346TIP3    H222598   6.293   2.602   8.498  0.1917 -2.1459  0.0552
  347TIP3   OH222599   5.283   1.359   8.567  0.1768  0.0046  0.1994
  347TIP3    H122600   5.273   1.274   8.525  0.0747  0.3609 -0.5107
  347TIP3    H222601   5.328   1.340   8.650  2.4870 -0.4454 -1.0858
  348TIP3   OH222602   0.599   4.192   8.143 -0.3773 -0.2511  0.1222
  348TIP3    H122603   0.632   4.132   8.076  0.9894 -0.3700  0.8620
  348TIP3    H222604   0.677   4.239   8.173 -1.0686  0.2568  1.1739
  349TIP3   OH222605   0.277   0.705   0.279 -0.4119 -0.6555  0.1996
  349TIP3    H122606   0.301   0.702   0.186 -0.7855  0.3761  0.0525
  349TIP3    H222607   0.346   0.657   0.324  0.9277  0.6370 -0.3976
  350TIP3   OH222608   4.731   3.249   7.485 -0.3730 -0.4382 -0.1322
  350TIP3    H122609   4.823   3.245   7.460 -0.4224 -0.3348 -0.3350
  350TIP3    H222610   4.701   3.334   7.453 -0.1934  0.1363  1.1490
  351TIP3   OH222611   6.356   5.537   8.544  0.0664 -0.1370 -0.3910
  351TIP3    H122612   6.404   5.521   8.625  1.4785  1.1614 -0.9308
  351TIP3    H222613   6.269   5.498   8.560  0.2517  0.1946  1.7712
  352TIP3   OH222614   5.050   0.710   7.663  0.5022  0.5237 -0.4060
  352TIP3    H122615   5.006   0.740   7.742  1.2310  1.1431 -0.2237
  352TIP3    H222616   5.143   0.707   7.687  0.6658  0.1112 -1.0506
  353TIP3   OH222617   5.016   1.657   0.414 -0.2870  0.6608 -0.9233
  353TIP3    H122618   4.920   1.653   0.414 -0.3228 -1.6730  1.7184
  353TIP3    H222619   5.040   1.652   0.322 -2.7223 -2.1852 -1.5752
  354TIP3   OH222620   6.008   6.500   7.670 -0.2741 -0.3779 -0.1827
  354TIP3    H122621   5.926   6.456   7.644 -0.7356  0.5776 -0.3903
  354TIP3    H222622   6.045   6.444   7.737 -0.3499 -1.6001 -1.1236
  355TIP3   OH222623   1.860   6.157   7.458  0.1605  0.2233 -0.2545
  355TIP3    H122624   1.929   6.163   7.524  0.2709 -1.4099 -0.1778
  355TIP3    H222625   1.907   6.145   7.375  0.0165 -1.0889 -0.1784
  356TIP3   OH222626   5.181   6.182   6.704 -0.5484 -0.1242 -0.6036
  356TIP3    H122627   5.175   6.106   6.645  0.3174 -1.1379  0.5545
  356TIP3    H222628   5.266   6.221   6.684 -0.4471 -0.2072 -0.3411
  357TIP3   OH222629   6.226   0.118   0.581  0.4296  0.4351  0.1752
  357TIP3    H122630   6.301   0.145   0.634  0.8774 -0.5202  0.0525
  357TIP3    H222631   6.172   0.066   0.640  0.3571  0.3089 -0.0005
  358TIP3   OH222632   4.044   3.801   2.539  0.2611  0.0793 -0.3531
  358TIP3    H122633   4.050   3.894   2.517 -0.0921  1.0673  3.1226
  358TIP3    H222634   4.135   3.774   2.553  0.2656  0.3755  0.2230
  359TIP3   OH222635   5.231   4.711   1.700  0.0372  0.0532  0.0349
  359TIP3    H122636   5.203   4.788   1.750  0.2549 -1.0560  1.9894
  359TIP3    H222637   5.279   4.658   1.764 -0.2020 -1.7619 -1.2213
  360TIP3   OH222638   2.969   5.258   7.573  0.3147 -0.0442  0.3405
  360TIP3    H122639   2.959   5.170   7.536 -0.5717  0.3187 -0.3206
  360TIP3    H222640   2.961   5.317   7.498  0.3040  0.6283  0.8591
  361TIP3   OH222641   3.150   2.778   0.416  0.1579  1.1545 -0.1151
  361TIP3    H122642   3.073   2.738   0.458 -0.1814  0.9030 -0.9562
  361TIP3    H222643   3.123   2.791   0.325  0.7128  2.1522 -0.1464
  362TIP3   OH222644   0.512   2.466   7.795  0.2010  0.1554  0.4846
  362TIP3    H122645   0.508   2.550   7.749  3.4396 -0.0514 -0.4606
  362TIP3    H222646   0.481   2.486   7.883 -0.5953  1.9498 -0.1467
  363TIP3   OH222647   4.935   4.331   1.114  0.5899 -0.3620 -0.3052
  363TIP3    H122648   4.957   4.238   1.109 -0.6399 -0.6207 -1.4952
  363TIP3    H222649   4.839   4.333   1.124  0.3743  0.7714 -2.0893
  364TIP3   OH222650   6.236   2.140   7.799 -0.0903  0.1726 -0.3877
  364TIP3    H122651   6.331   2.139   7.790  0.1051  1.5013  1.1080
  364TIP3    H222652   6.210   2.230   7.779 -1.0691 -0.1940 -0.8907
  365TIP3   OH222653   3.684   3.208   6.902 -0.3152 -0.3243  0.1515
  365TIP3    H122654   3.590   3.226   6.896 -0.6035 -1.2563  1.3648
  365TIP3    H222655   3.700   3.139   6.839 -0.3503  0.1183 -0.3503
  366TIP3   OH222656   5.017   2.082   7.361 -0.5410 -0.7344 -0.0223
  366TIP3    H122657   5.049   2.169   7.384  1.3318 -1.3701  0.0142
  366TIP3    H222658   4.959   2.096   7.287 -1.4692  0.6830  0.9299
  367TIP3   OH222659   1.722   5.955   6.561 -1.0308  0.5444 -0.0825
  367TIP3    H122660   1.654   6.005   6.515 -0.4480  0.4915 -1.0301
  367TIP3    H222661   1.756   5.894   6.495 -0.9238 -0.2992  0.7349
  368TIP3   OH222662   5.774   6.019   1.790 -0.1986  0.2426 -0.1625
  368TIP3    H122663   5.832   5.944   1.777 -0.5176  0.1826 -1.4314
  368TIP3    H222664   5.729   6.029   1.706 -2.9054 -0.4400  1.1101
  369TIP3   OH222665   6.481   2.159   8.080 -0.6760 -0.0730 -0.0297
  369TIP3    H122666   6.528   2.145   8.162  1.7019 -0.4606 -1.3778
  369TIP3    H222667   6.459   2.253   8.081  2.4161  0.7521 -0.4076
  370TIP3   OH222668   5.742   0.743   1.112  0.3834  0.3487  0.2636
  370TIP3    H122669   5.837   0.749   1.114  0.4598 -0.5919  0.3182
  370TIP3    H222670   5.720   0.732   1.019  0.2308  1.7162  0.1295
  371TIP3   OH222671   5.582   5.177   0.700  0.4705 -0.4237 -0.1362
  371TIP3    H122672   5.616   5.256   0.741 -1.6263  1.8915 -2.4066
  371TIP3    H222673   5.643   5.159   0.628  0.4825 -0.2812 -0.1628
  372TIP3   OH222674   5.867   3.864   0.516 -0.5099 -0.0520 -0.6678
  372TIP3    H122675   5.817   3.799   0.468  0.3225 -0.0264 -1.6120
  372TIP3    H222676   5.950   3.870   0.468 -0.1582  0.9126  0.0317
  373TIP3   OH222677   5.287   0.662   7.337 -0.2505 -0.1073 -0.1789
  373TIP3    H122678   5.335   0.741   7.362 -1.2912  0.0965  1.2502
  373TIP3    H222679   5.255   0.680   7.248 -0.6325  1.1672  0.2062
  374TIP3   OH222680   5.669   3.601   0.715  0.1399 -0.0724 -0.3071
  374TIP3    H122681   5.665   3.611   0.620  0.4980 -1.3513 -0.4746
  374TIP3    H222682   5.749   3.551   0.731  0.1928  0.2961  0.6868
  375TIP3   OH222683   3.707   1.708   0.035 -0.1863 -0.0183 -0.0126
  375TIP3    H122684   3.742   1.697   0.123 -3.5369 -1.6468  1.3255
  375TIP3    H222685   3.728   1.626  -0.009  0.3123  0.2427 -0.2618
  376TIP3   OH222686   2.479   4.230   8.070 -0.1528 -0.3701  0.1842
  376TIP3    H122687   2.491   4.249   8.163  0.3599  1.1080 -0.1589
  376TIP3    H222688   2.417   4.297   8.040 -0.6671 -1.1143 -0.4524
  377TIP3   OH222689   4.657   5.801   7.157  0.4987 -0.0994 -0.0226
  377TIP3    H122690   4.752   5.804   7.145  0.7154 -2.8051  0.3926
  377TIP3    H222691   4.624   5.751   7.082 -0.3676 -0.6323  0.6863
  378TIP3   OH222692   5.896   1.389   8.284 -0.6275 -0.3593  0.1055
  378TIP3    H122693   5.898   1.472   8.333 -0.7430  0.6888 -1.5756
  378TIP3    H222694   5.987   1.362   8.280 -0.3257  0.7213 -0.9545
  379TIP3   OH222695   5.228   4.876   1.350  0.2223  0.2348  1.1957
  379TIP3    H122696   5.284   4.920   1.415  0.8886  0.5405  0.4285
  379TIP3    H222697   5.282   4.871   1.271  0.1927 -2.0180  1.2604
  380TIP3   OH222698   6.416   1.193   1.110  0.5286  0.5834  0.2516
  380TIP3    H122699   6.366   1.112   1.098 -0.3550  0.4525  3.7520
  380TIP3    H222700   6.507   1.167   1.096  0.4818 -1.5985  3.1356
  381TIP3   OH222701   0.116   3.206   0.581  0.0342  0.1555  0.3847
  381TIP3    H122702   0.133   3.288   0.628 -1.0861 -0.4040  1.8388
  381TIP3    H222703   0.140   3.225   0.490  1.9375  1.3964  1.0875
  382TIP3   OH222704   0.965   6.352   7.111 -0.1952  0.0964 -0.1011
  382TIP3    H122705   1.043   6.381   7.157  0.0067  1.4513 -1.2571
  382TIP3    H222706   0.998   6.304   7.035 -0.4705  0.9492 -0.7674
  383TIP3   OH222707   3.656   4.149   7.706 -0.1765 -0.1594  0.5255
  383TIP3    H122708   3.678   4.206   7.780  0.6216 -1.3301  1.2192
  383TIP3    H222709   3.671   4.060   7.739 -1.4860 -0.7882 -0.5001
  384TIP3   OH222710   6.037   4.185   0.701 -0.0278  0.3409 -0.5959
  384TIP3    H122711   5.971   4.231   0.648 -0.1641  1.0541  0.1729
  384TIP3    H222712   6.084   4.254   0.746  2.4202 -0.0167 -2.3912
  385TIP3   OH222713   2.808   1.266   7.219  0.5558 -0.2408 -0.2110
  385TIP3    H122714   2.881   1.272   7.158  0.8322  1.1162  0.2296
  385TIP3    H222715   2.832   1.196   7.280  0.8692 -0.7029 -0.8643
  386TIP3   OH222716   6.757   1.357   6.554  0.1502  0.4299 -0.2169
  386TIP3    H122717   6.705   1.375   6.632 -0.9089 -2.6717 -0.0646
  386TIP3    H222718   6.722   1.417   6.487 -0.0903  1.9334  1.2102
  387TIP3   OH222719   2.960   3.897   1.219  0.2871 -0.4051  0.1123
  387TIP3    H122720   3.034   3.939   1.263 -0.4884  0.9954  0.1421
  387TIP3    H222721   2.996   3.867   1.135  1.1998 -0.9796  0.6894
  388TIP3   OH222722   5.407   5.452   7.255 -0.1954 -0.5155 -0.5726
  388TIP3    H122723   5.477   5.397   7.219 -1.6080 -1.6271 -1.8043
  388TIP3    H222724   5.363   5.395   7.318 -1.1042 -0.5102 -1.1801
  389TIP3   OH222725   4.650   6.794   7.781  0.0656  0.0023 -0.2230
  389TIP3    H122726   4.734   6.836   7.799 -0.3581  0.5509  0.5269
  389TIP3    H222727   4.592   6.825   7.851 -0.5696 -0.9273 -0.3178
  390TIP3   OH222728   4.467   0.354   6.592 -0.2296  0.5863  0.7215
  390TIP3    H122729   4.544   0.402   6.562 -1.2135  0.9227 -1.4790
  390TIP3    H222730   4.468   0.274   6.540 -1.5480  0.7628  0.3981
  391TIP3   OH222731   3.034   3.651   1.448 -0.2374 -0.0591  0.0189
  391TIP3    H122732   2.972   3.636   1.377 -2.8280  2.0280  1.6574
  391TIP3    H222733   3.073   3.736   1.427 -0.9062  0.4947  0.9418
  392TIP3   OH222734   0.299   1.575   7.748  0.3191  0.1795  0.1616
  392TIP3    H122735   0.269   1.653   7.700  0.7444  0.1052 -0.2381
  392TIP3    H222736   0.381   1.551   7.704 -0.4992 -1.3138 -0.6224
  393TIP3   OH222737   6.503   2.834   1.190  0.3032  0.2266 -0.3521
  393TIP3    H122738   6.502   2.908   1.251  0.0117  0.0066 -0.0896
  393TIP3    H222739   6.412   2.805   1.186  0.3524  0.1297 -0.7578
  394TIP3   OH222740   3.108   2.198   8.528 -0.7638 -0.2850 -0.3132
  394TIP3    H122741   3.035   2.156   8.573 -0.9438 -1.2128 -1.4248
  394TIP3    H222742   3.186   2.160   8.568 -0.8338  1.1974  1.3389
  395TIP3   OH222743   3.326   5.817   1.939 -0.3596 -0.3231  0.4393
  395TIP3    H122744   3.358   5.884   1.879 -0.5270 -0.2009  0.4850
  395TIP3    H222745   3.366   5.838   2.023  2.5026 -2.3570 -0.2720
  396TIP3   OH222746   0.411   2.152   1.069  0.0102  0.0578  0.1151
  396TIP3    H122747   0.465   2.107   1.004 -0.0049  1.9316 -1.2773
  396TIP3    H222748   0.324   2.154   1.030 -0.2934  0.1063  0.7815
  397TIP3   OH222749   3.327   0.750   7.850  0.3492 -0.1010 -0.1527
  397TIP3    H122750   3.397   0.688   7.828  0.7384  0.4372 -0.4482
  397TIP3    H222751   3.363   0.803   7.921  1.7964  2.7298 -2.7757
  398TIP3   OH222752   2.237   2.541   8.398 -0.4947  0.4009 -0.0030
  398TIP3    H122753   2.297   2.565   8.328 -1.5444 -0.9526 -1.4128
  398TIP3    H222754   2.283   2.472   8.446 -1.0110 -0.9063 -1.3120
  399TIP3   OH222755   1.430   6.445   6.838  0.3287  0.5863  0.2298
  399TIP3    H122756   1.442   6.503   6.764 -0.3227  1.6529  0.9404
  399TIP3    H222757   1.370   6.492   6.896 -0.0095 -0.6778  0.9420
  400TIP3   OH222758   5.572   2.886   7.435  0.4184  0.5277 -0.4055
  400TIP3    H122759   5.579   2.802   7.481  1.4641 -0.0247 -1.5277
  400TIP3    H222760   5.573   2.951   7.505 -0.0745 -0.3705  0.4633
  401TIP3   OH222761   3.551   0.658   8.068 -0.2521 -0.0231  0.2951
  401TIP3    H122762   3.585   0.569   8.057 -0.0739 -0.2271  2.0868
  401TIP3    H222763   3.611   0.714   8.019 -0.4332 -0.8846 -0.9574
  402TIP3   OH222764   2.954   6.664   7.209  0.0354  0.4373  0.1134
  402TIP3    H122765   3.010   6.658   7.132 -1.3015  3.8517 -1.3187
  402TIP3    H222766   2.997   6.728   7.265 -0.7174  0.5011  0.6304
  403TIP3   OH222767   6.839   6.052   8.388  0.3046 -0.1138  0.4173
  403TIP3    H122768   6.750   6.017   8.395  0.1822  0.5141  2.6123
  403TIP3    H222769   6.828   6.147   8.396  1.1804 -0.0213  0.6206
  404TIP3   OH222770   4.504   5.251   7.410 -0.3035  0.0181  0.4325
  404TIP3    H122771   4.462   5.285   7.489 -0.7847  0.6800 -0.0959
  404TIP3    H222772   4.437   5.196   7.369 -0.7791  1.2938 -0.5555
  405TIP3   OH222773   5.624   1.700   1.564  0.4663  0.3607  0.0026
  405TIP3    H122774   5.612   1.769   1.629  1.6956 -0.3703  1.0436
  405TIP3    H222775   5.703   1.654   1.591 -1.0076 -2.3242  0.1738
  406TIP3   OH222776   4.451   3.761   8.211 -0.4710  0.6035  0.3504
  406TIP3    H122777   4.402   3.810   8.145  0.0377  0.5107 -0.1045
  406TIP3    H222778   4.486   3.685   8.163  1.0198  1.2279  0.3823
  407TIP3   OH222779   3.165   1.791   2.592  0.3798  0.1189  0.0129
  407TIP3    H122780   3.133   1.871   2.551  0.6752 -0.5670 -1.6244
  407TIP3    H222781   3.093   1.762   2.647  0.0790  1.2156  0.2298
  408TIP3   OH222782   0.859   0.088   0.255 -0.5714 -0.0895 -0.1014
  408TIP3    H122783   0.859   0.004   0.209 -1.9221 -0.8208  1.1504
  408TIP3    H222784   0.872   0.153   0.186 -0.1425 -1.2849 -1.1760
  409TIP3   OH222785   3.467   5.922   0.228 -0.4113 -0.5451  0.0472
  409TIP3    H122786   3.467   6.008   0.185  1.3000 -1.0489 -1.0581
  409TIP3    H222787   3.406   5.870   0.176 -1.9159  0.1179  1.0740
  410TIP3   OH222788   2.009   3.796   6.943 -0.0453 -0.0026 -0.2472
  410TIP3    H122789   1.917   3.821   6.954 -0.3672 -1.3758  0.3603
  410TIP3    H222790   2.013   3.754   6.858  0.1878  0.7612 -0.6166
  411TIP3   OH222791   5.732   1.469   0.228  0.1919 -0.3000 -0.3524
  411TIP3    H122792   5.648   1.503   0.259 -0.3422 -0.9324 -1.0742
  411TIP3    H222793   5.739   1.382   0.268 -0.4958 -1.1186 -1.9200
  412TIP3   OH222794   2.249   2.313   8.564  0.7501 -0.0267  0.4689
  412TIP3    H122795   2.182   2.323   8.633  0.4460  1.7698 -0.0420
  412TIP3    H222796   2.213   2.246   8.506 -0.5906  0.8246  0.2648
  413TIP3   OH222797   1.488   5.004   7.885  0.3675 -0.3165  0.2727
  413TIP3    H122798   1.516   4.914   7.902 -1.3230 -0.9546 -0.0514
  413TIP3    H222799   1.542   5.033   7.812  0.3335 -1.4131 -0.2159
  414TIP3   OH222800   6.069   3.064   1.252 -0.1158  0.7784 -0.4574
  414TIP3    H122801   6.163   3.079   1.256 -0.0599  0.2317  0.3516
  414TIP3    H222802   6.040   3.113   1.174  1.2420 -1.1860 -2.3045
  415TIP3   OH222803   5.777   6.333   7.597  0.2020 -0.4193  0.1991
  415TIP3    H122804   5.704   6.351   7.656  0.1630 -0.5796  0.2005
  415TIP3    H222805   5.757   6.247   7.560  0.7439 -0.7878  0.7478
  416TIP3   OH222806   0.104   3.072   1.053 -0.4662 -0.2364  1.0807
  416TIP3    H122807   0.178   3.046   0.997 -0.3052 -1.9114  1.9994
  416TIP3    H222808   0.028   3.067   0.995 -0.1163 -0.4229  0.6255
  417TIP3   OH222809   3.230   5.792   6.982 -0.0426 -0.6107 -0.6747
  417TIP3    H122810   3.156   5.818   7.037 -0.9717 -0.6486 -1.8615
  417TIP3    H222811   3.306   5.833   7.023 -0.8530  0.2275  0.0316
  418TIP3   OH222812   0.809   5.245   1.700 -0.1040  0.0530 -0.3558
  418TIP3    H122813   0.901   5.267   1.711 -0.0262 -0.5982  0.3915
  418TIP3    H222814   0.783   5.209   1.785 -0.5634 -1.4812 -1.1240
  419TIP3   OH222815   1.569   1.187   8.513 -0.5229 -0.2132 -0.4162
  419TIP3    H122816   1.627   1.234   8.454 -0.5147 -1.0624 -1.1023
  419TIP3    H222817   1.486   1.234   8.508 -0.2088  0.3648 -0.2562
  420TIP3   OH222818   2.314   4.112   6.360  0.4498  0.3541 -0.2982
  420TIP3    H122819   2.391   4.067   6.396  0.0289  0.1146  0.3078
  420TIP3    H222820   2.246   4.101   6.426  0.3715  2.0250 -0.0376
  421TIP3   OH222821   1.695   3.722   8.340 -0.0713 -0.0474 -0.3777
  421TIP3    H122822   1.773   3.767   8.374 -0.7232  0.8939 -0.0630
  421TIP3    H222823   1.663   3.670   8.414  0.9267 -1.4130 -0.8692
  422TIP3   OH222824   5.559   0.976   2.001  0.1717 -0.6958 -0.3341
  422TIP3    H122825   5.589   0.926   1.925 -0.8397 -2.0887  0.1455
  422TIP3    H222826   5.617   0.950   2.072  0.7740  0.1974 -0.4798
  423TIP3   OH222827   1.793   1.178   7.817  0.4271  0.2848  0.3833
  423TIP3    H122828   1.813   1.271   7.827  1.1874  0.0815  0.8357
  423TIP3    H222829   1.850   1.134   7.880  0.2480 -0.5121  0.0063
  424TIP3   OH222830   4.688   4.358   8.379  0.2575  0.1156  1.6056
  424TIP3    H122831   4.721   4.301   8.449  1.7092  0.1138  0.9454
  424TIP3    H222832   4.735   4.440   8.391 -1.9876  1.3373  2.6920
  425TIP3   OH222833   3.722   3.556   2.256 -0.2512  0.2034 -0.2006
  425TIP3    H122834   3.729   3.473   2.304 -2.5409 -1.6721 -2.7935
  425TIP3    H222835   3.638   3.592   2.284 -0.1622  0.6678 -0.5230
  426TIP3   OH222836   1.105   4.563   0.366  0.0517  0.2558 -0.2728
  426TIP3    H122837   1.136   4.487   0.317  0.8263 -0.1035  0.7392
  426TIP3    H222838   1.011   4.568   0.345 -0.1664 -1.3865  0.1389
  427TIP3   OH222839   0.106   2.973   0.040 -0.4438 -0.1586 -0.1223
  427TIP3    H122840   0.139   2.930  -0.039 -1.5761  0.9413 -1.2215
  427TIP3    H222841   0.012   2.978   0.028 -0.6148  0.2813  1.1888
  428TIP3   OH222842   4.233   0.399   7.661 -0.1843 -0.3163  0.3346
  428TIP3    H122843   4.282   0.463   7.610 -1.0001 -1.0978 -1.5239
  428TIP3    H222844   4.240   0.318   7.611 -1.0794 -1.1105  1.4480
  429TIP3   OH222845   4.092   4.064   6.901  0.3695  0.1913  0.2858
  429TIP3    H122846   4.156   4.124   6.938  1.6833 -1.3217  0.6154
  429TIP3    H222847   4.055   4.019   6.977  0.3081 -0.2764 -0.0177
  430TIP3   OH222848   3.259   4.854   1.106 -0.2807 -0.2118 -0.6628
  430TIP3    H122849   3.252   4.859   1.201  0.9023 -1.0389 -0.5123
  430TIP3    H222850   3.277   4.762   1.088  0.6459  0.1315 -1.5944
  431TIP3   OH222851   1.704   2.911   1.369 -0.1077 -0.8549  0.0184
  431TIP3    H122852   1.680   2.929   1.279 -1.5483  0.6745  0.6563
  431TIP3    H222853   1.757   2.831   1.365 -0.6104 -1.1256 -2.0879
  432TIP3   OH222854   4.602   3.355   6.715 -0.7026  0.4646 -0.5746
  432TIP3    H122855   4.644   3.431   6.674  1.3613  0.6295  1.6672
  432TIP3    H222856   4.535   3.393   6.772  0.1937  0.6333  0.3930
  433TIP3   OH222857   1.452   5.273   2.188  0.1721 -0.4905  0.0448
  433TIP3    H122858   1.377   5.311   2.235  0.9675  2.1147 -0.6564
  433TIP3    H222859   1.417   5.195   2.146 -2.1817  0.6915 -0.3223
  434TIP3   OH222860   3.125   3.388   1.782  0.8905  0.6956 -0.5021
  434TIP3    H122861   3.067   3.357   1.851  0.0371  0.1616 -1.4194
  434TIP3    H222862   3.214   3.372   1.814  0.4838 -1.2509 -0.2852
  435TIP3   OH222863   2.976   0.610   8.101  0.6273  0.3032  0.2251
  435TIP3    H122864   2.934   0.696   8.091  0.7044  0.2890 -0.2496
  435TIP3    H222865   2.998   0.605   8.194  0.6646  0.8189  0.2469
  436TIP3   OH222866   4.478   3.259   7.907 -0.3438 -0.0045  0.2683
  436TIP3    H122867   4.503   3.302   7.825  3.7065 -1.3967  0.5797
  436TIP3    H222868   4.444   3.174   7.879 -0.1539  0.0100 -0.0102
  437TIP3   OH222869   3.353   1.014   8.391  0.6003  0.2632  0.0232
  437TIP3    H122870   3.402   0.952   8.336  0.2261 -0.2550  0.2649
  437TIP3    H222871   3.419   1.057   8.444  0.6524 -2.0881  2.0448
  438TIP3   OH222872   2.176   0.613   7.102  0.0737  0.4858 -0.3065
  438TIP3    H122873   2.138   0.640   7.018  0.6676 -0.4506 -0.8897
  438TIP3    H222874   2.112   0.552   7.139  0.5038 -0.2629 -0.7871
  439TIP3   OH222875   4.895   5.972   0.474  0.2995 -0.3829  0.5149
  439TIP3    H122876   4.951   6.019   0.412  1.6113  0.2522  2.1016
  439TIP3    H222877   4.876   5.889   0.432  1.1783  0.0110 -0.7100
  440TIP3   OH222878   5.689   2.251   7.150  0.8256  0.1300 -0.6558
  440TIP3    H122879   5.757   2.314   7.127  1.1841 -0.4478 -1.1923
  440TIP3    H222880   5.654   2.222   7.066  0.6673 -0.3871 -0.4111
  441TIP3   OH222881   6.555   5.259   6.939  0.1274  0.1964  0.1798
  441TIP3    H122882   6.646   5.232   6.926  0.2868 -0.9155  2.9858
  441TIP3    H222883   6.553   5.297   7.027 -1.9252  1.2690 -0.2601
  442TIP3   OH222884   0.674   5.476   7.126  0.7132 -0.2518 -0.3091
  442TIP3    H122885   0.657   5.410   7.058 -2.5301  2.8693 -2.9035
  442TIP3    H222886   0.739   5.535   7.087  0.2107  0.5576  0.0571
  443TIP3   OH222887   0.836   2.911   6.418 -0.1577 -0.0350 -0.1118
  443TIP3    H122888   0.927   2.937   6.430  0.1888 -1.7690  1.3872
  443TIP3    H222889   0.791   2.948   6.495 -0.6430  0.3790 -0.5841
  444TIP3   OH222890   6.442   4.592   6.878 -0.3597  0.9710 -0.4915
  444TIP3    H122891   6.423   4.511   6.830  1.9890  0.0650 -0.0444
  444TIP3    H222892   6.379   4.655   6.844 -1.3654 -0.6714 -1.8708
  445TIP3   OH222893   0.547   0.526   0.786  0.0801  0.1411  0.0071
  445TIP3    H122894   0.585   0.581   0.718  1.5049  0.1573  0.7854
  445TIP3    H222895   0.504   0.587   0.846 -1.4038  0.1071 -0.9830
  446TIP3   OH222896   0.136   0.150   1.273 -0.4453 -0.3178 -0.0937
  446TIP3    H122897   0.041   0.162   1.276 -0.3004  0.6653  1.4217
  446TIP3    H222898   0.161   0.131   1.363  0.9521  0.6776 -0.2470
  447TIP3   OH222899   1.876   4.699   7.497  0.7179  0.1122  0.2396
  447TIP3    H122900   1.798   4.755   7.487  0.3684 -0.2765  0.7374
  447TIP3    H222901   1.861   4.627   7.436 -0.4605 -1.2028  1.9650
  448TIP3   OH222902   4.629   4.915   1.144  0.1188  0.8958  0.2145
  448TIP3    H122903   4.690   4.893   1.214 -2.5478  0.5792  2.6351
  448TIP3    H222904   4.576   4.835   1.133  0.0922  1.1425 -1.7875
  449TIP3   OH222905   2.792   1.360   0.618  0.2376 -0.0285  0.0893
  449TIP3    H122906   2.763   1.450   0.601  1.4386  0.1796 -1.1185
  449TIP3    H222907   2.874   1.353   0.569  0.7960 -1.4058  1.1740
  450TIP3   OH222908   4.766   3.194   6.932  0.0503  0.3913 -0.1661
  450TIP3    H122909   4.712   3.274   6.930 -0.2487  0.1815 -1.8850
  450TIP3    H222910   4.758   3.158   6.844  0.2227 -1.5340  0.5747
  451TIP3   OH222911   3.529   1.683   7.451 -0.4293  0.0515 -0.1702
  451TIP3    H122912   3.625   1.680   7.450 -0.4543 -0.8788 -1.4902
  451TIP3    H222913   3.504   1.629   7.527  0.0828  1.1089  0.7843
  452TIP3   OH222914   4.380   0.190   8.215 -0.6413  1.4242  0.3877
  452TIP3    H122915   4.288   0.187   8.241 -0.5158 -0.0237  0.7272
  452TIP3    H222916   4.377   0.209   8.121 -1.3482  0.1934  0.1397
  453TIP3   OH222917   6.486   5.627   2.311  0.1282  0.6610  0.2432
  453TIP3    H122918   6.497   5.581   2.228  1.7112  3.6386 -1.3507
  453TIP3    H222919   6.556   5.591   2.367  0.6600  0.3750 -0.5804
  454TIP3   OH222920   0.758   1.113   7.616  0.0355 -0.9631 -0.7322
  454TIP3    H122921   0.783   1.136   7.706 -1.0163 -0.1747 -0.6104
  454TIP3    H222922   0.752   1.018   7.616  0.6833 -1.0168 -0.1513
  455TIP3   OH222923   1.859   0.641   1.382  0.0449  0.3611 -0.2239
  455TIP3    H122924   1.872   0.572   1.446  0.5326  0.5516 -0.1092
  455TIP3    H222925   1.937   0.637   1.326 -0.0708  0.6092 -0.4064
  456TIP3   OH222926   4.798   2.047   0.669  0.3496 -0.6033 -0.5739
  456TIP3    H122927   4.748   2.080   0.743  1.5377  0.7231 -0.3362
  456TIP3    H222928   4.732   2.027   0.602 -0.5682  0.1048  0.1058
  457TIP3   OH222929   5.110   1.597   0.159 -0.0197 -0.5118 -0.5801
  457TIP3    H122930   5.037   1.579   0.099 -0.1945 -1.0406 -0.2241
  457TIP3    H222931   5.177   1.638   0.105 -0.3132 -0.6582 -1.0592
  458TIP3   OH222932   4.527   5.789   1.826 -0.0033  0.6064  0.5930
  458TIP3    H122933   4.619   5.789   1.852  0.1415  0.4342  0.0820
  458TIP3    H222934   4.479   5.795   1.909  0.4819  2.1102  0.8111
  459TIP3   OH222935   1.687   4.330   0.775 -0.3233  0.1006 -0.1401
  459TIP3    H122936   1.773   4.299   0.802  0.1544  1.5621  0.0924
  459TIP3    H222937   1.649   4.367   0.855 -1.1455 -0.4469 -0.2606
  460TIP3   OH222938   6.545   3.922   7.659  0.5156 -0.1704 -0.2141
  460TIP3    H122939   6.591   3.940   7.741 -0.8000  0.5248  0.4128
  460TIP3    H222940   6.498   3.841   7.676  0.0015  0.1330 -0.1516
  461TIP3   OH222941   6.576   2.435   7.519 -0.2136 -0.2761 -0.6927
  461TIP3    H122942   6.536   2.491   7.585  0.4320  0.5610 -0.9911
  461TIP3    H222943   6.655   2.401   7.561  0.3735  0.5194 -1.1221
  462TIP3   OH222944   2.880   0.154   0.522  0.2620  0.1940 -0.2822
  462TIP3    H122945   2.949   0.217   0.544 -0.0658  1.6376 -2.9096
  462TIP3    H222946   2.798   0.201   0.542  0.0258 -0.2922 -0.1020
  463TIP3   OH222947   5.622   5.304   7.625 -0.4138 -0.6769 -0.6799
  463TIP3    H122948   5.667   5.264   7.700  0.0802  1.9183  0.5089
  463TIP3    H222949   5.529   5.295   7.645 -0.3052 -0.8500 -0.2341
  464TIP3   OH222950   5.562   0.666   8.129 -0.0742  0.0808  0.0334
  464TIP3    H122951   5.656   0.656   8.145 -0.1993  1.0916  1.5575
  464TIP3    H222952   5.557   0.715   8.047  0.7448  0.3364  0.1282
  465TIP3   OH222953   2.109   2.614   7.162 -0.0907 -0.0709 -0.3553
  465TIP3    H122954   2.036   2.616   7.100  0.4963 -0.1273 -1.0556
  465TIP3    H222955   2.150   2.700   7.155 -0.3545  0.1242  0.3729
  466TIP3   OH222956   5.104   6.556   8.548  0.6517 -0.0424  0.5285
  466TIP3    H122957   5.146   6.552   8.634  0.1720 -1.8345  0.7051
  466TIP3    H222958   5.046   6.480   8.546 -0.5611  0.8648 -0.7656
  467TIP3   OH222959   2.176   3.979   6.640 -0.5792  0.1057  0.5790
  467TIP3    H122960   2.253   4.030   6.665 -1.0250  1.3671 -0.4692
  467TIP3    H222961   2.108   4.045   6.623 -0.9602 -0.7608 -1.6028
  468TIP3   OH222962   6.823   4.917   2.277 -0.4565  0.5572 -0.4373
  468TIP3    H122963   6.742   4.878   2.243 -0.7198  0.1219  0.6635
  468TIP3    H222964   6.793   4.992   2.328 -0.3793 -0.8573  1.8085
  469TIP3   OH222965   0.765   6.645   0.319 -0.4331 -0.1903  0.3920
  469TIP3    H122966   0.752   6.711   0.250 -2.0125  0.0487  0.8871
  469TIP3    H222967   0.716   6.679   0.394  0.4906 -0.9096  1.3508
  470TIP3   OH222968   1.085   3.262   7.027 -0.0510  0.5707  0.4415
  470TIP3    H122969   1.083   3.299   7.115 -1.0095 -0.1378  0.7407
  470TIP3    H222970   1.010   3.202   7.025  0.6589 -0.3264 -0.4509
  471TIP3   OH222971   1.849   0.659   7.833 -0.1790  0.0112 -0.2166
  471TIP3    H122972   1.779   0.603   7.865 -1.3901  0.6839 -1.5511
  471TIP3    H222973   1.847   0.648   7.738  0.9053  0.7786 -0.3577
  472TIP3   OH222974   0.998   2.845   7.090  0.2882  0.8424 -0.2956
  472TIP3    H122975   1.067   2.812   7.033  2.8375  2.8802  1.3800
  472TIP3    H222976   0.954   2.911   7.037  1.6708  1.6855 -0.4469
  473TIP3   OH222977   0.678   0.285   0.351 -0.1870  0.5344 -0.6206
  473TIP3    H122978   0.763   0.246   0.332 -0.1997  0.8884 -1.4418
  473TIP3    H222979   0.672   0.285   0.447 -0.4447 -2.0321 -0.5558
  474TIP3   OH222980   5.346   0.179   0.797  0.7318  0.2542  0.2013
  474TIP3    H122981   5.369   0.177   0.704  1.4993 -0.7442  0.4023
  474TIP3    H222982   5.367   0.091   0.830 -1.0414  0.0608  0.9714
  475TIP3   OH222983   0.868   3.918   2.624  0.4027  0.3904 -0.3950
  475TIP3    H122984   0.813   3.884   2.553  1.2562 -0.6677 -0.5785
  475TIP3    H222985   0.955   3.880   2.608  0.7444  0.5532  0.9198
  476TIP3   OH222986   6.062   5.758   7.125 -0.2982  0.4319 -0.1605
  476TIP3    H122987   6.115   5.717   7.193 -0.0771  1.4667  0.3054
  476TIP3    H222988   6.082   5.708   7.046 -0.8037 -0.9924  0.5773
  477TIP3   OH222989   6.682   3.724   1.834 -0.7165  0.1520  0.3889
  477TIP3    H122990   6.613   3.767   1.884 -0.1834  1.0427  0.3897
  477TIP3    H222991   6.722   3.663   1.895 -1.4248 -0.2856  0.4195
  478TIP3   OH222992   5.965   2.768   7.782  0.2430  0.4014  0.1451
  478TIP3    H122993   5.880   2.797   7.814  0.7813 -0.2386  2.2814
  478TIP3    H222994   6.002   2.846   7.740 -1.1190  0.8443 -0.3090
  479TIP3   OH222995   3.253   4.584   1.067 -0.2281 -0.3845 -0.0923
  479TIP3    H122996   3.190   4.521   1.032 -0.2690 -0.7234  0.5830
  479TIP3    H222997   3.308   4.533   1.127  0.9993 -0.1987 -1.0165
  480TIP3   OH222998   1.731   1.791   0.900 -0.5442 -0.4460 -0.1866
  480TIP3    H122999   1.734   1.838   0.816 -2.1858 -0.3664 -0.2351
  480TIP3    H223000   1.822   1.783   0.926 -0.1502  2.3903 -0.3824
  481TIP3   OH223001   0.139   3.734   1.842 -0.1896 -0.1949 -0.7744
  481TIP3    H123002   0.124   3.658   1.786 -0.6907 -0.1105 -0.7603
  481TIP3    H223003   0.086   3.717   1.920  0.1964 -0.1282 -0.4967
  482TIP3   OH223004   3.035   4.775   7.648 -0.0721  0.0424 -0.5041
  482TIP3    H123005   2.943   4.796   7.664 -0.5293 -1.2881 -1.2117
  482TIP3    H223006   3.058   4.826   7.571  0.6118  2.4284  1.1596
  483TIP3   OH223007   2.810   0.706   0.887 -0.2229  0.4759  0.1007
  483TIP3    H123008   2.862   0.786   0.895 -0.5956  0.6063  1.6166
  483TIP3    H223009   2.721   0.733   0.907 -0.3605 -0.3042  0.5849
  484TIP3   OH223010   5.464   2.458   7.040  0.0664 -0.4688  0.2461
  484TIP3    H123011   5.495   2.368   7.052  0.9544 -0.4237 -1.4203
  484TIP3    H223012   5.410   2.475   7.117  2.1566 -1.4461  2.0549
  485TIP3   OH223013   3.663   6.633   7.520  0.2855  0.1581  0.2696
  485TIP3    H123014   3.671   6.606   7.428 -1.6759  0.4922 -0.0513
  485TIP3    H223015   3.726   6.704   7.530  0.9989 -0.3317 -0.6359
  486TIP3   OH223016   5.226   2.071   1.368  0.2836  0.5155 -0.4431
  486TIP3    H123017   5.216   2.014   1.444 -1.3946  0.7606 -0.4396
  486TIP3    H223018   5.190   2.155   1.396  1.0977  1.0777 -1.0264
  487TIP3   OH223019   3.189   2.037   1.706  0.6219 -0.6703 -0.2172
  487TIP3    H123020   3.242   2.116   1.716  2.2534 -1.5864 -1.1163
  487TIP3    H223021   3.124   2.059   1.639  2.3939 -0.6666 -2.0439
  488TIP3   OH223022   2.562   0.800   0.982 -0.1281 -0.4136  0.1689
  488TIP3    H123023   2.523   0.832   0.901 -0.4904 -1.1819  0.0247
  488TIP3    H223024   2.526   0.857   1.050  1.4081  1.2396 -0.3550
  489TIP3   OH223025   2.524   5.799   7.721  0.2382  0.3222 -0.0098
  489TIP3    H123026   2.577   5.874   7.695  1.3262 -0.0422  1.0456
  489TIP3    H223027   2.434   5.825   7.703  0.7861  0.5786 -2.8374
  490TIP3   OH223028   0.676   1.599   0.136 -0.2293 -0.3665  0.2396
  490TIP3    H123029   0.614   1.601   0.063 -0.7724  1.4112  0.7229
  490TIP3    H223030   0.675   1.508   0.165 -1.2047 -0.7627 -0.9474
  491TIP3   OH223031   0.545   0.251   1.501 -0.1424  0.4998 -0.0872
  491TIP3    H123032   0.523   0.296   1.582 -1.0251  1.0616 -0.6210
  491TIP3    H223033   0.485   0.176   1.499  0.8288 -0.3122  0.4447
  492TIP3   OH223034   5.423   2.909   0.346 -0.5730  0.4139  0.7857
  492TIP3    H123035   5.457   2.998   0.345  2.4247 -0.5685  2.1525
  492TIP3    H223036   5.491   2.858   0.391 -1.3727 -2.8854 -1.4014
  493TIP3   OH223037   5.586   3.328   8.319  0.1553  0.2659  0.1455
  493TIP3    H123038   5.630   3.248   8.347  0.2244  0.3998  0.4167
  493TIP3    H223039   5.657   3.385   8.289  0.0725  0.0770 -0.4195
  494TIP3   OH223040   1.092   2.274   7.242 -0.7638 -0.3205 -0.2830
  494TIP3    H123041   1.043   2.328   7.304 -0.9711  0.2223 -0.9112
  494TIP3    H223042   1.184   2.296   7.258 -0.8844  0.8147 -1.0636
  495TIP3   OH223043   2.742   0.635   1.640  0.2523  0.5163  0.2337
  495TIP3    H123044   2.750   0.593   1.726 -1.6033  1.3146  0.8543
  495TIP3    H223045   2.760   0.565   1.577 -2.0148 -1.0822  1.2277
  496TIP3   OH223046   1.136   5.616   1.639 -0.1062 -0.1754 -0.5741
  496TIP3    H123047   1.077   5.557   1.592 -0.6448 -0.1849  0.1052
  496TIP3    H223048   1.126   5.593   1.731 -2.6847  2.9283  0.1398
  497TIP3   OH223049   4.839   4.718   8.617  0.3199  0.2882 -0.5785
  497TIP3    H123050   4.762   4.771   8.638  0.6091  0.5762 -0.2322
  497TIP3    H223051   4.891   4.718   8.697  0.0714 -0.9780 -0.3959
  498TIP3   OH223052   1.299   6.701   6.744  0.3048  0.1482 -0.3731
  498TIP3    H123053   1.223   6.643   6.750  0.9961 -0.7194  0.3840
  498TIP3    H223054   1.305   6.724   6.651 -0.8225  0.1681 -0.4537
  499TIP3   OH223055   4.632   2.966   7.006  0.4738 -0.6891 -0.6949
  499TIP3    H123056   4.687   3.042   6.987 -0.4716  0.0936 -0.3861
  499TIP3    H223057   4.685   2.911   7.062  1.4877 -0.6704 -1.6129
  500TIP3   OH223058   1.238   1.060   7.967 -0.3119  0.3000  0.4010
  500TIP3    H123059   1.189   1.115   8.028 -0.7700  0.0584  0.2543
  500TIP3    H223060   1.235   0.972   8.006 -0.9599  0.0592 -0.1667
  501TIP3   OH223061   6.228   0.298   1.271 -0.4218  0.6313 -0.3858
  501TIP3    H123062   6.151   0.296   1.214 -1.2500 -0.5326  0.7287
  501TIP3    H223063   6.271   0.213   1.257 -2.6300 -1.3318  3.2637
  502TIP3   OH223064   4.496   1.056   7.799 -0.1001 -0.0345  0.1643
  502TIP3    H123065   4.561   1.126   7.790  0.2772 -0.4951 -0.9134
  502TIP3    H223066   4.548   0.976   7.808 -0.5289 -0.2415  0.8732
  503TIP3   OH223067   4.876   1.503   1.220  0.4197  0.0842 -0.0266
  503TIP3    H123068   4.931   1.551   1.158  0.5386 -0.4126 -0.3140
  503TIP3    H223069   4.787   1.529   1.197  0.5460  1.6177  1.0461
  504TIP3   OH223070   0.806   1.307   7.231  0.5720  0.2824 -0.6045
  504TIP3    H123071   0.872   1.265   7.286  0.2734  0.0904 -0.3902
  504TIP3    H223072   0.841   1.301   7.142  0.1051 -1.2917 -0.7161
  505TIP3   OH223073   4.869   3.035   2.237 -0.4111  0.1092  0.2435
  505TIP3    H123074   4.849   3.049   2.145  0.8057 -0.1360 -0.0731
  505TIP3    H223075   4.965   3.035   2.242 -0.4508 -0.0033  1.4864
  506TIP3   OH223076   0.355   1.781   7.538 -0.1873 -0.1036  0.1304
  506TIP3    H123077   0.368   1.722   7.464 -0.7383 -1.1759  0.8637
  506TIP3    H223078   0.436   1.831   7.543  0.1619 -0.5666 -0.7143
  507TIP3   OH223079   1.560   3.926   2.520 -0.6123  0.0930  0.0897
  507TIP3    H123080   1.594   4.015   2.508 -2.2528  0.8952  1.0233
  507TIP3    H223081   1.547   3.918   2.614 -2.0362 -0.5166 -0.1352
  508TIP3   OH223082   5.587   6.536   8.554 -0.4987 -0.3637  0.1054
  508TIP3    H123083   5.572   6.505   8.465 -0.9812 -1.4257  0.5450
  508TIP3    H223084   5.658   6.600   8.545  2.2328 -3.2296 -0.5636
  509TIP3   OH223085   1.797   5.951   1.396  0.0505 -0.3260 -0.0660
  509TIP3    H123086   1.887   5.944   1.363 -0.1544 -2.6493 -0.2873
  509TIP3    H223087   1.806   5.990   1.483  1.2422 -0.3524 -0.1637
  510TIP3   OH223088   6.863   2.269   8.128 -0.1424 -0.5793 -0.0852
  510TIP3    H123089   6.856   2.197   8.065  1.5311 -0.3235 -0.6170
  510TIP3    H223090   6.954   2.299   8.120 -0.1329  0.0277  1.8488
  511TIP3   OH223091   0.372   0.133   8.231 -0.2733 -0.3577  0.2895
  511TIP3    H123092   0.344   0.078   8.157  0.2161 -0.8584  0.4637
  511TIP3    H223093   0.451   0.177   8.199 -1.1488  0.9515 -0.1570
  512TIP3   OH223094   6.503   0.177   7.899 -0.2041  0.3477  0.2883
  512TIP3    H123095   6.549   0.126   7.832 -2.2517 -0.2120 -0.7836
  512TIP3    H223096   6.490   0.115   7.971  0.3546  0.3966  0.4363
  513TIP3   OH223097   1.809   0.006   7.393  0.6389 -0.5682 -0.2374
  513TIP3    H123098   1.787  -0.081   7.425 -0.2388  0.1138  1.1174
  513TIP3    H223099   1.751   0.020   7.318 -0.8866 -0.2581  0.9811
  514TIP3   OH223100   4.142   4.525   0.085 -0.1876  0.0794  0.0239
  514TIP3    H123101   4.203   4.597   0.100  0.7301 -0.9369  1.3955
  514TIP3    H223102   4.078   4.561   0.024  0.8484  1.7028 -0.1837
  515TIP3   OH223103   0.196   1.186   2.065  0.6408 -0.0017  0.4412
  515TIP3    H123104   0.206   1.115   2.001 -1.4885 -0.1571  0.2255
  515TIP3    H223105   0.231   1.263   2.021  1.3683 -0.5672  0.0046
  516TIP3   OH223106   3.257   1.137   7.898  0.3233  0.0083 -0.6162
  516TIP3    H123107   3.242   1.173   7.811 -2.3154  1.5627  0.3639
  516TIP3    H223108   3.180   1.082   7.915 -0.0432  1.0192  1.3105
  517TIP3   OH223109   6.847   4.222   1.232  0.3744 -0.3030  0.1626
  517TIP3    H123110   6.827   4.297   1.288  0.6225 -1.5011  1.9026
  517TIP3    H223111   6.846   4.259   1.143 -0.8614  1.4693  0.8441
  518TIP3   OH223112   4.251   4.110   8.191  0.3652  0.5934 -0.1420
  518TIP3    H123113   4.249   4.206   8.186  2.5255  0.7125  0.3186
  518TIP3    H223114   4.232   4.090   8.282  1.2778  0.6751  0.0726
  519TIP3   OH223115   0.899   6.660   1.101 -0.0689 -0.0444  0.1625
  519TIP3    H123116   0.948   6.740   1.121 -1.3874  1.1361 -1.1219
  519TIP3    H223117   0.847   6.643   1.180  0.6715  0.0124  0.6677
  520TIP3   OH223118   5.134   0.369   7.634 -0.4665 -0.3621 -0.3255
  520TIP3    H123119   5.060   0.388   7.577 -0.5741  0.7014  0.1394
  520TIP3    H223120   5.185   0.450   7.634  0.1737 -0.7574  0.1353
  521TIP3   OH223121   6.669   5.615   0.297  0.0784 -0.1157 -0.3083
  521TIP3    H123122   6.669   5.711   0.303  1.5912 -0.0848 -0.4339
  521TIP3    H223123   6.635   5.586   0.382  1.2552  0.5268  0.4117
  522TIP3   OH223124   2.866   3.368   8.135  0.1820 -0.1958  0.4418
  522TIP3    H123125   2.815   3.286   8.131  0.4066 -0.4348  1.8285
  522TIP3    H223126   2.890   3.376   8.228  1.9377  0.3652 -0.0300
  523TIP3   OH223127   3.547   6.283   0.379  0.1041  0.3993 -0.6590
  523TIP3    H123128   3.574   6.374   0.391  2.2365 -0.4229  1.7130
  523TIP3    H223129   3.529   6.251   0.467 -1.1436 -1.3557 -1.4849
  524TIP3   OH223130   5.552   2.086   1.598  0.4349 -0.5379 -0.0554
  524TIP3    H123131   5.495   2.143   1.650  2.0331  0.5453  0.5867
  524TIP3    H223132   5.588   2.024   1.662 -1.3386 -2.4255 -0.7528
  525TIP3   OH223133   5.775   1.239   0.391 -0.7134  0.3335  0.7717
  525TIP3    H123134   5.712   1.191   0.337 -2.6791  1.6934  1.6968
  525TIP3    H223135   5.817   1.172   0.444 -1.1811 -0.6688 -0.0863
  526TIP3   OH223136   3.244   3.497   0.058  0.0008  0.2283 -0.0020
  526TIP3    H123137   3.338   3.515   0.059  0.1502 -0.5102  1.2474
  526TIP3    H223138   3.227   3.468  -0.032  0.9578  0.4032 -0.2585
  527TIP3   OH223139   4.102   4.281   7.508 -0.3859 -0.0932 -0.0093
  527TIP3    H123140   4.061   4.215   7.565  0.3800 -0.5525  0.0345
  527TIP3    H223141   4.095   4.363   7.557 -0.0021 -0.4307  0.6244
  528TIP3   OH223142   2.489   0.595   6.419  0.1315 -0.0921 -0.1285
  528TIP3    H123143   2.510   0.511   6.378  2.3706  0.3727 -0.0513
  528TIP3    H223144   2.556   0.655   6.385 -0.9073  1.4577  0.4869
  529TIP3   OH223145   6.242   5.776   6.220  0.5637 -0.9718 -0.4722
  529TIP3    H123146   6.269   5.700   6.168  4.0028 -0.6727  0.6622
  529TIP3    H223147   6.322   5.826   6.234 -0.8433  0.7667  2.1952
  530TIP3   OH223148   3.121   3.280   1.235 -0.0423  0.1820 -0.0777
  530TIP3    H123149   3.096   3.266   1.326 -0.3058  0.5310 -0.0944
  530TIP3    H223150   3.096   3.199   1.190 -2.0204  0.8428 -0.2713
  531TIP3   OH223151   3.088   2.098   7.920 -0.2772 -0.5430  0.4359
  531TIP3    H123152   3.153   2.035   7.888 -1.5599 -1.3898 -0.6197
  531TIP3    H223153   3.140   2.171   7.953  1.2062 -1.1273 -0.4880
  532TIP3   OH223154   1.935   4.082   0.196 -0.4237 -0.0622 -0.4220
  532TIP3    H123155   1.999   4.104   0.128  2.1786  0.2942  1.9622
  532TIP3    H223156   1.892   4.004   0.163  1.2730 -0.3645 -2.1480
  533TIP3   OH223157   1.084   4.525   6.280  0.1631  0.3626 -0.0362
  533TIP3    H123158   1.094   4.430   6.286 -0.2127  0.3406  0.2800
  533TIP3    H223159   0.990   4.539   6.281  0.1703  0.6516 -1.6667
  534TIP3   OH223160   5.496   6.480   8.298 -0.0312  0.1430 -0.3692
  534TIP3    H123161   5.402   6.496   8.308 -0.5509 -2.1192 -1.0320
  534TIP3    H223162   5.502   6.429   8.217  1.5263 -1.5025  0.7170
  535TIP3   OH223163   4.578   4.241   0.451 -0.2546 -0.0787  0.4487
  535TIP3    H123164   4.527   4.285   0.383  0.6874 -0.0110 -0.2346
  535TIP3    H223165   4.666   4.234   0.414  0.2060 -0.2989  1.5533
  536TIP3   OH223166   0.108   3.965   7.884 -0.8222  0.8297  0.4416
  536TIP3    H123167   0.154   4.037   7.929  1.9059 -0.0912 -0.6313
  536TIP3    H223168   0.101   3.995   7.794 -1.0852  0.3884  0.3163
  537TIP3   OH223169   0.255   1.870   0.602  0.0755 -0.3868  0.1001
  537TIP3    H123170   0.207   1.821   0.535 -0.0907 -0.7066  0.4476
  537TIP3    H223171   0.201   1.947   0.620 -0.1163 -0.5476  0.2109
  538TIP3   OH223172   1.162   1.804   8.534 -0.2119  0.3723 -0.5670
  538TIP3    H123173   1.240   1.856   8.553  0.6020 -1.8490  3.0028
  538TIP3    H223174   1.091   1.847   8.582  0.1251 -0.7657  1.0310
  539TIP3   OH223175   3.485   6.337   7.898 -0.6043 -0.3718  0.1167
  539TIP3    H123176   3.430   6.306   7.970 -0.0750 -0.7375  0.3682
  539TIP3    H223177   3.423   6.363   7.830 -1.1875  1.4295  1.2598
  540TIP3   OH223178   0.299   0.933   1.948  0.3067  0.1520  0.3238
  540TIP3    H123179   0.220   0.880   1.947 -0.6788  1.4689  2.0283
  540TIP3    H223180   0.356   0.891   2.012 -0.3757  0.9561  1.4957
  541TIP3   OH223181   4.279   2.230   0.884  0.2932 -0.0587  0.1421
  541TIP3    H123182   4.323   2.199   0.963 -0.5808 -1.7197  0.0317
  541TIP3    H223183   4.252   2.150   0.839 -1.8886  0.8417 -0.3065
  542TIP3   OH223184   2.361   3.160   1.220  0.3887  0.0709  0.0098
  542TIP3    H123185   2.340   3.247   1.254 -0.9445  0.5948 -1.9790
  542TIP3    H223186   2.297   3.145   1.150  1.6264 -1.8138 -0.8155
  543TIP3   OH223187   0.434   1.174   8.401 -0.3642 -0.5555 -0.3430
  543TIP3    H123188   0.447   1.152   8.309  0.3315 -0.5998 -0.2353
  543TIP3    H223189   0.388   1.258   8.399  1.6258  0.5656 -0.7263
  544TIP3   OH223190   1.908   3.312   1.426  0.1105  0.5472  0.4596
  544TIP3    H123191   1.974   3.365   1.470  0.7707  0.3339 -0.2636
  544TIP3    H223192   1.910   3.228   1.472  0.1634  0.6183  0.5894
  545TIP3   OH223193   3.068   2.033   2.469 -0.0968  0.5006  0.7761
  545TIP3    H123194   2.988   2.046   2.418  0.4953 -1.5087 -0.8126
  545TIP3    H223195   3.113   2.117   2.467 -2.2195  1.7276  1.8758
  546TIP3   OH223196   4.314   5.139   7.275  0.6496  0.1911 -0.0381
  546TIP3    H123197   4.221   5.154   7.256  0.1970  0.1005  1.9071
  546TIP3    H223198   4.351   5.111   7.191 -1.0843  0.1626 -0.8454
  547TIP3   OH223199   0.183   4.540   0.943  0.1102 -0.6429 -0.1970
  547TIP3    H123200   0.265   4.561   0.898  0.4884  0.9042  1.1287
  547TIP3    H223201   0.127   4.616   0.927 -0.7306 -1.2626 -0.2707
  548TIP3   OH223202   1.435   0.257   0.376  0.6180 -0.1150 -0.0917
  548TIP3    H123203   1.373   0.233   0.306  1.5433  0.5186 -1.1584
  548TIP3    H223204   1.384   0.247   0.456 -0.6990 -0.1785 -0.8922
  549TIP3   OH223205   1.086   3.149   0.382  0.6382 -0.0769 -0.2043
  549TIP3    H123206   1.132   3.075   0.421 -1.2836 -0.9018  0.6060
  549TIP3    H223207   1.101   3.140   0.288  0.0503 -1.7954 -0.1634
  550TIP3   OH223208   6.786   0.900   1.375 -0.4698  0.3614 -0.5010
  550TIP3    H123209   6.719   0.833   1.357 -2.2432  1.0623  2.7513
  550TIP3    H223210   6.774   0.965   1.305 -1.2821 -0.8630 -1.5542
  551TIP3   OH223211   3.366   4.604   7.430  0.3381  0.0804 -0.0904
  551TIP3    H123212   3.305   4.671   7.397  1.5454  0.8630 -0.7954
  551TIP3    H223213   3.316   4.522   7.426 -1.4842  1.0236  1.6436
  552TIP3   OH223214   6.196   6.507   0.057 -0.5581 -0.2581 -0.4731
  552TIP3    H123215   6.103   6.528   0.045 -0.7077  0.7979  1.8727
  552TIP3    H223216   6.239   6.592   0.057 -0.1092 -0.4123  1.7579
  553TIP3   OH223217   3.068   6.579   6.950 -0.0655 -0.6888 -0.7827
  553TIP3    H123218   3.090   6.672   6.944 -0.9184 -0.4319 -0.1386
  553TIP3    H223219   3.090   6.544   6.863  1.3794 -0.1555 -0.6619
  554TIP3   OH223220   3.546   0.701   1.612 -0.2591 -0.3972 -0.4573
  554TIP3    H123221   3.637   0.685   1.586 -0.5617 -0.6125 -1.4449
  554TIP3    H223222   3.535   0.653   1.694  0.4347 -0.6125 -0.4849
  555TIP3   OH223223   2.487   0.702   1.733 -0.3659  0.2965 -0.2622
  555TIP3    H123224   2.575   0.696   1.695 -0.2742  0.6483 -0.1081
  555TIP3    H223225   2.499   0.752   1.813 -1.0436  2.2897 -1.3482
  556TIP3   OH223226   3.162   0.829   7.603 -0.1395  0.4961  0.1478
  556TIP3    H123227   3.173   0.903   7.544  3.5076  0.0017 -0.0178
  556TIP3    H223228   3.210   0.854   7.683 -0.4873 -0.9069  0.8350
  557TIP3   OH223229   5.507   3.371   6.679 -0.7271 -0.0174  0.2570
  557TIP3    H123230   5.482   3.285   6.711  1.2598 -0.8825 -0.3392
  557TIP3    H223231   5.490   3.368   6.585 -0.0573  0.0114  0.1330
  558TIP3   OH223232   5.503   4.045   0.214  0.1733  0.2338  0.0741
  558TIP3    H123233   5.514   4.116   0.278  0.5623  1.3021 -1.1247
  558TIP3    H223234   5.453   3.978   0.260 -0.4847  1.4320  1.1511
  559TIP3   OH223235   3.633   5.218   0.856  0.3235  0.3705 -0.0082
  559TIP3    H123236   3.593   5.156   0.795 -0.6348 -0.5305  1.4750
  559TIP3    H223237   3.611   5.185   0.943  1.5032  1.7020  0.8557
  560TIP3   OH223238   2.199   0.973   6.239 -0.5421 -0.1476  0.0293
  560TIP3    H123239   2.114   0.979   6.283 -1.2513  1.5654 -1.4560
  560TIP3    H223240   2.188   1.022   6.158  1.5519 -0.8440 -0.7564
  561TIP3   OH223241   6.790   6.594   7.894  0.2257 -0.1727 -0.3950
  561TIP3    H123242   6.762   6.649   7.967 -1.0616  0.9272 -1.6633
  561TIP3    H223243   6.721   6.528   7.887  0.4916 -0.4466 -0.4352
  562TIP3   OH223244   3.513   4.787   8.354 -0.1343  0.4132  0.1405
  562TIP3    H123245   3.593   4.809   8.306 -0.9016 -1.2183 -2.0597
  562TIP3    H223246   3.537   4.798   8.446  2.6787 -0.1293 -0.4154
  563TIP3   OH223247   0.052   5.052   1.313  0.5442 -0.1307  0.2285
  563TIP3    H123248  -0.040   5.064   1.289  0.7444 -0.7931 -0.8872
  563TIP3    H223249   0.087   4.992   1.248  2.3326  1.7537 -0.6740
  564TIP3   OH223250   1.485   1.441   7.291  0.2831 -0.0070 -0.4824
  564TIP3    H123251   1.396   1.407   7.293  0.3049 -0.2955 -2.3172
  564TIP3    H223252   1.475   1.536   7.294  0.0457 -0.0640  1.2838
  565TIP3   OH223253   0.258   6.463   1.011 -0.7873  0.1589  0.5784
  565TIP3    H123254   0.251   6.531   0.945  1.9341  2.6810  2.6417
  565TIP3    H223255   0.319   6.399   0.974 -1.2106  0.2514 -0.2910
  566TIP3   OH223256   0.105   1.483   0.996  0.1636 -0.1308  0.0956
  566TIP3    H123257   0.093   1.491   1.091 -0.2520 -1.0356  0.1241
  566TIP3    H223258   0.200   1.479   0.984  0.2041 -0.3649  0.5004
  567TIP3   OH223259   4.776   1.096   7.819 -0.3072 -0.0508 -0.1269
  567TIP3    H123260   4.806   1.161   7.755  0.2607  1.9570  2.0286
  567TIP3    H223261   4.818   1.123   7.901 -0.8820 -2.6012  1.0837
  568TIP3   OH223262   2.677   2.939   1.715 -0.5415  0.0061 -0.6316
  568TIP3    H123263   2.654   2.847   1.726  0.7582 -0.3311 -0.5143
  568TIP3    H223264   2.679   2.973   1.805  2.2131 -0.7294 -0.3127
  569TIP3   OH223265   1.895   2.153   7.908  0.1677  0.4352 -0.5174
  569TIP3    H123266   1.984   2.161   7.874  0.6271 -0.9110  0.2834
  569TIP3    H223267   1.852   2.090   7.850 -0.0737  0.6291 -0.5507
  570TIP3   OH223268   5.649   6.112   7.489  0.5040 -0.5480 -0.2442
  570TIP3    H123269   5.687   6.028   7.515 -0.3934 -1.1161 -0.6952
  570TIP3    H223270   5.659   6.113   7.393 -1.9750 -1.4496 -0.5823
  571TIP3   OH223271   1.873   4.608   0.900 -0.2560  0.2641 -0.4380
  571TIP3    H123272   1.902   4.529   0.946 -1.6003  0.1852  0.3213
  571TIP3    H223273   1.948   4.634   0.847  0.5987 -0.8684  0.1828
  572TIP3   OH223274   3.155   1.330   0.159 -0.1838  0.1502 -0.1710
  572TIP3    H123275   3.132   1.238   0.168 -2.0598  0.5641 -0.2572
  572TIP3    H223276   3.088   1.366   0.100  0.1182  1.6998  0.3718
  573TIP3   OH223277   1.551   1.720   1.113 -0.0951 -0.7580 -0.0395
  573TIP3    H123278   1.625   1.729   1.053 -0.2324  0.6088 -0.0126
  573TIP3    H223279   1.578   1.767   1.192 -0.9752 -0.2903 -0.0125
  574TIP3   OH223280   1.267   3.014   8.174 -0.2573 -0.3397 -0.0638
  574TIP3    H123281   1.179   3.011   8.137 -0.5019  0.8226  0.3767
  574TIP3    H223282   1.303   3.097   8.141  0.7580 -0.9118 -0.4295
  575TIP3   OH223283   1.929   0.341   0.814 -0.3047  0.1147 -0.0109
  575TIP3    H123284   1.880   0.411   0.772 -0.0135  1.9172  2.4393
  575TIP3    H223285   1.867   0.303   0.876  0.0418 -0.7277 -0.1665
  576TIP3   OH223286   4.748   6.378   7.651 -0.3070  0.3575  0.4261
  576TIP3    H123287   4.807   6.321   7.601 -0.7731  0.9084 -0.8089
  576TIP3    H223288   4.805   6.422   7.714  0.4908  0.3502 -0.2717
  577TIP3   OH223289   1.450   0.920   0.384  0.0669 -0.6464 -0.2546
  577TIP3    H123290   1.424   0.904   0.474 -2.2685  0.6171 -0.6076
  577TIP3    H223291   1.507   0.997   0.389  0.7956 -1.2076  0.2192
  578TIP3   OH223292   4.686   0.307   0.289 -0.9974  0.5775  0.2715
  578TIP3    H123293   4.708   0.221   0.253 -3.4315  0.6815 -1.7818
  578TIP3    H223294   4.758   0.364   0.262 -0.5041 -0.3491 -0.4164
  579TIP3   OH223295   4.468   2.318   6.938  0.0366  0.0619 -0.2639
  579TIP3    H123296   4.491   2.230   6.908  1.3817  0.2385  0.1863
  579TIP3    H223297   4.486   2.374   6.863 -1.6899 -0.1431 -0.8526
  580TIP3   OH223298   3.181   4.420   0.553 -0.3962  0.8234 -0.4935
  580TIP3    H123299   3.176   4.345   0.495 -0.4725  0.6575 -0.2733
  580TIP3    H223300   3.102   4.415   0.607  1.3830 -1.1808  2.2005
  581TIP3   OH223301   3.060   4.511   7.270  0.3542  0.0534  0.0196
  581TIP3    H123302   3.075   4.435   7.326 -0.1676 -0.7329 -0.8681
  581TIP3    H223303   2.984   4.555   7.308 -0.7025 -1.1004 -0.6550
  582TIP3   OH223304   6.638   5.755   7.756 -0.1306  0.0921 -0.1509
  582TIP3    H123305   6.686   5.835   7.733  1.3875 -0.6444  0.3445
  582TIP3    H223306   6.672   5.731   7.843 -0.8089 -0.9019 -0.1520
  583TIP3   OH223307   2.938   2.522   8.578  0.4754  0.1325 -0.5693
  583TIP3    H123308   2.997   2.593   8.552 -0.7834  1.0185 -1.1322
  583TIP3    H223309   2.996   2.449   8.599  1.7342  0.6550 -2.0260
  584TIP3   OH223310   0.023   0.846   6.600 -0.0145 -0.3632 -0.0180
  584TIP3    H123311   0.066   0.785   6.540 -0.5084 -1.3092  0.5638
  584TIP3    H223312  -0.022   0.908   6.542  1.3809  0.1392 -0.6283
  585TIP3   OH223313   1.063   4.170   8.592  0.9919 -0.4337 -0.1790
  585TIP3    H123314   1.146   4.123   8.583  1.0835 -0.2919 -0.0782
  585TIP3    H223315   1.003   4.107   8.632  1.2820 -0.2825  0.5180
  586TIP3   OH223316   4.118   3.990   1.588  0.1120  0.0930  0.4502
  586TIP3    H123317   4.156   4.061   1.537  0.8150  0.0641  0.9195
  586TIP3    H223318   4.193   3.942   1.623 -0.3379 -1.7671 -1.0277
  587TIP3   OH223319   3.735   2.382   7.782 -0.1902  0.0982 -0.1938
  587TIP3    H123320   3.667   2.350   7.724  0.9296 -2.0925 -0.4138
  587TIP3    H223321   3.734   2.321   7.856 -0.8908  2.2029  1.6609
  588TIP3   OH223322   6.682   5.611   1.773 -0.6204  0.0671 -0.2932
  588TIP3    H123323   6.677   5.706   1.783  0.0663 -0.0016  0.8252
  588TIP3    H223324   6.619   5.577   1.836 -0.8001 -0.2334 -0.6305
  589TIP3   OH223325   1.886   2.310   6.147  0.7405  0.8957  0.1259
  589TIP3    H123326   1.793   2.287   6.156  0.7877  1.0011  1.0216
  589TIP3    H223327   1.923   2.241   6.093  0.0645  1.0589 -0.5687
  590TIP3   OH223328   6.465   3.100   0.968  0.5024  0.3503  0.0085
  590TIP3    H123329   6.552   3.060   0.974 -0.0842 -0.9582 -0.0155
  590TIP3    H223330   6.404   3.028   0.981 -0.6109  1.0547 -1.1128
  591TIP3   OH223331   4.812   3.125   0.096  0.8009 -0.2955  0.9994
  591TIP3    H123332   4.756   3.137   0.172 -2.1237 -0.2987 -1.0118
  591TIP3    H223333   4.799   3.205   0.044  1.8610 -0.7646 -0.0331
  592TIP3   OH223334   1.734   2.925   0.367 -0.2511 -0.1260 -0.2561
  592TIP3    H123335   1.749   2.908   0.274  1.6864  1.6251 -0.3477
  592TIP3    H223336   1.750   3.019   0.376  0.1015 -0.3604  1.9304
  593TIP3   OH223337   6.004   3.124   6.204 -0.2634 -0.0592 -0.2836
  593TIP3    H123338   6.029   3.038   6.169  2.1637  0.3548  0.2534
  593TIP3    H223339   6.082   3.153   6.252 -0.9810  2.4917 -0.5606
  594TIP3   OH223340   0.390   1.658   2.259  0.1221 -0.3368 -0.2411
  594TIP3    H123341   0.309   1.662   2.209 -1.2043  1.3196  1.8639
  594TIP3    H223342   0.422   1.748   2.261  0.3588 -0.4303  1.4789
  595TIP3   OH223343   4.328   0.584   1.099 -0.1052  0.7555 -0.3912
  595TIP3    H123344   4.399   0.600   1.161 -0.2046  0.6641 -0.2518
  595TIP3    H223345   4.249   0.580   1.154 -0.0199 -0.7332 -0.3513
  596TIP3   OH223346   3.412   3.879   7.641 -0.2429 -0.2298  0.5735
  596TIP3    H123347   3.410   3.963   7.595  0.0784  0.7610  2.2676
  596TIP3    H223348   3.442   3.816   7.575 -0.0924  1.0461 -0.6300
  597TIP3   OH223349   2.028   1.543   8.601 -1.4161 -0.1204  0.6600
  597TIP3    H123350   2.067   1.510   8.682 -0.9251  0.0060  0.4774
  597TIP3    H223351   2.100   1.585   8.555 -1.8276  0.3434  0.4359
  598TIP3   OH223352   4.554   1.254   2.230  0.2612  0.2383  0.3441
  598TIP3    H123353   4.629   1.234   2.286 -0.8203  0.7047  2.0265
  598TIP3    H223354   4.584   1.328   2.177  0.7578  0.9422  1.5616
  599TIP3   OH223355   2.017   3.718   8.274 -0.2753  0.3246 -0.1716
  599TIP3    H123356   2.110   3.725   8.250 -0.3059 -1.1128 -0.8032
  599TIP3    H223357   1.983   3.807   8.262  0.3319  0.2960 -3.0192
  600TIP3   OH223358   0.581   3.273   7.094  0.1632 -0.0510 -0.1850
  600TIP3    H123359   0.659   3.324   7.112 -0.2932 -0.0414  1.9341
  600TIP3    H223360   0.614   3.186   7.069  0.8727 -0.1997  1.1909
  601TIP3   OH223361   5.382   6.332   0.606  0.1504  0.2678 -0.1172
  601TIP3    H123362   5.445   6.401   0.626 -0.1569  0.9413 -1.3188
  601TIP3    H223363   5.380   6.330   0.510 -0.0382 -1.2481 -0.0966
  602TIP3   OH223364   2.473   4.041   1.019  0.5796 -0.0334  0.4005
  602TIP3    H123365   2.447   4.097   0.946  0.8979 -0.7104 -0.2402
  602TIP3    H223366   2.420   3.962   1.008 -0.1651  0.2757  1.5315
  603TIP3   OH223367   2.188   3.128   0.518  0.3607 -0.0699 -0.0593
  603TIP3    H123368   2.167   3.060   0.583 -0.7129  1.6260  1.4676
  603TIP3    H223369   2.108   3.137   0.466  0.7537 -0.4572 -0.7474
  604TIP3   OH223370   5.492   3.850   1.696  0.6473  0.0628 -0.3827
  604TIP3    H123371   5.442   3.783   1.650 -0.9135  0.8343  0.1171
  604TIP3    H223372   5.533   3.803   1.769 -2.3577 -0.0718  1.4135
  605TIP3   OH223373   3.052   2.457   8.043  0.2886  0.0464 -0.2535
  605TIP3    H123374   3.082   2.383   8.095  0.5013  1.1520  1.2806
  605TIP3    H223375   3.132   2.506   8.024 -0.0356  0.8069  0.2880
  606TIP3   OH223376   3.534   2.714   0.168  0.4662 -0.2759 -0.1025
  606TIP3    H123377   3.537   2.618   0.166  0.7446 -0.3009  0.8488
  606TIP3    H223378   3.482   2.734   0.246 -0.5023  0.3493 -0.8963
  607TIP3   OH223379   3.285   1.631   2.355 -0.2188 -0.1030  0.1324
  607TIP3    H123380   3.223   1.595   2.292  0.0904  1.6600 -1.2708
  607TIP3    H223381   3.230   1.675   2.421 -0.5029  0.8319 -0.7085
  608TIP3   OH223382   4.993   3.202   7.117 -0.3107 -0.0574 -0.0962
  608TIP3    H123383   4.907   3.174   7.084 -1.1421  1.6605  0.5138
  608TIP3    H223384   5.008   3.287   7.075 -1.0090  1.8240  3.1382
  609TIP3   OH223385   0.144   3.923   1.277  0.3695  0.1075 -0.0054
  609TIP3    H123386   0.146   3.830   1.255  0.6072 -0.4446  2.0633
  609TIP3    H223387   0.054   3.950   1.263 -0.3159 -1.1134  1.6559
  610TIP3   OH223388   3.899   2.468   1.656 -0.0506 -0.5752  0.2256
  610TIP3    H123389   3.955   2.424   1.592  0.6164  1.9945 -1.0861
  610TIP3    H223390   3.821   2.413   1.661  0.7719 -1.9549 -1.2089
  611TIP3   OH223391   3.162   6.682   1.087 -0.1072  0.0660  0.4542
  611TIP3    H123392   3.082   6.645   1.050  0.4269 -1.7665  1.0374
  611TIP3    H223393   3.219   6.607   1.101  0.6540  0.9812  2.6510
  612TIP3   OH223394   2.233   5.989   6.984  0.1866 -0.1424  0.6085
  612TIP3    H123395   2.159   6.050   6.979  1.1985  1.0349 -1.5030
  612TIP3    H223396   2.196   5.904   6.962 -0.7917  0.1490  1.0561
  613TIP3   OH223397   0.721   0.873   0.915  0.1297 -0.1338 -0.6327
  613TIP3    H123398   0.751   0.917   0.994 -0.7872  0.9468 -0.8739
  613TIP3    H223399   0.651   0.815   0.945 -0.1732  0.2273 -0.6353
  614TIP3   OH223400   2.280   3.874   2.207  0.1114  0.3689  0.2037
  614TIP3    H123401   2.299   3.865   2.300 -0.8086 -0.9565  0.2879
  614TIP3    H223402   2.297   3.967   2.188  1.8380  0.3116  1.3070
  615TIP3   OH223403   5.062   3.422   6.992  0.2817 -0.0816  0.4417
  615TIP3    H123404   5.010   3.475   6.932 -2.9025 -1.2251  1.9519
  615TIP3    H223405   5.115   3.486   7.040 -0.5589  1.3308 -0.4363
  616TIP3   OH223406   0.916   4.200   1.291 -0.0733 -0.3655  0.1467
  616TIP3    H123407   0.990   4.186   1.232 -1.1512  1.4691 -1.7251
  616TIP3    H223408   0.839   4.174   1.241 -0.8066 -2.1185  2.0156
  617TIP3   OH223409   0.341   2.732   6.915  0.2686 -0.4060 -0.2490
  617TIP3    H123410   0.423   2.690   6.943  0.3433  0.8140  1.5148
  617TIP3    H223411   0.279   2.660   6.908  1.0766 -1.1476  0.0042
  618TIP3   OH223412   4.611   5.366   1.929  0.1325  0.1991  0.9242
  618TIP3    H123413   4.616   5.449   1.976 -0.5873  1.1258 -0.5669
  618TIP3    H223414   4.695   5.324   1.947  0.6640  1.4139  1.4135
  619TIP3   OH223415   5.539   1.548   7.207 -1.2044 -0.0767  0.3514
  619TIP3    H123416   5.501   1.619   7.259 -3.0301 -1.4610  1.0208
  619TIP3    H223417   5.474   1.531   7.139 -0.3643 -0.4864 -0.3563
  620TIP3   OH223418   6.785   1.928   1.448  0.3670  0.2049  0.7835
  620TIP3    H123419   6.759   1.870   1.377  0.9972  1.2564 -0.3290
  620TIP3    H223420   6.880   1.934   1.442  0.3307  1.2132  0.9757
  621TIP3   OH223421   2.968   5.154   1.758 -0.7730  0.2536  0.4026
  621TIP3    H123422   3.006   5.104   1.830  2.2423 -0.1429 -1.2509
  621TIP3    H223423   2.970   5.245   1.788  0.4471  0.0993  0.8491
  622TIP3   OH223424   3.360   6.692   8.440  0.0627  0.7885 -0.7503
  622TIP3    H123425   3.448   6.673   8.471 -0.0240  2.7207  0.8315
  622TIP3    H223426   3.304   6.676   8.516 -0.6821  1.5742 -1.1223
  623TIP3   OH223427   0.643   4.958   6.641 -0.6318  0.4171  0.2040
  623TIP3    H123428   0.710   4.897   6.672 -0.8304  0.9155  1.7522
  623TIP3    H223429   0.675   4.989   6.557  0.4899 -0.2563  0.3613
  624TIP3   OH223430   5.300   5.347   8.146  0.6289  0.0222  0.5754
  624TIP3    H123431   5.235   5.341   8.216  0.0705 -0.4819  0.0201
  624TIP3    H223432   5.297   5.439   8.119  0.8823  0.2322  1.2383
  625TIP3   OH223433   4.230   6.847   1.729  0.5827  0.2984  0.1680
  625TIP3    H123434   4.162   6.796   1.774 -0.1908 -0.3985 -1.6923
  625TIP3    H223435   4.292   6.870   1.798 -0.0356 -1.5589  1.4165
  626TIP3   OH223436   3.615   6.335   7.072 -0.1801  0.2073 -0.4501
  626TIP3    H123437   3.531   6.348   7.116  0.9834  1.1839  1.5886
  626TIP3    H223438   3.648   6.251   7.105  1.4399  1.6856  1.9535
  627TIP3   OH223439   1.266   4.840   6.840 -0.0145  0.2164  0.1247
  627TIP3    H123440   1.205   4.809   6.773  0.1734 -1.1412  0.5507
  627TIP3    H223441   1.218   4.908   6.887 -1.0499 -0.5234  0.1669
  628TIP3   OH223442   1.245   6.367   0.444  0.3579  0.1116 -0.2846
  628TIP3    H123443   1.278   6.431   0.506 -0.2753  0.8110 -0.6545
  628TIP3    H223444   1.151   6.381   0.441  0.0743 -1.4483  0.2964
  629TIP3   OH223445   4.099   2.735   6.257 -0.2532  0.4911  0.1085
  629TIP3    H123446   4.145   2.817   6.270 -0.3773  0.4721  0.6982
  629TIP3    H223447   4.010   2.761   6.233 -0.4631  0.5363  0.9136
  630TIP3   OH223448   3.329   1.733   6.389  0.1049  0.3570 -0.0024
  630TIP3    H123449   3.280   1.728   6.471  1.5253 -0.1770  0.8557
  630TIP3    H223450   3.265   1.761   6.324 -1.3812 -0.5481  1.0145
  631TIP3   OH223451   6.290   6.588   7.591 -0.4844 -0.4860 -1.3935
  631TIP3    H123452   6.381   6.564   7.612 -0.4281 -0.2727 -1.3863
  631TIP3    H223453   6.265   6.528   7.521  0.3917  0.8394 -2.9206
  632TIP3   OH223454   6.051   6.344   7.874 -0.5723 -0.3128 -0.3906
  632TIP3    H123455   5.974   6.336   7.930  0.6720  1.9623  1.8471
  632TIP3    H223456   6.108   6.272   7.902 -0.4906  0.0499  0.3968
  633TIP3   OH223457   3.493   5.529   0.778  0.4222 -0.4063 -0.0378
  633TIP3    H123458   3.503   5.562   0.689 -1.2068 -0.3633 -0.2417
  633TIP3    H223459   3.403   5.552   0.802  1.8971  3.0799  3.1187
  634TIP3   OH223460   0.675   4.306   1.431 -0.0549  0.5022 -0.1606
  634TIP3    H123461   0.618   4.233   1.455  0.0441  0.4446 -0.0995
  634TIP3    H223462   0.742   4.266   1.375  0.4172  0.4079  0.4570
  635TIP3   OH223463   4.585   4.900   7.911  0.4214  0.6070  0.0348
  635TIP3    H123464   4.635   4.958   7.853 -1.2965  2.0422 -0.1380
  635TIP3    H223465   4.559   4.956   7.984  1.4905 -0.8567  1.6069
  636TIP3   OH223466   4.993   0.828   7.428 -0.2059  0.3849  0.0148
  636TIP3    H123467   4.979   0.755   7.368  4.1583 -0.5473 -0.2030
  636TIP3    H223468   5.014   0.786   7.512  0.6902  1.4123  0.3296
  637TIP3   OH223469   3.447   6.295   0.633  0.6718  0.2150  0.3009
  637TIP3    H123470   3.482   6.377   0.667  0.6197  0.3302  0.0794
  637TIP3    H223471   3.477   6.228   0.694 -0.4923  0.5741  1.3059
  638TIP3   OH223472   1.500   3.758   1.099 -0.2750  0.3974 -0.0329
  638TIP3    H123473   1.542   3.836   1.063 -1.3784  0.9061 -0.2770
  638TIP3    H223474   1.407   3.780   1.102 -0.4413 -0.3638  1.3256
  639TIP3   OH223475   5.830   6.482   1.088 -0.0554  0.2016 -0.2515
  639TIP3    H123476   5.871   6.398   1.107 -0.2667  0.7491  3.1470
  639TIP3    H223477   5.901   6.546   1.094 -0.3208  0.5274 -0.5202
  640TIP3   OH223478   4.994   0.219   0.408  0.0181  0.2005 -0.4275
  640TIP3    H123479   5.028   0.305   0.434  1.8375 -0.4799 -0.4548
  640TIP3    H223480   4.918   0.206   0.464  0.4692  1.2751  0.4792
  641TIP3   OH223481   3.319   4.698   1.827 -0.0608 -0.3446 -0.0412
  641TIP3    H123482   3.369   4.775   1.852 -0.4568 -0.0564 -0.1394
  641TIP3    H223483   3.229   4.728   1.821 -0.3589 -1.0366  0.8718
  642TIP3   OH223484   3.441   1.431   7.580  0.7218  0.2766 -0.3197
  642TIP3    H123485   3.358   1.477   7.580 -0.6483 -2.0428  0.3127
  642TIP3    H223486   3.476   1.444   7.668  0.4067  0.2640 -0.1907
  643TIP3   OH223487   4.790   5.907   7.521  0.5334  0.5170 -0.3600
  643TIP3    H123488   4.786   5.816   7.493 -0.4901  0.8377 -1.3186
  643TIP3    H223489   4.883   5.922   7.541  1.1112 -0.1179 -2.3404
  644TIP3   OH223490   5.314   0.339   0.244 -0.1849 -0.0648  0.4390
  644TIP3    H123491   5.321   0.433   0.261  0.4025 -0.0032 -0.0830
  644TIP3    H223492   5.402   0.304   0.262 -0.3871 -0.5049  0.5874
  645TIP3   OH223493   6.799   5.930   0.490 -0.4285  0.0004  0.6807
  645TIP3    H123494   6.892   5.953   0.500 -0.6590  1.0666  0.4368
  645TIP3    H223495   6.776   5.963   0.403 -0.5110 -2.1216 -0.1684
  646TIP3   OH223496   5.190   0.873   0.798 -0.2304  0.0262 -0.7317
  646TIP3    H123497   5.133   0.906   0.867  0.9525  0.0135  0.2819
  646TIP3    H223498   5.135   0.872   0.720 -1.3917  0.7168  0.0516
  647TIP3   OH223499   5.834   6.688   2.459 -0.7308  0.3703  0.1024
  647TIP3    H123500   5.801   6.599   2.454  0.5287 -0.1140 -0.0914
  647TIP3    H223501   5.775   6.739   2.405  0.4047 -0.9756 -2.6070
  648TIP3   OH223502   1.666   4.813   1.956 -0.2373 -0.5786  0.7854
  648TIP3    H123503   1.617   4.758   1.896  1.2149  0.1313 -1.1492
  648TIP3    H223504   1.742   4.760   1.981  0.8328  0.2546 -0.5854
  649TIP3   OH223505   2.186   4.289   6.189  0.0226  0.1382  0.0014
  649TIP3    H123506   2.251   4.239   6.238  0.8268  0.4743 -0.7018
  649TIP3    H223507   2.102   4.249   6.211  0.4006  0.0876  1.3946
  650TIP3   OH223508   5.231   4.364   7.695 -0.2000 -0.1894  0.1772
  650TIP3    H123509   5.320   4.359   7.729 -0.6526 -0.9055  1.3271
  650TIP3    H223510   5.177   4.329   7.766 -1.3260 -0.4078 -0.7625
  651TIP3   OH223511   0.821   3.098   7.753  0.0762  0.8883  0.2164
  651TIP3    H123512   0.732   3.097   7.718  0.7262 -1.9143 -1.6817
  651TIP3    H223513   0.812   3.058   7.840 -0.4521 -0.1690 -0.2969
  652TIP3   OH223514   6.818   4.326   8.022 -0.0691 -0.1529  0.3422
  652TIP3    H123515   6.808   4.252   8.082 -0.2221  1.4493  2.4112
  652TIP3    H223516   6.771   4.398   8.065  1.4746  1.5943 -0.7656
  653TIP3   OH223517   6.753   5.694   6.548 -0.7140  0.2942  0.3170
  653TIP3    H123518   6.728   5.718   6.637 -1.2487  0.0771  0.2292
  653TIP3    H223519   6.733   5.601   6.542 -0.9571  0.3728 -0.1256
  654TIP3   OH223520   0.864   3.556   6.627 -0.3450 -0.1349  0.5236
  654TIP3    H123521   0.908   3.622   6.680 -0.0502 -0.5782  0.8417
  654TIP3    H223522   0.919   3.477   6.637 -1.2387 -0.7123  0.9658
  655TIP3   OH223523   4.863   5.137   8.175 -0.2612  0.2140  0.2646
  655TIP3    H123524   4.778   5.131   8.220  0.3438  1.0513  1.5909
  655TIP3    H223525   4.896   5.047   8.176 -1.2805 -0.1903 -0.6026
  656TIP3   OH223526   1.681   3.605   8.066 -0.3628  0.1176 -0.0164
  656TIP3    H123527   1.745   3.536   8.050 -1.4507 -0.7061 -1.0406
  656TIP3    H223528   1.702   3.637   8.153  0.4246 -1.2449  0.3301
  657TIP3   OH223529   1.765   4.693   7.118 -0.1359  0.0199  0.6596
  657TIP3    H123530   1.731   4.609   7.148 -1.1133 -0.2982 -1.1820
  657TIP3    H223531   1.828   4.670   7.050 -1.1101  0.7562 -0.5393
  658TIP3   OH223532   2.480   3.719   0.647 -0.5953 -0.1369 -0.2176
  658TIP3    H123533   2.446   3.630   0.649 -1.6644  0.2620 -0.3256
  658TIP3    H223534   2.508   3.732   0.556 -2.3364  0.3207 -0.7205
  659TIP3   OH223535   2.011   4.329   7.483  0.4448 -0.6346  0.9334
  659TIP3    H123536   2.034   4.398   7.420  0.8873  1.6449  3.4291
  659TIP3    H223537   2.071   4.257   7.462 -0.0875 -0.4059 -1.8069
  660TIP3   OH223538   1.075   2.373   7.509 -0.1850  0.8120 -0.0642
  660TIP3    H123539   1.054   2.433   7.581  0.7098  0.9112  0.1255
  660TIP3    H223540   1.128   2.305   7.550 -0.1711  0.5420 -0.5218
  661TIP3   OH223541   2.271   5.363   8.484 -0.1229  0.0227 -0.3326
  661TIP3    H123542   2.276   5.375   8.579 -1.5906 -0.0977 -0.2153
  661TIP3    H223543   2.318   5.282   8.467  0.1595  0.0510  0.2794
  662TIP3   OH223544   6.579   0.753   6.614 -0.1876 -0.5538  0.1422
  662TIP3    H123545   6.527   0.742   6.694  0.3826  0.8529  0.7394
  662TIP3    H223546   6.592   0.848   6.607  1.8926 -0.8230 -0.2425
  663TIP3   OH223547   6.387   1.336   8.560  0.2086 -0.2961 -0.5416
  663TIP3    H123548   6.451   1.398   8.595  1.8106 -1.2060 -1.7004
  663TIP3    H223549   6.389   1.262   8.621  0.4068 -0.4030 -0.6772
  664TIP3   OH223550   5.202   0.088   7.751 -0.0716  0.4494  0.6289
  664TIP3    H123551   5.195   0.170   7.701 -2.2444  0.7342  1.2771
  664TIP3    H223552   5.184   0.114   7.841 -1.7725 -0.8528  0.7085
  665TIP3   OH223553   0.555   4.316   0.291  0.4605  0.8466 -0.3764
  665TIP3    H123554   0.462   4.290   0.289  0.4248  0.3902  2.5121
  665TIP3    H223555   0.553   4.405   0.325  1.0970  0.2637  1.2845
  666TIP3   OH223556   4.995   6.592   2.558 -0.0204  0.1300  0.2387
  666TIP3    H123557   4.932   6.656   2.590  0.1376  0.3461  0.1264
  666TIP3    H223558   5.053   6.642   2.500  0.0186 -0.1436  0.0368
  667TIP3   OH223559   0.807   0.564   8.085  0.0781 -0.2531  0.4091
  667TIP3    H123560   0.890   0.572   8.038 -0.3090 -2.4269 -0.7685
  667TIP3    H223561   0.831   0.572   8.177  1.7087 -1.4606  0.1385
  668TIP3   OH223562   4.594   2.544   0.348 -0.1700  0.0592 -0.7698
  668TIP3    H123563   4.547   2.527   0.429  1.3220  1.4879  0.4744
  668TIP3    H223564   4.535   2.514   0.279 -2.7021  1.3336  0.6991
  669TIP3   OH223565   0.248   4.679   1.682  0.2642  0.1734 -0.3145
  669TIP3    H123566   0.196   4.619   1.629 -0.1363 -0.1549  0.4332
  669TIP3    H223567   0.203   4.763   1.672 -0.2701 -0.0580  0.1354
  670TIP3   OH223568   4.887   6.344   8.521  0.6382 -0.2176  1.0536
  670TIP3    H123569   4.891   6.374   8.612  0.4594  0.1431  0.9462
  670TIP3    H223570   4.794   6.331   8.504  0.6083  0.4545  0.6888
  671TIP3   OH223571   3.933   0.404   7.516  0.0020 -0.0960  0.2829
  671TIP3    H123572   3.876   0.481   7.517  0.1220  0.2487 -3.4670
  671TIP3    H223573   4.022   0.439   7.518  0.0663  0.0363 -1.8531
  672TIP3   OH223574   6.529   6.449   7.883  0.0498  0.1252 -0.4461
  672TIP3    H123575   6.524   6.519   7.818 -1.6122  0.2846 -0.1925
  672TIP3    H223576   6.489   6.374   7.841 -0.7857  0.1527  0.2727
  673TIP3   OH223577   2.956   0.627   6.217  0.3874 -0.6408 -0.5092
  673TIP3    H123578   2.866   0.652   6.196  0.9540 -1.5485 -4.9708
  673TIP3    H223579   2.949   0.537   6.248 -0.3016 -0.4209 -0.0018
  674TIP3   OH223580   6.421   1.317   1.582  0.7354 -0.1517 -0.3071
  674TIP3    H123581   6.327   1.326   1.600  0.7207  0.0160 -0.4655
  674TIP3    H223582   6.446   1.400   1.542  1.6070  1.0396  2.4451
  675TIP3   OH223583   4.992   0.593   7.247 -0.4407 -0.2782 -0.1851
  675TIP3    H123584   5.035   0.610   7.163  0.6257 -1.4079  0.1078
  675TIP3    H223585   4.909   0.551   7.222  0.1523 -1.1934 -0.6780
  676TIP3   OH223586   2.922   3.896   5.936  0.0357  0.4632  0.8218
  676TIP3    H123587   2.836   3.884   5.895 -0.0639  0.4525  1.0330
  676TIP3    H223588   2.920   3.839   6.013 -0.1578  1.2349  1.4062
  677TIP3   OH223589   2.996   5.388   2.187 -0.8030 -0.1146 -0.0235
  677TIP3    H123590   3.060   5.320   2.167  0.6525  0.8974  1.0582
  677TIP3    H223591   2.925   5.340   2.231  0.8921 -0.8016  2.1738
  678TIP3   OH223592   0.756   0.812   6.174  0.4112 -0.3885 -0.2491
  678TIP3    H123593   0.806   0.731   6.183  1.3853  0.0642 -1.3279
  678TIP3    H223594   0.685   0.789   6.114 -0.6741 -1.0079  1.2124
  679TIP3   OH223595   4.942   2.184   1.241  0.3471 -0.4681 -0.6401
  679TIP3    H123596   5.028   2.227   1.238  0.7357 -1.1038  0.5263
  679TIP3    H223597   4.960   2.098   1.280 -0.8018 -0.6691 -0.5192
  680TIP3   OH223598   2.224   6.297   2.115 -0.0231  0.5485  0.2547
  680TIP3    H123599   2.227   6.264   2.025  1.3164  2.1185 -0.3281
  680TIP3    H223600   2.311   6.276   2.151 -0.5327 -0.0354  1.1839
  681TIP3   OH223601   3.021   3.799   8.295  0.0128 -0.0370 -0.1706
  681TIP3    H123602   2.946   3.857   8.282 -0.4253 -0.5637 -0.0245
  681TIP3    H223603   3.097   3.858   8.294 -0.3096  0.3899 -1.3079
  682TIP3   OH223604   0.374   2.674   0.515 -0.5070  0.0819 -0.2444
  682TIP3    H123605   0.317   2.675   0.592  0.0181 -1.5132  0.2176
  682TIP3    H223606   0.376   2.764   0.485  0.0333  0.9510  2.1992
  683TIP3   OH223607   1.631   5.511   1.112  0.3734 -0.0106 -0.1816
  683TIP3    H123608   1.698   5.445   1.097  1.0948 -0.0010  2.5081
  683TIP3    H223609   1.631   5.525   1.207 -3.1116  0.3239 -0.0743
  684TIP3   OH223610   6.826   0.841   1.666  0.3475 -0.4230  0.2403
  684TIP3    H123611   6.805   0.817   1.576  0.2344 -2.6121  0.7804
  684TIP3    H223612   6.912   0.802   1.681  0.7803  0.7169  0.8127
  685TIP3   OH223613   0.998   5.787   1.285 -0.6817 -0.0476 -0.5977
  685TIP3    H123614   0.930   5.739   1.332  1.8947 -0.0734  3.5670
  685TIP3    H223615   1.011   5.867   1.336  1.7364  0.4284 -1.8023
  686TIP3   OH223616   2.150   4.675   7.642  0.0327  0.5433 -0.1007
  686TIP3    H123617   2.068   4.684   7.593 -0.5802 -0.4371  0.6965
  686TIP3    H223618   2.212   4.732   7.596  0.0940 -1.7689 -3.3038
  687TIP3   OH223619   3.367   2.712   1.500  0.1227 -0.9163 -0.4784
  687TIP3    H123620   3.411   2.730   1.418  0.4045  0.3776 -0.0680
  687TIP3    H223621   3.314   2.791   1.517 -1.0613 -1.7456 -0.1360
  688TIP3   OH223622   0.463   2.791   2.075  0.0194 -0.5595 -0.4286
  688TIP3    H123623   0.509   2.712   2.104 -1.1546 -0.4272  2.0425
  688TIP3    H223624   0.512   2.863   2.115  0.8613 -0.0152 -2.3545
  689TIP3   OH223625   6.680   1.732   8.192 -0.0751 -0.7214 -0.5807
  689TIP3    H123626   6.705   1.813   8.148  0.5329  0.1149  1.1649
  689TIP3    H223627   6.716   1.662   8.138  1.7935  0.3043 -0.7313
  690TIP3   OH223628   0.677   3.858   7.212  0.0577 -0.0063  0.4005
  690TIP3    H123629   0.587   3.826   7.216 -0.4589  0.9451 -2.0242
  690TIP3    H223630   0.724   3.793   7.160 -0.1050  1.1724 -1.3025
  691TIP3   OH223631   0.988   5.072   7.488  0.2964  0.2862  0.4760
  691TIP3    H123632   0.908   5.056   7.538 -0.4658 -0.3677 -0.9012
  691TIP3    H223633   0.982   5.164   7.463  0.9342  0.7626  1.9713
  692TIP3   OH223634   0.680   5.660   7.317  0.1695  0.0771  0.1122
  692TIP3    H123635   0.687   5.577   7.271  1.3111  0.2351 -0.0277
  692TIP3    H223636   0.769   5.679   7.347  0.5541  2.6360 -2.2885
  693TIP3   OH223637   4.049   2.666   7.152 -0.3033  0.3415  0.0286
  693TIP3    H123638   4.141   2.685   7.167 -0.5104  0.4006  1.3875
  693TIP3    H223639   4.043   2.646   7.059  0.7566  2.1570 -0.4812
  694TIP3   OH223640   5.882   0.474   0.539 -0.5926  0.3694  0.1985
  694TIP3    H123641   5.908   0.504   0.453 -0.2586 -1.3729 -0.3443
  694TIP3    H223642   5.951   0.504   0.598  0.3620 -0.3913 -0.5184
  695TIP3   OH223643   4.756   2.000   0.280 -0.4765 -0.1462 -0.7365
  695TIP3    H123644   4.732   2.088   0.310 -0.0700 -0.4780  0.6370
  695TIP3    H223645   4.773   2.010   0.186 -0.0792  1.3084 -0.5267
  696TIP3   OH223646   0.822   2.514   1.534 -0.0022  0.1379  0.1693
  696TIP3    H123647   0.758   2.447   1.561  0.1305 -0.3110 -0.6014
  696TIP3    H223648   0.777   2.563   1.465 -0.6077  1.7403  1.6426
  697TIP3   OH223649   4.485   4.474   7.695 -0.7824 -0.3579 -0.5405
  697TIP3    H123650   4.436   4.502   7.618  0.0059  0.7402 -0.6720
  697TIP3    H223651   4.472   4.543   7.760  1.2463  0.4299 -0.8827
  698TIP3   OH223652   4.497   2.449   8.562  0.0076 -0.3229  0.2908
  698TIP3    H123653   4.476   2.470   8.471 -0.6957 -1.4799  0.1593
  698TIP3    H223654   4.433   2.498   8.614 -0.1643 -0.3590  0.1117
  699TIP3   OH223655   1.644   0.970   0.066  0.0285 -0.1493 -0.4479
  699TIP3    H123656   1.637   1.044   0.006  0.7355  0.0767 -0.2543
  699TIP3    H223657   1.737   0.946   0.065  0.3368  0.7457  1.5987
  700TIP3   OH223658   5.716   0.691   1.879  0.1527  0.1052  0.0199
  700TIP3    H123659   5.673   0.624   1.828 -1.2074  0.7884  0.2167
  700TIP3    H223660   5.737   0.649   1.963 -1.2125  0.0556  0.3610
  701TIP3   OH223661   5.313   0.127   7.398 -0.1250  0.0040  0.3533
  701TIP3    H123662   5.365   0.133   7.478 -0.8113  1.8491  0.6881
  701TIP3    H223663   5.299   0.217   7.370  0.0264 -0.5698 -1.8336
  702TIP3   OH223664   0.574   3.811   2.679  0.0674  0.3682  0.2115
  702TIP3    H123665   0.661   3.844   2.701  0.5941 -1.0112  0.3041
  702TIP3    H223666   0.569   3.820   2.584  0.5602 -0.0901  0.1342
  703TIP3   OH223667   5.540   6.730   0.515 -0.1131 -0.0384  0.1085
  703TIP3    H123668   5.624   6.756   0.477  1.0331 -4.0210 -0.5833
  703TIP3    H223669   5.487   6.702   0.440 -0.9871 -0.1823  0.7625
  704TIP3   OH223670   2.207   0.386   8.173 -0.4144  0.1116  0.0241
  704TIP3    H123671   2.214   0.444   8.249  0.0818  1.1893 -0.8101
  704TIP3    H223672   2.179   0.302   8.209 -2.6693  1.2436  1.1184
  705TIP3   OH223673   2.776   4.295   1.035  0.1053  0.6135  0.1402
  705TIP3    H123674   2.759   4.201   1.045 -0.8917  0.8544  0.8730
  705TIP3    H223675   2.689   4.335   1.034  0.5384  1.6241  0.9701
  706TIP3   OH223676   0.027   1.960   0.422  0.0084 -0.7504 -0.2009
  706TIP3    H123677  -0.039   2.021   0.455  0.7788  0.7729 -1.3559
  706TIP3    H223678   0.066   2.005   0.347  2.2032 -1.7108  0.2927
  707TIP3   OH223679   4.531   2.827   0.309 -0.1387 -0.0357 -0.0619
  707TIP3    H123680   4.555   2.884   0.382 -2.3107  0.9176 -0.0196
  707TIP3    H223681   4.516   2.741   0.350 -1.9653  0.6360  0.7833
  708TIP3   OH223682   1.832   4.630   7.773 -0.4625  0.2211 -0.4104
  708TIP3    H123683   1.838   4.637   7.678 -1.3066 -0.8960 -0.5749
  708TIP3    H223684   1.791   4.544   7.788 -1.6173  0.9629  0.9193
  709TIP3   OH223685   6.267   2.736   0.250 -0.3135  0.1365  0.5386
  709TIP3    H123686   6.312   2.653   0.237 -0.5624  0.2061 -0.9811
  709TIP3    H223687   6.337   2.797   0.274  0.3823  0.1223 -1.2506
  710TIP3   OH223688   1.317   4.359   8.213 -0.2351  0.1769 -0.1138
  710TIP3    H123689   1.320   4.421   8.140  1.1817 -0.7621 -0.8885
  710TIP3    H223690   1.369   4.285   8.184 -2.4031 -1.7121  0.5173
  711TIP3   OH223691   4.159   4.725   2.428 -0.0241 -0.1510  0.0019
  711TIP3    H123692   4.250   4.714   2.400  0.2581  1.0760  0.3613
  711TIP3    H223693   4.139   4.646   2.477  1.1727 -0.0353  0.7248
  712TIP3   OH223694   1.262   3.690   0.888  0.9160  0.2713 -0.0905
  712TIP3    H123695   1.229   3.603   0.865  2.8014  0.0407 -2.1737
  712TIP3    H223696   1.247   3.697   0.982 -0.7660 -1.6250 -0.1581
  713TIP3   OH223697   3.777   1.017   8.076 -0.3421  0.1278 -0.0174
  713TIP3    H123698   3.780   0.924   8.101  0.1249 -0.2225 -1.3131
  713TIP3    H223699   3.780   1.016   7.981  0.4172  1.5227 -0.0235
  714TIP3   OH223700   5.620   5.708   7.973  0.1960  0.4404  0.0625
  714TIP3    H123701   5.582   5.650   7.906 -1.0012 -0.1691  1.2264
  714TIP3    H223702   5.686   5.759   7.925  0.4284 -1.0040 -1.2659
  715TIP3   OH223703   1.423   0.491   0.585  1.2070 -0.4746 -0.8458
  715TIP3    H123704   1.492   0.487   0.519 -0.3562 -0.4703 -2.5597
  715TIP3    H223705   1.358   0.551   0.548  0.7171  0.3646  1.1861
  716TIP3   OH223706   6.519   2.105   7.797 -0.4673 -0.2367  0.5081
  716TIP3    H123707   6.569   2.023   7.794  2.1532  1.3092 -0.7929
  716TIP3    H223708   6.543   2.144   7.881  0.4219  0.4346 -0.0496
  717TIP3   OH223709   3.391   5.029   6.755  0.1125  0.1386  0.0653
  717TIP3    H123710   3.415   4.944   6.717 -0.2162  0.6425 -1.3393
  717TIP3    H223711   3.375   5.085   6.679 -2.2890  0.7313  0.9420
  718TIP3   OH223712   2.208   4.435   2.508  0.5419  0.5410 -0.7177
  718TIP3    H123713   2.189   4.359   2.563  1.2501  0.4168 -0.6392
  718TIP3    H223714   2.222   4.507   2.570  0.3298  0.6314 -0.7744
  719TIP3   OH223715   5.336   2.815   1.355  0.2694  0.0977  0.2792
  719TIP3    H123716   5.309   2.907   1.347 -1.2567 -0.4061 -1.0521
  719TIP3    H223717   5.363   2.806   1.446 -0.5090  1.6395  0.7096
  720TIP3   OH223718   6.448   6.709   1.772  0.3875 -0.4724 -0.1276
  720TIP3    H123719   6.361   6.749   1.776  0.5513 -0.1952  1.0393
  720TIP3    H223720   6.494   6.760   1.705 -0.2536 -0.4438 -0.5578
  721TIP3   OH223721   3.601   1.209   7.223 -0.1567 -0.2101 -0.1104
  721TIP3    H123722   3.585   1.303   7.234 -0.6114 -0.4786  2.0570
  721TIP3    H223723   3.513   1.171   7.213 -0.1302 -0.5590  0.8362
  722TIP3   OH223724   1.656   0.097   8.341 -0.0264 -0.7212 -0.1932
  722TIP3    H123725   1.672   0.053   8.257 -2.4952 -0.0814 -1.0648
  722TIP3    H223726   1.693   0.037   8.407  0.9791 -1.7555 -1.6283
  723TIP3   OH223727   3.920   0.820   7.880  0.1874 -0.3479  0.2804
  723TIP3    H123728   3.843   0.769   7.854  0.2034 -0.1144 -0.2438
  723TIP3    H223729   3.922   0.813   7.975 -0.3443 -0.5597  0.2828
  724TIP3   OH223730   2.742   1.859   0.506 -0.3745  0.4312 -0.2467
  724TIP3    H123731   2.811   1.921   0.527  0.4160 -0.5527  0.1440
  724TIP3    H223732   2.698   1.896   0.430  0.0236  1.4977  0.0362
  725TIP3   OH223733   0.225   3.932   0.821  0.2370  0.1953  0.0594
  725TIP3    H123734   0.312   3.902   0.846  0.8435 -0.5199 -2.5367
  725TIP3    H223735   0.241   3.997   0.753 -1.2006 -1.1828 -1.7281
  726TIP3   OH223736   3.334   0.996   0.435 -0.8158 -0.1555  0.1224
  726TIP3    H123737   3.326   1.073   0.492 -1.8429 -0.2462  0.1209
  726TIP3    H223738   3.418   0.958   0.459 -0.5890  0.6011  0.5867
  727TIP3   OH223739   6.190   4.163   8.582 -0.7504 -0.0421  0.0692
  727TIP3    H123740   6.163   4.092   8.524  1.5850 -0.6024 -0.4183
  727TIP3    H223741   6.109   4.191   8.624 -2.0133 -1.7917 -1.0517
  728TIP3   OH223742   4.584   5.160   8.587  0.0826  0.3446  0.2224
  728TIP3    H123743   4.519   5.129   8.523  0.3490 -0.2624  0.2433
  728TIP3    H223744   4.611   5.245   8.553 -0.3425  0.3714 -0.0651
  729TIP3   OH223745   0.713   0.822   7.601 -0.0700 -0.6098 -0.0385
  729TIP3    H123746   0.726   0.728   7.590  1.9969 -0.3703 -0.0028
  729TIP3    H223747   0.716   0.836   7.696  2.2445 -0.2457 -0.1043
  730TIP3   OH223748   1.660   5.998   8.464 -0.7228  0.1450  0.0626
  730TIP3    H123749   1.683   6.029   8.552  0.6129  2.7905 -1.1082
  730TIP3    H223750   1.688   5.907   8.463  0.9360  0.5606  1.8291
  731TIP3   OH223751   1.302   1.848   0.282 -0.4349 -0.3893 -0.3797
  731TIP3    H123752   1.353   1.916   0.239 -1.5780  1.4618  1.0091
  731TIP3    H223753   1.322   1.858   0.375  0.7944 -3.2474 -0.2320
  732TIP3   OH223754   5.786   1.512   8.582 -0.5473  0.0359 -0.1214
  732TIP3    H123755   5.804   1.592   8.632 -1.4527  0.9891 -1.2320
  732TIP3    H223756   5.769   1.445   8.648  2.0964  0.2281  0.8908
  733TIP3   OH223757   0.196   2.447   1.085 -0.5185  0.1665  0.1260
  733TIP3    H123758   0.231   2.390   1.153  0.2664 -1.6434 -1.7109
  733TIP3    H223759   0.263   2.448   1.017 -2.3213 -0.2436 -1.7763
  734TIP3   OH223760   5.977   6.464   6.845  0.3037  0.0155 -1.1220
  734TIP3    H123761   6.048   6.400   6.858  0.7012 -0.1082 -3.4289
  734TIP3    H223762   5.956   6.457   6.752 -1.9778  0.8903 -0.7258
  735TIP3   OH223763   5.611   2.488   1.330  0.5946 -0.1975  0.2959
  735TIP3    H123764   5.654   2.481   1.415  1.5640 -1.6863 -0.2808
  735TIP3    H223765   5.624   2.402   1.289 -3.0010 -0.7969  0.0870
  736TIP3   OH223766   3.743   3.848   2.319 -0.2009  0.3894 -0.3540
  736TIP3    H123767   3.688   3.918   2.284 -0.5466  0.4594  0.3185
  736TIP3    H223768   3.806   3.830   2.249  0.3889  1.8921 -0.2583
  737TIP3   OH223769   3.315   5.798   0.033 -0.3316  0.5436  0.0755
  737TIP3    H123770   3.249   5.743   0.074  0.2285 -1.3307 -1.4099
  737TIP3    H223771   3.269   5.878   0.008 -1.1925  0.7523  2.1707
  738TIP3   OH223772   2.207   1.371   7.409  0.5444 -0.2160  0.1415
  738TIP3    H123773   2.163   1.304   7.357 -1.0671  0.6813  0.2578
  738TIP3    H223774   2.280   1.326   7.451  0.4688 -1.4989 -1.0405
  739TIP3   OH223775   6.591   0.477   2.010 -0.0699 -0.2214 -0.9888
  739TIP3    H123776   6.605   0.543   1.943 -0.2355 -0.4158 -1.2176
  739TIP3    H223777   6.671   0.476   2.061  0.1767 -0.2914 -1.3754
  740TIP3   OH223778   3.521   5.605   6.371  0.2667  0.6502  0.1984
  740TIP3    H123779   3.491   5.516   6.389 -0.3288  0.6375 -0.7649
  740TIP3    H223780   3.607   5.593   6.331  0.1025  0.4873 -0.1140
  741TIP3   OH223781   6.263   6.187   1.942  0.0368  0.5934 -0.1122
  741TIP3    H123782   6.208   6.139   1.880 -0.0190  0.5489 -0.0290
  741TIP3    H223783   6.201   6.226   2.004 -0.1668  3.3870 -1.9309
  742TIP3   OH223784   6.147   4.919   0.242 -0.2848  0.2520 -0.5729
  742TIP3    H123785   6.081   4.887   0.180  0.1254 -0.6285 -0.5704
  742TIP3    H223786   6.208   4.970   0.190  0.1195 -0.5764 -0.9300
  743TIP3   OH223787   2.916   0.901   8.277 -0.2701  0.1134 -0.0819
  743TIP3    H123788   3.004   0.871   8.254  0.2347 -0.5020  2.3861
  743TIP3    H223789   2.862   0.875   8.202  1.4380 -0.4614 -1.1731
  744TIP3   OH223790   2.772   5.827   1.453 -0.6703 -0.5317  0.4685
  744TIP3    H123791   2.851   5.783   1.420  0.4050  0.7831  1.1951
  744TIP3    H223792   2.801   5.869   1.534 -1.9127  0.7064  0.2919
  745TIP3   OH223793   1.359   4.427   6.775  0.0527  0.1053  0.2499
  745TIP3    H123794   1.411   4.347   6.782 -0.3176 -0.1765 -0.2409
  745TIP3    H223795   1.280   4.401   6.727 -0.3224  0.6396  0.5658
  746TIP3   OH223796   0.914   6.275   2.074  0.0913  0.2025 -0.8838
  746TIP3    H123797   0.928   6.265   2.168 -0.5652 -0.2485 -0.8349
  746TIP3    H223798   0.922   6.187   2.038  0.2902  0.3648 -1.2484
  747TIP3   OH223799   6.729   3.971   1.221  0.6357 -0.3243  0.2583
  747TIP3    H123800   6.673   4.000   1.293 -0.3692  0.4185 -0.7908
  747TIP3    H223801   6.766   4.051   1.185 -2.1732 -0.1473 -2.6663
  748TIP3   OH223802   6.239   3.347   1.310 -0.0051 -0.2087 -0.1390
  748TIP3    H123803   6.180   3.289   1.262  0.3821 -0.1017 -0.7505
  748TIP3    H223804   6.294   3.288   1.362 -0.0630 -0.3475 -0.2356
  749TIP3   OH223805   3.896   5.184   1.073 -0.1208  0.2229 -0.3256
  749TIP3    H123806   3.804   5.162   1.058 -0.3210  0.4948  0.4499
  749TIP3    H223807   3.921   5.130   1.148  0.3315  0.2205 -0.4749
  750TIP3   OH223808   5.222   6.481   1.386  0.1490  0.2277  0.1175
  750TIP3    H123809   5.127   6.490   1.399  0.3037  0.5356  1.1509
  750TIP3    H223810   5.260   6.507   1.470  1.0821 -1.3896  0.2377
  751TIP3   OH223811   4.372   5.549   0.989 -0.4013  0.0967 -0.1314
  751TIP3    H123812   4.325   5.632   0.985 -1.3950 -0.4999 -1.7076
  751TIP3    H223813   4.304   5.482   0.994  0.3468 -0.6864 -0.1103
  752TIP3   OH223814   5.617   5.843   0.920 -0.3881  0.2911  0.2713
  752TIP3    H123815   5.645   5.891   0.998  0.3212 -1.4358  1.1422
  752TIP3    H223816   5.684   5.775   0.908 -1.0046 -0.0925 -1.2649
  753TIP3   OH223817   1.556   5.631   7.988 -0.0417 -0.2191  0.1396
  753TIP3    H123818   1.526   5.714   8.024  1.7247  0.2000  0.7188
  753TIP3    H223819   1.596   5.654   7.904  1.1947 -0.3345  0.6731
  754TIP3   OH223820   5.484   4.621   0.793 -0.4730 -0.3626  0.2968
  754TIP3    H123821   5.477   4.673   0.712  0.0948 -1.3141 -0.3896
  754TIP3    H223822   5.409   4.648   0.845  1.2902  3.3444  1.2920
  755TIP3   OH223823   6.412   1.269   6.486  0.2486 -0.5448  0.4953
  755TIP3    H123824   6.390   1.350   6.440 -0.0030 -0.7389  0.2701
  755TIP3    H223825   6.385   1.285   6.576 -1.4903 -1.0257  0.1001
  756TIP3   OH223826   1.828   0.792   6.799  0.3782 -0.0622 -0.2871
  756TIP3    H123827   1.897   0.795   6.732  0.4443 -2.1297 -0.3914
  756TIP3    H223828   1.747   0.784   6.749  0.3553 -0.8028 -0.1373
  757TIP3   OH223829   1.654   3.103   7.954 -0.0837  0.1225 -0.2928
  757TIP3    H123830   1.687   3.155   8.027  1.1257  1.3029 -1.6086
  757TIP3    H223831   1.671   3.012   7.979  0.6017  0.5211  0.7446
  758TIP3   OH223832   5.279   6.701   7.772  0.3305  0.0388 -0.0594
  758TIP3    H123833   5.271   6.796   7.763  0.3733 -0.0591 -1.2534
  758TIP3    H223834   5.297   6.670   7.683  1.1960 -0.9969  0.4589
  759TIP3   OH223835   6.516   5.353   8.222  0.0599  0.1642 -0.3063
  759TIP3    H123836   6.596   5.315   8.258  0.3331  1.3620  0.4233
  759TIP3    H223837   6.479   5.285   8.166  1.9340 -0.1678 -1.1792
  760TIP3   OH223838   2.681   0.801   7.092 -0.8353  0.6467  0.6554
  760TIP3    H123839   2.672   0.896   7.101 -3.8832  0.4118  1.1204
  760TIP3    H223840   2.594   0.771   7.064  0.1975 -1.9627 -0.0857
  761TIP3   OH223841   5.112   2.326   7.436  0.1227  0.5682  0.3221
  761TIP3    H123842   5.195   2.339   7.389  0.3870  0.4974  0.7643
  761TIP3    H223843   5.078   2.414   7.449 -0.5027  0.5377 -0.9669
  762TIP3   OH223844   0.918   4.627   8.357  0.7287  0.3464 -0.0197
  762TIP3    H123845   0.937   4.550   8.411 -0.5845  0.6051  0.8565
  762TIP3    H223846   0.887   4.693   8.418 -0.0010  0.9304 -0.9814
  763TIP3   OH223847   5.446   1.393   0.387  0.2042  0.3917  0.4082
  763TIP3    H123848   5.506   1.400   0.461  0.9735  1.4072 -0.2862
  763TIP3    H223849   5.366   1.436   0.417  0.9077  1.8620  0.2858
  764TIP3   OH223850   2.429   2.564   1.216 -0.4624 -0.8688  0.5968
  764TIP3    H123851   2.521   2.543   1.230 -0.4291 -0.3958  1.1090
  764TIP3    H223852   2.429   2.618   1.137 -0.2800 -0.6942  0.7155
  765TIP3   OH223853   5.760   4.869   0.291  0.1915 -0.2695  0.2600
  765TIP3    H123854   5.816   4.938   0.326 -1.4288  1.5146 -0.4929
  765TIP3    H223855   5.810   4.833   0.218  0.5304  1.0550 -0.1928
  766TIP3   OH223856   3.139   2.231   0.612  0.5343 -0.1549  0.2511
  766TIP3    H123857   3.092   2.299   0.661  0.7164  0.5219 -0.4982
  766TIP3    H223858   3.190   2.185   0.679  2.4358  2.1049  0.4771
  767TIP3   OH223859   3.943   1.892   6.226 -0.4268 -0.1272 -0.0345
  767TIP3    H123860   3.962   1.798   6.228  0.8911  0.1375  1.4532
  767TIP3    H223861   4.027   1.934   6.243 -1.3334  1.2853  1.2237
  768TIP3   OH223862   6.284   2.694   1.281  0.2082  0.3522 -0.4123
  768TIP3    H123863   6.283   2.611   1.234  0.5861 -0.2038  0.5313
  768TIP3    H223864   6.345   2.680   1.353  1.0852  1.7860 -0.8306
  769TIP3   OH223865   0.966   0.840   0.429  0.2468  0.3727 -0.1418
  769TIP3    H123866   1.057   0.845   0.400 -0.0312  1.3823 -0.9215
  769TIP3    H223867   0.971   0.821   0.523  1.2150 -1.0883 -0.4701
  770TIP3   OH223868   1.643   4.125   2.731  0.3556  0.0265 -0.0321
  770TIP3    H123869   1.650   4.211   2.773 -1.0840  1.0688 -1.7592
  770TIP3    H223870   1.632   4.145   2.638 -1.7194 -1.9396 -0.2971
  771TIP3   OH223871   2.337   6.239   7.046 -0.0451  0.3173 -0.5536
  771TIP3    H123872   2.308   6.148   7.055 -1.7469  0.7467 -1.3904
  771TIP3    H223873   2.426   6.239   7.083  0.4349 -1.9149 -1.5314
  772TIP3   OH223874   1.573   1.150   0.472 -0.4162  0.2843 -0.3783
  772TIP3    H123875   1.579   1.112   0.559 -0.3306  0.7334 -0.1847
  772TIP3    H223876   1.492   1.202   0.474 -0.5410  0.1051 -0.6451
  773TIP3   OH223877   5.955   0.124   0.468  0.1574  0.3910 -0.5921
  773TIP3    H123878   6.045   0.131   0.500  0.3692 -2.5498 -0.2324
  773TIP3    H223879   5.907   0.084   0.541 -1.5600  2.1455 -0.6858
  774TIP3   OH223880   0.107   2.528   7.925  0.2935 -0.7909 -0.4005
  774TIP3    H123881   0.162   2.450   7.916  0.8390 -0.3379 -1.0421
  774TIP3    H223882   0.138   2.570   8.005 -0.1203 -1.3062  0.0488
  775TIP3   OH223883   0.206   2.414   1.462 -0.2878  0.1283  0.1486
  775TIP3    H123884   0.254   2.391   1.542  1.3696  0.9605 -0.5616
  775TIP3    H223885   0.210   2.335   1.408  2.0059  0.7460 -0.6837
  776TIP3   OH223886   6.361   4.347   6.401  0.2226  0.7573 -0.3851
  776TIP3    H123887   6.296   4.347   6.331  1.3281  1.9424 -1.4616
  776TIP3    H223888   6.365   4.438   6.431  0.0904  0.3529  0.9433
  777TIP3   OH223889   6.568   5.782   2.085  0.2566  0.1992 -0.3437
  777TIP3    H123890   6.479   5.786   2.049 -0.3504  1.4424  1.2079
  777TIP3    H223891   6.576   5.692   2.119 -1.0890  0.5758  1.0852
  778TIP3   OH223892   0.532   1.854   1.060 -0.4122 -0.4304  0.1429
  778TIP3    H123893   0.444   1.832   1.030 -0.2737 -1.2883  0.3436
  778TIP3    H223894   0.530   1.841   1.154 -0.6756  1.6959  0.4897
  779TIP3   OH223895   2.967   5.988   1.717  0.5582 -0.2245 -0.3629
  779TIP3    H123896   2.895   6.025   1.768 -1.6937 -1.7844 -2.1865
  779TIP3    H223897   3.024   6.062   1.698 -2.0565  1.7060 -1.1918
  780TIP3   OH223898   6.042   5.813   0.771 -0.4046 -0.1886  0.6632
  780TIP3    H123899   6.125   5.787   0.809  0.4341  1.8767  0.3818
  780TIP3    H223900   6.035   5.761   0.691  0.8055 -0.1127  0.4963
  781TIP3   OH223901   6.464   2.606   8.183 -0.2792 -0.4247 -0.5251
  781TIP3    H123902   6.554   2.571   8.182  0.2644  0.9129 -0.1431
  781TIP3    H223903   6.446   2.622   8.276 -0.1660  1.1321 -0.7490
  782TIP3   OH223904   1.882   5.346   1.547  0.2043  0.3802 -0.7629
  782TIP3    H123905   1.819   5.404   1.590 -0.1691 -0.0515 -0.7098
  782TIP3    H223906   1.857   5.258   1.577  0.3766  0.1400 -1.3089
  783TIP3   OH223907   4.298   6.262   8.281 -0.1389 -0.2648  0.7856
  783TIP3    H123908   4.363   6.295   8.342 -0.2855  1.3619  0.1018
  783TIP3    H223909   4.326   6.294   8.195 -1.5485  0.0468  0.4110
  784TIP3   OH223910   5.045   2.725   1.541  1.0454  0.6654 -0.1341
  784TIP3    H123911   5.123   2.676   1.569  0.9873  0.7049  0.1034
  784TIP3    H223912   5.050   2.726   1.446  0.2073 -1.2229 -0.2439
  785TIP3   OH223913   0.164   0.358   0.206  1.0290 -1.0966 -0.6541
  785TIP3    H123914   0.094   0.378   0.145  1.3122  0.7278 -0.4374
  785TIP3    H223915   0.236   0.415   0.179  0.8689  0.4214  1.8668
  786TIP3   OH223916   6.858   1.654   2.384 -0.2085  0.2213  0.6544
  786TIP3    H123917   6.880   1.579   2.441 -0.6730 -0.2599  0.2163
  786TIP3    H223918   6.780   1.625   2.337  0.0359  0.7139 -0.0574
  787TIP3   OH223919   0.616   2.517   8.578 -0.3377  0.0712  0.1148
  787TIP3    H123920   0.587   2.426   8.573 -0.9207  0.1855  1.2142
  787TIP3    H223921   0.561   2.557   8.645  0.6009  0.9779  0.3773
  788TIP3   OH223922   6.682   2.106   8.290 -0.4686  0.1576  1.1115
  788TIP3    H123923   6.734   2.056   8.353 -0.6795  0.2814  1.3911
  788TIP3    H223924   6.745   2.139   8.226 -0.4597 -1.3938  0.2851
  789TIP3   OH223925   1.766   1.220   8.210 -0.1000  0.0938  0.1180
  789TIP3    H123926   1.839   1.252   8.263  1.2874 -1.5013 -0.7585
  789TIP3    H223927   1.806   1.192   8.128 -1.5614 -1.5615 -0.0937
  790TIP3   OH223928   5.985   2.215   7.486  0.3544 -0.6574 -0.2529
  790TIP3    H123929   5.964   2.122   7.483  0.2575 -0.6951  0.9917
  790TIP3    H223930   5.987   2.243   7.395 -0.6975 -1.6359 -0.5927
  791TIP3   OH223931   1.075   0.333   1.830  0.3475  0.3923 -0.0001
  791TIP3    H123932   1.030   0.395   1.773 -0.9201 -0.4747  0.0415
  791TIP3    H223933   1.034   0.249   1.812 -0.5724  0.1937  2.6653
  792TIP3   OH223934   0.914   1.451   7.491 -0.0621  0.0296  0.3672
  792TIP3    H123935   0.928   1.400   7.571  0.4396 -0.2671  0.0914
  792TIP3    H223936   0.946   1.396   7.420  0.6643  0.7968  0.0781
  793TIP3   OH223937   4.854   5.548   0.883 -0.3807  0.1245 -0.2384
  793TIP3    H123938   4.913   5.477   0.860 -2.3088 -1.7294  0.2336
  793TIP3    H223939   4.907   5.607   0.936  1.8923  0.2772 -2.5161
  794TIP3   OH223940   0.046   5.680   8.654  0.0537  0.0928 -0.0441
  794TIP3    H123941   0.101   5.746   8.697 -1.1436  2.1795 -1.5307
  794TIP3    H223942   0.094   5.658   8.574  0.4100 -0.8331  0.4076
  795TIP3   OH223943   4.126   2.026   0.241  0.3623 -0.1197 -0.0189
  795TIP3    H123944   4.114   2.079   0.319 -1.2869  2.3402 -1.7822
  795TIP3    H223945   4.220   2.020   0.230  0.6058  0.5948  1.4342
  796TIP3   OH223946   6.499   4.358   1.257  0.0418 -0.0485  0.0199
  796TIP3    H123947   6.489   4.311   1.339  0.5949 -2.0448 -0.9892
  796TIP3    H223948   6.460   4.301   1.191 -2.2572  2.3915 -0.9286
  797TIP3   OH223949   0.432   5.881   0.262  0.5125  0.1559  0.4063
  797TIP3    H123950   0.481   5.964   0.261  0.8585 -0.0265  1.2873
  797TIP3    H223951   0.444   5.848   0.351  0.3416 -0.8245  0.0688
  798TIP3   OH223952   1.676   2.130   8.143  0.3433  0.0655  0.1832
  798TIP3    H123953   1.738   2.085   8.200 -1.1702 -2.4607 -0.0269
  798TIP3    H223954   1.720   2.134   8.058  0.7877 -0.3760  0.3882
  799TIP3   OH223955   4.274   0.693   7.247  0.3897 -0.1437 -0.1444
  799TIP3    H123956   4.309   0.612   7.283  0.4891 -0.7113 -1.4619
  799TIP3    H223957   4.269   0.677   7.153  0.1773  1.2945 -0.3980
  800TIP3   OH223958   1.198   5.205   1.276  0.2532  0.0015 -0.1137
  800TIP3    H123959   1.247   5.286   1.260 -0.6348  0.2416 -1.7475
  800TIP3    H223960   1.171   5.175   1.190 -0.3052 -1.5132  0.5495
  801TIP3   OH223961   2.919   2.045   6.919 -0.5654 -0.3207  0.4548
  801TIP3    H123962   2.842   1.990   6.936 -0.7052 -0.8045 -1.5733
  801TIP3    H223963   2.887   2.134   6.931 -1.5160 -0.5050 -0.4855
  802TIP3   OH223964   2.653   3.731   0.883 -0.1009  0.0781  0.0385
  802TIP3    H123965   2.604   3.708   0.804  1.5905  0.4484 -1.1842
  802TIP3    H223966   2.721   3.790   0.852  1.4079 -0.7829  1.5580
  803TIP3   OH223967   1.848   1.958   8.304 -0.0570 -0.4128 -0.5475
  803TIP3    H123968   1.934   1.921   8.283  0.9800  1.6258 -0.2299
  803TIP3    H223969   1.863   2.009   8.384 -1.2777  0.9577 -1.1505
  804TIP3   OH223970   5.369   1.949   6.860  0.5552  0.0781  0.1698
  804TIP3    H123971   5.423   1.904   6.795  0.2527  0.0240 -0.0455
  804TIP3    H223972   5.348   1.881   6.924 -1.2185 -0.5241 -0.9677
  805TIP3   OH223973   0.986   5.561   8.295 -0.0259  0.3560 -0.0499
  805TIP3    H123974   0.902   5.585   8.256 -0.8580 -0.1444  1.3892
  805TIP3    H223975   1.013   5.638   8.344 -0.1391  0.1717  0.3047
  806TIP3   OH223976   6.456   5.467   0.122  0.3963  0.2418 -0.0996
  806TIP3    H123977   6.475   5.382   0.161 -0.8327  1.0328  2.4642
  806TIP3    H223978   6.527   5.524   0.153  0.3714  0.4983 -0.5071
  807TIP3   OH223979   5.505   0.164   8.239 -0.4422 -0.3082  0.0115
  807TIP3    H123980   5.418   0.179   8.202  0.0937 -0.3965 -1.3495
  807TIP3    H223981   5.548   0.250   8.234 -0.4770 -0.2363  0.7914
  808TIP3   OH223982   0.879   0.647   7.054  0.4276  0.0190 -0.3451
  808TIP3    H123983   0.830   0.576   7.096 -1.1622  0.5354 -1.2891
  808TIP3    H223984   0.823   0.724   7.062  1.6803  0.9569 -0.2666
  809TIP3   OH223985   3.958   4.450   6.680  0.7026  0.7928 -0.6002
  809TIP3    H123986   3.950   4.544   6.663 -0.4311  0.6942 -0.7129
  809TIP3    H223987   3.899   4.434   6.754 -0.0884 -0.0264 -1.3753
  810TIP3   OH223988   4.812   0.509   8.319 -0.2389 -0.0174  0.0078
  810TIP3    H123989   4.801   0.604   8.319  0.1216  0.0400 -1.5028
  810TIP3    H223990   4.907   0.496   8.318 -0.2883 -0.3726 -0.8089
  811TIP3   OH223991   0.177   5.946   7.180  0.4220 -0.8332 -0.6969
  811TIP3    H123992   0.086   5.949   7.212  0.4962  0.9387 -0.5549
  811TIP3    H223993   0.228   5.916   7.255  0.2159  0.3695 -0.0582
  812TIP3   OH223994   6.748   5.551   1.159 -0.1880 -0.1537  0.1209
  812TIP3    H123995   6.797   5.585   1.233  0.1889 -0.5724  0.0655
  812TIP3    H223996   6.788   5.591   1.082 -1.2187  1.0686  0.1909
  813TIP3   OH223997   1.735   4.427   8.330 -1.0238  0.8591 -0.5183
  813TIP3    H123998   1.830   4.431   8.326 -0.9378 -1.0677 -1.6030
  813TIP3    H223999   1.710   4.497   8.391  1.0559  1.4546 -0.2933
  814TIP3   OH224000   4.405   2.531   1.033  0.0473 -0.1543  0.5787
  814TIP3    H124001   4.310   2.538   1.034  0.1366  2.2608 -1.1238
  814TIP3    H224002   4.436   2.609   1.079  1.2598 -0.9890  1.2621
  815TIP3   OH224003   3.107   2.288   8.266 -0.4308 -0.0050  0.2009
  815TIP3    H124004   3.090   2.258   8.355  0.9313 -2.9585 -0.4061
  815TIP3    H224005   3.196   2.324   8.269  0.9659 -3.1167 -0.4833
  816TIP3   OH224006   3.497   4.907   0.943  0.1024  0.9630  0.3386
  816TIP3    H124007   3.419   4.879   0.992 -1.2779  1.3299 -1.5258
  816TIP3    H224008   3.541   4.968   1.002 -0.7154  0.3209  1.6651
  817TIP3   OH224009   2.496   1.167   0.897 -0.3254 -1.2439  0.1770
  817TIP3    H124010   2.473   1.120   0.976 -0.4560 -1.5691 -0.0526
  817TIP3    H224011   2.411   1.190   0.857 -0.2751 -0.2779  0.6002
  818TIP3   OH224012   2.307   3.879   0.791 -0.0240  0.0286 -0.0899
  818TIP3    H124013   2.252   3.906   0.717  0.7447  1.7851 -0.0722
  818TIP3    H224014   2.388   3.849   0.751 -0.1143 -0.3298 -0.0092
  819TIP3   OH224015   1.090   5.177   0.154 -0.5003  0.1214  0.4484
  819TIP3    H124016   1.162   5.222   0.197 -0.3007 -0.4391  0.7146
  819TIP3    H224017   1.116   5.172   0.062  1.2715 -2.7693  0.9927
  820TIP3   OH224018   5.323   6.532   0.340 -0.0654 -0.1986  0.5044
  820TIP3    H124019   5.286   6.490   0.262 -0.0033 -0.5342  0.6516
  820TIP3    H224020   5.411   6.560   0.312  0.9116 -2.4380  1.0996
  821TIP3   OH224021   6.717   0.642   7.365 -0.5531 -0.2413 -0.1903
  821TIP3    H124022   6.714   0.729   7.405 -0.6951  0.2204 -1.1719
  821TIP3    H224023   6.660   0.649   7.288  1.5043 -0.3919 -1.8097
  822TIP3   OH224024   3.116   1.080   0.939 -0.3060 -0.4210  0.0682
  822TIP3    H124025   3.130   1.070   1.033  0.2579 -1.9050 -0.1360
  822TIP3    H224026   3.025   1.053   0.925 -0.1702 -0.9146  0.1104
  823TIP3   OH224027   5.067   1.577   1.399 -0.2295 -0.0799 -0.7010
  823TIP3    H124028   4.978   1.566   1.364 -0.9783  1.9304  0.3381
  823TIP3    H224029   5.122   1.593   1.323 -1.0719  0.2026 -1.2638
  824TIP3   OH224030   0.283   2.750   7.344  0.4519 -0.7219  0.3443
  824TIP3    H124031   0.269   2.658   7.324 -0.0704 -0.5895  0.1046
  824TIP3    H224032   0.354   2.777   7.285  0.4210 -0.8998  0.2259
  825TIP3   OH224033   0.110   3.230   7.215 -0.4088 -0.4672  0.7199
  825TIP3    H124034   0.191   3.201   7.256 -1.1407 -0.2168  2.4395
  825TIP3    H224035   0.134   3.252   7.125  1.5472  0.1766  1.3612
  826TIP3   OH224036   6.375   4.715   7.235  0.1904 -0.2108 -0.3564
  826TIP3    H124037   6.468   4.708   7.215  0.5842  0.8138  0.9755
  826TIP3    H224038   6.352   4.805   7.212 -0.0466  0.0655  0.8776
  827TIP3   OH224039   2.198   3.879   7.235  0.8455 -0.1812  0.4506
  827TIP3    H124040   2.117   3.929   7.246  0.6388 -0.4719  0.2539
  827TIP3    H224041   2.175   3.809   7.174  0.8414 -1.1535  1.5393
  828TIP3   OH224042   6.002   4.703   8.253  0.2325 -0.4459  0.4582
  828TIP3    H124043   5.911   4.720   8.277 -0.1333 -1.7243  0.0594
  828TIP3    H224044   6.015   4.750   8.171  0.6578  1.6542  1.6596
  829TIP3   OH224045   0.873   4.350   7.078 -0.6128 -0.1499  0.3715
  829TIP3    H124046   0.858   4.261   7.111 -1.2002  0.1844  1.0280
  829TIP3    H224047   0.968   4.360   7.078 -0.5365 -0.8286  0.1629
  830TIP3   OH224048   6.037   3.629   1.931  0.3343  0.0156 -0.6678
  830TIP3    H124049   6.038   3.578   1.850  1.6850 -2.9103  1.0148
  830TIP3    H224050   5.953   3.608   1.972  0.8775 -0.9400  0.0100
  831TIP3   OH224051   1.938   6.076   7.204  0.0433  0.2684  0.1732
  831TIP3    H124052   1.969   5.989   7.227  0.1518  0.0035 -0.9179
  831TIP3    H224053   1.964   6.088   7.112 -1.3337  0.8200 -0.1779
  832TIP3   OH224054   5.622   1.699   7.845  0.1278 -0.6166 -0.2621
  832TIP3    H124055   5.622   1.714   7.940  2.1658  1.1308 -0.4571
  832TIP3    H224056   5.672   1.618   7.834 -0.0196 -0.7672  0.1402
  833TIP3   OH224057   2.587   2.492   0.993  0.2531  0.2373  0.1708
  833TIP3    H124058   2.577   2.399   1.013 -0.1145  0.1551 -0.3494
  833TIP3    H224059   2.502   2.518   0.956 -0.6783  1.4816  2.8913
  834TIP3   OH224060   6.855   5.279   2.545 -0.4090  0.3401  0.2037
  834TIP3    H124061   6.933   5.225   2.530 -0.2451  1.3373 -3.4345
  834TIP3    H224062   6.781   5.219   2.536 -0.1354  0.0179  0.0999
  835TIP3   OH224063   4.287   6.690   8.282  0.3197 -0.1528 -0.0096
  835TIP3    H124064   4.238   6.664   8.359  0.1532  1.0370  0.3087
  835TIP3    H224065   4.344   6.761   8.312 -0.9325  1.4815 -1.3030
  836TIP3   OH224066   1.395   5.014   6.520  0.1761 -0.3066  0.0818
  836TIP3    H124067   1.384   5.085   6.456  0.6068 -0.3954 -0.0963
  836TIP3    H224068   1.489   4.993   6.516  0.7899  1.4775  2.6163
  837TIP3   OH224069   4.580   5.594   7.443  0.0438  0.3744 -0.1011
  837TIP3    H124070   4.545   5.676   7.477  1.3354  0.5949  0.7507
  837TIP3    H224071   4.559   5.530   7.511 -0.7842  0.0287 -0.6728
  838TIP3   OH224072   5.849   5.133   7.988  0.1463 -0.0843 -0.3407
  838TIP3    H124073   5.900   5.214   7.992 -1.0371  0.6576  1.6488
  838TIP3    H224074   5.771   5.157   7.938 -0.5332  0.2674  0.8336
  839TIP3   OH224075   0.911   3.197   1.260 -0.6062 -0.2160 -0.4696
  839TIP3    H124076   0.844   3.265   1.264  0.7679  1.3258 -2.3302
  839TIP3    H224077   0.876   3.134   1.197 -0.1552  0.8139 -1.7861
  840TIP3   OH224078   2.774   6.795   8.081  0.0530  0.1287  0.0458
  840TIP3    H124079   2.687   6.807   8.045 -0.0309 -1.0133 -0.1645
  840TIP3    H224080   2.793   6.702   8.069  0.8972  0.1586  0.9858
  841TIP3   OH224081   4.476   3.473   8.127 -0.5739  0.1979  0.0013
  841TIP3    H124082   4.382   3.458   8.120 -0.4835  0.2231 -2.0069
  841TIP3    H224083   4.513   3.428   8.051  0.8530  1.6023 -0.1987
  842TIP3   OH224084   2.943   5.968   1.182  0.2029  0.0318  0.2830
  842TIP3    H124085   3.004   6.035   1.154 -0.6021  1.5194  1.8878
  842TIP3    H224086   2.947   5.971   1.278 -1.4997 -0.6489  0.4058
  843TIP3   OH224087   2.803   3.460   0.802 -0.6906  0.4792 -0.1370
  843TIP3    H124088   2.847   3.525   0.747 -0.4729  0.6044  0.1823
  843TIP3    H224089   2.781   3.507   0.882 -1.3167  0.3841 -0.2534
  844TIP3   OH224090   0.208   1.429   8.276  0.5323  0.9412  0.3626
  844TIP3    H124091   0.161   1.428   8.359  1.1743 -1.7161  0.7888
  844TIP3    H224092   0.141   1.408   8.210  0.0994  2.6649  0.2256
  845TIP3   OH224093   3.926   4.840   2.306  0.3890  0.2733 -0.1120
  845TIP3    H124094   3.996   4.797   2.353 -0.4499 -0.3760  0.5587
  845TIP3    H224095   3.965   4.864   2.222  1.1898 -0.7728 -0.0542
  846TIP3   OH224096   2.554   3.843   8.543 -0.5903 -0.4274 -0.0491
  846TIP3    H124097   2.484   3.908   8.550 -1.7485 -1.6044 -0.3824
  846TIP3    H224098   2.619   3.884   8.486 -1.0876  0.6091  0.1102
  847TIP3   OH224099   3.677   2.159   1.975 -0.0250 -0.0790  0.4008
  847TIP3    H124100   3.670   2.200   1.889  1.1973  0.5100  0.5513
  847TIP3    H224101   3.662   2.230   2.037  1.8321  0.1404  0.6610
  848TIP3   OH224102   3.132   4.826   7.396  0.8890 -0.1464  0.1899
  848TIP3    H124103   3.067   4.830   7.326  0.8050  1.5759  0.3270
  848TIP3    H224104   3.203   4.883   7.366  1.7184 -0.8810  0.6881
  849TIP3   OH224105   3.467   0.218   7.793  0.1754 -0.2028 -0.5777
  849TIP3    H124106   3.393   0.267   7.758 -1.4021 -0.3480  2.1987
  849TIP3    H224107   3.517   0.283   7.843 -0.5085 -0.8439  1.0194
  850TIP3   OH224108   6.323   4.817   1.737 -0.4164  0.6314 -0.8593
  850TIP3    H124109   6.378   4.764   1.681 -2.1811 -1.3220 -0.8607
  850TIP3    H224110   6.310   4.898   1.688  1.3319  0.6167 -1.4127
  851TIP3   OH224111   6.091   1.893   8.405 -0.3012  0.0162 -0.1197
  851TIP3    H124112   6.076   1.951   8.331  0.5622  0.2806 -0.1050
  851TIP3    H224113   6.160   1.834   8.375  0.9578  0.9206  0.8690
  852TIP3   OH224114   2.275   2.802   7.048 -0.4420  0.0385 -0.9637
  852TIP3    H124115   2.289   2.894   7.025 -0.0376  0.6607  1.4958
  852TIP3    H224116   2.315   2.753   6.976 -1.1053  1.7647 -2.5760
  853TIP3   OH224117   6.708   1.877   6.791  0.3595 -0.2490  0.0149
  853TIP3    H124118   6.734   1.957   6.747  0.9718 -1.6424 -2.3327
  853TIP3    H224119   6.623   1.855   6.754 -0.9427  0.4955  2.3829
  854TIP3   OH224120   6.680   3.271   0.642  0.3390 -0.7152  0.0519
  854TIP3    H124121   6.672   3.337   0.574  0.6831  1.2845  1.8430
  854TIP3    H224122   6.775   3.260   0.654  0.3529  0.6696  1.6758
  855TIP3   OH224123   4.032   4.277   7.240  0.2518 -0.6665 -0.3961
  855TIP3    H124124   4.069   4.270   7.328 -0.3335 -0.9815 -0.1704
  855TIP3    H224125   3.972   4.203   7.233  1.0306 -1.2318 -1.4303
  856TIP3   OH224126   1.396   0.534   0.066  0.0160 -0.2978  0.1513
  856TIP3    H124127   1.480   0.512   0.106  0.1053 -1.4870 -0.6290
  856TIP3    H224128   1.344   0.454   0.074 -0.6303  0.0539 -0.4016
  857TIP3   OH224129   0.742   4.568   8.152  0.0237 -0.4465  0.3054
  857TIP3    H124130   0.788   4.488   8.127  0.1647 -0.3894  0.3766
  857TIP3    H224131   0.807   4.619   8.200 -0.1983 -0.4867  0.6534
  858TIP3   OH224132   1.988   1.133   8.057  0.3866 -0.2088  0.0432
  858TIP3    H124133   2.058   1.124   8.121 -1.1564 -2.2322  1.6034
  858TIP3    H224134   1.956   1.043   8.044  0.1973  0.1821 -3.1358
  859TIP3   OH224135   1.322   0.419   1.493 -0.4347 -0.1427 -0.1667
  859TIP3    H124136   1.316   0.476   1.570 -1.9206 -0.2620 -0.1658
  859TIP3    H224137   1.275   0.466   1.424  2.3322  0.7738 -1.5858
  860TIP3   OH224138   5.723   1.795   6.888 -0.1006 -0.3525  0.4783
  860TIP3    H124139   5.637   1.808   6.927  1.1247  0.8676  3.0661
  860TIP3    H224140   5.769   1.737   6.949  0.3821 -2.5086 -1.7985
  861TIP3   OH224141   1.959   3.075   7.996  0.1831  0.2030  0.2064
  861TIP3    H124142   1.957   3.125   7.914  1.5757  0.4708  0.3075
  861TIP3    H224143   1.896   3.120   8.052 -0.0243  0.6551 -0.3768
  862TIP3   OH224144   3.535   1.727   0.322  0.0999 -0.7513  0.0925
  862TIP3    H124145   3.553   1.638   0.354  1.0468 -0.4936  0.2857
  862TIP3    H224146   3.568   1.784   0.391 -0.3462 -0.2365 -0.1135
  863TIP3   OH224147   3.216   6.202   1.618 -0.3724  0.1232 -0.0728
  863TIP3    H124148   3.278   6.265   1.583 -0.2992 -0.6172 -1.3378
  863TIP3    H224149   3.230   6.203   1.713  0.5973  0.9640 -0.2207
  864TIP3   OH224150   1.462   6.756   1.282  0.5814  0.5303 -0.9814
  864TIP3    H124151   1.471   6.714   1.196 -0.8470 -1.1805 -0.3505
  864TIP3    H224152   1.492   6.690   1.344 -1.7027  0.3728  0.0443
  865TIP3   OH224153   2.611   3.520   1.398  0.3506  0.4063  0.0827
  865TIP3    H124154   2.696   3.475   1.395  1.2369  2.0049  0.2757
  865TIP3    H224155   2.600   3.558   1.311  0.6484  1.6232  0.5622
  866TIP3   OH224156   0.933   0.968   1.385 -0.0915  0.1465 -0.8851
  866TIP3    H124157   0.859   0.921   1.422  0.8008 -0.1866  0.5665
  866TIP3    H224158   0.928   1.055   1.423  0.5028 -0.0185 -0.4073
  867TIP3   OH224159   2.722   0.879   7.459  0.5157 -0.6030  0.2419
  867TIP3    H124160   2.654   0.826   7.416  0.3226  0.6137 -1.0205
  867TIP3    H224161   2.676   0.958   7.488  0.9530 -0.7652  1.4316
  868TIP3   OH224162   6.730   0.232   6.755 -0.2199  0.1274  0.1497
  868TIP3    H124163   6.746   0.178   6.832  1.6684  0.0876 -0.2100
  868TIP3    H224164   6.799   0.206   6.693  0.5995  2.6899 -0.1391
  869TIP3   OH224165   5.741   2.953   0.956 -0.4012  0.4250  0.3521
  869TIP3    H124166   5.682   2.922   0.887  0.0837 -1.8642  0.8947
  869TIP3    H224167   5.796   2.878   0.976  0.7800  1.6428  1.8858
  870TIP3   OH224168   0.325   5.294   1.547  0.4016  0.6357  0.2240
  870TIP3    H124169   0.293   5.355   1.481  0.4752  1.2087  0.7092
  870TIP3    H224170   0.266   5.306   1.621  0.5056  0.2150  0.3799
  871TIP3   OH224171   5.719   0.449   6.089 -0.7172 -0.4199 -0.0496
  871TIP3    H124172   5.804   0.470   6.127 -1.6554 -0.3965  2.2687
  871TIP3    H224173   5.734   0.369   6.038  0.7614 -0.1635 -0.0619
  872TIP3   OH224174   3.853   2.292   8.393 -0.4509  0.7371 -0.0451
  872TIP3    H124175   3.946   2.290   8.415 -0.6699  1.8012  1.0810
  872TIP3    H224176   3.812   2.234   8.456 -0.6998  1.3422  0.3656
  873TIP3   OH224177   1.454   2.446   8.111 -0.0662  0.1071 -0.0815
  873TIP3    H124178   1.477   2.420   8.200 -1.4082 -1.3489 -0.1154
  873TIP3    H224179   1.404   2.527   8.121 -0.3998 -0.1705  0.5269
  874TIP3   OH224180   2.838   3.927   0.748 -0.5531  0.1357  0.4447
  874TIP3    H124181   2.840   3.986   0.824 -0.8967  0.1092  0.4771
  874TIP3    H224182   2.784   3.973   0.684 -0.1841  0.2009  0.1777
  875TIP3   OH224183   6.823   3.488   8.650  0.2136 -0.0443 -0.2179
  875TIP3    H124184   6.881   3.561   8.675  2.8800 -1.7729 -0.9543
  875TIP3    H224185   6.794   3.451   8.734  0.9243  0.3042  0.1921
  876TIP3   OH224186   1.721   4.149   8.364 -0.0546 -0.6662  0.1033
  876TIP3    H124187   1.808   4.153   8.404 -0.0478  0.4710  0.0176
  876TIP3    H224188   1.687   4.239   8.372 -1.6205 -1.3017  1.0121
  877TIP3   OH224189   2.062   1.976   1.727  0.0450 -0.0084 -0.8792
  877TIP3    H124190   2.092   1.940   1.810 -2.9989 -1.7748 -0.3922
  877TIP3    H224191   2.059   2.070   1.742  0.8621 -0.1714  0.5187
  878TIP3   OH224192   4.613   1.710   7.923 -0.1872 -1.0290 -0.7280
  878TIP3    H124193   4.706   1.687   7.921  0.5693  1.7264 -1.7033
  878TIP3    H224194   4.586   1.691   8.013  1.5063 -1.2006 -0.2131
  879TIP3   OH224195   0.250   2.111   7.775 -0.9632 -0.6826 -0.5053
  879TIP3    H124196   0.228   2.114   7.682 -1.5412 -1.4701 -0.4118
  879TIP3    H224197   0.332   2.061   7.779 -0.7884 -0.4026 -0.6166
  880TIP3   OH224198   6.267   0.497   2.410  1.0809  0.3081  0.8986
  880TIP3    H124199   6.350   0.449   2.417  1.8457  1.3099 -0.7046
  880TIP3    H224200   6.245   0.518   2.501  0.6158 -3.0864  1.7113
  881TIP3   OH224201   2.481   0.040   1.510 -0.4373 -0.2895  0.1102
  881TIP3    H124202   2.503   0.082   1.593  2.6119 -1.1930 -0.0931
  881TIP3    H224203   2.477   0.111   1.447  1.9281  0.0403  0.2523
  882TIP3   OH224204   1.035   3.801   7.091 -0.6153  0.4411 -0.6786
  882TIP3    H124205   0.992   3.784   7.175  0.8137 -0.0448 -0.0201
  882TIP3    H224206   1.021   3.720   7.041 -0.6054  0.3459 -0.5295
  883TIP3   OH224207   4.937   2.293   0.188 -0.1610 -0.1210  0.4318
  883TIP3    H124208   4.926   2.207   0.147  0.7247 -0.1543  0.2611
  883TIP3    H224209   4.852   2.310   0.230 -0.1670 -1.3366  0.9588
  884TIP3   OH224210   1.109   0.144   8.555  0.2449 -0.4733 -0.5584
  884TIP3    H124211   1.200   0.162   8.533  0.0375 -0.4274 -1.4260
  884TIP3    H224212   1.099   0.050   8.540  0.1459 -0.4745 -0.4846
  885TIP3   OH224213   6.012   5.815   7.962  0.4652 -0.0107  0.5764
  885TIP3    H124214   5.933   5.807   7.910 -0.7049 -0.0532  2.2615
  885TIP3    H224215   6.053   5.728   7.956 -0.0524 -0.2440  0.3387
  886TIP3   OH224216   6.130   6.498   7.135 -0.1596 -0.4182 -0.5571
  886TIP3    H124217   6.182   6.464   7.062 -1.0108  1.5959 -2.2319
  886TIP3    H224218   6.190   6.553   7.184  0.0115 -0.4017 -0.7819
  887TIP3   OH224219   6.611   5.616   8.015 -0.3411  0.8084  0.2578
  887TIP3    H124220   6.696   5.593   7.978 -1.4268 -1.6128 -0.9758
  887TIP3    H224221   6.600   5.557   8.089 -1.4414  0.2266 -0.3461
  888TIP3   OH224222   2.043   0.637   8.014  0.3361 -0.0419 -0.0910
  888TIP3    H124223   1.974   0.614   7.952 -0.2739  0.6641  0.3059
  888TIP3    H224224   2.016   0.598   8.097 -0.1389  1.1234  0.3179
  889TIP3   OH224225   0.103   3.952   6.508 -0.3917  0.0153  0.9025
  889TIP3    H124226   0.058   4.037   6.501  0.3498  0.3588  0.2177
  889TIP3    H224227   0.078   3.905   6.429  2.0879  1.0394 -0.6208
  890TIP3   OH224228   4.173   4.107   0.805 -0.3858 -0.2231 -0.0674
  890TIP3    H124229   4.103   4.084   0.744  0.0430  3.4441 -2.2464
  890TIP3    H224230   4.128   4.148   0.879 -0.7743  2.7254 -1.7466
  891TIP3   OH224231   0.763   3.892   0.321  0.6148  0.2153 -0.2809
  891TIP3    H124232   0.768   3.805   0.360  1.7445 -0.2213 -1.3148
  891TIP3    H224233   0.803   3.882   0.235 -0.8152  1.3764 -1.1408
  892TIP3   OH224234   3.166   1.741   1.394  0.4673 -0.2859  0.2948
  892TIP3    H124235   3.147   1.834   1.397 -1.3695 -0.6468  2.3878
  892TIP3    H224236   3.199   1.726   1.306 -0.1830  2.1450 -0.4372
  893TIP3   OH224237   5.519   4.865   0.602  0.7284  0.7865  0.0329
  893TIP3    H124238   5.602   4.911   0.607  1.8382 -1.2194  1.2445
  893TIP3    H224239   5.516   4.829   0.513  1.4346  0.3981  0.1631
  894TIP3   OH224240   0.081   1.812   1.166 -0.2106 -0.6861 -0.0536
  894TIP3    H124241  -0.005   1.776   1.143  0.1984 -1.4655 -0.3935
  894TIP3    H224242   0.075   1.904   1.142 -0.7208 -0.8881 -0.7392
  895TIP3   OH224243   0.396   0.199   0.935  0.6328  0.3584  0.0726
  895TIP3    H124244   0.388   0.234   0.846  1.2114  1.3832  0.4115
  895TIP3    H224245   0.344   0.258   0.989  1.6048  0.6976  0.6531
  896TIP3   OH224246   0.714   4.620   0.949 -0.4146  0.4855  0.1834
  896TIP3    H124247   0.807   4.638   0.958 -0.1862 -0.8411  0.6548
  896TIP3    H224248   0.703   4.596   0.857 -0.3101  0.6728  0.1204
  897TIP3   OH224249   0.457   4.850   1.435  0.1406  0.2362 -0.0119
  897TIP3    H124250   0.395   4.923   1.440  0.5814  0.5794  0.6802
  897TIP3    H224251   0.457   4.813   1.524  0.2866 -0.3014 -0.2317
  898TIP3   OH224252   4.520   1.965   7.858  0.2882  0.0655 -0.3415
  898TIP3    H124253   4.500   1.984   7.950 -0.3768 -0.0577 -0.4497
  898TIP3    H224254   4.581   1.891   7.861  0.3053  0.0935  0.0033
  899TIP3   OH224255   2.738   4.320   8.286  0.3091  0.0998 -0.1787
  899TIP3    H124256   2.824   4.342   8.321  0.4060  0.9981 -0.9502
  899TIP3    H224257   2.701   4.259   8.351  0.8844  0.9144  0.9524
  900TIP3   OH224258   5.011   0.356   1.713 -0.1978 -0.0561 -0.5652
  900TIP3    H124259   4.992   0.437   1.760  2.0475  0.4086 -0.3105
  900TIP3    H224260   5.080   0.314   1.765 -0.0392 -1.2108 -1.6539
  901TIP3   OH224261   5.470   1.944   8.002 -0.3879 -0.2647 -0.1009
  901TIP3    H124262   5.565   1.947   8.008 -0.4693  0.9565  1.2022
  901TIP3    H224263   5.448   1.853   8.022  0.4776 -0.4407  0.0987
  902TIP3   OH224264   2.820   2.940   1.379  0.0106 -0.7348  0.3035
  902TIP3    H124265   2.849   2.851   1.359  1.9190 -0.0812 -0.0725
  902TIP3    H224266   2.848   2.954   1.470  0.5205 -0.2340  0.0760
  903TIP3   OH224267   3.569   1.482   6.926 -0.3504 -0.3097 -0.6554
  903TIP3    H124268   3.524   1.567   6.931  0.9957  0.6126 -2.8948
  903TIP3    H224269   3.615   1.475   7.010 -1.7717  0.3752  0.2257
  904TIP3   OH224270   6.134   3.314   6.862  0.3187 -0.1480 -0.0505
  904TIP3    H124271   6.055   3.278   6.901 -0.0659  2.1898  1.5460
  904TIP3    H224272   6.202   3.300   6.928  0.4460  0.8256  0.0370
  905TIP3   OH224273   6.455   6.736   7.815 -1.1405 -0.3914  0.0953
  905TIP3    H124274   6.394   6.725   7.889 -1.7817  2.2795  0.0910
  905TIP3    H224275   6.404   6.786   7.750  0.3803  0.0157 -0.8267
  906TIP3   OH224276   6.388   2.300   1.711  0.0182  0.1165  0.7657
  906TIP3    H124277   6.324   2.263   1.650  0.6826 -1.1774  0.8279
  906TIP3    H224278   6.360   2.391   1.722 -0.1010  0.4101 -1.4960
  907TIP3   OH224279   3.171   1.669   1.950 -0.5473 -0.3785 -0.3672
  907TIP3    H124280   3.234   1.730   1.989 -1.3244  1.1669 -1.4327
  907TIP3    H224281   3.159   1.701   1.860 -1.8757 -1.3942 -0.5807
  908TIP3   OH224282   3.579   1.811   1.055  0.0680  0.4238 -0.4389
  908TIP3    H124283   3.654   1.870   1.048  0.4416 -0.2044 -2.0296
  908TIP3    H224284   3.618   1.724   1.065 -0.4801  0.2837  0.7118
  909TIP3   OH224285   0.852   1.809   8.384 -0.0522  0.8135  0.6930
  909TIP3    H124286   0.945   1.830   8.374 -0.1964  0.8708 -0.7213
  909TIP3    H224287   0.820   1.798   8.295 -1.2319 -0.0094  1.1890
  910TIP3   OH224288   3.722   1.138   0.819 -0.5044  0.2530  0.3324
  910TIP3    H124289   3.658   1.139   0.891 -0.1259  0.0825  0.6769
  910TIP3    H224290   3.807   1.133   0.863 -0.3085 -0.9887 -0.1475
  911TIP3   OH224291   3.190   2.471   7.225  0.1820  0.0127  0.0714
  911TIP3    H124292   3.239   2.441   7.302  0.5642 -0.3145 -0.2936
  911TIP3    H224293   3.234   2.430   7.151 -0.9429 -0.6856 -0.2388
  912TIP3   OH224294   1.254   6.700   1.022  0.2630 -0.2748  1.2392
  912TIP3    H124295   1.179   6.742   1.064 -0.0982 -0.0544  0.4063
  912TIP3    H224296   1.224   6.611   1.003  0.2200 -0.1980  0.9394
  913TIP3   OH224297   3.263   6.293   6.850 -0.2469  0.1517  0.4049
  913TIP3    H124298   3.254   6.205   6.814 -0.2446  0.1707  0.3579
  913TIP3    H224299   3.225   6.350   6.784  0.3446  0.2455  0.1403
  914TIP3   OH224300   0.375   1.766   7.169  0.5055 -0.8490 -0.2960
  914TIP3    H124301   0.441   1.824   7.209  0.5165 -1.1635  0.1492
  914TIP3    H224302   0.359   1.804   7.083  1.3910 -0.8643 -0.4742
  915TIP3   OH224303   0.189   4.784   7.991 -0.5048 -0.2022 -0.1934
  915TIP3    H124304   0.150   4.825   7.914 -0.0847  0.2483 -0.1770
  915TIP3    H224305   0.120   4.786   8.057  0.6013  4.3728  1.2077
  916TIP3   OH224306   5.778   3.708   1.598 -0.3989  0.3035 -0.4825
  916TIP3    H124307   5.717   3.722   1.525 -0.9849 -0.7917 -0.2170
  916TIP3    H224308   5.736   3.752   1.672 -0.9140 -0.4906 -0.2886
  917TIP3   OH224309   1.905   0.751   0.862  0.2330 -0.0354 -0.3428
  917TIP3    H124310   1.896   0.806   0.784  2.2620  1.8648  0.6705
  917TIP3    H224311   1.818   0.755   0.903 -1.0422 -1.5054 -2.6801
  918TIP3   OH224312   6.346   2.534   7.648 -0.5528 -0.0867  0.6521
  918TIP3    H124313   6.336   2.557   7.741 -1.2687  0.2476  0.5054
  918TIP3    H224314   6.262   2.495   7.624  0.0856 -1.3998  0.4702
  919TIP3   OH224315   4.539   3.992   0.265 -0.2462  0.4922  0.0415
  919TIP3    H124316   4.601   4.045   0.316  1.1181 -2.2475  1.4232
  919TIP3    H224317   4.462   4.048   0.256  0.8975  2.5197  1.7984
  920TIP3   OH224318   4.479   1.280   6.678 -0.0569  0.1023  0.0734
  920TIP3    H124319   4.445   1.280   6.589 -0.5821 -1.7275  0.2282
  920TIP3    H224320   4.561   1.328   6.673 -0.2017  0.2351 -1.3433
  921TIP3   OH224321   5.545   0.198   0.308 -0.5784 -0.4643  0.2407
  921TIP3    H124322   5.641   0.192   0.312 -0.6806 -1.4332  2.0008
  921TIP3    H224323   5.518   0.208   0.399 -2.2420 -1.7524 -0.0737
  922TIP3   OH224324   1.129   4.956   0.280 -0.6264 -0.1351 -0.2207
  922TIP3    H124325   1.097   5.038   0.244  0.0134  0.3476  0.2922
  922TIP3    H224326   1.063   4.891   0.255 -0.3400  0.2176 -2.0455
  923TIP3   OH224327   5.493   0.119   7.645  0.1030 -0.6248  0.4897
  923TIP3    H124328   5.453   0.061   7.709  0.9727 -1.6331  0.1479
  923TIP3    H224329   5.564   0.162   7.692 -0.8378  0.5570  0.8753
  924TIP3   OH224330   5.165   4.343   1.264  0.0386  0.2594  0.2913
  924TIP3    H124331   5.084   4.314   1.223 -0.6773 -1.3383  2.6479
  924TIP3    H224332   5.195   4.267   1.315  1.4240  1.7518  1.8338
  925TIP3   OH224333   4.829   3.278   8.453 -0.5178 -0.3918 -0.1717
  925TIP3    H124334   4.867   3.254   8.368 -1.0029  1.3349 -0.9122
  925TIP3    H224335   4.745   3.232   8.455 -1.0159  0.4334 -1.1509
  926TIP3   OH224336   1.661   5.499   7.009  0.4763 -0.2116  0.3717
  926TIP3    H124337   1.722   5.442   6.961 -1.0438 -0.9461 -0.7536
  926TIP3    H224338   1.576   5.457   7.000 -0.2139  0.7519  1.9894
  927TIP3   OH224339   6.207   6.816   0.284  0.0231  0.3733 -0.2289
  927TIP3    H124340   6.263   6.764   0.227  0.7957  0.2845  0.5952
  927TIP3    H224341   6.226   6.785   0.372 -1.5028  0.1705  0.0686
  928TIP3   OH224342   0.815   5.119   8.257  0.6046  0.2150  0.0594
  928TIP3    H124343   0.874   5.061   8.210  0.1250  0.6220 -1.0974
  928TIP3    H224344   0.736   5.066   8.272 -0.3211  0.8436 -2.0861
  929TIP3   OH224345   5.102   0.031   2.157 -0.2808 -0.1820  0.6463
  929TIP3    H124346   5.096  -0.006   2.245 -0.4745 -1.7081  0.0370
  929TIP3    H224347   5.013   0.062   2.139 -0.5666 -1.0081  0.5508
  930TIP3   OH224348   2.926   6.356   1.263  0.0595  0.3581  0.3911
  930TIP3    H124349   2.857   6.402   1.311  1.3849  2.4097  0.4614
  930TIP3    H224350   2.957   6.288   1.323 -1.0553  0.2192  0.8205
  931TIP3   OH224351   3.973   3.190   1.225  0.3046  0.3266 -0.3773
  931TIP3    H124352   3.929   3.139   1.293 -1.1992  0.5201 -1.1540
  931TIP3    H224353   3.965   3.137   1.146 -0.5082  1.3410 -1.0038
  932TIP3   OH224354   3.780   5.480   1.226  0.0604 -0.0419  0.1702
  932TIP3    H124355   3.706   5.435   1.186  0.6441 -0.8877  0.0002
  932TIP3    H224356   3.760   5.482   1.319  0.1040 -0.8221  0.2019
  933TIP3   OH224357   1.451   0.479   8.428 -0.0746  0.2794  0.0681
  933TIP3    H124358   1.546   0.465   8.421 -0.2123 -0.4885 -0.3196
  933TIP3    H224359   1.426   0.513   8.342 -0.1191  0.6883  0.2414
  934TIP3   OH224360   2.204   6.021   1.528  0.8269  0.2899 -0.2018
  934TIP3    H124361   2.297   6.035   1.542  0.8014 -0.2034  0.4853
  934TIP3    H224362   2.180   5.950   1.588  0.2053 -0.2369 -1.0436
  935TIP3   OH224363   0.382   3.169   7.261  0.1396 -0.1142 -0.5686
  935TIP3    H124364   0.439   3.223   7.206 -1.3766  1.2338 -0.8984
  935TIP3    H224365   0.344   3.105   7.201  1.1434 -0.9421 -0.3693
  936TIP3   OH224366   5.820   1.933   0.505 -0.0177  0.3035 -0.0451
  936TIP3    H124367   5.907   1.901   0.530  0.4097  1.7778  0.4595
  936TIP3    H224368   5.802   2.002   0.568 -2.1020 -0.7708  0.6162
  937TIP3   OH224369   4.328   5.326   1.597 -0.0011  0.3300  0.3282
  937TIP3    H124370   4.292   5.270   1.665 -0.3702 -0.5910 -0.5961
  937TIP3    H224371   4.361   5.403   1.643 -0.4859 -0.1552  1.5021
  938TIP3   OH224372   0.138   6.221   0.657  0.6305 -0.2979  0.0246
  938TIP3    H124373   0.167   6.146   0.604 -0.1300 -0.4098 -0.2461
  938TIP3    H224374   0.103   6.181   0.737 -1.1658 -0.3669 -0.7433
  939TIP3   OH224375   0.241   2.506   0.336 -0.3230 -0.5394  0.0476
  939TIP3    H124376   0.159   2.513   0.384 -0.6336 -1.1026 -0.3830
  939TIP3    H224377   0.302   2.564   0.383 -1.4098  1.2136 -0.5862
  940TIP3   OH224378   2.636   1.999   8.205 -0.0024  0.5290  0.0175
  940TIP3    H124379   2.711   2.024   8.258 -0.0141 -0.1688  0.3750
  940TIP3    H224380   2.673   1.949   8.132 -0.0373  1.0145 -0.3435
  941TIP3   OH224381   3.616   4.702   6.987 -0.1214 -0.8509  0.6467
  941TIP3    H124382   3.629   4.783   7.036  0.5709 -1.1244  0.9246
  941TIP3    H224383   3.618   4.730   6.895 -0.6475 -0.4504  0.7526
  942TIP3   OH224384   1.627   5.534   1.405  0.8568  0.7768 -0.3895
  942TIP3    H124385   1.537   5.564   1.397  0.5269  0.5666  1.8771
  942TIP3    H224386   1.651   5.553   1.496  2.4343 -0.9696 -0.3846
  943TIP3   OH224387   5.989   5.474   6.537  0.0404 -0.3360  0.2731
  943TIP3    H124388   6.059   5.461   6.601  0.2670 -0.4622 -0.0044
  943TIP3    H224389   5.995   5.566   6.513  0.9224 -0.6274 -0.7003
  944TIP3   OH224390   0.123   3.981   2.154 -0.0317  0.8291  0.1416
  944TIP3    H124391   0.159   3.909   2.206  1.2073  1.9863  0.9616
  944TIP3    H224392   0.046   4.010   2.202 -2.0086 -1.4161 -1.4253
  945TIP3   OH224393   3.619   4.498   2.263 -0.2798  0.1217  0.5566
  945TIP3    H124394   3.588   4.411   2.239 -2.8151  0.5164  2.0108
  945TIP3    H224395   3.557   4.558   2.223  0.9545  1.2497  0.2545
  946TIP3   OH224396   2.847   2.239   7.201  0.1769  0.4282 -0.1983
  946TIP3    H124397   2.825   2.268   7.113 -3.5116  1.2023  0.7792
  946TIP3    H224398   2.831   2.316   7.257 -1.8043 -1.1108  1.5400
  947TIP3   OH224399   4.064   5.196   1.302 -0.3965 -0.3829  0.3000
  947TIP3    H124400   4.007   5.158   1.369 -1.1644  0.9663  0.4605
  947TIP3    H224401   4.147   5.150   1.312  0.6982  1.9717  4.5300
  948TIP3   OH224402   1.238   1.588   1.777  0.2162  0.2144 -0.6203
  948TIP3    H124403   1.281   1.637   1.707  4.9913 -0.9112  1.0740
  948TIP3    H224404   1.270   1.629   1.858  1.1217 -2.9619  0.8095
  949TIP3   OH224405   6.152   3.674   0.575 -0.0220 -0.5395 -0.2844
  949TIP3    H124406   6.130   3.721   0.656  0.0808 -0.0603 -0.5302
  949TIP3    H224407   6.150   3.742   0.507  2.5191 -0.3847 -0.2887
  950TIP3   OH224408   1.407   4.861   0.316 -0.0554 -0.3946  0.3704
  950TIP3    H124409   1.314   4.884   0.327  0.0882  0.9593 -0.9119
  950TIP3    H224410   1.406   4.783   0.260 -0.4129  0.4614 -0.8559
  951TIP3   OH224411   2.233   0.166   2.397 -0.4926 -0.1803 -0.0207
  951TIP3    H124412   2.209   0.073   2.398 -3.6844  0.4729 -2.2195
  951TIP3    H224413   2.166   0.208   2.452 -0.2595  0.9982 -0.6097
  952TIP3   OH224414   1.516   6.140   0.503  0.3675 -0.3391  0.4643
  952TIP3    H124415   1.433   6.181   0.527  0.3671 -1.5466  2.8496
  952TIP3    H224416   1.514   6.055   0.547  2.8629 -0.3945  0.5884
  953TIP3   OH224417   1.894   3.203   7.748 -0.4213 -0.6010 -0.9404
  953TIP3    H124418   1.870   3.286   7.790  1.7352 -1.5332  2.5303
  953TIP3    H224419   1.814   3.150   7.753 -0.2615 -0.7361  2.4741
  954TIP3   OH224420   2.664   4.980   7.158  0.1196 -0.4608  0.0656
  954TIP3    H124421   2.641   5.009   7.069 -0.1729 -0.7936  0.0343
  954TIP3    H224422   2.635   4.889   7.162 -3.2692  0.5709  1.7491
  955TIP3   OH224423   2.204   5.741   7.530 -0.2358 -0.8815  0.2800
  955TIP3    H124424   2.252   5.660   7.550 -2.3914 -2.1491  0.5722
  955TIP3    H224425   2.164   5.725   7.445 -2.6671 -1.1447  1.4021
  956TIP3   OH224426   0.414   5.229   7.876  0.6586 -0.8591  0.2234
  956TIP3    H124427   0.436   5.152   7.930  1.6657 -1.4652 -0.9749
  956TIP3    H224428   0.498   5.254   7.836  0.2284  0.5218  0.1437
  957TIP3   OH224429   2.928   3.506   2.473 -0.6324 -0.5730  0.3227
  957TIP3    H124430   2.958   3.447   2.404  0.0240 -0.1385  0.2361
  957TIP3    H224431   2.832   3.500   2.469 -0.6303 -0.0818 -1.0498
  958TIP3   OH224432   3.234   2.269   1.286  0.2881 -0.3728 -0.0352
  958TIP3    H124433   3.265   2.300   1.372  1.2345  0.7505 -0.7417
  958TIP3    H224434   3.271   2.182   1.277 -0.3580 -0.7685  0.9593
  959TIP3   OH224435   0.391   4.996   1.985  0.1854 -0.7441 -0.7436
  959TIP3    H124436   0.433   4.922   2.030  0.7348 -0.1837 -0.3157
  959TIP3    H224437   0.310   5.010   2.033  0.2889 -0.7934 -0.5521
  960TIP3   OH224438   5.867   5.580   8.639 -0.5666 -0.5205 -0.2166
  960TIP3    H124439   5.917   5.543   8.566 -2.0256 -2.8771 -0.1436
  960TIP3    H224440   5.780   5.597   8.602 -0.9022 -0.4028  0.6102
  961TIP3   OH224441   2.906   3.055   0.836 -0.2455  0.1596 -0.7587
  961TIP3    H124442   2.904   3.063   0.931  1.2333 -2.1867 -0.4404
  961TIP3    H224443   2.992   3.089   0.810  1.2169 -3.1263 -0.6557
  962TIP3   OH224444   4.038   2.557   1.866  0.2354 -0.3854  0.2403
  962TIP3    H124445   3.976   2.595   1.928 -1.9904  1.1301 -2.6463
  962TIP3    H224446   3.983   2.532   1.791  2.8610 -1.1437 -1.5526
  963TIP3   OH224447   0.167   6.092   6.968 -0.8861  0.3233  0.1505
  963TIP3    H124448   0.156   6.041   7.047  0.3868 -0.4861 -0.1620
  963TIP3    H224449   0.247   6.143   6.984 -1.1588  0.8750 -0.2322
  964TIP3   OH224450   1.235   1.301   7.556  0.9235 -0.0811  0.4128
  964TIP3    H124451   1.230   1.344   7.641  2.4722  0.0110  0.4858
  964TIP3    H224452   1.191   1.217   7.568  0.4968  0.2385  1.0999
  965TIP3   OH224453   5.157   5.691   7.914  0.3370 -0.2725  0.1606
  965TIP3    H124454   5.205   5.660   7.991 -0.9333 -1.2425  0.6150
  965TIP3    H224455   5.224   5.724   7.854  1.3693  0.2499  1.5669
  966TIP3   OH224456   4.665   1.112   0.445  0.2162 -0.3115  0.2264
  966TIP3    H124457   4.629   1.148   0.526  2.8318  1.8178  0.6029
  966TIP3    H224458   4.633   1.170   0.376 -0.7304 -1.1721 -0.0704
  967TIP3   OH224459   0.830   3.248   0.471  0.2598 -0.0336 -0.6104
  967TIP3    H124460   0.870   3.301   0.540 -0.2160 -0.0290 -0.3289
  967TIP3    H224461   0.903   3.204   0.428  0.7734  1.6458 -1.5354
  968TIP3   OH224462   3.170   0.438   1.805  0.1363 -0.0476 -0.0914
  968TIP3    H124463   3.090   0.398   1.839 -0.4282  0.0974 -1.1903
  968TIP3    H224464   3.224   0.365   1.778 -0.1400 -0.1199 -0.4571
  969TIP3   OH224465   5.253   2.614   8.139 -0.1337 -0.3300  0.6575
  969TIP3    H124466   5.176   2.570   8.175  0.9361 -0.6450  2.6870
  969TIP3    H224467   5.321   2.603   8.206  2.1497 -1.3109 -1.6486
  970TIP3   OH224468   6.058   1.871   1.627 -0.0813  0.3104  0.0493
  970TIP3    H124469   6.103   1.947   1.663 -0.8714  0.6200  0.4140
  970TIP3    H224470   6.091   1.797   1.678  2.2286  0.0750 -1.6560
  971TIP3   OH224471   5.729   2.670   8.648  0.1238  0.7547 -0.4929
  971TIP3    H124472   5.691   2.757   8.660 -2.2632 -0.1175 -1.1690
  971TIP3    H224473   5.712   2.649   8.556 -0.3440 -0.8451 -0.0730
  972TIP3   OH224474   0.077   4.095   7.637 -0.0634 -0.2341 -0.3114
  972TIP3    H124475   0.011   4.161   7.658  0.3227  0.2794 -0.7102
  972TIP3    H224476   0.123   4.130   7.561  1.7328  0.1745  0.9045
  973TIP3   OH224477   1.269   4.691   8.309 -0.1337 -0.3936  0.3780
  973TIP3    H124478   1.320   4.753   8.362 -0.9845  0.3542  0.3466
  973TIP3    H224479   1.332   4.659   8.244  0.2323  0.7610  0.1257
  974TIP3   OH224480   3.567   3.299   7.772  0.3132 -0.0784 -0.4952
  974TIP3    H124481   3.609   3.384   7.755 -0.1278  0.0300 -1.0689
  974TIP3    H224482   3.639   3.242   7.797  0.5890  0.5178  0.1105
  975TIP3   OH224483   1.256   4.588   6.975  0.6080 -0.0969  0.4826
  975TIP3    H124484   1.283   4.519   6.914 -1.3110 -0.0705 -0.4764
  975TIP3    H224485   1.274   4.669   6.928  1.4890  0.0139  1.0042
  976TIP3   OH224486   4.375   6.370   8.031 -0.1835 -0.5091  0.0942
  976TIP3    H124487   4.446   6.394   8.090 -0.0098 -1.7163  0.4070
  976TIP3    H224488   4.412   6.379   7.943  0.1052 -0.3815  0.2275
  977TIP3   OH224489   6.213   1.719   6.549 -0.1689  0.1116  0.8822
  977TIP3    H124490   6.179   1.777   6.481 -0.2980  0.3874  1.1795
  977TIP3    H224491   6.269   1.657   6.502 -0.8410 -0.1619  0.4270
  978TIP3   OH224492   3.327   3.561   1.411 -0.8929 -0.0633  0.0367
  978TIP3    H124493   3.239   3.593   1.432 -1.2779 -1.4578  0.6566
  978TIP3    H224494   3.325   3.468   1.435  0.8424 -0.0509  0.3284
  979TIP3   OH224495   0.196   4.194   8.024  0.0320 -0.4111 -0.1540
  979TIP3    H124496   0.143   4.273   8.029 -0.8398 -0.9443 -0.6490
  979TIP3    H224497   0.227   4.179   8.113  1.0201  1.0146 -0.2271
  980TIP3   OH224498   6.526   1.673   7.870 -0.5212 -0.2084  0.2110
  980TIP3    H124499   6.530   1.594   7.817  1.0486  0.0121 -0.0442
  980TIP3    H224500   6.484   1.738   7.813 -1.0606 -0.6246  0.1293
  981TIP3   OH224501   6.087   3.255   1.052  0.7883  0.0938 -0.1849
  981TIP3    H124502   6.075   3.349   1.061  0.8677 -0.0619  2.1719
  981TIP3    H224503   6.023   3.228   0.986 -0.4471  1.5572  0.3761
  982TIP3   OH224504   3.679   4.866   2.433 -0.6762  0.2700  0.4558
  982TIP3    H124505   3.658   4.910   2.351  0.8697 -0.4097 -0.3447
  982TIP3    H224506   3.775   4.868   2.437 -0.6756 -0.9335  1.5460
  983TIP3   OH224507   0.405   1.213   6.958 -0.0739 -0.2793 -0.4021
  983TIP3    H124508   0.497   1.186   6.962  0.6616  2.0953  1.0306
  983TIP3    H224509   0.391   1.235   6.866  0.7388 -0.8509 -0.6759
  984TIP3   OH224510   0.556   0.885   8.396  0.3604 -0.2507  0.5796
  984TIP3    H124511   0.593   0.844   8.475  0.0165 -1.9778 -0.1134
  984TIP3    H224512   0.632   0.901   8.340  0.4793 -0.0716  0.7885
  985TIP3   OH224513   4.804   0.912   6.285 -0.4639 -1.0934 -0.3563
  985TIP3    H124514   4.767   0.860   6.357 -1.0149 -1.8124 -1.1418
  985TIP3    H224515   4.758   0.881   6.207 -2.1197  1.7881 -0.6575
  986TIP3   OH224516   2.468   3.397   0.239  0.6548  0.5341  0.1380
  986TIP3    H124517   2.486   3.402   0.333  0.1295  1.9668  0.1880
  986TIP3    H224518   2.515   3.318   0.210  0.3178 -0.2823  1.6920
  987TIP3   OH224519   4.358   3.196   6.190 -0.3548  0.0944  0.3301
  987TIP3    H124520   4.407   3.136   6.134 -0.0173 -0.7774  1.5031
  987TIP3    H224521   4.268   3.162   6.187 -0.9242  1.6387 -1.7478
  988TIP3   OH224522   2.062   2.291   0.097  0.5729  0.9275  0.1854
  988TIP3    H124523   2.005   2.313   0.171 -1.1854 -1.8698 -0.1902
  988TIP3    H224524   2.120   2.223   0.132 -0.0699 -0.2021 -0.8783
  989TIP3   OH224525   5.693   2.527   6.630 -0.4098 -0.1955 -0.0908
  989TIP3    H124526   5.787   2.522   6.617  0.0223 -2.2948  2.9546
  989TIP3    H224527   5.678   2.615   6.666  0.4167  0.0166 -0.2584
  990TIP3   OH224528   1.078   4.292   7.695  0.3729 -0.0989 -0.2918
  990TIP3    H124529   1.125   4.241   7.629  2.3417  0.5199  0.5510
  990TIP3    H224530   1.140   4.360   7.721 -1.1844  1.0434  0.5845
  991TIP3   OH224531   1.198   5.714   7.352  0.6918  0.1229 -0.1091
  991TIP3    H124532   1.230   5.783   7.411  1.3636 -0.7396  0.5767
  991TIP3    H224533   1.254   5.721   7.274 -0.1248  1.1967 -0.6131
  992TIP3   OH224534   2.390   5.554   0.306  0.2065  0.2280  0.1120
  992TIP3    H124535   2.365   5.482   0.248  1.2567  0.6356 -0.8896
  992TIP3    H224536   2.442   5.612   0.251  1.6521  0.3945  1.5718
  993TIP3   OH224537   5.530   4.970   0.861 -0.9089 -0.6154  0.7478
  993TIP3    H124538   5.579   5.046   0.831 -0.2578 -1.7128 -1.1259
  993TIP3    H224539   5.504   4.924   0.781 -0.8486 -2.6400  1.8088
  994TIP3   OH224540   2.422   2.323   0.594 -0.2519 -0.3773  0.1732
  994TIP3    H124541   2.366   2.350   0.521  1.2698  0.9102 -0.5860
  994TIP3    H224542   2.457   2.239   0.567 -1.9298 -1.3081  0.7550
  995TIP3   OH224543   0.846   4.626   7.861 -0.3771  0.0575 -0.0520
  995TIP3    H124544   0.922   4.654   7.810 -1.8876  1.3942 -1.7059
  995TIP3    H224545   0.879   4.614   7.949  1.8132  0.2576 -0.7956
  996TIP3   OH224546   4.310   5.351   6.633 -0.2096  0.2765 -0.3370
  996TIP3    H124547   4.400   5.379   6.653  0.2899 -0.2757 -1.7481
  996TIP3    H224548   4.317   5.305   6.550 -1.8981  0.6957 -0.7344
  997TIP3   OH224549   4.153   4.918   8.413  0.2185  0.9513 -0.2087
  997TIP3    H124550   4.071   4.871   8.399  0.6817  0.0879 -0.1282
  997TIP3    H224551   4.143   5.000   8.365 -1.3466  1.6362  1.2040
  998TIP3   OH224552   0.121   2.024   8.356 -0.4419 -0.2755  0.5484
  998TIP3    H124553   0.122   2.102   8.300 -0.0457  0.0951  1.0507
  998TIP3    H224554   0.187   1.967   8.318  2.0621  1.2394  2.3102
  999TIP3   OH224555   3.158   4.929   6.538 -0.6723  0.0346  0.2931
  999TIP3    H124556   3.165   4.858   6.601  2.0629  0.1323  0.2401
  999TIP3    H224557   3.238   4.922   6.485 -1.6322  1.5126 -1.5003
 1000TIP3   OH224558   3.343   5.277   7.463 -0.0351  0.2916  0.0002
 1000TIP3    H124559   3.337   5.318   7.376  1.2209 -1.3713 -0.9501
 1000TIP3    H224560   3.385   5.192   7.446  1.2651  0.3644  2.3896
 1001TIP3   OH224561   3.145   3.120   8.233  0.3006  0.1040  0.0266
 1001TIP3    H124562   3.106   3.037   8.204  0.5979 -0.0734  0.1376
 1001TIP3    H224563   3.070   3.174   8.256  0.1446 -0.5798  1.1811
 1002TIP3   OH224564   2.173   6.578   0.701  0.3164 -0.4987 -0.5851
 1002TIP3    H124565   2.148   6.653   0.756  2.2673 -0.2659  0.0615
 1002TIP3    H224566   2.090   6.545   0.667 -0.8365  0.3176  1.2460
 1003TIP3   OH224567   3.448   0.343   0.019 -0.0578  0.2840 -0.0345
 1003TIP3    H124568   3.433   0.263  -0.031 -1.9929 -0.9301  2.2639
 1003TIP3    H224569   3.367   0.393   0.008 -0.8218 -0.3096  2.2113
 1004TIP3   OH224570   0.024   5.869   8.172  0.4515  0.1121 -0.7661
 1004TIP3    H124571   0.016   5.790   8.225 -2.3371 -0.8746 -2.5251
 1004TIP3    H224572   0.023   5.940   8.237  0.3462 -1.1491  0.6825
 1005TIP3   OH224573   4.616   4.225   0.045 -0.1383  0.2789 -0.5748
 1005TIP3    H124574   4.583   4.136   0.057 -1.1419  0.7286  0.0501
 1005TIP3    H224575   4.692   4.214  -0.013  1.0437 -1.2135  1.1671
 1006TIP3   OH224576   2.798   2.080   2.350 -0.1434  0.1618  0.2819
 1006TIP3    H124577   2.802   2.163   2.398 -0.2761  1.0146 -1.1067
 1006TIP3    H224578   2.711   2.046   2.367 -0.4394  0.8077  0.1076
 1007TIP3   OH224579   4.207   2.608   1.289 -0.1151  0.1177 -0.5431
 1007TIP3    H124580   4.216   2.703   1.279  1.1575 -0.0008 -0.7194
 1007TIP3    H224581   4.225   2.592   1.381 -1.5883  0.1549 -0.2249
 1008TIP3   OH224582   5.551   3.468   1.246 -0.5362 -0.3559 -0.0739
 1008TIP3    H124583   5.633   3.419   1.251  0.6316  1.5362  0.3971
 1008TIP3    H224584   5.506   3.450   1.329  0.6763  0.6256  0.8452
 1009TIP3   OH224585   6.581   4.257   7.846  0.4530  0.4274 -0.0885
 1009TIP3    H124586   6.596   4.231   7.755  3.1050  2.0563 -0.2240
 1009TIP3    H224587   6.643   4.205   7.896 -0.3869  0.1793  0.7249
 1010TIP3   OH224588   2.919   1.739   7.387  0.2007  0.2232  0.1403
 1010TIP3    H124589   2.899   1.651   7.356  0.3554  1.2058 -3.1787
 1010TIP3    H224590   2.869   1.797   7.328  1.8651  2.3758  0.7147
 1011TIP3   OH224591   4.229   6.099   0.267 -0.0117 -0.0997 -0.0326
 1011TIP3    H124592   4.318   6.101   0.304  0.2671 -1.9864 -0.4936
 1011TIP3    H224593   4.179   6.159   0.323  1.4263  0.6261  0.5392
 1012TIP3   OH224594   4.512   1.024   8.291  0.3037  0.1098 -0.3349
 1012TIP3    H124595   4.436   0.981   8.329 -0.2486  1.4570  0.1271
 1012TIP3    H224596   4.539   1.088   8.356  2.3561 -0.8702 -0.1122
 1013TIP3   OH224597   1.818   5.858   0.940  0.2483 -0.1866 -0.2700
 1013TIP3    H124598   1.826   5.871   1.035  1.7029 -0.1557 -0.3786
 1013TIP3    H224599   1.871   5.927   0.901  0.4383 -0.7761 -1.0865
 1014TIP3   OH224600   1.193   4.528   6.024 -0.1971 -0.3443  0.5860
 1014TIP3    H124601   1.132   4.506   6.095 -1.7774 -0.4578 -0.7666
 1014TIP3    H224602   1.262   4.462   6.031 -1.0200 -1.1771  1.2132
 1015TIP3   OH224603   4.828   0.107   7.833 -0.0195 -0.2890  0.1089
 1015TIP3    H124604   4.848   0.200   7.821  4.6371 -1.0616  0.1080
 1015TIP3    H224605   4.787   0.104   7.920  1.3835  1.6632  0.9405
 1016TIP3   OH224606   5.986   1.698   0.617 -0.3192 -0.0657  0.0963
 1016TIP3    H124607   6.017   1.676   0.704  1.7318 -0.2568 -0.6300
 1016TIP3    H224608   5.987   1.615   0.569 -2.1352 -0.0975  0.0672
 1017TIP3   OH224609   5.838   0.207   7.202  0.7924  0.0511  0.1946
 1017TIP3    H124610   5.815   0.298   7.218  0.1300  0.1514 -1.2012
 1017TIP3    H224611   5.768   0.173   7.147 -1.0281 -2.4000  3.6514
 1018TIP3   OH224612   3.151   2.770   0.101  0.2278  0.2260  0.0344
 1018TIP3    H124613   3.212   2.735   0.036  0.1950  0.0390  0.1041
 1018TIP3    H224614   3.165   2.865   0.098  1.5276  0.0944  1.0520
 1019TIP3   OH224615   0.736   3.787   2.427 -0.2534 -0.2410  0.1068
 1019TIP3    H124616   0.644   3.809   2.415  0.1307  0.5811 -1.6984
 1019TIP3    H224617   0.752   3.714   2.367 -0.0413 -1.3653  1.4893
 1020TIP3   OH224618   1.267   0.390   1.083 -0.2878 -0.5308 -1.1166
 1020TIP3    H124619   1.176   0.366   1.069 -1.0879  1.8223 -0.4093
 1020TIP3    H224620   1.310   0.308   1.106 -3.0612 -1.2144  2.5761
 1021TIP3   OH224621   4.364   1.811   1.153 -0.1853 -0.0043 -0.5119
 1021TIP3    H124622   4.356   1.735   1.211 -0.0605 -0.1670 -0.7076
 1021TIP3    H224623   4.456   1.813   1.128 -0.2069  0.1574 -0.5806
 1022TIP3   OH224624   5.702   5.364   0.483 -0.0762 -0.3890 -0.1359
 1022TIP3    H124625   5.778   5.318   0.518 -0.9961 -2.3456 -0.6028
 1022TIP3    H224626   5.730   5.456   0.479  1.8241 -0.8744  0.8221
 1023TIP3   OH224627   5.324   3.059   7.898 -0.5718 -0.1791  0.0962
 1023TIP3    H124628   5.295   2.968   7.902 -0.7268 -0.1279  0.1897
 1023TIP3    H224629   5.266   3.100   7.834 -0.2768 -0.2246 -0.2021
 1024TIP3   OH224630   1.464   1.446   0.406  0.0367 -0.3258 -0.1926
 1024TIP3    H124631   1.447   1.479   0.494 -1.6213  1.7656 -1.2087
 1024TIP3    H224632   1.557   1.422   0.406 -0.3752 -2.4016  2.6685
 1025TIP3   OH224633   5.531   5.412   6.868  0.2375 -0.3659 -0.2061
 1025TIP3    H124634   5.450   5.367   6.889  1.0650 -0.5075  3.3197
 1025TIP3    H224635   5.564   5.367   6.791 -2.1211 -1.4787 -0.6556
 1026TIP3   OH224636   3.876   0.407   6.236 -0.6129  0.5202 -0.0379
 1026TIP3    H124637   3.922   0.325   6.218 -0.0868  0.7469  0.2644
 1026TIP3    H224638   3.822   0.388   6.313  0.2905  0.7416  0.6717
 1027TIP3   OH224639   2.069   6.515   0.002 -0.3060 -0.4305  0.2724
 1027TIP3    H124640   2.079   6.420  -0.007 -0.0426 -0.2695 -1.4904
 1027TIP3    H224641   2.023   6.526   0.085  1.4181 -1.9835  1.5298
 1028TIP3   OH224642   3.333   4.190   8.247  0.3533 -0.2040 -0.5562
 1028TIP3    H124643   3.354   4.275   8.208  1.3182 -0.4086 -0.5216
 1028TIP3    H224644   3.410   4.170   8.301 -0.4501 -0.4660  0.5232
 1029TIP3   OH224645   2.196   5.861   0.685  0.1309  0.0275  0.5897
 1029TIP3    H124646   2.152   5.811   0.754 -0.3570 -0.6555 -0.1948
 1029TIP3    H224647   2.139   5.851   0.608 -0.4598  2.5426  0.6188
 1030TIP3   OH224648   4.734   0.833   7.802 -0.1198  0.3186 -0.1573
 1030TIP3    H124649   4.739   0.818   7.708 -1.6079 -0.3782 -0.1454
 1030TIP3    H224650   4.748   0.928   7.811  1.8128  0.1394 -0.8924
 1031TIP3   OH224651   3.817   5.823   7.075  0.9797  0.2774  0.1435
 1031TIP3    H124652   3.883   5.779   7.022  0.2581 -2.5715  1.4323
 1031TIP3    H224653   3.734   5.805   7.031  0.6022 -0.3401  1.0716
 1032TIP3   OH224654   6.654   6.511   8.488  0.0346  0.2608  0.5232
 1032TIP3    H124655   6.639   6.515   8.583  2.0530 -1.0278  0.9669
 1032TIP3    H224656   6.680   6.600   8.465 -1.3734  0.8142  0.9864
 1033TIP3   OH224657   0.499   3.556   7.081 -0.5885  0.1916 -0.7040
 1033TIP3    H124658   0.587   3.532   7.109 -0.3765  3.9159  2.7333
 1033TIP3    H224659   0.444   3.484   7.110  0.8372 -0.1509  1.3549
 1034TIP3   OH224660   5.950   2.559   1.430 -0.1703  0.1838  0.2521
 1034TIP3    H124661   5.930   2.481   1.379 -1.1626  0.2338  0.5580
 1034TIP3    H224662   5.969   2.626   1.364 -0.1301 -0.0913 -0.0206
 1035TIP3   OH224663   2.645   3.150   1.273 -0.7098  0.6419  0.2966
 1035TIP3    H124664   2.635   3.126   1.365 -2.2508  0.1462  0.0162
 1035TIP3    H224665   2.556   3.151   1.238 -0.2393  1.8574 -0.9439
 1036TIP3   OH224666   1.557   5.796   0.395  0.1020 -0.4465 -0.2164
 1036TIP3    H124667   1.536   5.853   0.321  1.1627  1.6334  0.9964
 1036TIP3    H224668   1.513   5.837   0.470 -2.1137 -3.2640  0.1769
 1037TIP3   OH224669   2.075   5.325   7.389  0.5869 -0.6715 -0.6309
 1037TIP3    H124670   2.061   5.266   7.315  0.8378  0.1005 -1.2944
 1037TIP3    H224671   2.112   5.268   7.457  1.4436 -1.1691 -1.4823
 1038TIP3   OH224672   3.493   0.205   0.264 -0.3595 -0.4863 -0.4935
 1038TIP3    H124673   3.492   0.280   0.324 -0.7489 -0.9041  0.0420
 1038TIP3    H224674   3.442   0.233   0.189  1.1081  0.4620 -1.1702
 1039TIP3   OH224675   0.024   6.413   2.204  0.0477 -0.0453 -0.0626
 1039TIP3    H124676  -0.023   6.344   2.156 -1.0322  1.4355 -1.2084
 1039TIP3    H224677   0.083   6.365   2.263 -1.7042 -1.9726  0.2461
 1040TIP3   OH224678   2.343   5.384   2.539 -0.2404 -0.0889  0.7058
 1040TIP3    H124679   2.257   5.416   2.566  0.5539  2.2640  0.6490
 1040TIP3    H224680   2.364   5.433   2.460 -0.4047 -3.3728 -1.5854
 1041TIP3   OH224681   3.660   5.775   1.970 -0.0094 -0.4980  0.3308
 1041TIP3    H124682   3.642   5.843   1.905 -0.3189 -1.3944 -0.5623
 1041TIP3    H224683   3.753   5.784   1.989  0.5901 -1.4626 -1.8011
 1042TIP3   OH224684   1.920   3.739   8.523 -0.3908  1.0065 -0.1270
 1042TIP3    H124685   1.950   3.720   8.434 -1.0153  1.4099 -0.4328
 1042TIP3    H224686   1.974   3.684   8.579  0.0413  0.7821 -0.7558
 1043TIP3   OH224687   5.280   2.566   1.575 -0.2829  0.0587  0.3385
 1043TIP3    H124688   5.341   2.636   1.597 -0.4854  0.3542 -0.0287
 1043TIP3    H224689   5.282   2.507   1.650  1.0652 -0.3544 -0.0055
 1044TIP3   OH224690   6.376   5.163   7.499 -0.2665  0.1938 -0.2212
 1044TIP3    H124691   6.365   5.241   7.553 -0.6122  1.1253 -1.6141
 1044TIP3    H224692   6.437   5.108   7.549 -1.3017  0.5910  1.5652
 1045TIP3   OH224693   5.685   6.134   8.264 -0.5364 -0.7429  0.2166
 1045TIP3    H124694   5.719   6.111   8.350  1.0463  0.1588 -0.1216
 1045TIP3    H224695   5.756   6.113   8.203 -0.2294  1.8298 -0.4549
 1046TIP3   OH224696   3.849   3.676   1.271 -0.6730  0.2893  0.0822
 1046TIP3    H124697   3.911   3.720   1.213 -0.5632 -0.2020 -0.1791
 1046TIP3    H224698   3.802   3.747   1.315 -0.7335  0.6699 -0.5848
 1047TIP3   OH224699   5.894   6.638   8.006  0.3069  0.2332  0.3409
 1047TIP3    H124700   5.857   6.695   8.073 -1.9680  0.8303 -1.3001
 1047TIP3    H224701   5.847   6.555   8.016  0.1069  0.2554 -0.3464
 1048TIP3   OH224702   5.129   4.894   0.634  0.2198  1.0080 -0.2635
 1048TIP3    H124703   5.188   4.833   0.679  0.1864  1.8303  0.9464
 1048TIP3    H224704   5.069   4.838   0.585  1.9415  0.1377 -1.5089
 1049TIP3   OH224705   3.966   3.841   6.198  0.4064  0.4142 -0.7147
 1049TIP3    H124706   4.061   3.830   6.207  0.3859  0.1682 -0.7903
 1049TIP3    H224707   3.935   3.756   6.166 -0.1760 -0.3634  1.7657
 1050TIP3   OH224708   6.727   3.471   7.188 -0.2890  0.2808 -0.0246
 1050TIP3    H124709   6.759   3.432   7.107 -0.4374  0.9506 -0.4115
 1050TIP3    H224710   6.804   3.470   7.246 -0.7454 -2.2405  0.6362
 1051TIP3   OH224711   5.164   3.460   0.481 -0.3862  0.2169 -0.0881
 1051TIP3    H124712   5.183   3.534   0.423 -2.4432  0.8636 -0.0098
 1051TIP3    H224713   5.112   3.400   0.428 -0.9989  0.0987  0.6213
 1052TIP3   OH224714   0.946   5.289   7.718 -0.5318  0.2282 -0.1170
 1052TIP3    H124715   1.027   5.256   7.757 -0.4577 -1.3259 -1.4529
 1052TIP3    H224716   0.972   5.321   7.632 -1.5971 -2.3534 -1.4999
 1053TIP3   OH224717   2.543   5.029   7.484 -0.3489  0.2416 -0.0083
 1053TIP3    H124718   2.599   5.075   7.547 -0.8138 -0.9185  1.3157
 1053TIP3    H224719   2.594   5.028   7.403  0.8097  0.7066  0.6798
 1054TIP3   OH224720   1.624   2.347   7.867  0.1352  0.2195  0.4864
 1054TIP3    H124721   1.585   2.434   7.864 -0.3828 -0.0410 -1.4673
 1054TIP3    H224722   1.572   2.300   7.933 -2.4495  0.1175 -1.5009
 1055TIP3   OH224723   4.629   0.034   7.335  0.1281  0.1595  0.2022
 1055TIP3    H124724   4.691   0.104   7.355 -1.4295  1.8872 -0.7741
 1055TIP3    H224725   4.655   0.002   7.249 -0.1672  0.6614 -0.0687
 1056TIP3   OH224726   3.365   6.106   7.695  0.5371 -0.2209 -0.1910
 1056TIP3    H124727   3.343   6.192   7.659  0.0130  0.1222  0.8967
 1056TIP3    H224728   3.402   6.125   7.781  0.5814 -1.0751 -0.0141
 1057TIP3   OH224729   6.855   6.106   0.885  0.3328  0.2624  0.0409
 1057TIP3    H124730   6.784   6.071   0.831  1.1147  0.1902 -0.9805
 1057TIP3    H224731   6.889   6.030   0.932 -0.0359  0.2393  0.2800
 1058TIP3   OH224732   1.888   3.700   1.350  0.2838 -0.1345  0.0455
 1058TIP3    H124733   1.900   3.637   1.278 -1.2759 -0.9476  0.4719
 1058TIP3    H224734   1.977   3.712   1.385  0.6338 -2.0923 -0.0547
 1059TIP3   OH224735   4.525   4.203   7.384  0.4842 -0.3036 -0.1902
 1059TIP3    H124736   4.441   4.162   7.405  0.6161 -0.0545  0.8874
 1059TIP3    H224737   4.569   4.213   7.469  0.9368  1.0053 -0.5542
 1060TIP3   OH224738   2.183   0.459   0.735  0.5340  0.1418 -0.9197
 1060TIP3    H124739   2.125   0.518   0.783  1.0148  0.1516 -0.3401
 1060TIP3    H224740   2.206   0.391   0.799  0.0841 -0.6124 -1.5434
 1061TIP3   OH224741   0.047   0.387   8.099  0.6293  0.9647  0.1594
 1061TIP3    H124742  -0.017   0.348   8.159  1.9601 -2.1759 -0.2406
 1061TIP3    H224743  -0.006   0.418   8.026 -0.6459  0.7410  0.9411
 1062TIP3   OH224744   5.512   3.731   7.362 -0.0863 -0.5167  0.3332
 1062TIP3    H124745   5.455   3.655   7.356 -2.4878  1.0036  2.1022
 1062TIP3    H224746   5.540   3.733   7.454  1.8386 -0.5021 -0.2105
 1063TIP3   OH224747   0.982   6.773   7.941  0.1546  0.1383  0.2614
 1063TIP3    H124748   0.934   6.824   7.876  1.2889  1.2099  0.2477
 1063TIP3    H224749   0.914   6.745   8.004 -0.6035  0.9716 -0.1661
 1064TIP3   OH224750   0.617   0.207   8.119 -0.6520 -0.1942 -0.1311
 1064TIP3    H124751   0.670   0.220   8.041  0.6016  1.7191  0.9618
 1064TIP3    H224752   0.672   0.158   8.179 -0.4863  0.8390  0.5963
 1065TIP3   OH224753   0.317   3.315   6.991 -0.3746 -0.1811 -0.7830
 1065TIP3    H124754   0.411   3.297   6.982 -0.2393  0.1946 -0.1735
 1065TIP3    H224755   0.284   3.313   6.901  0.2341 -0.2085 -1.0141
 1066TIP3   OH224756   0.388   5.215   0.375 -0.5236  0.2762  0.1350
 1066TIP3    H124757   0.407   5.305   0.348  1.7396 -0.9191 -2.9046
 1066TIP3    H224758   0.455   5.194   0.440 -0.3565  0.4490  0.0194
 1067TIP3   OH224759   0.968   1.387   7.757 -0.2518  0.5732  0.3722
 1067TIP3    H124760   0.952   1.294   7.772  0.1835  0.2344 -1.0625
 1067TIP3    H224761   0.991   1.422   7.843  0.6471 -0.8753  0.7614
 1068TIP3   OH224762   3.101   1.542   2.174 -0.3326 -0.4215 -0.2160
 1068TIP3    H124763   3.112   1.597   2.097  0.6385 -0.7844 -0.3484
 1068TIP3    H224764   3.092   1.453   2.139 -1.4463 -0.4082  0.0170
 1069TIP3   OH224765   4.393   5.576   1.697  0.2640 -0.0807 -0.7555
 1069TIP3    H124766   4.420   5.644   1.759 -0.9355 -0.9485  0.8177
 1069TIP3    H224767   4.474   5.543   1.660  1.0586  0.3143  0.5567
 1070TIP3   OH224768   3.370   2.225   1.662  0.0521  0.6415  0.3659
 1070TIP3    H124769   3.463   2.245   1.672 -0.0007  0.4703  1.2645
 1070TIP3    H224770   3.335   2.297   1.610  0.7462  0.5390 -0.2681
 1071TIP3   OH224771   0.278   3.683   6.530  0.6104  0.2601  0.4332
 1071TIP3    H124772   0.182   3.679   6.525  0.6391  0.3588 -0.3301
 1071TIP3    H224773   0.303   3.605   6.579  0.1457  0.1909  0.5635
 1072TIP3   OH224774   2.901   4.888   2.424  0.3266 -0.0314 -0.5577
 1072TIP3    H124775   2.944   4.968   2.455  0.9814  0.1442 -1.8361
 1072TIP3    H224776   2.899   4.898   2.329  0.1536 -1.4055 -0.7135
 1073TIP3   OH224777   2.508   4.767   0.784 -0.4709 -0.3143 -0.0072
 1073TIP3    H124778   2.476   4.680   0.808  0.2431 -0.3257  0.9841
 1073TIP3    H224779   2.581   4.782   0.843 -0.3977  0.8425 -0.3720
 1074TIP3   OH224780   3.351   1.938   2.273  0.3796 -0.2595 -0.1427
 1074TIP3    H124781   3.406   1.968   2.201  1.3150 -1.5153  0.0095
 1074TIP3    H224782   3.280   1.890   2.230  1.4284 -1.8074 -0.2652
 1075TIP3   OH224783   2.513   5.408   1.708  0.1109 -1.0580  0.2826
 1075TIP3    H124784   2.434   5.372   1.667  1.3912 -1.9657 -1.5174
 1075TIP3    H224785   2.580   5.342   1.692  1.5278  0.2464  0.6719
 1076TIP3   OH224786   1.925   0.786   8.293 -0.1804  0.6414 -0.3019
 1076TIP3    H124787   1.870   0.848   8.342 -0.3150  0.4562 -0.2148
 1076TIP3    H224788   1.876   0.704   8.297  0.0523  0.5039 -0.3217
 1077TIP3   OH224789   2.961   6.587   0.514 -0.0400 -0.0106  0.8198
 1077TIP3    H124790   2.940   6.670   0.558 -0.0357  0.0050  0.7928
 1077TIP3    H224791   3.043   6.559   0.554  0.2719  0.3065  0.4096
 1078TIP3   OH224792   2.580   5.580   1.086 -0.6932 -0.5219 -0.3486
 1078TIP3    H124793   2.569   5.598   0.993 -0.5727  1.3322 -0.0454
 1078TIP3    H224794   2.632   5.653   1.118 -2.4535 -0.0119  1.5643
 1079TIP3   OH224795   2.219   4.143   7.428  0.0727  0.0213  0.3184
 1079TIP3    H124796   2.185   4.074   7.484  1.9893 -1.1311  0.1321
 1079TIP3    H224797   2.292   4.181   7.478  0.0085  0.8995 -0.2227
 1080TIP3   OH224798   1.753   4.002   1.803 -0.0374 -0.2464  0.2242
 1080TIP3    H124799   1.773   4.027   1.894  2.2483  0.0678 -0.3041
 1080TIP3    H224800   1.790   3.915   1.793 -1.5147 -0.8750 -0.0517
 1081TIP3   OH224801   2.314   3.688   0.977 -0.6333  0.1885 -0.1338
 1081TIP3    H124802   2.317   3.744   0.900 -0.9252  1.3266  0.6525
 1081TIP3    H224803   2.279   3.604   0.946  1.4815 -0.1908 -1.6898
 1082TIP3   OH224804   6.411   1.179   1.969 -0.3566  0.4403 -0.5885
 1082TIP3    H124805   6.325   1.164   2.010  0.7068 -2.6108  0.8037
 1082TIP3    H224806   6.460   1.229   2.034 -0.6419  1.1041 -0.8689
 1083TIP3   OH224807   2.830   2.334   8.238  0.0045 -0.5220 -0.2377
 1083TIP3    H124808   2.826   2.336   8.142  1.3598 -1.1041 -0.3294
 1083TIP3    H224809   2.921   2.311   8.258  0.3791  1.9052  1.2309
 1084TIP3   OH224810   3.024   1.542   1.511 -0.1203 -0.1085 -0.1347
 1084TIP3    H124811   3.098   1.487   1.536 -0.6083 -0.9230 -0.4683
 1084TIP3    H224812   3.065   1.623   1.480  0.6404 -0.5852 -0.4143
 1085TIP3   OH224813   4.934   2.834   8.074  0.1941 -0.3739  0.3940
 1085TIP3    H124814   4.959   2.753   8.028  0.1358  0.4517 -1.1564
 1085TIP3    H224815   4.997   2.841   8.146 -0.2129 -2.1395  0.9815
 1086TIP3   OH224816   1.733   4.835   0.691  0.1126 -0.4215  0.0564
 1086TIP3    H124817   1.674   4.891   0.640  1.5361  2.5812  1.4516
 1086TIP3    H224818   1.821   4.867   0.671  0.8121 -0.1277  3.0961
 1087TIP3   OH224819   2.980   3.767   6.528  0.1156 -0.4624  0.9628
 1087TIP3    H124820   2.918   3.823   6.576 -0.4065 -0.5095  0.3592
 1087TIP3    H224821   2.935   3.748   6.446  1.6519  0.9868 -0.2815
 1088TIP3   OH224822   1.325   0.329   6.424 -0.8340  0.0770  0.5639
 1088TIP3    H124823   1.269   0.288   6.358 -1.3835  1.6500 -0.0187
 1088TIP3    H224824   1.380   0.389   6.373  0.4307 -0.4464  1.2893
 1089TIP3   OH224825   5.874   3.834   8.650 -0.9292  0.7204 -0.1782
 1089TIP3    H124826   5.805   3.901   8.654 -0.1226  1.6600 -1.3796
 1089TIP3    H224827   5.939   3.870   8.589  0.0900 -0.6476  0.0600
 1090TIP3   OH224828   2.196   0.489   0.059 -0.2336 -0.0822 -0.2931
 1090TIP3    H124829   2.157   0.552   0.119 -2.1602 -0.5057 -1.0121
 1090TIP3    H224830   2.202   0.407   0.109 -1.5647 -0.3576 -0.5418
 1091TIP3   OH224831   0.890   6.423   6.657 -0.2788 -0.3570 -0.9851
 1091TIP3    H124832   0.800   6.431   6.624 -1.3746 -1.0009  1.6272
 1091TIP3    H224833   0.899   6.331   6.681 -0.2043  0.3215  1.9943
 1092TIP3   OH224834   2.214   0.637   1.953 -0.6136 -0.1425  0.0438
 1092TIP3    H124835   2.219   0.731   1.972  1.2495 -0.2518  0.2890
 1092TIP3    H224836   2.121   0.617   1.953 -1.3729  2.4169 -3.4835
 1093TIP3   OH224837   2.397   0.879   0.737 -0.1672 -0.2383 -0.1512
 1093TIP3    H124838   2.308   0.910   0.720  0.0023 -0.2243 -1.0652
 1093TIP3    H224839   2.418   0.823   0.661  0.8389  0.2962 -0.2859
 1094TIP3   OH224840   1.325   0.149   6.618  0.4236  0.4126  0.0305
 1094TIP3    H124841   1.344   0.223   6.561  1.5679  0.4245  0.4022
 1094TIP3    H224842   1.334   0.072   6.561 -0.9602  0.5399 -0.4036
 1095TIP3   OH224843   1.389   2.318   0.047  0.3869  1.1361  0.1603
 1095TIP3    H124844   1.416   2.313   0.139  0.9550  0.7630 -0.0194
 1095TIP3    H224845   1.472   2.319  -0.001  0.0846 -0.7530 -0.4528
 1096TIP3   OH224846   6.844   6.821   1.061  0.4632  0.2726  0.1993
 1096TIP3    H124847   6.905   6.770   1.009  1.5044  0.9246  0.7351
 1096TIP3    H224848   6.827   6.767   1.138  2.1215  0.9723  1.1107
 1097TIP3   OH224849   3.343   3.893   1.628 -0.1057 -0.4270  0.6566
 1097TIP3    H124850   3.432   3.928   1.630  0.1822 -0.9912 -0.9598
 1097TIP3    H224851   3.350   3.808   1.672  0.4010 -0.9486 -0.3991
 1098TIP3   OH224852   5.920   1.797   2.018 -0.3492 -0.0555  0.0007
 1098TIP3    H124853   5.903   1.869   1.958  0.5845 -1.0143 -1.4904
 1098TIP3    H224854   5.895   1.718   1.969  0.8638 -0.8944  0.6719
 1099TIP3   OH224855   3.000   2.179   6.505  0.0430  0.4461 -0.3764
 1099TIP3    H124856   3.040   2.264   6.525 -1.1843  1.5185 -2.1859
 1099TIP3    H224857   2.907   2.191   6.527 -0.2665 -0.1776 -1.2890
 1100TIP3   OH224858   0.177   5.836   1.949 -0.0216 -0.2920 -0.2912
 1100TIP3    H124859   0.087   5.846   1.980  0.4708 -0.5129  1.2995
 1100TIP3    H224860   0.192   5.913   1.894 -1.7085 -1.1169 -1.9775
 1101TIP3   OH224861   6.503   0.424   1.216  0.8064  0.2009  0.4880
 1101TIP3    H124862   6.412   0.403   1.236  0.9302 -0.6077  0.2643
 1101TIP3    H224863   6.553   0.355   1.260  1.3254  0.7615  0.7907
 1102TIP3   OH224864   3.306   0.554   8.057  0.1528 -0.3086 -0.0944
 1102TIP3    H124865   3.390   0.588   8.088  0.3224 -1.7257  1.1155
 1102TIP3    H224866   3.274   0.621   7.996  3.1234 -0.6660 -2.2866
 1103TIP3   OH224867   4.369   0.590   7.531  0.2038  0.0951 -0.2708
 1103TIP3    H124868   4.371   0.685   7.540  0.6840 -0.0117  0.9564
 1103TIP3    H224869   4.438   0.569   7.468  1.7513  0.4040  1.2568
 1104TIP3   OH224870   5.266   0.427   7.060 -0.1568 -0.3958 -0.1188
 1104TIP3    H124871   5.265   0.391   7.149 -0.2556  0.0811  0.0763
 1104TIP3    H224872   5.229   0.515   7.069 -0.6425 -0.5310 -0.7144
 1105TIP3   OH224873   1.272   4.060   7.759  0.3823  0.6743 -0.0484
 1105TIP3    H124874   1.256   4.142   7.805  1.9885  0.0673  1.7245
 1105TIP3    H224875   1.223   4.068   7.677 -0.3085  2.9643  0.5276
 1106TIP3   OH224876   2.855   0.348   0.125  0.0048  0.2125  0.0220
 1106TIP3    H124877   2.925   0.373   0.186 -2.1776  2.0288  1.9877
 1106TIP3    H224878   2.826   0.263   0.156 -0.0404  0.4157  0.5494
 1107TIP3   OH224879   4.072   2.841   5.939  0.0308  0.0136 -0.0579
 1107TIP3    H124880   4.001   2.839   6.003  0.6270 -0.9805  0.5927
 1107TIP3    H224881   4.085   2.750   5.914 -0.0618  0.3642 -1.4727
 1108TIP3   OH224882   2.031   4.246   2.033  0.0973  0.3974  0.2703
 1108TIP3    H124883   2.112   4.209   2.067 -0.2629 -1.4498 -0.7477
 1108TIP3    H224884   2.013   4.321   2.090  1.8664  0.1256  1.2590
 1109TIP3   OH224885   0.819   6.561   7.016 -0.4101  0.2918 -0.0065
 1109TIP3    H124886   0.761   6.587   7.087  0.9988  0.2905  1.1905
 1109TIP3    H224887   0.854   6.476   7.043 -0.5276 -0.1209 -1.1206
 1110TIP3   OH224888   0.933   4.730   0.169 -0.2897 -0.0540  0.1387
 1110TIP3    H124889   0.891   4.718   0.084  0.2999 -0.4304 -0.1094
 1110TIP3    H224890   1.026   4.735   0.149 -0.2186  0.9711  0.6578
 1111TIP3   OH224891   3.575   2.950   7.029  0.4349 -0.1962 -0.0029
 1111TIP3    H124892   3.665   2.951   7.062  0.2729  0.4098  0.4321
 1111TIP3    H224893   3.528   3.012   7.084 -0.3031 -0.6482 -0.1024
 1112TIP3   OH224894   1.612   0.485   7.511 -0.1465  0.2809 -0.0836
 1112TIP3    H124895   1.540   0.429   7.539  1.1133 -0.4538  1.9378
 1112TIP3    H224896   1.601   0.493   7.417 -2.5567 -0.1940  0.0962
 1113TIP3   OH224897   5.964   1.961   6.986  0.2252  0.2993  0.0435
 1113TIP3    H124898   5.904   1.964   7.060  0.6143  1.8731  0.3371
 1113TIP3    H224899   6.048   1.989   7.022  0.8148 -0.5020 -0.6567
 1114TIP3   OH224900   1.512   6.738   0.980 -0.2380  0.3813 -0.5442
 1114TIP3    H124901   1.547   6.827   0.972 -1.0750  0.6224 -1.6616
 1114TIP3    H224902   1.418   6.748   0.967 -0.7156 -0.3522  1.7787
 1115TIP3   OH224903   2.884   0.345   6.908 -0.3061 -0.4517  0.0383
 1115TIP3    H124904   2.840   0.426   6.883 -1.1929 -1.3587 -1.5554
 1115TIP3    H224905   2.824   0.276   6.879  0.1809 -1.6921  1.8060
 1116TIP3   OH224906   4.029   6.749   1.885 -0.5773 -0.7070  0.3685
 1116TIP3    H124907   3.981   6.681   1.838  1.0302 -0.7527 -1.3109
 1116TIP3    H224908   4.080   6.702   1.951 -2.4637 -0.6886  1.9329
 1117TIP3   OH224909   5.427   0.884   7.440  0.2395 -0.1797  0.3299
 1117TIP3    H124910   5.354   0.932   7.478  0.1409 -0.1815  0.1399
 1117TIP3    H224911   5.501   0.904   7.497  0.0715 -0.2498  0.5739
 1118TIP3   OH224912   3.536   2.008   7.592 -0.2640 -0.0477 -0.4873
 1118TIP3    H124913   3.621   2.011   7.548  0.6843  1.6154  1.3293
 1118TIP3    H224914   3.521   1.915   7.609  1.4577 -0.3316 -0.3649
 1119TIP3   OH224915   0.376   3.876   6.976  0.0794 -0.6368 -1.0838
 1119TIP3    H124916   0.294   3.831   6.959 -0.1280 -1.3490  1.4050
 1119TIP3    H224917   0.440   3.805   6.987  0.4483 -0.2067 -0.4008
 1120TIP3   OH224918   4.423   4.689   2.314 -0.2273 -0.3886  0.6358
 1120TIP3    H124919   4.445   4.615   2.259 -1.0469  0.9172 -1.5847
 1120TIP3    H224920   4.507   4.729   2.336  0.1293 -1.1424  0.6665
 1121TIP3   OH224921   3.252   1.772   1.704  0.0341  0.1571 -0.6557
 1121TIP3    H124922   3.214   1.860   1.707  2.3474  1.2464 -1.3737
 1121TIP3    H224923   3.238   1.743   1.614 -0.5851 -0.1552 -0.4622
 1122TIP3   OH224924   6.247   5.334   8.135 -0.3060 -0.3026  0.3285
 1122TIP3    H124925   6.270   5.422   8.165 -0.9025  0.0172 -0.1399
 1122TIP3    H224926   6.258   5.279   8.213 -2.4454  0.6096  1.3455
 1123TIP3   OH224927   2.786   4.876   7.676  0.0838  0.2107 -0.0682
 1123TIP3    H124928   2.760   4.955   7.722  1.3004  0.3048  0.5043
 1123TIP3    H224929   2.785   4.900   7.583 -0.8572  0.4862  0.0086
 1124TIP3   OH224930   0.579   6.781   6.757 -0.5705  0.1379  0.0179
 1124TIP3    H124931   0.504   6.784   6.697 -0.8153 -1.0954  0.2269
 1124TIP3    H224932   0.656   6.787   6.700 -0.7960 -1.1686 -0.4610
 1125TIP3   OH224933   4.012   2.260   1.836  0.1408  0.7453 -0.2324
 1125TIP3    H124934   3.984   2.250   1.927  0.1187  0.2776 -0.2876
 1125TIP3    H224935   4.011   2.354   1.821 -1.0087  0.7717 -0.1046
 1126TIP3   OH224936   4.814   2.449   1.061 -0.0855  0.4000  0.1150
 1126TIP3    H124937   4.881   2.391   1.098 -1.2222 -0.7913  0.3596
 1126TIP3    H224938   4.771   2.489   1.137 -1.3420 -0.8104  0.0693
 1127TIP3   OH224939   3.896   5.441   0.978 -0.4639  0.5914  0.0680
 1127TIP3    H124940   3.925   5.351   0.992 -1.3243  0.1301 -0.9250
 1127TIP3    H224941   3.868   5.472   1.064 -2.6046 -1.0077  0.0140
 1128TIP3   OH224942   5.347   1.177   7.323  0.1982  0.2762  0.5090
 1128TIP3    H124943   5.272   1.118   7.320  0.2012 -0.4123  5.2827
 1128TIP3    H224944   5.314   1.255   7.367  1.8630  0.5703  1.3299
 1129TIP3   OH224945   3.986   1.783   0.277 -0.8048  0.7148 -0.0059
 1129TIP3    H124946   4.003   1.870   0.242 -0.7144 -0.1445 -2.2888
 1129TIP3    H224947   4.072   1.752   0.306 -0.5884  0.8904 -0.4485
 1130TIP3   OH224948   0.490   4.595   8.086 -0.4371  0.2069  0.1041
 1130TIP3    H124949   0.462   4.545   8.163 -0.3776 -0.8204 -0.5119
 1130TIP3    H224950   0.581   4.567   8.072 -0.6843 -0.2121 -0.7702
 1131TIP3   OH224951   5.667   3.178   6.927 -0.0303  0.2991 -0.6327
 1131TIP3    H124952   5.712   3.237   6.866 -1.9050  1.8401 -0.6152
 1131TIP3    H224953   5.583   3.159   6.885 -0.1384 -1.0388  0.1355
 1132TIP3   OH224954   4.718   6.298   7.162 -0.1422 -0.5809  0.1587
 1132TIP3    H124955   4.786   6.233   7.179  1.0726  0.6305  0.0619
 1132TIP3    H224956   4.753   6.380   7.198 -0.9979  0.3284 -0.9882
 1133TIP3   OH224957   2.768   4.446   0.181 -0.0894  0.4011 -0.3814
 1133TIP3    H124958   2.843   4.398   0.147  1.3192  1.7044  0.7771
 1133TIP3    H224959   2.740   4.502   0.108  0.5647  0.4793 -0.5766
 1134TIP3   OH224960   3.481   2.017   1.484  0.0972  0.1795 -0.4081
 1134TIP3    H124961   3.438   2.079   1.543  1.8258  1.3219 -0.2791
 1134TIP3    H224962   3.533   1.961   1.542  0.1263 -0.0908 -0.6930
 1135TIP3   OH224963   2.420   0.146   0.394 -0.3674 -0.1809 -0.3888
 1135TIP3    H124964   2.379   0.075   0.344 -0.1045 -1.5377  1.2505
 1135TIP3    H224965   2.381   0.141   0.481  1.4213  0.1024  0.4799
 1136TIP3   OH224966   1.893   2.436   7.858 -0.0064  0.4796  0.1544
 1136TIP3    H124967   1.800   2.414   7.865  0.0575 -0.1424 -0.7628
 1136TIP3    H224968   1.935   2.354   7.833  1.1954  0.0751  3.1429
 1137TIP3   OH224969   4.301   2.161   0.019 -0.7806  0.6381  0.4586
 1137TIP3    H124970   4.327   2.115   0.099 -0.6833  0.2584  0.2105
 1137TIP3    H224971   4.273   2.091  -0.041  0.1295  0.8249 -0.2046
 1138TIP3   OH224972   2.589   2.745   7.306  0.6062  0.2381  0.3981
 1138TIP3    H124973   2.537   2.813   7.264  1.1987  1.7077  1.9291
 1138TIP3    H224974   2.586   2.671   7.245 -1.2719  1.1001 -0.6411
 1139TIP3   OH224975   4.192   5.413   7.165 -0.0959  0.0337  0.5043
 1139TIP3    H124976   4.207   5.366   7.083 -0.8635  1.0505 -0.2443
 1139TIP3    H224977   4.226   5.501   7.149 -1.4461  0.6347  0.7921
 1140TIP3   OH224978   2.172   0.509   7.587 -0.1535 -0.2649  0.2214
 1140TIP3    H124979   2.254   0.495   7.635  0.7962  0.3830 -1.1329
 1140TIP3    H224980   2.140   0.593   7.619  1.5210  1.1611 -1.5916
 1141TIP3   OH224981   2.962   0.600   0.670 -0.6298  0.0658 -0.0200
 1141TIP3    H124982   2.930   0.614   0.759 -1.0533  0.9245 -0.2950
 1141TIP3    H224983   2.972   0.688   0.634  2.9372 -0.0636  0.3202
 1142TIP3   OH224984   6.297   1.952   8.000 -0.1145 -0.3085  0.4075
 1142TIP3    H124985   6.241   2.008   7.947  1.0175 -0.9143 -1.5076
 1142TIP3    H224986   6.366   2.010   8.033 -0.6009 -0.0081  0.9051
 1143TIP3   OH224987   1.765   5.293   6.563 -0.4068  0.3607 -0.1144
 1143TIP3    H124988   1.855   5.302   6.595 -0.1878 -0.3906 -0.4873
 1143TIP3    H224989   1.771   5.232   6.490 -1.1511  0.7200 -0.4918
 1144TIP3   OH224990   5.525   3.712   1.447  0.1532 -0.0242 -0.1092
 1144TIP3    H124991   5.459   3.645   1.465 -0.9710  1.6100  2.5714
 1144TIP3    H224992   5.540   3.707   1.353 -1.0762 -2.8824 -0.2494
 1145TIP3   OH224993   1.080   1.643   7.884 -0.6920 -0.1914 -0.5021
 1145TIP3    H124994   1.132   1.691   7.948 -1.6298 -0.2208  0.2990
 1145TIP3    H224995   1.129   1.652   7.802  1.4091 -1.5859  0.5221
 1146TIP3   OH224996   3.730   6.536   7.874  0.4053  0.0708  0.4330
 1146TIP3    H124997   3.671   6.594   7.921  1.5447 -0.3453  2.5188
 1146TIP3    H224998   3.675   6.462   7.847 -0.5889  1.0549 -0.2928
 1147TIP3   OH224999   5.434   3.699   0.720 -0.1055  0.1856  0.8109
 1147TIP3    H125000   5.371   3.630   0.699  0.9464 -1.2029  1.9512
 1147TIP3    H225001   5.509   3.652   0.756  0.4594  1.9592  2.1166
 1148TIP3   OH225002   2.458   0.765   6.927 -0.3889  0.7035 -0.1890
 1148TIP3    H125003   2.448   0.709   6.850 -2.9697 -0.6071  0.9722
 1148TIP3    H225004   2.373   0.809   6.935 -0.5662  0.0488  2.4146
 1149TIP3   OH225005   6.125   3.183   7.313  0.4115  0.1599 -0.2003
 1149TIP3    H125006   6.100   3.276   7.312 -0.2812  0.0641  2.1791
 1149TIP3    H225007   6.193   3.178   7.380  1.0034 -0.9504 -0.8608
 1150TIP3   OH225008   4.643   4.910   0.702  0.3898  0.3341 -0.1734
 1150TIP3    H125009   4.606   4.823   0.717  0.6865  0.1611 -0.4371
 1150TIP3    H225010   4.700   4.926   0.776 -0.8184  0.9415  0.6626
 1151TIP3   OH225011   0.894   3.895   6.376 -0.1884  0.0508  0.2308
 1151TIP3    H125012   0.952   3.933   6.310 -0.0544 -0.6140 -0.0422
 1151TIP3    H225013   0.832   3.965   6.397  2.0939  1.6589  2.2682
 1152TIP3   OH225014   1.809   2.605   0.770 -0.4606  0.1929 -0.2080
 1152TIP3    H125015   1.795   2.676   0.707 -1.2544  0.1019 -0.1494
 1152TIP3    H225016   1.792   2.645   0.855 -0.4276  0.0525 -0.1362
 1153TIP3   OH225017   1.691   4.200   0.217  0.1925  0.1547  0.1746
 1153TIP3    H125018   1.776   4.157   0.228 -0.6192 -0.9710  2.9975
 1153TIP3    H225019   1.685   4.217   0.123  2.1258 -2.6819 -0.6039
 1154TIP3   OH225020   1.812   4.774   1.163 -0.4134 -0.1088 -0.4646
 1154TIP3    H125021   1.852   4.692   1.190 -1.1326 -0.3582 -0.1264
 1154TIP3    H225022   1.845   4.838   1.226  1.3218  0.1823 -1.6101
 1155TIP3   OH225023   3.439   2.450   1.191  0.1480 -0.2782 -0.1715
 1155TIP3    H125024   3.350   2.414   1.192  0.2182 -0.5426 -1.6452
 1155TIP3    H225025   3.479   2.415   1.271  0.2133 -3.5302 -1.4645
 1156TIP3   OH225026   4.167   2.683   8.315 -0.0702 -0.5049 -0.1186
 1156TIP3    H125027   4.244   2.628   8.301  0.5484  0.4847 -0.8135
 1156TIP3    H225028   4.102   2.651   8.252  0.1076 -0.7438 -0.1823
 1157TIP3   OH225029   2.873   1.036   8.494  0.3354  0.2442  0.5854
 1157TIP3    H125030   2.876   0.969   8.426 -0.3985  0.4288  0.3562
 1157TIP3    H225031   2.811   1.101   8.461  0.0625  0.3976  1.3729
 1158TIP3   OH225032   6.707   3.268   8.522 -0.0992  0.0334  0.1307
 1158TIP3    H125033   6.739   3.350   8.560  2.1651 -1.4176  1.5826
 1158TIP3    H225034   6.712   3.282   8.427  1.5484  1.1377  0.3414
 1159TIP3   OH225035   3.543   5.111   1.105  0.3221 -1.1611  0.0847
 1159TIP3    H125036   3.596   5.101   1.184 -0.7666  0.1197  1.0036
 1159TIP3    H225037   3.461   5.066   1.125 -0.4834  0.3274  0.2212
 1160TIP3   OH225038   3.633   5.978   0.447 -0.5634  0.2945  0.5384
 1160TIP3    H125039   3.702   5.970   0.381 -1.4626  2.7308 -0.8113
 1160TIP3    H225040   3.552   5.981   0.396 -1.5135 -0.2709  1.9548
 1161TIP3   OH225041   0.960   3.215   8.328  0.1780 -0.1819 -0.0905
 1161TIP3    H125042   1.037   3.272   8.325 -1.0723  1.6517  1.1049
 1161TIP3    H225043   0.975   3.152   8.257  2.8457 -0.0338  0.2281
 1162TIP3   OH225044   1.535   2.067   7.799 -0.6342  0.5340 -0.2323
 1162TIP3    H125045   1.587   2.008   7.853 -1.3511 -0.0480 -0.1490
 1162TIP3    H225046   1.599   2.119   7.751  0.0156  0.6371  0.7174
 1163TIP3   OH225047   5.510   6.604   7.909 -0.8309  0.2474 -0.2342
 1163TIP3    H125048   5.591   6.651   7.887  0.0729 -1.4811 -0.7486
 1163TIP3    H225049   5.444   6.644   7.853  0.2882 -0.2488 -2.0240
 1164TIP3   OH225050   5.972   1.861   6.729  0.2367  0.0529  0.4594
 1164TIP3    H125051   5.888   1.829   6.695 -0.0191  0.0206  1.1056
 1164TIP3    H225052   5.952   1.892   6.817  0.5659  1.6064  0.0157
 1165TIP3   OH225053   6.770   4.617   7.991 -0.1263 -0.5881  0.1551
 1165TIP3    H125054   6.726   4.589   8.071 -0.0493  1.4935  0.9713
 1165TIP3    H225055   6.846   4.559   7.984 -0.9359 -1.7605  0.7597
 1166TIP3   OH225056   3.869   1.775   7.360  0.2950 -0.1604 -0.0549
 1166TIP3    H125057   3.944   1.808   7.411  0.3980 -0.2568 -0.1443
 1166TIP3    H225058   3.891   1.684   7.341 -0.4337 -0.5844  1.0341
 1167TIP3   OH225059   1.829   2.120   1.588  0.4547  0.1253  0.3623
 1167TIP3    H125060   1.819   2.027   1.609  2.3139 -0.6302 -1.7264
 1167TIP3    H225061   1.906   2.147   1.638  1.1642 -0.0335 -0.6284
 1168TIP3   OH225062   4.108   3.817   6.746  0.8912  0.5148 -0.2070
 1168TIP3    H125063   4.107   3.906   6.712 -3.9018  0.5717 -0.5879
 1168TIP3    H225064   4.094   3.762   6.669 -0.3836 -0.1539  0.4682
 1169TIP3   OH225065   3.717   0.367   7.750  0.0246 -0.4726  0.7497
 1169TIP3    H125066   3.746   0.295   7.695  0.7368  0.9388 -0.8238
 1169TIP3    H225067   3.796   0.420   7.763 -1.1066  1.8697 -1.1276
 1170TIP3   OH225068   4.031   5.757   7.576 -0.6955  0.1457 -0.4370
 1170TIP3    H125069   4.022   5.774   7.670  3.9813  0.0081  0.2797
 1170TIP3    H225070   3.990   5.832   7.534 -2.0641  0.6975  1.7218
 1171TIP3   OH225071   4.343   2.779   0.818  0.5615  0.1674 -0.6289
 1171TIP3    H125072   4.285   2.755   0.746 -0.7015  1.4273 -0.0748
 1171TIP3    H225073   4.286   2.786   0.894  1.6264  0.3538  0.1841
 1172TIP3   OH225074   6.155   0.050   7.188  0.0832 -0.0238 -0.0008
 1172TIP3    H125075   6.154   0.146   7.180 -0.8873 -0.0949 -0.9874
 1172TIP3    H225076   6.243   0.025   7.163  0.0195  0.5454 -0.8320
 1173TIP3   OH225077   5.063   4.282   0.170  0.5018 -0.0767 -0.5496
 1173TIP3    H125078   5.077   4.371   0.202  0.3631  0.3270 -1.5665
 1173TIP3    H225079   5.151   4.251   0.147  0.3751  0.4380 -1.7919
 1174TIP3   OH225080   2.554   3.311   7.140  0.1006  0.3831  0.1819
 1174TIP3    H125081   2.496   3.387   7.142  0.9031  1.0488 -0.8412
 1174TIP3    H225082   2.544   3.275   7.052  2.8292  1.8372 -0.8470
 1175TIP3   OH225083   6.151   1.497   0.089  0.5845 -0.5179 -0.2048
 1175TIP3    H125084   6.164   1.440   0.166 -2.6586 -0.6375  0.3908
 1175TIP3    H225085   6.190   1.448   0.017  2.2728 -1.1518  1.0408
 1176TIP3   OH225086   3.851   3.990   1.237 -0.4095  0.1548 -0.8896
 1176TIP3    H125087   3.759   4.010   1.223 -0.2957  1.1502 -0.3705
 1176TIP3    H225088   3.867   4.015   1.328  0.1692 -0.8139 -0.7175
 1177TIP3   OH225089   6.744   4.344   0.050 -0.3333 -0.2111  0.3303
 1177TIP3    H125090   6.772   4.411   0.113 -1.0407 -0.9592  1.4805
 1177TIP3    H225091   6.782   4.263   0.083 -1.5694 -0.7824  0.3924
 1178TIP3   OH225092   5.093   3.365   0.190 -0.2188 -0.5867  0.0582
 1178TIP3    H125093   5.022   3.427   0.209  0.6309  0.3524  0.2725
 1178TIP3    H225094   5.082   3.343   0.098 -0.8885 -0.5947  0.1315
 1179TIP3   OH225095   2.773   5.970   1.928 -0.4155 -0.2870  0.1056
 1179TIP3    H125096   2.831   5.966   2.004 -0.1440 -1.7242 -0.1654
 1179TIP3    H225097   2.731   6.056   1.935  1.7755  0.8268  0.2591
 1180TIP3   OH225098   2.042   6.217   7.665 -0.0891  0.1773 -0.4125
 1180TIP3    H125099   2.057   6.297   7.716  0.8357 -0.1861 -0.0822
 1180TIP3    H225100   2.118   6.211   7.607  1.2036 -1.7492  1.3224
 1181TIP3   OH225101   0.575   5.941   1.408  0.1542  0.0241 -0.1850
 1181TIP3    H125102   0.515   5.909   1.475 -0.5820 -0.5584 -1.1069
 1181TIP3    H225103   0.539   6.025   1.381  0.8141  0.5743  0.5964
 1182TIP3   OH225104   4.157   6.813   6.167 -0.2271 -0.4712  0.2785
 1182TIP3    H125105   4.199   6.806   6.081  0.4293 -0.8808  0.6300
 1182TIP3    H225106   4.209   6.757   6.224 -0.3227  0.2307  1.0716
 1183TIP3   OH225107   1.047   1.997   8.300 -0.4589 -0.0183  0.2270
 1183TIP3    H125108   1.020   2.064   8.238  0.5533  0.7012  0.5382
 1183TIP3    H225109   1.127   2.031   8.339 -0.3143 -1.0903  0.9144
 1184TIP3   OH225110   4.653   3.069   8.435 -0.0298  0.2744 -0.1364
 1184TIP3    H125111   4.571   3.060   8.385  0.5322  1.4104 -1.3205
 1184TIP3    H225112   4.708   2.997   8.404 -0.1900  0.1446 -0.1201
 1185TIP3   OH225113   5.118   1.266   7.782 -0.1204 -0.0088  0.0567
 1185TIP3    H125114   5.025   1.285   7.769 -0.0054  0.9226  0.4994
 1185TIP3    H225115   5.120   1.181   7.826 -0.8196  0.5269  1.1492
 1186TIP3   OH225116   6.376   4.270   2.069  0.4816 -0.1679  0.1365
 1186TIP3    H125117   6.415   4.330   2.005 -1.3529  0.9316 -0.0220
 1186TIP3    H225118   6.437   4.270   2.142  0.5311  1.9656  0.1573
 1187TIP3   OH225119   0.855   4.929   1.477 -0.2136  0.0807 -0.2766
 1187TIP3    H125120   0.943   4.897   1.498 -1.2185 -1.3963  1.9933
 1187TIP3    H225121   0.826   4.872   1.406 -0.7531 -2.1102  1.5937
 1188TIP3   OH225122   3.485   5.629   0.504  0.0636  0.2518  0.3481
 1188TIP3    H125123   3.556   5.667   0.452 -0.9817  0.6325 -0.8534
 1188TIP3    H225124   3.416   5.696   0.503 -0.7234 -0.5342  0.5953
 1189TIP3   OH225125   4.574   1.112   1.420 -0.3304 -0.1947 -0.1496
 1189TIP3    H125126   4.658   1.084   1.456 -0.7591 -1.6489 -0.2109
 1189TIP3    H225127   4.551   1.190   1.471 -0.2353 -1.3565  1.7974
 1190TIP3   OH225128   6.612   1.695   0.283 -0.1142  0.6188  0.1425
 1190TIP3    H125129   6.699   1.655   0.282 -1.1728 -1.8062 -0.6783
 1190TIP3    H225130   6.579   1.681   0.371 -0.2068  0.3290  0.0610
 1191TIP3   OH225131   6.592   2.908   6.821  0.6352 -0.3479  0.2905
 1191TIP3    H125132   6.645   2.922   6.742 -0.1045 -1.7779 -0.5128
 1191TIP3    H225133   6.654   2.919   6.894  1.6800 -0.4552 -0.5483
 1192TIP3   OH225134   5.682   3.269   7.986 -0.3908 -0.2011  0.1198
 1192TIP3    H125135   5.766   3.237   7.954  1.2634  4.0253 -0.5054
 1192TIP3    H225136   5.659   3.210   8.058  2.6028 -2.0758 -0.3078
 1193TIP3   OH225137   0.122   5.786   6.471 -0.4510  0.2604  0.3363
 1193TIP3    H125138   0.046   5.737   6.502  0.2350 -0.3710  1.0537
 1193TIP3    H225139   0.117   5.870   6.517 -0.1740 -0.1639  1.1476
 1194TIP3   OH225140   6.090   3.288   0.169 -0.0754  0.6242 -1.0223
 1194TIP3    H125141   6.165   3.244   0.130  1.9101  0.9193  2.1286
 1194TIP3    H225142   6.112   3.381   0.167 -0.1461  0.6875  0.2288
 1195TIP3   OH225143   4.874   5.485   6.909 -0.0399 -0.3636 -0.2271
 1195TIP3    H125144   4.841   5.564   6.953 -0.6421 -0.5232 -0.3923
 1195TIP3    H225145   4.968   5.500   6.902 -0.3670  1.2547 -2.0749
 1196TIP3   OH225146   1.444   6.797   8.606  0.3369 -0.2877  0.4534
 1196TIP3    H125147   1.534   6.784   8.574  0.3888 -0.6690  0.7518
 1196TIP3    H225148   1.428   6.891   8.592  1.1008 -0.0251  1.1914
 1197TIP3   OH225149   4.844   5.530   8.059 -0.1027 -0.2798  0.1495
 1197TIP3    H125150   4.841   5.616   8.017  0.6677 -0.0703  0.5123
 1197TIP3    H225151   4.806   5.545   8.146 -0.4241 -0.4152  0.0335
 1198TIP3   OH225152   5.180   6.399   0.113 -0.2987  0.0452 -0.2133
 1198TIP3    H125153   5.097   6.368   0.150 -1.5043  0.9548 -2.0247
 1198TIP3    H225154   5.242   6.329   0.132 -1.4863 -0.7018  1.1097
 1199TIP3   OH225155   0.906   2.639   0.837 -0.3007 -0.3114 -1.1087
 1199TIP3    H125156   0.981   2.580   0.845 -0.8480 -0.9695 -0.7341
 1199TIP3    H225157   0.864   2.613   0.755  0.4324  0.7337 -1.8553
 1200TIP3   OH225158   6.370   2.744   6.711 -0.4490 -0.4352 -0.2185
 1200TIP3    H125159   6.303   2.682   6.683 -0.8757  0.2207 -0.6806
 1200TIP3    H225160   6.419   2.698   6.779  0.1492 -1.8009 -1.5334
 1201TIP3   OH225161   1.268   0.583   1.713  0.4031 -0.4101  0.0742
 1201TIP3    H125162   1.292   0.671   1.744  1.9337 -0.9693  0.5575
 1201TIP3    H225163   1.200   0.554   1.774 -0.3009  0.5393 -0.2458
 1202TIP3   OH225164   6.700   1.925   8.546  0.2134 -0.1408 -0.2702
 1202TIP3    H125165   6.707   1.845   8.494  0.9207 -0.7775  0.7482
 1202TIP3    H225166   6.636   1.903   8.614  0.1698  0.2734 -0.1757
 1203TIP3   OH225167   0.215   0.970   8.188 -0.3414 -0.4730 -0.5234
 1203TIP3    H125168   0.265   1.040   8.146  2.1192 -1.6251  0.2619
 1203TIP3    H225169   0.244   0.890   8.143  1.0312 -1.5355  2.0026
 1204TIP3   OH225170   0.936   2.741   8.002  0.0319 -0.9595 -0.6209
 1204TIP3    H125171   0.934   2.646   7.987 -1.4269 -1.0239 -0.2197
 1204TIP3    H225172   0.998   2.775   7.938 -1.0134 -1.9496 -2.2120
 1205TIP3   OH225173   5.669   1.068   1.302 -0.4221  0.0703 -0.2763
 1205TIP3    H125174   5.681   1.011   1.226 -1.9639  0.1048 -0.5836
 1205TIP3    H225175   5.730   1.033   1.368  0.2629 -0.5320 -1.2021
 1206TIP3   OH225176   0.639   5.050   1.272 -0.2599  0.2685  0.8313
 1206TIP3    H125177   0.545   5.040   1.285 -0.0764 -3.4170  0.3811
 1206TIP3    H225178   0.656   5.012   1.186  1.8471 -1.3197  1.8415
 1207TIP3   OH225179   6.516   4.636   8.398 -0.3851  0.0791  0.1005
 1207TIP3    H125180   6.426   4.602   8.395 -0.3270 -0.0213 -1.1756
 1207TIP3    H225181   6.540   4.631   8.490 -1.4321 -0.5732  0.3633
 1208TIP3   OH225182   2.723   6.810   1.179 -0.1819  0.0788 -0.5307
 1208TIP3    H125183   2.761   6.775   1.098 -1.6739  1.4824 -1.9240
 1208TIP3    H225184   2.773   6.890   1.196  1.7552 -1.4165  1.4032
 1209TIP3   OH225185   1.776   4.328   0.522 -0.0955 -0.5215 -0.2687
 1209TIP3    H125186   1.730   4.320   0.605 -0.1413  1.3266 -0.0832
 1209TIP3    H225187   1.710   4.359   0.460  0.3277 -0.2828 -0.6059
 1210TIP3   OH225188   4.946   0.489   7.480 -0.0827 -0.0187  0.2382
 1210TIP3    H125189   4.999   0.522   7.407  0.0075 -1.2665 -0.2867
 1210TIP3    H225190   4.930   0.566   7.535  0.1168  0.8779 -0.9279
 1211TIP3   OH225191   4.073   0.631   1.184 -0.1169 -0.2806 -0.3038
 1211TIP3    H125192   3.989   0.643   1.228  0.6448  0.1639  1.1080
 1211TIP3    H225193   4.058   0.662   1.094 -1.5779 -0.6812 -0.2240
 1212TIP3   OH225194   5.537   1.175   6.897  0.3165 -0.1358 -0.0921
 1212TIP3    H125195   5.526   1.267   6.919  2.8068  0.0129  0.7474
 1212TIP3    H225196   5.495   1.128   6.969  0.4342  0.3438  0.2938
 1213TIP3   OH225197   4.865   0.695   0.376  0.3641 -0.2453 -0.1593
 1213TIP3    H125198   4.849   0.786   0.352 -0.1871 -0.0563  0.8688
 1213TIP3    H225199   4.813   0.682   0.455  0.8071 -1.3200 -0.0339
 1214TIP3   OH225200   0.406   3.463   8.040  0.1968  0.0191 -0.4948
 1214TIP3    H125201   0.316   3.452   8.010  0.4848 -0.7930 -1.1190
 1214TIP3    H225202   0.451   3.504   7.965  0.7003 -1.1016 -0.8362
 1215TIP3   OH225203   1.928   3.116   7.443  0.1981  0.4483  0.2101
 1215TIP3    H125204   1.851   3.173   7.438  0.1666  0.3081 -1.2605
 1215TIP3    H225205   1.930   3.086   7.534 -0.0213  2.4631  0.9417
 1216TIP3   OH225206   3.792   4.948   6.697 -0.0425  0.3610  0.0068
 1216TIP3    H125207   3.816   4.948   6.605  0.2452  1.0056  0.0800
 1216TIP3    H225208   3.746   4.865   6.710  0.0442  0.2048 -0.6800
 1217TIP3   OH225209   1.684   3.263   7.374  0.4860  0.1745  0.4457
 1217TIP3    H125210   1.619   3.269   7.444  0.6173 -0.0658  0.5888
 1217TIP3    H225211   1.644   3.206   7.308  1.0164 -0.9462  1.0590
 1218TIP3   OH225212   1.137   2.815   6.846 -0.1033  0.6862  0.2433
 1218TIP3    H125213   1.217   2.864   6.827  0.1236  0.0002 -0.6270
 1218TIP3    H225214   1.130   2.751   6.775 -1.0116  0.2249  0.7258
 1219TIP3   OH225215   5.156   3.890   8.401  0.0348  0.2118 -0.2583
 1219TIP3    H125216   5.116   3.805   8.383  0.4750 -0.2017  0.6414
 1219TIP3    H225217   5.188   3.921   8.316 -1.4032  0.1557 -0.8407
 1220TIP3   OH225218   3.564   5.403   1.085 -0.4388 -0.0991  0.5073
 1220TIP3    H125219   3.514   5.342   1.031 -0.0790  0.8819 -0.9967
 1220TIP3    H225220   3.521   5.401   1.171 -1.9202 -0.6080 -0.2214
 1221TIP3   OH225221   1.448   3.160   0.971 -0.7406  0.3092  0.1151
 1221TIP3    H125222   1.384   3.185   0.904 -2.7230  0.1558  1.8562
 1221TIP3    H225223   1.449   3.233   1.032 -0.1692 -0.2348  0.7785
 1222TIP3   OH225224   6.767   1.119   2.033  0.1299 -0.0535 -0.3622
 1222TIP3    H125225   6.842   1.177   2.022 -0.6826  1.1791  0.2622
 1222TIP3    H225226   6.697   1.177   2.064 -0.7588 -1.3586  0.1585
 1223TIP3   OH225227   3.018   5.721   7.486  0.5663 -0.2343  0.0355
 1223TIP3    H125228   3.015   5.805   7.439 -0.9652 -0.7515 -0.8498
 1223TIP3    H225229   3.034   5.656   7.417  1.3789 -0.7282  0.6690
 1224TIP3   OH225230   4.975   4.696   0.454 -0.4748  0.0571  0.1061
 1224TIP3    H125231   4.963   4.762   0.386 -2.3936  1.2968  1.5693
 1224TIP3    H225232   4.895   4.643   0.451 -0.4879 -0.0122  1.2452
 1225TIP3   OH225233   5.894   6.719   1.840 -0.1555 -0.2742  0.7220
 1225TIP3    H125234   5.875   6.748   1.750 -1.6855 -1.5144  0.6122
 1225TIP3    H225235   5.809   6.693   1.875  0.3289  0.7157  2.7503
 1226TIP3   OH225236   5.364   2.798   0.767  0.0295  0.2850  0.4989
 1226TIP3    H125237   5.354   2.742   0.844 -0.3479  1.1411  1.0944
 1226TIP3    H225238   5.333   2.745   0.694  1.2962 -0.8930  0.7785
 1227TIP3   OH225239   1.480   0.248   0.730  0.2213 -1.0363 -0.3729
 1227TIP3    H125240   1.407   0.196   0.761  0.4363 -1.0932  0.0455
 1227TIP3    H225241   1.440   0.322   0.684 -0.2223  0.6784  2.5130
 1228TIP3   OH225242   3.293   2.612   7.981 -0.4208 -0.2919  0.2947
 1228TIP3    H125243   3.371   2.571   8.018 -0.6346 -0.8897  0.1040
 1228TIP3    H225244   3.276   2.562   7.901  0.3775  1.3464 -0.9442
 1229TIP3   OH225245   3.755   5.844   0.030  0.0748 -0.4844  0.2579
 1229TIP3    H125246   3.789   5.893   0.105 -0.2819  0.8640 -0.4392
 1229TIP3    H225247   3.789   5.890  -0.046 -1.2272 -0.6293 -0.4358
 1230TIP3   OH225248   5.581   6.645   7.091  0.4716  0.4248  0.3124
 1230TIP3    H125249   5.628   6.729   7.087  0.2729  0.4810 -1.9477
 1230TIP3    H225250   5.650   6.579   7.090  0.5946  0.5283  1.0833
 1231TIP3   OH225251   1.117   2.493   0.286 -0.3331  0.0314  0.2492
 1231TIP3    H125252   1.058   2.418   0.278 -0.9780  0.4354  1.1062
 1231TIP3    H225253   1.129   2.504   0.381 -0.8373  1.4663  0.1591
 1232TIP3   OH225254   2.782   2.976   0.048 -0.2660  0.4513 -0.5671
 1232TIP3    H125255   2.811   2.893   0.012 -0.9413  0.0856 -0.2903
 1232TIP3    H225256   2.856   3.008   0.099  0.1223  0.1954 -0.9606
 1233TIP3   OH225257   2.522   4.640   1.329  0.5470 -0.1109 -0.0045
 1233TIP3    H125258   2.550   4.641   1.420 -1.5080 -0.0517  0.6813
 1233TIP3    H225259   2.430   4.615   1.332  0.1857  0.7291 -1.9925
 1234TIP3   OH225260   3.529   2.859   6.352  0.0931  1.1453 -0.8839
 1234TIP3    H125261   3.565   2.796   6.415  0.8613  0.7654 -1.6843
 1234TIP3    H225262   3.490   2.928   6.406  0.2697  0.5628  0.0020
 1235TIP3   OH225263   6.741   3.938   7.212 -0.2694  0.2876  0.1010
 1235TIP3    H125264   6.736   4.025   7.173 -1.6744 -0.2784 -1.0930
 1235TIP3    H225265   6.834   3.915   7.209  0.1981  1.9362  0.9469
 1236TIP3   OH225266   2.187   5.156   0.755  0.2977 -0.4501  0.9052
 1236TIP3    H125267   2.202   5.190   0.668 -0.9009 -1.3340  0.3140
 1236TIP3    H225268   2.271   5.117   0.781  0.7865  0.2123  0.3406
 1237TIP3   OH225269   4.118   2.344   7.862 -0.5331 -0.0381 -0.0701
 1237TIP3    H125270   4.125   2.420   7.804 -1.8065  0.3454  0.2632
 1237TIP3    H225271   4.144   2.270   7.807  2.2683  0.7637  0.0296
 1238TIP3   OH225272   4.937   3.685   7.920 -0.0213 -0.2780 -0.3101
 1238TIP3    H125273   4.868   3.622   7.897  0.3193 -0.9915  0.5579
 1238TIP3    H225274   5.019   3.638   7.904  0.4344  1.3473 -3.6854
 1239TIP3   OH225275   6.757   0.063   6.959  0.7257  0.0430 -0.2285
 1239TIP3    H125276   6.800   0.030   7.038 -0.1942 -0.9373 -0.1093
 1239TIP3    H225277   6.687  -0.000   6.942  0.0946  0.9425 -1.0926
 1240TIP3   OH225278   2.958   2.876   2.695  0.2780 -0.6424  0.4490
 1240TIP3    H125279   3.000   2.885   2.609  1.8346  1.0038  1.3057
 1240TIP3    H225280   3.027   2.843   2.752 -0.2134  0.0006  1.4397
 1241TIP3   OH225281   5.674   4.478   0.198 -0.0508 -0.3314  0.0853
 1241TIP3    H125282   5.710   4.514   0.117  0.2725  0.2767  0.4879
 1241TIP3    H225283   5.587   4.447   0.175 -0.8065  1.7097 -0.0534
 1242TIP3   OH225284   3.088   1.750   6.805  0.5245 -0.0486  0.1157
 1242TIP3    H125285   3.128   1.835   6.788 -1.5901  0.9598 -0.0344
 1242TIP3    H225286   3.071   1.714   6.718 -1.2586  0.7047  0.1315
 1243TIP3   OH225287   3.751   6.394   1.453  0.3769 -0.0562 -0.0408
 1243TIP3    H125288   3.703   6.388   1.536  0.3444 -0.4818 -0.0875
 1243TIP3    H225289   3.820   6.328   1.461  2.8360  2.4763  1.2253
 1244TIP3   OH225290   5.489   4.974   6.396 -0.3172 -0.1242  0.0873
 1244TIP3    H125291   5.443   5.028   6.332  1.2085 -1.0458 -1.9151
 1244TIP3    H225292   5.550   5.034   6.439  1.2245 -0.1363 -1.9719
 1245TIP3   OH225293   2.119   4.712   6.630  0.2177 -0.3190  0.7354
 1245TIP3    H125294   2.112   4.754   6.716 -0.1431 -0.9456  1.0142
 1245TIP3    H225295   2.074   4.628   6.639 -0.6969  0.0231 -0.3396
 1246TIP3   OH225296   2.562   0.089   7.745 -0.4833 -0.3074 -0.3272
 1246TIP3    H125297   2.654   0.061   7.746 -0.4265 -0.1452  1.4148
 1246TIP3    H225298   2.547   0.117   7.655  0.3394 -3.0212 -1.4290
 1247TIP3   OH225299   1.140   0.445   6.641  0.0010  0.3457 -0.0960
 1247TIP3    H125300   1.112   0.505   6.572  0.9713  0.1249 -0.7028
 1247TIP3    H225301   1.192   0.378   6.596 -0.2380 -0.4105  0.7005
 1248TIP3   OH225302   0.774   6.639   1.860 -0.6858 -0.0050  0.0804
 1248TIP3    H125303   0.787   6.733   1.867  0.0497 -0.1263  0.4248
 1248TIP3    H225304   0.812   6.603   1.940 -0.0123 -0.6814 -0.5286
 1249TIP3   OH225305   3.130   4.047   1.705  0.1139  0.4593  0.0338
 1249TIP3    H125306   3.200   3.985   1.685 -0.6990 -0.5885  0.2935
 1249TIP3    H225307   3.157   4.129   1.664  0.7043 -0.3629 -1.2807
 1250TIP3   OH225308   3.175   3.844   7.807  0.2241  0.3315  0.2252
 1250TIP3    H125309   3.235   3.844   7.733 -1.1804  1.2275 -0.9683
 1250TIP3    H225310   3.206   3.915   7.864  0.5080  0.5300 -0.1784
 1251TIP3   OH225311   0.688   1.454   7.803  0.7013 -0.3936  0.0607
 1251TIP3    H125312   0.622   1.447   7.734 -0.2722 -3.1632  1.1144
 1251TIP3    H225313   0.770   1.430   7.760  0.8790  1.8030 -0.9580
 1252TIP3   OH225314   4.996   1.755   7.619  0.3241  0.0991 -0.5245
 1252TIP3    H125315   5.023   1.742   7.528  1.5810 -1.5984  0.0301
 1252TIP3    H225316   4.904   1.729   7.621  0.8856 -2.1552 -0.9194
 1253TIP3   OH225317   5.700   3.406   0.218 -0.3056  0.1671  0.0247
 1253TIP3    H125318   5.766   3.384   0.153 -0.6632 -0.4636 -0.1398
 1253TIP3    H225319   5.663   3.489   0.188 -0.0336  0.1928 -0.2397
 1254TIP3   OH225320   1.619   5.668   0.885  0.4214  0.0137 -0.0269
 1254TIP3    H125321   1.692   5.729   0.902  1.1847 -0.8605 -0.0689
 1254TIP3    H225322   1.609   5.619   0.967  0.6451 -0.6496 -0.3904
 1255TIP3   OH225323   3.416   3.361   0.594 -0.4450  0.2229  0.2656
 1255TIP3    H125324   3.379   3.441   0.631 -2.1541 -1.1780  1.7968
 1255TIP3    H225325   3.406   3.371   0.499 -1.2723  1.5238  0.4683
 1256TIP3   OH225326   5.078   6.226   8.318 -0.0598 -0.4594  0.4672
 1256TIP3    H125327   5.002   6.242   8.374 -1.2659 -0.5998 -1.0713
 1256TIP3    H225328   5.111   6.140   8.347 -1.1671 -0.9117  0.4228
 1257TIP3   OH225329   4.481   0.081   1.075 -0.1028  0.4071  0.4638
 1257TIP3    H125330   4.531  -0.000   1.087 -0.4826 -0.2300 -1.7488
 1257TIP3    H225331   4.507   0.111   0.988 -0.9956  1.9478  0.7039
 1258TIP3   OH225332   5.120   5.051   1.106 -0.1351  0.3638 -1.0354
 1258TIP3    H125333   5.183   5.054   1.033  0.3913 -1.2842 -0.7015
 1258TIP3    H225334   5.139   5.129   1.158 -1.0118  1.9842 -3.0109
 1259TIP3   OH225335   2.753   1.912   7.653  0.5833  0.0493  0.7927
 1259TIP3    H125336   2.779   1.985   7.597  0.6792 -1.2012 -0.8533
 1259TIP3    H225337   2.658   1.905   7.642  0.6760 -0.5472  0.3386
 1260TIP3   OH225338   5.970   4.385   0.126  0.3299  0.4540  0.1149
 1260TIP3    H125339   6.032   4.369   0.197 -1.8800 -1.7152  1.7229
 1260TIP3    H225340   5.884   4.368   0.164 -1.2508  2.3307 -2.2639
 1261TIP3   OH225341   1.302   1.129   1.267  0.2244  0.4183 -0.5948
 1261TIP3    H125342   1.341   1.082   1.341  0.5679  0.9053 -0.4604
 1261TIP3    H225343   1.232   1.182   1.306  1.1676  1.5776 -0.4255
 1262TIP3   OH225344   4.646   1.931   7.011  0.1212  0.8521  0.1884
 1262TIP3    H125345   4.617   2.006   6.960  0.0600  0.3566 -0.5261
 1262TIP3    H225346   4.661   1.862   6.946  0.8808  0.4662  0.7523
 1263TIP3   OH225347   2.320   4.853   1.713 -0.0367 -0.4798 -0.2224
 1263TIP3    H125348   2.255   4.853   1.783 -0.1607 -1.0721 -0.3288
 1263TIP3    H225349   2.394   4.806   1.750 -0.7593 -2.3730 -1.0549
 1264TIP3   OH225350   4.203   2.263   7.043  0.9171 -0.2973  0.0807
 1264TIP3    H125351   4.149   2.272   6.965  0.4112  0.4258  0.5030
 1264TIP3    H225352   4.285   2.308   7.021  0.2073  1.2772  0.4739
 1265TIP3   OH225353   1.016   6.330   7.494 -0.2228  0.8297  0.2317
 1265TIP3    H125354   1.085   6.290   7.441  0.7303  1.2245  1.1391
 1265TIP3    H225355   1.000   6.415   7.453 -0.2348  0.7062 -0.0222
 1266TIP3   OH225356   5.759   4.681   0.878 -0.4930  0.2461  0.3622
 1266TIP3    H125357   5.672   4.668   0.840 -0.8879  0.2548  1.2270
 1266TIP3    H225358   5.757   4.771   0.912 -0.0923  0.2999  0.2481
 1267TIP3   OH225359   2.299   3.766   2.485  0.1860  0.1295  0.0086
 1267TIP3    H125360   2.308   3.853   2.526 -1.2239  1.2143 -1.8112
 1267TIP3    H225361   2.389   3.732   2.482  0.7297  1.3524  1.1200
 1268TIP3   OH225362   3.088   1.340   8.507  0.1591  0.1851  0.4281
 1268TIP3    H125363   3.085   1.435   8.511  0.8046  0.2241  0.0382
 1268TIP3    H225364   3.004   1.312   8.546 -0.0814  0.9046  0.4447
 1269TIP3   OH225365   0.881   1.299   1.966  0.5935 -0.2303 -0.4097
 1269TIP3    H125366   0.881   1.368   2.032  0.8192  0.6198 -1.2744
 1269TIP3    H225367   0.800   1.312   1.917  0.8126 -0.3501 -0.8121
 1270TIP3   OH225368   3.208   5.701   0.291  0.4054 -0.6892  0.0030
 1270TIP3    H125369   3.176   5.624   0.338  0.0888  0.9367  2.6224
 1270TIP3    H225370   3.241   5.760   0.359  2.8315  0.5696 -2.0523
 1271TIP3   OH225371   1.673   4.895   7.500  0.0300 -0.6338  0.1151
 1271TIP3    H125372   1.580   4.882   7.480 -0.5172  1.0178  1.3176
 1271TIP3    H225373   1.673   4.958   7.573  1.9883 -2.7674  2.1340
 1272TIP3   OH225374   3.934   6.705   1.205 -0.2544 -0.6687  0.8557
 1272TIP3    H125375   3.918   6.768   1.135  2.8716 -0.3611  0.2721
 1272TIP3    H225376   3.900   6.622   1.172 -1.4334  0.0298  0.2458
 1273TIP3   OH225377   3.263   1.897   7.452 -0.0800 -0.2130  0.4720
 1273TIP3    H125378   3.272   1.988   7.481 -1.5232  0.1379 -0.0916
 1273TIP3    H225379   3.176   1.871   7.481  0.0479 -1.1968  0.0178
 1274TIP3   OH225380   6.820   5.092   8.387 -1.2303  0.2083 -0.2193
 1274TIP3    H125381   6.827   5.172   8.439  0.4262 -0.8410  1.2591
 1274TIP3    H225382   6.762   5.036   8.437 -1.4905  0.0499 -0.6919
 1275TIP3   OH225383   1.989   6.174   6.960 -0.7697 -0.0873  0.2736
 1275TIP3    H125384   2.027   6.258   6.983  1.1218 -0.7536 -0.2108
 1275TIP3    H225385   1.966   6.182   6.868 -2.6300  0.5687  0.7511
 1276TIP3   OH225386   1.538   2.411   1.085 -0.1033  0.2559  0.0483
 1276TIP3    H125387   1.475   2.360   1.137  0.6477 -1.7110 -0.8487
 1276TIP3    H225388   1.610   2.430   1.146  0.2776 -1.0879  0.0600
 1277TIP3   OH225389   2.039   1.107   1.676  0.5200 -0.0442 -0.4268
 1277TIP3    H125390   2.023   1.201   1.684 -3.0825 -0.2715 -2.7229
 1277TIP3    H225391   2.080   1.097   1.590  2.0616 -0.5728  0.3200
 1278TIP3   OH225392   4.662   4.061   6.379 -0.5265  0.2276 -0.1679
 1278TIP3    H125393   4.681   3.986   6.435 -0.2996  0.5806  0.2351
 1278TIP3    H225394   4.625   4.023   6.300 -1.7378 -0.2390  0.5838
 1279TIP3   OH225395   5.845   1.107   0.614  0.5103  0.4599 -0.1892
 1279TIP3    H125396   5.809   1.032   0.663  1.4440  0.5241  0.6340
 1279TIP3    H225397   5.854   1.176   0.680  0.5409  0.9956 -0.7467
 1280TIP3   OH225398   2.628   4.805   1.727 -0.0698  0.4366  0.4306
 1280TIP3    H125399   2.653   4.758   1.807 -1.1259 -0.0080  0.5175
 1280TIP3    H225400   2.589   4.737   1.671 -1.6040  1.1776  0.5499
 1281TIP3   OH225401   3.824   1.467   7.402 -0.4571  0.3116 -0.3808
 1281TIP3    H125402   3.919   1.481   7.400 -0.3378 -0.2525  0.6090
 1281TIP3    H225403   3.813   1.388   7.454 -1.3709 -0.7870 -2.1621
 1282TIP3   OH225404   6.617   0.192   1.898  0.0908  0.0911  0.1264
 1282TIP3    H125405   6.630   0.286   1.911 -0.4459  0.3756 -1.2713
 1282TIP3    H225406   6.631   0.154   1.985 -1.1301  1.6119  1.0332
 1283TIP3   OH225407   3.704   0.736   8.485 -0.4793  0.2770 -0.1574
 1283TIP3    H125408   3.784   0.739   8.538  0.0008  0.0696 -0.8668
 1283TIP3    H225409   3.637   0.701   8.545 -0.4237  1.8660  0.9159
 1284TIP3   OH225410   5.982   2.932   8.607  0.2977  0.3922 -0.3833
 1284TIP3    H125411   5.970   2.839   8.589 -0.5088  0.4896 -0.3530
 1284TIP3    H225412   5.904   2.974   8.571  0.6937  1.0709 -0.4700
 1285TIP3   OH225413   4.466   5.163   7.963 -0.2999 -0.7257  0.2058
 1285TIP3    H125414   4.438   5.243   8.007  0.0857 -0.7026  0.4108
 1285TIP3    H225415   4.514   5.193   7.886 -1.9895 -0.7583 -0.9149
 1286TIP3   OH225416   1.005   1.404   0.929 -0.2011 -0.0487 -0.3624
 1286TIP3    H125417   1.013   1.323   0.980 -1.9479  0.0624  0.1706
 1286TIP3    H225418   0.985   1.471   0.995  0.0093  0.5830 -0.9305
 1287TIP3   OH225419   3.257   3.735   8.524 -0.1758 -0.0005 -0.2749
 1287TIP3    H125420   3.248   3.815   8.472  0.9851  0.2469 -0.1176
 1287TIP3    H225421   3.290   3.765   8.609  1.8092 -0.7566 -0.7249
 1288TIP3   OH225422   4.853   1.796   8.012  0.2911 -0.3344  0.4083
 1288TIP3    H125423   4.770   1.814   8.056 -1.8785 -3.3380 -1.9784
 1288TIP3    H225424   4.895   1.729   8.067 -0.1367 -0.6819  0.3181
 1289TIP3   OH225425   1.951   1.124   8.566  0.2495 -0.3030 -0.7228
 1289TIP3    H125426   1.938   1.214   8.534 -2.0542 -0.5286 -0.5959
 1289TIP3    H225427   1.942   1.131   8.661  1.7345 -0.4370 -0.5603
 1290TIP3   OH225428   6.435   2.107   0.470 -0.1935 -0.0714  0.1320
 1290TIP3    H125429   6.373   2.035   0.460  0.0128 -0.0116 -2.1870
 1290TIP3    H225430   6.501   2.091   0.403  0.4697  1.6714  0.3136
 1291TIP3   OH225431   6.569   2.438   8.419  0.2050  0.1707  0.3404
 1291TIP3    H125432   6.528   2.511   8.465 -0.5023  0.3506 -0.5392
 1291TIP3    H225433   6.497   2.375   8.407 -0.0512  0.8077 -1.8869
 1292TIP3   OH225434   3.970   5.595   6.602  0.3802  0.1581  0.3434
 1292TIP3    H125435   3.896   5.654   6.587 -0.2828 -0.5349  0.7885
 1292TIP3    H225436   4.029   5.645   6.658 -0.5491  0.1223  1.3835
 1293TIP3   OH225437   6.044   6.611   2.070  0.3808  0.0543  0.3823
 1293TIP3    H125438   5.974   6.649   2.017  0.3866  0.5430  0.7196
 1293TIP3    H225439   6.122   6.617   2.014 -0.1385 -2.0274 -0.6662
 1294TIP3   OH225440   0.946   4.778   0.714 -0.1830  0.2600  0.0097
 1294TIP3    H125441   1.028   4.730   0.704 -1.6005 -2.2598 -0.2803
 1294TIP3    H225442   0.898   4.760   0.634 -1.5247  0.6640  0.6975
 1295TIP3   OH225443   3.996   2.217   2.351 -0.1306 -0.0829  0.0657
 1295TIP3    H125444   4.030   2.263   2.428 -1.0028  0.7995 -0.0616
 1295TIP3    H225445   4.063   2.151   2.332  1.5402  1.5792 -0.1759
 1296TIP3   OH225446   5.512   1.065   2.315  0.4413  0.0263  0.7315
 1296TIP3    H125447   5.497   1.108   2.231  1.1608 -0.4625  0.3445
 1296TIP3    H225448   5.570   0.992   2.295  1.8040  0.7514  1.8744
 1297TIP3   OH225449   1.815   5.359   6.839 -0.0186  0.2825  0.3481
 1297TIP3    H125450   1.821   5.266   6.862 -0.0789  0.1069 -0.3044
 1297TIP3    H225451   1.791   5.359   6.746  0.1266  0.9534  0.3026
 1298TIP3   OH225452   1.577   5.457   0.595 -0.1986  0.2597 -0.2560
 1298TIP3    H125453   1.648   5.394   0.606 -1.7697 -1.3613  1.4553
 1298TIP3    H225454   1.599   5.529   0.655 -1.2723 -1.5613  2.5341
 1299TIP3   OH225455   4.069   5.271   0.634  0.4386 -0.4048  0.5439
 1299TIP3    H125456   4.149   5.238   0.592  2.6424  3.0590  1.5946
 1299TIP3    H225457   4.061   5.219   0.714  1.6086 -0.8800  0.3791
 1300TIP3   OH225458   5.893   5.514   1.802  0.1024 -0.0478 -0.1229
 1300TIP3    H125459   5.862   5.432   1.762 -0.0615  0.2700 -0.6512
 1300TIP3    H225460   5.887   5.497   1.897  0.0122 -0.6258 -0.2244
 1301TIP3   OH225461   0.575   0.426   7.717  0.0857  0.2286  0.3676
 1301TIP3    H125462   0.594   0.334   7.733  0.3987 -0.0313 -1.3158
 1301TIP3    H225463   0.489   0.440   7.758 -0.7284 -1.2490 -0.7357
 1302TIP3   OH225464   5.058   2.627   6.786  0.2818  0.2256  0.4880
 1302TIP3    H125465   5.006   2.700   6.752  1.1137  0.5497 -0.1090
 1302TIP3    H225466   5.136   2.669   6.824 -0.6125 -0.1014  2.8538
 1303TIP3   OH225467   2.485   4.237   1.269 -0.9418  0.0837  0.2110
 1303TIP3    H125468   2.501   4.192   1.186  0.7093  0.0342  0.5219
 1303TIP3    H225469   2.490   4.168   1.335 -0.8094  0.3372  0.4717
 1304TIP3   OH225470   1.854   2.885   0.822  0.2259  0.5227 -0.0274
 1304TIP3    H125471   1.800   2.963   0.814 -1.2387 -0.3047  1.2920
 1304TIP3    H225472   1.827   2.845   0.904  1.5989 -0.8986 -0.2143
 1305TIP3   OH225473   4.610   3.890   7.767  0.0129  0.0187 -0.1147
 1305TIP3    H125474   4.546   3.924   7.830  0.0263 -0.3214  0.0857
 1305TIP3    H225475   4.563   3.890   7.684 -0.6218 -1.2513  0.2172
 1306TIP3   OH225476   4.193   4.803   0.631  0.1773  0.2737  0.3099
 1306TIP3    H125477   4.101   4.830   0.625 -0.6015 -2.0836  0.4497
 1306TIP3    H225478   4.212   4.807   0.725 -0.4862 -1.1436  0.5451
 1307TIP3   OH225479   2.526   1.755   7.339  0.1505 -0.6913 -0.2327
 1307TIP3    H125480   2.580   1.762   7.261 -1.0728  0.7043 -0.9974
 1307TIP3    H225481   2.493   1.844   7.354  0.4853 -0.8798  1.9823
 1308TIP3   OH225482   1.247   5.747   8.122 -0.1651  0.4818 -0.4403
 1308TIP3    H125483   1.321   5.804   8.102 -0.6176  1.1648 -0.2035
 1308TIP3    H225484   1.242   5.745   8.217 -0.5388  0.5624 -0.4543
 1309TIP3   OH225485   6.825   6.061   6.514  0.2252  0.2896  0.2773
 1309TIP3    H125486   6.735   6.032   6.532  1.3136 -2.8797  1.1421
 1309TIP3    H225487   6.824   6.081   6.420 -1.4078  0.4814  0.2984
 1310TIP3   OH225488   3.640   2.030   6.725  0.8191  1.0491 -0.4771
 1310TIP3    H125489   3.628   2.115   6.769  0.1610 -0.6181  2.8823
 1310TIP3    H225490   3.553   1.989   6.730  1.5468 -0.5224 -0.3714
 1311TIP3   OH225491   0.296   2.491   7.234 -0.5028  0.1529 -0.1268
 1311TIP3    H125492   0.343   2.487   7.150 -0.3352  1.2733 -0.1001
 1311TIP3    H225493   0.340   2.426   7.289  0.1816  0.2724 -0.5220
 1312TIP3   OH225494   6.728   4.233   1.796 -0.5254 -0.4795  0.1707
 1312TIP3    H125495   6.821   4.248   1.813  0.0401 -0.2100 -2.6495
 1312TIP3    H225496   6.723   4.142   1.766 -0.6426  0.2359 -2.2441
 1313TIP3   OH225497   3.401   2.760   0.959  0.2808 -0.5098 -0.0608
 1313TIP3    H125498   3.345   2.723   0.891  0.3155 -0.1577 -0.2867
 1313TIP3    H225499   3.457   2.822   0.912  0.9028 -0.9000  0.1493
 1314TIP3   OH225500   1.905   4.919   0.024  0.0624  0.1000  0.3436
 1314TIP3    H125501   1.921   4.887  -0.065  0.3646  0.0694  0.4078
 1314TIP3    H225502   1.991   4.940   0.057 -0.0309 -0.0734  0.6992
 1315TIP3   OH225503   4.296   0.134   8.554  0.4466  0.1010 -0.0552
 1315TIP3    H125504   4.354   0.067   8.591  0.7425 -0.5548 -1.6376
 1315TIP3    H225505   4.335   0.217   8.582  0.4213 -0.3577  1.4265
 1316TIP3   OH225506   3.625   0.138   1.136  0.4746 -0.0206  0.0814
 1316TIP3    H125507   3.666   0.187   1.208  0.8121 -1.0918  0.6470
 1316TIP3    H225508   3.590   0.059   1.178  2.1260 -1.4915 -1.1566
 1317TIP3   OH225509   6.381   6.512   7.045  0.2573  0.2149  0.3180
 1317TIP3    H125510   6.395   6.553   7.131  0.5933 -2.2829  1.5559
 1317TIP3    H225511   6.413   6.577   6.982  0.3329  1.9953  2.0807
 1318TIP3   OH225512   3.630   1.617   8.188 -0.0247 -0.6653 -0.1061
 1318TIP3    H125513   3.564   1.607   8.258 -0.8235 -0.9312 -0.8786
 1318TIP3    H225514   3.614   1.704   8.152 -1.1742 -1.4053 -1.4867
 1319TIP3   OH225515   4.469   1.694   6.489  0.0022  0.9170 -0.0325
 1319TIP3    H125516   4.472   1.744   6.571  0.4564  0.1153  0.4488
 1319TIP3    H225517   4.438   1.758   6.424 -1.6420  1.2403  0.9889
 1320TIP3   OH225518   2.522   6.233   7.646  0.1800  0.0167 -0.3421
 1320TIP3    H125519   2.442   6.221   7.595 -0.5538 -0.4165  0.8509
 1320TIP3    H225520   2.576   6.291   7.593 -0.7407 -0.0364 -1.3773
 1321TIP3   OH225521   2.291   4.773   1.447 -1.0348  0.2387  0.2748
 1321TIP3    H125522   2.295   4.820   1.530  0.4363  1.0657 -0.2305
 1321TIP3    H225523   2.317   4.837   1.381 -1.1399 -0.6908 -0.7059
 1322TIP3   OH225524   5.544   6.370   7.744 -0.4339 -0.2723  0.1413
 1322TIP3    H125525   5.535   6.462   7.771 -1.9093 -0.2774 -0.2820
 1322TIP3    H225526   5.454   6.339   7.735  0.0066 -1.0586 -2.0947
 1323TIP3   OH225527   4.252   5.408   0.056 -0.1121  0.0786  0.0592
 1323TIP3    H125528   4.248   5.343   0.127  0.8496  0.6750  0.6736
 1323TIP3    H225529   4.164   5.407   0.019 -0.6431 -0.2324  1.2774
 1324TIP3   OH225530   3.706   1.843   6.051 -0.0941  0.3031  0.1140
 1324TIP3    H125531   3.687   1.919   5.996  1.5689 -1.7962 -3.7816
 1324TIP3    H225532   3.788   1.865   6.095 -0.3263  1.2340  0.1001
 1325TIP3   OH225533   5.391   1.177   2.058  0.4006 -0.4669 -0.4289
 1325TIP3    H125534   5.443   1.101   2.033 -0.9227 -1.9453  1.0915
 1325TIP3    H225535   5.320   1.180   1.994 -0.4145 -1.4785  0.4033
 1326TIP3   OH225536   5.361   1.459   2.098 -0.1256 -0.2218  0.0259
 1326TIP3    H125537   5.269   1.483   2.091  0.2179  0.7638 -2.1601
 1326TIP3    H225538   5.361   1.364   2.096 -1.1432 -0.2584  1.0430
 1327TIP3   OH225539   5.035   5.707   1.022 -0.1731 -0.3603 -0.1380
 1327TIP3    H125540   5.087   5.717   1.102 -0.1971 -0.6124 -0.0913
 1327TIP3    H225541   5.046   5.791   0.976  1.3743 -0.8866 -0.7930
 1328TIP3   OH225542   5.996   2.728   8.434 -0.1316 -0.0377 -0.3644
 1328TIP3    H125543   5.996   2.735   8.338  2.0086 -1.8556 -0.5825
 1328TIP3    H225544   5.978   2.636   8.452 -2.4156  0.6130  1.1359
 1329TIP3   OH225545   3.020   1.863   7.630  0.0164  0.0239  0.1167
 1329TIP3    H125546   2.955   1.915   7.677  1.2018  0.1403  1.7269
 1329TIP3    H225547   2.973   1.826   7.555 -1.4514  1.4632  0.2779
 1330TIP3   OH225548   2.573   1.096   7.589  0.3980  0.8559 -0.3324
 1330TIP3    H125549   2.569   1.157   7.515 -0.4271  2.9308  1.3414
 1330TIP3    H225550   2.482   1.075   7.608  0.5468  1.0592  0.6484
 1331TIP3   OH225551   4.773   6.211   8.025  0.3791 -0.0533  0.4409
 1331TIP3    H125552   4.716   6.211   7.947  0.5071  1.3607  0.3208
 1331TIP3    H225553   4.723   6.163   8.091  0.3942 -1.5357 -0.5843
 1332TIP3   OH225554   0.242   2.787   8.377 -0.0137 -0.5729 -0.0651
 1332TIP3    H125555   0.299   2.854   8.416 -2.5532  1.9580 -0.3840
 1332TIP3    H225556   0.218   2.731   8.450 -2.1523  2.2174  1.5760
 1333TIP3   OH225557   6.478   6.764   8.486  0.2391  0.1100 -0.8170
 1333TIP3    H125558   6.561   6.732   8.452  0.5799  1.4692 -1.3224
 1333TIP3    H225559   6.412   6.719   8.433  0.6454 -0.7558 -0.6052
 1334TIP3   OH225560   0.545   5.007   0.036  0.5912 -0.7776  0.2516
 1334TIP3    H125561   0.571   4.998  -0.056 -0.0060 -0.4551  0.0445
 1334TIP3    H225562   0.613   5.062   0.075 -0.8419  1.9328 -0.8078
 1335TIP3   OH225563   3.160   5.287   0.875  0.0095  0.6218 -0.2902
 1335TIP3    H125564   3.161   5.357   0.940  1.9776  0.6036 -0.2580
 1335TIP3    H225565   3.135   5.209   0.923  0.8598  0.7268  0.3431
 1336TIP3   OH225566   3.899   4.119   6.137  0.0200 -0.2644 -0.5360
 1336TIP3    H125567   3.913   4.032   6.176 -0.0152 -0.5756 -1.2018
 1336TIP3    H225568   3.987   4.152   6.122  0.0648 -0.8986 -1.8184
 1337TIP3   OH225569   1.503   6.831   7.466 -0.0333  0.0376 -0.1182
 1337TIP3    H125570   1.549   6.748   7.453  0.7956  0.6286 -1.0852
 1337TIP3    H225571   1.509   6.876   7.382 -2.5334  0.0999 -0.3405
 1338TIP3   OH225572   2.131   5.290   7.722  0.2064 -0.1978 -0.2121
 1338TIP3    H125573   2.165   5.212   7.677  0.1775  0.3467 -1.2284
 1338TIP3    H225574   2.189   5.301   7.797  0.1127 -1.2843  0.0425
 1339TIP3   OH225575   0.675   0.337   6.141  0.1924  0.4985  0.3373
 1339TIP3    H125576   0.743   0.397   6.172  0.3260  0.1619  0.7027
 1339TIP3    H225577   0.638   0.299   6.220 -2.7181  3.0967  0.4100
 1340TIP3   OH225578   3.038   3.321   2.278  0.1634 -0.3963  0.3619
 1340TIP3    H125579   3.127   3.344   2.252  0.7342 -1.4452  1.2893
 1340TIP3    H225580   3.044   3.230   2.307 -1.2883 -0.6038  0.0993
 1341TIP3   OH225581   4.546   1.284   6.995  0.2079  0.6508 -0.6219
 1341TIP3    H125582   4.597   1.209   6.966  1.6957  2.0893 -1.9258
 1341TIP3    H225583   4.463   1.247   7.024  1.4017 -1.6293  0.1539
 1342TIP3   OH225584   5.658   2.716   8.163 -0.3374 -0.1106 -0.0091
 1342TIP3    H125585   5.752   2.727   8.148 -0.3909 -0.7477 -0.9231
 1342TIP3    H225586   5.618   2.791   8.118 -0.3617 -0.8399 -1.2510
 1343TIP3   OH225587   0.760   6.289   7.331  0.0861  0.2868  0.4094
 1343TIP3    H125588   0.753   6.198   7.360 -1.3180  0.2936  0.1962
 1343TIP3    H225589   0.851   6.299   7.303 -0.0151 -1.4116 -0.6810
 1344TIP3   OH225590   3.382   2.013   0.505 -0.2646 -0.2665 -0.1800
 1344TIP3    H125591   3.324   2.018   0.581 -2.7054  1.8582 -2.0147
 1344TIP3    H225592   3.387   2.103   0.473 -0.1967 -1.2062 -3.0893
 1345TIP3   OH225593   2.095   3.534   0.683  0.8197  0.0280  0.9957
 1345TIP3    H125594   2.186   3.530   0.652  1.0131  0.8286  1.4159
 1345TIP3    H225595   2.051   3.589   0.618  1.0241  0.9831  1.6394
 1346TIP3   OH225596   1.651   1.831   0.487  0.0796 -0.2539 -0.0666
 1346TIP3    H125597   1.681   1.755   0.536  2.0058  0.1225 -0.5554
 1346TIP3    H225598   1.556   1.830   0.496  0.1197 -2.2067  0.6642
 1347TIP3   OH225599   4.247   3.213   1.311  0.0817  0.2680 -0.0574
 1347TIP3    H125600   4.155   3.186   1.314  0.5876 -1.4453  2.0756
 1347TIP3    H225601   4.279   3.179   1.227 -0.6460 -1.2806  0.2545
 1348TIP3   OH225602   6.269   5.090   0.632  0.4572 -0.9293  0.5626
 1348TIP3    H125603   6.359   5.097   0.602  0.4574 -0.8324  0.5836
 1348TIP3    H225604   6.224   5.163   0.589  0.0318 -1.9173 -0.7054
 1349TIP3   OH225605   4.902   1.250   1.491  0.3519  0.5866 -0.2067
 1349TIP3    H125606   4.970   1.252   1.559  1.4330 -1.5041 -1.0956
 1349TIP3    H225607   4.934   1.309   1.423 -0.5889  2.4539  0.8932
 1350TIP3   OH225608   4.138   4.605   1.226  0.2972  0.0685 -0.8121
 1350TIP3    H125609   4.227   4.637   1.241  0.6737 -0.6906 -1.3877
 1350TIP3    H225610   4.146   4.544   1.153 -0.8989  0.9277 -1.7099
 1351TIP3   OH225611   4.343   0.135   7.206  0.0171  0.3207  0.2878
 1351TIP3    H125612   4.418   0.133   7.266 -0.1654 -2.9317  0.6038
 1351TIP3    H225613   4.376   0.179   7.128  1.8492  0.1375  0.9002
 1352TIP3   OH225614   3.234   4.765   6.917 -0.2000 -0.3082  0.3825
 1352TIP3    H125615   3.286   4.783   6.838  1.7837 -1.1696  1.4273
 1352TIP3    H225616   3.195   4.850   6.939  1.9746  0.7777  0.3455
 1353TIP3   OH225617   0.234   6.778   7.778 -0.0531  0.3290  0.6352
 1353TIP3    H125618   0.292   6.703   7.771  1.0348  1.2184 -0.5922
 1353TIP3    H225619   0.158   6.755   7.724  0.5618  0.3281 -0.2644
 1354TIP3   OH225620   2.095   2.800   6.707 -0.0955  0.1862 -0.6020
 1354TIP3    H125621   2.178   2.765   6.673 -0.7738 -1.0444 -1.0565
 1354TIP3    H225622   2.049   2.723   6.739 -1.4508  0.7271 -1.2045
 1355TIP3   OH225623   5.059   6.156   8.650 -0.4614  0.6232  0.3548
 1355TIP3    H125624   5.007   6.236   8.642  0.7642  1.4245  0.1063
 1355TIP3    H225625   5.146   6.180   8.615 -0.2144 -0.9612 -0.1979
 1356TIP3   OH225626   4.749   1.827   1.036  0.1328  0.6222 -0.3248
 1356TIP3    H125627   4.843   1.828   1.020 -0.1136  0.5141 -1.9757
 1356TIP3    H225628   4.733   1.905   1.088  0.9786  1.3444 -1.1060
 1357TIP3   OH225629   4.237   1.302   8.501 -0.6065 -0.0852 -0.1548
 1357TIP3    H125630   4.151   1.337   8.477 -0.7845 -0.8916 -0.7395
 1357TIP3    H225631   4.234   1.210   8.476 -0.3049 -0.6616  1.7545
 1358TIP3   OH225632   2.016   6.790   1.637  0.8120  0.2081  0.1823
 1358TIP3    H125633   1.966   6.826   1.563  1.6984  3.2682  0.9110
 1358TIP3    H225634   1.950   6.748   1.692 -0.0528 -0.9896 -1.6632
 1359TIP3   OH225635   4.413   1.275   7.329  0.3937  0.2145 -0.1747
 1359TIP3    H125636   4.448   1.195   7.290 -1.0396  0.0933 -1.3170
 1359TIP3    H225637   4.329   1.249   7.368  0.6915  0.8354  0.9495
 1360TIP3   OH225638   2.498   1.729   2.096  0.4601  0.1208 -1.1069
 1360TIP3    H125639   2.496   1.637   2.122  0.6828  0.3331 -0.3151
 1360TIP3    H225640   2.415   1.765   2.127  0.2509  0.1315 -1.6602
 1361TIP3   OH225641   3.345   1.672   0.147  0.1121  0.3971 -0.6153
 1361TIP3    H125642   3.336   1.601   0.210  1.8002  0.1828 -0.5863
 1361TIP3    H225643   3.428   1.714   0.169  1.7073 -0.7830 -3.7454
 1362TIP3   OH225644   4.355   2.204   8.318  0.5252  0.1040 -0.4005
 1362TIP3    H125645   4.294   2.190   8.390 -3.0220  1.4413 -2.8271
 1362TIP3    H225646   4.387   2.293   8.330  0.8432 -0.0782  0.1133
 1363TIP3   OH225647   3.895   5.486   2.029  0.2821 -0.1371  0.1593
 1363TIP3    H125648   3.913   5.402   2.073  2.0603  0.5455  0.8014
 1363TIP3    H225649   3.944   5.481   1.947  0.8040  0.4695  0.4301
 1364TIP3   OH225650   4.157   0.712   6.610  0.0444 -0.3881 -0.3535
 1364TIP3    H125651   4.107   0.675   6.537  0.5600 -0.2821 -0.7697
 1364TIP3    H225652   4.215   0.641   6.637  0.5613 -0.1118 -0.7133
 1365TIP3   OH225653   0.271   6.479   1.375 -0.9860  0.2079  0.3713
 1365TIP3    H125654   0.242   6.568   1.393  0.5792  1.4016 -2.3438
 1365TIP3    H225655   0.251   6.466   1.282 -1.7048 -2.5447  0.8157
 1366TIP3   OH225656   3.813   4.502   6.904 -0.4459  0.1186 -0.1247
 1366TIP3    H125657   3.794   4.593   6.879  1.3112  0.4817 -0.2814
 1366TIP3    H225658   3.860   4.509   6.986 -0.0468 -0.6368 -0.2834
 1367TIP3   OH225659   0.223   2.194   1.287  0.0750  0.3049  0.3467
 1367TIP3    H125660   0.318   2.203   1.276  0.0606  2.2286  1.2872
 1367TIP3    H225661   0.212   2.113   1.336  1.1569 -0.3286 -0.4051
 1368TIP3   OH225662   3.826   0.103   8.302  0.0487  0.0817  0.3896
 1368TIP3    H125663   3.888   0.092   8.374  1.5439 -0.4077 -0.9241
 1368TIP3    H225664   3.821   0.017   8.261  0.2147  0.6528 -0.8555
 1369TIP3   OH225665   1.328   5.870   1.425 -0.2397  0.5459  0.3812
 1369TIP3    H125666   1.382   5.924   1.483  1.1693 -0.3907 -0.0100
 1369TIP3    H225667   1.243   5.867   1.469  0.5481  0.5336  2.0006
 1370TIP3   OH225668   4.899   2.736   0.047  0.4414 -0.6084  0.5043
 1370TIP3    H125669   4.898   2.706   0.138 -0.6362  0.0457  0.7170
 1370TIP3    H225670   4.820   2.789   0.037  0.9403 -0.0284 -0.6048
 1371TIP3   OH225671   0.702   5.311   0.930  0.4640  0.0982 -0.5846
 1371TIP3    H125672   0.727   5.247   0.863 -0.3603 -0.3685 -0.4695
 1371TIP3    H225673   0.684   5.391   0.881 -1.3233 -0.5668 -1.1095
 1372TIP3   OH225674   1.190   5.115   7.273 -0.5308 -0.1692 -0.4175
 1372TIP3    H125675   1.204   5.105   7.178 -0.2741 -0.6736 -0.3259
 1372TIP3    H225676   1.118   5.178   7.279  0.3801  0.9596 -0.9220
 1373TIP3   OH225677   4.747   4.738   2.086  0.0065  0.3220  0.1500
 1373TIP3    H125678   4.833   4.778   2.074 -0.6249  1.4481 -0.8804
 1373TIP3    H225679   4.733   4.739   2.180  1.3168 -0.3270  0.3690
 1374TIP3   OH225680   2.455   0.696   0.421  0.7592 -0.3745 -0.1712
 1374TIP3    H125681   2.540   0.701   0.464 -0.1732 -0.0557  1.7548
 1374TIP3    H225682   2.425   0.607   0.437 -0.0404  0.0501  0.7516
 1375TIP3   OH225683   6.075   6.120   6.132  0.0256  0.3498 -0.3393
 1375TIP3    H125684   6.082   6.195   6.191  0.1065  0.6659 -0.7515
 1375TIP3    H225685   6.160   6.114   6.090 -0.7437  1.5678 -2.1642
 1376TIP3   OH225686   5.203   6.561   6.213  0.0831  0.2891  0.1764
 1376TIP3    H125687   5.254   6.491   6.254  0.3840  0.5599  0.2682
 1376TIP3    H225688   5.176   6.525   6.129  2.7827  1.1061 -1.1311
 1377TIP3   OH225689   0.809   3.117   7.263  0.1019  0.1047 -0.0502
 1377TIP3    H125690   0.834   3.209   7.269 -0.6803  0.3589 -0.5628
 1377TIP3    H225691   0.777   3.106   7.173 -0.8815 -0.3941  0.3532
 1378TIP3   OH225692   3.993   5.697   0.071 -0.6640  0.7419  0.3350
 1378TIP3    H125693   3.903   5.724   0.089 -0.6905 -0.2277  1.8414
 1378TIP3    H225694   4.045   5.739   0.140 -0.1918  0.0839  0.3886
 1379TIP3   OH225695   6.348   2.640   6.423 -0.0116 -0.3114  0.0177
 1379TIP3    H125696   6.277   2.656   6.486 -0.0129  1.1681 -0.3282
 1379TIP3    H225697   6.389   2.559   6.453 -1.7200 -1.1029  0.3419
 1380TIP3   OH225698   2.206   3.127   0.998  0.3192  0.2792 -0.6962
 1380TIP3    H125699   2.125   3.157   0.956 -0.4201 -0.4319  0.1988
 1380TIP3    H225700   2.257   3.089   0.927 -0.9734 -1.0396 -0.9691
 1381TIP3   OH225701   5.383   1.369   0.989  0.0374  0.7486  0.5112
 1381TIP3    H125702   5.459   1.369   1.048 -0.1157  0.6395  0.7098
 1381TIP3    H225703   5.331   1.293   1.016 -0.9621  1.7323  1.4503
 1382TIP3   OH225704   3.940   0.719   6.766  0.5642 -0.2105 -0.7761
 1382TIP3    H125705   4.023   0.737   6.722  1.0328 -0.3737  0.0221
 1382TIP3    H225706   3.873   0.751   6.705  1.2667  4.8550  0.6249
 1383TIP3   OH225707   5.586   1.933   0.867 -0.3983  0.0068  0.6360
 1383TIP3    H125708   5.671   1.940   0.824 -0.5250 -0.7761  0.2393
 1383TIP3    H225709   5.552   2.022   0.867  0.2931  0.2772  0.5365
 1384TIP3   OH225710   5.279   5.666   7.104  0.3017 -0.1020 -0.1675
 1384TIP3    H125711   5.233   5.638   7.024  1.8144  1.8240 -1.8145
 1384TIP3    H225712   5.300   5.584   7.149 -1.2457 -1.2112 -1.3314
 1385TIP3   OH225713   1.031   4.727   8.087  0.7177  0.1121 -0.1684
 1385TIP3    H125714   1.079   4.803   8.054 -0.8788  0.7593 -1.1053
 1385TIP3    H225715   1.038   4.734   8.183  1.7557  0.6396 -0.2654
 1386TIP3   OH225716   3.476   1.474   0.524  0.1707  0.7573  0.3584
 1386TIP3    H125717   3.518   1.393   0.495  0.7257  0.9656  0.5746
 1386TIP3    H225718   3.531   1.506   0.595  0.0494  1.4055  0.1701
 1387TIP3   OH225719   0.081   4.377   8.502 -0.0698  0.0466  0.6111
 1387TIP3    H125720  -0.010   4.396   8.479  0.5382  2.4826 -0.1357
 1387TIP3    H225721   0.090   4.406   8.593  0.5522  2.4887 -0.1484
 1388TIP3   OH225722   2.168   4.363   8.586 -0.1908  0.8201  0.4076
 1388TIP3    H125723   2.227   4.359   8.661 -0.1462 -0.6903  0.3300
 1388TIP3    H225724   2.226   4.361   8.510 -0.2887  0.1618  0.3382
 1389TIP3   OH225725   0.795   1.848   7.116 -0.0309 -0.4786 -0.1252
 1389TIP3    H125726   0.857   1.920   7.120 -0.6318  0.1704 -1.7398
 1389TIP3    H225727   0.722   1.875   7.172  0.1941 -0.2935  0.0758
 1390TIP3   OH225728   2.232   5.634   7.105  0.4840  0.4601  0.2211
 1390TIP3    H125729   2.160   5.596   7.055  0.3928 -1.7306  1.8344
 1390TIP3    H225730   2.301   5.648   7.041  0.2400 -1.8669 -0.6643
 1391TIP3   OH225731   5.411   4.419   7.113 -0.6785 -0.2669 -0.5379
 1391TIP3    H125732   5.400   4.411   7.208 -0.4793 -1.0824 -0.5790
 1391TIP3    H225733   5.369   4.341   7.077 -2.8881  1.1508 -1.2981
 1392TIP3   OH225734   5.492   1.185   8.250  0.6887 -0.2714 -0.2566
 1392TIP3    H125735   5.485   1.093   8.225  2.3319 -0.9338  1.5138
 1392TIP3    H225736   5.585   1.198   8.268  0.0101  0.6805  3.2668
 1393TIP3   OH225737   0.280   1.645   0.257  0.5009 -0.0815  0.1732
 1393TIP3    H125738   0.256   1.697   0.180 -1.1284  1.0606  1.3824
 1393TIP3    H225739   0.358   1.688   0.291 -1.8528  2.9887  2.2392
 1394TIP3   OH225740   3.684   6.122   1.110 -0.2065  0.3926  0.2654
 1394TIP3    H125741   3.670   6.212   1.079  0.9689  0.9289  1.2191
 1394TIP3    H225742   3.697   6.131   1.204  0.4913 -0.7151  0.2899
 1395TIP3   OH225743   0.280   3.807   7.606 -0.0350 -0.1562 -0.0024
 1395TIP3    H125744   0.230   3.812   7.687 -0.1416  1.7591 -0.1463
 1395TIP3    H225745   0.325   3.891   7.600  1.2831 -0.8947 -1.1134
 1396TIP3   OH225746   0.840   6.853   7.735 -0.6343 -0.1730 -0.3547
 1396TIP3    H125747   0.876   6.804   7.661  0.3554 -2.1448  1.3054
 1396TIP3    H225748   0.746   6.837   7.730 -0.6375  0.0834 -1.4074
 1397TIP3   OH225749   3.103   6.239   7.203  0.0464 -0.4577  0.0286
 1397TIP3    H125750   3.189   6.276   7.182 -0.4178  1.2366  0.8822
 1397TIP3    H225751   3.049   6.260   7.126 -0.0992  0.2703  0.3227
 1398TIP3   OH225752   2.873   0.278   0.840  0.2598  0.0407  0.2799
 1398TIP3    H125753   2.870   0.342   0.911 -0.8546 -0.2901  0.5480
 1398TIP3    H225754   2.800   0.302   0.782 -0.3473 -1.1206  0.5229
 1399TIP3   OH225755   5.917   3.536   0.764 -0.6466 -0.7386 -0.2787
 1399TIP3    H125756   5.985   3.601   0.780 -0.7383 -0.7825  0.3260
 1399TIP3    H225757   5.930   3.509   0.673  1.0342 -1.7559  0.2136
 1400TIP3   OH225758   4.816   2.149   6.766  0.3355 -0.4596 -0.6739
 1400TIP3    H125759   4.725   2.178   6.769 -0.4034 -2.3997 -1.7681
 1400TIP3    H225760   4.867   2.229   6.767 -1.3512  0.6787  0.4105
 1401TIP3   OH225761   1.112   3.111   1.512 -0.8128  0.3038  0.1987
 1401TIP3    H125762   1.157   3.172   1.570 -1.6490  0.8099  0.3263
 1401TIP3    H225763   1.105   3.030   1.562 -0.2932  0.3080  0.2787
 1402TIP3   OH225764   3.855   2.821   6.137  0.2449 -0.0977  0.2659
 1402TIP3    H125765   3.797   2.897   6.131  0.8759  0.3291 -0.7090
 1402TIP3    H225766   3.824   2.772   6.213 -0.3242  1.0102  0.7593
 1403TIP3   OH225767   5.387   5.954   0.908  0.0306 -0.2365  0.2372
 1403TIP3    H125768   5.328   5.893   0.953 -0.1035 -0.6369 -0.4544
 1403TIP3    H225769   5.472   5.909   0.908  0.2279  0.1312  0.8189
 1404TIP3   OH225770   0.177   1.998   1.461 -0.0499  0.1576  0.3388
 1404TIP3    H125771   0.140   2.032   1.542 -0.2188 -1.1253  0.8287
 1404TIP3    H225772   0.250   1.943   1.489  0.3279  0.2514 -0.4299
 1405TIP3   OH225773   2.485   1.006   6.720 -0.6006  0.5060  0.7998
 1405TIP3    H125774   2.522   1.084   6.760 -0.4463  0.4555  0.7563
 1405TIP3    H225775   2.559   0.946   6.711 -0.3469  0.9995 -0.7613
 1406TIP3   OH225776   3.698   5.610   2.189  0.1476  0.5897  0.7647
 1406TIP3    H125777   3.669   5.689   2.143 -0.4873  0.6940  1.3191
 1406TIP3    H225778   3.753   5.564   2.126 -0.8609  0.6232 -0.1813
 1407TIP3   OH225779   1.611   0.806   7.688 -0.1445 -0.1739 -0.2484
 1407TIP3    H125780   1.558   0.870   7.735 -0.4916 -1.0040  0.5274
 1407TIP3    H225781   1.605   0.727   7.742  0.3438 -0.8265 -1.1381
 1408TIP3   OH225782   1.214   2.204   2.022  0.5143 -0.4133  0.7379
 1408TIP3    H125783   1.269   2.199   2.100  1.5497  0.5605  0.1034
 1408TIP3    H225784   1.210   2.114   1.988  2.3496 -0.3923  0.3884
 1409TIP3   OH225785   3.669   3.514   8.567 -0.1713  0.4509 -0.1905
 1409TIP3    H125786   3.596   3.560   8.525 -0.5433 -1.5448 -1.8794
 1409TIP3    H225787   3.744   3.529   8.510  0.3198  0.9590  0.5609
 1410TIP3   OH225788   3.348   0.215   1.781 -0.2791 -0.1412 -0.2548
 1410TIP3    H125789   3.441   0.238   1.776 -0.2907 -0.2576 -1.1968
 1410TIP3    H225790   3.345   0.136   1.834 -0.0136  0.7766  1.1708
 1411TIP3   OH225791   2.141   6.428   7.069 -0.0208  0.6457  0.0301
 1411TIP3    H125792   2.218   6.375   7.087 -0.5244  0.5149  1.9839
 1411TIP3    H225793   2.123   6.474   7.151  0.1127  3.5222 -1.4073
 1412TIP3   OH225794   1.540   3.986   2.036 -0.8143  0.2583 -0.2939
 1412TIP3    H125795   1.589   4.055   2.081 -1.1829  0.8040 -0.7161
 1412TIP3    H225796   1.518   3.923   2.105  1.2424 -0.4712 -0.2213
 1413TIP3   OH225797   5.681   4.234   8.459  0.3862  0.2026  0.2242
 1413TIP3    H125798   5.620   4.270   8.394  0.8673 -0.3501 -0.5501
 1413TIP3    H225799   5.625   4.181   8.516  0.1739 -0.6705 -0.7495
 1414TIP3   OH225800   1.704   1.190   7.022 -0.2880 -0.5819  0.1104
 1414TIP3    H125801   1.697   1.217   6.931 -0.1186 -0.8745  0.0119
 1414TIP3    H225802   1.736   1.269   7.067  0.3737 -0.6641 -0.2045
 1415TIP3   OH225803   5.880   2.189   1.652 -0.0569  0.9042  0.1188
 1415TIP3    H125804   5.936   2.163   1.578 -1.7023 -0.4450 -0.7428
 1415TIP3    H225805   5.939   2.235   1.712  2.0440 -0.7012 -0.5627
 1416TIP3   OH225806   3.266   5.562   8.264 -0.1798 -0.2289  0.3916
 1416TIP3    H125807   3.335   5.534   8.325 -0.3045 -0.6472  0.3492
 1416TIP3    H225808   3.310   5.568   8.179  0.0117  0.4319  0.5361
 1417TIP3   OH225809   0.465   0.873   7.908 -1.0944  0.3477 -0.1475
 1417TIP3    H125810   0.512   0.796   7.875 -2.5466 -0.0023 -1.5540
 1417TIP3    H225811   0.395   0.837   7.962 -1.1034  0.7352  0.0998
 1418TIP3   OH225812   4.310   5.051   1.234  0.1210  0.5065  0.4010
 1418TIP3    H125813   4.337   4.962   1.214 -0.3519  0.5078 -0.2831
 1418TIP3    H225814   4.390   5.103   1.229  0.2522  0.2636 -0.0767
 1419TIP3   OH225815   4.927   5.168   1.332 -0.0518  0.3995  0.6777
 1419TIP3    H125816   4.918   5.234   1.263  1.1640  0.2040  0.3095
 1419TIP3    H225817   5.022   5.158   1.343 -0.2228 -0.9499  1.0508
 1420TIP3   OH225818   3.056   0.090   7.661 -0.1110 -0.0282 -0.0781
 1420TIP3    H125819   3.118   0.019   7.676 -1.3580 -1.4388 -1.2793
 1420TIP3    H225820   3.109   0.159   7.621  1.2914  0.1199  1.8807
 1421TIP3   OH225821   3.003   6.270   7.909 -0.0981 -0.1047  0.2727
 1421TIP3    H125822   2.976   6.334   7.844  0.8511 -1.1040 -1.1673
 1421TIP3    H225823   2.922   6.247   7.955 -1.4574 -1.5059 -2.5203
 1422TIP3   OH225824   5.499   1.454   6.871  0.0092 -0.1040 -0.2287
 1422TIP3    H125825   5.433   1.481   6.936 -0.3005 -1.9640  0.2976
 1422TIP3    H225826   5.456   1.467   6.787 -0.9877 -1.0682  0.1039
 1423TIP3   OH225827   2.809   2.321   1.020 -0.8750 -0.1968  0.2681
 1423TIP3    H125828   2.755   2.397   0.998 -2.3595 -1.3841 -0.3877
 1423TIP3    H225829   2.764   2.279   1.093 -0.4477 -0.7966  0.1977
 1424TIP3   OH225830   3.835   5.404   1.661  0.1666 -0.5609  0.3582
 1424TIP3    H125831   3.788   5.325   1.687  1.8830 -2.6517 -2.3959
 1424TIP3    H225832   3.920   5.397   1.703  0.8381 -0.9460 -1.0338
 1425TIP3   OH225833   0.327   2.493   8.443  0.4881  0.5701 -1.0187
 1425TIP3    H125834   0.297   2.506   8.533  0.5863  1.8170 -1.1461
 1425TIP3    H225835   0.279   2.417   8.413  2.1065 -1.3146  0.8096
 1426TIP3   OH225836   3.743   2.763   8.029 -0.2127  0.5232 -0.4818
 1426TIP3    H125837   3.668   2.823   8.033  0.5294  1.5447 -1.3288
 1426TIP3    H225838   3.749   2.738   7.937  0.2150  0.0782 -0.3375
 1427TIP3   OH225839   5.534   6.663   1.610 -0.1264 -0.2034  0.0540
 1427TIP3    H125840   5.443   6.642   1.631  0.6058 -2.7707  1.0390
 1427TIP3    H225841   5.575   6.676   1.696  0.7516 -0.4992 -0.3166
 1428TIP3   OH225842   3.630   6.460   8.235  0.2051 -0.2153  0.8087
 1428TIP3    H125843   3.558   6.506   8.190  0.6174  0.7474  1.1087
 1428TIP3    H225844   3.654   6.518   8.307  1.9631 -0.0168  0.1219
 1429TIP3   OH225845   2.586   5.646   0.112  0.3100  0.3191 -0.5078
 1429TIP3    H125846   2.621   5.731   0.085 -1.2547  0.6557 -1.6255
 1429TIP3    H225847   2.661   5.588   0.112  1.7159  1.9562  1.6720
 1430TIP3   OH225848   1.198   4.594   0.913 -0.3097  0.5766 -0.0990
 1430TIP3    H125849   1.185   4.589   0.818  0.4577 -0.2840 -0.1739
 1430TIP3    H225850   1.194   4.687   0.933  0.4000  0.8453 -1.1116
 1431TIP3   OH225851   2.625   6.833   1.844 -0.3753  0.3499 -0.4038
 1431TIP3    H125852   2.669   6.748   1.838 -1.2885 -0.1146 -0.6139
 1431TIP3    H225853   2.598   6.839   1.936  1.2228  1.2146  0.0554
 1432TIP3   OH225854   5.631   3.722   1.897 -0.0574 -0.1453  0.3817
 1432TIP3    H125855   5.552   3.688   1.938 -0.7322 -0.9972 -1.5262
 1432TIP3    H225856   5.702   3.669   1.933 -0.4133  0.1921  1.6132
 1433TIP3   OH225857   0.933   3.749   8.572 -0.2971  0.2021 -0.5990
 1433TIP3    H125858   1.026   3.739   8.548 -0.5213  0.2155 -1.5325
 1433TIP3    H225859   0.886   3.732   8.490 -1.1039  0.4782 -0.1983
 1434TIP3   OH225860   1.208   6.204   1.443  0.1221 -0.4550 -0.3834
 1434TIP3    H125861   1.123   6.175   1.475 -0.1933 -1.4191 -1.9590
 1434TIP3    H225862   1.256   6.123   1.425  1.6290  0.0694  1.0131
 1435TIP3   OH225863   1.005   0.292   0.698  0.3201  0.2576  0.4158
 1435TIP3    H125864   0.910   0.299   0.688  0.0328  1.7313  2.9774
 1435TIP3    H225865   1.025   0.352   0.771  2.8480 -2.0193  1.7695
 1436TIP3   OH225866   4.256   4.745   8.111 -0.0498 -0.2034 -0.0927
 1436TIP3    H125867   4.293   4.818   8.060  1.8904 -1.5728 -0.7750
 1436TIP3    H225868   4.176   4.722   8.064  0.2303  0.3771 -0.8936
 1437TIP3   OH225869   2.096   3.451   1.561  0.4022  0.5503  0.2059
 1437TIP3    H125870   2.103   3.430   1.654 -0.8258  1.7837  0.6192
 1437TIP3    H225871   2.092   3.547   1.559  0.5059  0.5415 -1.1344
 1438TIP3   OH225872   2.456   0.513   2.018 -0.1423  0.6390 -0.3773
 1438TIP3    H125873   2.384   0.558   1.974 -1.7440 -0.1159  1.3354
 1438TIP3    H225874   2.447   0.538   2.110  0.3763 -1.2261  0.2246
 1439TIP3   OH225875   4.728   3.514   8.566 -0.3179 -0.0571  0.3473
 1439TIP3    H125876   4.750   3.438   8.511 -0.3012 -0.0606  0.3586
 1439TIP3    H225877   4.666   3.480   8.630  0.0567 -0.1773  0.6540
 1440TIP3   OH225878   3.837   4.609   2.159 -0.5087  0.4544 -0.0826
 1440TIP3    H125879   3.768   4.558   2.202 -0.3531  1.1134  0.9590
 1440TIP3    H225880   3.858   4.678   2.221 -2.0486  3.0205 -2.2063
 1441TIP3   OH225881   3.632   3.992   1.567 -0.0536 -0.5858 -0.1183
 1441TIP3    H125882   3.722   4.007   1.537  0.1251 -4.7089 -2.2870
 1441TIP3    H225883   3.642   3.952   1.654  0.1482 -0.3698 -0.0403
 1442TIP3   OH225884   4.187   4.898   7.028 -0.8212  0.5173  0.2597
 1442TIP3    H125885   4.234   4.980   7.037 -0.9866  0.4546  1.8308
 1442TIP3    H225886   4.096   4.923   7.016 -0.9931  0.5543  1.5987
 1443TIP3   OH225887   3.319   1.910   8.071 -0.1042  0.0967 -0.2254
 1443TIP3    H125888   3.336   1.904   7.977 -0.0425  0.4871 -0.2402
 1443TIP3    H225889   3.223   1.911   8.078 -0.1268 -0.9246 -0.2174
 1444TIP3   OH225890   5.308   2.585   7.289 -0.0564 -0.4756 -0.1852
 1444TIP3    H125891   5.244   2.519   7.261 -0.6200 -1.1669  2.4585
 1444TIP3    H225892   5.288   2.600   7.382  1.4153  1.8895 -0.1749
 1445TIP3   OH225893   3.750   2.863   0.606  0.1361  0.1014 -0.2530
 1445TIP3    H125894   3.669   2.892   0.564 -0.9154 -1.1486  0.8242
 1445TIP3    H225895   3.814   2.858   0.535 -0.9226  0.4024 -1.2532
 1446TIP3   OH225896   1.807   1.918   5.998  0.3265 -0.0840 -0.3037
 1446TIP3    H125897   1.879   1.857   5.982  0.9887  0.8741 -1.0754
 1446TIP3    H225898   1.830   1.997   5.949 -2.3127 -0.5152 -2.5061
 1447TIP3   OH225899   2.789   2.569   1.644  0.3983  0.0645  0.3789
 1447TIP3    H125900   2.749   2.483   1.650 -0.1056  0.0996 -1.8289
 1447TIP3    H225901   2.727   2.628   1.687 -0.8325 -0.2284 -0.9438
 1448TIP3   OH225902   5.861   5.483   2.074 -0.8461 -0.4801  0.1644
 1448TIP3    H125903   5.787   5.452   2.125 -1.1708  0.4196  0.2581
 1448TIP3    H225904   5.871   5.575   2.099  1.2284 -0.9450  1.2421
 1449TIP3   OH225905   4.963   1.143   8.032 -0.0483  0.0645  0.2332
 1449TIP3    H125906   4.950   1.078   8.102  0.3247 -0.7683 -0.4586
 1449TIP3    H225907   5.040   1.193   8.060  1.2830 -1.5065 -0.4743
 1450TIP3   OH225908   0.563   0.042   0.626 -0.2655  0.2874 -0.2498
 1450TIP3    H125909   0.564  -0.008   0.545  0.0783  0.5124 -0.3845
 1450TIP3    H225910   0.490   0.103   0.615 -1.5274 -1.0236  0.4368
 1451TIP3   OH225911   3.581   0.465   6.501  0.6489  0.9369 -1.2602
 1451TIP3    H125912   3.599   0.554   6.532  2.0733  1.0905 -2.4377
 1451TIP3    H225913   3.629   0.408   6.561  1.5933  1.1080 -1.8355
 1452TIP3   OH225914   0.136   5.947   7.924 -0.7625  0.3482 -0.1700
 1452TIP3    H125915   0.084   5.920   7.999 -1.0086  0.3830 -0.3270
 1452TIP3    H225916   0.225   5.956   7.958 -0.5668 -1.1695 -0.2246
 1453TIP3   OH225917   6.133   5.554   7.964 -0.3820 -0.5092  0.2442
 1453TIP3    H125918   6.068   5.489   7.937 -1.2148  0.3362  0.1561
 1453TIP3    H225919   6.204   5.545   7.901 -0.4037 -1.4525  0.3474
 1454TIP3   OH225920   6.191   0.502   0.620  0.6213 -0.1471  0.8713
 1454TIP3    H125921   6.162   0.433   0.680 -1.9813  0.0285 -0.0562
 1454TIP3    H225922   6.236   0.456   0.550 -2.9793 -1.3508 -0.8956
 1455TIP3   OH225923   3.911   1.711   0.640  0.0524 -0.4622  0.0925
 1455TIP3    H125924   3.882   1.780   0.700 -0.9709 -1.4897  0.8569
 1455TIP3    H225925   3.971   1.754   0.579 -0.3923  1.0332  0.6697
 1456TIP3   OH225926   3.047   1.001   7.969  0.5658 -0.1623 -0.2211
 1456TIP3    H125927   3.091   0.962   8.045  0.6911  2.0129  0.9044
 1456TIP3    H225928   2.962   1.031   8.003  0.6217  0.8429 -0.9314
 1457TIP3   OH225929   1.561   3.615   7.753  0.0817  0.2354 -0.8893
 1457TIP3    H125930   1.559   3.551   7.824 -0.7110  1.2396  0.0206
 1457TIP3    H225931   1.532   3.565   7.676 -0.9546 -0.4209 -0.1097
 1458TIP3   OH225932   3.047   3.061   0.159 -0.5650 -0.0184 -0.5921
 1458TIP3    H125933   3.028   3.061   0.253 -0.0881 -0.0348 -0.4931
 1458TIP3    H225934   3.046   3.154   0.134 -0.5345 -0.0035 -0.5378
 1459TIP3   OH225935   5.890   4.957   7.703 -0.0809 -0.0033 -0.6089
 1459TIP3    H125936   5.883   5.010   7.782  0.1768  1.5825 -1.6038
 1459TIP3    H225937   5.805   4.966   7.660  0.4346  0.8848 -1.5170
 1460TIP3   OH225938   5.378   3.329   6.436 -0.3672  0.3024  0.1400
 1460TIP3    H125939   5.419   3.389   6.373  0.6048  1.2076  1.5791
 1460TIP3    H225940   5.345   3.257   6.382  1.8340  0.2558 -1.2731
 1461TIP3   OH225941   2.765   3.694   7.563 -0.0220  0.1685  0.2570
 1461TIP3    H125942   2.761   3.707   7.468 -1.7029  0.5378  0.3530
 1461TIP3    H225943   2.674   3.700   7.592  0.4313 -0.2679  1.8606
 1462TIP3   OH225944   4.129   5.852   0.251 -0.0289  0.1491  0.1097
 1462TIP3    H125945   4.164   5.937   0.224 -3.4015  2.7787  2.9386
 1462TIP3    H225946   4.191   5.820   0.317  1.1942  0.4416 -0.8613
 1463TIP3   OH225947   4.931   2.460   1.663 -0.1501 -0.3817  0.3634
 1463TIP3    H125948   4.853   2.479   1.716  0.5449  0.5104  1.0990
 1463TIP3    H225949   4.980   2.542   1.661  1.5322 -1.2918  1.2105
 1464TIP3   OH225950   4.098   3.990   8.476  0.1424  0.2276  0.6784
 1464TIP3    H125951   4.153   3.979   8.554  0.5235  0.2608  0.4185
 1464TIP3    H225952   4.053   3.906   8.466  3.1393 -1.3136 -1.3924
 1465TIP3   OH225953   4.398   2.088   7.112  0.2376 -0.2998  0.1825
 1465TIP3    H125954   4.305   2.113   7.119 -0.0810 -0.5313 -2.2318
 1465TIP3    H225955   4.411   2.073   7.018  2.7367 -0.2757  0.4700
 1466TIP3   OH225956   5.161   2.318   1.148  0.2218 -0.1107 -0.1732
 1466TIP3    H125957   5.215   2.389   1.183 -0.7220  0.4680  0.1600
 1466TIP3    H225958   5.198   2.300   1.061  1.3098 -0.1527  0.2803
 1467TIP3   OH225959   6.765   0.908   6.365 -0.4685 -0.6520  1.3271
 1467TIP3    H125960   6.817   0.988   6.359 -0.6679 -0.5965  0.1752
 1467TIP3    H225961   6.783   0.861   6.284 -1.3100 -1.1823  1.4284
 1468TIP3   OH225962   2.381   1.522   1.681  0.5397 -0.0974  0.1155
 1468TIP3    H125963   2.345   1.449   1.732  1.7196 -0.6570  0.1972
 1468TIP3    H225964   2.365   1.600   1.734 -1.1692 -0.2150 -0.1941
 1469TIP3   OH225965   6.221   0.682   7.642  0.5530  0.4304  0.2069
 1469TIP3    H125966   6.137   0.681   7.596  0.1165  2.3800  0.8672
 1469TIP3    H225967   6.285   0.661   7.574 -0.3046  0.7491 -0.7428
 1470TIP3   OH225968   2.439   4.860   6.866  0.4166 -0.3162 -0.9151
 1470TIP3    H125969   2.512   4.903   6.821  2.0622 -0.2980  1.5790
 1470TIP3    H225970   2.447   4.768   6.843  2.2114 -0.5541  0.4948
 1471TIP3   OH225971   6.431   0.956   7.528  0.2563  0.0490  0.3200
 1471TIP3    H125972   6.434   1.045   7.563  2.0282 -0.9184  2.9741
 1471TIP3    H225973   6.375   0.909   7.589 -1.0972 -0.6047 -1.3556
 1472TIP3   OH225974   3.035   5.384   6.678 -0.4122  0.3857  0.1224
 1472TIP3    H125975   3.013   5.416   6.765 -0.5508 -1.0465  0.6363
 1472TIP3    H225976   3.061   5.292   6.692 -0.5002  0.1188 -1.3464
 1473TIP3   OH225977   1.433   5.716   7.174  0.2606  0.2449  0.4381
 1473TIP3    H125978   1.503   5.731   7.110 -1.0865  0.8171 -0.9545
 1473TIP3    H225979   1.391   5.635   7.145 -0.8088  0.8841  0.1529
 1474TIP3   OH225980   2.388   2.723   0.958  0.0703 -0.0587 -0.6397
 1474TIP3    H125981   2.434   2.804   0.935  1.6938 -0.3538  1.2294
 1474TIP3    H225982   2.355   2.689   0.875  1.3464  1.3492 -1.7769
 1475TIP3   OH225983   2.516   1.015   7.921  0.5521 -0.0815 -0.3007
 1475TIP3    H125984   2.591   1.044   7.870  0.1276  0.6128 -0.5375
 1475TIP3    H225985   2.482   0.938   7.874 -0.4062  1.0934 -1.6224
 1476TIP3   OH225986   2.000   6.395   1.163 -0.3719 -0.0829  0.6180
 1476TIP3    H125987   2.083   6.387   1.211  0.6191  1.8511 -0.6223
 1476TIP3    H225988   1.964   6.479   1.191 -1.3073 -0.3396  0.2283
 1477TIP3   OH225989   6.780   1.679   7.700  0.3422 -0.2038  0.1387
 1477TIP3    H125990   6.722   1.625   7.647  0.6091 -1.4076  1.0265
 1477TIP3    H225991   6.834   1.726   7.637  1.6089 -2.6469 -0.7201
 1478TIP3   OH225992   3.357   4.629   0.653 -0.2643 -0.7774 -0.4085
 1478TIP3    H125993   3.433   4.587   0.614 -0.5129 -0.0786 -1.7003
 1478TIP3    H225994   3.282   4.595   0.604 -0.5649  0.2748 -0.7187
 1479TIP3   OH225995   1.406   0.744   6.947  0.1377 -0.6352 -0.2390
 1479TIP3    H125996   1.405   0.815   7.011 -1.6840 -0.2366 -0.6500
 1479TIP3    H225997   1.337   0.684   6.977  0.1869 -1.1299 -1.0876
 1480TIP3   OH225998   4.101   5.202   8.365 -0.1463 -0.1356  0.5182
 1480TIP3    H125999   4.042   5.154   8.423  0.5217  0.1175  1.4288
 1480TIP3    H226000   4.179   5.219   8.419  0.5403 -0.0049 -0.4966
 1481TIP3   OH226001   3.713   0.915   1.447 -1.0520 -0.1925  0.8573
 1481TIP3    H126002   3.743   0.860   1.520 -0.3629 -0.3615  0.4576
 1481TIP3    H226003   3.769   0.993   1.452 -1.8902  0.4032  1.3027
 1482TIP3   OH226004   4.077   5.476   1.398 -0.1012  0.3084  0.3788
 1482TIP3    H126005   4.051   5.492   1.489  0.0172 -0.6571  0.5861
 1482TIP3    H226006   4.031   5.397   1.372  0.1033  0.4011 -0.3095
 1483TIP3   OH226007   5.269   2.363   7.708  0.5310  0.4064 -0.5382
 1483TIP3    H126008   5.275   2.269   7.687  0.8465 -0.1786  1.8759
 1483TIP3    H226009   5.281   2.367   7.803 -2.5114  2.6166 -0.0974
 1484TIP3   OH226010   6.748   2.846   1.086  0.5078  0.5035 -0.0405
 1484TIP3    H126011   6.775   2.938   1.082  0.6921  0.5727  1.9472
 1484TIP3    H226012   6.656   2.849   1.112  1.0519  0.1356  2.1011
 1485TIP3   OH226013   6.627   2.044   0.277 -0.2241 -0.1206 -0.1655
 1485TIP3    H126014   6.632   1.957   0.238 -1.1173 -1.6007  2.7444
 1485TIP3    H226015   6.567   2.093   0.220 -0.1016 -1.5489 -1.5692
 1486TIP3   OH226016   3.013   4.362   7.004  0.3365  0.1604  0.5376
 1486TIP3    H126017   3.042   4.393   7.090  1.4802 -0.9515  0.5841
 1486TIP3    H226018   3.062   4.281   6.990 -0.2007  0.0619 -0.9529
 1487TIP3   OH226019   1.028   1.665   1.995  0.3946  0.1489  0.0124
 1487TIP3    H126020   1.033   1.580   2.039  2.0271  1.3782  2.4524
 1487TIP3    H226021   1.116   1.701   2.004 -0.6788  2.8513  0.7408
 1488TIP3   OH226022   5.210   6.102   7.674 -0.3221  0.0128 -0.3602
 1488TIP3    H126023   5.148   6.088   7.746  1.5546  0.8778  1.5455
 1488TIP3    H226024   5.155   6.117   7.597 -2.4858  1.1243  1.2857
 1489TIP3   OH226025   0.779   6.242   1.597 -0.5526  0.3738  0.3056
 1489TIP3    H126026   0.779   6.148   1.619 -1.5087  0.7469  2.0592
 1489TIP3    H226027   0.858   6.253   1.543  0.2965 -1.2133  1.1284
 1490TIP3   OH226028   1.533   1.071   6.694  0.0679  0.3657 -0.5336
 1490TIP3    H126029   1.486   1.125   6.630 -0.4262 -0.7856 -1.1726
 1490TIP3    H226030   1.619   1.113   6.702  0.5077  0.0036 -2.7129
 1491TIP3   OH226031   4.984   2.349   7.870 -0.0086  0.0271 -0.0765
 1491TIP3    H126032   5.006   2.387   7.785  0.8226 -0.2796 -0.0086
 1491TIP3    H226033   5.037   2.269   7.875 -2.1398 -1.4832 -0.4695
 1492TIP3   OH226034   0.504   1.651   6.330 -0.1344 -0.0741 -0.5998
 1492TIP3    H126035   0.539   1.564   6.347  2.0924  1.0188  0.8743
 1492TIP3    H226036   0.434   1.637   6.266  0.1129 -2.9138 -0.3568
 1493TIP3   OH226037   5.201   4.308   6.592 -0.1990 -0.2943 -0.4128
 1493TIP3    H126038   5.270   4.323   6.658 -1.6727 -1.7728  1.5902
 1493TIP3    H226039   5.219   4.373   6.524  2.0266  0.6457  0.9444
 1494TIP3   OH226040   1.233   5.943   7.587  0.0281  0.1247  0.1210
 1494TIP3    H126041   1.185   5.911   7.663  0.5095  0.3636  0.5302
 1494TIP3    H226042   1.320   5.964   7.620  0.2383  0.2522 -0.4909
 1495TIP3   OH226043   6.871   1.390   7.437  0.1475 -0.7436 -0.0973
 1495TIP3    H126044   6.812   1.327   7.397  0.2503 -0.9425  0.0629
 1495TIP3    H226045   6.858   1.380   7.531  0.0158 -0.3832 -0.0726
 1496TIP3   OH226046   0.303   0.082   0.547 -0.2690  0.5770 -0.8972
 1496TIP3    H126047   0.256   0.163   0.570 -2.4667 -0.7051 -0.5866
 1496TIP3    H226048   0.263   0.015   0.602  1.1009 -0.8615 -1.5770
 1497TIP3   OH226049   3.893   0.075   1.052  0.0338  0.5376 -0.7253
 1497TIP3    H126050   3.823   0.130   1.086  0.2444  0.3600  0.0164
 1497TIP3    H226051   3.896   0.095   0.959 -0.9052  0.6535 -0.7418
 1498TIP3   OH226052   1.478   0.809   1.112 -0.4579  0.3220  0.1534
 1498TIP3    H126053   1.527   0.747   1.167 -1.4890  1.0200  1.9602
 1498TIP3    H226054   1.407   0.758   1.076 -1.4694  0.4362  1.8645
 1499TIP3   OH226055   4.739   2.797   1.998  0.2079 -0.3252 -0.1094
 1499TIP3    H126056   4.709   2.826   2.084  0.0676 -0.0948 -0.2350
 1499TIP3    H226057   4.822   2.843   1.985  0.3141 -0.4911 -0.0255
 1500TIP3   OH226058   3.843   3.333   7.867 -0.9271  0.0799  0.7131
 1500TIP3    H126059   3.847   3.259   7.928  0.8840 -0.2985  0.1906
 1500TIP3    H226060   3.854   3.294   7.781  0.4294  0.9613  0.4512
 1501TIP3   OH226061   1.073   6.682   2.034  0.0806  0.5875 -0.0427
 1501TIP3    H126062   1.006   6.680   2.102  0.6306 -1.9060  0.5183
 1501TIP3    H226063   1.153   6.652   2.078  0.8322  0.4863 -1.4155
 1502TIP3   OH226064   6.216   0.989   1.817 -0.0645  0.2827  0.1237
 1502TIP3    H126065   6.156   1.037   1.874  0.8277  0.4555  0.9283
 1502TIP3    H226066   6.295   1.042   1.814  0.1076 -0.0035 -0.8411
 1503TIP3   OH226067   0.519   3.901   0.830  0.1407  0.5216  0.2098
 1503TIP3    H126068   0.490   3.840   0.898 -1.6051  1.0893  0.0339
 1503TIP3    H226069   0.563   3.846   0.766 -0.3456 -0.3934  0.6323
 1504TIP3   OH226070   5.570   0.533   1.725  0.9997  0.0929  0.0295
 1504TIP3    H126071   5.502   0.468   1.746  1.6750 -1.2509 -1.6720
 1504TIP3    H226072   5.521   0.610   1.695  0.1806 -0.8384 -1.1425
 1505TIP3   OH226073   4.991   1.380   7.401 -0.1987 -0.4733 -0.1414
 1505TIP3    H126074   4.943   1.367   7.319 -1.1484 -1.3154  0.5169
 1505TIP3    H226075   5.078   1.408   7.374 -0.2219 -1.5949 -1.4763
 1506TIP3   OH226076   2.346   3.485   7.175 -0.0273  0.4153 -0.2028
 1506TIP3    H126077   2.270   3.500   7.119  0.4704  0.9594 -0.7470
 1506TIP3    H226078   2.350   3.564   7.230 -2.2077 -1.2817  2.6787
 1507TIP3   OH226079   6.143   3.860   0.373 -0.2879  0.0135  0.3745
 1507TIP3    H126080   6.162   3.936   0.428 -2.2503  1.9397 -1.4308
 1507TIP3    H226081   6.203   3.868   0.299  0.3784 -0.9631  0.7855
 1508TIP3   OH226082   4.202   0.943   6.718  0.1385 -0.1554  0.0652
 1508TIP3    H126083   4.171   1.000   6.647  0.5126 -1.1478 -0.9187
 1508TIP3    H226084   4.190   0.854   6.685  0.5139 -0.6390  1.1737
 1509TIP3   OH226085   3.463   0.519   7.735 -0.1850 -0.0542  0.1967
 1509TIP3    H126086   3.395   0.487   7.676  0.2510  2.4706 -1.8664
 1509TIP3    H226087   3.536   0.459   7.721 -0.5499 -0.2854 -0.8658
 1510TIP3   OH226088   2.878   5.193   7.963  0.1912  0.2835 -0.5591
 1510TIP3    H126089   2.965   5.190   7.923  0.9325 -0.7880  1.0206
 1510TIP3    H226090   2.848   5.282   7.948  1.9714  0.9611 -0.3451
 1511TIP3   OH226091   4.571   3.020   8.062  0.5886 -0.3851  0.2851
 1511TIP3    H126092   4.552   3.093   8.004  2.0512  0.0277  0.2796
 1511TIP3    H226093   4.506   3.026   8.131  0.1899  0.4313 -0.1535
 1512TIP3   OH226094   1.140   3.760   8.141 -0.4149  0.4800 -0.4994
 1512TIP3    H126095   1.109   3.833   8.194 -0.4957  0.5300 -0.6160
 1512TIP3    H226096   1.117   3.783   8.051  0.5614  0.8388 -0.6704
 1513TIP3   OH226097   0.268   3.205   1.615 -0.4930  0.0641 -0.2349
 1513TIP3    H126098   0.242   3.292   1.582 -0.7063  0.3986  0.7692
 1513TIP3    H226099   0.188   3.153   1.609 -0.9618  0.5741  1.1632
 1514TIP3   OH226100   3.580   0.581   0.722  0.5192  0.2853  0.1961
 1514TIP3    H126101   3.579   0.675   0.702  1.6011  0.5794  1.3989
 1514TIP3    H226102   3.644   0.572   0.793  1.4607 -1.5479 -0.8130
 1515TIP3   OH226103   1.403   3.486   1.540  0.2127 -0.3887 -0.4258
 1515TIP3    H126104   1.441   3.398   1.543 -0.7988 -0.9057 -1.8458
 1515TIP3    H226105   1.454   3.532   1.473 -0.0249 -0.2812 -0.5343
 1516TIP3   OH226106   2.640   0.515   1.204  0.2828  0.4458  0.3313
 1516TIP3    H126107   2.566   0.535   1.146  2.3504 -0.2147 -2.7661
 1516TIP3    H226108   2.704   0.473   1.147  1.3826 -3.0529  3.7310
 1517TIP3   OH226109   6.610   6.420   1.099  1.1560  0.3021  0.0575
 1517TIP3    H126110   6.568   6.335   1.106  0.7495  0.1199 -3.0559
 1517TIP3    H226111   6.704   6.400   1.094  1.2438  0.2631  1.4689
 1518TIP3   OH226112   2.686   0.283   1.373  0.3019  0.3384  0.0296
 1518TIP3    H126113   2.621   0.342   1.333 -1.9302 -3.1550 -2.0254
 1518TIP3    H226114   2.742   0.256   1.300  2.9280  1.7138  1.4134
 1519TIP3   OH226115   6.620   2.509   0.168 -0.0676 -0.0459  0.1255
 1519TIP3    H126116   6.531   2.497   0.201  0.1442 -1.0338  0.3817
 1519TIP3    H226117   6.665   2.427   0.190 -0.0567 -1.0721 -3.1581
 1520TIP3   OH226118   5.137   6.791   1.105  0.3950  0.0418 -0.1738
 1520TIP3    H126119   5.204   6.723   1.100  0.0607 -0.3876  0.8665
 1520TIP3    H226120   5.168   6.850   1.174 -1.2182 -1.2447  1.7504
 1521TIP3   OH226121   6.220   0.880   7.342 -0.3705  0.3647  0.1238
 1521TIP3    H126122   6.226   0.957   7.286 -1.5362  1.2482  1.1551
 1521TIP3    H226123   6.298   0.884   7.397  0.3948 -0.1020 -0.8969
 1522TIP3   OH226124   2.646   1.247   5.951 -0.0829 -0.4731  0.2804
 1522TIP3    H126125   2.739   1.246   5.975  0.1391 -1.8861 -0.4843
 1522TIP3    H226126   2.639   1.179   5.884 -1.4862  0.3246 -0.4143
 1523TIP3   OH226127   2.416   2.896   8.330  0.3004  0.6194  0.0479
 1523TIP3    H126128   2.471   2.911   8.407 -0.7893  0.1979  0.9237
 1523TIP3    H226129   2.391   2.804   8.336 -0.0282  0.6562 -0.6645
 1524TIP3   OH226130   3.529   4.822   0.503 -0.1440  0.0593 -0.4409
 1524TIP3    H126131   3.507   4.731   0.522 -1.3457  0.1726 -1.2318
 1524TIP3    H226132   3.517   4.831   0.408  0.1297  0.9963 -0.4032
 1525TIP3   OH226133   5.361   2.118   7.192  0.1417 -0.5324 -0.6395
 1525TIP3    H126134   5.306   2.197   7.193 -0.0056 -0.6242  0.8766
 1525TIP3    H226135   5.332   2.068   7.268  1.3966 -1.2303 -0.5944
 1526TIP3   OH226136   4.007   2.157   0.045 -0.2643  0.1900  0.1901
 1526TIP3    H126137   4.061   2.099   0.098  0.5842  1.2494  0.5361
 1526TIP3    H226138   4.063   2.180  -0.029 -0.8351  0.0229 -0.2923
 1527TIP3   OH226139   3.842   0.326   8.483 -0.2059 -0.7299  0.1753
 1527TIP3    H126140   3.926   0.354   8.520  0.6317 -2.4789 -0.2829
 1527TIP3    H226141   3.859   0.319   8.389 -1.5941  1.2187 -0.2969
 1528TIP3   OH226142   2.951   3.402   2.010  0.2258  0.1030  0.1374
 1528TIP3    H126143   2.990   3.378   2.094 -0.3985  0.1831  0.4523
 1528TIP3    H226144   2.866   3.358   2.009  1.3072 -2.1590 -1.6144
 1529TIP3   OH226145   5.997   1.654   8.168 -0.0688  0.5103 -0.1953
 1529TIP3    H126146   6.030   1.603   8.242 -1.5088 -1.3152 -0.7364
 1529TIP3    H226147   6.074   1.668   8.112  1.1718  2.3807  1.7917
 1530TIP3   OH226148   3.792   2.432   2.337  0.0183 -0.3190  0.2716
 1530TIP3    H126149   3.850   2.361   2.365 -0.2812 -0.8909 -0.5586
 1530TIP3    H226150   3.725   2.436   2.406  0.7970  0.0876  1.0355
 1531TIP3   OH226151   5.296   6.126   1.477 -0.3561  0.1037 -0.2075
 1531TIP3    H126152   5.328   6.103   1.564 -0.5828 -0.8731 -0.3655
 1531TIP3    H226153   5.363   6.094   1.417  0.2339  1.5712 -0.3700
 1532TIP3   OH226154   6.506   3.513   2.266  0.0439 -0.1436 -0.0840
 1532TIP3    H126155   6.572   3.464   2.315  1.6283  1.2598 -0.7259
 1532TIP3    H226156   6.510   3.476   2.178  0.6565  0.5571 -0.3591
 1533TIP3   OH226157   4.606   2.627   8.214 -0.3959  0.3529 -0.0237
 1533TIP3    H126158   4.665   2.604   8.143 -0.5937 -0.3256  0.0209
 1533TIP3    H226159   4.538   2.680   8.173 -0.4930 -0.0113 -0.3388
 1534TIP3   OH226160   5.783   6.657   0.334 -0.3723 -0.2546 -0.2096
 1534TIP3    H126161   5.846   6.588   0.355  1.2938  2.0848  3.4740
 1534TIP3    H226162   5.836   6.725   0.292 -0.0478  1.9497  3.3590
 1535TIP3   OH226163   4.650   2.147   8.272 -0.0665 -0.2174  0.9566
 1535TIP3    H126164   4.565   2.184   8.297 -0.1710  0.7758 -0.7217
 1535TIP3    H226165   4.654   2.157   8.177  2.7362  1.5940  1.1330
 1536TIP3   OH226166   2.648   2.985   7.016 -0.1157 -0.0790 -0.7507
 1536TIP3    H126167   2.614   3.055   6.960  0.3576 -0.1401 -1.1136
 1536TIP3    H226168   2.635   2.905   6.965 -0.2825 -0.2146 -0.5013
 1537TIP3   OH226169   0.695   1.728   8.140 -0.9051 -0.0511  0.2360
 1537TIP3    H126170   0.682   1.755   8.049  0.8319 -0.1238 -0.0696
 1537TIP3    H226171   0.720   1.636   8.134  0.0681  0.1718  0.7035
 1538TIP3   OH226172   5.227   2.629   7.539  0.2150  0.1449  0.0272
 1538TIP3    H126173   5.245   2.710   7.587 -0.4560  0.3452 -0.0466
 1538TIP3    H226174   5.215   2.563   7.608  0.0381  0.2652  0.1122
 1539TIP3   OH226175   4.474   0.736   7.790  0.0847 -0.1201 -0.1341
 1539TIP3    H126176   4.475   0.641   7.804 -0.0605 -0.0055  0.6583
 1539TIP3    H226177   4.565   0.762   7.802  0.1484 -0.1719 -0.4847
 1540TIP3   OH226178   1.369   4.401   0.585 -0.4829  0.1005 -0.0927
 1540TIP3    H126179   1.328   4.419   0.501 -1.5144 -0.1161  0.3481
 1540TIP3    H226180   1.393   4.487   0.619 -0.6756  0.2401 -0.3093
 1541TIP3   OH226181   6.419   0.200   7.452  0.3883 -0.0640 -0.4024
 1541TIP3    H126182   6.477   0.124   7.454 -0.2722 -0.5693 -0.0073
 1541TIP3    H226183   6.457   0.262   7.515 -1.6516 -2.0290  3.0292
 1542TIP3   OH226184   0.437   2.974   7.462 -0.5994 -0.7177 -0.4192
 1542TIP3    H126185   0.448   3.049   7.403 -0.1269 -0.0446  0.5029
 1542TIP3    H226186   0.342   2.968   7.476 -0.6596 -0.4584 -0.7065
 1543TIP3   OH226187   2.165   3.352   7.406 -0.1780  0.2597 -0.1779
 1543TIP3    H126188   2.086   3.406   7.401  0.8554  1.9565  0.7271
 1543TIP3    H226189   2.170   3.309   7.320 -1.5512  0.8605 -0.5918
 1544TIP3   OH226190   2.700   2.487   0.361  0.0950 -0.1442 -0.1767
 1544TIP3    H126191   2.650   2.425   0.308  1.3609 -1.7940  0.4520
 1544TIP3    H226192   2.646   2.502   0.439  0.1666 -1.2100  0.0917
 1545TIP3   OH226193   2.393   4.902   7.922 -0.1572  0.5568  0.4261
 1545TIP3    H126194   2.410   4.850   7.843 -0.2828  0.7346  0.2806
 1545TIP3    H226195   2.480   4.922   7.957 -0.0917  0.7530  0.1510
 1546TIP3   OH226196   0.045   2.546   7.397  0.4542  0.4958  0.4477
 1546TIP3    H126197   0.106   2.597   7.344  1.3014  0.1277  1.0538
 1546TIP3    H226198  -0.026   2.523   7.337  2.4970 -1.9427 -1.2627
 1547TIP3   OH226199   5.452   5.821   7.225 -0.2447  0.2500 -0.5866
 1547TIP3    H126200   5.404   5.800   7.305 -0.2743  2.8142  0.1512
 1547TIP3    H226201   5.398   5.786   7.155 -0.3122 -1.8861  0.4393
 1548TIP3   OH226202   5.518   6.316   2.747  0.4180  0.2769  0.1321
 1548TIP3    H126203   5.517   6.369   2.668  1.0369  0.3217  0.1488
 1548TIP3    H226204   5.574   6.364   2.808  0.6215 -0.1640  0.3032
 1549TIP3   OH226205   0.193   3.833   6.757 -0.2795  0.2296  0.0851
 1549TIP3    H126206   0.118   3.889   6.735 -0.8209 -0.3806  0.3306
 1549TIP3    H226207   0.154   3.747   6.775  0.5445 -0.2676 -0.4290
 1550TIP3   OH226208   1.090   5.313   1.507 -0.1290 -0.4687 -0.0615
 1550TIP3    H126209   0.997   5.320   1.485 -0.0845 -0.9320 -0.4199
 1550TIP3    H226210   1.124   5.246   1.447  0.7830  0.8053 -1.0367
 1551TIP3   OH226211   1.752   1.335   0.370  0.3051 -0.0436 -0.2682
 1551TIP3    H126212   1.714   1.273   0.431 -0.3840  1.4103  0.8415
 1551TIP3    H226213   1.844   1.340   0.394 -0.4013  2.4811  2.5773
 1552TIP3   OH226214   2.750   5.570   7.311  0.2703 -0.0603 -0.0590
 1552TIP3    H126215   2.717   5.558   7.222  2.0710  1.0032 -0.9320
 1552TIP3    H226216   2.680   5.616   7.357 -0.1571  0.5890 -1.3259
 1553TIP3   OH226217   5.746   3.751   0.959  0.0049  0.2878  0.0886
 1553TIP3    H126218   5.706   3.835   0.981  2.0181  2.0998 -2.4556
 1553TIP3    H226219   5.746   3.749   0.863  2.1403 -1.5168  0.0420
 1554TIP3   OH226220   2.701   3.544   7.975 -0.2379 -0.0960  0.1556
 1554TIP3    H126221   2.727   3.465   8.021 -1.6357 -1.0376 -0.6063
 1554TIP3    H226222   2.671   3.513   7.889 -0.9926  1.2321 -0.0840
 1555TIP3   OH226223   1.820   5.302   1.036 -0.0959  0.2579  0.2152
 1555TIP3    H126224   1.803   5.297   0.942 -0.6501  1.1852  0.2532
 1555TIP3    H226225   1.914   5.291   1.044 -0.0469  0.1502 -0.4488
 1556TIP3   OH226226   6.858   1.597   0.099 -0.3423 -0.1095  0.1656
 1556TIP3    H126227   6.905   1.525   0.138 -0.4820 -1.4464 -1.9517
 1556TIP3    H226228   6.925   1.663   0.080  0.7214 -1.7682 -2.3427
 1557TIP3   OH226229   5.143   5.486   0.731  0.6395  1.0048  0.1765
 1557TIP3    H126230   5.225   5.449   0.699  0.0502 -0.5278  0.3662
 1557TIP3    H226231   5.118   5.430   0.804 -1.7238 -0.0197 -1.3137
 1558TIP3   OH226232   5.380   4.488   0.090  0.0791 -0.4104 -0.6072
 1558TIP3    H126233   5.307   4.484   0.152  0.5805  2.7379  0.3814
 1558TIP3    H226234   5.368   4.412   0.033 -3.6407 -0.3517 -0.1375
 1559TIP3   OH226235   4.565   1.215   8.485  0.3947  0.4840  0.5572
 1559TIP3    H126236   4.531   1.259   8.563 -0.4968  0.8075 -0.0052
 1559TIP3    H226237   4.617   1.281   8.441  1.6008  0.0618  1.2869
 1560TIP3   OH226238   6.824   5.635   8.313 -0.3357  0.0948  0.3826
 1560TIP3    H126239   6.768   5.573   8.360 -0.9522  0.2660 -0.1188
 1560TIP3    H226240   6.912   5.615   8.343 -0.7861  0.8753  2.4338
 1561TIP3   OH226241   6.271   5.407   7.636 -0.6967 -0.0954 -0.3138
 1561TIP3    H126242   6.309   5.480   7.684  1.6008 -1.4027 -0.0159
 1561TIP3    H226243   6.235   5.351   7.705  0.9778 -1.0742 -0.1802
 1562TIP3   OH226244   5.789   6.376   8.016 -0.2066  0.0007  0.2797
 1562TIP3    H126245   5.820   6.316   8.084 -1.5635  0.6356  1.4970
 1562TIP3    H226246   5.694   6.374   8.023 -0.2894  2.9231  0.9353
 1563TIP3   OH226247   6.465   3.345   7.205 -0.3550  0.3970  0.4995
 1563TIP3    H126248   6.392   3.404   7.226 -0.0495  1.2759 -0.8009
 1563TIP3    H226249   6.540   3.403   7.193  0.4823 -0.4585  1.3717
 1564TIP3   OH226250   1.370   6.580   0.090  0.1923 -0.5111  0.1176
 1564TIP3    H126251   1.381   6.668   0.054 -1.1466  0.5037  1.9763
 1564TIP3    H226252   1.455   6.538   0.079  0.5689  0.6439 -1.7262
 1565TIP3   OH226253   0.441   3.492   8.323  0.0888 -0.0917  0.2959
 1565TIP3    H126254   0.412   3.464   8.236 -0.0577 -0.1487  0.3631
 1565TIP3    H226255   0.399   3.576   8.336 -0.4282 -0.3921  0.5905
 1566TIP3   OH226256   0.257   4.819   8.549 -0.3484  0.3364  0.2269
 1566TIP3    H126257   0.216   4.881   8.610  1.0904  0.1256  1.4540
 1566TIP3    H226258   0.211   4.736   8.566 -0.5478  0.4790  0.3983
 1567TIP3   OH226259   5.849   4.005   8.374 -0.0599 -0.3602 -0.0922
 1567TIP3    H126260   5.796   4.082   8.393 -2.1478 -1.8084  0.2820
 1567TIP3    H226261   5.804   3.963   8.301 -0.6517 -2.7141  1.5304
 1568TIP3   OH226262   1.721   1.898   6.484  0.0606 -0.3974 -0.0886
 1568TIP3    H126263   1.739   1.945   6.403 -0.8705  0.3532  0.1356
 1568TIP3    H226264   1.707   1.966   6.549  1.6227 -0.9832  0.9141
 1569TIP3   OH226265   5.907   4.305   7.095  0.6680  0.3686 -0.2666
 1569TIP3    H126266   5.848   4.290   7.020  0.2268 -1.6954  0.4201
 1569TIP3    H226267   5.981   4.353   7.058  0.9219 -1.4145 -2.2843
 1570TIP3   OH226268   1.249   5.558   0.198  0.2252  0.5572 -0.4630
 1570TIP3    H126269   1.213   5.576   0.111  0.8309  0.2414 -0.7905
 1570TIP3    H226270   1.323   5.499   0.181 -0.3877 -0.4908  0.3750
 1571TIP3   OH226271   6.092   0.680   0.014  0.0157 -0.2783 -0.2806
 1571TIP3    H126272   6.019   0.652  -0.039  0.1162 -0.3188 -0.3979
 1571TIP3    H226273   6.088   0.625   0.093  0.6196 -1.1120 -0.8126
 1572TIP3   OH226274   0.586   1.511   0.812 -0.1861  0.3845  0.0903
 1572TIP3    H126275   0.550   1.529   0.899  0.4244  2.4651 -0.0404
 1572TIP3    H226276   0.556   1.584   0.758  0.1654 -0.4275 -1.2476
 1573TIP3   OH226277   0.831   3.897   1.498 -0.3810 -0.0743  0.4351
 1573TIP3    H126278   0.847   3.862   1.586  0.3026 -0.6694  0.0795
 1573TIP3    H226279   0.739   3.924   1.500 -0.5734 -0.7297  1.1146
 1574TIP3   OH226280   6.683   6.341   1.983 -0.0847  0.0307  0.3325
 1574TIP3    H126281   6.596   6.328   1.945  0.4907 -0.3155 -0.9179
 1574TIP3    H226282   6.667   6.388   2.065 -1.5694 -1.4003  0.9061
 1575TIP3   OH226283   4.481   2.151   7.678 -0.4433  0.2708  0.4920
 1575TIP3    H126284   4.522   2.093   7.743 -2.3100 -1.7965 -0.0694
 1575TIP3    H226285   4.494   2.239   7.713  2.0875 -0.4666  1.6350
 1576TIP3   OH226286   3.920   4.740   8.344 -0.0943 -0.2584 -0.0702
 1576TIP3    H126287   3.939   4.653   8.309 -1.0298 -0.4699 -0.0689
 1576TIP3    H226288   3.844   4.770   8.295 -1.1606 -0.3756  1.4461
 1577TIP3   OH226289   5.610   4.509   2.212  0.0650 -0.2087  0.3623
 1577TIP3    H126290   5.629   4.497   2.305 -1.0549 -0.8983  0.5291
 1577TIP3    H226291   5.616   4.603   2.197 -3.4870  0.4179  2.0482
 1578TIP3   OH226292   4.796   4.496   1.881 -0.3560 -0.2116  0.0993
 1578TIP3    H126293   4.825   4.417   1.928  1.3128  0.1413 -0.2878
 1578TIP3    H226294   4.768   4.556   1.951 -1.5665 -1.0834  0.4029
 1579TIP3   OH226295   5.046   5.847   7.625  0.0764  0.3588  0.0494
 1579TIP3    H126296   5.128   5.800   7.636  1.1499  1.8880 -0.9287
 1579TIP3    H226297   5.019   5.869   7.714  1.4558  0.9689  0.3544
 1580TIP3   OH226298   2.196   6.598   7.902  0.4360  0.2042 -0.5061
 1580TIP3    H126299   2.217   6.659   7.831  0.7449 -0.9456 -1.4330
 1580TIP3    H226300   2.277   6.549   7.915 -0.5144 -1.7178 -1.5150
 1581TIP3   OH226301   4.596   6.194   2.180  0.1429  0.2063 -0.0518
 1581TIP3    H126302   4.646   6.259   2.230  0.2607 -0.4705  0.7184
 1581TIP3    H226303   4.653   6.117   2.176 -0.8275 -0.5930  0.8680
 1582TIP3   OH226304   2.491   5.900   7.182 -0.5659  0.6285  0.5482
 1582TIP3    H126305   2.525   5.887   7.093 -1.9689  0.6439 -0.0168
 1582TIP3    H226306   2.471   5.812   7.213 -0.6957  0.6711  0.5872
 1583TIP3   OH226307   3.600   4.170   0.171  0.6174  0.0636  0.6556
 1583TIP3    H126308   3.531   4.105   0.185 -1.0331  1.5908  0.0579
 1583TIP3    H226309   3.666   4.125   0.119 -0.8239 -0.9526 -0.3751
 1584TIP3   OH226310   4.142   1.491   0.065  0.6116  0.0291  0.3028
 1584TIP3    H126311   4.054   1.488   0.103  1.4611  1.0283  2.4627
 1584TIP3    H226312   4.165   1.399   0.053 -0.0447 -0.3015  1.4143
 1585TIP3   OH226313   4.877   6.555   7.933 -0.8512 -0.2925  0.1807
 1585TIP3    H126314   4.811   6.577   7.999 -1.0922 -1.7811  0.4742
 1585TIP3    H226315   4.924   6.480   7.970  2.5446  1.9702  1.0113
 1586TIP3   OH226316   6.420   6.439   1.845  0.2401  0.3341  0.0421
 1586TIP3    H126317   6.416   6.535   1.854  0.0355  0.5536 -2.0714
 1586TIP3    H226318   6.329   6.413   1.827  0.6115  0.0180 -1.5174
 1587TIP3   OH226319   4.846   6.390   6.911 -0.4286  0.3989  0.5117
 1587TIP3    H126320   4.796   6.335   6.971 -0.0931 -3.7163 -2.6045
 1587TIP3    H226321   4.936   6.358   6.918  0.1332  1.7059 -0.2831
 1588TIP3   OH226322   2.377   3.021   1.456  0.0593 -0.7560 -0.1610
 1588TIP3    H126323   2.288   2.992   1.477 -0.2268  0.5766  0.5832
 1588TIP3    H226324   2.366   3.083   1.384  0.2082  0.4695  0.8364
 1589TIP3   OH226325   0.918   5.608   7.061 -0.0600 -0.1492 -0.4494
 1589TIP3    H126326   1.003   5.639   7.092 -0.1307  0.7137 -1.0769
 1589TIP3    H226327   0.936   5.577   6.972 -0.4500  0.3048 -0.6895
 1590TIP3   OH226328   1.958   5.358   0.473 -0.7140 -0.2322  0.4249
 1590TIP3    H126329   1.892   5.293   0.450 -0.1746 -0.7482  0.3190
 1590TIP3    H226330   1.962   5.356   0.569  1.8846 -3.0625  0.4368
 1591TIP3   OH226331   2.471   3.990   7.273  0.0192  0.0064 -0.4834
 1591TIP3    H126332   2.510   3.938   7.344  0.3285  0.9285  0.0462
 1591TIP3    H226333   2.385   3.950   7.258 -0.6306  0.5954  1.3532
 1592TIP3   OH226334   3.388   3.788   6.264 -0.8378 -0.2558  0.1057
 1592TIP3    H126335   3.353   3.737   6.192 -2.8108  0.8742  0.2025
 1592TIP3    H226336   3.426   3.865   6.222 -0.3146 -0.4769  0.1620
 1593TIP3   OH226337   5.285   2.005   7.432  0.7703  0.4831  0.2213
 1593TIP3    H126338   5.303   2.030   7.522 -0.6919  2.3611  0.0494
 1593TIP3    H226339   5.198   2.040   7.414  0.6745 -0.5803 -1.6601
 1594TIP3   OH226340   4.056   5.013   1.597  0.0951 -0.6569 -0.0856
 1594TIP3    H126341   4.121   4.944   1.584 -0.3970 -1.0407 -0.5598
 1594TIP3    H226342   4.075   5.049   1.683 -0.4686 -2.2867  0.7612
 1595TIP3   OH226343   1.173   5.141   8.556  0.2917  0.3536  0.0978
 1595TIP3    H126344   1.253   5.115   8.511  0.7006 -0.5992  1.3122
 1595TIP3    H226345   1.139   5.213   8.504  0.8404 -0.5534 -1.5891
 1596TIP3   OH226346   5.801   6.378   8.396  0.1863  0.0482 -0.7716
 1596TIP3    H126347   5.851   6.339   8.324  0.6220 -2.2212  0.6517
 1596TIP3    H226348   5.710   6.356   8.376  0.2788 -0.3291 -0.7944
 1597TIP3   OH226349   6.086   1.694   6.933 -0.4751  0.2128  0.0589
 1597TIP3    H126350   6.008   1.723   6.980  0.6647  1.3534  1.3325
 1597TIP3    H226351   6.127   1.775   6.902 -0.8246 -0.4664 -2.4122
 1598TIP3   OH226352   1.436   2.722   1.198  0.0363  0.1777  0.8443
 1598TIP3    H126353   1.398   2.809   1.202  1.6792  1.0979 -1.3763
 1598TIP3    H226354   1.422   2.694   1.107 -0.8123 -2.0963  1.5911
 1599TIP3   OH226355   2.748   1.403   8.018  0.2939  0.1965 -0.0738
 1599TIP3    H126356   2.843   1.414   8.011  0.0354  1.4756 -2.3602
 1599TIP3    H226357   2.723   1.356   7.938 -1.0792  0.4858  0.1615
 1600TIP3   OH226358   5.937   6.432   0.308 -0.2191  0.1823 -0.1326
 1600TIP3    H126359   5.893   6.410   0.226 -0.4026  0.0087  0.0129
 1600TIP3    H226360   5.893   6.379   0.374 -0.5545  0.8600  0.1958
 1601TIP3   OH226361   2.763   5.942   7.766  0.4259  0.0160  0.0331
 1601TIP3    H126362   2.824   5.991   7.712 -0.1876  2.3210  1.3134
 1601TIP3    H226363   2.819   5.893   7.827  1.0370  1.3559  0.5731
 1602TIP3   OH226364   0.201   4.538   0.040 -0.2839  0.0963 -0.1367
 1602TIP3    H126365   0.294   4.518   0.025 -0.3322  1.5146 -3.0186
 1602TIP3    H226366   0.192   4.537   0.135  2.6105 -0.4215  0.2378
 1603TIP3   OH226367   6.351   3.799   1.452  0.0016  0.1612  0.4835
 1603TIP3    H126368   6.318   3.820   1.539 -1.3208 -0.9788  0.2983
 1603TIP3    H226369   6.294   3.847   1.392  0.5618  0.5116  0.2258
 1604TIP3   OH226370   5.035   5.499   0.482 -0.1360 -0.4526 -0.0383
 1604TIP3    H126371   5.090   5.548   0.421 -0.3264 -0.3715 -0.1465
 1604TIP3    H226372   5.085   5.497   0.564  0.4592 -1.2152 -0.4128
 1605TIP3   OH226373   4.677   3.204   6.485 -0.4185 -0.0368  0.5733
 1605TIP3    H126374   4.663   3.283   6.537  0.9478  0.0386  0.8717
 1605TIP3    H226375   4.714   3.141   6.546  1.3799  0.1145 -0.2676
 1606TIP3   OH226376   3.812   0.188   1.330 -0.0968  0.5944 -0.3479
 1606TIP3    H126377   3.848   0.263   1.378  1.5689 -0.2390 -0.2061
 1606TIP3    H226378   3.888   0.133   1.311 -1.3229 -1.3461  0.0396
 1607TIP3   OH226379   3.478   0.404   0.513  0.0832  0.7492 -0.7510
 1607TIP3    H126380   3.450   0.485   0.557  1.6253 -0.7030  3.4161
 1607TIP3    H226381   3.571   0.419   0.494  1.3503 -0.9129  3.1055
 1608TIP3   OH226382   1.769   1.569   1.404  0.3117  0.3398  0.2349
 1608TIP3    H126383   1.763   1.658   1.370 -0.6017  1.2127  2.5122
 1608TIP3    H226384   1.828   1.576   1.479  0.4386 -1.0557  0.2906
 1609TIP3   OH226385   3.641   5.873   6.406 -0.6376 -0.8206  0.0520
 1609TIP3    H126386   3.689   5.883   6.324  0.5215  0.6583  0.8608
 1609TIP3    H226387   3.600   5.787   6.399 -3.4581  0.5355 -3.5331
 1610TIP3   OH226388   3.941   4.236   8.508  0.2052 -0.3981  0.2347
 1610TIP3    H126389   3.933   4.176   8.434 -1.8142 -0.5084  0.4876
 1610TIP3    H226390   3.966   4.319   8.468  0.0867 -0.6798 -0.4487
 1611TIP3   OH226391   4.051   4.302   7.828  0.3807 -0.0618 -0.3119
 1611TIP3    H126392   4.036   4.230   7.767 -0.9647 -0.8023  0.8366
 1611TIP3    H226393   4.146   4.311   7.831  0.5235 -0.9829 -1.3799
 1612TIP3   OH226394   3.830   2.363   1.018 -0.4926  0.0744 -0.0485
 1612TIP3    H126395   3.739   2.392   1.029 -0.5075  0.6900 -1.5297
 1612TIP3    H226396   3.824   2.290   0.955 -0.0405 -0.4854  0.5435
 1613TIP3   OH226397   3.694   5.794   1.467 -0.0126  0.1032 -0.0841
 1613TIP3    H126398   3.786   5.778   1.487  0.1990  0.7238 -0.5267
 1613TIP3    H226399   3.649   5.714   1.494  0.5836 -0.0035  0.6217
 1614TIP3   OH226400   4.691   4.704   1.476  0.0235  0.2383  0.5541
 1614TIP3    H126401   4.776   4.670   1.448 -1.4401 -2.9624 -0.5855
 1614TIP3    H226402   4.675   4.779   1.419  1.4812  0.0577 -0.1384
 1615TIP3   OH226403   0.276   4.120   6.690 -0.1599 -0.0077 -0.0180
 1615TIP3    H126404   0.277   4.152   6.780  1.3415  0.9571 -0.3270
 1615TIP3    H226405   0.236   4.192   6.640  0.2905  0.0519 -0.2966
 1616TIP3   OH226406   0.071   5.244   0.154 -0.0931  0.0082  0.0239
 1616TIP3    H126407   0.163   5.228   0.170 -0.9549 -2.4074  3.5143
 1616TIP3    H226408   0.052   5.326   0.200  0.0598 -0.2203  0.4976
 1617TIP3   OH226409   2.955   1.022   7.706  0.2122  0.5950 -0.1557
 1617TIP3    H126410   2.984   1.030   7.797  1.7686 -1.8564 -0.3245
 1617TIP3    H226411   2.891   0.951   7.708  3.4312 -2.6744 -1.3794
 1618TIP3   OH226412   1.938   6.461   0.575  0.6854 -0.6063 -0.2202
 1618TIP3    H126413   1.858   6.414   0.600  0.6523 -1.0867 -1.1611
 1618TIP3    H226414   1.921   6.552   0.598 -0.9193 -0.3567 -2.1413
 1619TIP3   OH226415   4.042   4.808   7.353 -0.0242 -0.0787 -0.0695
 1619TIP3    H126416   4.027   4.724   7.397  0.1930 -0.4352 -0.6649
 1619TIP3    H226417   4.111   4.789   7.289 -0.2711  0.4588 -0.4930
 1620TIP3   OH226418   5.513   4.651   8.441  0.1003  0.5665 -0.4490
 1620TIP3    H126419   5.538   4.738   8.412  0.5914  0.2327 -1.0577
 1620TIP3    H226420   5.596   4.606   8.457 -0.1522  0.3321  0.2398
 1621TIP3   OH226421   4.436   1.236   1.169  0.0264  0.4982  0.4858
 1621TIP3    H126422   4.501   1.178   1.209 -1.1218 -0.2694  1.3020
 1621TIP3    H226423   4.452   1.322   1.209  1.6428  0.7574 -0.6235
 1622TIP3   OH226424   5.839   0.206   8.498  0.1433  0.0925  0.3508
 1622TIP3    H126425   5.775   0.227   8.430  0.6637  1.6823  0.3014
 1622TIP3    H226426   5.801   0.133   8.546 -0.6680 -0.4404 -1.0589
 1623TIP3   OH226427   3.639   0.423   8.068  0.0709  0.3251  0.2082
 1623TIP3    H126428   3.674   0.349   8.019 -0.5878 -0.4637  0.8951
 1623TIP3    H226429   3.615   0.386   8.154 -1.1169  1.1146  0.2447
 1624TIP3   OH226430   4.857   2.568   8.478 -0.2312 -0.3675 -0.2606
 1624TIP3    H126431   4.815   2.482   8.487  2.3395 -1.6996 -0.1036
 1624TIP3    H226432   4.859   2.603   8.567 -0.8627 -0.3341 -0.2521
 1625TIP3   OH226433   0.912   1.033   7.008 -0.2382  0.1857 -0.0538
 1625TIP3    H126434   0.999   1.050   7.045 -0.0893  0.3767 -0.4794
 1625TIP3    H226435   0.919   1.064   6.918 -0.6780 -0.0223 -0.1586
 1626TIP3   OH226436   4.118   4.562   7.923 -0.6576  0.1365 -0.0275
 1626TIP3    H126437   4.062   4.493   7.889  0.1438 -0.5565  0.0094
 1626TIP3    H226438   4.123   4.627   7.853 -0.5477 -0.3719 -0.4982
 1627TIP3   OH226439   3.331   0.598   1.277 -0.5618 -1.0762 -0.1962
 1627TIP3    H126440   3.395   0.669   1.273 -1.1977 -0.4957 -0.1262
 1627TIP3    H226441   3.382   0.520   1.256  0.3473 -0.7377  0.6224
 1628TIP3   OH226442   1.110   6.487   0.092 -0.4013  0.3758  0.3298
 1628TIP3    H126443   1.199   6.520   0.103  0.5761 -1.4264 -1.3757
 1628TIP3    H226444   1.077   6.477   0.181  0.7676  1.9091  0.9764
 1629TIP3   OH226445   0.645   3.298   1.589  0.6277 -0.0891 -0.2240
 1629TIP3    H126446   0.654   3.335   1.501 -3.8065  2.8323  0.2484
 1629TIP3    H226447   0.602   3.214   1.575 -0.3070  0.4862 -0.8899
 1630TIP3   OH226448   2.061   5.473   6.922  0.1373 -0.4502 -0.1438
 1630TIP3    H126449   2.116   5.396   6.939 -0.0941 -0.9887 -1.6336
 1630TIP3    H226450   1.972   5.439   6.917 -0.0131 -0.0284 -0.4327
 1631TIP3   OH226451   2.912   0.318   1.570  0.2117  0.4559 -0.4940
 1631TIP3    H126452   3.001   0.286   1.559  0.8378  1.2462  1.8056
 1631TIP3    H226453   2.860   0.239   1.585  0.8702  0.1159  0.0495
 1632TIP3   OH226454   4.228   0.853   0.656  0.2477 -0.2821 -0.1878
 1632TIP3    H126455   4.284   0.915   0.610 -1.3072 -0.2088 -2.1151
 1632TIP3    H226456   4.145   0.900   0.669 -0.2183 -1.2053  0.2802
 1633TIP3   OH226457   0.943   2.334   0.003  0.3937 -0.4345 -0.3190
 1633TIP3    H126458   0.908   2.300   0.085  0.1509 -0.6385 -0.5037
 1633TIP3    H226459   0.883   2.300  -0.064  1.0697 -0.9718 -0.6662
 1634TIP3   OH226460   4.335   6.711   7.560 -0.7615  0.3415 -0.1531
 1634TIP3    H126461   4.398   6.649   7.523 -2.8989 -1.5370 -0.8514
 1634TIP3    H226462   4.330   6.688   7.653  0.2335  1.1349  0.1162
 1635TIP3   OH226463   3.259   2.479   0.784 -0.3252  0.6723  0.0071
 1635TIP3    H126464   3.286   2.557   0.736 -0.7259  0.1593 -1.1128
 1635TIP3    H226465   3.164   2.476   0.773 -0.2175 -0.4785 -0.8057
 1636TIP3   OH226466   0.194   4.588   8.267  0.6097 -0.0219 -0.0570
 1636TIP3    H126467   0.130   4.632   8.324  1.0963  1.3499 -0.5247
 1636TIP3    H226468   0.228   4.516   8.321  0.5861  0.8465  1.1684
 1637TIP3   OH226469   1.064   0.002   1.183 -0.2516  0.3448 -0.1507
 1637TIP3    H126470   1.124   0.038   1.248 -0.9995  1.2901  0.0445
 1637TIP3    H226471   1.044   0.075   1.125 -1.2128  0.0738 -0.1918
 1638TIP3   OH226472   1.176   2.280   8.546  0.2401 -0.3084 -0.2651
 1638TIP3    H126473   1.246   2.281   8.611  1.3060  0.7449 -1.3545
 1638TIP3    H226474   1.096   2.291   8.597  0.9609 -0.3907  0.9345
 1639TIP3   OH226475   4.219   0.051   6.640  0.4739  0.5233  0.3654
 1639TIP3    H126476   4.194   0.087   6.725  1.3564  0.1094  0.8176
 1639TIP3    H226477   4.202   0.121   6.577  0.9726  1.2643  1.0558
 1640TIP3   OH226478   4.554   6.774   8.613 -0.2022  0.0411 -0.1078
 1640TIP3    H126479   4.583   6.807   8.528  0.4692  0.3647  0.2421
 1640TIP3    H226480   4.558   6.850   8.671  2.4614 -0.8356  0.9866
 1641TIP3   OH226481   5.977   0.486   1.869 -0.2465 -0.3130  0.3267
 1641TIP3    H126482   5.978   0.412   1.809 -1.7397 -0.6485  0.6788
 1641TIP3    H226483   5.951   0.448   1.953  0.5604  0.3607  0.8992
 1642TIP3   OH226484   3.876   1.266   7.566  0.9951  0.0434 -0.0153
 1642TIP3    H126485   3.955   1.213   7.554  0.2416 -1.1225  0.0991
 1642TIP3    H226486   3.866   1.273   7.661  1.7255  1.3895 -0.0073
 1643TIP3   OH226487   1.286   2.095   8.380 -0.1305 -0.2186 -0.0942
 1643TIP3    H126488   1.264   2.168   8.438  0.1084  0.9269 -1.3881
 1643TIP3    H226489   1.343   2.039   8.433  1.1003  1.4297  0.4010
 1644TIP3   OH226490   3.573   1.560   0.779 -0.1674 -0.0549 -0.5014
 1644TIP3    H126491   3.641   1.623   0.758 -1.3517  1.1796 -0.7840
 1644TIP3    H226492   3.606   1.513   0.855  1.0928  0.3318 -0.7792
 1645TIP3   OH226493   2.398   5.346   7.780 -0.0150 -0.3123  0.6156
 1645TIP3    H126494   2.379   5.328   7.872 -0.9830 -2.8109  0.0194
 1645TIP3    H226495   2.471   5.288   7.760  1.5315  1.6685  0.2512
 1646TIP3   OH226496   5.041   5.108   0.160 -0.0524  0.0863 -0.2592
 1646TIP3    H126497   5.122   5.118   0.209  1.0481 -1.7214 -1.5731
 1646TIP3    H226498   4.998   5.194   0.166  0.4342  0.2367  2.9828
 1647TIP3   OH226499   6.288   6.773   1.314  0.2276 -0.3317 -0.1830
 1647TIP3    H126500   6.288   6.678   1.324 -0.3821 -0.5352 -1.7524
 1647TIP3    H226501   6.304   6.786   1.221  0.9458  1.1304  0.1325
 1648TIP3   OH226502   2.598   4.544   2.361 -0.0844  0.7032  0.0892
 1648TIP3    H126503   2.666   4.611   2.372  0.9056 -0.0938 -1.0294
 1648TIP3    H226504   2.632   4.468   2.409 -0.6871  0.6466  0.4262
 1649TIP3   OH226505   1.873   0.081   1.431 -0.2527 -0.1170  0.4806
 1649TIP3    H126506   1.782   0.091   1.404  0.0236 -1.7996 -1.2848
 1649TIP3    H226507   1.899   0.168   1.462 -1.5617  1.2211 -1.9055
 1650TIP3   OH226508   4.018   0.384   0.015 -0.1226 -0.0784 -0.1649
 1650TIP3    H126509   3.947   0.351   0.071 -0.1251  0.4971  0.1742
 1650TIP3    H226510   4.098   0.348   0.054 -0.1454  0.1102  0.0558
 1651TIP3   OH226511   2.128   3.426   8.388  0.2011  0.5881 -0.0068
 1651TIP3    H126512   2.160   3.398   8.474 -0.4851  0.8778  0.3535
 1651TIP3    H226513   2.134   3.348   8.334 -0.3586  0.1062  0.6003
 1652TIP3   OH226514   5.079   3.150   7.736  0.3283  0.1057  0.0456
 1652TIP3    H126515   5.027   3.071   7.721  0.5454  0.0934 -0.6613
 1652TIP3    H226516   5.032   3.219   7.689  0.4322  0.2910  0.2118
 1653TIP3   OH226517   1.711   5.457   2.132 -0.1867 -0.6100 -0.3069
 1653TIP3    H126518   1.785   5.397   2.120  1.2373  0.8952  0.3865
 1653TIP3    H226519   1.638   5.401   2.156  1.9157 -1.9701  4.0766
 1654TIP3   OH226520   1.456   3.258   7.096 -0.5235 -0.0516  0.0481
 1654TIP3    H126521   1.385   3.194   7.101 -1.9423  1.3432 -1.1854
 1654TIP3    H226522   1.416   3.341   7.122  0.3868  0.9545 -1.5562
 1655TIP3   OH226523   4.160   5.514   0.503 -0.0468 -0.0680  0.4680
 1655TIP3    H126524   4.097   5.545   0.439 -0.0205 -0.0165  0.4672
 1655TIP3    H226525   4.118   5.437   0.542  0.4021 -0.7859 -0.4109
 1656TIP3   OH226526   6.457   0.292   6.978  0.0065  0.0434  0.5981
 1656TIP3    H126527   6.521   0.292   7.049  0.8016  0.8754 -0.0866
 1656TIP3    H226528   6.480   0.216   6.924  1.0974  0.9207 -0.2108
 1657TIP3   OH226529   3.018   1.405   1.024  0.2109  0.3725 -0.0255
 1657TIP3    H126530   2.994   1.323   0.979  1.3729  0.3018 -0.5441
 1657TIP3    H226531   3.002   1.386   1.116  2.8775 -1.4172  0.2070
 1658TIP3   OH226532   5.992   0.371   0.132 -0.2961  0.0863 -0.0841
 1658TIP3    H126533   5.948   0.399   0.051  0.3560 -0.1505 -0.5232
 1658TIP3    H226534   6.069   0.322   0.103 -1.0911 -1.7028  0.6712
 1659TIP3   OH226535   2.302   0.460   6.825 -0.4945  0.2326 -0.1853
 1659TIP3    H126536   2.215   0.424   6.838 -0.7168  1.1462  1.1034
 1659TIP3    H226537   2.292   0.526   6.756 -0.0857 -2.0215 -2.5566
 1660TIP3   OH226538   0.674   1.176   6.955  0.6353  0.0252  0.6041
 1660TIP3    H126539   0.732   1.181   6.879 -1.2097 -1.9147 -1.0722
 1660TIP3    H226540   0.730   1.145   7.026  1.9454 -0.3720 -0.5603
 1661TIP3   OH226541   3.795   5.961   1.813  0.5688 -0.5202  0.1204
 1661TIP3    H126542   3.863   5.909   1.769  1.3847  0.9725 -0.4680
 1661TIP3    H226543   3.826   6.051   1.805 -1.8042  0.2933 -0.7594
 1662TIP3   OH226544   6.256   4.003   2.222 -0.1526  0.1107 -0.1250
 1662TIP3    H126545   6.213   3.917   2.225  0.5419 -0.2630 -0.6461
 1662TIP3    H226546   6.341   3.989   2.263 -0.2270  0.6758  0.2396
 1663TIP3   OH226547   0.850   1.405   0.684  0.2239  1.1707 -0.8845
 1663TIP3    H126548   0.772   1.456   0.709  1.4869  2.2668  1.1121
 1663TIP3    H226549   0.893   1.385   0.767  0.5775 -2.0238 -1.6980
 1664TIP3   OH226550   0.188   3.654   8.636 -0.1536 -0.1317 -0.4410
 1664TIP3    H126551   0.282   3.659   8.652  0.0931 -2.7624 -0.5581
 1664TIP3    H226552   0.177   3.687   8.546  0.7937 -0.5949 -0.7360
 1665TIP3   OH226553   1.957   4.794   8.440 -0.6067  0.2356  0.3858
 1665TIP3    H126554   1.984   4.765   8.353 -1.6287  2.2838 -0.6954
 1665TIP3    H226555   1.979   4.721   8.498  0.1848 -1.1557 -1.5615
 1666TIP3   OH226556   5.300   4.682   0.979 -0.7221 -0.2253  0.9219
 1666TIP3    H126557   5.205   4.670   0.975 -0.8442 -0.5746  3.4519
 1666TIP3    H226558   5.314   4.742   1.053  1.0733 -1.0781  1.3371
 1667TIP3   OH226559   5.155   3.111   0.638 -0.0296 -0.4914 -0.1849
 1667TIP3    H126560   5.195   3.152   0.561  1.2939 -0.1090  0.6720
 1667TIP3    H226561   5.089   3.052   0.602  0.7193 -0.5007 -1.6379
 1668TIP3   OH226562   2.121   5.453   1.794  0.5426  0.0633  0.5068
 1668TIP3    H126563   2.128   5.358   1.809  0.8011  0.1380  0.8816
 1668TIP3    H226564   2.055   5.481   1.858  1.7968  0.4197  1.7015
 1669TIP3   OH226565   6.810   0.353   7.378  0.0088  0.1126 -0.6721
 1669TIP3    H126566   6.801   0.448   7.371  0.0759  0.2405  0.7575
 1669TIP3    H226567   6.895   0.334   7.339  0.9362  0.9024  0.8811
 1670TIP3   OH226568   1.953   1.811   1.520 -0.1700 -0.3177 -0.2640
 1670TIP3    H126569   1.982   1.868   1.590 -0.0633  0.6775 -1.1002
 1670TIP3    H226570   1.987   1.724   1.544 -0.4155 -0.0684  1.0549
 1671TIP3   OH226571   6.674   5.495   8.487  0.2365 -0.2954 -0.0429
 1671TIP3    H126572   6.630   5.577   8.510 -1.1187 -1.0646  0.2192
 1671TIP3    H226573   6.618   5.426   8.524  1.3268 -1.3475 -0.2814
 1672TIP3   OH226574   3.219   5.656   0.841  0.1155  0.1566 -0.5733
 1672TIP3    H126575   3.244   5.736   0.888 -1.1592  0.6059 -0.6150
 1672TIP3    H226576   3.212   5.589   0.910  0.3452  0.2903 -0.4181
 1673TIP3   OH226577   3.143   4.015   7.416 -0.1157 -0.2519  0.4330
 1673TIP3    H126578   3.074   3.982   7.475 -0.2665 -0.6326  0.0483
 1673TIP3    H226579   3.173   3.937   7.369  0.8290 -0.1537  0.8507
 1674TIP3   OH226580   0.099   0.798   0.562  0.1042  0.2787  0.3819
 1674TIP3    H126581   0.064   0.719   0.521 -3.3243  0.8876  1.7711
 1674TIP3    H226582   0.162   0.766   0.627 -0.2771 -1.2425  0.0348
 1675TIP3   OH226583   5.142   2.059   8.504  0.3760 -0.2979 -0.6547
 1675TIP3    H126584   5.154   2.115   8.427  1.3431 -0.6052 -0.7483
 1675TIP3    H226585   5.213   1.994   8.497  0.6832 -0.1236  0.6664
 1676TIP3   OH226586   5.257   1.644   1.173  0.2169 -0.2592 -0.9738
 1676TIP3    H126587   5.300   1.602   1.099 -1.2680  0.8797 -2.5437
 1676TIP3    H226588   5.263   1.738   1.154  1.2387  0.1939  1.1909
 1677TIP3   OH226589   1.033   6.733   7.551 -0.0301 -0.1469  0.0494
 1677TIP3    H126590   1.116   6.686   7.554 -0.1216 -0.2847  0.8310
 1677TIP3    H226591   1.016   6.748   7.458 -1.1706 -3.7682 -0.4623
 1678TIP3   OH226592   6.555   2.770   0.701  0.6136 -1.0086  0.3213
 1678TIP3    H126593   6.484   2.832   0.685  0.8707 -0.8263 -0.1421
 1678TIP3    H226594   6.529   2.723   0.781  0.3303 -0.4320  0.5756
 1679TIP3   OH226595   6.203   4.467   7.271 -0.2137  0.2728  0.7269
 1679TIP3    H126596   6.281   4.519   7.289 -0.0998  0.9313 -1.3700
 1679TIP3    H226597   6.196   4.408   7.345  1.9381  0.6096  1.2683
 1680TIP3   OH226598   5.521   5.760   1.247 -0.0373  0.0154  0.1973
 1680TIP3    H126599   5.515   5.704   1.325  1.4996 -0.0512  0.2942
 1680TIP3    H226600   5.541   5.699   1.176 -0.7938  0.1572 -0.1419
 1681TIP3   OH226601   1.785   2.332   0.764  0.4276 -0.2417 -0.1794
 1681TIP3    H126602   1.832   2.294   0.838 -1.3168 -1.2234  0.4814
 1681TIP3    H226603   1.808   2.425   0.766  1.0063 -0.3984  1.1167
 1682TIP3   OH226604   6.541   3.145   7.867 -0.1325 -0.0229 -0.0002
 1682TIP3    H126605   6.484   3.068   7.872 -1.1644  0.7346  0.0316
 1682TIP3    H226606   6.499   3.203   7.804  0.1223  0.9342  0.6858
 1683TIP3   OH226607   3.350   2.199   7.988  0.4282  0.6956 -0.8520
 1683TIP3    H126608   3.351   2.116   8.035 -0.5714  1.6622  0.9737
 1683TIP3    H226609   3.429   2.197   7.934  1.2495 -0.7808  0.3401
 1684TIP3   OH226610   1.362   1.698   0.804  0.4005 -0.1127  0.4223
 1684TIP3    H126611   1.342   1.745   0.885  1.5115 -1.6227  1.6115
 1684TIP3    H226612   1.281   1.652   0.782 -0.0645  0.7058  0.3572
 1685TIP3   OH226613   2.945   3.961   7.648  0.4592  0.0162  0.1285
 1685TIP3    H126614   2.945   3.993   7.739  0.0445  0.5127 -0.0415
 1685TIP3    H226615   2.864   3.910   7.640  0.0796  0.6533 -0.1885
 1686TIP3   OH226616   6.619   4.171   7.597  0.6500 -0.2800 -0.3941
 1686TIP3    H126617   6.601   4.082   7.627 -1.0049  0.1955  0.1343
 1686TIP3    H226618   6.584   4.175   7.508 -0.1165  0.0937 -0.0821
 1687TIP3   OH226619   3.802   2.041   6.444 -0.4449 -0.3641  0.1231
 1687TIP3    H126620   3.711   2.068   6.450 -0.7184 -0.8172 -1.4040
 1687TIP3    H226621   3.806   1.989   6.363  1.1323 -0.4653  0.2326
 1688TIP3   OH226622   0.141   6.177   7.417 -0.1072 -0.1326 -0.3958
 1688TIP3    H126623   0.128   6.089   7.382 -0.7592 -0.2296  0.0906
 1688TIP3    H226624   0.098   6.235   7.354  1.0810 -0.0706 -1.1886
 1689TIP3   OH226625   5.114   2.847   8.307  0.4716 -0.6542  0.2831
 1689TIP3    H126626   5.109   2.813   8.397  3.1724  0.3588  0.8895
 1689TIP3    H226627   5.171   2.786   8.261  0.2355 -0.3931 -0.3747
 1690TIP3   OH226628   0.374   4.282   0.651  0.0803 -0.3716 -0.3487
 1690TIP3    H126629   0.378   4.288   0.556 -0.3303 -1.3214 -0.4392
 1690TIP3    H226630   0.300   4.223   0.668 -0.4918  0.5712  0.5851
 1691TIP3   OH226631   1.026   2.946   8.613 -0.1450 -0.0331  0.5615
 1691TIP3    H126632   1.011   2.851   8.614  0.4937 -0.1354  0.9408
 1691TIP3    H226633   0.969   2.978   8.543 -0.6327 -0.6502  0.6588
 1692TIP3   OH226634   2.069   0.592   0.977 -0.3671  0.0428  0.3381
 1692TIP3    H126635   2.019   0.516   1.010 -0.7745  0.5386  0.8970
 1692TIP3    H226636   2.002   0.649   0.938  0.0171 -0.1653 -0.6462
 1693TIP3   OH226637   4.062   3.725   0.870 -0.3620 -0.3619 -0.1935
 1693TIP3    H126638   4.150   3.716   0.835  0.2606  0.6063  1.0669
 1693TIP3    H226639   4.071   3.781   0.946 -2.3741  1.5557 -1.2345
 1694TIP3   OH226640   3.199   3.569   6.139  0.1623 -0.4695 -0.5606
 1694TIP3    H126641   3.152   3.491   6.108  0.2638 -0.0286 -1.8695
 1694TIP3    H226642   3.274   3.534   6.186 -0.1387 -1.1631 -0.5760
 1695TIP3   OH226643   4.054   3.641   7.184 -0.2536 -0.2447 -0.5052
 1695TIP3    H126644   4.037   3.690   7.103 -2.0409  0.1052  0.0307
 1695TIP3    H226645   4.078   3.553   7.154 -0.6839 -0.0625 -1.4267
 1696TIP3   OH226646   1.865   6.531   6.624  0.1181 -0.4503  0.2523
 1696TIP3    H126647   1.897   6.593   6.690 -0.6647  1.4343 -1.0515
 1696TIP3    H226648   1.937   6.524   6.561 -0.4074  0.4997 -0.4805
 1697TIP3   OH226649   4.596   1.762   8.197 -0.3370 -0.6388  0.1887
 1697TIP3    H126650   4.519   1.811   8.223  0.5379  0.2107  1.3010
 1697TIP3    H226651   4.626   1.720   8.278  0.6594 -0.5262 -0.1047
 1698TIP3   OH226652   6.187   0.927   7.909 -0.0406 -0.3591 -0.1479
 1698TIP3    H126653   6.149   0.948   7.824 -1.3700 -0.2087  0.4498
 1698TIP3    H226654   6.196   0.832   7.909  1.5140 -0.2401 -1.0567
 1699TIP3   OH226655   3.992   3.714   7.896 -0.0225  0.1135 -0.7568
 1699TIP3    H126656   4.080   3.750   7.887  0.0765  0.0018 -0.2737
 1699TIP3    H226657   3.976   3.713   7.991 -1.0851  1.4072 -0.8979
 1700TIP3   OH226658   6.603   1.188   0.539 -0.1528  0.1887  0.3918
 1700TIP3    H126659   6.520   1.175   0.584  0.0585 -0.6949  0.5471
 1700TIP3    H226660   6.647   1.103   0.545  0.3422  0.3636 -0.5455
 1701TIP3   OH226661   2.265   5.674   8.352 -0.0047 -0.1826  0.0823
 1701TIP3    H126662   2.291   5.622   8.428 -1.5199  0.7098  1.2597
 1701TIP3    H226663   2.172   5.690   8.365  0.3396  2.5578 -0.3975
 1702TIP3   OH226664   5.811   2.136   7.926 -0.7756  0.1536  0.2029
 1702TIP3    H126665   5.867   2.081   7.871 -1.8094  1.3357 -2.1642
 1702TIP3    H226666   5.832   2.225   7.900 -1.8180  0.7243  1.2375
 1703TIP3   OH226667   1.925   2.772   0.516  0.1236  0.3941  0.2454
 1703TIP3    H126668   1.829   2.778   0.522 -0.2463 -1.3077 -2.4298
 1703TIP3    H226669   1.944   2.679   0.525  1.2585  0.3851 -1.7231
 1704TIP3   OH226670   4.744   6.192   0.287 -0.5110 -0.8667 -0.1049
 1704TIP3    H126671   4.793   6.135   0.346 -1.6242 -1.8903 -0.1530
 1704TIP3    H226672   4.740   6.145   0.204  0.9762  0.5264 -1.0375
 1705TIP3   OH226673   5.132   6.314   1.634  0.4601  0.2598 -0.1729
 1705TIP3    H126674   5.190   6.263   1.579  1.9856 -0.6426  2.1091
 1705TIP3    H226675   5.045   6.303   1.594  0.8651 -3.3013 -0.4288
 1706TIP3   OH226676   2.564   4.374   7.035  0.5470 -0.2095 -0.5543
 1706TIP3    H126677   2.632   4.310   7.013 -1.1754 -1.7193 -1.7884
 1706TIP3    H226678   2.529   4.401   6.950 -0.8269  0.0248  0.0661
 1707TIP3   OH226679   1.395   1.975   8.614 -0.6294  0.2829  0.1251
 1707TIP3    H126680   1.405   1.998   8.706 -2.9452 -1.5066  0.9351
 1707TIP3    H226681   1.484   1.959   8.583  0.0894 -1.1464  2.6696
 1708TIP3   OH226682   1.899   3.025   7.004 -0.1608  0.4783 -0.0742
 1708TIP3    H126683   1.948   3.068   7.073 -2.5040  1.9938  0.7849
 1708TIP3    H226684   1.816   3.073   6.999 -1.4114 -1.6128 -1.7130
 1709TIP3   OH226685   5.562   2.696   7.235 -0.2045  0.7583 -0.6967
 1709TIP3    H126686   5.476   2.654   7.244  0.8082 -0.9838  2.1120
 1709TIP3    H226687   5.554   2.778   7.283 -0.0286  0.0305  0.6359
 1710TIP3   OH226688   5.046   4.435   1.722 -0.3306 -0.2132  0.2818
 1710TIP3    H126689   5.123   4.448   1.777 -0.8404 -0.9592  1.1914
 1710TIP3    H226690   4.995   4.368   1.766 -0.6975 -0.9378 -1.1726
 1711TIP3   OH226691   5.348   1.855   0.381  0.0456 -0.8183  0.9135
 1711TIP3    H126692   5.361   1.945   0.409  0.9370 -0.6493 -0.0126
 1711TIP3    H226693   5.335   1.806   0.463  0.6544 -0.0346  1.4931
 1712TIP3   OH226694   5.153   5.938   8.108  0.6512 -0.3434 -0.0931
 1712TIP3    H126695   5.225   5.899   8.058  0.5434 -0.3200 -0.2657
 1712TIP3    H226696   5.184   5.936   8.199  0.6354 -0.8443 -0.0991
 1713TIP3   OH226697   5.400   4.519   0.426  0.2381 -0.1232  0.1544
 1713TIP3    H126698   5.311   4.534   0.457  0.1792 -0.0169 -0.0673
 1713TIP3    H226699   5.435   4.606   0.408  1.4790  0.1574  3.1753
 1714TIP3   OH226700   1.139   0.341   8.262 -0.5521 -0.2096 -0.0201
 1714TIP3    H126701   1.208   0.302   8.209  0.5446  0.4922  0.8395
 1714TIP3    H226702   1.060   0.295   8.236 -0.3581  1.0650 -3.3511
 1715TIP3   OH226703   0.079   4.958   0.090  0.0449  0.0859  0.0765
 1715TIP3    H126704   0.041   5.038   0.053 -1.1866 -0.7959 -0.6725
 1715TIP3    H226705   0.112   4.985   0.175  1.0357  1.7183 -0.7707
 1716TIP3   OH226706   0.228   6.671   7.446 -1.0286 -0.3528  0.2533
 1716TIP3    H126707   0.220   6.639   7.536 -0.7648 -1.2662 -0.0309
 1716TIP3    H226708   0.153   6.634   7.401 -1.2575  0.2535  0.1359
 1717TIP3   OH226709   1.097   4.641   5.806  0.5361  0.5275  0.0788
 1717TIP3    H126710   1.108   4.736   5.803 -1.1273  0.7831  0.9568
 1717TIP3    H226711   1.152   4.614   5.879  1.1442  0.7843 -0.2741
 1718TIP3   OH226712   0.153   5.643   0.641  0.3610 -0.0993 -0.1520
 1718TIP3    H126713   0.164   5.566   0.696 -0.4090 -0.6929 -0.7969
 1718TIP3    H226714   0.242   5.671   0.619  0.6468 -0.5687  0.4080
 1719TIP3   OH226715   1.227   6.157   0.987 -0.7901 -0.5034 -0.1840
 1719TIP3    H126716   1.195   6.080   0.940 -1.1512 -0.5726  0.1669
 1719TIP3    H226717   1.277   6.121   1.061 -0.1615 -0.3960 -0.5459
 1720TIP3   OH226718   4.959   3.576   0.677  0.3262 -0.1853 -0.5006
 1720TIP3    H126719   4.981   3.623   0.757 -1.0797  1.4012 -0.9806
 1720TIP3    H226720   5.044   3.548   0.641  0.9158 -2.4832  2.3497
 1721TIP3   OH226721   0.177   2.698   8.116 -0.2553 -0.0380 -0.1681
 1721TIP3    H126722   0.190   2.706   8.210  1.6020  1.1384 -0.4646
 1721TIP3    H226723   0.088   2.731   8.101 -0.7475 -0.6830  1.2046
 1722TIP3   OH226724   4.947   4.424   0.444 -0.8842  0.1605 -0.3366
 1722TIP3    H126725   4.949   4.440   0.538  0.2051  1.0749 -0.4863
 1722TIP3    H226726   4.902   4.340   0.434  0.7266 -0.9492  1.1482
 1723TIP3   OH226727   4.227   2.336   0.642 -0.2096 -0.4725  0.0005
 1723TIP3    H126728   4.241   2.314   0.734  1.4700  0.9352  0.1348
 1723TIP3    H226729   4.161   2.406   0.644  1.6480  1.3486  0.3967
 1724TIP3   OH226730   0.912   3.417   0.098  0.3213  0.2552 -0.5101
 1724TIP3    H126731   0.836   3.387   0.148 -0.3103 -1.0668 -2.1869
 1724TIP3    H226732   0.901   3.379   0.011  1.8292  1.7661 -1.4334
 1725TIP3   OH226733   1.265   3.032   0.636  0.0864 -0.2152 -0.2902
 1725TIP3    H126734   1.203   2.997   0.699  0.2908  4.6056  3.1531
 1725TIP3    H226735   1.351   3.011   0.672  0.2229  1.4177  0.4099
 1726TIP3   OH226736   2.018   1.802   0.975  0.1452 -0.5756  0.2756
 1726TIP3    H126737   2.019   1.851   1.057  0.3417 -0.1739  0.0371
 1726TIP3    H226738   2.092   1.837   0.925 -1.0375  0.4707 -0.8266
 1727TIP3   OH226739   3.751   4.452   8.654  0.0935 -0.3355 -0.4185
 1727TIP3    H126740   3.742   4.484   8.743  0.5063  1.6844 -1.0620
 1727TIP3    H226741   3.818   4.384   8.659  1.7470  1.2876  0.4833
 1728TIP3   OH226742   2.963   0.710   7.740 -0.0388 -0.4391 -0.4521
 1728TIP3    H126743   3.035   0.762   7.706 -0.6163  0.3514 -0.5110
 1728TIP3    H226744   3.005   0.637   7.785  0.7836 -0.1441 -0.7221
 1729TIP3   OH226745   3.281   6.141   1.893  0.1794 -0.0030 -0.1185
 1729TIP3    H126746   3.336   6.143   1.971  0.0356  0.4372 -0.0296
 1729TIP3    H226747   3.194   6.162   1.924  0.0061 -0.4207 -0.3076
 1730TIP3   OH226748   6.590   4.239   2.249  0.0427 -0.0054  0.2698
 1730TIP3    H126749   6.671   4.278   2.213  0.8699 -2.0631 -0.2406
 1730TIP3    H226750   6.595   4.255   2.343  0.5075  0.8161  0.1160
 1731TIP3   OH226751   2.356   2.488   0.809  0.1958  0.6872 -0.4331
 1731TIP3    H126752   2.401   2.458   0.730 -0.3264  1.1752 -0.9309
 1731TIP3    H226753   2.264   2.496   0.783 -0.8870 -3.2709  1.3727
 1732TIP3   OH226754   4.456   0.896   7.557 -0.2120  0.1853 -0.4402
 1732TIP3    H126755   4.474   0.850   7.639  0.8252 -0.5152 -1.0318
 1732TIP3    H226756   4.395   0.965   7.581  1.4124  1.1215  1.2554
 1733TIP3   OH226757   0.929   1.575   1.299  0.2715 -0.0141  0.1412
 1733TIP3    H126758   0.869   1.540   1.233 -2.3084  2.7873  0.8119
 1733TIP3    H226759   0.898   1.538   1.382  0.5044  0.2101  0.3304
 1734TIP3   OH226760   4.701   2.659   7.090 -0.1342  0.1148 -0.4049
 1734TIP3    H126761   4.639   2.598   7.129  0.2121 -0.8601 -1.3349
 1734TIP3    H226762   4.719   2.623   7.003  0.2370  1.4351 -0.9083
 1735TIP3   OH226763   5.487   3.258   0.026  0.0269 -0.2727 -0.1263
 1735TIP3    H126764   5.567   3.222   0.064  1.4603  1.4288 -1.3238
 1735TIP3    H226765   5.469   3.203  -0.050 -0.2795 -0.9924  0.4588
 1736TIP3   OH226766   5.281   5.070   8.617  0.0917  0.6796  0.4347
 1736TIP3    H126767   5.348   5.008   8.647 -1.0934 -0.6928  0.3584
 1736TIP3    H226768   5.206   5.053   8.673 -0.9370  0.6050 -0.9064
 1737TIP3   OH226769   3.508   3.454   8.262  0.3210 -0.2653 -0.0783
 1737TIP3    H126770   3.494   3.535   8.311 -0.3422 -0.7085  0.4911
 1737TIP3    H226771   3.482   3.385   8.323 -2.0355 -0.7891 -1.5452
 1738TIP3   OH226772   6.342   6.212   7.308 -0.1912  0.3839 -0.1553
 1738TIP3    H126773   6.284   6.185   7.237 -0.3639  0.4108 -0.0241
 1738TIP3    H226774   6.292   6.276   7.358  0.6929  2.0018 -1.2425
 1739TIP3   OH226775   4.116   1.532   7.510  0.3809 -0.4690 -0.6918
 1739TIP3    H126776   4.166   1.604   7.472  0.3588 -0.8300 -1.4114
 1739TIP3    H226777   4.180   1.482   7.560  0.4909 -0.2444 -0.6036
 1740TIP3   OH226778   4.520   5.156   1.506  0.0372  0.3690  0.1560
 1740TIP3    H126779   4.537   5.185   1.416 -1.4044  1.4564  0.1891
 1740TIP3    H226780   4.467   5.227   1.544 -0.5577 -0.7108  1.4150
 1741TIP3   OH226781   1.571   5.735   8.366  0.3211  0.0442 -0.1110
 1741TIP3    H126782   1.561   5.740   8.461  0.6922  2.1707 -0.1357
 1741TIP3    H226783   1.506   5.797   8.332 -0.1258 -1.0303 -1.2939
 1742TIP3   OH226784   4.809   0.979   1.465 -0.1143  0.4970  0.0961
 1742TIP3    H126785   4.861   1.058   1.455  0.1712  0.1663 -1.2787
 1742TIP3    H226786   4.868   0.916   1.506  0.4520  0.2592 -1.0552
 1743TIP3   OH226787   2.493   1.956   8.432 -0.1683 -0.1358  0.1031
 1743TIP3    H126788   2.525   1.978   8.345  0.8877 -0.0037  0.5058
 1743TIP3    H226789   2.416   1.901   8.417  0.8603 -1.3479 -0.9216
 1744TIP3   OH226790   1.787   6.249   1.119  0.2960 -0.7452 -0.2186
 1744TIP3    H126791   1.872   6.271   1.158  0.8685 -0.7166 -1.4402
 1744TIP3    H226792   1.772   6.317   1.054 -0.1092 -1.3849 -0.8135
 1745TIP3   OH226793   2.498   1.900   0.343 -0.6402  0.4726 -0.1330
 1745TIP3    H126794   2.492   1.805   0.338  0.3881  0.4211 -0.5257
 1745TIP3    H226795   2.426   1.931   0.288 -0.0292 -0.0938 -1.2907
 1746TIP3   OH226796   4.188   5.365   1.082 -0.0807  0.1067  0.0345
 1746TIP3    H126797   4.258   5.300   1.084 -0.3667 -0.3322 -1.9435
 1746TIP3    H226798   4.126   5.335   1.149  0.9361 -0.2858  0.8208
 1747TIP3   OH226799   6.868   0.604   0.396  0.4405 -0.5065  0.8113
 1747TIP3    H126800   6.806   0.590   0.324  0.2322  0.1743  0.8507
 1747TIP3    H226801   6.948   0.634   0.352 -0.2136  1.5943  0.9511
 1748TIP3   OH226802   1.909   4.206   1.391  0.2003  0.0697 -0.0197
 1748TIP3    H126803   1.867   4.156   1.321  0.8404  0.4875 -0.7151
 1748TIP3    H226804   1.994   4.163   1.404  0.3701  0.4106  0.0186
 1749TIP3   OH226805   5.044   4.159   6.848  0.2966 -0.1932  0.4314
 1749TIP3    H126806   5.138   4.176   6.857  0.4850 -0.3121 -1.0512
 1749TIP3    H226807   5.029   4.080   6.899  0.0041  2.4085  4.8706
 1750TIP3   OH226808   0.872   2.002   1.173 -0.1602 -0.1577 -0.1110
 1750TIP3    H126809   0.793   2.005   1.120 -0.6946 -0.5155  0.6334
 1750TIP3    H226810   0.846   2.040   1.257  0.1038 -1.3555  0.5474
 1751TIP3   OH226811   0.316   3.966   8.653  0.2135 -0.1908  0.2209
 1751TIP3    H126812   0.393   3.914   8.630  0.0706 -0.4531  0.3307
 1751TIP3    H226813   0.250   3.940   8.589  0.5395  0.8260 -0.5557
 1752TIP3   OH226814   2.879   2.710   0.150  0.1217  0.1729  0.5287
 1752TIP3    H126815   2.971   2.729   0.131  0.6203 -1.2713  1.3125
 1752TIP3    H226816   2.880   2.620   0.183 -1.7262 -0.2620 -0.5068
 1753TIP3   OH226817   0.784   4.226   7.778 -0.1663  0.2943  0.1089
 1753TIP3    H126818   0.769   4.319   7.761  2.1517  0.5625 -0.7937
 1753TIP3    H226819   0.872   4.210   7.746 -0.4316 -2.1905  0.4565
 1754TIP3   OH226820   4.459   3.370   0.231  0.4542  0.1506  0.5013
 1754TIP3    H126821   4.526   3.304   0.252 -1.0133 -1.1507  1.3181
 1754TIP3    H226822   4.412   3.332   0.157 -0.9722 -0.1729  1.5402
 1755TIP3   OH226823   1.172   1.514   1.409 -0.2009  0.0049  0.0168
 1755TIP3    H126824   1.235   1.520   1.338 -0.4101 -0.9187 -0.2698
 1755TIP3    H226825   1.088   1.539   1.370 -0.2724 -0.2611 -0.0039
 1756TIP3   OH226826   2.256   1.901   7.829 -0.1286 -0.0043  0.1348
 1756TIP3    H126827   2.169   1.937   7.815  0.0205 -0.4494 -2.5190
 1756TIP3    H226828   2.310   1.976   7.852 -0.4430  1.0423 -2.2510
 1757TIP3   OH226829   1.775   1.786   1.963 -0.4814 -0.7526  0.1050
 1757TIP3    H126830   1.828   1.711   1.934 -0.0586 -0.2159 -0.5437
 1757TIP3    H226831   1.829   1.828   2.029 -0.1488 -0.2956 -0.4446
 1758TIP3   OH226832   1.320   0.580   7.407  0.2506  0.2119  1.0096
 1758TIP3    H126833   1.228   0.607   7.413 -0.4255 -1.0243 -1.9992
 1758TIP3    H226834   1.321   0.492   7.445 -0.2208 -0.4692 -0.4968
 1759TIP3   OH226835   2.192   3.345   0.323  0.4613 -0.0712 -0.0017
 1759TIP3    H126836   2.197   3.291   0.402 -0.8519  0.8685  0.7778
 1759TIP3    H226837   2.259   3.309   0.265  1.1183 -1.1216  1.3334
 1760TIP3   OH226838   6.449   0.437   7.857 -0.0567 -0.1051  0.3990
 1760TIP3    H126839   6.447   0.342   7.867  0.1677 -0.3385 -1.5133
 1760TIP3    H226840   6.467   0.470   7.945  2.4056 -1.9310  0.6832
 1761TIP3   OH226841   6.860   2.972   0.676  0.5788 -0.9016 -0.4328
 1761TIP3    H126842   6.911   2.891   0.666  0.9524 -0.8666  0.9216
 1761TIP3    H226843   6.915   3.039   0.636  0.4720 -1.2470 -1.1668
 1762TIP3   OH226844   6.402   0.686   6.811 -0.2341  0.3475 -0.1286
 1762TIP3    H126845   6.375   0.599   6.781 -0.3737  0.8720 -1.6049
 1762TIP3    H226846   6.401   0.680   6.907 -1.4013 -0.9194 -0.1940
 1763TIP3   OH226847   1.727   1.681   6.211  0.5331 -0.4606 -0.2201
 1763TIP3    H126848   1.693   1.712   6.128  0.4237 -0.5019 -0.1906
 1763TIP3    H226849   1.662   1.708   6.276  1.6222  1.4480  0.1570
 1764TIP3   OH226850   5.824   2.596   7.260  0.1141 -0.0058 -0.1894
 1764TIP3    H126851   5.737   2.628   7.283  0.6626  2.0439 -0.7038
 1764TIP3    H226852   5.883   2.645   7.317  0.9260 -1.8382  0.6065
 1765TIP3   OH226853   5.179   4.810   7.883 -0.4186 -0.2709 -0.0561
 1765TIP3    H126854   5.159   4.903   7.886 -1.2691 -0.4341 -0.2893
 1765TIP3    H226855   5.148   4.781   7.797 -0.9555 -0.9282  0.3402
 1766TIP3   OH226856   6.349   4.942   7.106  0.3620 -0.5355  0.0965
 1766TIP3    H126857   6.276   4.942   7.044  0.0031 -0.0978  0.5099
 1766TIP3    H226858   6.344   5.027   7.149  0.7708 -0.7266  0.5344
 1767TIP3   OH226859   0.532   0.688   2.000  0.0557 -0.2600  0.0806
 1767TIP3    H126860   0.453   0.637   1.986  0.2291 -0.5001 -0.0392
 1767TIP3    H226861   0.565   0.660   2.085  0.2235 -0.4493 -0.0448
 1768TIP3   OH226862   0.243   5.768   1.213  0.0640  0.2781  0.1409
 1768TIP3    H126863   0.254   5.767   1.309 -0.3984 -3.9695  0.3649
 1768TIP3    H226864   0.310   5.706   1.182 -1.5053 -0.4536 -1.9638
 1769TIP3   OH226865   0.724   2.082   8.225  0.0946  0.3423  0.7158
 1769TIP3    H126866   0.789   2.108   8.160  1.3920 -0.5928  1.5834
 1769TIP3    H226867   0.766   2.098   8.309 -0.2550 -1.5139  1.2907
 1770TIP3   OH226868   5.392   3.714   6.606  0.0992 -0.3065  0.1317
 1770TIP3    H126869   5.452   3.751   6.542  0.2448  1.4038  1.1995
 1770TIP3    H226870   5.314   3.691   6.556  0.5870  0.0451 -0.8088
 1771TIP3   OH226871   1.532   5.193   1.529  0.7184 -0.1263 -0.7480
 1771TIP3    H126872   1.477   5.266   1.558 -0.5158 -0.0133 -3.2052
 1771TIP3    H226873   1.580   5.228   1.454  3.6722 -0.4604  0.8313
 1772TIP3   OH226874   6.006   6.141   6.938  0.7210 -0.1931 -0.3172
 1772TIP3    H126875   6.013   6.196   6.860 -0.4102  0.5210  0.0710
 1772TIP3    H226876   5.912   6.124   6.947  0.9249 -1.0032  0.3989
 1773TIP3   OH226877   4.803   4.212   0.307 -0.1404 -0.1081 -0.3466
 1773TIP3    H126878   4.759   4.199   0.223  1.1785 -1.6970 -0.8542
 1773TIP3    H226879   4.896   4.221   0.285 -0.0030  1.9162  0.7844
 1774TIP3   OH226880   3.399   1.797   8.544  0.0480 -0.7578 -0.4501
 1774TIP3    H126881   3.314   1.753   8.541 -0.9282  0.8792  0.8590
 1774TIP3    H226882   3.408   1.824   8.636 -0.8042  4.1109 -1.5162
 1775TIP3   OH226883   5.962   4.833   0.073 -0.2136  0.2435 -0.1244
 1775TIP3    H126884   5.999   4.867  -0.009  0.1450  0.7272  0.2342
 1775TIP3    H226885   5.913   4.755   0.046  1.6229 -0.8260 -0.5329
 1776TIP3   OH226886   4.591   4.303   6.964  0.2842 -0.0027  0.5927
 1776TIP3    H126887   4.635   4.261   6.891  2.5917  0.9440  1.3246
 1776TIP3    H226888   4.564   4.389   6.931  2.9648  1.1944  1.1934
 1777TIP3   OH226889   0.032   3.858   6.246 -0.3313  0.0515 -0.1870
 1777TIP3    H126890  -0.015   3.778   6.268 -0.2446  0.1585  0.4085
 1777TIP3    H226891  -0.037   3.925   6.241 -0.3141  0.0872  0.0643
 1778TIP3   OH226892   6.606   5.296   0.261 -0.1215  0.1184  0.0515
 1778TIP3    H126893   6.577   5.343   0.339 -0.7373 -0.1913  0.0115
 1778TIP3    H226894   6.696   5.269   0.282  0.2039  1.2051  0.1160
 1779TIP3   OH226895   0.388   4.080   6.420  0.0082 -0.6455 -0.5224
 1779TIP3    H126896   0.383   4.175   6.417  0.1624 -0.5565  1.0479
 1779TIP3    H226897   0.421   4.054   6.334  0.1292  0.7247 -0.8986
 1780TIP3   OH226898   2.443   4.427   0.142  0.2662  0.1757 -0.2947
 1780TIP3    H126899   2.473   4.345   0.102 -0.5222  0.9986 -2.7713
 1780TIP3    H226900   2.495   4.495   0.099 -0.5375  1.1164  0.1781
 1781TIP3   OH226901   1.016   2.872   1.623  0.1682  0.0347 -0.3881
 1781TIP3    H126902   0.932   2.894   1.585  0.4882  0.5789 -0.7943
 1781TIP3    H226903   0.995   2.836   1.710 -0.5924 -1.7550 -1.2693
 1782TIP3   OH226904   0.943   5.801   0.175 -0.2135  0.7125  0.1246
 1782TIP3    H126905   0.926   5.743   0.101  0.0575  0.1695  0.4831
 1782TIP3    H226906   0.869   5.788   0.234 -0.4523  1.1785 -0.0613
 1783TIP3   OH226907   2.499   2.915   7.897 -0.1453 -0.1770  0.2536
 1783TIP3    H126908   2.548   2.842   7.858 -1.9751 -0.5625 -1.5056
 1783TIP3    H226909   2.425   2.873   7.940 -0.1834  0.5396  0.9017
 1784TIP3   OH226910   3.991   6.314   1.229  0.5877  0.1872 -0.0416
 1784TIP3    H126911   3.944   6.375   1.172  1.7337  3.4690  2.2657
 1784TIP3    H226912   3.939   6.312   1.310  1.8160  0.0036  0.7732
 1785TIP3   OH226913   6.273   1.657   7.632  0.1796 -0.7507 -0.0549
 1785TIP3    H126914   6.334   1.730   7.645  1.5361 -2.1070  1.6210
 1785TIP3    H226915   6.318   1.599   7.570  0.3671 -1.4808  0.7499
 1786TIP3   OH226916   5.476   1.512   8.086  0.1009  0.1572 -0.1490
 1786TIP3    H126917   5.445   1.481   8.171  0.3063  0.8086  0.1792
 1786TIP3    H226918   5.398   1.513   8.030  0.0582 -0.7311 -0.1111
 1787TIP3   OH226919   3.852   3.001   1.079 -0.8707 -0.1365  0.3406
 1787TIP3    H126920   3.832   2.915   1.116  0.6040 -0.1569  1.1916
 1787TIP3    H226921   3.830   2.993   0.987 -0.6042 -1.4869  0.3728
 1788TIP3   OH226922   4.085   3.555   6.857 -0.0671 -0.1854 -0.3680
 1788TIP3    H126923   4.024   3.488   6.828 -0.1197  0.1849 -1.1566
 1788TIP3    H226924   4.058   3.634   6.811  1.1861 -0.0889 -1.0028
 1789TIP3   OH226925   1.900   3.214   1.170  0.4983  0.6598  0.0554
 1789TIP3    H126926   1.963   3.261   1.115 -0.4769  2.4515  0.3813
 1789TIP3    H226927   1.893   3.267   1.249 -1.4638  0.5967 -0.0170
 1790TIP3   OH226928   2.865   2.113   0.576 -0.1680  0.5795  0.0287
 1790TIP3    H126929   2.944   2.155   0.610  0.9189 -0.5322 -1.0307
 1790TIP3    H226930   2.799   2.127   0.644  1.0369  1.2226  1.1000
 1791TIP3   OH226931   6.103   0.660   6.878 -0.2199  0.2128 -0.3457
 1791TIP3    H126932   6.145   0.595   6.822  0.0180  0.9128 -0.9971
 1791TIP3    H226933   6.168   0.730   6.888 -0.8524  0.8404 -0.5366
 1792TIP3   OH226934   2.851   5.753   7.938  0.5589  0.1608 -0.1606
 1792TIP3    H126935   2.914   5.685   7.915 -0.3401 -1.1874  1.1318
 1792TIP3    H226936   2.765   5.713   7.922 -0.0023  1.2294  0.0351
 1793TIP3   OH226937   5.950   4.014   7.188 -0.3560 -0.0530  0.2271
 1793TIP3    H126938   5.944   4.093   7.134 -0.3093 -1.5927 -2.1244
 1793TIP3    H226939   5.859   3.985   7.198 -0.2429 -0.5393 -0.1815
 1794TIP3   OH226940   5.061   1.190   6.657 -0.2350  0.1987 -0.0076
 1794TIP3    H126941   5.156   1.200   6.658 -0.3780  1.8636  0.2143
 1794TIP3    H226942   5.037   1.203   6.565 -0.2449 -0.4023 -0.0947
 1795TIP3   OH226943   5.999   0.343   6.423  0.6110  0.2741 -0.4706
 1795TIP3    H126944   6.022   0.409   6.358  1.7135 -0.5783 -0.9962
 1795TIP3    H226945   6.083   0.302   6.446 -0.0319 -0.9174 -0.1611
 1796TIP3   OH226946   6.637   5.109   8.078 -0.4138 -0.3407  0.4740
 1796TIP3    H126947   6.631   5.026   8.125  1.0909  0.7065  2.7459
 1796TIP3    H226948   6.561   5.110   8.020 -2.6454 -1.6897  3.1190
 1797TIP3   OH226949   5.968   6.223   8.176 -0.0023 -0.1256  0.3339
 1797TIP3    H126950   6.017   6.212   8.257  0.0198  0.1065  0.3519
 1797TIP3    H226951   6.030   6.203   8.107  0.2159  0.4919  0.3420
 1798TIP3   OH226952   0.896   6.296   8.201 -0.3641  0.2961 -0.0984
 1798TIP3    H126953   0.984   6.333   8.194  0.0116 -0.7407 -1.1930
 1798TIP3    H226954   0.891   6.231   8.131 -1.3011 -1.1249  1.2271
 1799TIP3   OH226955   1.337   1.676   7.378 -0.0428 -0.1190 -0.0198
 1799TIP3    H126956   1.262   1.665   7.320 -0.7413 -0.4302  0.9258
 1799TIP3    H226957   1.370   1.763   7.358 -0.8116  0.1244 -0.2711
 1800TIP3   OH226958   5.709   5.953   1.165 -0.5273  0.1731 -1.0125
 1800TIP3    H126959   5.799   5.924   1.172 -0.3600  1.0711  2.1735
 1800TIP3    H226960   5.657   5.883   1.205 -0.8402  1.0755  0.2306
 1801TIP3   OH226961   3.314   3.854   0.129  0.1622 -0.3029  0.0899
 1801TIP3    H126962   3.354   3.776   0.168  1.2533  1.2663  2.3331
 1801TIP3    H226963   3.310   3.917   0.201  0.1355  2.0218 -1.8294
 1802TIP3   OH226964   5.927   0.721   0.732 -0.5623  0.6301 -0.5652
 1802TIP3    H126965   5.832   0.710   0.743 -0.9127  1.9161 -1.9850
 1802TIP3    H226966   5.946   0.805   0.773  0.3288 -0.4286  1.3310
 1803TIP3   OH226967   1.790   2.710   1.017 -0.2363  0.2138  0.1740
 1803TIP3    H126968   1.748   2.778   1.069  1.0386  0.5334  0.8347
 1803TIP3    H226969   1.795   2.635   1.076 -0.9091 -0.2069 -0.2873
 1804TIP3   OH226970   4.222   1.072   1.454 -0.1727 -0.5972 -0.2506
 1804TIP3    H126971   4.200   1.080   1.546 -0.3023  1.2570 -0.3996
 1804TIP3    H226972   4.148   1.113   1.408  0.5821 -0.1549 -1.0928
 1805TIP3   OH226973   3.155   6.681   8.640  0.6902  0.5444  0.0140
 1805TIP3    H126974   3.122   6.658   8.727  0.8710  3.9494  1.1446
 1805TIP3    H226975   3.081   6.668   8.581  0.2059 -0.6608  0.8525
 1806TIP3   OH226976   0.844   6.172   7.633  0.8312 -0.5147  0.0020
 1806TIP3    H126977   0.765   6.191   7.582  0.5588 -1.7316 -0.0495
 1806TIP3    H226978   0.913   6.223   7.591 -0.0518  1.2008  0.5204
 1807TIP3   OH226979   3.259   5.296   2.376  0.2048 -0.4671  0.1508
 1807TIP3    H126980   3.284   5.212   2.414 -2.0328 -1.5991 -0.7480
 1807TIP3    H226981   3.223   5.274   2.290  0.0970  1.4830 -0.3555
 1808TIP3   OH226982   3.948   1.230   7.823 -0.2958  0.6655  0.4175
 1808TIP3    H126983   3.894   1.151   7.818  0.5481  0.0161  1.2066
 1808TIP3    H226984   3.968   1.240   7.916 -0.7307  2.0660  0.3895
 1809TIP3   OH226985   3.207   6.813   8.260  0.2847 -0.0536  0.1523
 1809TIP3    H126986   3.120   6.804   8.299  0.0872  0.3478 -0.1837
 1809TIP3    H226987   3.268   6.791   8.331 -0.1057 -1.4567  0.0731
 1810TIP3   OH226988   5.874   5.724   2.272  0.2363 -0.2431  0.0156
 1810TIP3    H126989   5.821   5.787   2.322 -1.2151 -1.4839  0.1238
 1810TIP3    H226990   5.875   5.760   2.183  2.9696  2.0653  0.8388
 1811TIP3   OH226991   0.924   1.710   7.589  0.2422 -0.3193  0.0803
 1811TIP3    H126992   1.011   1.746   7.609  0.4827 -1.4170  1.1912
 1811TIP3    H226993   0.942   1.626   7.546 -0.2463 -0.6531  0.5055
 1812TIP3   OH226994   2.648   4.603   6.071  0.0989  0.1246  0.4932
 1812TIP3    H126995   2.679   4.597   6.162 -0.6659  1.0463  0.8212
 1812TIP3    H226996   2.553   4.609   6.078  0.0754  0.8873 -0.3316
 1813TIP3   OH226997   5.190   1.508   1.624 -0.0503 -0.4063 -0.1373
 1813TIP3    H126998   5.155   1.419   1.627  0.0106 -0.4408 -0.4829
 1813TIP3    H226999   5.158   1.544   1.542 -2.1186  0.7256  1.0618
 1814TIP3   OH227000   5.397   2.240   8.625  0.3247  0.2316 -0.3166
 1814TIP3    H127001   5.434   2.326   8.645  2.5907  0.0766 -3.2166
 1814TIP3    H227002   5.312   2.260   8.585 -0.2205  0.9349  1.1307
 1815TIP3   OH227003   6.570   2.960   1.506  0.1849 -0.0737 -0.0847
 1815TIP3    H127004   6.566   2.880   1.558 -0.6629 -0.0454 -0.0979
 1815TIP3    H227005   6.599   3.027   1.567  0.1739 -0.2434  0.1067
 1816TIP3   OH227006   3.533   3.990   0.967  0.5029 -0.3558 -0.1684
 1816TIP3    H127007   3.594   3.917   0.965 -1.0466 -1.7190 -0.2542
 1816TIP3    H227008   3.545   4.028   1.054 -0.6705 -2.6034  1.0895
 1817TIP3   OH227009   5.895   2.863   2.195  0.4692 -0.1543  0.0779
 1817TIP3    H127010   5.832   2.812   2.246 -2.3501  0.8415 -2.1357
 1817TIP3    H227011   5.948   2.798   2.150  0.6413 -1.0467  1.5226
 1818TIP3   OH227012   4.063   3.304   0.504  0.0449  0.1521 -0.1428
 1818TIP3    H127013   4.064   3.292   0.409  0.0311 -0.9189 -0.0218
 1818TIP3    H227014   3.976   3.273   0.531 -0.3421  1.4069  0.1203
 1819TIP3   OH227015   1.527   1.285   0.844  0.2505 -0.2162 -0.6670
 1819TIP3    H127016   1.607   1.235   0.832 -0.1199 -0.9135 -0.3233
 1819TIP3    H227017   1.503   1.271   0.936 -0.3359 -0.1287 -0.8014
 1820TIP3   OH227018   3.964   5.324   2.238 -0.2275  0.1575  0.1503
 1820TIP3    H127019   4.045   5.287   2.204 -0.4010 -0.4423  0.3825
 1820TIP3    H227020   3.992   5.394   2.297  0.1678 -0.8203  1.1580
 1821TIP3   OH227021   6.241   0.738   0.790  0.7259  0.4859  0.1743
 1821TIP3    H127022   6.189   0.662   0.765  0.3598 -0.1449  2.5431
 1821TIP3    H227023   6.328   0.721   0.753  0.5445 -0.9398  0.3429
 1822TIP3   OH227024   3.536   2.686   2.305  0.1062 -1.0897  0.3059
 1822TIP3    H127025   3.597   2.616   2.325 -0.1857 -1.8105 -1.1807
 1822TIP3    H227026   3.464   2.643   2.258  0.0043  0.2075 -0.8001
 1823TIP3   OH227027   4.462   3.352   6.394  0.5462 -0.5609 -0.0310
 1823TIP3    H127028   4.431   3.300   6.320  0.4004 -0.1691 -0.2497
 1823TIP3    H227029   4.537   3.304   6.428  0.1601 -1.1235  0.0272
 1824TIP3   OH227030   3.875   0.688   7.427  0.0840 -0.0560  0.3608
 1824TIP3    H127031   3.871   0.754   7.496 -0.3489  0.8761 -0.5364
 1824TIP3    H227032   3.783   0.668   7.408  0.1934 -0.0263 -0.2109
 1825TIP3   OH227033   1.028   3.385   7.922  0.5422 -0.1945  0.4283
 1825TIP3    H127034   1.068   3.298   7.915 -0.5814 -0.9114  2.1611
 1825TIP3    H227035   1.073   3.437   7.856  2.8776 -1.4645  0.9053
 1826TIP3   OH227036   2.749   5.390   1.172 -0.0472  0.1842 -0.2039
 1826TIP3    H127037   2.713   5.344   1.248  1.3564 -1.1505 -0.2908
 1826TIP3    H227038   2.677   5.443   1.139 -0.7024  0.8659  2.0786
 1827TIP3   OH227039   5.304   5.683   7.419  0.0308 -0.0804 -0.0480
 1827TIP3    H127040   5.220   5.640   7.400  0.3851 -0.7841 -0.0765
 1827TIP3    H227041   5.370   5.622   7.385  0.6063 -0.2316  1.3006
 1828TIP3   OH227042   4.297   4.549   0.552 -0.1101 -0.4946 -0.2071
 1828TIP3    H127043   4.244   4.622   0.586 -1.7272 -1.8607  0.3474
 1828TIP3    H227044   4.344   4.587   0.478 -0.5210  1.2374  0.3536
 1829TIP3   OH227045   2.996   4.507   0.319 -0.1621 -0.6911  0.1941
 1829TIP3    H127046   2.910   4.523   0.280  0.0563 -1.2016 -0.5178
 1829TIP3    H227047   3.021   4.592   0.357  0.3609  0.3476 -2.2679
 1830TIP3   OH227048   0.184   4.516   7.995 -0.3059  0.5154 -0.2648
 1830TIP3    H127049   0.173   4.523   8.090 -1.4753 -1.4869 -0.2052
 1830TIP3    H227050   0.246   4.586   7.974  0.5596  0.5549  2.0528
 1831TIP3   OH227051   6.312   1.401   0.923 -0.1754 -0.0021  0.1869
 1831TIP3    H127052   6.235   1.386   0.869  0.3159  0.4220 -0.6483
 1831TIP3    H227053   6.309   1.332   0.989 -0.4591 -0.9034 -0.7472
 1832TIP3   OH227054   0.534   1.595   7.375 -0.0285  0.7943  0.1141
 1832TIP3    H127055   0.489   1.551   7.303  2.0882 -2.3422  0.4564
 1832TIP3    H227056   0.624   1.608   7.343  0.2064  2.0516  1.1916
 1833TIP3   OH227057   5.059   4.213   1.495  0.0536  0.0348 -0.6104
 1833TIP3    H127058   4.974   4.170   1.505 -0.5692  1.4307  0.5754
 1833TIP3    H227059   5.110   4.185   1.571 -0.3423  1.2713  0.1492
 1834TIP3   OH227060   0.101   4.305   1.884 -0.2309  0.5294 -0.2296
 1834TIP3    H127061   0.180   4.359   1.880  0.5336 -0.6433 -1.4021
 1834TIP3    H227062   0.132   4.215   1.880 -1.5589 -0.0115  0.7177
 1835TIP3   OH227063   1.132   4.589   0.648  0.1838 -0.1302  0.0870
 1835TIP3    H127064   1.155   4.603   0.556 -2.9220  1.3371 -0.5914
 1835TIP3    H227065   1.063   4.523   0.646 -1.2836  1.2961  1.1138
 1836TIP3   OH227066   0.347   6.256   0.075  0.2071 -0.3103 -0.0215
 1836TIP3    H127067   0.412   6.210   0.129  0.5006  0.1259 -0.0036
 1836TIP3    H227068   0.373   6.237  -0.015  0.2661 -0.2685 -0.0135
 1837TIP3   OH227069   2.551   1.204   0.362  0.7046  0.1093  0.6923
 1837TIP3    H127070   2.555   1.256   0.442  3.6258  2.0346 -0.5497
 1837TIP3    H227071   2.567   1.114   0.391 -2.3260  0.0248  2.6254
 1838TIP3   OH227072   2.515   3.503   2.382 -0.0796  0.0052  0.3664
 1838TIP3    H127073   2.519   3.591   2.420  0.2755 -0.1428  0.6716
 1838TIP3    H227074   2.572   3.450   2.438 -0.7437 -0.5486  0.5350
 1839TIP3   OH227075   0.273   6.388   8.028 -0.0924  0.0124  0.0560
 1839TIP3    H127076   0.246   6.306   8.069 -0.8867  0.8944  1.3563
 1839TIP3    H227077   0.257   6.374   7.934  0.6000 -1.5975  0.1430
 1840TIP3   OH227078   6.089   5.544   1.539 -0.1171 -0.0032 -0.8278
 1840TIP3    H127079   5.994   5.558   1.541  0.0795  1.6542  1.1601
 1840TIP3    H227080   6.119   5.598   1.466 -0.4785  1.8970  0.3409
 1841TIP3   OH227081   2.377   1.048   7.209 -0.1537  0.7624 -0.6585
 1841TIP3    H127082   2.457   1.035   7.158 -1.0180  1.0834 -2.1573
 1841TIP3    H227083   2.307   1.048   7.144 -1.2710  1.5722  0.4980
 1842TIP3   OH227084   4.386   2.391   7.388 -0.6658 -0.0656  0.6789
 1842TIP3    H127085   4.445   2.324   7.424 -1.0885 -0.2680  0.9980
 1842TIP3    H227086   4.441   2.439   7.326 -0.6926 -1.5422 -0.5685
 1843TIP3   OH227087   4.796   0.384   1.247 -0.0507 -0.0214 -0.3118
 1843TIP3    H127088   4.780   0.345   1.161  0.5309 -1.6623  0.2817
 1843TIP3    H227089   4.872   0.441   1.233  0.5241 -0.8674 -0.7439
 1844TIP3   OH227090   6.826   0.239   0.891  0.1644 -0.0368 -0.0617
 1844TIP3    H127091   6.865   0.204   0.971  0.4938 -0.6968 -0.5042
 1844TIP3    H227092   6.740   0.270   0.919  0.3418 -0.0954  0.5858
 1845TIP3   OH227093   6.813   0.977   0.200 -0.8332 -0.2209 -0.3085
 1845TIP3    H127094   6.763   1.058   0.207  0.3748  0.8849 -3.1393
 1845TIP3    H227095   6.748   0.909   0.183 -1.7808  0.1931  1.3765
 1846TIP3   OH227096   3.807   1.655   7.830 -0.2859  0.2663 -0.1401
 1846TIP3    H127097   3.806   1.748   7.809  0.9661  0.2772 -0.2477
 1846TIP3    H227098   3.869   1.617   7.767 -1.3133 -0.7608 -0.5617
 1847TIP3   OH227099   2.810   3.961   8.259 -0.3204  0.1378  0.9739
 1847TIP3    H127100   2.752   4.011   8.316  1.0728  1.2815  1.4578
 1847TIP3    H227101   2.789   3.993   8.171  0.6223  1.7348  1.2824
 1848TIP3   OH227102   0.393   0.436   7.057  0.2276  0.3292  0.4354
 1848TIP3    H127103   0.311   0.453   7.011  0.7488  1.6380 -0.0370
 1848TIP3    H227104   0.379   0.472   7.145 -0.3370 -1.1159  0.9884
 1849TIP3   OH227105   0.932   6.464   0.665 -0.4848  0.0583 -0.0539
 1849TIP3    H127106   0.952   6.373   0.691  3.4905  0.7358 -0.1365
 1849TIP3    H227107   0.957   6.469   0.573 -1.5884  1.0393 -0.3220
 1850TIP3   OH227108   3.478   2.528   1.752 -0.1805  0.1159  0.5530
 1850TIP3    H127109   3.496   2.587   1.679 -0.2415 -0.4062  0.1010
 1850TIP3    H227110   3.532   2.451   1.733 -2.0842 -1.0938 -0.3065
 1851TIP3   OH227111   5.326   6.438   6.901 -0.2873  0.0658  0.3735
 1851TIP3    H127112   5.407   6.489   6.901 -0.3018  0.1341 -0.7749
 1851TIP3    H227113   5.334   6.382   6.823  0.2522 -2.5703  2.2095
 1852TIP3   OH227114   2.134   4.522   0.291  0.3450 -0.0269  0.0364
 1852TIP3    H127115   2.200   4.462   0.325 -0.2225 -0.3877  0.5185
 1852TIP3    H227116   2.056   4.468   0.279 -0.4693  0.7841  1.3783
 1853TIP3   OH227117   2.854   4.907   2.158 -0.0116  0.1476 -0.1883
 1853TIP3    H127118   2.915   4.931   2.088  0.8160 -0.7508  0.1936
 1853TIP3    H227119   2.813   4.826   2.127 -0.8451  0.6197 -0.3354
 1854TIP3   OH227120   4.989   1.429   8.572  0.4392 -0.2168  0.5550
 1854TIP3    H127121   5.083   1.431   8.554  0.5043  0.3369  0.9286
 1854TIP3    H227122   4.956   1.512   8.536  0.2188 -0.0761  1.0732
 1855TIP3   OH227123   4.213   0.951   7.311  0.1659  0.5418  0.5267
 1855TIP3    H127124   4.241   0.956   7.403 -1.5385  0.5218  1.0809
 1855TIP3    H227125   4.246   0.866   7.281  2.5417  1.4173  0.4410
 1856TIP3   OH227126   2.335   4.487   0.827  0.5735 -0.3798  0.0158
 1856TIP3    H127127   2.369   4.483   0.737 -0.1123 -2.4446 -0.2243
 1856TIP3    H227128   2.256   4.539   0.821  0.4687 -0.6050 -0.6116
 1857TIP3   OH227129   2.886   2.013   8.053 -0.3946 -0.2597 -0.1849
 1857TIP3    H127130   2.811   1.992   7.996 -0.7914  1.7983 -0.5067
 1857TIP3    H227131   2.943   2.066   7.998  1.5405 -2.0695 -0.0518
 1858TIP3   OH227132   2.116   6.760   0.323  0.3076  0.7633  0.3794
 1858TIP3    H127133   2.066   6.682   0.300 -0.5258  1.4073 -0.0320
 1858TIP3    H227134   2.137   6.748   0.416  1.1468 -0.4597  0.0579
 1859TIP3   OH227135   4.236   0.060   0.436 -0.1193  0.5946  0.5142
 1859TIP3    H127136   4.240  -0.006   0.505 -0.2839  1.6458  1.5586
 1859TIP3    H227137   4.190   0.134   0.476 -0.5317  1.1004 -0.8383
 1860TIP3   OH227138   4.165   0.392   7.352 -0.0038  0.2187 -0.0982
 1860TIP3    H127139   4.103   0.434   7.293  0.0322  0.9842  0.4007
 1860TIP3    H227140   4.251   0.417   7.317  0.0254 -0.1262 -0.2801
 1861TIP3   OH227141   0.326   3.507   7.659 -0.3749  0.1190  0.4698
 1861TIP3    H127142   0.255   3.445   7.646 -1.5289  1.6369 -0.7603
 1861TIP3    H227143   0.286   3.580   7.706 -0.3282  2.1294 -2.4147
 1862TIP3   OH227144   1.607   4.459   2.119 -0.3346  0.6069 -0.1510
 1862TIP3    H127145   1.632   4.402   2.192 -0.7988  0.1037 -0.3769
 1862TIP3    H227146   1.629   4.407   2.041  0.4716  1.2677 -0.3869
 1863TIP3   OH227147   5.262   3.262   7.486 -0.4359  0.3427 -0.0035
 1863TIP3    H127148   5.304   3.177   7.469 -0.3655  0.4473 -0.3529
 1863TIP3    H227149   5.279   3.278   7.579 -1.0103 -0.3401  0.2326
 1864TIP3   OH227150   3.077   2.783   1.906  0.1596  0.3835 -0.3829
 1864TIP3    H127151   3.128   2.702   1.899  0.4058  0.3319  1.4651
 1864TIP3    H227152   3.083   2.823   1.819  1.6654 -0.6187 -0.7804
 1865TIP3   OH227153   0.432   5.877   1.624 -0.2447  0.0228 -0.6597
 1865TIP3    H127154   0.342   5.854   1.602 -0.5231  0.0449  0.4439
 1865TIP3    H227155   0.426   5.965   1.660  0.4952  0.8639 -2.4412
 1866TIP3   OH227156   6.817   0.899   0.963  0.0405  0.2832 -0.0527
 1866TIP3    H127157   6.912   0.892   0.966 -0.0741 -1.4825  1.0733
 1866TIP3    H227158   6.785   0.810   0.981 -1.8254  0.6660 -1.1641
 1867TIP3   OH227159   1.780   3.967   6.985 -0.3809 -0.3260  0.2855
 1867TIP3    H127160   1.717   4.038   6.995 -0.0317  0.0375 -0.0036
 1867TIP3    H227161   1.777   3.945   6.892 -0.5413 -0.7461  0.3867
 1868TIP3   OH227162   6.779   3.962   1.709 -0.1636 -0.3932 -0.2264
 1868TIP3    H127163   6.749   3.881   1.751 -1.3765  0.5429  0.8150
 1868TIP3    H227164   6.740   3.959   1.622  0.9994 -1.5912 -0.7271
 1869TIP3   OH227165   1.822   5.779   6.796 -0.2951 -0.6078 -0.3415
 1869TIP3    H127166   1.817   5.836   6.718  1.2803 -1.2480 -0.9513
 1869TIP3    H227167   1.766   5.704   6.774 -1.0558 -0.0913 -0.2178
 1870TIP3   OH227168   2.485   0.969   0.474  0.1710 -0.0370  0.4611
 1870TIP3    H127169   2.528   0.977   0.559 -0.5480 -0.1150  0.8386
 1870TIP3    H227170   2.461   0.877   0.467  1.1284 -0.2473 -0.2834
 1871TIP3   OH227171   6.087   6.350   2.074  0.4915 -0.3890  0.6594
 1871TIP3    H127172   6.097   6.322   2.165 -1.7819 -0.2159  1.0210
 1871TIP3    H227173   6.071   6.444   2.080  1.3499 -0.1903 -0.0249
 1872TIP3   OH227174   1.872   6.711   0.686 -0.5885  0.3907  0.3120
 1872TIP3    H127175   1.802   6.768   0.654 -1.0259 -0.6342 -0.6067
 1872TIP3    H227176   1.950   6.766   0.684 -1.0709  1.0704 -0.2130
 1873TIP3   OH227177   6.570   1.450   7.676  0.9445  0.3367  0.6121
 1873TIP3    H127178   6.511   1.386   7.636 -0.2389  1.0398  1.1878
 1873TIP3    H227179   6.654   1.404   7.683  1.0722 -0.0107 -2.1059
 1874TIP3   OH227180   5.552   1.051   0.971 -0.1112 -0.2249  0.1745
 1874TIP3    H127181   5.589   1.134   0.944  0.8531 -0.6491  0.1663
 1874TIP3    H227182   5.483   1.074   1.034  0.4653  0.5427  0.5326
 1875TIP3   OH227183   4.177   3.108   0.818  0.1772  0.1905 -0.8564
 1875TIP3    H127184   4.124   3.183   0.843  0.8275  0.1906  0.5941
 1875TIP3    H227185   4.113   3.043   0.787 -0.4696  0.9550 -1.1713
 1876TIP3   OH227186   6.368   2.590   1.010 -0.5576  0.2065  0.3538
 1876TIP3    H127187   6.460   2.564   1.020 -0.6742 -1.1525 -1.5522
 1876TIP3    H227188   6.321   2.508   0.997 -1.3118  1.0381 -3.4016
 1877TIP3   OH227189   6.396   1.699   7.034 -0.1606  0.0138  0.2627
 1877TIP3    H127190   6.389   1.789   7.065  1.7398  0.4554 -0.4290
 1877TIP3    H227191   6.355   1.700   6.947 -1.6481 -0.2124  0.9417
 1878TIP3   OH227192   6.574   4.840   0.264 -0.4628  0.2364 -0.1034
 1878TIP3    H127193   6.643   4.814   0.325  0.3246  4.0423  0.8988
 1878TIP3    H227194   6.615   4.836   0.178  1.1511  2.5174  0.4887
 1879TIP3   OH227195   4.294   4.076   0.213  0.2623  0.6596  0.1353
 1879TIP3    H127196   4.247   4.132   0.151 -0.0356  1.1961  0.8324
 1879TIP3    H227197   4.272   3.987   0.186 -0.8754  0.8921  0.2200
 1880TIP3   OH227198   3.300   6.859   0.838  0.3155  0.0728 -0.4514
 1880TIP3    H127199   3.295   6.882   0.931 -1.1053 -1.1100 -0.2067
 1880TIP3    H227200   3.380   6.903   0.807  1.3930 -0.3371  1.5571
 1881TIP3   OH227201   2.320   4.929   7.141  0.0160  0.2021  0.1084
 1881TIP3    H127202   2.374   5.007   7.148 -2.2139  1.8252  0.1755
 1881TIP3    H227203   2.337   4.896   7.053  0.2689  1.3373 -0.2866
 1882TIP3   OH227204   3.371   1.746   6.986 -0.4938  0.0105  0.5383
 1882TIP3    H127205   3.284   1.721   7.017 -0.9529  1.4418  0.4842
 1882TIP3    H227206   3.417   1.772   7.066 -1.0103  1.7636  0.3078
 1883TIP3   OH227207   6.357   2.475   0.230  0.2259  0.0842 -0.0265
 1883TIP3    H127208   6.365   2.429   0.313  1.0414  0.9231  0.3739
 1883TIP3    H227209   6.369   2.406   0.164 -2.6155 -1.0003  0.4651
 1884TIP3   OH227210   4.909   4.966   6.964 -0.1596  0.0639 -0.1055
 1884TIP3    H127211   4.869   4.920   6.890  1.2454 -1.8537  0.2657
 1884TIP3    H227212   4.932   5.052   6.928 -0.6450 -0.3675 -1.5247
 1885TIP3   OH227213   2.160   4.486   7.301 -0.0517 -0.1161 -0.6156
 1885TIP3    H127214   2.223   4.555   7.316 -1.0696  1.2214 -2.1239
 1885TIP3    H227215   2.194   4.438   7.225  0.2704 -0.8387 -0.0330
 1886TIP3   OH227216   5.827   3.609   2.091  0.4917 -0.1480 -0.3607
 1886TIP3    H127217   5.894   3.659   2.140 -0.4841  0.2107  0.6585
 1886TIP3    H227218   5.748   3.616   2.145 -0.5638  0.0009 -1.8599
 1887TIP3   OH227219   2.483   4.189   2.428 -0.3150  0.1546  0.3013
 1887TIP3    H127220   2.547   4.234   2.483 -2.3548 -0.2458  3.2150
 1887TIP3    H227221   2.453   4.257   2.367 -1.1020  1.9927  2.5664
 1888TIP3   OH227222   2.559   2.558   7.100 -0.2508  0.2855  0.3649
 1888TIP3    H127223   2.644   2.571   7.058 -0.0922 -1.0194  0.2578
 1888TIP3    H227224   2.497   2.553   7.028 -0.1105 -0.9558  0.3104
 1889TIP3   OH227225   4.656   4.179   0.724 -0.3631 -0.6220  0.2272
 1889TIP3    H127226   4.602   4.105   0.753 -1.3960 -0.2683 -0.7567
 1889TIP3    H227227   4.616   4.208   0.642  1.3360 -0.3627 -0.5530
 1890TIP3   OH227228   0.401   5.928   8.003 -0.4634  0.5577  0.0496
 1890TIP3    H127229   0.462   5.942   8.076  0.0562 -1.6705  0.1050
 1890TIP3    H227230   0.348   5.853   8.029 -2.6066  1.8046 -0.4564
 1891TIP3   OH227231   5.836   4.447   8.169 -0.3814 -0.2076 -0.3816
 1891TIP3    H127232   5.927   4.443   8.199 -0.7708 -0.2948  0.8643
 1891TIP3    H227233   5.836   4.401   8.085  0.8055  0.2118 -0.6262
 1892TIP3   OH227234   2.875   4.317   7.906 -0.4668  0.3129 -0.0030
 1892TIP3    H127235   2.942   4.361   7.958  0.6882 -1.1697 -0.1406
 1892TIP3    H227236   2.886   4.351   7.818 -0.2923  0.5205  0.1002
 1893TIP3   OH227237   6.864   4.864   8.200 -0.2449  0.0238 -0.0881
 1893TIP3    H127238   6.878   4.956   8.222  2.0343 -0.2704 -0.0681
 1893TIP3    H227239   6.845   4.821   8.283  0.1552  0.2530  0.1248
 1894TIP3   OH227240   6.235   4.083   0.513  0.1606  0.1293 -0.0332
 1894TIP3    H127241   6.159   4.103   0.567  0.2990  0.5576  0.0038
 1894TIP3    H227242   6.269   4.168   0.486  0.4316 -0.0673 -0.3229
 1895TIP3   OH227243   0.827   1.627   1.057 -0.5491 -0.4458 -0.1207
 1895TIP3    H127244   0.773   1.705   1.066  0.1414 -0.0891  1.2031
 1895TIP3    H227245   0.916   1.661   1.043 -0.5389 -1.0161 -1.5330
 1896TIP3   OH227246   2.913   4.374   6.724 -0.1400  0.4574  0.4304
 1896TIP3    H127247   2.876   4.396   6.809 -0.8856 -1.1457  0.5593
 1896TIP3    H227248   2.871   4.435   6.663  0.7714  1.9375  1.2589
 1897TIP3   OH227249   2.161   4.172   8.331  0.2326  0.4987  0.0874
 1897TIP3    H127250   2.253   4.197   8.325  0.0269  1.8077  1.6192
 1897TIP3    H227251   2.143   4.126   8.249  2.6906 -1.3835  0.4559
 1898TIP3   OH227252   0.034   1.270   1.399 -0.4254 -0.6678 -0.0070
 1898TIP3    H127253  -0.058   1.255   1.423 -0.7198 -1.7386 -1.6671
 1898TIP3    H227254   0.081   1.196   1.435 -0.2587 -0.3143  0.5139
 1899TIP3   OH227255   5.937   1.710   7.824  0.5934 -0.4316  0.6402
 1899TIP3    H127256   5.919   1.800   7.799  0.1983 -0.0367  2.2327
 1899TIP3    H227257   6.005   1.716   7.891  0.4988 -1.3048  0.8293
 1900TIP3   OH227258   5.803   0.539   6.955  0.3271 -0.3645 -0.1710
 1900TIP3    H127259   5.746   0.469   6.924  0.7735  0.0957 -2.1155
 1900TIP3    H227260   5.797   0.607   6.888 -1.3087  2.2125  2.3422
 1901TIP3   OH227261   4.974   6.150   7.183  0.4034  0.1202  0.2646
 1901TIP3    H127262   5.044   6.099   7.225  0.9779  2.6252  2.6440
 1901TIP3    H227263   5.020   6.212   7.126  0.3609  2.3739  2.5040
 1902TIP3   OH227264   2.129   2.143   7.771 -0.2344 -0.2470  0.1125
 1902TIP3    H127265   2.192   2.203   7.811 -1.6053  2.2842 -1.2559
 1902TIP3    H227266   2.163   2.129   7.682 -0.8248 -0.0847 -0.1416
 1903TIP3   OH227267   3.020   1.167   6.716 -0.4447 -0.3917  0.5056
 1903TIP3    H127268   2.967   1.239   6.682 -1.2646 -0.9486  0.5549
 1903TIP3    H227269   3.110   1.198   6.712 -0.6120 -0.0438 -1.1591
 1904TIP3   OH227270   2.634   5.985   0.125 -0.2783  0.0979 -0.5011
 1904TIP3    H127271   2.607   6.064   0.171 -0.1310  0.3296 -0.8082
 1904TIP3    H227272   2.575   5.978   0.051 -0.6092 -0.3573 -0.1987
 1905TIP3   OH227273   6.272   1.700   8.617  0.6537 -0.2389  0.3381
 1905TIP3    H127274   6.220   1.686   8.538  1.8075 -0.6246 -0.3815
 1905TIP3    H227275   6.252   1.625   8.673  0.3304 -0.3035  0.1380
 1906TIP3   OH227276   6.729   6.613   1.298 -0.2923  0.0943  0.7006
 1906TIP3    H127277   6.663   6.602   1.229  0.8506  0.1095 -0.4215
 1906TIP3    H227278   6.740   6.526   1.335 -1.4255  0.2179  1.3599
 1907TIP3   OH227279   0.768   4.299   6.199  0.6609  0.2730  0.5236
 1907TIP3    H127280   0.784   4.285   6.106 -1.5745  3.2482 -0.4943
 1907TIP3    H227281   0.803   4.386   6.216  0.7666 -0.1033  2.4136
 1908TIP3   OH227282   2.261   6.134   6.468  0.9055 -0.3033 -0.4908
 1908TIP3    H127283   2.276   6.212   6.415 -0.8779  0.0449 -0.5656
 1908TIP3    H227284   2.244   6.167   6.556  1.1362 -0.6757 -0.3032
 1909TIP3   OH227285   0.764   2.950   8.030 -0.1855  0.0384 -0.1630
 1909TIP3    H127286   0.804   2.868   8.058 -1.1035 -0.5292 -0.4845
 1909TIP3    H227287   0.696   2.967   8.096 -0.7115 -0.0210 -0.6852
 1910TIP3   OH227288   0.975   0.065   1.491  0.2445 -0.4333  0.2356
 1910TIP3    H127289   0.918   0.104   1.425  0.4830 -2.4228 -1.2235
 1910TIP3    H227290   1.063   0.080   1.459  0.3451 -1.9441 -0.2601
 1911TIP3   OH227291   2.901   1.870   1.284  0.3448 -0.0108 -0.2713
 1911TIP3    H127292   2.827   1.927   1.265  0.3535  0.1491  0.1638
 1911TIP3    H227293   2.869   1.810   1.352  1.0521  1.0282  1.0331
 1912TIP3   OH227294   6.259   6.256   1.459 -0.0007  0.4737  0.2708
 1912TIP3    H127295   6.171   6.219   1.458 -0.4324  1.3960 -1.6376
 1912TIP3    H227296   6.307   6.202   1.521 -1.7677 -0.3790  0.9718
 1913TIP3   OH227297   0.649   3.415   0.348  0.5421  0.4137 -0.3446
 1913TIP3    H127298   0.565   3.371   0.362 -0.4362  1.3585 -2.7079
 1913TIP3    H227299   0.714   3.352   0.380 -0.8808 -2.0155 -1.9069
 1914TIP3   OH227300   1.723   2.615   0.048 -0.2129  0.1410  0.3626
 1914TIP3    H127301   1.732   2.710   0.049 -0.4538  0.1689 -0.1793
 1914TIP3    H227302   1.689   2.593   0.135 -0.5245  0.5819  0.3518
 1915TIP3   OH227303   4.028   6.635   0.087 -0.1009 -0.3940 -0.1149
 1915TIP3    H127304   4.053   6.629  -0.005 -0.4911  0.8920 -0.3266
 1915TIP3    H227305   4.104   6.604   0.135  0.4257 -0.2650 -0.8529
 1916TIP3   OH227306   3.205   6.863   7.944  0.2640  0.4098 -0.2222
 1916TIP3    H127307   3.194   6.821   8.030  0.8117 -1.0784 -0.8328
 1916TIP3    H227308   3.226   6.954   7.964  1.8362 -0.2244  1.2902
 1917TIP3   OH227309   3.676   6.556   8.525  0.3336 -0.3307  0.5263
 1917TIP3    H127310   3.624   6.539   8.603 -0.7083 -1.4674 -0.3731
 1917TIP3    H227311   3.758   6.510   8.540  0.3192 -0.1663  1.1312
 1918TIP3   OH227312   2.192   3.579   7.565 -0.2255  0.2256  0.0612
 1918TIP3    H127313   2.127   3.558   7.632  0.4591  0.0316  0.6785
 1918TIP3    H227314   2.217   3.494   7.528  1.2409  0.0488  1.3307
 1919TIP3   OH227315   0.848   4.477   0.335  0.0991  0.8553 -0.3645
 1919TIP3    H127316   0.841   4.525   0.252  0.0487  0.0392 -0.8473
 1919TIP3    H227317   0.827   4.386   0.311  0.4033  0.5575  0.4863
 1920TIP3   OH227318   1.202   1.391   7.283 -0.2208  0.1711 -0.2186
 1920TIP3    H127319   1.115   1.427   7.270  0.2012  2.0342  1.6500
 1920TIP3    H227320   1.203   1.359   7.373  1.4060  1.4518  0.2736
 1921TIP3   OH227321   4.719   0.806   1.247  0.1827  0.3237 -0.0850
 1921TIP3    H127322   4.739   0.892   1.283  2.8315 -0.2236 -0.0449
 1921TIP3    H227323   4.784   0.748   1.286 -0.9009 -1.5327 -0.8894
 1922TIP3   OH227324   5.248   5.127   0.878 -0.5528  0.0457 -0.4396
 1922TIP3    H127325   5.325   5.183   0.887  0.0395 -0.8705  0.3345
 1922TIP3    H227326   5.247   5.104   0.785 -0.3886  0.7468 -0.6234
 1923TIP3   OH227327   1.699   6.727   8.502  0.3037 -0.1019  0.1534
 1923TIP3    H127328   1.660   6.640   8.510 -0.5140  0.1632 -0.7175
 1923TIP3    H227329   1.787   6.711   8.468 -0.6349 -0.5107 -2.2628
 1924TIP3   OH227330   2.523   1.305   0.016  0.7379  0.0489  0.6818
 1924TIP3    H127331   2.613   1.338   0.026  1.6272 -1.6257 -1.0491
 1924TIP3    H227332   2.534   1.212  -0.002 -1.5172 -0.7431  2.8062
 1925TIP3   OH227333   1.993   0.425   1.530 -0.1186 -0.3885 -0.2314
 1925TIP3    H127334   2.079   0.452   1.564  0.4104  1.1603 -2.5511
 1925TIP3    H227335   1.953   0.376   1.602  2.0506  0.2003  1.4914
 1926TIP3   OH227336   1.908   4.338   1.021  0.1287 -0.4194  0.3698
 1926TIP3    H127337   1.981   4.349   1.082 -0.7981 -0.8895  1.6023
 1926TIP3    H227338   1.831   4.367   1.071 -0.6490 -0.7949 -0.5880
 1927TIP3   OH227339   1.086   1.352   0.396  0.6123  0.4568  0.2060
 1927TIP3    H127340   1.046   1.437   0.376 -3.0582 -0.8299  1.3481
 1927TIP3    H227341   1.078   1.302   0.315 -3.9634 -1.0455  1.3425
 1928TIP3   OH227342   6.150   2.140   0.400 -0.1348 -0.2212 -0.7600
 1928TIP3    H127343   6.077   2.107   0.452 -0.2612 -0.3289 -1.0035
 1928TIP3    H227344   6.207   2.184   0.463 -1.3478  1.5605 -0.8161
 1929TIP3   OH227345   6.575   4.544   7.584  0.3654  0.1207 -0.3304
 1929TIP3    H127346   6.662   4.574   7.558  0.7369  0.1263  0.8370
 1929TIP3    H227347   6.582   4.449   7.587  0.1981  0.0976 -0.6769
 1930TIP3   OH227348   5.166   0.191   7.996 -0.3698  0.1032  0.0167
 1930TIP3    H127349   5.097   0.249   7.965 -1.0785  0.1131  1.5393
 1930TIP3    H227350   5.126   0.140   8.065  0.8026 -0.8043  0.0596
 1931TIP3   OH227351   3.107   0.953   0.276 -0.1647  0.0449  0.7488
 1931TIP3    H127352   3.200   0.964   0.296  0.1414 -1.1789  0.1206
 1931TIP3    H227353   3.062   1.005   0.342  0.9603  0.4784  1.2029
 1932TIP3   OH227354   3.419   4.591   2.082  0.0615  0.6390  0.1058
 1932TIP3    H127355   3.344   4.650   2.090  1.2160  2.0561  0.8360
 1932TIP3    H227356   3.474   4.631   2.016 -0.0616 -0.7162 -0.8721
 1933TIP3   OH227357   3.286   1.026   7.441 -0.0087  0.0798  0.5816
 1933TIP3    H127358   3.308   1.052   7.351  0.1277  1.3021  0.9446
 1933TIP3    H227359   3.366   1.041   7.490 -0.7066  1.6355  1.3303
 1934TIP3   OH227360   3.127   4.307   8.452  0.7916 -0.0718 -0.5206
 1934TIP3    H127361   3.147   4.389   8.406 -1.9662 -0.0817 -1.9025
 1934TIP3    H227362   3.090   4.250   8.385 -1.0191 -1.0317  1.2025
 1935TIP3   OH227363   4.997   2.569   8.250 -0.8459  0.1038 -0.7795
 1935TIP3    H127364   4.971   2.567   8.342  1.1553 -1.8643 -0.1445
 1935TIP3    H227365   4.929   2.520   8.204 -1.8689  1.1151 -0.3764
 1936TIP3   OH227366   1.836   3.225   0.109  0.3885 -0.0773  0.1937
 1936TIP3    H127367   1.866   3.226   0.018 -0.6691 -2.0599 -0.2358
 1936TIP3    H227368   1.750   3.268   0.106  0.2771 -0.2988  0.2269
 1937TIP3   OH227369   0.416   5.219   6.628  0.0173 -0.6085  0.6023
 1937TIP3    H127370   0.404   5.142   6.683 -0.4048 -0.4692  0.7104
 1937TIP3    H227371   0.460   5.185   6.550 -1.5327 -1.2644 -0.0385
 1938TIP3   OH227372   6.691   6.550   7.127  0.1919 -0.2642 -0.1162
 1938TIP3    H127373   6.729   6.477   7.078 -1.0377 -1.0305  0.0057
 1938TIP3    H227374   6.650   6.605   7.061  0.4391 -0.1107 -0.1410
 1939TIP3   OH227375   4.729   1.629   7.186 -0.8348  0.1813  0.3953
 1939TIP3    H127376   4.672   1.557   7.212 -0.0429 -0.7640 -0.4444
 1939TIP3    H227377   4.745   1.616   7.093  1.8180 -0.3770  0.8468
 1940TIP3   OH227378   0.439   1.694   6.711 -0.2155  0.4202 -0.3544
 1940TIP3    H127379   0.498   1.620   6.697 -1.1561 -0.4842  0.3479
 1940TIP3    H227380   0.449   1.748   6.633  0.0372 -0.7597 -1.1569
 1941TIP3   OH227381   6.812   4.828   7.457  0.8183  0.0501 -0.1453
 1941TIP3    H127382   6.841   4.745   7.495 -2.0628 -0.8234  0.4049
 1941TIP3    H227383   6.835   4.894   7.523 -1.7383 -1.0996  2.0980
 1942TIP3   OH227384   2.324   5.551   2.000 -0.2439 -0.3869 -0.3615
 1942TIP3    H127385   2.270   5.524   1.926 -0.4890  0.2595 -0.4283
 1942TIP3    H227386   2.384   5.616   1.963  0.9334 -1.4619 -0.3970
 1943TIP3   OH227387   3.885   5.731   1.246  0.1388 -0.5241  0.2394
 1943TIP3    H127388   3.875   5.638   1.225 -2.9145 -0.7602  2.1253
 1943TIP3    H227389   3.930   5.731   1.330  1.1173 -0.1915 -0.2681
 1944TIP3   OH227390   2.621   6.803   7.154  0.3456 -0.0031 -0.2707
 1944TIP3    H127391   2.560   6.875   7.169  0.6317  0.6602 -2.0888
 1944TIP3    H227392   2.565   6.727   7.138 -0.0172  0.3956 -0.9682
 1945TIP3   OH227393   5.030   0.535   8.560 -0.5794  0.5085 -0.1344
 1945TIP3    H127394   5.075   0.588   8.625 -0.7333 -0.3486  0.6980
 1945TIP3    H227395   5.039   0.445   8.592  0.6021 -0.1303 -2.0229
 1946TIP3   OH227396   1.031   2.726   7.406  0.0655  0.2280  0.4884
 1946TIP3    H127397   1.025   2.821   7.411  2.0584  0.3492  1.1307
 1946TIP3    H227398   0.957   2.695   7.458 -1.1827  1.3863 -0.5148
 1947TIP3   OH227399   1.167   3.346   6.242  0.0657 -0.0559 -0.9020
 1947TIP3    H127400   1.162   3.258   6.206 -0.4979 -0.0425 -0.8659
 1947TIP3    H227401   1.224   3.338   6.318  2.0755  0.1023 -2.3132
 1948TIP3   OH227402   1.666   6.493   7.911 -0.6569 -0.0573 -0.3679
 1948TIP3    H127403   1.707   6.420   7.863 -1.5383 -0.8789  0.0978
 1948TIP3    H227404   1.596   6.523   7.853 -0.1996  0.5385 -0.6245
 1949TIP3   OH227405   4.473   3.512   1.565  0.0966  0.4142 -0.5718
 1949TIP3    H127406   4.386   3.550   1.576 -0.7239 -0.4600 -3.2342
 1949TIP3    H227407   4.457   3.418   1.558  0.5459  0.4360 -5.2402
 1950TIP3   OH227408   4.697   0.765   8.662  0.3533  0.1128 -0.2097
 1950TIP3    H127409   4.745   0.691   8.698  1.2013  0.5682 -0.3637
 1950TIP3    H227410   4.624   0.778   8.722  1.8691  1.0209  1.5587
 1951TIP3   OH227411   5.222   4.015   0.111 -0.0867  0.2195  0.1327
 1951TIP3    H127412   5.281   3.959   0.061  1.6428  1.7007  0.3662
 1951TIP3    H227413   5.226   3.981   0.200 -1.6910 -1.2645 -0.3078
 1952TIP3   OH227414   0.283   4.208   0.343  0.1980 -0.0413  0.1550
 1952TIP3    H127415   0.216   4.147   0.315  1.3156 -0.1677 -2.5242
 1952TIP3    H227416   0.256   4.292   0.306  1.6385 -0.1786 -1.3319
 1953TIP3   OH227417   1.386   3.454   8.556 -0.5425  0.0137 -0.4289
 1953TIP3    H127418   1.381   3.475   8.463  0.9896  0.0059 -0.5255
 1953TIP3    H227419   1.393   3.539   8.599  0.8901 -0.0550 -0.4887
 1954TIP3   OH227420   3.561   2.153   7.840 -0.5252 -0.3117  0.1706
 1954TIP3    H127421   3.645   2.128   7.877 -0.3534  0.8627  0.6127
 1954TIP3    H227422   3.547   2.092   7.768  0.8800 -0.2633 -0.1556
 1955TIP3   OH227423   6.467   3.681   6.938 -0.1560  0.0465  0.6330
 1955TIP3    H127424   6.522   3.684   7.016  1.3953  2.3938 -0.4360
 1955TIP3    H227425   6.516   3.732   6.873 -2.1965 -0.3838 -1.3311
 1956TIP3   OH227426   2.215   2.658   1.359  0.4403 -0.4958 -0.1067
 1956TIP3    H127427   2.287   2.613   1.315  0.9269  0.3891 -0.2519
 1956TIP3    H227428   2.258   2.717   1.421 -0.2099 -0.9508  0.7967
 1957TIP3   OH227429   3.336   4.242   7.767  0.4693 -0.4760 -0.4286
 1957TIP3    H127430   3.350   4.321   7.819  1.4731 -0.3963 -0.7978
 1957TIP3    H227431   3.316   4.174   7.832  2.1140 -0.4762  0.1297
 1958TIP3   OH227432   1.217   4.428   1.248  0.1143  0.0586 -0.4350
 1958TIP3    H127433   1.209   4.371   1.171  0.0714 -0.7029  0.1236
 1958TIP3    H227434   1.129   4.465   1.259  0.0354 -0.0949 -0.5446
 1959TIP3   OH227435   1.137   2.532   8.393 -0.1724  0.3684 -0.2124
 1959TIP3    H127436   1.215   2.566   8.437 -2.8185  1.1449  4.5966
 1959TIP3    H227437   1.124   2.445   8.431 -2.6576  1.0770  0.7458
 1960TIP3   OH227438   0.335   0.252   7.505  0.7354 -0.0010  0.3198
 1960TIP3    H127439   0.321   0.280   7.596  1.3327  0.2942  0.3270
 1960TIP3    H227440   0.334   0.333   7.454 -0.4764 -0.2387 -0.0682
 1961TIP3   OH227441   3.920   1.682   2.038  0.1475  0.2856 -0.2438
 1961TIP3    H127442   3.829   1.653   2.025  0.3587 -0.3858 -0.2595
 1961TIP3    H227443   3.915   1.777   2.036 -0.6720  0.2769  0.5042
 1962TIP3   OH227444   4.394   6.786   0.257 -0.0159  0.4752 -0.1564
 1962TIP3    H127445   4.359   6.696   0.257 -0.5936  0.6081  2.4644
 1962TIP3    H227446   4.346   6.830   0.328  2.6036  1.8607  0.9091
 1963TIP3   OH227447   6.641   4.508   2.342  0.1785 -0.7776  0.1653
 1963TIP3    H127448   6.734   4.528   2.327  0.3939 -1.1635  0.9414
 1963TIP3    H227449   6.594   4.574   2.291  0.8790  0.1931  0.7366
 1964TIP3   OH227450   1.577   6.803   8.114 -0.7569 -0.4156 -0.1670
 1964TIP3    H127451   1.545   6.751   8.187  0.6078 -0.7975  0.1850
 1964TIP3    H227452   1.620   6.740   8.056  1.2381  0.3255  0.4412
 1965TIP3   OH227453   0.171   0.366   0.487 -0.2692  0.1019  0.1701
 1965TIP3    H127454   0.159   0.356   0.392 -0.3455 -0.6067  0.2503
 1965TIP3    H227455   0.128   0.449   0.507 -3.3265 -1.3024  0.0982
 1966TIP3   OH227456   2.388   2.121   7.978  0.0497  0.0608 -0.5110
 1966TIP3    H127457   2.311   2.125   8.034 -0.2341 -0.4808 -0.8511
 1966TIP3    H227458   2.448   2.185   8.015 -0.2156 -0.1368  0.2744
 1967TIP3   OH227459   3.345   1.489   1.863 -0.5654 -0.1342 -0.2725
 1967TIP3    H127460   3.401   1.563   1.841 -0.5774  0.5963  1.8999
 1967TIP3    H227461   3.263   1.529   1.893 -0.9222 -1.0430  0.0039
 1968TIP3   OH227462   3.874   3.815   1.676  0.0150 -0.1974 -0.1613
 1968TIP3    H127463   3.954   3.848   1.635  0.5399  0.9048  1.6662
 1968TIP3    H227464   3.900   3.732   1.716  0.2142  0.0661  0.2653
 1969TIP3   OH227465   5.153   3.396   2.109  0.2638  0.3371  0.3252
 1969TIP3    H127466   5.141   3.317   2.058  0.5271  1.1639 -1.0687
 1969TIP3    H227467   5.092   3.459   2.071 -0.3950  0.6497  1.8120
 1970TIP3   OH227468   2.604   5.336   2.517 -1.1597 -0.0871  0.6837
 1970TIP3    H127469   2.513   5.351   2.540 -1.2015  0.1611  0.3615
 1970TIP3    H227470   2.636   5.276   2.584 -1.3380  0.4474  1.2504
 1971TIP3   OH227471   1.832   2.046   7.004 -0.5162  0.3311  0.2671
 1971TIP3    H127472   1.850   1.954   6.985 -0.7676  0.4158 -0.4206
 1971TIP3    H227473   1.849   2.091   6.921 -2.4667  0.6090 -0.0382
 1972TIP3   OH227474   1.424   6.822   0.665  0.5025  0.4383  0.2281
 1972TIP3    H127475   1.389   6.877   0.595 -0.6738 -1.9350 -1.1836
 1972TIP3    H227476   1.379   6.852   0.744  0.9715  2.3834 -0.1845
 1973TIP3   OH227477   4.710   5.784   6.772  0.5228  0.0202 -0.0816
 1973TIP3    H127478   4.707   5.703   6.722  1.9255 -0.5490  0.6814
 1973TIP3    H227479   4.638   5.777   6.834 -1.5846  0.9656 -2.2449
 1974TIP3   OH227480   1.043   1.631   7.266 -0.1705 -0.0007  0.5294
 1974TIP3    H127481   1.012   1.690   7.197 -0.2712 -3.0885 -2.2612
 1974TIP3    H227482   0.964   1.607   7.314 -0.1921  1.6525  1.3944
 1975TIP3   OH227483   1.473   3.072   0.367  0.0510 -0.0299  0.0692
 1975TIP3    H127484   1.397   3.070   0.425  0.8163 -0.2576  1.1011
 1975TIP3    H227485   1.535   3.130   0.412 -0.1474  1.5546 -1.5944
 1976TIP3   OH227486   6.517   3.703   8.001 -0.7434  0.0027 -0.1731
 1976TIP3    H127487   6.437   3.696   7.948 -0.6152  0.4556 -0.4349
 1976TIP3    H227488   6.554   3.615   7.999 -2.3031 -0.7582  1.6758
 1977TIP3   OH227489   1.614   6.518   8.172  0.5610 -0.1757 -0.0662
 1977TIP3    H127490   1.658   6.501   8.089 -0.1532 -1.9946 -0.1210
 1977TIP3    H227491   1.572   6.435   8.194 -0.3220  0.6401  1.4862
 1978TIP3   OH227492   1.690   5.732   2.262  0.0485  0.7728  0.6787
 1978TIP3    H127493   1.733   5.649   2.282  0.8011  0.2865 -2.4112
 1978TIP3    H227494   1.599   5.719   2.289 -0.4029 -2.0071 -1.7037
 1979TIP3   OH227495   0.490   1.897   1.338 -0.2338 -0.0753  0.1973
 1979TIP3    H127496   0.465   1.929   1.425  0.4249 -1.6984  1.0273
 1979TIP3    H227497   0.504   1.803   1.350 -1.2900 -0.5647 -1.9424
 1980TIP3   OH227498   3.926   5.383   7.658 -0.1070 -0.2309 -0.1000
 1980TIP3    H127499   3.983   5.363   7.583  0.6416  1.1496  0.0554
 1980TIP3    H227500   3.856   5.319   7.652  0.3463 -0.6533 -1.5391
 1981TIP3   OH227501   5.216   5.492   8.632  0.4839 -0.7376 -0.5629
 1981TIP3    H127502   5.147   5.428   8.615  0.2746 -1.5884  2.8515
 1981TIP3    H227503   5.175   5.577   8.613 -0.4912 -1.3923 -1.4539
 1982TIP3   OH227504   4.673   3.524   1.133  0.4082  0.1910  0.2338
 1982TIP3    H127505   4.633   3.478   1.206  2.4188  0.6586  1.7364
 1982TIP3    H227506   4.733   3.460   1.094 -0.1403  0.1611 -0.5810
 1983TIP3   OH227507   6.198   3.989   1.240 -0.4403 -0.1642 -0.1009
 1983TIP3    H127508   6.127   3.985   1.176 -0.6088 -0.4908  0.1122
 1983TIP3    H227509   6.155   3.998   1.325 -0.2485 -1.2010  0.1106
 1984TIP3   OH227510   5.586   3.969   1.054  0.0416 -0.2900 -0.6076
 1984TIP3    H127511   5.492   3.976   1.038 -0.4714 -1.7747  1.3960
 1984TIP3    H227512   5.615   4.058   1.072 -1.2131  0.0222 -0.0641
 1985TIP3   OH227513   1.147   2.720   0.505 -0.1487  0.2731  0.2234
 1985TIP3    H127514   1.070   2.717   0.448  0.6074  1.0263 -0.8877
 1985TIP3    H227515   1.114   2.756   0.588 -1.4940 -1.9134  0.7223
 1986TIP3   OH227516   0.776   3.014   0.106  0.3760  0.4533  0.0728
 1986TIP3    H127517   0.705   2.965   0.065  1.2830 -1.8563  1.0815
 1986TIP3    H227518   0.855   2.986   0.060  0.9744  0.6842  0.9202
 1987TIP3   OH227519   1.287   6.591   5.806  0.3813  0.5196  0.2067
 1987TIP3    H127520   1.221   6.660   5.804 -0.2442  0.0873  2.7039
 1987TIP3    H227521   1.304   6.577   5.899  1.0144 -2.2027 -0.2488
 1988TIP3   OH227522   4.451   2.401   1.260  0.1256  0.4205  0.4311
 1988TIP3    H127523   4.424   2.314   1.290 -1.3416  0.6062 -0.2569
 1988TIP3    H227524   4.394   2.419   1.186  0.8837  1.6967  0.1333
 1989TIP3   OH227525   0.758   6.556   1.309 -0.0486 -0.4969  0.5403
 1989TIP3    H127526   0.692   6.623   1.325  0.9071  0.6858 -0.2757
 1989TIP3    H227527   0.710   6.484   1.267 -1.0114 -0.1829  1.0727
 1990TIP3   OH227528   1.838   5.816   0.209 -0.6352 -0.2187  0.0817
 1990TIP3    H127529   1.782   5.865   0.269  0.1055  0.3259  0.3260
 1990TIP3    H227530   1.861   5.737   0.257  0.8128  0.6943  0.9376
 1991TIP3   OH227531   6.461   5.065   0.906 -0.2588 -0.2415  0.2281
 1991TIP3    H127532   6.462   4.986   0.851  0.6160 -1.2611  1.6354
 1991TIP3    H227533   6.548   5.068   0.945 -0.3591  1.3192  0.3770
 1992TIP3   OH227534   2.021   3.107   0.296  0.1214 -0.3759 -0.3634
 1992TIP3    H127535   2.091   3.144   0.243  0.7971 -1.5662 -0.3234
 1992TIP3    H227536   1.940   3.141   0.257  0.7058  1.0993 -0.3328
 1993TIP3   OH227537   6.220   3.503   1.720 -0.0468 -0.5130 -0.0143
 1993TIP3    H127538   6.174   3.587   1.708  0.0572 -0.5201 -0.4729
 1993TIP3    H227539   6.307   3.518   1.682  0.3217 -0.5154  0.8120
 1994TIP3   OH227540   2.242   1.826   0.235  0.7718 -0.2238  0.1095
 1994TIP3    H127541   2.226   1.874   0.316  2.2916  0.4786  0.0475
 1994TIP3    H227542   2.160   1.834   0.185  0.8279  2.0736  0.2553
 1995TIP3   OH227543   2.754   1.378   7.490  0.1689  0.0315  0.1357
 1995TIP3    H127544   2.820   1.309   7.484  1.0122  0.8694 -0.4081
 1995TIP3    H227545   2.695   1.361   7.418  0.0254 -0.4759  0.3689
 1996TIP3   OH227546   2.849   3.686   7.041 -0.0520  0.4097 -0.4746
 1996TIP3    H127547   2.917   3.620   7.036  0.1434  0.5533  0.2181
 1996TIP3    H227548   2.868   3.747   6.970  0.2598  0.1853 -0.5798
 1997TIP3   OH227549   3.817   2.165   7.964  0.2121  0.6555  0.4013
 1997TIP3    H127550   3.875   2.130   7.897 -1.1148 -0.7511 -0.0832
 1997TIP3    H227551   3.833   2.110   8.041 -0.2994  0.3944  0.3287
 1998TIP3   OH227552   6.827   2.452   0.791 -0.0848  0.0148 -0.3440
 1998TIP3    H127553   6.864   2.540   0.794  3.3920 -1.3273  0.0385
 1998TIP3    H227554   6.832   2.426   0.699 -0.3647 -0.0804 -0.3335
 1999TIP3   OH227555   0.804   1.103   1.750 -0.1115  0.1691  0.2363
 1999TIP3    H127556   0.741   1.060   1.692  1.2737  0.8714 -1.9337
 1999TIP3    H227557   0.760   1.182   1.780 -0.8139 -0.1444  0.0593
 2000TIP3   OH227558   3.946   5.513   6.347  0.4296 -0.1890 -0.7475
 2000TIP3    H127559   3.939   5.560   6.430 -1.1290  0.0416 -0.9727
 2000TIP3    H227560   4.038   5.489   6.340  0.8278  0.9259  0.4186
 2001TIP3   OH227561   3.304   3.891   0.581 -0.1985 -0.5637 -0.0439
 2001TIP3    H127562   3.386   3.843   0.569 -0.3328 -0.4110 -1.8206
 2001TIP3    H227563   3.303   3.914   0.674  2.5027  0.7803 -0.2658
 2002TIP3   OH227564   5.423   5.901   8.024  1.0630  0.4814 -0.5866
 2002TIP3    H127565   5.484   5.833   7.996  1.7315  0.1548  1.4504
 2002TIP3    H227566   5.479   5.970   8.060  0.2879  0.6231  0.4029
 2003TIP3   OH227567   5.933   5.027   0.851  0.4809  0.2525 -0.0253
 2003TIP3    H127568   5.877   5.102   0.872  1.0861  0.7333 -0.1078
 2003TIP3    H227569   5.899   4.956   0.904  0.3383  0.7671  0.5781
 2004TIP3   OH227570   0.246   5.099   0.769 -0.5534 -0.6351  0.9394
 2004TIP3    H127571   0.265   5.136   0.856 -0.2545  0.6527  0.3445
 2004TIP3    H227572   0.318   5.129   0.714 -2.3672  1.3049 -0.5230
 2005TIP3   OH227573   1.420   1.874   7.610 -0.0387  0.3369 -0.1285
 2005TIP3    H127574   1.466   1.928   7.674 -2.2723  1.5824  0.5508
 2005TIP3    H227575   1.439   1.917   7.526 -0.7820  1.5099  0.2697
 2006TIP3   OH227576   6.432   6.840   2.543  0.2518 -0.1429  0.2147
 2006TIP3    H127577   6.479   6.771   2.497 -0.8308 -0.2075 -0.8433
 2006TIP3    H227578   6.418   6.805   2.631  0.6909 -0.8153  0.0210
 2007TIP3   OH227579   3.051   6.350   8.486  0.2395 -0.0686 -0.4869
 2007TIP3    H127580   3.036   6.436   8.446  2.1041  0.7093  0.3907
 2007TIP3    H227581   3.103   6.302   8.421  0.6120  0.0595 -0.2808
 2008TIP3   OH227582   2.488   0.384   7.004 -0.1037 -0.3076 -0.4993
 2008TIP3    H127583   2.528   0.311   6.957  0.5928 -0.0733 -0.2879
 2008TIP3    H227584   2.433   0.427   6.939 -0.2507 -0.8144 -0.7180
 2009TIP3   OH227585   3.386   4.837   0.259  0.9406  0.6529 -0.5670
 2009TIP3    H127586   3.365   4.929   0.245 -0.8753  0.1478 -1.4599
 2009TIP3    H227587   3.328   4.789   0.199 -0.9727 -1.2641  2.5235
 2010TIP3   OH227588   3.587   2.349   2.139  0.0851  0.3799 -0.3894
 2010TIP3    H127589   3.546   2.423   2.093  0.0078 -0.3624 -1.5518
 2010TIP3    H227590   3.653   2.390   2.196  0.3748  1.3233 -1.3629
 2011TIP3   OH227591   6.386   1.714   8.339 -0.4302 -0.0825  0.0846
 2011TIP3    H127592   6.405   1.728   8.432  0.5982 -0.6400 -0.0266
 2011TIP3    H227593   6.452   1.766   8.293 -0.0824 -0.8643 -0.3232
 2012TIP3   OH227594   4.068   1.302   0.551 -0.0896 -0.4942 -0.6326
 2012TIP3    H127595   4.090   1.266   0.636 -1.2310  1.0363  0.3785
 2012TIP3    H227596   4.152   1.311   0.506  0.6086 -0.7099  0.5845
 2013TIP3   OH227597   2.349   2.282   1.246 -0.1921 -0.0226  0.7598
 2013TIP3    H127598   2.399   2.251   1.322  0.9910  1.4019  0.6199
 2013TIP3    H227599   2.353   2.378   1.253 -0.8287  0.1226 -0.6260
 2014TIP3   OH227600   6.742   2.684   0.529  0.3194  0.0774  0.0900
 2014TIP3    H127601   6.660   2.719   0.564 -0.6150  0.1610 -2.0079
 2014TIP3    H227602   6.775   2.753   0.472  0.2334 -1.1030 -1.4591
 2015TIP3   OH227603   4.302   3.401   8.532  0.0788  0.2434 -0.0361
 2015TIP3    H127604   4.291   3.474   8.470  2.8530  0.5412 -0.3248
 2015TIP3    H227605   4.261   3.432   8.613  1.1164  2.1505 -0.1798
 2016TIP3   OH227606   2.190   3.969   0.565  1.0879 -0.3050  0.0388
 2016TIP3    H127607   2.225   3.932   0.484  0.5613 -1.5674  0.3636
 2016TIP3    H227608   2.104   4.003   0.540  0.9638 -0.6119  0.0444
 2017TIP3   OH227609   1.911   4.970   1.331 -0.1669  0.0855 -0.1411
 2017TIP3    H127610   1.999   4.940   1.351  0.2002  1.1127 -0.1236
 2017TIP3    H227611   1.917   5.066   1.337 -1.6378  0.1222  1.3182
 2018TIP3   OH227612   6.840   3.634   2.075 -0.0041 -0.4313  0.2248
 2018TIP3    H127613   6.885   3.550   2.079  0.2592 -0.4516 -1.8600
 2018TIP3    H227614   6.763   3.623   2.131  0.8244 -1.5240  1.1818
 2019TIP3   OH227615   3.406   1.919   6.755 -0.2801  0.0308  0.4664
 2019TIP3    H127616   3.317   1.944   6.730  0.2134 -1.0612 -2.8563
 2019TIP3    H227617   3.394   1.849   6.820 -1.8106  0.4137  0.6247
 2020TIP3   OH227618   1.765   4.850   8.199  0.0659 -0.0062  0.3255
 2020TIP3    H127619   1.752   4.925   8.258  0.6318  0.9622 -0.7274
 2020TIP3    H227620   1.853   4.862   8.165 -0.1525 -0.6825 -0.5114
 2021TIP3   OH227621   6.732   0.888   8.062  0.0772 -0.0107 -0.0417
 2021TIP3    H127622   6.740   0.983   8.058  1.4203 -0.1237 -1.0342
 2021TIP3    H227623   6.658   0.867   8.005  0.2853  0.3944 -0.4652
 2022TIP3   OH227624   1.767   4.728   2.287  0.0766  0.4596  0.0695
 2022TIP3    H127625   1.771   4.744   2.382 -3.6384 -1.0344  0.6230
 2022TIP3    H227626   1.723   4.805   2.252  0.9932  0.7753 -0.4257
 2023TIP3   OH227627   1.350   1.567   1.221 -0.1511 -0.0721  0.3403
 2023TIP3    H127628   1.403   1.642   1.194  1.0950 -1.5246 -1.4722
 2023TIP3    H227629   1.413   1.499   1.244 -1.2275 -1.2649 -0.1148
 2024TIP3   OH227630   5.827   3.476   7.068 -0.4871 -0.6245  0.2612
 2024TIP3    H127631   5.811   3.541   7.000  1.2783  2.7698  2.7346
 2024TIP3    H227632   5.741   3.461   7.108 -0.8132  1.0762  0.2641
 2025TIP3   OH227633   4.217   0.228   0.978  0.2196 -0.3385  0.1868
 2025TIP3    H127634   4.179   0.152   0.935  0.5408 -0.3257 -0.1266
 2025TIP3    H227635   4.274   0.192   1.046  1.1933 -0.4212 -0.6428
 2026TIP3   OH227636   4.634   5.156   6.276  0.2301 -0.1480  0.1758
 2026TIP3    H127637   4.638   5.072   6.322  0.5281 -0.2908 -0.1020
 2026TIP3    H227638   4.718   5.162   6.231  1.8103  1.9859  3.0891
 2027TIP3   OH227639   3.531   1.917   2.014 -0.2747  0.2027  0.0365
 2027TIP3    H127640   3.534   2.009   1.988 -0.7296  0.8416  2.0379
 2027TIP3    H227641   3.609   1.905   2.069 -1.0412 -0.1674  1.0718
 2028TIP3   OH227642   1.067   6.487   6.826 -0.1461 -0.2498  0.1317
 2028TIP3    H127643   1.051   6.539   6.904  1.9490 -0.8356  1.0359
 2028TIP3    H227644   0.985   6.489   6.777 -0.9447  1.6118  1.4625
 2029TIP3   OH227645   2.994   2.713   1.566 -0.6896 -0.3738  0.0666
 2029TIP3    H127646   2.910   2.677   1.595 -1.0039 -1.0239 -1.5536
 2029TIP3    H227647   3.001   2.687   1.474  0.0323  1.9895 -0.6150
 2030TIP3   OH227648   5.631   3.614   0.443 -0.7923  0.1178 -0.1371
 2030TIP3    H127649   5.555   3.661   0.409 -0.3886  0.9714  0.1151
 2030TIP3    H227650   5.640   3.539   0.385 -1.4500  0.3484 -0.5546
 2031TIP3   OH227651   3.808   3.031   1.391  0.0138  0.1601  0.0323
 2031TIP3    H127652   3.721   3.026   1.432 -0.4258  0.2761 -0.8663
 2031TIP3    H227653   3.835   2.939   1.382 -0.2875  0.0991 -0.2563
 2032TIP3   OH227654   5.120   3.674   0.907  0.1663  0.3470 -0.2210
 2032TIP3    H127655   5.172   3.598   0.933  2.1551  1.6049 -0.3001
 2032TIP3    H227656   5.124   3.733   0.982 -0.2161  0.9373 -0.6519
 2033TIP3   OH227657   5.210   2.892   7.635 -0.8063  0.3906  0.3472
 2033TIP3    H127658   5.250   2.957   7.578 -1.8886  0.3694 -0.4563
 2033TIP3    H227659   5.116   2.901   7.621 -0.9819 -1.4463  0.0853
 2034TIP3   OH227660   4.491   2.453   6.728  0.0025 -0.5231  0.0667
 2034TIP3    H127661   4.422   2.403   6.685  0.7296 -1.2020 -0.3398
 2034TIP3    H227662   4.549   2.480   6.657 -0.2356  0.6899  0.3168
 2035TIP3   OH227663   3.536   1.795   7.805 -0.0708 -0.2768 -0.1954
 2035TIP3    H127664   3.531   1.699   7.800  0.3604 -0.3600  0.6943
 2035TIP3    H227665   3.590   1.811   7.883 -0.9080  0.7023  0.1885
 2036TIP3   OH227666   4.048   2.782   7.873 -0.0168  0.8157  0.1675
 2036TIP3    H127667   4.041   2.811   7.782 -0.3762 -0.5964 -0.2744
 2036TIP3    H227668   3.962   2.746   7.893  0.3236  0.3275  0.7804
 2037TIP3   OH227669   1.791   0.932   2.314  0.2352 -0.3791  0.4623
 2037TIP3    H127670   1.703   0.966   2.324  0.6292  0.4330  1.2520
 2037TIP3    H227671   1.779   0.849   2.266 -0.7259  0.8127 -1.5023
 2038TIP3   OH227672   0.050   6.664   6.397  0.5142  0.2714  0.0554
 2038TIP3    H127673   0.016   6.754   6.397  2.0119  0.9075 -1.5186
 2038TIP3    H227674  -0.025   6.610   6.421 -0.7083  1.8631 -0.0109
 2039TIP3   OH227675   3.248   1.581   7.996 -0.2776  0.0870  0.2107
 2039TIP3    H127676   3.316   1.556   8.058  1.2854  0.7306 -1.1887
 2039TIP3    H227677   3.212   1.663   8.030 -0.4444 -0.3114  1.0078
 2040TIP3   OH227678   0.711   6.345   6.383  0.1760 -0.5186 -0.3925
 2040TIP3    H127679   0.620   6.372   6.370  0.1089 -0.6422 -0.1901
 2040TIP3    H227680   0.706   6.274   6.447  0.2519 -1.7053 -1.6477
 2041TIP3   OH227681   0.554   3.388   1.837  0.5308  0.5095  0.2515
 2041TIP3    H127682   0.566   3.293   1.835 -1.1490  0.2568  0.9090
 2041TIP3    H227683   0.534   3.412   1.747 -2.3250 -0.2765  0.6028
 2042TIP3   OH227684   5.211   4.441   7.334  0.7283  0.1765 -0.0419
 2042TIP3    H127685   5.150   4.369   7.348  1.2741 -0.5869 -1.4178
 2042TIP3    H227686   5.267   4.439   7.412 -0.0936 -0.0144  0.5616
 2043TIP3   OH227687   5.116   5.837   6.253  0.5329  0.0229  0.0547
 2043TIP3    H127688   5.206   5.870   6.259  0.7384 -0.1425 -1.6537
 2043TIP3    H227689   5.067   5.909   6.213  0.3841 -0.6891 -1.0582
 2044TIP3   OH227690   5.820   4.227   6.865  0.1065  0.1587 -0.2898
 2044TIP3    H127691   5.854   4.192   6.782 -1.4319  0.0628 -0.9039
 2044TIP3    H227692   5.748   4.284   6.839 -1.1435 -0.7570  1.0308
 2045TIP3   OH227693   6.461   3.968   0.619 -0.3143  0.5214 -0.2100
 2045TIP3    H127694   6.441   3.903   0.686  0.3942  1.8010  1.3182
 2045TIP3    H227695   6.380   4.020   0.611 -0.0666  1.0211  0.4479
 2046TIP3   OH227696   4.778   0.194   0.994 -0.1332 -0.4083  0.2359
 2046TIP3    H127697   4.718   0.163   0.927  0.5909 -0.2993 -0.4839
 2046TIP3    H227698   4.862   0.202   0.949  1.3093 -3.8599  1.9062
 2047TIP3   OH227699   1.834   0.099   0.303 -0.4757  0.4120  0.2130
 2047TIP3    H127700   1.920   0.136   0.324 -0.8040  0.1600  2.1937
 2047TIP3    H227701   1.776   0.132   0.371 -1.1751 -2.2322  1.0332
 2048TIP3   OH227702   1.854   2.635   8.077  0.2758  0.2080  0.0622
 2048TIP3    H127703   1.826   2.552   8.116  1.0721 -0.3397 -0.4815
 2048TIP3    H227704   1.852   2.618   7.982  0.1680  0.9137 -0.0696
 2049TIP3   OH227705   2.155   1.319   8.345 -0.0386  0.4270 -0.2866
 2049TIP3    H127706   2.161   1.239   8.292 -0.1941 -0.0487  0.3978
 2049TIP3    H227707   2.207   1.383   8.297 -0.5757  0.1560 -1.2773
 2050TIP3   OH227708   4.596   0.172   0.530 -0.0444  0.8772  0.3549
 2050TIP3    H127709   4.611   0.245   0.470 -1.4090  0.4607 -0.5435
 2050TIP3    H227710   4.591   0.095   0.474 -1.4608  0.4933  0.9553
 2051TIP3   OH227711   6.026   2.918   7.305  0.0247  0.4483  0.1928
 2051TIP3    H127712   6.042   3.012   7.294  0.5311  0.3491  0.0885
 2051TIP3    H227713   6.078   2.876   7.237 -0.3186  0.0983  0.1449
 2052TIP3   OH227714   2.456   0.170   6.129  0.9582  0.2513  0.0640
 2052TIP3    H127715   2.537   0.120   6.145  0.4600 -0.8518 -0.7420
 2052TIP3    H227716   2.408   0.117   6.065 -0.1692  1.1569  0.1453
 2053TIP3   OH227717   2.078   6.522   7.301 -0.3828 -0.1862 -0.4856
 2053TIP3    H127718   2.074   6.615   7.321  0.4398  0.0119 -1.2109
 2053TIP3    H227719   2.147   6.487   7.357 -1.5660 -0.6255  0.7369
 2054TIP3   OH227720   3.081   3.429   0.262  0.1494  0.4464 -0.2242
 2054TIP3    H127721   2.992   3.437   0.228 -0.1487 -2.8434 -0.5344
 2054TIP3    H227722   3.137   3.439   0.185 -0.2845 -2.2158 -0.9812
 2055TIP3   OH227723   3.204   3.394   8.470  0.6092  0.0297  0.3342
 2055TIP3    H127724   3.263   3.328   8.434 -0.2109 -0.7598  0.4075
 2055TIP3    H227725   3.173   3.443   8.394  0.2344 -0.4976  0.1432
 2056TIP3   OH227726   5.439   1.200   7.979 -0.3811  0.9495 -0.1526
 2056TIP3    H127727   5.415   1.107   7.984 -0.9442  1.1174  0.5063
 2056TIP3    H227728   5.456   1.224   8.070 -2.3260  2.0027 -0.0076
 2057TIP3   OH227729   3.312   5.123   0.348 -0.2825 -0.1409  0.7070
 2057TIP3    H127730   3.346   5.194   0.402 -0.4678  0.2046  0.3734
 2057TIP3    H227731   3.302   5.049   0.408  4.7212 -1.5593  0.2291
 2058TIP3   OH227732   1.971   1.062   2.145 -0.1364 -0.0823 -0.1106
 2058TIP3    H127733   1.912   1.018   2.206 -0.8738  0.5007 -0.3881
 2058TIP3    H227734   1.988   1.147   2.185  1.4921 -0.6808  0.5512
 2059TIP3   OH227735   1.286   4.005   1.819  0.6234  0.4404  0.0169
 2059TIP3    H127736   1.283   4.081   1.877 -0.3465  0.0559  0.4942
 2059TIP3    H227737   1.213   3.950   1.848  0.4085  0.0220 -1.2693
 2060TIP3   OH227738   4.009   1.773   6.501  0.0469 -0.1374  1.0939
 2060TIP3    H127739   3.994   1.815   6.416  1.8491 -0.5937  0.5130
 2060TIP3    H227740   3.952   1.695   6.499 -0.2431  0.0830  0.4997
 2061TIP3   OH227741   2.865   2.677   1.315  0.1013  0.1031  0.5802
 2061TIP3    H127742   2.912   2.599   1.283 -0.0430  0.7762 -1.4401
 2061TIP3    H227743   2.789   2.642   1.360 -0.0178 -0.9411 -0.3869
 2062TIP3   OH227744   1.773   6.029   7.769 -0.4337 -0.1606  0.2735
 2062TIP3    H127745   1.849   6.035   7.826 -0.8071 -2.2874  1.1105
 2062TIP3    H227746   1.809   6.020   7.681  0.2235  0.5160  0.4721
 2063TIP3   OH227747   3.925   4.689   6.558  0.3519  0.0540  0.2445
 2063TIP3    H127748   4.017   4.716   6.553 -0.0394  1.6027  0.6611
 2063TIP3    H227749   3.881   4.745   6.495 -0.5795  0.7297  1.4528
 2064TIP3   OH227750   5.703   0.584   7.506  0.4355 -0.4378 -0.1032
 2064TIP3    H127751   5.749   0.661   7.475  0.4088 -0.0201  0.8369
 2064TIP3    H227752   5.768   0.515   7.506  1.3308  0.3168  1.9212
 2065TIP3   OH227753   3.025   2.861   7.743  0.1013  0.7299  0.3393
 2065TIP3    H127754   2.972   2.785   7.718  0.7691  0.9108 -1.8129
 2065TIP3    H227755   3.071   2.885   7.663  1.0647  2.4902  1.3734
 2066TIP3   OH227756   0.747   2.961   1.473 -0.2682 -0.3143 -0.8406
 2066TIP3    H127757   0.660   2.997   1.456 -0.1660 -0.2323 -1.1850
 2066TIP3    H227758   0.790   2.960   1.388  0.3568  0.4278 -0.5535
 2067TIP3   OH227759   0.615   3.901   1.128  0.3536  0.0392  0.1554
 2067TIP3    H127760   0.546   3.958   1.162  0.7237 -0.4686  1.8840
 2067TIP3    H227761   0.571   3.819   1.108  0.2778  0.0379  0.3225
 2068TIP3   OH227762   1.961   4.927   0.604 -0.6511  0.0103  0.4052
 2068TIP3    H127763   2.036   4.974   0.568 -1.6829  0.8529 -0.6903
 2068TIP3    H227764   1.998   4.843   0.633  0.6140  0.1555 -0.6660
 2069TIP3   OH227765   1.436   4.664   7.184  0.0925  0.6323 -0.3025
 2069TIP3    H127766   1.397   4.611   7.115 -0.1692 -0.6374  0.7807
 2069TIP3    H227767   1.403   4.625   7.265 -0.4954  2.7411  0.5465
 2070TIP3   OH227768   3.566   2.965   8.052  0.2812 -0.1865 -0.7844
 2070TIP3    H127769   3.487   3.009   8.020 -0.2936 -0.8670 -0.3162
 2070TIP3    H227770   3.552   2.955   8.146  0.3549 -1.4742 -0.8978
 2071TIP3   OH227771   6.077   0.366   7.954  0.2128  0.3646 -0.3931
 2071TIP3    H127772   6.107   0.388   8.042 -1.0743  1.6791 -0.2607
 2071TIP3    H227773   6.070   0.450   7.909  0.9008 -0.2936 -1.7914
 2072TIP3   OH227774   6.146   0.335   7.039  0.1620 -0.3949 -0.0996
 2072TIP3    H127775   6.217   0.337   7.104  1.3003  1.0698 -1.2888
 2072TIP3    H227776   6.171   0.265   6.979  1.1872  0.7680 -1.0773
 2073TIP3   OH227777   1.242   1.858   7.994  0.4982  0.1608  0.2156
 2073TIP3    H127778   1.328   1.824   8.017  1.1362  1.3324 -0.3122
 2073TIP3    H227779   1.244   1.950   8.022 -0.3799  0.3510 -0.2848
 2074TIP3   OH227780   4.780   0.061   6.770  0.0828 -0.4604  0.3239
 2074TIP3    H127781   4.826  -0.016   6.804 -2.2563 -1.2454  2.0264
 2074TIP3    H227782   4.747   0.033   6.684 -0.6434 -1.3811  0.8763
 2075TIP3   OH227783   6.619   3.820   0.434 -0.5917 -0.1025  0.1077
 2075TIP3    H127784   6.570   3.888   0.480 -0.7553 -0.7120  0.8613
 2075TIP3    H227785   6.564   3.742   0.441 -0.2061 -0.4246 -0.3582
 2076TIP3   OH227786   6.328   2.098   0.755  0.1235 -0.5110 -0.7807
 2076TIP3    H127787   6.347   2.004   0.748  1.1067 -0.3751 -0.0960
 2076TIP3    H227788   6.372   2.137   0.680 -0.9267 -0.6763 -1.4974
 2077TIP3   OH227789   3.086   0.239   1.245  0.0828 -0.3512  0.2902
 2077TIP3    H127790   3.122   0.249   1.333 -0.7308  0.0864  0.5865
 2077TIP3    H227791   3.157   0.200   1.194  0.5355 -0.6821  1.1552
 2078TIP3   OH227792   0.100   1.456   6.647  0.1935 -0.9219 -0.3408
 2078TIP3    H127793   0.089   1.544   6.611  0.6222 -0.4140  0.7223
 2078TIP3    H227794   0.034   1.403   6.602  0.2154 -0.1623 -1.3080
 2079TIP3   OH227795   6.193   1.683   1.802  0.3868 -0.2391  0.1484
 2079TIP3    H127796   6.254   1.638   1.860  0.4903  0.8512  0.9178
 2079TIP3    H227797   6.107   1.649   1.827  0.3105  1.0173  1.7565
 2080TIP3   OH227798   2.150   3.729   1.503  0.2818 -0.1154 -0.4340
 2080TIP3    H127799   2.242   3.703   1.502  0.0532 -1.0063  0.1783
 2080TIP3    H227800   2.146   3.798   1.570  0.3308 -0.8419  0.3447
 2081TIP3   OH227801   3.112   5.125   6.715  0.3406  0.1328 -0.1046
 2081TIP3    H127802   3.172   5.178   6.663 -0.5983  3.0555  1.5632
 2081TIP3    H227803   3.125   5.036   6.683  2.7274  1.1799 -2.4308
 2082TIP3   OH227804   4.884   2.798   7.255  0.6848 -0.6283 -0.4327
 2082TIP3    H127805   4.820   2.751   7.201 -0.4039  0.4184 -0.0742
 2082TIP3    H227806   4.948   2.831   7.192  1.3937 -2.4015 -0.7157
 2083TIP3   OH227807   1.379   5.376   1.142 -0.1839  0.7088  0.9162
 2083TIP3    H127808   1.313   5.443   1.125 -1.0648 -0.5468 -1.0937
 2083TIP3    H227809   1.459   5.411   1.104 -0.2556  1.3010  1.3164
 2084TIP3   OH227810   0.226   4.972   1.084  0.1373  0.1568 -0.3159
 2084TIP3    H127811   0.219   4.877   1.083  0.7777  0.1082 -0.9423
 2084TIP3    H227812   0.319   4.990   1.068  0.2697  0.8718  1.0824
 2085TIP3   OH227813   6.350   6.475   6.575 -0.3339  1.0120 -0.7322
 2085TIP3    H127814   6.298   6.460   6.654 -1.2463  0.9571 -1.3276
 2085TIP3    H227815   6.286   6.492   6.506  0.3390 -0.5459 -1.8179
 2086TIP3   OH227816   2.784   0.089   1.664  0.6522  0.1299  0.3452
 2086TIP3    H127817   2.856   0.027   1.673  0.7284  0.4261  2.1810
 2086TIP3    H227818   2.715   0.054   1.721  0.5608  1.4924  1.1158
 2087TIP3   OH227819   5.753   4.913   8.143 -0.1214  0.5851 -0.6480
 2087TIP3    H127820   5.765   4.836   8.088  0.8920 -0.3822  0.8637
 2087TIP3    H227821   5.790   4.985   8.092  2.3010 -0.5510 -0.6500
 2088TIP3   OH227822   6.544   4.137   7.086  0.0513  0.2188 -0.3756
 2088TIP3    H127823   6.594   4.217   7.069  0.1382  0.3452  0.4201
 2088TIP3    H227824   6.529   4.099   6.999  0.9869  0.5021 -0.6816
 2089TIP3   OH227825   1.767   4.199   7.551 -0.0790  0.6707 -0.3005
 2089TIP3    H127826   1.828   4.272   7.538  1.0569 -0.4998 -1.9754
 2089TIP3    H227827   1.721   4.191   7.467 -2.0399  1.0265  0.6772
 2090TIP3   OH227828   4.741   2.991   0.479  0.4144 -0.0079  0.0983
 2090TIP3    H127829   4.724   3.082   0.455  1.0387  0.2521  0.6307
 2090TIP3    H227830   4.686   2.976   0.556 -1.2132 -0.6967 -1.1295
 2091TIP3   OH227831   3.011   3.104   7.368  0.0630  0.1723  0.0683
 2091TIP3    H127832   2.932   3.154   7.390  1.1349  1.7529  0.4786
 2091TIP3    H227833   2.984   3.013   7.376 -1.6303  0.6757  0.5616
 2092TIP3   OH227834   0.491   5.068   6.401 -0.3793 -0.3759  0.1499
 2092TIP3    H127835   0.586   5.067   6.387 -0.4840  1.8348 -1.2249
 2092TIP3    H227836   0.469   4.977   6.420  2.1934 -0.7264  2.0109
 2093TIP3   OH227837   1.190   1.743   7.626  0.0956 -0.1537 -0.0232
 2093TIP3    H127838   1.228   1.680   7.564 -1.9269  0.6955 -2.2862
 2093TIP3    H227839   1.266   1.784   7.668  1.5601 -1.0616 -1.6468
 2094TIP3   OH227840   4.379   5.193   6.425 -0.3791  0.3569 -0.1736
 2094TIP3    H127841   4.466   5.164   6.399 -0.8026  1.0971 -2.6956
 2094TIP3    H227842   4.320   5.123   6.395 -0.8814  1.1829 -1.1754
 2095TIP3   OH227843   0.523   6.405   7.272 -0.4282 -0.6324  0.3740
 2095TIP3    H127844   0.608   6.374   7.305  0.5510  0.4962 -0.9452
 2095TIP3    H227845   0.545   6.481   7.218 -2.3476 -0.0414  0.3483
 2096TIP3   OH227846   0.125   5.657   1.712  0.4128 -0.5994 -0.2284
 2096TIP3    H127847   0.102   5.564   1.703 -1.1106 -0.2286 -0.3622
 2096TIP3    H227848   0.053   5.695   1.761  1.2526  0.4469  0.2418
 2097TIP3   OH227849   5.945   6.452   8.604 -0.3121  0.1963 -0.2460
 2097TIP3    H127850   5.899   6.440   8.521 -0.5539  3.0303 -0.6102
 2097TIP3    H227851   5.899   6.396   8.666 -1.3888 -0.4366 -1.5666
 2098TIP3   OH227852   5.198   1.918   1.121 -0.2531  0.1774  0.4129
 2098TIP3    H127853   5.182   1.913   1.215  0.7707  0.9130  0.6566
 2098TIP3    H227854   5.261   1.990   1.112  1.3083 -1.2470 -0.6080
 2099TIP3   OH227855   6.338   3.656   6.614 -0.2037  0.7186 -0.2429
 2099TIP3    H127856   6.287   3.605   6.676 -2.2227  3.6268  0.7298
 2099TIP3    H227857   6.426   3.659   6.652 -0.5695 -0.2348  0.7408
 2100TIP3   OH227858   6.121   3.925   1.905 -0.7239 -0.0137  0.0257
 2100TIP3    H127859   6.084   3.839   1.924  0.7760 -0.4792  1.0771
 2100TIP3    H227860   6.048   3.976   1.871 -1.5730 -1.7891 -0.9225
 2101TIP3   OH227861   6.443   2.868   6.245 -0.3665 -0.1100 -0.2029
 2101TIP3    H127862   6.523   2.855   6.193  0.3489  1.7275  0.3378
 2101TIP3    H227863   6.434   2.787   6.295  0.0066 -1.1503 -1.7580
 2102TIP3   OH227864   2.684   4.412   7.609 -0.4403  0.4751 -0.0277
 2102TIP3    H127865   2.600   4.418   7.563 -0.9361  2.3112  0.9895
 2102TIP3    H227866   2.660   4.384   7.698  0.2036 -0.3496 -0.0986
 2103TIP3   OH227867   3.850   2.445   6.920 -0.2000 -0.2093 -0.4682
 2103TIP3    H127868   3.849   2.469   7.013  4.6197  0.6536 -0.3805
 2103TIP3    H227869   3.888   2.521   6.876 -1.4235 -0.9948 -3.0963
 2104TIP3   OH227870   1.937   6.568   0.263 -0.8970 -0.0648 -0.3858
 2104TIP3    H127871   1.936   6.483   0.307 -0.5368  0.3043  0.3421
 2104TIP3    H227872   1.845   6.589   0.250 -0.9902 -0.9938 -1.4220
 2105TIP3   OH227873   1.973   3.433   0.206 -0.1158 -0.0678 -0.0113
 2105TIP3    H127874   1.959   3.354   0.153  0.9586  0.1685 -0.6811
 2105TIP3    H227875   2.045   3.411   0.264  0.2343  0.4382 -0.2472
 2106TIP3   OH227876   6.512   0.389   2.425  0.2539 -0.3083 -0.3996
 2106TIP3    H127877   6.553   0.471   2.452 -0.1866  0.3315 -1.6114
 2106TIP3    H227878   6.577   0.347   2.369  0.8052 -1.2093  0.8496
 2107TIP3   OH227879   0.295   5.839   8.271 -0.1500 -0.1900  0.3989
 2107TIP3    H127880   0.352   5.763   8.281  2.1156  0.9814 -2.2636
 2107TIP3    H227881   0.234   5.815   8.202 -1.5831 -0.6682  1.7759
 2108TIP3   OH227882   0.429   0.678   8.615 -0.1796 -0.2692  0.2695
 2108TIP3    H127883   0.523   0.689   8.632 -0.1324 -0.1376 -0.0668
 2108TIP3    H227884   0.407   0.751   8.556 -0.2218 -1.0229 -0.6687
 2109TIP3   OH227885   4.349   3.454   6.810  0.1054 -0.4158  0.5805
 2109TIP3    H127886   4.274   3.482   6.862 -0.9777 -0.9663 -0.6264
 2109TIP3    H227887   4.346   3.509   6.732  1.1956 -0.1882  0.6843
 2110TIP3   OH227888   1.397   5.313   7.476  0.1816 -0.1223 -0.2763
 2110TIP3    H127889   1.337   5.387   7.488  3.2000  2.4594  0.1223
 2110TIP3    H227890   1.446   5.335   7.397  1.2208 -1.6818 -0.1018
 2111TIP3   OH227891   0.410   2.192   7.333 -0.0872 -0.1606 -0.1766
 2111TIP3    H127892   0.442   2.236   7.411 -1.0618  2.0669 -0.9402
 2111TIP3    H227893   0.314   2.199   7.338 -0.1685  0.2951 -1.6721
 2112TIP3   OH227894   0.272   0.316   1.700 -0.1446 -1.3645 -0.0952
 2112TIP3    H127895   0.210   0.374   1.745 -0.6768 -0.0699 -2.3609
 2112TIP3    H227896   0.243   0.228   1.725 -0.8603 -0.7455  1.4423
 2113TIP3   OH227897   2.327   0.459   0.485  0.0338  0.4185  0.0991
 2113TIP3    H127898   2.308   0.440   0.577  1.6419 -4.9832 -0.3576
 2113TIP3    H227899   2.247   0.433   0.439  0.0415  1.0049 -0.2625
 2114TIP3   OH227900   4.572   1.734   2.213 -0.2750  0.1828  0.4722
 2114TIP3    H127901   4.533   1.754   2.128  1.0325  0.2626 -0.1308
 2114TIP3    H227902   4.604   1.818   2.246 -0.9838  0.1912  1.1644
 2115TIP3   OH227903   1.563   4.926   2.194 -0.1401  0.2271 -0.1488
 2115TIP3    H127904   1.592   4.923   2.103 -0.1592  0.5711 -0.1665
 2115TIP3    H227905   1.472   4.955   2.190 -0.5263 -0.9397 -0.0967
 2116TIP3   OH227906   0.597   5.596   6.787  0.1783 -0.0545 -0.5249
 2116TIP3    H127907   0.640   5.648   6.719 -0.5527  0.3800 -0.6756
 2116TIP3    H227908   0.604   5.650   6.866  4.4024 -2.1448  0.8111
 2117TIP3   OH227909   2.172   0.796   0.323 -0.1574  0.0338  0.2466
 2117TIP3    H127910   2.171   0.771   0.231 -0.2909 -0.2390  0.3205
 2117TIP3    H227911   2.252   0.756   0.357 -1.6734 -2.6065  0.9839
 2118TIP3   OH227912   2.674   3.920   7.803  0.5000  0.8808 -0.2157
 2118TIP3    H127913   2.731   3.856   7.847  0.5263  0.2945 -1.0820
 2118TIP3    H227914   2.687   4.001   7.852 -0.2278  0.0298  1.5030
 2119TIP3   OH227915   2.059   3.643   7.901  0.1956  0.1389  0.4701
 2119TIP3    H127916   2.094   3.709   7.961  1.1704  1.3769 -1.3513
 2119TIP3    H227917   2.117   3.567   7.913  0.3147  0.3272  1.1300
 2120TIP3   OH227918   4.838   1.198   0.025 -0.9759 -0.1439 -0.1916
 2120TIP3    H127919   4.865   1.285  -0.003 -0.4854  0.0452  0.8343
 2120TIP3    H227920   4.862   1.194   0.118 -0.0882 -1.7134 -0.4577
 2121TIP3   OH227921   1.305   0.364   6.856 -0.8029  0.5031  0.1110
 2121TIP3    H127922   1.254   0.397   6.782 -1.5387 -1.3416 -0.2686
 2121TIP3    H227923   1.280   0.272   6.863  0.4122  0.2461  1.6989
 2122TIP3   OH227924   6.721   3.013   8.631  0.1822 -0.2506  0.0322
 2122TIP3    H127925   6.697   3.106   8.628 -1.3624 -0.4905  2.5025
 2122TIP3    H227926   6.640   2.966   8.612  0.5979 -1.1012  0.3172
 2123TIP3   OH227927   6.035   2.893   0.929  0.3167 -0.4879  0.4944
 2123TIP3    H127928   5.957   2.840   0.947  0.1358  0.2878  2.2300
 2123TIP3    H227929   6.021   2.926   0.840 -1.7194  0.1916  0.9977
 2124TIP3   OH227930   3.178   0.807   7.229  0.4118 -0.0610  0.1553
 2124TIP3    H127931   3.109   0.838   7.288 -0.7049 -1.0670 -0.5819
 2124TIP3    H227932   3.211   0.727   7.270  1.5180  0.6708  0.7536
 2125TIP3   OH227933   4.284   6.664   6.573 -0.2465 -0.3619  0.0979
 2125TIP3    H127934   4.369   6.664   6.530  0.0947 -0.3221  0.7484
 2125TIP3    H227935   4.272   6.754   6.604  0.9629 -1.0349  2.7900
 2126TIP3   OH227936   0.298   0.500   7.395  0.1985  0.0546 -0.0191
 2126TIP3    H127937   0.343   0.565   7.448 -0.4073 -0.2704  0.9100
 2126TIP3    H227938   0.220   0.545   7.361 -0.1835 -0.1536  0.5665
 2127TIP3   OH227939   4.241   2.585   2.341 -0.1601 -0.2673  0.3821
 2127TIP3    H127940   4.167   2.629   2.300 -0.5050  0.5998  1.8544
 2127TIP3    H227941   4.296   2.656   2.373  0.8709 -0.9161  0.0878
 2128TIP3   OH227942   5.085   0.171   0.961  0.2985  0.6539 -0.1255
 2128TIP3    H127943   5.110   0.164   0.868 -2.2612 -2.4059 -0.7373
 2128TIP3    H227944   5.108   0.086   0.998  1.6839  1.9775  2.2780
 2129TIP3   OH227945   3.434   3.077   6.510  0.0516  0.0581  0.5755
 2129TIP3    H127946   3.349   3.101   6.547 -1.3674 -0.6784 -1.9242
 2129TIP3    H227947   3.489   3.155   6.523 -1.6530  1.3311  0.5174
 2130TIP3   OH227948   1.536   3.362   7.920  0.3390  0.6849 -0.0248
 2130TIP3    H127949   1.613   3.337   7.972  2.4615  1.3080 -2.6548
 2130TIP3    H227950   1.520   3.288   7.863  0.4065  1.4165 -1.0145
 2131TIP3   OH227951   3.413   3.370   2.857  0.7879  0.1181 -0.2826
 2131TIP3    H127952   3.495   3.329   2.886  1.2226  0.4718 -0.9760
 2131TIP3    H227953   3.425   3.463   2.874  2.3191  0.8355 -4.1798
 2132TIP3   OH227954   6.442   3.382   0.378 -0.4186 -0.3410 -0.3323
 2132TIP3    H127955   6.477   3.470   0.372  0.0383 -0.4288  0.7166
 2132TIP3    H227956   6.371   3.388   0.443 -0.4195 -0.7269 -0.2913
 2133TIP3   OH227957   3.175   4.261   0.307  0.2567  0.2761 -0.4225
 2133TIP3    H127958   3.131   4.200   0.248 -1.4408 -0.6300  1.6688
 2133TIP3    H227959   3.132   4.345   0.291 -0.4343 -0.0371 -0.2269
 2134TIP3   OH227960   6.624   4.976   8.570  0.0623  0.0206  0.6080
 2134TIP3    H127961   6.538   5.016   8.584  0.7724  1.3137  1.5486
 2134TIP3    H227962   6.629   4.905   8.635 -0.9316 -1.1859 -0.5915
 2135TIP3   OH227963   3.823   0.799   8.214  0.0919 -0.0562 -0.4157
 2135TIP3    H127964   3.886   0.727   8.204  1.3401  1.0892 -1.1833
 2135TIP3    H227965   3.781   0.783   8.298 -0.3739 -2.2064 -0.9890
 2136TIP3   OH227966   5.580   6.499   0.698  0.1862  0.9469  0.3398
 2136TIP3    H127967   5.572   6.486   0.792  0.4284  0.5192  0.3022
 2136TIP3    H227968   5.529   6.578   0.681 -0.8660  0.3585  0.6438
 2137TIP3   OH227969   2.191   0.154   8.302 -0.2021 -0.1768 -0.0852
 2137TIP3    H127970   2.113   0.097   8.306 -1.2033  1.1795  0.5089
 2137TIP3    H227971   2.235   0.139   8.386  0.1472 -0.8895 -0.3887
 2138TIP3   OH227972   0.080   3.142   8.102  0.3186 -0.1787 -0.2181
 2138TIP3    H127973   0.150   3.085   8.071 -0.8900 -0.8475 -1.8515
 2138TIP3    H227974   0.049   3.101   8.183 -0.8165 -2.1794 -1.5721
 2139TIP3   OH227975   4.821   1.542   6.260  0.0769  0.5558 -0.2912
 2139TIP3    H127976   4.903   1.552   6.212  0.4177  1.0923  0.3821
 2139TIP3    H227977   4.753   1.571   6.199  0.3842  0.1182 -0.8460
 2140TIP3   OH227978   1.401   6.230   7.315 -0.1599 -0.2617  0.1414
 2140TIP3    H127979   1.434   6.141   7.331 -0.5899 -0.5024 -0.2674
 2140TIP3    H227980   1.466   6.287   7.355  1.1101 -0.6995 -1.2049
 2141TIP3   OH227981   1.549   3.237   8.250 -0.9531  0.0447 -0.3896
 2141TIP3    H127982   1.480   3.264   8.189 -1.3045  0.1574  0.0464
 2141TIP3    H227983   1.504   3.231   8.335 -0.2433  0.9140  0.0563
 2142TIP3   OH227984   6.661   0.860   2.075  0.0370 -0.5561 -0.1084
 2142TIP3    H127985   6.703   0.938   2.112 -0.9592  0.7892 -1.6785
 2142TIP3    H227986   6.635   0.808   2.152  2.8767 -0.5933  0.9526
 2143TIP3   OH227987   2.425   2.888   7.562  0.0158  0.0167  0.7090
 2143TIP3    H127988   2.511   2.924   7.584  0.2584 -0.0327 -0.1138
 2143TIP3    H227989   2.425   2.882   7.467 -2.1731  3.1950  0.3465
 2144TIP3   OH227990   6.401   3.879   7.227 -0.3643 -0.1554  1.0979
 2144TIP3    H127991   6.470   3.814   7.241 -0.0351  0.4429  2.4045
 2144TIP3    H227992   6.445   3.963   7.235 -1.3484  0.2500  2.7159
 2145TIP3   OH227993   1.214   0.860   0.292  0.6133  0.0005  0.3766
 2145TIP3    H127994   1.299   0.889   0.326  1.1030 -0.5061 -0.3895
 2145TIP3    H227995   1.176   0.939   0.253  0.9173  0.1347  0.3499
 2146TIP3   OH227996   0.565   6.697   1.413  0.1737  0.5654  0.1943
 2146TIP3    H127997   0.594   6.780   1.450 -0.7959  0.0135  2.3492
 2146TIP3    H227998   0.482   6.717   1.370 -0.3950  0.6376  1.2800
 2147TIP3   OH227999   6.654   5.127   7.587 -0.0721 -0.3858  0.2617
 2147TIP3    H128000   6.633   5.095   7.499 -1.6943 -1.6079  1.0549
 2147TIP3    H228001   6.737   5.085   7.608  0.8246  0.6476 -1.0009
 2148TIP3   OH228002   4.033   6.464   8.295  0.5674  0.0440 -0.0123
 2148TIP3    H128003   4.089   6.434   8.223  1.0952  0.5598  0.1805
 2148TIP3    H228004   4.008   6.385   8.341 -0.1910 -0.3550 -1.0570
 2149TIP3   OH228005   5.058   3.881   6.921  0.3157 -0.0930 -0.4230
 2149TIP3    H128006   5.150   3.854   6.917 -0.3383 -2.2781 -2.5819
 2149TIP3    H228007   5.009   3.799   6.925 -1.6143  0.9250 -1.8340
 2150TIP3   OH228008   0.628   5.954   7.354 -0.5499 -0.1181 -0.4730
 2150TIP3    H128009   0.650   5.864   7.378  0.4764  0.5055  1.1319
 2150TIP3    H228010   0.711   5.992   7.326 -0.6588  0.7122  0.2637
 2151TIP3   OH228011   4.082   5.119   7.717 -0.5187 -0.4564  0.1662
 2151TIP3    H128012   4.113   5.081   7.635 -0.7471 -0.3383  0.0248
 2151TIP3    H228013   3.994   5.084   7.728  0.3047 -2.2611  1.5019
 2152TIP3   OH228014   4.910   3.819   7.533  0.1574 -0.3079  0.0752
 2152TIP3    H128015   4.918   3.879   7.607  1.2500  0.5266 -0.6756
 2152TIP3    H228016   4.821   3.786   7.538 -0.0771  0.4353  1.2215
 2153TIP3   OH228017   4.316   4.294   7.887 -0.5286 -0.4202 -0.0414
 2153TIP3    H128018   4.338   4.386   7.869 -0.6798 -0.1557  1.0348
 2153TIP3    H228019   4.394   4.245   7.864 -0.1401  0.0851  0.1900
 2154TIP3   OH228020   0.008   2.076   1.139  0.0745  0.3969 -0.0483
 2154TIP3    H128021   0.029   2.134   1.212  0.2170  0.9615 -0.5291
 2154TIP3    H228022   0.055   2.113   1.065 -0.3638  0.0437 -0.5097
 2155TIP3   OH228023   5.617   6.734   1.879 -0.2824 -0.2395 -0.3892
 2155TIP3    H128024   5.556   6.685   1.934 -1.5461  0.3824 -1.1681
 2155TIP3    H228025   5.644   6.808   1.933 -1.3273  0.2355 -0.4879
 2156TIP3   OH228026   4.961   3.558   1.954 -0.6718 -0.7862 -0.5418
 2156TIP3    H128027   4.996   3.517   1.874 -1.4601  1.1168 -1.9401
 2156TIP3    H228028   5.000   3.645   1.954 -0.8720 -0.6780  1.0788
 2157TIP3   OH228029   2.182   0.911   2.085  0.1729  0.8944 -0.0310
 2157TIP3    H128030   2.177   0.852   2.160  0.5137  0.9579  0.0406
 2157TIP3    H228031   2.103   0.965   2.092  0.5653  1.3958  0.6950
 2158TIP3   OH228032   3.185   2.721   8.187  0.3732 -0.3391 -0.2473
 2158TIP3    H128033   3.093   2.695   8.198  0.4071 -0.0493  0.7789
 2158TIP3    H228034   3.208   2.689   8.100 -0.4817 -1.0707 -0.2206
 2159TIP3   OH228035   2.278   5.752   7.903  0.0815 -0.4004 -0.8985
 2159TIP3    H128036   2.238   5.769   7.988 -1.4472 -3.1721 -0.9626
 2159TIP3    H228037   2.363   5.713   7.923  0.6196  0.8259 -0.7087
 2160TIP3   OH228038   3.089   4.445   1.643  0.1389  0.7618  0.2362
 2160TIP3    H128039   3.119   4.515   1.584 -0.5745  0.3198 -0.6622
 2160TIP3    H228040   2.997   4.465   1.659 -0.6575 -1.0343 -1.6514
 2161TIP3   OH228041   3.915   4.833   7.676 -0.7658  0.5739  0.3099
 2161TIP3    H128042   3.889   4.854   7.586  0.9925  1.8010  0.0436
 2161TIP3    H228043   3.837   4.853   7.728 -1.7571  0.0064 -0.8911
 2162TIP3   OH228044   4.347   1.625   2.017  0.2099  0.1783  0.1791
 2162TIP3    H128045   4.424   1.635   1.961  1.3531  1.0784  1.8119
 2162TIP3    H228046   4.373   1.561   2.083  0.3713  1.9748  1.9645
 2163TIP3   OH228047   0.961   3.706   7.325 -0.2991 -0.4090  0.3246
 2163TIP3    H128048   0.967   3.611   7.316 -1.3767 -0.4601 -0.0113
 2163TIP3    H228049   0.906   3.719   7.403 -0.7757 -0.0823 -0.0545
 2164TIP3   OH228050   2.328   4.702   0.073  0.1207  0.2592 -0.8129
 2164TIP3    H128051   2.375   4.627   0.109 -0.8573 -0.3928 -0.8615
 2164TIP3    H228052   2.237   4.673   0.066 -0.6576  2.0459  0.9087
 2165TIP3   OH228053   2.958   0.540   6.683  0.4055  0.3411 -0.2632
 2165TIP3    H128054   2.985   0.513   6.771  0.6877 -1.2243 -0.7873
 2165TIP3    H228055   2.869   0.505   6.674  0.1785  0.9584 -0.4089
 2166TIP3   OH228056   4.347   5.856   8.103 -0.2895 -0.5227  0.3792
 2166TIP3    H128057   4.271   5.801   8.084  0.6372 -1.4934 -0.6491
 2166TIP3    H228058   4.335   5.932   8.046 -0.4470 -0.7151  0.1492
 2167TIP3   OH228059   3.350   5.947   1.444 -0.3136 -0.5005 -0.2666
 2167TIP3    H128060   3.385   6.022   1.396 -0.3532 -0.2748  0.0547
 2167TIP3    H228061   3.404   5.942   1.523  0.0275 -1.1317 -0.5380
 2168TIP3   OH228062   4.782   3.775   0.189  0.0934  0.3295 -0.6640
 2168TIP3    H128063   4.706   3.753   0.242  0.9053  0.8924  0.7786
 2168TIP3    H228064   4.747   3.831   0.119 -0.8172  0.5408 -0.0519
 2169TIP3   OH228065   6.224   2.529   7.091 -0.2166 -0.4901  0.0924
 2169TIP3    H128066   6.286   2.461   7.064  2.0836  1.0341  1.2401
 2169TIP3    H228067   6.243   2.543   7.184 -3.4177 -1.0262  0.9311
 2170TIP3   OH228068   0.771   0.402   7.056 -0.1998  0.2276  0.4225
 2170TIP3    H128069   0.723   0.450   6.988 -1.6888  0.6061  1.6915
 2170TIP3    H228070   0.854   0.378   7.014 -2.0424 -1.7709 -2.3789
 2171TIP3   OH228071   5.114   2.291   8.323 -0.0213  0.6107 -0.2456
 2171TIP3    H128072   5.036   2.346   8.310 -0.6574 -0.3757 -0.7137
 2171TIP3    H228073   5.136   2.260   8.235  0.1629 -0.1133  0.0550
 2172TIP3   OH228074   4.505   6.553   7.862  0.4345  0.4905  0.4243
 2172TIP3    H128075   4.584   6.607   7.858  0.3631  0.6233  0.7967
 2172TIP3    H228076   4.433   6.616   7.868  0.3664  0.3490  1.1267
 2173TIP3   OH228077   0.179   1.087   0.555  0.0757  0.2566  0.1917
 2173TIP3    H128078   0.190   1.129   0.470  0.0823 -1.2392 -0.5705
 2173TIP3    H228079   0.154   0.997   0.535  2.0636 -0.7219  1.7393
 2174TIP3   OH228080   4.959   5.800   7.116 -0.2316  0.2649 -0.0820
 2174TIP3    H128081   5.017   5.868   7.150 -0.7417 -0.6059  2.8383
 2174TIP3    H228082   4.980   5.795   7.023  1.4813  2.7386  0.0590
 2175TIP3   OH228083   1.399   0.633   0.333 -0.3760  0.6935 -0.4573
 2175TIP3    H128084   1.392   0.728   0.327 -1.2239  0.7044  0.3101
 2175TIP3    H228085   1.371   0.601   0.247 -0.3046  1.1306 -0.6459
 2176TIP3   OH228086   0.081   5.698   7.107  0.0799  0.0341  0.2499
 2176TIP3    H128087   0.082   5.793   7.102 -2.5545  0.0833 -1.6364
 2176TIP3    H228088   0.022   5.678   7.179 -1.2801 -0.0754 -0.8475
 2177TIP3   OH228089   2.424   5.211   8.279  0.0099  0.1252 -0.2902
 2177TIP3    H128090   2.508   5.183   8.315 -0.1371 -0.5999 -0.4988
 2177TIP3    H228091   2.418   5.304   8.301 -0.4909 -0.4556  2.4283
 2178TIP3   OH228092   2.694   5.716   5.976  0.1331 -0.2186  1.1036
 2178TIP3    H128093   2.704   5.661   5.898  1.1737 -1.7677  2.2716
 2178TIP3    H228094   2.613   5.685   6.016  0.1881 -0.1996  1.2286
 2179TIP3   OH228095   4.847   6.432   0.133 -0.3241 -0.1733 -0.6343
 2179TIP3    H128096   4.762   6.477   0.126 -0.7602 -0.9993 -0.8158
 2179TIP3    H228097   4.842   6.384   0.216  0.7085  1.2355  0.2878
 2180TIP3   OH228098   0.839   0.210   7.964 -0.2399  0.4283  0.2350
 2180TIP3    H128099   0.831   0.158   7.884  1.3841  0.0812  0.2686
 2180TIP3    H228100   0.876   0.293   7.934 -1.8858  1.2348  0.3240
 2181TIP3   OH228101   4.677   4.926   6.380 -0.6335  0.0207  0.0349
 2181TIP3    H128102   4.754   4.887   6.421 -0.4419 -0.3604 -0.6762
 2181TIP3    H228103   4.603   4.883   6.423 -0.4847  0.9385  1.2651
 2182TIP3   OH228104   5.134   2.142   0.338  0.5747  0.0175 -0.1491
 2182TIP3    H128105   5.064   2.194   0.298  1.0359 -0.1616 -1.2203
 2182TIP3    H228106   5.144   2.067   0.280  2.1391  0.4130 -0.4339
 2183TIP3   OH228107   2.862   5.058   6.582 -0.3349 -0.0641  0.2409
 2183TIP3    H128108   2.942   5.088   6.539 -0.9382  3.7634  1.4040
 2183TIP3    H228109   2.854   4.966   6.557  2.3866  0.3860 -2.9928
 2184TIP3   OH228110   3.732   3.074   6.688  0.0664 -0.2864 -0.2788
 2184TIP3    H128111   3.687   3.153   6.659  2.8215  1.2720 -0.5365
 2184TIP3    H228112   3.756   3.029   6.607  1.7432  0.5640 -0.2910
 2185TIP3   OH228113   6.244   1.556   6.773 -0.5642 -0.0278  0.1770
 2185TIP3    H128114   6.184   1.601   6.833  0.2969  0.6922  0.5183
 2185TIP3    H228115   6.233   1.600   6.689 -0.7148 -0.0756  0.1721
 2186TIP3   OH228116   6.265   4.263   7.095  0.6536 -0.3262 -0.1120
 2186TIP3    H128117   6.238   4.339   7.146  0.7219 -0.3429 -0.0501
 2186TIP3    H228118   6.358   4.253   7.115  0.4253 -1.0253  0.6594
 2187TIP3   OH228119   5.937   5.561   0.569 -0.4651 -0.1491  0.4910
 2187TIP3    H128120   6.029   5.589   0.562 -0.4814 -0.4414 -1.1184
 2187TIP3    H228121   5.943   5.472   0.606 -0.2637  0.6870  2.6446
 2188TIP3   OH228122   4.564   0.121   6.949 -0.2157 -0.4291 -0.3561
 2188TIP3    H128123   4.523   0.039   6.976  1.1082 -1.2427 -0.7090
 2188TIP3    H228124   4.632   0.094   6.886  0.1176  0.9539 -0.6220
 2189TIP3   OH228125   4.160   3.640   1.696  0.3485 -0.5581  0.2041
 2189TIP3    H128126   4.221   3.696   1.648  3.0066 -3.5557 -0.3029
 2189TIP3    H228127   4.146   3.686   1.779  2.5482  0.7904 -0.0872
 2190TIP3   OH228128   5.756   5.603   0.796 -0.3498  0.6009 -0.9595
 2190TIP3    H128129   5.757   5.523   0.849 -0.9188  0.4323 -1.1988
 2190TIP3    H228130   5.830   5.592   0.737  1.9809  1.9680  1.4799
 2191TIP3   OH228131   1.765   6.297   7.186 -0.1135  0.4252 -0.2843
 2191TIP3    H128132   1.726   6.270   7.103 -0.7825  0.2243  0.0888
 2191TIP3    H228133   1.830   6.229   7.205  2.0931  1.8902 -2.0188
 2192TIP3   OH228134   1.647   2.855   8.020 -0.1298  0.0617  0.3200
 2192TIP3    H128135   1.576   2.835   8.081  0.2668 -2.5252  0.0444
 2192TIP3    H228136   1.723   2.810   8.056  0.5793  0.1156 -1.0611
 2193TIP3   OH228137   2.102   3.071   6.670 -0.0356  0.2250 -0.2163
 2193TIP3    H128138   2.081   2.980   6.688  0.2171  0.1720 -0.1920
 2193TIP3    H228139   2.191   3.070   6.635  0.2056  0.5182  0.3607
 2194TIP3   OH228140   0.708   1.122   0.613 -0.0601  0.7495 -0.6584
 2194TIP3    H128141   0.640   1.164   0.666  0.3438  0.3487  0.1942
 2194TIP3    H228142   0.666   1.043   0.579  0.8203 -1.2653  2.4766
 2195TIP3   OH228143   6.585   3.104   6.296  0.3046 -0.1454 -0.3043
 2195TIP3    H128144   6.543   3.189   6.285 -0.3036 -0.6861 -2.7211
 2195TIP3    H228145   6.511   3.043   6.303  0.6974 -0.7296 -1.1272
 2196TIP3   OH228146   1.829   4.019   6.702 -0.1096  0.2556 -0.1630
 2196TIP3    H128147   1.834   3.965   6.623  0.5943 -0.3406  0.2771
 2196TIP3    H228148   1.882   4.096   6.683  2.0243 -0.9554  0.5267
 2197TIP3   OH228149   3.374   6.854   6.845 -0.6704  0.0874 -0.5870
 2197TIP3    H128150   3.331   6.805   6.774  0.9250 -0.7463 -1.0243
 2197TIP3    H228151   3.417   6.927   6.801  0.2572 -0.3867 -0.4832
 2198TIP3   OH228152   1.490   5.379   8.077 -0.3996 -0.0864 -0.7767
 2198TIP3    H128153   1.497   5.474   8.068  0.5339 -0.0399  0.1814
 2198TIP3    H228154   1.462   5.349   7.991 -2.8025  1.2241 -0.5460
 2199TIP3   OH228155   4.303   2.100   1.131  0.4301 -0.2644  0.0220
 2199TIP3    H128156   4.231   2.080   1.191  0.6713 -1.1505  0.0372
 2199TIP3    H228157   4.329   2.014   1.096  0.7227  0.1699 -0.8498
 2200TIP3   OH228158   5.878   1.633   1.619  0.1873  0.5481  0.3256
 2200TIP3    H128159   5.913   1.558   1.571  0.9745  1.0484  0.0999
 2200TIP3    H228160   5.903   1.617   1.710  1.1778  0.9833  0.1436
 2201TIP3   OH228161   3.811   3.720   6.646  0.3635  0.4304 -0.2411
 2201TIP3    H128162   3.763   3.638   6.635 -2.1833  2.0027 -1.8863
 2201TIP3    H228163   3.887   3.710   6.588  0.5421 -1.0122  0.1832
 2202TIP3   OH228164   4.953   1.641   7.355 -0.1683  0.5842 -0.3911
 2202TIP3    H128165   4.895   1.615   7.283  0.3624 -0.6688 -0.4062
 2202TIP3    H228166   4.954   1.564   7.412  1.5709  0.5244 -0.4706
 2203TIP3   OH228167   3.626   3.890   0.192 -0.0898 -0.4169 -0.5255
 2203TIP3    H128168   3.677   3.880   0.272 -0.9756 -0.7177  0.0199
 2203TIP3    H228169   3.535   3.876   0.219 -0.5217  0.5577 -1.3714
 2204TIP3   OH228170   2.468   4.805   8.538  0.1698  0.5906  0.0494
 2204TIP3    H128171   2.412   4.783   8.612 -0.2152 -0.1908 -0.4605
 2204TIP3    H228172   2.407   4.822   8.466  0.5745 -0.2843 -0.5170
 2205TIP3   OH228173   1.607   0.440   1.548  0.3416 -0.1988 -0.4222
 2205TIP3    H128174   1.535   0.456   1.487  0.4883  0.0054 -0.5416
 2205TIP3    H228175   1.572   0.375   1.610  0.5399 -1.1975 -1.3387
 2206TIP3   OH228176   4.361   6.476   0.540 -0.3396  0.0391 -0.1248
 2206TIP3    H128177   4.449   6.496   0.509  0.5600 -2.9221  0.1829
 2206TIP3    H228178   4.330   6.557   0.581  2.0022  1.3118 -0.7286
 2207TIP3   OH228179   5.701   0.886   0.816 -0.5824  0.0334  0.1912
 2207TIP3    H128180   5.635   0.823   0.787 -1.3023  0.9873 -0.3076
 2207TIP3    H228181   5.656   0.939   0.883 -0.0657  0.1742  0.4319
 2208TIP3   OH228182   6.185   1.812   7.422 -0.8608  0.2425  0.3224
 2208TIP3    H128183   6.241   1.887   7.441  0.0858 -0.2172 -0.5675
 2208TIP3    H228184   6.211   1.746   7.487  0.7879 -0.5270 -1.0392
 2209TIP3   OH228185   0.718   6.309   8.422  0.0104  0.0197  0.0134
 2209TIP3    H128186   0.744   6.287   8.333  1.6851 -1.4569  0.8104
 2209TIP3    H228187   0.622   6.306   8.421 -0.0829  1.3630 -2.0164
 2210TIP3   OH228188   5.717   1.320   8.113  0.5885  0.2860  0.3309
 2210TIP3    H128189   5.777   1.348   8.182  0.4334  3.0438 -0.5706
 2210TIP3    H228190   5.645   1.382   8.117 -0.0766 -0.3163 -1.4510
 2211TIP3   OH228191   5.180   1.138   0.105 -0.3340 -0.0637  0.0315
 2211TIP3    H128192   5.266   1.179   0.111 -0.4763  0.1624  0.5832
 2211TIP3    H228193   5.125   1.186   0.167 -0.7702 -0.4263 -0.0627
 2212TIP3   OH228194   4.876   2.645   0.317  0.0476  0.0855  0.1807
 2212TIP3    H128195   4.898   2.644   0.410  0.3353  0.5830  0.1281
 2212TIP3    H228196   4.784   2.621   0.313  0.4929 -1.7965  0.4404
 2213TIP3   OH228197   0.859   5.924   7.749 -0.9108  0.0492 -0.0826
 2213TIP3    H128198   0.954   5.919   7.743 -0.9436  0.7434 -1.3896
 2213TIP3    H228199   0.835   6.001   7.697 -2.4543 -2.0599 -2.7648
 2214TIP3   OH228200   3.545   5.751   7.946 -0.2732 -0.8438  0.4061
 2214TIP3    H128201   3.573   5.790   8.029  0.2599  1.2418 -0.6756
 2214TIP3    H228202   3.466   5.701   7.967 -2.8627  3.2882  1.5089
 2215TIP3   OH228203   4.706   2.852   7.903  0.5385  0.1668 -0.8909
 2215TIP3    H128204   4.650   2.895   7.968  0.0254 -0.4567 -0.9134
 2215TIP3    H228205   4.782   2.823   7.953 -0.3440 -1.2695 -0.3243
 2216TIP3   OH228206   6.548   2.163   1.274  0.2133 -0.3785  0.2230
 2216TIP3    H128207   6.571   2.254   1.295 -1.7019  0.3987 -0.7265
 2216TIP3    H228208   6.581   2.149   1.186  1.4617 -1.0138  0.7649
 2217TIP3   OH228209   6.576   5.906   0.291 -0.1815 -0.4090 -0.6115
 2217TIP3    H128210   6.591   5.998   0.270  2.7087 -0.5535  0.4864
 2217TIP3    H228211   6.490   5.905   0.334 -0.5328  1.6380 -1.1530
 2218TIP3   OH228212   2.082   3.903   1.970  0.0402  0.2026  0.4453
 2218TIP3    H128213   2.072   3.995   1.944  1.5243  0.4273  0.6109
 2218TIP3    H228214   2.028   3.854   1.908 -0.8058  1.1814  0.3861
 2219TIP3   OH228215   1.809   0.559   8.201  0.2239 -0.5309 -0.4421
 2219TIP3    H128216   1.776   0.476   8.235  0.9462 -1.7182 -2.4585
 2219TIP3    H228217   1.757   0.574   8.122  0.5973  0.5803 -0.4877
 2220TIP3   OH228218   6.082   4.349   8.319  0.1105 -0.5621 -0.1077
 2220TIP3    H128219   6.139   4.273   8.332  0.5653 -0.3031 -0.5720
 2220TIP3    H228220   6.135   4.424   8.347  0.5074 -0.1667 -1.7955
 2221TIP3   OH228221   2.526   3.885   0.160 -0.0306 -0.1832 -0.1389
 2221TIP3    H128222   2.496   3.795   0.149  2.3021 -0.9803 -0.5400
 2221TIP3    H228223   2.595   3.895   0.094 -0.0822  1.8345  0.0503
 2222TIP3   OH228224   3.858   6.718   0.313  0.2026 -0.2807  0.4559
 2222TIP3    H128225   3.929   6.702   0.251 -0.9738 -3.2226 -0.2981
 2222TIP3    H228226   3.830   6.807   0.294  1.2050 -0.3730 -1.8813
 2223TIP3   OH228227   1.443   2.269   7.436 -0.3777  0.2869 -0.1463
 2223TIP3    H128228   1.402   2.306   7.358  0.1097  0.4712 -0.3204
 2223TIP3    H228229   1.469   2.181   7.410  0.0979  0.4695 -0.3091
 2224TIP3   OH228230   6.743   0.705   7.772 -0.6474 -0.3366  0.4268
 2224TIP3    H128231   6.798   0.673   7.700 -0.8743 -0.9756  0.5237
 2224TIP3    H228232   6.738   0.631   7.833 -0.3535  0.2456  1.1691
 2225TIP3   OH228233   6.660   0.488   6.763  0.1239 -0.1058  0.6176
 2225TIP3    H128234   6.692   0.398   6.764 -0.9223 -0.4913  1.3335
 2225TIP3    H228235   6.627   0.503   6.851 -0.0982  0.8392  0.3846
 2226TIP3   OH228236   5.014   2.886   1.755 -0.3059 -0.4810  0.3623
 2226TIP3    H128237   5.031   2.833   1.677 -1.3766  0.7431 -0.7475
 2226TIP3    H228238   5.100   2.920   1.781 -0.0217 -0.3881 -0.6726
 2227TIP3   OH228239   6.022   0.923   1.621 -0.3144 -0.1384 -0.0715
 2227TIP3    H128240   6.030   0.828   1.622  1.7839 -0.0139 -0.5661
 2227TIP3    H228241   6.091   0.954   1.679 -1.4127  1.0949  0.6393
 2228TIP3   OH228242   2.974   0.044   8.399 -0.4776  0.3287  0.0670
 2228TIP3    H128243   2.894   0.077   8.357 -0.6409 -0.0166  0.1084
 2228TIP3    H228244   2.992   0.108   8.468 -0.0798  1.0254 -0.6624
 2229TIP3   OH228245   5.398   2.368   6.673 -0.2919 -0.3326 -0.4784
 2229TIP3    H128246   5.403   2.445   6.730  0.1789  0.5374 -1.6505
 2229TIP3    H228247   5.452   2.391   6.597 -0.9965 -1.4023 -1.3334
 2230TIP3   OH228248   4.839   6.746   0.537 -0.3140 -0.1038 -0.2165
 2230TIP3    H128249   4.783   6.796   0.478  0.6873  1.3681  0.0317
 2230TIP3    H228250   4.915   6.723   0.484  0.5674  1.1810  0.4361
 2231TIP3   OH228251   3.297   0.271   7.990  0.0530  0.0423 -0.0410
 2231TIP3    H128252   3.374   0.224   7.958 -0.0513 -0.0893 -0.0994
 2231TIP3    H228253   3.322   0.364   7.986 -0.1885  0.0815 -1.1409
 2232TIP3   OH228254   0.558   5.061   1.673 -0.3130  0.3394  0.2715
 2232TIP3    H128255   0.616   4.991   1.704 -1.3011 -1.4722 -1.7126
 2232TIP3    H228256   0.477   5.050   1.723 -1.1259 -1.1913 -1.2826
 2233TIP3   OH228257   4.617   1.002   2.460  0.1698 -0.0757  0.5011
 2233TIP3    H128258   4.604   0.998   2.555  0.7468  0.3878  0.6059
 2233TIP3    H228259   4.589   0.916   2.429 -0.6613 -0.0110  1.0049
 2234TIP3   OH228260   3.999   3.244   6.542 -0.1101  0.1168  0.1809
 2234TIP3    H128261   3.951   3.270   6.621 -0.2976  0.5800 -0.0817
 2234TIP3    H228262   4.031   3.326   6.505  0.3846 -0.1391  0.0300
 2235TIP3   OH228263   0.387   4.081   1.252  1.2022  0.1227 -0.4858
 2235TIP3    H128264   0.359   4.173   1.256  0.7796  0.2555 -3.4620
 2235TIP3    H228265   0.305   4.032   1.257  1.4081 -0.0925  0.8776
 2236TIP3   OH228266   0.287   6.848   6.645  0.3984 -0.1101  0.1150
 2236TIP3    H128267   0.211   6.904   6.633  1.0620  0.8515  0.2917
 2236TIP3    H228268   0.314   6.824   6.556  0.9841  1.0713 -0.0433
 2237TIP3   OH228269   5.419   0.925   8.234 -0.4418  0.0170 -0.0936
 2237TIP3    H128270   5.393   0.871   8.308  1.6147  1.6408  1.9765
 2237TIP3    H228271   5.497   0.883   8.200  2.1717  2.2454  2.5709
 2238TIP3   OH228272   6.788   2.574   8.325  0.8863  0.1327  0.2080
 2238TIP3    H128273   6.722   2.515   8.360  0.6400  0.8089  0.9291
 2238TIP3    H228274   6.780   2.566   8.230  0.7977 -0.9034  0.2925
 2239TIP3   OH228275   0.116   0.802   0.002 -0.1832 -0.7314  0.0187
 2239TIP3    H128276   0.200   0.825  -0.039 -0.8634  0.3970 -0.7777
 2239TIP3    H228277   0.100   0.873   0.064  0.0108 -1.5604  1.0503
 2240TIP3   OH228278   2.419   0.514   1.012 -0.5165  0.1455  0.8215
 2240TIP3    H128279   2.456   0.570   0.943 -0.2162  1.5910  2.1009
 2240TIP3    H228280   2.379   0.575   1.073 -1.9947 -1.1932  1.2466
 2241TIP3   OH228281   4.533   6.223   1.924 -0.1042  0.4256  0.4782
 2241TIP3    H128282   4.513   6.194   2.012 -1.8756 -1.8301 -0.5573
 2241TIP3    H228283   4.598   6.160   1.892  0.6957  1.3553  0.1972
 2242TIP3   OH228284   2.780   5.794   6.527  0.2063 -0.4314 -0.0075
 2242TIP3    H128285   2.779   5.854   6.602 -0.8810 -0.8277  0.3167
 2242TIP3    H228286   2.828   5.841   6.459 -1.1128  1.0597  0.0394
 2243TIP3   OH228287   5.221   4.532   7.952 -0.2328  0.0395  0.1485
 2243TIP3    H128288   5.306   4.536   7.995  0.4213 -0.1438 -1.0797
 2243TIP3    H228289   5.215   4.615   7.905  0.1988 -0.7904 -1.4258
 2244TIP3   OH228290   1.051   1.324   0.125 -0.5231 -0.0084  0.0926
 2244TIP3    H128291   1.005   1.347   0.044 -0.8602 -0.2087  0.2279
 2244TIP3    H228292   1.139   1.362   0.114 -1.0407  1.2968  0.2736
 2245TIP3   OH228293   3.569   0.356   1.817 -0.4693  0.2095 -0.2635
 2245TIP3    H128294   3.663   0.367   1.831 -0.6208  1.4853 -0.1174
 2245TIP3    H228295   3.528   0.400   1.892 -1.1869  0.6416 -0.8885
 2246TIP3   OH228296   1.625   6.744   6.409 -0.3221 -0.4935 -0.0253
 2246TIP3    H128297   1.706   6.786   6.438 -0.5974 -0.6659  1.0488
 2246TIP3    H228298   1.643   6.717   6.319  0.1935  1.0308 -0.4118
 2247TIP3   OH228299   4.643   1.505   6.585 -0.1138 -0.1364 -0.2765
 2247TIP3    H128300   4.664   1.443   6.516  2.8484  0.5177 -0.1132
 2247TIP3    H228301   4.581   1.566   6.544 -1.0301 -1.6510 -1.2392
 2248TIP3   OH228302   1.251   0.185   0.570  0.1813  0.1378  0.1839
 2248TIP3    H128303   1.202   0.104   0.554  0.2069  0.3167 -0.9096
 2248TIP3    H228304   1.189   0.241   0.616 -0.1917 -0.1270  0.0163
 2249TIP3   OH228305   4.589   0.623   2.564 -0.1946  0.0944  0.5043
 2249TIP3    H128306   4.572   0.656   2.476  0.6290 -0.4571  0.1191
 2249TIP3    H228307   4.683   0.638   2.578 -0.1264 -0.6304  0.9205
 2250TIP3   OH228308   4.077   3.115   8.343  0.0624  0.6233 -0.4138
 2250TIP3    H128309   4.073   3.186   8.406  0.2713  0.4224 -0.1667
 2250TIP3    H228310   4.031   3.042   8.385 -0.0305  0.5709 -0.6037
 2251TIP3   OH228311   0.210   5.271   1.058 -0.4678 -0.5673 -0.1455
 2251TIP3    H128312   0.248   5.184   1.057  0.7134 -0.0710 -0.5452
 2251TIP3    H228313   0.278   5.327   1.096 -1.8356 -0.0661  1.7183
 2252TIP3   OH228314   5.185   3.845   1.125 -0.1379 -0.1981 -0.5866
 2252TIP3    H128315   5.265   3.799   1.148  0.4248  0.5640 -0.9637
 2252TIP3    H228316   5.213   3.935   1.106 -1.2463  0.4206  0.5116
 2253TIP3   OH228317   2.663   1.121   0.673 -0.0413  0.4616  0.0893
 2253TIP3    H128318   2.605   1.118   0.749 -1.5278 -1.3478 -1.0266
 2253TIP3    H228319   2.673   1.214   0.654 -3.8838  0.9061 -0.5637
 2254TIP3   OH228320   1.210   4.825   6.022  0.2033 -0.6697  0.1375
 2254TIP3    H128321   1.273   4.851   6.088  1.2328  0.2171 -1.1398
 2254TIP3    H228322   1.199   4.731   6.034  0.9964 -0.6543  1.0219
 2255TIP3   OH228323   4.940   2.604   7.443  0.5487 -0.4687  0.6755
 2255TIP3    H128324   4.899   2.663   7.380  0.1410 -1.4290  0.0268
 2255TIP3    H228325   5.024   2.647   7.464  2.1021 -1.4733 -2.7558
 2256TIP3   OH228326   4.864   4.264   7.576 -0.1207 -0.0582 -0.4220
 2256TIP3    H128327   4.787   4.226   7.617  0.6798  1.1595  2.4645
 2256TIP3    H228328   4.857   4.358   7.595  0.4617  0.5740 -2.9760
 2257TIP3   OH228329   3.091   2.274   6.812  0.2072 -0.6646 -0.8263
 2257TIP3    H128330   3.119   2.296   6.901  2.2532 -1.5365 -1.2034
 2257TIP3    H228331   3.002   2.309   6.806 -0.1826 -1.0127  1.7187
 2258TIP3   OH228332   6.195   0.652   7.919  0.0992  0.1353 -0.5113
 2258TIP3    H128333   6.276   0.624   7.961  0.5145 -0.2200 -1.5321
 2258TIP3    H228334   6.213   0.647   7.825 -1.5428 -1.2802 -0.8005
 2259TIP3   OH228335   3.801   3.105   0.155 -0.6404 -0.5700 -0.0701
 2259TIP3    H128336   3.740   3.157   0.102  0.3284 -0.4543 -1.1173
 2259TIP3    H228337   3.822   3.030   0.100  1.0381 -0.0164 -0.2367
 2260TIP3   OH228338   1.223   3.730   8.545  0.1110  0.6459 -0.4237
 2260TIP3    H128339   1.216   3.749   8.451  0.9640  0.1657 -0.5998
 2260TIP3    H228340   1.270   3.804   8.581 -0.7942  1.1488 -0.2473
 2261TIP3   OH228341   3.860   5.337   7.141  0.2561 -0.2077  0.0779
 2261TIP3    H128342   3.869   5.422   7.185  0.4182  0.0108 -0.3680
 2261TIP3    H228343   3.779   5.300   7.176 -0.6896  0.8482 -0.9193
 2262TIP3   OH228344   1.914   3.760   1.826  0.1968 -0.4491 -0.1449
 2262TIP3    H128345   1.905   3.714   1.742 -0.4946 -0.2322 -0.1928
 2262TIP3    H228346   1.892   3.694   1.891  0.9669 -0.6872 -0.1062
 2263TIP3   OH228347   2.849   0.995   0.856 -0.2227  0.6417  0.1531
 2263TIP3    H128348   2.822   1.044   0.934  1.0195 -0.6957  1.5086
 2263TIP3    H228349   2.790   1.024   0.787 -1.8418  1.3622  1.7649
 2264TIP3   OH228350   0.644   0.701   0.618 -0.2529  0.6281 -0.7599
 2264TIP3    H128351   0.587   0.777   0.607 -0.6662  0.2274 -1.4582
 2264TIP3    H228352   0.686   0.690   0.533  1.1035  1.0844 -0.1826
 2265TIP3   OH228353   3.327   1.974   1.251  0.0634 -0.6382  0.0977
 2265TIP3    H128354   3.350   1.888   1.215 -0.0124  0.2628 -2.2731
 2265TIP3    H228355   3.388   1.987   1.324  2.3321 -1.3083 -1.5743
 2266TIP3   OH228356   6.741   4.257   0.373  0.6211  0.4090 -0.1401
 2266TIP3    H128357   6.685   4.330   0.346  0.2755  0.2047  0.0289
 2266TIP3    H228358   6.704   4.228   0.457  0.1504 -0.6179 -0.6963
 2267TIP3   OH228359   6.053   6.256   1.156 -0.7184 -0.2012 -0.5182
 2267TIP3    H128360   6.100   6.173   1.142  1.1195  0.2995  1.9599
 2267TIP3    H228361   6.101   6.320   1.103 -1.1474 -0.4090 -1.1693
 2268TIP3   OH228362   4.366   3.034   7.792  0.1679 -0.0173 -0.4910
 2268TIP3    H128363   4.399   2.954   7.834  2.1018  0.7946 -0.3858
 2268TIP3    H228364   4.377   3.018   7.699  0.2837  0.0185 -0.4830
 2269TIP3   OH228365   5.509   1.881   7.106  0.1825  0.0184  0.3644
 2269TIP3    H128366   5.490   1.974   7.119  0.5310 -0.1463  2.4686
 2269TIP3    H228367   5.464   1.837   7.178  0.2274 -1.4257 -0.4534
 2270TIP3   OH228368   2.939   3.416   6.990  0.2380 -0.2079  0.0806
 2270TIP3    H128369   2.861   3.387   6.943 -0.0529  1.8482 -0.8087
 2270TIP3    H228370   3.002   3.436   6.921  0.5787  0.7598  0.6526
 2271TIP3   OH228371   5.849   0.598   6.651 -0.1796 -0.3685  0.7518
 2271TIP3    H128372   5.859   0.692   6.662 -2.1193 -0.0081 -0.0665
 2271TIP3    H228373   5.790   0.589   6.575  0.6348 -2.2609  0.2829
 2272TIP3   OH228374   1.719   3.054   8.496  0.2369  0.6338 -0.4792
 2272TIP3    H128375   1.633   3.094   8.508 -0.1929 -0.7769  1.6864
 2272TIP3    H228376   1.703   2.960   8.501  1.9615  0.3513  0.4144
 2273TIP3   OH228377   2.902   2.113   0.029 -0.2144 -0.0628 -0.2853
 2273TIP3    H128378   2.976   2.140   0.084 -0.3055 -1.5871  0.6381
 2273TIP3    H228379   2.894   2.019   0.044 -2.5857  0.1093 -0.0305
 2274TIP3   OH228380   1.722   6.114   1.652  0.1754  0.2958  0.1615
 2274TIP3    H128381   1.711   6.175   1.725  0.5276 -0.4812  0.8928
 2274TIP3    H228382   1.779   6.045   1.687 -0.5599 -0.6776 -0.4856
 2275TIP3   OH228383   4.277   2.922   7.279  0.2215 -0.4876 -0.2945
 2275TIP3    H128384   4.353   2.924   7.338 -0.4987 -1.3735  0.7139
 2275TIP3    H228385   4.212   2.977   7.322 -0.3606 -1.2492 -0.1742
 2276TIP3   OH228386   4.434   2.569   6.198 -0.2884  0.2786 -0.6046
 2276TIP3    H128387   4.529   2.577   6.205 -0.3207 -0.2824  0.8481
 2276TIP3    H228388   4.420   2.505   6.129  0.4248 -0.2067 -0.3069
 2277TIP3   OH228389   1.901   0.358   8.645 -0.2677  0.2322  0.0083
 2277TIP3    H128390   1.984   0.405   8.634  0.6741 -1.0283  1.2383
 2277TIP3    H228391   1.928   0.267   8.657 -1.8330 -0.1667  0.6674
 2278TIP3   OH228392   4.894   2.584   0.598 -0.5817  0.3834  0.0757
 2278TIP3    H128393   4.891   2.489   0.612  2.0755  0.2864  0.4065
 2278TIP3    H228394   4.985   2.608   0.612 -0.9724  2.8602 -1.0381
 2279TIP3   OH228395   0.263   1.361   6.437  0.1948  0.7181 -0.6727
 2279TIP3    H128396   0.342   1.309   6.422  0.4731  1.2144 -0.9440
 2279TIP3    H228397   0.284   1.414   6.515 -0.7719 -0.9176  0.7835
 2280TIP3   OH228398   3.600   2.568   1.013 -0.4897  0.4231  0.1343
 2280TIP3    H128399   3.538   2.524   1.071 -0.2616  0.5006  0.4388
 2280TIP3    H228400   3.553   2.645   0.982 -0.3380  0.8116  0.8422
 2281TIP3   OH228401   4.223   0.669   8.141  0.2694 -0.3018 -0.5100
 2281TIP3    H128402   4.307   0.634   8.111  0.3929  1.8426 -3.0556
 2281TIP3    H228403   4.206   0.743   8.083 -2.6459  0.3240  0.9539
 2282TIP3   OH228404   2.920   2.293   7.688 -0.0316 -0.1206 -0.5256
 2282TIP3    H128405   2.866   2.232   7.637  0.5031  0.7795 -2.2590
 2282TIP3    H228406   3.009   2.281   7.654  0.2052  1.0766 -0.3749
 2283TIP3   OH228407   3.156   2.151   6.296  0.2201 -0.3999 -0.0733
 2283TIP3    H128408   3.090   2.150   6.364  0.1420  0.6179 -0.1141
 2283TIP3    H228409   3.157   2.242   6.265  0.5078 -0.7596 -1.1733
 2284TIP3   OH228410   6.576   1.028   6.550  0.1840 -0.5327 -0.4873
 2284TIP3    H128411   6.628   1.002   6.474  0.0260 -0.3032 -0.6753
 2284TIP3    H228412   6.532   1.108   6.523  1.0855  0.2390  0.2704
 2285TIP3   OH228413   0.740   6.274   7.871  0.0117  0.1660  0.2075
 2285TIP3    H128414   0.737   6.213   7.945 -1.1466 -1.1798 -0.8938
 2285TIP3    H228415   0.759   6.219   7.796 -1.4207  1.0773 -0.8777
 2286TIP3   OH228416   1.220   5.540   7.937  0.0014 -0.6078  0.4444
 2286TIP3    H128417   1.133   5.516   7.969 -1.2755  0.2914 -2.0877
 2286TIP3    H228418   1.247   5.612   7.994 -1.8141  0.4329  0.0491
 2287TIP3   OH228419   5.117   4.195   8.374  0.1434 -0.5899  0.0865
 2287TIP3    H128420   5.110   4.104   8.346 -1.5127 -0.5882  0.3875
 2287TIP3    H228421   5.057   4.242   8.315  0.8895  0.2927  0.0111
 2288TIP3   OH228422   5.608   0.499   7.212 -0.6515  0.0443  0.7897
 2288TIP3    H128423   5.682   0.518   7.153 -2.2368  0.9161 -1.0134
 2288TIP3    H228424   5.642   0.518   7.299  1.1741  0.6780 -0.0051
 2289TIP3   OH228425   5.951   1.137   6.685  0.5895  0.1761  0.1827
 2289TIP3    H128426   6.012   1.210   6.691 -0.9975  1.6754 -1.0434
 2289TIP3    H228427   5.890   1.162   6.617 -1.8831 -0.8851  1.8620
 2290TIP3   OH228428   2.418   6.606   0.610 -0.0805  0.7180 -0.0826
 2290TIP3    H128429   2.329   6.606   0.646  0.4730  0.7644  1.3529
 2290TIP3    H228430   2.454   6.521   0.634  0.0602  0.4357 -1.2412
 2291TIP3   OH228431   6.663   4.693   7.207 -0.5629  0.1480  0.4979
 2291TIP3    H128432   6.686   4.784   7.187 -0.3205 -0.2475 -1.1081
 2291TIP3    H228433   6.705   4.677   7.292  1.0958  0.9337 -0.1143
 2292TIP3   OH228434   6.262   6.639   0.486  0.1065 -0.0564  0.5587
 2292TIP3    H128435   6.322   6.644   0.560  1.2980 -1.2517 -0.2949
 2292TIP3    H228436   6.180   6.678   0.519  1.4764  2.2057  1.5557
 2293TIP3   OH228437   1.787   3.522   7.386 -0.1564 -0.6837  0.6840
 2293TIP3    H128438   1.776   3.429   7.369  0.6949 -0.2206 -3.5577
 2293TIP3    H228439   1.698   3.554   7.403 -1.6198 -1.5310 -3.8392
 2294TIP3   OH228440   5.554   0.560   7.731 -0.0746  0.1562 -0.4707
 2294TIP3    H128441   5.608   0.580   7.654  1.5270  0.6628  0.7281
 2294TIP3    H228442   5.559   0.465   7.740  0.0389  0.1328 -0.7593
 2295TIP3   OH228443   4.818   6.151   1.293  0.2706 -0.2493 -0.4657
 2295TIP3    H128444   4.765   6.077   1.262 -1.2638  1.4683 -2.2223
 2295TIP3    H228445   4.854   6.190   1.214  0.6291  1.1657  0.3556
 2296TIP3   OH228446   0.982   0.290   0.090 -0.4157  0.1319 -0.1682
 2296TIP3    H128447   0.922   0.355   0.053  0.1890  1.3959  0.9956
 2296TIP3    H228448   1.005   0.235   0.015  0.1813  2.1172 -1.5496
 2297TIP3   OH228449   6.004   1.389   1.563  0.1523 -0.1218  0.3123
 2297TIP3    H128450   5.967   1.302   1.550 -0.2061  0.2542 -1.3001
 2297TIP3    H228451   6.051   1.382   1.647  0.4658 -1.9607  0.0286
 2298TIP3   OH228452   3.069   0.586   8.352  0.3585 -0.6133  0.1008
 2298TIP3    H128453   3.026   0.577   8.437  1.8518  0.2303  1.0025
 2298TIP3    H228454   3.155   0.623   8.373  1.2645 -1.5804 -1.6760
 2299TIP3   OH228455   1.302   3.372   6.479  0.2802  0.6659  0.3916
 2299TIP3    H128456   1.291   3.281   6.509  0.3348  0.7927  0.8047
 2299TIP3    H228457   1.306   3.423   6.560 -0.4898  1.1222  0.1465
 2300TIP3   OH228458   5.363   6.741   8.164 -0.3960 -0.1733  0.0737
 2300TIP3    H128459   5.439   6.750   8.108 -0.6026 -0.3995 -0.2479
 2300TIP3    H228460   5.305   6.681   8.117  0.4729 -2.3825  1.6073
 2301TIP3   OH228461   3.655   4.574   1.499 -0.4159  0.2290  0.3100
 2301TIP3    H128462   3.574   4.545   1.542 -0.4924  1.9626  1.4217
 2301TIP3    H228463   3.627   4.599   1.410 -1.8009  3.5102  1.4965
 2302TIP3   OH228464   3.887   5.853   7.806  0.0645  0.0248 -0.0132
 2302TIP3    H128465   3.841   5.770   7.790 -2.4809  0.9090  1.9977
 2302TIP3    H228466   3.909   5.851   7.899 -1.5300  2.2183  0.4905
 2303TIP3   OH228467   6.664   3.065   1.763 -0.3939  0.4309  0.1765
 2303TIP3    H128468   6.621   2.980   1.767 -0.4829  0.5220  2.2729
 2303TIP3    H228469   6.695   3.081   1.853 -0.8151  2.8015 -0.0291
 2304TIP3   OH228470   0.877   0.118   6.281  0.3535  0.3600  0.4691
 2304TIP3    H128471   0.875   0.208   6.311 -0.3904  0.6217 -0.3473
 2304TIP3    H228472   0.787   0.087   6.290  0.7326 -0.5490  1.4294
 2305TIP3   OH228473   3.815   0.308   1.948 -0.3097 -0.5468 -0.1774
 2305TIP3    H128474   3.892   0.254   1.930  1.7029  1.4664  1.7132
 2305TIP3    H228475   3.843   0.367   2.018 -2.7522  2.0948 -1.2454
 2306TIP3   OH228476   0.978   3.587   1.149  0.0820 -0.7634  0.2938
 2306TIP3    H128477   0.913   3.628   1.207  1.3446 -0.3241  1.4845
 2306TIP3    H228478   1.009   3.511   1.198  1.1915 -0.3748  0.2327
 2307TIP3   OH228479   5.692   3.903   8.172 -0.1567  0.1380 -0.7920
 2307TIP3    H128480   5.697   3.917   8.078  0.5473 -1.0037 -0.9320
 2307TIP3    H228481   5.615   3.847   8.184  1.2813 -1.9844 -0.9922
 2308TIP3   OH228482   3.655   3.556   1.688 -0.0685  0.4300  0.4253
 2308TIP3    H128483   3.688   3.565   1.777 -0.5642  0.6201  0.5954
 2308TIP3    H228484   3.668   3.463   1.667  0.7290  0.5364  0.4160
 2309TIP3   OH228485   4.337   3.373   1.035 -0.3183 -0.2911 -0.7846
 2309TIP3    H128486   4.339   3.427   0.956 -0.5928  0.1258 -0.5102
 2309TIP3    H228487   4.340   3.436   1.107 -2.7673 -0.4902 -0.4216
 2310TIP3   OH228488   1.879   0.536   7.553  0.1251  0.2319 -0.7766
 2310TIP3    H128489   1.913   0.455   7.515 -0.7193  1.1462 -3.7218
 2310TIP3    H228490   1.785   0.534   7.533 -0.1725  1.3098  0.3759
 2311TIP3   OH228491   0.074   5.403   1.666  0.3619 -0.6934  0.0846
 2311TIP3    H128492   0.096   5.329   1.610  1.6826 -1.9762  2.1490
 2311TIP3    H228493  -0.015   5.385   1.696  0.1550 -0.7063 -0.5378
 2312TIP3   OH228494   3.381   4.319   0.075  0.3463  0.0118  0.0082
 2312TIP3    H128495   3.472   4.314   0.105  1.0887  0.1361 -2.0577
 2312TIP3    H228496   3.369   4.410   0.048 -0.8474  0.3296  1.5067
 2313TIP3   OH228497   4.343   0.908   0.228 -0.6027  0.2521  0.5266
 2313TIP3    H128498   4.370   0.953   0.148  0.3195  0.6897  1.0584
 2313TIP3    H228499   4.258   0.870   0.207 -0.9168  1.3374 -0.2866
 2314TIP3   OH228500   3.643   4.203   6.177 -0.5693 -0.2230 -0.6467
 2314TIP3    H128501   3.656   4.296   6.158  0.3744 -0.7531 -2.8375
 2314TIP3    H228502   3.729   4.163   6.162 -1.3584 -1.6945 -1.4526
 2315TIP3   OH228503   6.747   3.335   1.652  0.3981  1.0325  0.4351
 2315TIP3    H128504   6.753   3.253   1.701  1.8395  1.0127  0.2650
 2315TIP3    H228505   6.795   3.318   1.571 -1.1268  1.3768 -0.5855
 2316TIP3   OH228506   0.754   5.904   0.792 -0.8347  0.0649  0.0366
 2316TIP3    H128507   0.817   5.836   0.770  0.3690  1.3383 -0.5574
 2316TIP3    H228508   0.693   5.861   0.853  0.8991 -1.0602  1.0721
 2317TIP3   OH228509   2.508   1.638   0.370 -0.0006 -0.2240 -0.5023
 2317TIP3    H128510   2.520   1.590   0.452 -0.7407  0.3668 -0.0322
 2317TIP3    H228511   2.456   1.580   0.315  1.5337 -1.1288 -1.0290
 2318TIP3   OH228512   2.169   3.184   7.176  0.2375  0.1632 -0.5619
 2318TIP3    H128513   2.115   3.111   7.205  1.5184 -0.3606  0.5857
 2318TIP3    H228514   2.201   3.159   7.089 -0.9039  0.2601 -1.0329
 2319TIP3   OH228515   2.767   0.324   7.876 -0.2687 -0.0553  0.1127
 2319TIP3    H128516   2.692   0.298   7.930 -0.1285  0.3722  0.5261
 2319TIP3    H228517   2.776   0.253   7.812 -2.5102  1.0131 -1.5070
 2320TIP3   OH228518   3.864   4.837   0.266  0.1850 -0.3085 -0.2797
 2320TIP3    H128519   3.814   4.911   0.230 -0.0648 -0.2112  0.2519
 2320TIP3    H228520   3.956   4.862   0.255  0.1384  1.0278  1.7025
 2321TIP3   OH228521   6.651   4.173   0.635 -0.2950  0.2298  0.3647
 2321TIP3    H128522   6.589   4.101   0.626  0.6087 -0.4447 -0.5553
 2321TIP3    H228523   6.651   4.192   0.729 -0.6906 -0.8247  0.5951
 2322TIP3   OH228524   1.442   4.877   0.594 -0.4860 -0.3326 -0.6217
 2322TIP3    H128525   1.470   4.864   0.503  3.7335  0.7997  0.2916
 2322TIP3    H228526   1.454   4.791   0.635 -1.0371 -0.5039 -0.8104
 2323TIP3   OH228527   3.152   2.838   0.719  0.4211 -0.0622 -0.0680
 2323TIP3    H128528   3.174   2.924   0.683 -1.1784  0.2381 -0.4236
 2323TIP3    H228529   3.057   2.842   0.733  0.4691 -1.4323  0.8379
 2324TIP3   OH228530   3.483   2.764   7.380  0.0768  0.3739 -0.0384
 2324TIP3    H128531   3.480   2.718   7.464  0.7621 -0.1548 -0.2974
 2324TIP3    H228532   3.501   2.855   7.403 -2.1707  0.7367  0.5410
 2325TIP3   OH228533   4.278   3.632   8.388  0.2172 -0.2288 -0.8244
 2325TIP3    H128534   4.202   3.684   8.413 -0.3090 -0.5506 -1.6984
 2325TIP3    H228535   4.327   3.688   8.328  0.7410  0.0152 -0.1892
 2326TIP3   OH228536   2.870   4.213   1.729 -0.3811  0.0289 -0.4404
 2326TIP3    H128537   2.892   4.120   1.741 -0.9381 -0.2264 -1.3320
 2326TIP3    H228538   2.778   4.213   1.703 -0.0613  0.7382 -1.6404
 2327TIP3   OH228539   5.627   5.424   8.475 -0.5000 -1.1012 -0.4834
 2327TIP3    H128540   5.551   5.381   8.514 -0.8813 -0.6667 -0.7398
 2327TIP3    H228541   5.640   5.379   8.392 -0.1666 -1.5083 -0.2148
 2328TIP3   OH228542   4.213   4.660   7.200 -0.2543 -0.0007  0.4285
 2328TIP3    H128543   4.247   4.572   7.218  1.2421  0.6695  1.0128
 2328TIP3    H228544   4.266   4.691   7.126 -0.3834  0.6299  0.5991
 2329TIP3   OH228545   4.446   1.468   0.656 -0.2710 -0.1442  0.5088
 2329TIP3    H128546   4.376   1.484   0.719 -1.7426 -0.0278 -1.0711
 2329TIP3    H228547   4.424   1.383   0.616  1.5847 -1.0669  1.3162
 2330TIP3   OH228548   1.446   0.956   8.243  0.4531  0.7343  0.3516
 2330TIP3    H128549   1.529   0.916   8.215 -0.0173 -0.8397  1.1149
 2330TIP3    H228550   1.449   1.044   8.206  0.9692 -0.3870 -2.5592
 2331TIP3   OH228551   4.834   1.286   6.775 -0.1017 -0.5949  0.1568
 2331TIP3    H128552   4.906   1.248   6.723 -1.9834 -0.8838 -2.4582
 2331TIP3    H228553   4.791   1.211   6.816  0.0798 -0.6075  0.3227
 2332TIP3   OH228554   0.097   3.565   6.802  0.1287  0.1850  0.3181
 2332TIP3    H128555   0.179   3.517   6.789 -0.0703  0.0981 -0.7140
 2332TIP3    H228556   0.061   3.575   6.714 -1.8653 -1.3541  0.8799
 2333TIP3   OH228557   2.181   4.781   0.420 -0.6386  0.3976  0.3774
 2333TIP3    H128558   2.174   4.740   0.506 -1.8012  0.8865  0.5274
 2333TIP3    H228559   2.164   4.710   0.358 -0.2810  0.1511  0.5539
 2334TIP3   OH228560   2.110   6.778   8.362  0.4650 -0.5054  0.6863
 2334TIP3    H128561   2.175   6.749   8.297  0.2898 -0.5921  0.5497
 2334TIP3    H228562   2.039   6.715   8.354 -0.0337  0.1049  0.2171
 2335TIP3   OH228563   4.181   4.435   1.753 -0.4635  0.7835  0.1037
 2335TIP3    H128564   4.232   4.354   1.752 -2.5215 -0.5931 -0.2094
 2335TIP3    H228565   4.160   4.452   1.662  0.9167  2.3897  0.0344
 2336TIP3   OH228566   0.996   4.432   8.574  0.5469  0.1104  0.1539
 2336TIP3    H128567   0.913   4.438   8.620  0.1273 -1.4129 -0.3233
 2336TIP3    H228568   1.028   4.343   8.594  0.4875 -0.5025 -2.1866
 2337TIP3   OH228569   1.773   1.188   6.708 -0.5950 -0.0978  0.2789
 2337TIP3    H128570   1.775   1.282   6.694 -0.7992 -0.4492 -2.9514
 2337TIP3    H228571   1.864   1.161   6.696 -0.3837 -0.2859  2.0278
 2338TIP3   OH228572   3.719   5.090   1.283 -0.3033 -0.1234 -0.5723
 2338TIP3    H128573   3.680   5.155   1.342  0.4204 -0.2445  0.0631
 2338TIP3    H228574   3.768   5.031   1.342  0.4376 -0.2443 -1.2902
 2339TIP3   OH228575   2.790   5.781   1.065 -0.0572 -0.4062  0.2749
 2339TIP3    H128576   2.842   5.849   1.107  0.4638 -1.1443  0.8478
 2339TIP3    H228577   2.828   5.773   0.977 -1.2065  1.1996 -0.4312
 2340TIP3   OH228578   0.867   3.532   0.899  0.1096  0.4003 -0.0652
 2340TIP3    H128579   0.903   3.461   0.846  0.5893  1.0208 -0.5855
 2340TIP3    H228580   0.923   3.534   0.977  2.3329  2.3641 -1.5450
 2341TIP3   OH228581   0.395   6.568   0.301 -0.0626  0.7022  0.1184
 2341TIP3    H128582   0.364   6.488   0.344  0.8168  1.4309  2.2239
 2341TIP3    H228583   0.445   6.538   0.226 -0.8966 -0.6573  0.0783
 2342TIP3   OH228584   4.675   4.920   0.028 -0.2453 -0.2009 -0.0318
 2342TIP3    H128585   4.603   4.942   0.087 -1.6918  0.1615 -1.8538
 2342TIP3    H228586   4.687   4.999  -0.026  1.7213 -0.1584  0.3875
 2343TIP3   OH228587   3.245   4.318   7.419 -0.2440 -0.2298  0.1247
 2343TIP3    H128588   3.201   4.236   7.393 -0.3241 -0.3993  0.7845
 2343TIP3    H228589   3.334   4.291   7.442  0.2098  0.1021 -1.1320
 2344TIP3   OH228590   4.408   1.580   7.775  0.0698  0.4369 -0.5628
 2344TIP3    H128591   4.470   1.649   7.798 -0.7259  0.9890 -0.0074
 2344TIP3    H228592   4.425   1.509   7.837 -0.8473  1.1905  0.5905
 2345TIP3   OH228593   6.116   3.247   1.668 -0.0310 -0.0709  0.4399
 2345TIP3    H128594   6.147   3.195   1.742  1.0444  0.8504  0.6726
 2345TIP3    H228595   6.164   3.330   1.676 -1.3985  0.8023 -0.1387
 2346TIP3   OH228596   3.834   6.475   6.929 -0.8243  0.4059  0.1801
 2346TIP3    H128597   3.898   6.500   6.995 -0.4630  1.0184 -0.3897
 2346TIP3    H228598   3.761   6.438   6.979 -1.2160  2.2567  1.0386
 2347TIP3   OH228599   6.535   5.033   0.515 -0.1051 -0.8630  0.4474
 2347TIP3    H128600   6.540   4.959   0.454 -0.4284  0.4512 -1.2686
 2347TIP3    H228601   6.616   5.082   0.499 -0.4125 -0.2536  0.7333
 2348TIP3   OH228602   2.258   3.469   7.995  0.0287  0.2105 -0.0486
 2348TIP3    H128603   2.323   3.517   8.046 -0.5940  0.0981  0.8656
 2348TIP3    H228604   2.267   3.378   8.023 -1.2665  0.3574  0.9264
 2349TIP3   OH228605   5.425   1.968   0.014 -0.8133 -0.2186 -0.2225
 2349TIP3    H128606   5.477   1.924  -0.053  0.4412 -0.0723  0.6284
 2349TIP3    H228607   5.410   2.056  -0.022  1.0384  0.3287  0.2460
 2350TIP3   OH228608   4.331   4.288   6.719  0.5432  0.5707 -0.5285
 2350TIP3    H128609   4.308   4.379   6.735  0.7655  0.3300  1.3173
 2350TIP3    H228610   4.380   4.290   6.637  0.8449  2.1515 -0.3381
 2351TIP3   OH228611   4.862   3.292   1.015  0.0027  0.1636  0.5122
 2351TIP3    H128612   4.932   3.259   0.958  0.4704  1.2138  0.4493
 2351TIP3    H228613   4.803   3.218   1.027  1.3894 -0.8990  0.9726
 2352TIP3   OH228614   0.214   2.251   0.445 -0.2207  0.5983 -0.0807
 2352TIP3    H128615   0.197   2.223   0.355  4.9846 -2.6143 -0.5008
 2352TIP3    H228616   0.262   2.334   0.436  0.8311 -0.0221 -0.4274
 2353TIP3   OH228617   4.181   1.497   1.134  0.0983  0.1663  0.2547
 2353TIP3    H128618   4.087   1.477   1.130  0.1588 -0.2341  0.7165
 2353TIP3    H228619   4.201   1.497   1.228  1.0567 -2.2015  0.1225
 2354TIP3   OH228620   0.003   6.361   1.062  0.2067 -0.1086  0.5058
 2354TIP3    H128621   0.079   6.414   1.039 -0.0216  0.0422  0.0984
 2354TIP3    H228622  -0.008   6.301   0.989  0.1552 -0.3807  0.7341
 2355TIP3   OH228623   0.299   0.899   8.469  0.4746 -0.3311 -0.0313
 2355TIP3    H128624   0.251   0.884   8.388 -0.2283  1.5526 -0.0175
 2355TIP3    H228625   0.385   0.931   8.441 -0.6134  2.8634 -0.1683
 2356TIP3   OH228626   2.016   2.541   6.200 -0.0965  0.1087  0.1226
 2356TIP3    H128627   2.072   2.512   6.272  2.0557  2.2724 -0.5284
 2356TIP3    H228628   1.979   2.461   6.165  0.6546 -1.2201  2.1448
 2357TIP3   OH228629   3.251   4.068   7.955 -0.4737 -0.1179  0.2086
 2357TIP3    H128630   3.163   4.049   7.988 -0.4810  1.6614  1.3278
 2357TIP3    H228631   3.307   4.064   8.032  0.4568 -1.1864 -0.4895
 2358TIP3   OH228632   4.470   1.958   0.707 -0.7465  0.2529  0.4375
 2358TIP3    H128633   4.507   2.042   0.682  0.4447 -0.2854  0.3245
 2358TIP3    H228634   4.380   1.978   0.734 -0.0755  1.7725  1.7046
 2359TIP3   OH228635   5.059   6.243   0.317 -0.3865  0.4392  0.1880
 2359TIP3    H128636   5.106   6.170   0.357  1.7810  1.3431 -0.5728
 2359TIP3    H228637   5.028   6.296   0.391 -1.5535 -0.9401  0.7280
 2360TIP3   OH228638   1.846   0.430   6.225  0.1640  0.2970  0.2852
 2360TIP3    H128639   1.797   0.374   6.165  1.0348  1.7341 -1.8920
 2360TIP3    H228640   1.780   0.489   6.262 -0.6431 -1.5722  2.0845
 2361TIP3   OH228641   2.540   6.261   1.251  0.1873  0.7106 -0.0076
 2361TIP3    H128642   2.597   6.242   1.325  0.4750  1.3334 -0.0609
 2361TIP3    H228643   2.585   6.226   1.175 -0.5129 -0.7062  0.2011
 2362TIP3   OH228644   6.263   1.330   0.272  0.2861 -0.2349  0.6356
 2362TIP3    H128645   6.340   1.363   0.317  1.5266 -1.2268 -0.6580
 2362TIP3    H228646   6.298   1.270   0.206 -1.3744  1.4368 -1.9337
 2363TIP3   OH228647   6.448   1.860   7.607  0.7391  0.2808 -0.1719
 2363TIP3    H128648   6.434   1.955   7.602  1.0535  0.3020 -0.8184
 2363TIP3    H228649   6.511   1.842   7.537 -0.5709 -0.6286 -1.1774
 2364TIP3   OH228650   1.127   4.142   1.081  0.3060 -0.1018  0.3405
 2364TIP3    H128651   1.113   4.075   1.014  0.7035 -0.4344  0.5832
 2364TIP3    H228652   1.202   4.193   1.048  0.1018  0.1299  0.2310
 2365TIP3   OH228653   3.293   0.441   0.879 -0.2489 -0.2340  0.1125
 2365TIP3    H128654   3.360   0.497   0.841  0.8990 -2.5453 -1.5073
 2365TIP3    H228655   3.338   0.391   0.947 -0.3371 -1.5850 -0.7784
 2366TIP3   OH228656   4.117   2.096   1.370 -0.4219 -0.0725  0.5561
 2366TIP3    H128657   4.176   2.061   1.437 -1.6701 -1.0220  1.1885
 2366TIP3    H228658   4.065   2.161   1.416 -2.5421 -1.9996  1.0471
 2367TIP3   OH228659   2.191   6.214   0.045 -0.1917 -0.1733  0.3795
 2367TIP3    H128660   2.265   6.214  -0.016 -0.7241  1.2569 -0.3107
 2367TIP3    H228661   2.221   6.265   0.120 -0.5775  0.7488 -0.0720
 2368TIP3   OH228662   2.624   0.580   7.509 -0.1115 -0.4897  0.2415
 2368TIP3    H128663   2.562   0.652   7.496 -0.9791 -1.3344 -0.3680
 2368TIP3    H228664   2.655   0.592   7.599  1.7908  2.1821 -0.6267
 2369TIP3   OH228665   2.251   0.820   7.985 -0.3872 -0.0720 -0.2519
 2369TIP3    H128666   2.199   0.744   8.012 -0.4378  0.4415  1.1486
 2369TIP3    H228667   2.319   0.828   8.052  0.9691 -0.1675 -1.5580
 2370TIP3   OH228668   0.536   6.806   0.359 -0.1285 -0.3745 -0.0343
 2370TIP3    H128669   0.483   6.732   0.331 -0.2106  0.0678 -1.0763
 2370TIP3    H228670   0.510   6.878   0.302  1.1876 -0.0053 -0.2083
 2371TIP3   OH228671   0.087   3.248   1.872 -0.1703 -1.0451 -0.2515
 2371TIP3    H128672   0.145   3.174   1.889  1.3325  0.4532  1.6524
 2371TIP3    H228673   0.085   3.296   1.955 -0.9290  1.1427 -1.4588
 2372TIP3   OH228674   4.956   4.901   2.025 -0.4071  0.3187 -0.2842
 2372TIP3    H128675   4.996   4.987   2.037 -1.7420  0.8841  0.2842
 2372TIP3    H228676   4.992   4.869   1.943  0.5192  1.1846 -0.2322
 2373TIP3   OH228677   4.316   2.756   7.816  0.0444 -0.0898  0.2590
 2373TIP3    H128678   4.324   2.723   7.726  0.4012  0.1141  0.2155
 2373TIP3    H228679   4.223   2.771   7.827 -0.2697 -2.0192  0.5984
 2374TIP3   OH228680   4.560   1.242   8.123 -0.1874 -0.0671  0.2867
 2374TIP3    H128681   4.622   1.250   8.195  0.0569 -0.1514  0.0877
 2374TIP3    H228682   4.546   1.147   8.114  0.4738 -0.1072 -0.3608
 2375TIP3   OH228683   6.126   2.081   8.197 -0.2220  0.5449  0.6949
 2375TIP3    H128684   6.139   2.047   8.108 -1.2518 -1.6926  1.3370
 2375TIP3    H228685   6.074   2.161   8.185 -1.2205 -0.2788 -0.6564
 2376TIP3   OH228686   6.168   4.317   1.540 -0.1155  0.6644 -0.0801
 2376TIP3    H128687   6.162   4.231   1.499 -1.8257  0.0404  1.3817
 2376TIP3    H228688   6.100   4.368   1.497  1.0664  1.4438 -1.1340
 2377TIP3   OH228689   6.608   4.970   7.350  0.2801  0.1258  0.2568
 2377TIP3    H128690   6.665   4.906   7.392  0.8925  0.1389 -0.5504
 2377TIP3    H228691   6.532   4.920   7.320  0.7264 -0.2122 -0.3105
 2378TIP3   OH228692   5.766   4.668   8.013  0.2133  0.3651  0.2481
 2378TIP3    H128693   5.858   4.690   8.002  0.2273  1.7282  2.3903
 2378TIP3    H228694   5.766   4.593   8.073 -0.0664 -0.2095 -0.4587
 2379TIP3   OH228695   0.842   4.726   0.464  0.2125  0.2991  0.2571
 2379TIP3    H128696   0.791   4.646   0.471 -0.6095  0.6242 -1.4833
 2379TIP3    H228697   0.848   4.743   0.370  1.2950  1.7064  0.5354
 2380TIP3   OH228698   3.859   1.364   2.051 -0.1485 -0.2546  0.8528
 2380TIP3    H128699   3.808   1.441   2.028  0.2385 -0.8587 -2.5368
 2380TIP3    H228700   3.797   1.305   2.093 -0.4917  1.7069  3.3295
 2381TIP3   OH228701   3.252   1.526   0.663  0.0301  0.2130  0.9094
 2381TIP3    H128702   3.232   1.606   0.615 -1.3385 -1.2147 -1.0291
 2381TIP3    H228703   3.337   1.498   0.629 -0.7854 -0.6195 -0.4941
 2382TIP3   OH228704   4.736   1.623   1.639  0.0291 -0.2162  0.5523
 2382TIP3    H128705   4.779   1.671   1.710 -1.7238 -0.1495  1.6199
 2382TIP3    H228706   4.747   1.679   1.562  0.8100  0.3399  1.0532
 2383TIP3   OH228707   3.154   0.505   6.915 -0.0598 -0.1694 -0.0937
 2383TIP3    H128708   3.234   0.514   6.865  0.1036 -1.0185 -0.0046
 2383TIP3    H228709   3.129   0.595   6.938  0.3518  0.1593 -0.9106
 2384TIP3   OH228710   6.084   3.502   8.031  0.2331  0.0782  0.5909
 2384TIP3    H128711   5.994   3.512   8.000 -0.8946 -1.7332  2.9292
 2384TIP3    H228712   6.096   3.574   8.093  1.0188  1.2739 -0.9055
 2385TIP3   OH228713   6.295   0.210   0.162  0.1516 -0.0339  0.2455
 2385TIP3    H128714   6.373   0.172   0.202  0.0736 -0.1149  0.3230
 2385TIP3    H228715   6.222   0.159   0.199  0.1589 -1.0323 -1.0292
 2386TIP3   OH228716   1.433   6.233   7.695  0.0763  0.2286  0.3514
 2386TIP3    H128717   1.340   6.254   7.697  0.0601  0.1339  0.6347
 2386TIP3    H228718   1.437   6.138   7.705  0.2110  0.2504  0.5082
 2387TIP3   OH228719   2.622   4.753   2.149 -0.3316 -0.4542  0.4354
 2387TIP3    H128720   2.546   4.805   2.125 -0.3802 -1.3961 -1.6697
 2387TIP3    H228721   2.587   4.682   2.203 -0.5777  0.3845  1.4145
 2388TIP3   OH228722   0.046   1.423   7.003 -0.3204 -0.1679 -0.1474
 2388TIP3    H128723  -0.044   1.453   7.021 -0.0741 -0.6373  2.1566
 2388TIP3    H228724   0.087   1.498   6.959 -0.8555  1.4468  1.9468
 2389TIP3   OH228725   0.120   3.305   8.369  0.2118 -0.2325  1.2440
 2389TIP3    H128726   0.162   3.349   8.443  2.6183 -0.3565  0.0414
 2389TIP3    H228727   0.065   3.372   8.328  0.1572  0.2875  2.1398
 2390TIP3   OH228728   0.291   5.496   1.371  0.9203  0.4816 -0.3759
 2390TIP3    H128729   0.352   5.537   1.432  2.8213  0.1355 -1.9352
 2390TIP3    H228730   0.315   5.531   1.285  1.1674 -2.1493 -1.4899
 2391TIP3   OH228731   1.815   6.787   0.956  0.1439  1.2099  0.0978
 2391TIP3    H128732   1.744   6.724   0.945 -0.3121  1.4963  1.2163
 2391TIP3    H228733   1.872   6.773   0.880 -0.2630 -0.1339  0.0120
 2392TIP3   OH228734   4.241   5.503   8.322 -0.1412  0.1512 -0.1071
 2392TIP3    H128735   4.185   5.425   8.316 -0.5016  0.5011 -1.5378
 2392TIP3    H228736   4.197   5.559   8.386 -1.5145  0.4764 -1.3043
 2393TIP3   OH228737   1.327   0.975   0.936  0.0294  0.1748 -0.2456
 2393TIP3    H128738   1.349   0.884   0.955  1.3972  0.1755 -1.6388
 2393TIP3    H228739   1.384   1.026   0.994  0.3013  0.1343 -0.4711
 2394TIP3   OH228740   5.940   5.548   8.374  0.6202 -0.1731 -0.1123
 2394TIP3    H128741   5.925   5.456   8.352  1.6873 -0.7130  1.2877
 2394TIP3    H228742   5.893   5.596   8.306 -0.4964 -1.7353 -0.5101
 2395TIP3   OH228743   3.118   3.773   7.249  0.9544  0.9682 -0.2879
 2395TIP3    H128744   3.081   3.729   7.325 -0.2890  0.2033 -1.2859
 2395TIP3    H228745   3.195   3.722   7.226  0.2667  0.0666 -0.6417
 2396TIP3   OH228746   0.835   0.061   7.085  0.5309 -0.2266 -0.3997
 2396TIP3    H128747   0.751   0.107   7.085  0.4383 -0.3556  0.9452
 2396TIP3    H228748   0.886   0.105   7.017  0.5345  2.0531  0.9696
 2397TIP3   OH228749   0.710   3.627   0.190  0.1872 -0.4002  0.1370
 2397TIP3    H128750   0.776   3.603   0.125  0.2461 -1.4044  0.5482
 2397TIP3    H228751   0.697   3.548   0.242 -0.7578  0.0218  0.5750
 2398TIP3   OH228752   1.573   1.389   1.310 -0.2080  0.4748  0.5349
 2398TIP3    H128753   1.617   1.335   1.245 -1.0410  0.9728 -0.4692
 2398TIP3    H228754   1.644   1.428   1.361  0.5976  1.8215 -1.4736
 2399TIP3   OH228755   3.296   3.626   0.338  0.2395  0.3228 -0.0833
 2399TIP3    H128756   3.237   3.604   0.411  0.0001  0.3463 -0.2694
 2399TIP3    H228757   3.276   3.561   0.271  0.3602  0.3908 -0.1848
 2400TIP3   OH228758   0.258   6.401   8.430 -0.1703  0.1725  0.6865
 2400TIP3    H128759   0.220   6.432   8.347  0.8177  0.2345  0.2436
 2400TIP3    H228760   0.317   6.330   8.404  0.4868  0.4868  1.2793
 2401TIP3   OH228761   3.618   1.298   0.015  0.0099 -0.1807  0.2004
 2401TIP3    H128762   3.664   1.359   0.072 -0.6997  1.5945 -1.0419
 2401TIP3    H228763   3.670   1.295  -0.065 -0.2658 -0.7697  0.0347
 2402TIP3   OH228764   5.681   5.408   1.361 -0.0328 -0.4347 -0.0051
 2402TIP3    H128765   5.634   5.433   1.282 -0.4996  0.4282  0.5344
 2402TIP3    H228766   5.731   5.330   1.335 -1.3375 -1.0779 -0.7389
 2403TIP3   OH228767   3.567   5.646   7.040  0.0250 -0.2885 -0.2613
 2403TIP3    H128768   3.532   5.707   7.105  1.4471 -0.7994  1.0423
 2403TIP3    H228769   3.515   5.566   7.054  0.0143 -0.2503 -0.0713
 2404TIP3   OH228770   2.611   1.042   8.186 -0.1648 -0.0389 -0.1710
 2404TIP3    H128771   2.692   1.091   8.168  0.6798 -1.4789 -0.4988
 2404TIP3    H228772   2.573   1.025   8.100 -1.2006  1.2113  0.0198
 2405TIP3   OH228773   1.319   4.755   1.725 -0.3168 -0.4053 -0.4265
 2405TIP3    H128774   1.291   4.752   1.816 -0.5814  0.8503 -0.4455
 2405TIP3    H228775   1.390   4.819   1.723 -0.8815  0.2215 -1.2219
 2406TIP3   OH228776   2.158   6.369   0.435  0.1200 -0.7717 -0.9108
 2406TIP3    H128777   2.078   6.402   0.474  1.4291  1.4534  0.0811
 2406TIP3    H228778   2.209   6.335   0.509  0.8477 -0.4562 -1.2543
 2407TIP3   OH228779   1.032   0.443   0.372  0.5346 -0.2073 -0.3990
 2407TIP3    H128780   1.041   0.409   0.461  0.7171  1.3120  0.1865
 2407TIP3    H228781   1.067   0.373   0.317  3.9943  0.2260  0.9458
 2408TIP3   OH228782   4.480   1.163   0.653  0.1218  0.2185 -0.4211
 2408TIP3    H128783   4.437   1.189   0.735  0.2610  2.5283 -1.0203
 2408TIP3    H228784   4.420   1.099   0.614  0.6529 -1.9344  2.0336
 2409TIP3   OH228785   1.779   5.071   1.631 -0.4096 -0.1102 -0.2546
 2409TIP3    H128786   1.688   5.098   1.619 -0.5589 -0.3981  0.1817
 2409TIP3    H228787   1.781   4.980   1.600 -0.8718 -0.9719  1.9670
 2410TIP3   OH228788   5.862   2.171   6.816 -0.2222  0.0154 -0.2079
 2410TIP3    H128789   5.933   2.234   6.816 -0.7006  0.5644  0.4230
 2410TIP3    H228790   5.896   2.096   6.864  0.2941 -0.1637 -0.8316
 2411TIP3   OH228791   1.081   3.328   1.012 -0.1685  0.5116 -0.0677
 2411TIP3    H128792   1.163   3.363   1.046  1.3358 -1.5271 -1.3362
 2411TIP3    H228793   1.084   3.235   1.033 -0.7805 -0.1596 -2.6098
 2412TIP3   OH228794   3.951   3.705   0.070 -0.4757 -0.1038 -0.0943
 2412TIP3    H128795   3.991   3.774   0.123  2.0604 -1.5286  0.0367
 2412TIP3    H228796   3.905   3.752   0.000 -1.1919  1.7310  1.5291
 2413TIP3   OH228797   1.179   0.750   0.042 -0.1387 -0.1290 -0.0555
 2413TIP3    H128798   1.093   0.728   0.079  0.0359 -0.8252 -0.0598
 2413TIP3    H228799   1.214   0.817   0.101 -0.6469  0.0882  0.0008
 2414TIP3   OH228800   0.953   2.713   0.322 -0.0918  0.2339 -0.5778
 2414TIP3    H128801   1.018   2.664   0.271 -1.7890  1.2231 -3.9946
 2414TIP3    H228802   0.880   2.652   0.332  0.0299  0.2166  0.3535
 2415TIP3   OH228803   4.951   3.628   0.013  0.7190  0.1071  0.1386
 2415TIP3    H128804   4.923   3.676   0.091  0.9361 -0.6390  0.6920
 2415TIP3    H228805   4.872   3.586  -0.019  0.8115 -0.4000  0.5544
 2416TIP3   OH228806   6.274   6.652   8.043 -0.7726 -0.2361  0.8935
 2416TIP3    H128807   6.332   6.593   8.092 -0.9350 -0.7153  0.5220
 2416TIP3    H228808   6.210   6.594   8.004  0.2158 -0.0527 -1.1130
 2417TIP3   OH228809   6.204   1.443   2.183  0.2522  0.2883  0.3833
 2417TIP3    H128810   6.129   1.403   2.139  0.3962  0.3360  0.0933
 2417TIP3    H228811   6.190   1.537   2.173  0.3507  0.2973  0.3265
 2418TIP3   OH228812   3.783   4.955   0.547  0.2054 -0.0842 -0.1485
 2418TIP3    H128813   3.802   4.895   0.475  0.3175 -0.3882  0.1290
 2418TIP3    H228814   3.691   4.937   0.570  0.1287  0.1073 -0.3033
 2419TIP3   OH228815   3.942   4.331   1.474 -0.6360  0.3557 -0.4365
 2419TIP3    H128816   4.037   4.343   1.478 -0.8518  2.1039  1.3092
 2419TIP3    H228817   3.910   4.408   1.426 -1.2113  0.0957 -0.4754
 2420TIP3   OH228818   3.047   5.888   2.088  0.3215  0.5013 -0.0959
 2420TIP3    H128819   3.095   5.860   2.010  0.5729  0.8581 -0.0696
 2420TIP3    H228820   3.092   5.847   2.161  1.0613  1.4447 -0.0033
 2421TIP3   OH228821   1.226   0.808   8.084  0.2634  0.4248  0.2053
 2421TIP3    H128822   1.262   0.744   8.146 -1.6067 -2.4294 -1.4417
 2421TIP3    H228823   1.291   0.812   8.014  0.6986  0.8813  0.6262
 2422TIP3   OH228824   1.478   1.022   7.832 -0.3944  0.5602 -0.5614
 2422TIP3    H128825   1.407   1.052   7.889 -0.0640  0.2558  0.0230
 2422TIP3    H228826   1.549   1.001   7.892 -0.6239 -1.4613 -0.9058
 2423TIP3   OH228827   2.908   4.650   8.636 -0.1223  0.1593 -0.4681
 2423TIP3    H128828   2.887   4.589   8.564 -1.7089  0.3564 -0.2130
 2423TIP3    H228829   2.844   4.720   8.626  0.2167  0.6297  0.6257
 2424TIP3   OH228830   5.699   5.128   6.471 -0.1824 -0.5312  0.3254
 2424TIP3    H128831   5.763   5.058   6.479  0.6661  0.3748  1.8142
 2424TIP3    H228832   5.744   5.196   6.421 -0.7602 -0.7371 -0.5035
 2425TIP3   OH228833   4.204   6.444   6.693  0.8038 -0.0074  0.1606
 2425TIP3    H128834   4.234   6.526   6.654  1.7205 -1.1454 -1.6475
 2425TIP3    H228835   4.131   6.416   6.639 -0.2853  0.1507  1.4795
 2426TIP3   OH228836   6.224   2.894   8.198  0.7089  0.0373  0.0259
 2426TIP3    H128837   6.319   2.890   8.203  0.9860  0.2440 -3.1373
 2426TIP3    H228838   6.201   2.978   8.239  1.9970  0.5287 -0.2125
 2427TIP3   OH228839   0.570   2.257   8.526  0.0488 -0.6317 -0.4637
 2427TIP3    H128840   0.503   2.247   8.458 -0.3782 -3.4284  0.2382
 2427TIP3    H228841   0.653   2.238   8.481  0.3968  1.9953 -1.1330
 2428TIP3   OH228842   2.426   6.471   7.914  0.3716 -0.0788 -0.1012
 2428TIP3    H128843   2.479   6.469   7.835  0.1703 -0.4878 -0.2280
 2428TIP3    H228844   2.399   6.380   7.928  1.6959 -0.3027  1.3099
 2429TIP3   OH228845   1.458   2.111   0.474 -0.0200 -0.8093  0.4480
 2429TIP3    H128846   1.439   2.023   0.506  1.8491 -0.7047  2.0834
 2429TIP3    H228847   1.464   2.164   0.554 -0.0213  0.5552 -0.4367
 2430TIP3   OH228848   0.943   1.691   1.748  0.2446 -0.5402  0.0224
 2430TIP3    H128849   0.972   1.688   1.839 -0.5392  1.2341  0.3887
 2430TIP3    H228850   1.018   1.725   1.700  0.2607 -0.2848  0.2233
 2431TIP3   OH228851   2.779   0.798   8.075 -0.5582  0.2595 -0.3404
 2431TIP3    H128852   2.704   0.739   8.084  0.0108 -0.5026 -0.4745
 2431TIP3    H228853   2.764   0.844   7.992 -0.8886  0.1373 -0.3481
 2432TIP3   OH228854   2.603   5.780   0.422 -0.1220 -0.4182  0.1092
 2432TIP3    H128855   2.687   5.772   0.376  0.4701 -0.1221  1.1000
 2432TIP3    H228856   2.543   5.814   0.356  0.5355 -0.6307 -0.6218
 2433TIP3   OH228857   4.610   5.414   8.487 -0.6594  0.1435 -0.0119
 2433TIP3    H128858   4.576   5.413   8.397  0.4102 -0.7818 -0.4313
 2433TIP3    H228859   4.670   5.489   8.489  1.3970 -1.3628 -0.9384
 2434TIP3   OH228860   5.147   3.661   7.523  0.1338 -0.2074  0.7644
 2434TIP3    H128861   5.136   3.598   7.594  0.0381  0.8569  1.7246
 2434TIP3    H228862   5.058   3.690   7.502 -0.0418 -1.8496 -1.0999
 2435TIP3   OH228863   4.966   6.020   6.120 -0.0106 -0.3864  0.2986
 2435TIP3    H128864   5.022   6.098   6.120  0.1557 -0.5056  0.4503
 2435TIP3    H228865   4.882   6.051   6.153 -0.7132  0.2736 -1.9328
 2436TIP3   OH228866   3.072   5.104   7.277  0.2781  0.2477 -0.1036
 2436TIP3    H128867   3.076   5.072   7.187  0.5479  0.9766 -0.3594
 2436TIP3    H228868   3.081   5.199   7.269 -0.8908  0.4409  0.5946
 2437TIP3   OH228869   2.708   6.525   8.406 -0.0989 -0.5377  0.5418
 2437TIP3    H128870   2.639   6.573   8.360  1.3310  0.4921 -0.6539
 2437TIP3    H228871   2.661   6.468   8.466 -1.9589  0.8662  0.5420
 2438TIP3   OH228872   5.491   0.732   0.004  0.1543  0.6460 -0.3438
 2438TIP3    H128873   5.562   0.767   0.058 -0.1391 -0.1108  0.5475
 2438TIP3    H228874   5.534   0.668  -0.053  0.2615  0.4900 -0.0906
 2439TIP3   OH228875   0.472   4.789   0.578 -0.0553  0.7259 -0.1270
 2439TIP3    H128876   0.409   4.772   0.649  0.7583 -1.0799  0.2358
 2439TIP3    H228877   0.505   4.877   0.595 -0.6005  0.7030  1.1740
 2440TIP3   OH228878   3.179   3.146   7.656 -0.0320 -0.0457  0.3170
 2440TIP3    H128879   3.149   3.066   7.614 -1.6729  0.7093 -0.0327
 2440TIP3    H228880   3.100   3.200   7.663  1.0012  1.4653  0.6999
 2441TIP3   OH228881   5.931   3.695   0.243  0.1947  0.0037 -0.1970
 2441TIP3    H128882   5.905   3.749   0.169  0.3905  0.9672  0.4125
 2441TIP3    H228883   6.026   3.686   0.235 -0.0259 -1.9611 -1.3939
 2442TIP3   OH228884   2.479   6.723   8.486  0.5753 -0.3682 -0.2825
 2442TIP3    H128885   2.405   6.664   8.473  1.2641 -0.9864 -1.6975
 2442TIP3    H228886   2.524   6.690   8.564 -0.2107 -0.4406  0.1429
 2443TIP3   OH228887   3.995   6.005   0.486  0.0372 -0.0071  0.1227
 2443TIP3    H128888   3.926   6.068   0.463  1.9608  3.0325  1.9104
 2443TIP3    H228889   3.976   5.981   0.576  0.4066 -0.4828  0.0763
 2444TIP3   OH228890   6.427   0.013   7.148  0.3006 -0.8943 -0.2260
 2444TIP3    H128891   6.493   0.073   7.180 -0.5865  0.3046 -0.5445
 2444TIP3    H228892   6.445   0.006   7.054  0.6312 -1.4382 -0.1257
 2445TIP3   OH228893   0.428   4.223   7.829 -0.0858  0.2555  0.3969
 2445TIP3    H128894   0.376   4.249   7.905  0.7531  2.4157  0.3206
 2445TIP3    H228895   0.519   4.223   7.861  0.1388 -0.4785 -0.2054
 2446TIP3   OH228896   4.036   2.522   0.345 -0.1957 -0.1651  0.4462
 2446TIP3    H128897   3.961   2.544   0.400 -1.8312 -1.8329 -0.9683
 2446TIP3    H228898   3.999   2.515   0.257  1.8974  0.1807 -0.5108
 2447TIP3   OH228899   4.938   1.959   1.402  0.3385  0.6341  0.3571
 2447TIP3    H128900   4.869   1.970   1.467  2.6472  2.9620  2.6925
 2447TIP3    H228901   5.009   1.915   1.449  1.5626  1.0440 -1.0199
 2448TIP3   OH228902   4.230   0.618   8.599  0.0703 -0.4334  0.0313
 2448TIP3    H128903   4.139   0.603   8.573 -0.7713  0.3173  2.2719
 2448TIP3    H228904   4.269   0.530   8.601 -0.2741 -0.6747 -1.8969
 2449TIP3   OH228905   3.883   3.502   8.400  0.3096 -0.4667 -0.7313
 2449TIP3    H128906   3.892   3.421   8.450  1.6648  0.5786  0.8539
 2449TIP3    H228907   3.912   3.480   8.312  1.9905 -1.4334  0.0122
 2450TIP3   OH228908   1.160   3.435   1.762  0.9255  0.4025  0.1948
 2450TIP3    H128909   1.175   3.490   1.684  2.1421 -0.5365 -0.2720
 2450TIP3    H228910   1.214   3.358   1.747 -0.9872 -1.0947  0.6876
 2451TIP3   OH228911   3.133   1.205   7.624 -0.0671  0.0262 -0.3949
 2451TIP3    H128912   3.076   1.127   7.621  0.0400 -0.0290 -1.3429
 2451TIP3    H228913   3.150   1.225   7.532 -1.4555  2.1755 -0.2482
 2452TIP3   OH228914   2.841   0.064   7.817  0.3916 -0.1384  0.4196
 2452TIP3    H128915   2.924   0.087   7.773  1.0502 -1.5452  0.8829
 2452TIP3    H228916   2.862   0.066   7.910  0.0487 -1.0652  0.5169
 2453TIP3   OH228917   1.586   1.418   0.107 -0.1388 -1.0220  0.4131
 2453TIP3    H128918   1.622   1.346   0.055 -0.9163 -0.4669 -0.9541
 2453TIP3    H228919   1.623   1.405   0.194  1.6687 -1.6816 -0.3862
 2454TIP3   OH228920   0.051   5.488   6.879 -0.0742 -0.2015  0.4351
 2454TIP3    H128921  -0.007   5.555   6.843  2.5685  0.8830 -2.1694
 2454TIP3    H228922   0.067   5.428   6.806  0.9076 -1.3177  1.5197
 2455TIP3   OH228923   1.149   6.630   1.309 -0.1817 -0.1741  0.1253
 2455TIP3    H128924   1.149   6.710   1.256 -1.2869 -0.1111  0.2131
 2455TIP3    H228925   1.229   6.584   1.281  0.5865  1.0531  0.2440
 2456TIP3   OH228926   6.765   2.281   0.283  0.1002 -0.3979  0.0092
 2456TIP3    H128927   6.735   2.192   0.300 -0.3536 -0.7948 -2.5552
 2456TIP3    H228928   6.860   2.273   0.272  0.1548 -0.4264  0.4682
 2457TIP3   OH228929   6.288   2.327   8.325  0.0212 -0.4182 -0.4092
 2457TIP3    H128930   6.273   2.386   8.399  0.7633 -0.7574  0.0202
 2457TIP3    H228931   6.241   2.247   8.348  2.8667 -1.7474  1.2703
 2458TIP3   OH228932   0.611   4.067   0.071  0.8744 -0.3765 -0.4600
 2458TIP3    H128933   0.618   4.142   0.012  0.7315  1.3948  1.6211
 2458TIP3    H228934   0.517   4.057   0.085  0.7222 -2.5062 -2.4868
 2459TIP3   OH228935   5.186   1.851   1.522 -0.0329  0.3696 -0.0679
 2459TIP3    H128936   5.202   1.850   1.616  1.2523 -0.0784 -0.2725
 2459TIP3    H228937   5.171   1.760   1.498  0.4732  0.3781 -0.4272
 2460TIP3   OH228938   5.086   2.642   1.166  0.1842 -0.2717 -0.1536
 2460TIP3    H128939   5.028   2.711   1.199 -0.8578 -0.4146 -1.6113
 2460TIP3    H228940   5.029   2.584   1.115  0.8173 -2.7892  1.7620
 2461TIP3   OH228941   6.476   3.478   0.714  0.0323 -0.0819  0.6681
 2461TIP3    H128942   6.413   3.430   0.768  0.7945  0.3493  1.9769
 2461TIP3    H228943   6.530   3.410   0.675 -2.5565 -0.6642 -2.3571
 2462TIP3   OH228944   2.390   6.780   0.117 -0.5399  0.2768  0.2630
 2462TIP3    H128945   2.402   6.704   0.174  1.6755  0.2792 -0.1045
 2462TIP3    H228946   2.315   6.757   0.062 -2.3390  0.0223  2.6829
 2463TIP3   OH228947   6.778   4.159   6.911 -0.7505  0.4181 -0.5955
 2463TIP3    H128948   6.835   4.229   6.878 -1.2182  0.1530 -1.9839
 2463TIP3    H228949   6.839   4.094   6.947 -0.2671  0.9656 -0.4054
 2464TIP3   OH228950   2.956   1.344   7.761  0.7246  0.1723 -0.1371
 2464TIP3    H128951   3.004   1.366   7.840  0.2428 -0.9611  0.4839
 2464TIP3    H228952   3.017   1.293   7.708  0.9787  0.7565 -0.4135
 2465TIP3   OH228953   5.654   0.736   0.483 -0.1739 -0.0661 -0.0220
 2465TIP3    H128954   5.646   0.661   0.424  0.5657  0.2482 -0.5283
 2465TIP3    H228955   5.742   0.728   0.521 -0.2895  0.2514  0.3221
 2466TIP3   OH228956   1.705   0.094   0.684 -0.2099  0.3213 -0.4556
 2466TIP3    H128957   1.732   0.152   0.612 -0.5817  0.7306 -0.2698
 2466TIP3    H228958   1.616   0.122   0.705 -0.1281  0.1567  0.1211
 2467TIP3   OH228959   6.119   1.716   5.964 -0.0013 -0.1405 -0.6717
 2467TIP3    H128960   6.143   1.769   5.888 -1.0787  0.3015 -0.7154
 2467TIP3    H228961   6.035   1.751   5.993  1.2715  1.0881  1.9788
 2468TIP3   OH228962   3.732   0.752   1.071  0.6288  0.2381  0.5137
 2468TIP3    H128963   3.653   0.765   1.018 -0.9732 -3.5966  1.6535
 2468TIP3    H228964   3.790   0.699   1.016  2.1301  2.2281  0.0527
 2469TIP3   OH228965   5.465   1.441   8.372 -0.0958  0.0831  0.4646
 2469TIP3    H128966   5.474   1.347   8.356 -1.0844  0.3448 -2.1741
 2469TIP3    H228967   5.380   1.450   8.416 -0.1467 -0.2441  0.4366
 2470TIP3   OH228968   5.920   5.608   7.697 -0.2390  0.0281 -0.0696
 2470TIP3    H128969   5.888   5.588   7.609  2.1542 -0.8864 -0.8164
 2470TIP3    H228970   5.974   5.687   7.685 -1.0585  0.7626  0.8876
 2471TIP3   OH228971   6.365   2.604   7.324 -0.2391  0.0696 -0.0752
 2471TIP3    H128972   6.381   2.603   7.418 -0.3913 -1.5469 -0.0339
 2471TIP3    H228973   6.406   2.685   7.293  1.6212 -0.3864  1.0771
 2472TIP3   OH228974   6.045   0.924   0.944  0.2348 -0.1874  0.2570
 2472TIP3    H128975   6.107   0.871   0.894  0.8294 -2.3707  3.0032
 2472TIP3    H228976   6.018   0.867   1.016 -1.8271  2.1405  1.4885
 2473TIP3   OH228977   2.329   5.916   8.632 -0.0832  0.6222  0.6108
 2473TIP3    H128978   2.257   5.944   8.689  0.5453  0.7824  1.3369
 2473TIP3    H228979   2.324   5.976   8.557  0.0922  1.4836  1.2764
 2474TIP3   OH228980   4.627   1.516   1.044  0.7996 -0.2939  0.0233
 2474TIP3    H128981   4.637   1.449   0.977 -2.7433 -0.2045 -0.8048
 2474TIP3    H228982   4.641   1.599   0.997  1.8569 -0.3163  0.2744
 2475TIP3   OH228983   3.795   4.888   6.417  0.4028 -0.5547  0.2206
 2475TIP3    H128984   3.797   4.953   6.347 -1.1686  1.0413  1.5712
 2475TIP3    H228985   3.706   4.852   6.414 -0.2649  0.7687  2.3954
 2476TIP3   OH228986   5.094   2.417   8.640 -0.0357  0.4382 -0.2929
 2476TIP3    H128987   5.041   2.412   8.720 -0.9669 -1.2507 -0.9502
 2476TIP3    H228988   5.068   2.340   8.590  3.1212 -0.5356 -0.6568
 2477TIP3   OH228989   4.347   1.496   6.863 -0.6827  0.0466  0.4687
 2477TIP3    H128990   4.278   1.474   6.800 -1.1468 -1.8181  1.5476
 2477TIP3    H228991   4.428   1.463   6.823 -0.7260  0.3382  0.1380
 2478TIP3   OH228992   2.953   6.652   8.464 -0.4405  0.3613  0.4121
 2478TIP3    H128993   2.941   6.747   8.459 -3.3199  0.0597  0.1506
 2478TIP3    H228994   2.865   6.616   8.459  0.6175 -2.3975 -0.2486
 2479TIP3   OH228995   6.342   2.002   8.542  0.1750 -0.9444 -0.1118
 2479TIP3    H128996   6.317   2.028   8.631 -0.9908  0.0591 -0.6991
 2479TIP3    H228997   6.263   1.960   8.507 -0.0350  0.3586 -1.2865
 2480TIP3   OH228998   4.041   0.561   8.330 -0.0190  0.3312 -0.5929
 2480TIP3    H128999   4.099   0.589   8.259 -1.0301  0.6849 -1.3001
 2480TIP3    H229000   3.967   0.519   8.286 -0.4372  0.1384  0.2731
 2481TIP3   OH229001   2.671   0.403   0.385  0.1961 -0.3598 -0.3029
 2481TIP3    H129002   2.624   0.431   0.306 -0.0998 -0.4023 -0.1414
 2481TIP3    H229003   2.661   0.308   0.386 -0.8202 -0.2539  0.4301
 2482TIP3   OH229004   5.748   2.267   7.619  0.1057  0.3263 -0.5682
 2482TIP3    H129005   5.827   2.280   7.565  0.4682 -1.9558 -0.7017
 2482TIP3    H229006   5.686   2.225   7.559 -0.5476  0.4486  0.0218
 2483TIP3   OH229007   6.547   6.731   2.049 -0.2961 -0.1723  0.0862
 2483TIP3    H129008   6.560   6.723   1.955 -0.2408 -0.4695  0.1167
 2483TIP3    H229009   6.615   6.793   2.077 -2.0705  2.1586 -0.4640
 2484TIP3   OH229010   1.523   1.513   8.435 -0.2058  0.0229 -0.1468
 2484TIP3    H129011   1.605   1.500   8.482 -0.5255  1.0832  0.7236
 2484TIP3    H229012   1.530   1.600   8.395 -0.2266 -0.5670 -1.5032
 2485TIP3   OH229013   2.113   0.723   7.738  0.3098 -0.2849 -0.2211
 2485TIP3    H129014   2.025   0.736   7.773  0.5240  1.1482 -0.1375
 2485TIP3    H229015   2.167   0.703   7.815  0.4568  1.1566  0.0992
 2486TIP3   OH229016   4.086   6.646   8.472  0.2962 -0.6963  0.1762
 2486TIP3    H129017   4.053   6.587   8.404  1.8888  0.2868 -1.5079
 2486TIP3    H229018   4.043   6.730   8.453 -0.8725 -0.8956  1.7153
 2487TIP3   OH229019   3.529   6.790   7.902  0.0645 -0.2746  0.1825
 2487TIP3    H129020   3.514   6.811   7.995 -0.7489  3.3174 -0.6119
 2487TIP3    H229021   3.457   6.733   7.878  1.2323 -2.7467  2.0901
 2488TIP3   OH229022   2.942   3.047   6.366  0.0523 -0.3610  0.5285
 2488TIP3    H129023   2.876   3.112   6.341  1.5593  1.4897  1.1343
 2488TIP3    H229024   2.891   2.967   6.383 -2.3120  1.4765  2.8946
 2489TIP3   OH229025   5.567   2.741   8.424  0.0095  0.0103  0.8958
 2489TIP3    H129026   5.603   2.732   8.336 -0.5085 -1.8125  0.8316
 2489TIP3    H229027   5.481   2.699   8.419 -0.1569  0.1502  2.1982
 2490TIP3   OH229028   4.448   0.183   2.453 -0.0260  1.0877  0.0451
 2490TIP3    H129029   4.433   0.265   2.499  3.1818  1.6572  0.3267
 2490TIP3    H229030   4.538   0.160   2.474 -0.6147 -2.2151 -0.5503
 2491TIP3   OH229031   3.832   0.641   1.300  0.6303  0.1916 -0.2476
 2491TIP3    H129032   3.768   0.690   1.351  0.4777 -0.1797 -0.0729
 2491TIP3    H229033   3.809   0.657   1.209  1.9480  2.2481 -0.2731
 2492TIP3   OH229034   3.785   0.852   7.170 -0.2378  0.5514 -0.9682
 2492TIP3    H129035   3.810   0.905   7.246  2.9098  1.0784 -2.1879
 2492TIP3    H229036   3.857   0.790   7.160 -0.9400  0.0013 -3.0677
 2493TIP3   OH229037   6.177   3.836   7.865  0.3828  0.1150  0.1658
 2493TIP3    H129038   6.193   3.865   7.775  1.2119 -0.2830  0.1778
 2493TIP3    H229039   6.109   3.895   7.897 -0.7412 -0.4512 -1.0907
 2494TIP3   OH229040   4.093   4.507   2.144 -0.2850 -0.2670  0.7821
 2494TIP3    H129041   4.128   4.593   2.171 -0.6458  0.2999 -0.4532
 2494TIP3    H229042   4.000   4.523   2.127 -0.5396 -1.1108  1.3305
 2495TIP3   OH229043   0.327   1.515   8.018  0.0199  1.3318  0.0949
 2495TIP3    H129044   0.261   1.567   8.064  1.1835  1.9718  1.1121
 2495TIP3    H229045   0.311   1.533   7.925 -2.0577  0.4132  0.2167
 2496TIP3   OH229046   3.054   3.280   1.518 -0.4634 -0.3729 -0.0707
 2496TIP3    H129047   2.990   3.214   1.545 -1.5726  0.6994 -0.0338
 2496TIP3    H229048   3.078   3.325   1.600  0.0257 -0.4859 -0.1458
 2497TIP3   OH229049   0.184   0.180   6.867 -0.8607  0.1455  0.4587
 2497TIP3    H129050   0.147   0.265   6.891 -0.7561  0.1317  0.6736
 2497TIP3    H229051   0.109   0.122   6.861 -0.8848  0.1371  0.8142
 2498TIP3   OH229052   0.971   6.436   0.346 -0.1400  0.8449  0.4913
 2498TIP3    H129053   0.901   6.495   0.317 -0.7532 -0.2034 -0.2737
 2498TIP3    H229054   0.929   6.349   0.347  1.0089  0.2724  0.5273
 2499TIP3   OH229055   6.492   3.327   8.258  0.1412  0.5889 -0.1733
 2499TIP3    H129056   6.428   3.347   8.190 -0.1784  0.9851  0.2383
 2499TIP3    H229057   6.567   3.292   8.210 -0.6764 -0.6441 -0.5915
 2500TIP3   OH229058   1.155   1.653   8.259  0.0406  0.5471  0.8550
 2500TIP3    H129059   1.201   1.732   8.229 -0.0059  0.5184  0.7095
 2500TIP3    H229060   1.170   1.652   8.354  0.7117  0.3032  0.7536
 2501TIP3   OH229061   4.899   0.069   6.223  0.2362 -0.2500  0.0348
 2501TIP3    H129062   4.994   0.073   6.224  0.2164  1.0861  1.7110
 2501TIP3    H229063   4.878  -0.002   6.162  2.2229  0.8905 -2.1299
 2502TIP3   OH229064   4.451   4.429   0.742 -0.6001 -0.4352  0.1304
 2502TIP3    H129065   4.519   4.364   0.725 -0.0802  0.1564 -0.0719
 2502TIP3    H229066   4.429   4.464   0.656 -2.9849 -2.3713 -0.1777
 2503TIP3   OH229067   0.942   5.674   7.391 -0.0518 -0.2659 -0.5238
 2503TIP3    H129068   0.915   5.669   7.482 -0.5768  0.0235 -0.6607
 2503TIP3    H229069   1.034   5.699   7.394  0.3136 -1.5935 -0.0375
 2504TIP3   OH229070   1.749   0.978   8.440  0.0412 -0.0996  0.0429
 2504TIP3    H129071   1.674   1.037   8.445  0.2368  0.1283  0.3271
 2504TIP3    H229072   1.824   1.031   8.468 -0.0223 -0.8963  1.8966
 2505TIP3   OH229073   0.433   3.379   0.877  0.4459 -0.0662  0.3054
 2505TIP3    H129074   0.377   3.327   0.934  0.2389 -1.0717 -0.7887
 2505TIP3    H229075   0.377   3.404   0.804  1.5317 -1.6168 -1.1295
 2506TIP3   OH229076   5.336   1.796   0.668  0.1637  0.0206  0.0731
 2506TIP3    H129077   5.371   1.884   0.680 -0.4360  0.0817  1.4923
 2506TIP3    H229078   5.243   1.804   0.689 -0.2693 -0.6078 -1.4671
 2507TIP3   OH229079   2.682   1.284   7.781  0.3999  0.2454 -0.2535
 2507TIP3    H129080   2.655   1.199   7.747  0.5615 -0.4833  1.3240
 2507TIP3    H229081   2.764   1.303   7.736  0.7780 -0.8267 -0.0610
 2508TIP3   OH229082   0.719   1.325   0.091 -0.2436  0.2626 -0.1010
 2508TIP3    H129083   0.656   1.266   0.048  0.1894 -0.1432 -0.1813
 2508TIP3    H229084   0.805   1.289   0.068  0.0181  0.8196  0.0051
 2509TIP3   OH229085   0.667   5.311   7.765 -0.2314 -0.1597  0.3306
 2509TIP3    H129086   0.760   5.331   7.779 -0.4357  0.5326  0.7067
 2509TIP3    H229087   0.668   5.231   7.711  0.5824  0.3535 -0.4430
 2510TIP3   OH229088   1.237   3.436   7.511  0.1217 -0.3516  0.1062
 2510TIP3    H129089   1.192   3.434   7.596 -0.6456 -1.3638 -0.3012
 2510TIP3    H229090   1.167   3.423   7.447  0.7043  0.3439 -0.6887
 2511TIP3   OH229091   2.849   5.995   6.344 -0.0364 -0.2202 -0.3318
 2511TIP3    H129092   2.921   6.042   6.385  1.0151 -3.7325  2.2446
 2511TIP3    H229093   2.890   5.942   6.276 -0.5857 -0.4195 -0.5151
 2512TIP3   OH229094   0.605   0.964   1.294  0.5667  0.5901  0.3305
 2512TIP3    H129095   0.581   0.874   1.274 -0.1233  0.4609  1.6114
 2512TIP3    H229096   0.609   1.007   1.209 -0.2045 -0.3863 -0.2259
 2513TIP3   OH229097   2.866   0.540   1.354 -0.3569 -0.0282  0.5519
 2513TIP3    H129098   2.870   0.461   1.408 -0.1121 -0.0979  0.4328
 2513TIP3    H229099   2.775   0.543   1.324 -0.0399 -1.1173 -0.6833
 2514TIP3   OH229100   6.007   0.656   1.585 -0.1319  0.1900 -0.0539
 2514TIP3    H129101   5.924   0.619   1.554 -0.7928  1.6738 -0.1355
 2514TIP3    H229102   6.019   0.618   1.672 -1.4331  0.7435  0.3924
 2515TIP3   OH229103   4.218   5.522   7.625 -0.0901  0.5062  0.3149
 2515TIP3    H129104   4.169   5.600   7.602  0.5375  0.2632 -2.1601
 2515TIP3    H229105   4.205   5.462   7.551  2.9492  0.0030  0.0391
 2516TIP3   OH229106   2.643   5.065   1.505 -0.1646 -0.0089  0.1722
 2516TIP3    H129107   2.592   5.025   1.434 -0.6819  1.0293 -0.0580
 2516TIP3    H229108   2.577   5.087   1.571  0.0030  1.1563 -0.0355
 2517TIP3   OH229109   1.443   3.424   6.805 -0.3642  0.1687  0.1576
 2517TIP3    H129110   1.527   3.416   6.850  0.1497  1.2685 -0.5625
 2517TIP3    H229111   1.395   3.345   6.830 -0.0968  0.6844  2.5788
 2518TIP3   OH229112   2.315   1.704   8.403 -0.4444  0.2428  0.0246
 2518TIP3    H129113   2.309   1.616   8.440  2.2244  0.4796  1.2629
 2518TIP3    H229114   2.362   1.693   8.321  0.0187  0.5073  0.2493
 2519TIP3   OH229115   6.731   4.467   5.925 -0.8614 -0.1539  0.9070
 2519TIP3    H129116   6.684   4.403   5.978 -1.1716  1.3207  2.5104
 2519TIP3    H229117   6.783   4.517   5.988  1.6962 -0.6910 -0.6191
 2520TIP3   OH229118   2.044   1.138   6.653  0.0237  0.6477  0.0176
 2520TIP3    H129119   2.131   1.160   6.686  0.5148  0.3197 -1.0428
 2520TIP3    H229120   2.045   1.043   6.646 -0.0150  0.7244 -1.0950
 2521TIP3   OH229121   6.114   2.275   6.963  0.0746 -0.6030 -0.2743
 2521TIP3    H129122   6.035   2.313   7.002  1.1251  1.8244 -0.3419
 2521TIP3    H229123   6.115   2.308   6.874  1.0174 -0.8710 -0.3694
 2522TIP3   OH229124   4.497   3.391   1.308 -0.0598  0.3604 -0.0362
 2522TIP3    H129125   4.414   3.368   1.264 -0.5572  1.8774  0.0472
 2522TIP3    H229126   4.470   3.440   1.385  0.9118  0.5448  0.1946
 2523TIP3   OH229127   3.105   5.131   1.512  0.0219 -0.6204  0.5329
 2523TIP3    H129128   3.064   5.129   1.598 -0.3655 -0.3982  0.3546
 2523TIP3    H229129   3.032   5.131   1.450  0.2713  0.3269  0.2151
 2524TIP3   OH229130   0.127   3.321   0.265  0.3871  0.1917  0.2935
 2524TIP3    H129131   0.113   3.228   0.249 -1.3681  0.4950 -0.1036
 2524TIP3    H229132   0.041   3.355   0.288  1.2573  1.4594  1.8909
 2525TIP3   OH229133   6.764   4.462   1.640 -0.6896 -0.7361  0.5674
 2525TIP3    H129134   6.776   4.539   1.696  1.9961 -0.8018  0.2316
 2525TIP3    H229135   6.767   4.388   1.701  1.7810 -0.7818  0.4964
 2526TIP3   OH229136   0.196   2.704   7.749  0.3594  0.3704 -0.5882
 2526TIP3    H129137   0.163   2.639   7.811  1.2768 -2.6224 -2.9840
 2526TIP3    H229138   0.119   2.756   7.727 -0.8778 -1.0749  0.0773
 2527TIP3   OH229139   0.066   5.086   7.305  0.4495 -0.5440 -0.1590
 2527TIP3    H129140   0.125   5.065   7.378  0.3990  1.0360  0.3752
 2527TIP3    H229141   0.109   5.158   7.260 -0.9681  0.5359  0.1451
 2528TIP3   OH229142   5.188   0.395   0.603  0.1097 -0.1062 -0.5072
 2528TIP3    H129143   5.137   0.436   0.533 -0.9292  0.4445  0.5280
 2528TIP3    H229144   5.153   0.434   0.683  1.2633 -0.7248  0.3255
 2529TIP3   OH229145   2.144   4.877   8.075  0.3814 -0.6635  0.4436
 2529TIP3    H129146   2.094   4.959   8.071  2.0233  0.3616 -1.5328
 2529TIP3    H229147   2.220   4.894   8.019  1.6429 -2.9919  1.3461
 2530TIP3   OH229148   4.763   1.867   7.325 -0.4189 -0.4235  0.3483
 2530TIP3    H129149   4.757   1.784   7.276 -1.9201  0.4650 -1.0774
 2530TIP3    H229150   4.853   1.895   7.312  0.2410 -1.9955  1.1914
 2531TIP3   OH229151   4.020   6.117   0.808 -0.2719 -0.7805  0.0002
 2531TIP3    H129152   3.994   6.032   0.843 -1.1665 -0.1699  0.8704
 2531TIP3    H229153   3.951   6.138   0.744 -0.6084 -0.2667  0.5231
 2532TIP3   OH229154   6.546   6.245   2.585  0.8178 -0.4136  0.2630
 2532TIP3    H129155   6.479   6.281   2.527  0.5901 -1.5453 -0.2188
 2532TIP3    H229156   6.497   6.205   2.657  1.0417 -0.1342  0.5744
 2533TIP3   OH229157   2.543   2.280   0.241 -0.6764  0.6772  0.0292
 2533TIP3    H129158   2.627   2.236   0.254 -1.1802  0.1801  1.9643
 2533TIP3    H229159   2.526   2.272   0.148  1.2587  0.5048 -0.3615
 2534TIP3   OH229160   3.780   0.498   0.539 -0.0440  0.2635  0.0236
 2534TIP3    H129161   3.708   0.502   0.601 -0.8479  1.7559 -0.9520
 2534TIP3    H229162   3.855   0.469   0.591 -1.4916 -2.2335  0.8846
 2535TIP3   OH229163   1.915   4.574   1.663 -0.1019 -0.0484 -0.4107
 2535TIP3    H129164   1.908   4.664   1.695 -0.1588  0.2375 -1.1950
 2535TIP3    H229165   1.978   4.578   1.591  0.4859 -0.7844  0.0470
 2536TIP3   OH229166   4.693   6.198   0.612  0.3855 -0.0549 -0.0699
 2536TIP3    H129167   4.606   6.222   0.643 -0.2415 -1.7168 -0.4224
 2536TIP3    H229168   4.720   6.272   0.557 -1.0338  0.2654 -0.3777
 2537TIP3   OH229169   5.897   6.805   7.243 -0.0264 -0.3210  0.5558
 2537TIP3    H129170   5.839   6.860   7.295 -1.0459 -0.2643 -0.5854
 2537TIP3    H229171   5.956   6.866   7.200 -1.2783 -0.0447 -0.8586
 2538TIP3   OH229172   0.170   3.283   2.452 -0.6742  0.7426  0.6122
 2538TIP3    H129173   0.220   3.323   2.523  1.6909 -0.8608 -0.0307
 2538TIP3    H229174   0.214   3.313   2.372 -1.8801  0.6962 -0.0890
 2539TIP3   OH229175   4.164   1.652   1.663  0.5296 -0.0034 -0.2634
 2539TIP3    H129176   4.144   1.628   1.754  1.1648 -0.8946 -0.3431
 2539TIP3    H229177   4.110   1.593   1.610  0.1799  0.4964 -0.4687
 2540TIP3   OH229178   0.457   0.851   6.669  0.4129 -0.5810 -0.2210
 2540TIP3    H129179   0.523   0.834   6.602  1.0423  0.1012  0.2246
 2540TIP3    H229180   0.448   0.946   6.671 -1.8793 -0.6779 -1.5198
 2541TIP3   OH229181   3.838   1.851   6.742  0.4007  0.5047 -0.1387
 2541TIP3    H129182   3.877   1.889   6.821  2.4453  1.3648 -1.4874
 2541TIP3    H229183   3.766   1.910   6.720 -1.7297 -0.9862  2.2697
 2542TIP3   OH229184   6.417   4.457   0.810 -0.5106  0.4758 -0.2557
 2542TIP3    H129185   6.418   4.528   0.873 -0.5009  1.3068 -1.1680
 2542TIP3    H229186   6.465   4.386   0.852 -0.7448  0.9124  0.7689
 2543TIP3   OH229187   0.458   3.710   1.026 -0.2650 -0.5957  0.0716
 2543TIP3    H129188   0.487   3.624   1.056 -1.5454 -0.9871  0.2218
 2543TIP3    H229189   0.363   3.710   1.040 -0.0341  1.7816  2.5449
 2544TIP3   OH229190   5.308   5.103   7.505  0.5891 -0.4575  0.2504
 2544TIP3    H129191   5.313   5.172   7.571  2.3765 -0.4827  0.2001
 2544TIP3    H229192   5.310   5.022   7.556 -0.2471 -0.4842  0.2508
 2545TIP3   OH229193   2.402   5.598   1.319 -0.1920 -0.2596  0.3873
 2545TIP3    H129194   2.424   5.689   1.343  2.0962 -1.6048  4.3315
 2545TIP3    H229195   2.458   5.579   1.244 -0.0394  1.2928  0.0669
 2546TIP3   OH229196   6.150   1.072   8.287 -0.6507  0.6171 -0.3534
 2546TIP3    H129197   6.063   1.034   8.273 -0.2354 -0.9778  0.9852
 2546TIP3    H229198   6.140   1.125   8.366 -0.3871  0.2912 -0.0958
 2547TIP3   OH229199   3.699   6.658   7.220 -0.1669 -0.0836 -0.0195
 2547TIP3    H129200   3.724   6.750   7.211 -0.5587 -0.0641 -0.9704
 2547TIP3    H229201   3.610   6.654   7.184  0.0882 -0.9552 -0.5613
 2548TIP3   OH229202   0.639   1.119   1.062  0.1400  0.0651 -0.3380
 2548TIP3    H129203   0.664   1.211   1.065  4.3864 -0.7606 -2.6332
 2548TIP3    H229204   0.582   1.112   0.986  2.0619  0.5026 -1.9022
 2549TIP3   OH229205   3.115   3.369   2.631  0.4949  0.2951 -0.0388
 2549TIP3    H129206   3.170   3.434   2.676  1.4610 -0.8820  0.5308
 2549TIP3    H229207   3.046   3.421   2.590  0.3784  1.5517  1.6473
 2550TIP3   OH229208   5.257   5.396   7.576  0.3728 -0.2542 -0.6992
 2550TIP3    H129209   5.221   5.424   7.492  1.4625  0.3138 -0.9968
 2550TIP3    H229210   5.188   5.413   7.639  0.5414  1.9758 -1.0623
 2551TIP3   OH229211   6.838   4.085   0.905 -0.7299  0.1676 -0.4936
 2551TIP3    H129212   6.761   4.034   0.931 -0.7216  0.4487  0.1275
 2551TIP3    H229213   6.912   4.042   0.949 -0.4952 -0.2469 -1.2873
 2552TIP3   OH229214   5.665   3.962   7.922  0.8350  0.4585 -0.3420
 2552TIP3    H129215   5.653   3.952   7.827  0.1981 -0.5268 -0.1614
 2552TIP3    H229216   5.614   4.040   7.944  0.1770  0.1173 -0.6508
 2553TIP3   OH229217   0.898   2.562   7.156  0.4555  0.5054 -0.2475
 2553TIP3    H129218   0.862   2.572   7.068  0.9908  1.1388 -0.4044
 2553TIP3    H229219   0.934   2.648   7.177  1.0019  0.1587  0.2833
 2554TIP3   OH229220   0.727   0.736   0.327  0.4184 -0.0161  0.0689
 2554TIP3    H129221   0.815   0.743   0.365 -0.2947  1.8231  1.5381
 2554TIP3    H229222   0.711   0.821   0.288 -1.0486  0.0134  0.6600
 2555TIP3   OH229223   0.526   3.606   6.817 -0.1350  0.1648  0.0619
 2555TIP3    H129224   0.475   3.544   6.766  0.5917 -0.9653  0.6778
 2555TIP3    H229225   0.502   3.589   6.908 -0.9397  1.7232  0.1712
 2556TIP3   OH229226   5.769   3.559   0.009  0.4988 -0.0654 -0.2257
 2556TIP3    H129227   5.864   3.547   0.016  0.5416 -0.0214 -0.7115
 2556TIP3    H229228   5.759   3.647  -0.027  0.2465  0.3386  0.7808
 2557TIP3   OH229229   4.992   5.538   1.370  0.0160  0.0756 -0.1699
 2557TIP3    H129230   4.954   5.499   1.449 -1.1833 -0.8300 -1.1557
 2557TIP3    H229231   4.935   5.614   1.352  1.3227  1.3319  0.7762
 2558TIP3   OH229232   3.325   5.287   8.588  0.2496 -0.4449 -0.1116
 2558TIP3    H129233   3.386   5.252   8.652  1.2685  0.9886 -0.2665
 2558TIP3    H229234   3.283   5.360   8.632 -1.0987 -1.1617 -0.1511
 2559TIP3   OH229235   4.926   2.107   0.941  0.5332  0.6145 -0.2321
 2559TIP3    H129236   4.939   2.117   1.036  2.2860 -3.5709  0.1793
 2559TIP3    H229237   4.831   2.110   0.930  0.2371  0.5338  1.7854
 2560TIP3   OH229238   3.181   4.478   6.678 -0.1484 -0.1963 -0.1360
 2560TIP3    H129239   3.104   4.431   6.710  0.4671 -1.2934 -0.2283
 2560TIP3    H229240   3.238   4.485   6.754  0.2005 -0.5140 -0.3643
 2561TIP3   OH229241   2.291   3.377   8.611 -0.4264  0.4424 -0.5038
 2561TIP3    H129242   2.307   3.316   8.683 -0.4416 -0.7524 -1.4686
 2561TIP3    H229243   2.379   3.400   8.580 -0.3208  2.6808  1.2192
 2562TIP3   OH229244   6.577   3.077   7.269  0.3654 -0.2529 -0.2229
 2562TIP3    H129245   6.612   3.084   7.358  1.4581 -0.6309 -0.6060
 2562TIP3    H229246   6.560   3.167   7.243 -0.3147 -0.1598  0.4963
 2563TIP3   OH229247   6.573   0.784   8.261  0.2218 -0.4894 -0.5456
 2563TIP3    H129248   6.485   0.821   8.255  0.0705 -1.0228 -2.2417
 2563TIP3    H229249   6.627   0.841   8.207  1.2895  0.6996  1.6461
 2564TIP3   OH229250   5.506   2.743   7.728  0.0284  0.1953  0.0363
 2564TIP3    H129251   5.547   2.828   7.742 -1.0850  0.4888  1.8100
 2564TIP3    H229252   5.415   2.756   7.755 -0.4078 -1.3106 -0.5973
 2565TIP3   OH229253   3.753   5.074   0.231  0.4615  0.6486  0.0388
 2565TIP3    H129254   3.734   5.122   0.311 -2.3311 -0.6161  0.2751
 2565TIP3    H229255   3.740   5.138   0.161 -0.9570  0.8602  0.4554
 2566TIP3   OH229256   5.306   2.121   8.124  0.1042 -0.1300  0.3130
 2566TIP3    H129257   5.378   2.069   8.088 -2.3511 -2.1245 -2.1468
 2566TIP3    H229258   5.322   2.209   8.092  1.7882 -0.3330  0.4626
 2567TIP3   OH229259   0.238   4.463   7.046 -0.6339 -0.7934  0.8300
 2567TIP3    H129260   0.229   4.499   7.134  1.5278  0.8468  0.4734
 2567TIP3    H229261   0.330   4.478   7.023 -1.5288  0.7004 -2.4432
 2568TIP3   OH229262   5.173   3.698   1.523 -0.4257  0.0804 -0.4126
 2568TIP3    H129263   5.119   3.703   1.444 -0.6581 -2.4862 -0.5203
 2568TIP3    H229264   5.227   3.620   1.510  0.7915  0.5947  1.2190
 2569TIP3   OH229265   6.452   4.088   6.393  0.2413  0.1803 -0.1269
 2569TIP3    H129266   6.405   4.049   6.320  2.1297 -2.9375  0.1669
 2569TIP3    H229267   6.409   4.173   6.406 -2.2027 -0.4945 -2.7519
 2570TIP3   OH229268   6.614   0.271   0.338  0.5814 -0.2490  0.8663
 2570TIP3    H129269   6.612   0.247   0.245  0.3699  2.8578 -0.0658
 2570TIP3    H229270   6.669   0.205   0.379 -0.8981 -2.8614 -1.0510
 2571TIP3   OH229271   0.526   6.870   7.237 -0.8950 -0.2870 -0.1422
 2571TIP3    H129272   0.472   6.827   7.170  0.3273 -1.0197 -0.6832
 2571TIP3    H229273   0.552   6.953   7.197 -2.4497  0.5691  0.5288
 2572TIP3   OH229274   2.771   5.580   7.632  0.1346 -0.0268  0.3524
 2572TIP3    H129275   2.859   5.569   7.596  0.0621 -0.6544  0.3516
 2572TIP3    H229276   2.727   5.641   7.572  0.2120 -0.5782 -0.2795
 2573TIP3   OH229277   2.357   6.695   1.071 -0.0174  0.2610  0.5650
 2573TIP3    H129278   2.285   6.654   1.119  0.5247  1.6906  2.7404
 2573TIP3    H229279   2.436   6.652   1.104  0.3367  0.9522  0.6546
 2574TIP3   OH229280   1.542   3.708   0.435  0.2496  0.4541 -0.3164
 2574TIP3    H129281   1.448   3.694   0.420  0.5841 -0.2030 -2.1744
 2574TIP3    H229282   1.551   3.714   0.530 -1.7959  1.5588 -0.1323
 2575TIP3   OH229283   3.667   2.311   8.206 -0.0834 -0.4202  0.1688
 2575TIP3    H129284   3.737   2.306   8.271  0.1874 -2.0827 -0.2010
 2575TIP3    H229285   3.693   2.247   8.139 -0.4655  1.0721 -1.4635
 2576TIP3   OH229286   0.788   0.505   1.926 -0.3110 -0.4357 -0.2257
 2576TIP3    H129287   0.823   0.527   2.012 -0.5465 -0.2569 -0.1733
 2576TIP3    H229288   0.747   0.419   1.939 -1.8437  0.3295  0.2841
 2577TIP3   OH229289   4.926   2.032   0.058 -0.0291  0.4455 -0.0624
 2577TIP3    H129290   4.937   2.040  -0.037  0.2863 -0.3551 -0.1087
 2577TIP3    H229291   5.009   1.996   0.089  0.4862  2.2234  0.7596
 2578TIP3   OH229292   4.855   5.805   0.716  0.4355  0.4760 -0.0655
 2578TIP3    H129293   4.855   5.763   0.629 -0.0690 -0.1442  0.2233
 2578TIP3    H229294   4.829   5.735   0.776  1.2858  0.7665  0.6602
 2579TIP3   OH229295   4.346   2.642   1.928  0.4852 -0.4682 -0.1046
 2579TIP3    H129296   4.255   2.645   1.900  0.6011 -1.5023 -0.6545
 2579TIP3    H229297   4.389   2.713   1.881 -0.1150  0.3046  0.4913
 2580TIP3   OH229298   1.737   6.073   0.319 -0.2094  0.6746  0.1278
 2580TIP3    H129299   1.824   6.081   0.359  0.0852  1.0792 -0.5810
 2580TIP3    H229300   1.677   6.097   0.390  0.2066 -0.3485  0.8507
 2581TIP3   OH229301   4.204   1.641   2.308  0.8909  0.4423 -0.7407
 2581TIP3    H129302   4.245   1.566   2.266 -0.3151 -0.3291 -0.5683
 2581TIP3    H229303   4.134   1.604   2.361  1.1914  1.5703  0.4841
 2582TIP3   OH229304   2.419   4.128   0.549 -0.0830  0.6082  0.6913
 2582TIP3    H129305   2.404   4.197   0.485  1.0194  0.3962  0.1791
 2582TIP3    H229306   2.339   4.075   0.547 -0.1328  0.7041 -0.3817
 2583TIP3   OH229307   5.704   2.234   6.611 -0.3040 -0.4855  0.1677
 2583TIP3    H129308   5.700   2.329   6.624 -0.9992 -0.1547 -2.0469
 2583TIP3    H229309   5.781   2.207   6.659 -0.5495  1.0637  1.5410
 2584TIP3   OH229310   1.174   0.098   6.875 -0.6619  0.5773  0.0350
 2584TIP3    H129311   1.112   0.024   6.870 -1.0482  0.9279 -0.5572
 2584TIP3    H229312   1.245   0.072   6.817  1.8176 -1.6421  3.6562
 2585TIP3   OH229313   6.548   0.132   0.594 -0.0284  0.1493  0.7311
 2585TIP3    H129314   6.540   0.197   0.664  0.5671  0.7479  0.2649
 2585TIP3    H229315   6.643   0.127   0.577 -0.2714  1.7221 -1.5722
 2586TIP3   OH229316   2.603   4.550   8.626 -0.1186 -0.5277  0.6048
 2586TIP3    H129317   2.621   4.474   8.570 -0.1535 -0.2952  0.2716
 2586TIP3    H229318   2.574   4.618   8.565  2.4552  0.6163  0.5282
 2587TIP3   OH229319   5.560   2.469   8.144  0.6476  0.5125  0.0937
 2587TIP3    H129320   5.624   2.429   8.202 -1.4412 -0.1950  2.0697
 2587TIP3    H229321   5.578   2.563   8.149  1.2993  0.3532  0.8718
 2588TIP3   OH229322   4.000   1.015   8.412 -0.1419  0.2156  0.7739
 2588TIP3    H129323   4.077   1.010   8.356 -0.2321  1.2505  0.5397
 2588TIP3    H229324   3.932   0.969   8.363  0.3556 -0.8460  1.0539
 2589TIP3   OH229325   6.109   6.021   2.404 -0.5049 -0.0290 -0.0209
 2589TIP3    H129326   6.122   6.113   2.383 -0.0761 -0.1608 -0.3238
 2589TIP3    H229327   6.014   6.008   2.395 -1.0164  1.0695  2.8020
 2590TIP3   OH229328   4.954   4.028   1.150  0.5664 -0.1895 -0.0149
 2590TIP3    H129329   5.035   3.978   1.160  0.1532 -0.7032  0.8897
 2590TIP3    H229330   4.888   3.962   1.128 -0.4283 -0.4301  3.2555
 2591TIP3   OH229331   6.330   0.351   7.241  0.5917  0.1754 -0.4543
 2591TIP3    H129332   6.397   0.411   7.207 -0.1687  1.1677 -0.2498
 2591TIP3    H229333   6.380   0.283   7.285  1.5063  0.2731 -1.2887
 2592TIP3   OH229334   3.972   4.265   0.967 -0.2686 -0.1812  0.2536
 2592TIP3    H129335   3.886   4.234   0.941 -1.4180  2.5692  0.5255
 2592TIP3    H229336   3.982   4.349   0.924  1.4387  0.4833  1.8134
 2593TIP3   OH229337   6.781   6.096   7.828  0.2606  0.3263 -0.2300
 2593TIP3    H129338   6.843   6.024   7.844  0.3420  0.3741 -0.3353
 2593TIP3    H229339   6.729   6.067   7.754 -0.8844 -0.4032  0.8276
 2594TIP3   OH229340   5.164   3.053   1.311  0.3344  0.4976 -0.2384
 2594TIP3    H129341   5.239   3.109   1.291  0.4504  0.5130  0.2469
 2594TIP3    H229342   5.129   3.087   1.392  0.3075 -0.0312 -0.0232
 2595TIP3   OH229343   0.600   5.320   1.191  0.2564 -0.1703  0.3408
 2595TIP3    H129344   0.658   5.321   1.115  1.0463 -0.5834  0.9212
 2595TIP3    H229345   0.620   5.237   1.235 -2.7658 -1.7185 -0.9196
 2596TIP3   OH229346   3.361   4.037   0.346  0.0858  0.4486  0.1640
 2596TIP3    H129347   3.337   3.998   0.430  1.5157  0.5137  0.6367
 2596TIP3    H229348   3.322   4.125   0.349 -0.5031  0.1776  0.4435
 2597TIP3   OH229349   1.505   1.730   6.451  0.4475  0.0359 -0.1618
 2597TIP3    H129350   1.498   1.666   6.522 -0.9562  0.2241 -0.1110
 2597TIP3    H229351   1.577   1.787   6.478  0.3283 -0.2521  0.8232
 2598TIP3   OH229352   0.088   5.224   6.735  0.4323  0.3401  0.8339
 2598TIP3    H129353   0.052   5.182   6.657  0.2520  0.5978  0.7775
 2598TIP3    H229354   0.034   5.190   6.807 -0.9636  1.8835  0.5903
 2599TIP3   OH229355   5.983   4.720   2.441  0.1860  0.2764 -0.4860
 2599TIP3    H129356   6.021   4.671   2.515  0.6789  0.5254 -0.5722
 2599TIP3    H229357   6.038   4.696   2.366 -1.8153 -1.9833 -1.3531
 2600TIP3   OH229358   2.239   4.553   6.260  0.2993 -0.4388 -0.5372
 2600TIP3    H129359   2.210   4.474   6.215 -0.9071 -0.7319  0.6840
 2600TIP3    H229360   2.163   4.610   6.258  0.4279 -0.2184  0.5760
 2601TIP3   OH229361   1.041   0.628   8.011 -0.4497 -0.4929  0.1464
 2601TIP3    H129362   1.096   0.691   8.058 -0.6811 -0.9119  1.0109
 2601TIP3    H229363   1.043   0.657   7.920  1.9541 -1.0630 -0.0305
 2602TIP3   OH229364   1.377   5.573   8.573  0.9276 -0.2239 -0.0096
 2602TIP3    H129365   1.430   5.502   8.608  0.9966  0.5575  1.5424
 2602TIP3    H229366   1.417   5.653   8.608 -0.0537  0.5010 -0.4837
 2603TIP3   OH229367   1.652   0.905   0.894  0.5770  0.2658 -0.0837
 2603TIP3    H129368   1.663   0.995   0.862 -1.3837  0.2692 -0.8709
 2603TIP3    H229369   1.591   0.913   0.967  1.0745 -0.3465  0.4125
 2604TIP3   OH229370   1.782   4.131   2.059  0.6185 -0.2094 -0.3209
 2604TIP3    H129371   1.745   4.181   2.132  0.0309 -1.4510  0.2635
 2604TIP3    H229372   1.861   4.179   2.035  2.0599 -0.8980  2.5724
 2605TIP3   OH229373   6.731   4.750   1.474 -0.1454 -0.1565  0.1206
 2605TIP3    H129374   6.694   4.694   1.543 -1.6962  0.2631 -0.3241
 2605TIP3    H229375   6.661   4.759   1.410 -0.5211  3.3322  0.7743
 2606TIP3   OH229376   3.405   2.850   0.394 -0.1882  0.5676 -0.4423
 2606TIP3    H129377   3.402   2.942   0.367  0.1777  0.1645 -1.9287
 2606TIP3    H229378   3.316   2.830   0.422 -0.2243  1.4213  0.0844
 2607TIP3   OH229379   1.844   4.660   0.412  0.3111 -0.0516 -0.7137
 2607TIP3    H129380   1.933   4.665   0.376  0.7485  0.3370  0.3577
 2607TIP3    H229381   1.855   4.612   0.495 -0.4469  0.1428 -0.4910
 2608TIP3   OH229382   5.498   5.235   0.347 -0.3393  0.4209  0.1168
 2608TIP3    H129383   5.576   5.270   0.388 -0.8532  0.5356  1.0111
 2608TIP3    H229384   5.493   5.280   0.262  0.0302  1.1170  0.4638
 2609TIP3   OH229385   2.075   5.058   8.436  0.2251 -0.0469  0.2956
 2609TIP3    H129386   2.021   5.133   8.410  1.6165  1.1643  0.7214
 2609TIP3    H229387   2.013   4.987   8.452 -1.1605  1.0736  0.0567
 2610TIP3   OH229388   3.895   2.484   0.109 -0.0655 -0.2578 -0.2100
 2610TIP3    H129389   3.934   2.407   0.067  0.0328  0.4603 -1.5121
 2610TIP3    H229390   3.809   2.493   0.068 -0.7566 -0.5945  1.1075
 2611TIP3   OH229391   5.600   4.970   6.801 -0.3965  0.1991  0.0220
 2611TIP3    H129392   5.629   5.008   6.884  0.1821 -1.5733  0.6676
 2611TIP3    H229393   5.668   4.993   6.738 -0.5827  1.1009  0.1324
 2612TIP3   OH229394   2.624   5.754   7.479 -0.4001 -0.3486 -0.1853
 2612TIP3    H129395   2.579   5.777   7.559 -2.1342  0.0934 -1.2377
 2612TIP3    H229396   2.665   5.835   7.450  1.2760 -0.7706  0.8216
 2613TIP3   OH229397   0.048   0.136   6.598  0.1986 -0.3234  0.3552
 2613TIP3    H129398  -0.008   0.097   6.530 -1.7201  1.5401  0.7278
 2613TIP3    H229399   0.100   0.201   6.551  1.0476 -1.0795  0.2322
 2614TIP3   OH229400   5.911   0.192   0.858  0.0393  0.0219 -0.3820
 2614TIP3    H129401   5.826   0.161   0.890  0.9131  0.1775  2.3207
 2614TIP3    H229402   5.952   0.115   0.819 -0.7167 -0.4207 -0.3173
 2615TIP3   OH229403   0.940   4.769   0.986  0.1172 -0.7527  0.3297
 2615TIP3    H129404   1.017   4.820   1.011 -1.3495  1.0358  1.5302
 2615TIP3    H229405   0.936   4.778   0.891  2.0864 -2.0108  0.0792
 2616TIP3   OH229406   1.688   2.531   7.393  0.0418 -0.3522 -0.2104
 2616TIP3    H129407   1.697   2.477   7.471  1.7079  1.1917  0.7361
 2616TIP3    H229408   1.691   2.470   7.320  1.9140 -1.5433  0.8140
 2617TIP3   OH229409   2.955   6.151   2.097  0.3687  0.1766 -0.2634
 2617TIP3    H129410   2.997   6.072   2.132  0.1954 -0.3101 -1.1296
 2617TIP3    H229411   2.880   6.165   2.154  0.5950 -0.0867  0.1071
 2618TIP3   OH229412   1.530   2.497   6.603 -0.5383 -0.0044 -0.2804
 2618TIP3    H129413   1.551   2.420   6.657  0.8747  0.6522  0.1391
 2618TIP3    H229414   1.440   2.519   6.628 -0.4869 -0.7023  0.5878
 2619TIP3   OH229415   5.050   5.304   0.932  0.2554  0.1344 -0.4502
 2619TIP3    H129416   5.120   5.238   0.931  0.0684 -0.1017  0.9999
 2619TIP3    H229417   4.974   5.259   0.896  0.3648 -0.1578 -0.3141
 2620TIP3   OH229418   3.292   3.986   0.850 -0.2581 -0.4609  0.2206
 2620TIP3    H129419   3.286   4.079   0.827  1.0834 -1.0088 -2.8064
 2620TIP3    H229420   3.383   3.974   0.879 -0.2007 -0.9747 -0.1618
 2621TIP3   OH229421   4.401   0.954   0.880 -0.1848  0.3446 -0.3070
 2621TIP3    H129422   4.372   0.900   0.806 -0.0238  1.3227 -1.0954
 2621TIP3    H229423   4.495   0.964   0.867 -0.1841  0.6656 -0.0615
 2622TIP3   OH229424   6.180   4.199   1.807  0.5409 -0.3758 -0.3822
 2622TIP3    H129425   6.165   4.123   1.749  2.6852 -0.8023 -0.4484
 2622TIP3    H229426   6.204   4.269   1.747  1.2174 -0.3911 -0.1338
 2623TIP3   OH229427   4.122   2.892   8.107  0.2663 -0.4999  0.0131
 2623TIP3    H129428   4.079   2.893   8.022 -0.4684  0.6341  0.3844
 2623TIP3    H229429   4.072   2.829   8.159 -0.0083 -0.3090 -0.0235
 2624TIP3   OH229430   6.304   2.879   0.682  0.1482  0.5022  0.0025
 2624TIP3    H129431   6.318   2.956   0.627  1.1492  1.9709  2.1695
 2624TIP3    H229432   6.259   2.913   0.760  0.8766 -1.0421  1.1512
 2625TIP3   OH229433   3.781   1.021   7.762  0.0537 -0.3323  0.7188
 2625TIP3    H129434   3.846   0.955   7.737 -0.6410 -0.4639 -0.8210
 2625TIP3    H229435   3.700   0.994   7.719 -0.1198  1.8044 -0.4433
 2626TIP3   OH229436   1.153   2.322   8.128 -0.0345 -0.5685 -0.0108
 2626TIP3    H129437   1.177   2.411   8.156  1.2971 -0.5996 -0.9452
 2626TIP3    H229438   1.234   2.285   8.095 -0.3211 -2.5811  1.4163
 2627TIP3   OH229439   5.746   3.102   8.450  0.2699 -0.1261 -0.1021
 2627TIP3    H129440   5.698   3.060   8.521 -0.1269 -1.2967 -1.0423
 2627TIP3    H229441   5.806   3.162   8.494 -0.9423  0.2072  1.1605
 2628TIP3   OH229442   6.443   5.363   1.555  0.6714 -0.3354  0.2161
 2628TIP3    H129443   6.434   5.449   1.598  0.3624 -0.7657  1.0450
 2628TIP3    H229444   6.532   5.363   1.520  0.8865  0.0931  0.7420
 2629TIP3   OH229445   6.512   5.437   0.509 -0.0187  0.4489  0.0591
 2629TIP3    H129446   6.439   5.498   0.520  0.0211  0.3818  0.6999
 2629TIP3    H229447   6.522   5.395   0.594 -0.2437 -0.6954 -0.4534
 2630TIP3   OH229448   4.380   2.840   6.317 -0.4750  0.5014 -0.1042
 2630TIP3    H129449   4.389   2.914   6.256 -2.3674  0.0897 -0.9563
 2630TIP3    H229450   4.404   2.764   6.264 -0.5307  0.3074  0.1518
 2631TIP3   OH229451   1.638   0.309   1.195  0.0572  0.4368  0.5904
 2631TIP3    H129452   1.634   0.257   1.274  6.4919  0.3252  1.4347
 2631TIP3    H229453   1.712   0.273   1.146  1.0898  4.9261 -1.7772
 2632TIP3   OH229454   6.460   2.915   0.341  0.0489 -0.3905  0.5426
 2632TIP3    H129455   6.477   2.966   0.420 -0.1804 -2.0930  1.7513
 2632TIP3    H229456   6.541   2.866   0.328 -0.0343 -0.3562 -0.1078
 2633TIP3   OH229457   4.352   3.076   7.084  0.1183 -0.4839  0.0636
 2633TIP3    H129458   4.436   3.035   7.063  2.2277  3.0688  0.7691
 2633TIP3    H229459   4.312   3.017   7.149  2.9263 -1.4277  1.0750
 2634TIP3   OH229460   3.604   3.855   1.808 -0.7163 -0.3328 -0.1790
 2634TIP3    H129461   3.630   3.771   1.771  0.9550  0.3109 -0.5614
 2634TIP3    H229462   3.603   3.840   1.903 -1.1396 -0.9711 -0.2831
 2635TIP3   OH229463   5.339   2.802   1.673 -0.2558 -0.2396  0.5968
 2635TIP3    H129464   5.434   2.798   1.679 -0.0989 -0.4102 -1.2810
 2635TIP3    H229465   5.314   2.878   1.725  0.9496  0.1090  0.6789
 2636TIP3   OH229466   4.660   4.036   8.216 -0.3728 -0.2590  0.0511
 2636TIP3    H129467   4.608   4.021   8.295  1.4361  1.0039  1.5616
 2636TIP3    H229468   4.722   3.964   8.213 -0.7207 -0.5454 -0.4952
 2637TIP3   OH229469   3.397   5.192   7.843 -0.3160 -0.1355 -0.0200
 2637TIP3    H129470   3.383   5.225   7.932 -1.8921 -0.1514 -0.2424
 2637TIP3    H229471   3.401   5.270   7.788  2.2205 -0.0153  0.1967
 2638TIP3   OH229472   4.184   1.972   0.780 -0.1221 -0.3344  0.1131
 2638TIP3    H129473   4.126   1.962   0.704  0.5024  0.0539 -0.4224
 2638TIP3    H229474   4.129   1.949   0.855 -1.4898  1.6369 -0.2091
 2639TIP3   OH229475   0.025   6.336   6.473 -0.0988 -0.3435 -0.0121
 2639TIP3    H129476   0.106   6.287   6.487 -1.4385 -2.3254  1.1771
 2639TIP3    H229477   0.024   6.400   6.544  0.4146 -0.2978 -0.0387
 2640TIP3   OH229478   5.739   0.246   1.821  0.5248 -0.1999 -0.3005
 2640TIP3    H129479   5.733   0.194   1.901 -0.0134  1.0901  0.5233
 2640TIP3    H229480   5.712   0.334   1.847  2.2951  0.7419 -1.4348
 2641TIP3   OH229481   1.137   1.109   1.614  0.1082 -0.1195  0.1113
 2641TIP3    H129482   1.182   1.030   1.584 -0.9136 -0.2394 -1.2404
 2641TIP3    H229483   1.109   1.152   1.533 -1.5842  0.2789  0.8704
 2642TIP3   OH229484   5.452   0.025   5.911 -0.0823  0.4611  0.6591
 2642TIP3    H129485   5.497   0.004   5.829 -1.5735  2.3379 -0.7151
 2642TIP3    H229486   5.372  -0.026   5.907 -1.3064  2.3505 -0.2780
 2643TIP3   OH229487   0.268   2.184   7.091 -0.3910 -0.4654 -0.1871
 2643TIP3    H129488   0.329   2.229   7.033 -1.4549 -0.2867 -1.2029
 2643TIP3    H229489   0.320   2.162   7.169  1.0436 -0.6388 -1.1593
 2644TIP3   OH229490   3.843   5.898   1.033  0.6341 -0.7591  0.3211
 2644TIP3    H129491   3.848   5.857   1.119  1.8193  2.0858  1.7367
 2644TIP3    H229492   3.784   5.972   1.044  0.8599 -0.2908 -1.2979
 2645TIP3   OH229493   1.104   4.884   1.542 -0.1796  0.3731 -0.2659
 2645TIP3    H129494   1.125   4.825   1.615  1.1981  1.0687 -0.0542
 2645TIP3    H229495   1.177   4.874   1.481 -1.1958 -0.0143 -1.4582
 2646TIP3   OH229496   2.743   5.296   1.664 -0.2888 -0.0138 -0.1402
 2646TIP3    H129497   2.800   5.219   1.659  0.7780  0.8291 -1.7220
 2646TIP3    H229498   2.793   5.359   1.716  0.8790  1.1981 -2.6053
 2647TIP3   OH229499   5.379   0.045   1.198  0.0995 -1.0835 -0.7472
 2647TIP3    H129500   5.441   0.109   1.162 -0.6758  0.6094  0.7643
 2647TIP3    H229501   5.422   0.013   1.278 -1.5100  1.3818  1.2856
 2648TIP3   OH229502   6.673   1.476   1.352  0.0913 -0.0438  0.1797
 2648TIP3    H129503   6.757   1.454   1.392  0.4380 -0.0196 -0.5175
 2648TIP3    H229504   6.696   1.517   1.269 -0.5661  1.7683  0.8511
 2649TIP3   OH229505   4.966   2.843   1.247 -0.2722 -0.2139  0.1476
 2649TIP3    H129506   5.029   2.910   1.273  0.9463 -0.5652 -1.6354
 2649TIP3    H229507   4.882   2.873   1.281  0.0338  2.7776 -1.4215
 2650TIP3   OH229508   2.847   5.553   0.334  0.3140 -0.0525  0.8539
 2650TIP3    H129509   2.824   5.637   0.292  1.9277 -0.1258 -0.2477
 2650TIP3    H229510   2.814   5.487   0.274  2.0549 -0.1611 -0.0333
 2651TIP3   OH229511   5.743   0.862   0.188 -0.8723  0.1778 -0.3417
 2651TIP3    H129512   5.780   0.794   0.132  1.0433  0.2820  0.6987
 2651TIP3    H229513   5.744   0.824   0.276 -0.3081  1.3138  0.1661
 2652TIP3   OH229514   4.197   1.919   6.307 -0.4650 -0.8377 -0.5819
 2652TIP3    H129515   4.292   1.914   6.304 -0.5018 -1.1398 -1.7626
 2652TIP3    H229516   4.178   2.004   6.347  0.3102 -0.2502 -1.4330
 2653TIP3   OH229517   1.211   6.121   8.242 -0.1076  0.1474  0.4470
 2653TIP3    H129518   1.170   6.204   8.267  1.3452  0.8629  0.6008
 2653TIP3    H229519   1.239   6.135   8.151  1.0658  0.2310  0.8044
 2654TIP3   OH229520   2.956   2.609   7.184 -0.5615  0.6449  0.7095
 2654TIP3    H129521   2.920   2.601   7.096 -1.1824 -0.2883  1.0347
 2654TIP3    H229522   3.038   2.559   7.181 -0.2140  1.2216  0.4713
 2655TIP3   OH229523   5.743   6.204   6.995 -0.0624  0.5500  0.6131
 2655TIP3    H129524   5.754   6.296   7.019 -0.6290  0.3487  1.7024
 2655TIP3    H229525   5.676   6.205   6.926  1.1172  1.0847 -0.5516
 2656TIP3   OH229526   6.144   5.072   8.260 -0.0758 -0.2625  0.5189
 2656TIP3    H129527   6.234   5.058   8.289  0.0388 -0.0876  0.2421
 2656TIP3    H229528   6.151   5.090   8.167 -0.3754  0.0048  0.5486
 2657TIP3   OH229529   0.144   4.717   6.341 -0.1731  0.3122  0.9508
 2657TIP3    H129530   0.209   4.696   6.408  1.2320  1.5267 -0.0013
 2657TIP3    H229531   0.191   4.711   6.258 -2.1794 -2.4560 -0.1505
 2658TIP3   OH229532   5.883   2.409   7.056 -0.0521 -0.1759 -0.4466
 2658TIP3    H129533   5.868   2.463   6.979  0.7220 -2.0227 -1.9753
 2658TIP3    H229534   5.899   2.472   7.127 -0.5798  1.5710 -1.8066
 2659TIP3   OH229535   0.591   4.160   2.280 -0.1485  0.3302  0.2468
 2659TIP3    H129536   0.572   4.173   2.373  0.9038 -2.0361  0.8468
 2659TIP3    H229537   0.530   4.093   2.251  1.1159 -0.6893 -0.1361
 2660TIP3   OH229538   1.029   4.429   1.046 -0.5320 -0.3809 -0.1755
 2660TIP3    H129539   1.078   4.501   1.006 -0.6656  0.5296  1.2220
 2660TIP3    H229540   1.040   4.356   0.985  0.3061  0.5731 -1.2224
 2661TIP3   OH229541   2.677   5.319   7.022 -0.3074  0.2081  0.5218
 2661TIP3    H129542   2.696   5.287   7.110 -1.1633  1.4278  1.1724
 2661TIP3    H229543   2.683   5.414   7.028 -2.4472  0.4561 -0.1784
 2662TIP3   OH229544   6.436   3.641   0.503  0.3323 -0.2277  0.8318
 2662TIP3    H129545   6.455   3.631   0.596  0.2708 -0.1907  0.8486
 2662TIP3    H229546   6.340   3.645   0.499  0.2536 -1.9343  0.6003
 2663TIP3   OH229547   3.829   3.771   0.411 -0.1609  0.1364 -0.5142
 2663TIP3    H129548   3.744   3.785   0.452 -0.7792 -0.9034 -1.3933
 2663TIP3    H229549   3.882   3.730   0.480 -0.4328  0.5917 -0.0294
 2664TIP3   OH229550   4.908   4.986   7.843  0.3539 -0.2805 -0.0448
 2664TIP3    H129551   4.943   4.949   7.763  3.3431 -0.5933  1.2765
 2664TIP3    H229552   4.915   5.081   7.832  1.3208 -0.3351  0.0449
 2665TIP3   OH229553   6.439   3.177   0.206  0.2808 -0.7695  0.5587
 2665TIP3    H129554   6.451   3.101   0.264  2.4185  0.0157  1.2381
 2665TIP3    H229555   6.418   3.249   0.265 -0.7828 -0.6018  0.0022
 2666TIP3   OH229556   2.962   5.412   7.345 -0.8659  0.3581  0.5472
 2666TIP3    H129557   2.897   5.475   7.315  0.2215  1.4738  0.4351
 2666TIP3    H229558   3.014   5.392   7.267  0.5054  1.4695  1.1268
 2667TIP3   OH229559   5.978   1.145   6.977 -0.8383 -0.2979 -0.0617
 2667TIP3    H129560   5.985   1.240   6.973  1.8503 -0.4307 -0.8790
 2667TIP3    H229561   5.928   1.121   6.899  1.0602  0.3648 -1.5658
 2668TIP3   OH229562   0.858   6.010   6.994 -0.6490 -0.2434  0.1099
 2668TIP3    H129563   0.936   6.004   6.939 -0.3354 -0.1837  0.5484
 2668TIP3    H229564   0.804   5.935   6.967  0.2650 -1.2169  0.9049
 2669TIP3   OH229565   5.942   3.208   7.042  0.5879 -0.1654  0.6834
 2669TIP3    H129566   5.896   3.289   7.060  2.0478  0.6638  0.8511
 2669TIP3    H229567   6.026   3.218   7.086  1.8316 -0.6775 -1.4295
 2670TIP3   OH229568   1.102   4.915   6.485  0.2045  0.6332 -0.4354
 2670TIP3    H129569   1.184   4.945   6.525  0.0550  2.7494 -1.5521
 2670TIP3    H229570   1.129   4.851   6.419  0.9017  0.8015 -0.3170
 2671TIP3   OH229571   3.860   2.900   6.897  0.0688 -0.4233 -0.2834
 2671TIP3    H129572   3.907   2.969   6.944  0.4817 -1.0485  0.2440
 2671TIP3    H229573   3.840   2.938   6.812 -0.7205  0.7474  0.4038
 2672TIP3   OH229574   0.916   2.674   8.299  0.6915  0.4399  0.3384
 2672TIP3    H129575   0.892   2.714   8.215  0.6646 -1.3290 -0.5596
 2672TIP3    H229576   1.008   2.695   8.310  0.9113  0.0276 -0.5744
 2673TIP3   OH229577   0.001   2.611   1.198 -0.0486  0.4229 -0.1720
 2673TIP3    H129578  -0.009   2.693   1.150  1.2361  1.2643  0.9247
 2673TIP3    H229579   0.085   2.576   1.168 -0.3580 -0.2618 -0.2638
 2674TIP3   OH229580   5.052   0.083   7.117  0.3153  0.5827  0.0534
 2674TIP3    H129581   5.116   0.014   7.134 -0.5266 -0.2512 -0.0779
 2674TIP3    H229582   4.991   0.077   7.190 -2.4885 -2.0466 -2.2075
 2675TIP3   OH229583   1.812   3.404   8.428 -0.1567 -0.2255  0.0585
 2675TIP3    H129584   1.864   3.328   8.456 -0.8133 -0.5953  0.3031
 2675TIP3    H229585   1.866   3.445   8.360  0.7771 -0.1816  0.7992
 2676TIP3   OH229586   0.844   0.416   1.485 -0.1590 -0.0832 -0.2734
 2676TIP3    H129587   0.899   0.458   1.552  0.9114  0.8599 -1.6871
 2676TIP3    H229588   0.756   0.420   1.521  0.3241  0.8329  0.8885
 2677TIP3   OH229589   5.295   6.710   8.430 -0.2881  0.0005 -0.9690
 2677TIP3    H129590   5.215   6.660   8.449 -0.6823 -0.2723 -3.0889
 2677TIP3    H229591   5.306   6.702   8.335  1.8286  0.7107 -0.8269
 2678TIP3   OH229592   2.783   5.415   0.104  0.3446 -0.0323 -0.1470
 2678TIP3    H129593   2.784   5.407   0.009 -2.6792  1.3898 -0.4245
 2678TIP3    H229594   2.741   5.333   0.134  1.9775 -0.8213  0.0840
 2679TIP3   OH229595   0.155   6.362   1.828 -0.0646 -0.4356 -0.3225
 2679TIP3    H129596   0.079   6.316   1.864 -1.5629  2.4149  0.4964
 2679TIP3    H229597   0.216   6.368   1.902 -0.3487 -0.1573 -0.1071
 2680TIP3   OH229598   4.706   5.446   6.362  0.6585 -0.0038  0.5114
 2680TIP3    H129599   4.618   5.477   6.344  0.3023 -1.2198  0.0281
 2680TIP3    H229600   4.742   5.424   6.276  0.3147 -2.3019  0.8699
 2681TIP3   OH229601   5.783   3.047   7.302  0.1075 -0.5409 -0.1276
 2681TIP3    H129602   5.865   3.002   7.322 -0.8679 -1.5710  1.7468
 2681TIP3    H229603   5.714   2.987   7.330 -1.3169  0.4760 -1.2624
 2682TIP3   OH229604   4.223   1.951   7.869 -0.2423 -0.8103  0.2595
 2682TIP3    H129605   4.185   1.872   7.906  0.8051 -1.4358  0.0443
 2682TIP3    H229606   4.318   1.935   7.870 -0.0486  0.1872 -0.3574
 2683TIP3   OH229607   5.197   1.875   7.773 -0.3277 -0.3921 -0.1212
 2683TIP3    H129608   5.247   1.807   7.728 -0.3114  0.0588 -0.7908
 2683TIP3    H229609   5.107   1.861   7.743 -0.2280  0.2610 -0.7434
 2684TIP3   OH229610   2.318   4.958   8.361  0.1763 -0.4898 -0.2534
 2684TIP3    H129611   2.377   5.033   8.369  0.1313 -0.5431  0.7479
 2684TIP3    H229612   2.230   4.996   8.372  0.1024 -0.5871 -0.4939
 2685TIP3   OH229613   4.200   4.378   1.450 -0.1511 -0.1385 -0.1755
 2685TIP3    H129614   4.282   4.425   1.460  0.5521 -0.9157 -1.8395
 2685TIP3    H229615   4.214   4.321   1.374 -2.8330  1.1218 -1.7827
 2686TIP3   OH229616   6.664   0.821   6.882  0.6079 -0.0674  0.1612
 2686TIP3    H129617   6.670   0.916   6.888  0.1898 -0.0436  0.2041
 2686TIP3    H229618   6.639   0.793   6.971  1.0046 -0.2394  0.2210
 2687TIP3   OH229619   6.463   0.739   2.351  0.1336  0.1640 -0.3131
 2687TIP3    H129620   6.399   0.773   2.415  1.2143  0.4316  0.6607
 2687TIP3    H229621   6.513   0.674   2.400  0.8289  0.2098 -0.9527
 2688TIP3   OH229622   1.851   2.016   0.386  0.0814  0.1396  0.1153
 2688TIP3    H129623   1.812   2.021   0.299 -0.8647 -0.5836  0.4774
 2688TIP3    H229624   1.788   1.966   0.438  1.5371 -1.1206  0.7319
 2689TIP3   OH229625   0.973   6.369   1.803  0.1213  0.0937 -0.0654
 2689TIP3    H129626   0.962   6.359   1.897 -1.9870 -0.5909 -0.3249
 2689TIP3    H229627   1.027   6.295   1.777 -1.0143 -0.9232  0.3641
 2690TIP3   OH229628   5.278   4.090   1.052  0.2305 -0.0897 -0.3816
 2690TIP3    H129629   5.257   4.165   0.996 -1.7768 -1.0103 -0.9509
 2690TIP3    H229630   5.308   4.129   1.135 -1.2396  1.3561 -0.4909
 2691TIP3   OH229631   5.674   2.509   7.891  0.1302 -0.0428 -0.0867
 2691TIP3    H129632   5.647   2.601   7.885  1.8341  0.5535  0.6711
 2691TIP3    H229633   5.636   2.478   7.973 -0.3265  0.0243 -0.2706
 2692TIP3   OH229634   5.663   2.824   0.711 -0.1998 -1.1301  0.3212
 2692TIP3    H129635   5.583   2.874   0.692  0.2263 -0.0069  1.3448
 2692TIP3    H229636   5.732   2.870   0.664  0.5017  0.4246  2.6430
 2693TIP3   OH229637   1.036   2.983   7.335 -0.6588 -0.3220  0.5277
 2693TIP3    H129638   1.057   2.938   7.253 -0.3970 -0.0352  0.4324
 2693TIP3    H229639   0.950   3.022   7.320 -0.6967 -0.4304  0.4606
 2694TIP3   OH229640   2.199   6.157   1.021 -0.2988  0.4452 -0.0765
 2694TIP3    H129641   2.274   6.097   1.016 -1.4230 -0.9430 -1.2045
 2694TIP3    H229642   2.227   6.235   0.974  0.4551 -0.0476 -0.4673
 2695TIP3   OH229643   1.620   0.884   7.998 -0.0176 -0.4131 -0.0136
 2695TIP3    H129644   1.615   0.789   7.983  1.0309 -0.6769  1.1067
 2695TIP3    H229645   1.713   0.902   8.009 -0.2272  0.7160  0.0499
 2696TIP3   OH229646   5.329   3.806   6.896  0.3519  0.1881 -0.3646
 2696TIP3    H129647   5.394   3.876   6.901  0.9017 -0.2845 -0.7999
 2696TIP3    H229648   5.341   3.768   6.809 -0.0842 -0.3199 -0.2098
 2697TIP3   OH229649   4.689   6.569   1.385 -0.0323 -0.0659  0.0226
 2697TIP3    H129650   4.784   6.574   1.395 -0.0534  1.2887 -0.2131
 2697TIP3    H229651   4.657   6.535   1.468  0.3963  3.1992  1.6712
 2698TIP3   OH229652   3.285   2.864   7.895 -0.1590 -0.2448  0.0842
 2698TIP3    H129653   3.284   2.776   7.932 -0.3694  0.3268  1.5333
 2698TIP3    H229654   3.209   2.868   7.837 -0.5812 -0.7798  0.5987
 2699TIP3   OH229655   2.410   3.599   2.127  1.0328  0.0343 -0.3577
 2699TIP3    H129656   2.487   3.657   2.127  1.2991 -0.2754 -1.6072
 2699TIP3    H229657   2.412   3.556   2.212 -0.5428  3.5812  1.6638
 2700TIP3   OH229658   6.298   6.413   0.298 -0.0596 -0.0786 -0.0299
 2700TIP3    H129659   6.229   6.410   0.231 -2.4583 -1.4735  2.3207
 2700TIP3    H229660   6.281   6.493   0.347  1.1738  0.5089 -0.5215
 2701TIP3   OH229661   2.773   4.692   0.479 -0.1753  0.3917  0.3250
 2701TIP3    H129662   2.697   4.709   0.423  0.7301  1.8774 -0.5104
 2701TIP3    H229663   2.736   4.670   0.564 -1.5470  1.3789  0.0075
 2702TIP3   OH229664   1.047   5.334   6.977 -0.5426 -0.2491 -0.0493
 2702TIP3    H129665   1.107   5.357   6.906  1.8710 -1.2947  1.5215
 2702TIP3    H229666   0.991   5.266   6.940 -0.3578  0.3022 -1.3912
 2703TIP3   OH229667   1.179   2.841   7.916 -0.3167 -0.0950  0.5631
 2703TIP3    H129668   1.178   2.825   7.821  0.0443 -0.7215  0.6612
 2703TIP3    H229669   1.233   2.919   7.926  0.4777 -0.6000  0.3262
 2704TIP3   OH229670   0.433   5.534   1.133 -0.2260 -0.0596 -0.2585
 2704TIP3    H129671   0.509   5.476   1.138 -0.3443 -0.1500  0.5258
 2704TIP3    H229672   0.431   5.562   1.041  0.4549 -0.4544 -0.4023
 2705TIP3   OH229673   4.599   5.394   8.207 -0.2877 -0.7520 -0.1127
 2705TIP3    H129674   4.521   5.377   8.155  0.4428 -0.0006 -1.4967
 2705TIP3    H229675   4.598   5.489   8.221  1.4516 -0.4023 -1.9629
 2706TIP3   OH229676   6.628   3.606   8.339  0.2798 -0.1900 -0.3207
 2706TIP3    H129677   6.576   3.687   8.338 -2.5773 -1.8369  0.9853
 2706TIP3    H229678   6.583   3.549   8.277  1.3686 -1.2604 -0.1434
 2707TIP3   OH229679   1.806   6.278   6.723 -0.2198  0.0090 -0.2253
 2707TIP3    H129680   1.818   6.372   6.719  2.2080 -0.1357  1.5483
 2707TIP3    H229681   1.826   6.247   6.635  0.0312  1.0532 -0.5472
 2708TIP3   OH229682   5.156   3.651   6.421 -0.2153 -0.4347 -0.1433
 2708TIP3    H129683   5.144   3.734   6.376 -1.6347 -0.4737  0.1314
 2708TIP3    H229684   5.086   3.648   6.486 -0.2880 -1.9121 -0.2573
 2709TIP3   OH229685   6.593   6.668   8.096  0.7388 -0.4005 -0.3324
 2709TIP3    H129686   6.550   6.753   8.098  1.2382 -0.1557  0.4124
 2709TIP3    H229687   6.522   6.605   8.104  0.5034  0.0033  0.9719
 2710TIP3   OH229688   3.818   4.044   0.013  0.4179  0.1334 -0.4510
 2710TIP3    H129689   3.879   4.022   0.083 -0.8182 -0.6522  0.4166
 2710TIP3    H229690   3.866   4.105  -0.043  1.6465  0.2779  0.7275
 2711TIP3   OH229691   2.184   3.928   7.830  0.1951  0.8361  0.1458
 2711TIP3    H129692   2.250   3.859   7.833 -3.1197 -2.6993 -0.3626
 2711TIP3    H229693   2.174   3.947   7.736  0.5751  1.5025  0.2343
 2712TIP3   OH229694   0.332   6.812   0.874  0.1400 -0.1488 -0.1204
 2712TIP3    H129695   0.358   6.904   0.881 -0.8188  0.2683 -1.5933
 2712TIP3    H229696   0.406   6.764   0.912  1.0544  1.1814 -0.1180
 2713TIP3   OH229697   6.746   0.426   7.850  0.4768 -0.3909  1.4891
 2713TIP3    H129698   6.651   0.416   7.846  0.2233  1.6115  1.5379
 2713TIP3    H229699   6.779   0.374   7.777 -0.8832  1.1665 -0.3308
 2714TIP3   OH229700   6.870   4.728   1.073 -0.3694  0.3006 -0.4260
 2714TIP3    H129701   6.800   4.663   1.066  0.4981 -0.9219  1.4906
 2714TIP3    H229702   6.825   4.807   1.103 -1.2693  0.2871 -1.6644
 2715TIP3   OH229703   0.834   5.391   6.687 -0.5660 -0.1224  0.1715
 2715TIP3    H129704   0.754   5.397   6.741  0.4109 -1.7705  1.9118
 2715TIP3    H229705   0.816   5.321   6.625 -1.4407  1.3386 -1.3190
 2716TIP3   OH229706   3.229   6.485   0.475 -0.6009  0.0050 -0.3454
 2716TIP3    H129707   3.229   6.436   0.392  0.7167 -0.9582  0.1951
 2716TIP3    H229708   3.313   6.464   0.515 -1.2556  0.3772  1.2914
 2717TIP3   OH229709   6.795   3.661   0.688 -0.3334 -0.7636 -0.0908
 2717TIP3    H129710   6.863   3.620   0.636 -1.7617 -1.0156 -1.8565
 2717TIP3    H229711   6.741   3.709   0.625 -1.1074  0.4416  1.3896
 2718TIP3   OH229712   3.620   2.935   0.852 -0.0699 -0.3597 -0.4052
 2718TIP3    H129713   3.575   3.017   0.830  0.9945  0.1757 -0.6971
 2718TIP3    H229714   3.677   2.918   0.777  1.0699 -0.3696  0.4308
 2719TIP3   OH229715   3.701   4.647   1.204 -0.0743  0.1330  0.3128
 2719TIP3    H129716   3.670   4.561   1.177  2.5613 -1.5216  2.0288
 2719TIP3    H229717   3.795   4.646   1.184 -0.0338  2.8030  0.0103
 2720TIP3   OH229718   1.779   1.477   7.095 -0.1420 -0.6957 -0.3519
 2720TIP3    H129719   1.861   1.503   7.051 -0.3165 -0.3635 -0.4830
 2720TIP3    H229720   1.734   1.560   7.112 -1.2504 -0.9558 -1.8246
 2721TIP3   OH229721   0.573   6.457   8.142 -1.1777  0.0236 -0.0182
 2721TIP3    H129722   0.571   6.373   8.097  0.2212  0.5928 -1.2342
 2721TIP3    H229723   0.620   6.516   8.082 -1.9571  1.6292  0.8637
 2722TIP3   OH229724   4.874   6.386   1.937  0.1650  0.3058 -0.6464
 2722TIP3    H129725   4.806   6.320   1.956 -1.4858  2.4097  1.2583
 2722TIP3    H229726   4.826   6.460   1.899  1.7266  1.1062 -1.1524
 2723TIP3   OH229727   6.251   5.344   1.332 -0.2537  0.0403 -0.6406
 2723TIP3    H129728   6.287   5.362   1.419 -0.2616 -1.9165 -0.1822
 2723TIP3    H229729   6.325   5.356   1.273  0.3547 -0.7934 -0.0768
 2724TIP3   OH229730   5.084   0.812   6.425  0.2339 -0.2395 -0.2622
 2724TIP3    H129731   5.077   0.719   6.404 -1.3264 -0.1925 -0.0501
 2724TIP3    H229732   4.995   0.846   6.415  1.0252  1.5419 -1.6858
 2725TIP3   OH229733   3.485   4.057   7.146 -0.1604 -0.2711 -0.1082
 2725TIP3    H129734   3.389   4.057   7.148 -0.1917 -0.9735 -1.1161
 2725TIP3    H229735   3.510   4.037   7.236 -0.9902 -1.5323 -0.1324
 2726TIP3   OH229736   3.884   0.012   1.670 -0.2824  0.0600 -0.0982
 2726TIP3    H129737   3.912  -0.048   1.740 -2.3727  0.5416  1.2513
 2726TIP3    H229738   3.906   0.099   1.703  0.8370  0.1883 -1.1233
 2727TIP3   OH229739   3.998   2.631   7.440  0.0400  0.2602  0.1112
 2727TIP3    H129740   4.021   2.675   7.358  1.3628 -0.7061 -0.0766
 2727TIP3    H229741   4.031   2.541   7.429  0.4838  0.1903  1.7957
 2728TIP3   OH229742   5.826   2.424   8.233 -0.2517 -0.3994 -0.2383
 2728TIP3    H129743   5.916   2.431   8.200  0.3460 -1.6787  1.0192
 2728TIP3    H229744   5.835   2.381   8.318 -2.1483 -1.3787 -0.4790
 2729TIP3   OH229745   4.072   6.224   0.057 -0.7963 -0.1317  0.4717
 2729TIP3    H129746   4.100   6.178   0.136 -0.9305 -1.4139 -0.1943
 2729TIP3    H229747   4.107   6.172  -0.015  1.1615  2.1531 -0.3775
 2730TIP3   OH229748   5.804   4.109   0.887 -0.1172  0.2262  0.4236
 2730TIP3    H129749   5.711   4.127   0.874  0.1234  0.3924 -1.2361
 2730TIP3    H229750   5.849   4.172   0.831  0.9239 -1.4783 -0.7573
 2731TIP3   OH229751   6.531   0.855   7.863 -0.6642  0.4112 -0.2050
 2731TIP3    H129752   6.450   0.825   7.824 -0.5676 -0.5245  0.2778
 2731TIP3    H229753   6.598   0.795   7.830 -0.4767  0.0152  0.8579
 2732TIP3   OH229754   5.535   4.257   0.373  0.0072  0.1334 -0.2630
 2732TIP3    H129755   5.474   4.328   0.390 -0.8245 -0.6821  0.2169
 2732TIP3    H229756   5.567   4.231   0.460  0.7040  0.2601 -0.4741
 2733TIP3   OH229757   5.101   5.495   7.366  0.2123 -0.1339  0.2859
 2733TIP3    H129758   5.086   5.430   7.297  0.7869  0.7417 -0.6991
 2733TIP3    H229759   5.020   5.545   7.371  0.9505  1.3477 -1.4868
 2734TIP3   OH229760   2.950   3.960   0.041  0.2136 -0.0873 -0.0989
 2734TIP3    H129761   3.025   4.021   0.042  0.8203 -0.8339  0.4455
 2734TIP3    H229762   2.990   3.873   0.041 -0.6624 -0.5045  1.0215
 2735TIP3   OH229763   6.345   2.647   7.942  0.2716 -0.0914  0.3889
 2735TIP3    H129764   6.401   2.633   8.019  0.4765  0.4009  0.3343
 2735TIP3    H229765   6.256   2.637   7.975  0.3866 -0.9071  0.4720
 2736TIP3   OH229766   5.923   0.776   0.416 -0.9534  0.0512 -0.0170
 2736TIP3    H129767   5.985   0.721   0.368 -1.6352 -0.5760 -0.2218
 2736TIP3    H229768   5.958   0.782   0.504 -1.3082 -1.4961  0.2647
 2737TIP3   OH229769   5.064   0.500   0.372  0.2914 -0.0960 -0.6658
 2737TIP3    H129770   5.101   0.530   0.289  0.6291 -0.2510 -0.5723
 2737TIP3    H229771   5.017   0.577   0.406  0.5715  0.1195 -0.7598
 2738TIP3   OH229772   2.487   0.116   8.423  0.1776 -0.8859  0.2133
 2738TIP3    H129773   2.493   0.167   8.504 -2.0516  0.0231 -0.1197
 2738TIP3    H229774   2.474   0.026   8.452 -1.8128 -0.4093  0.9547
 2739TIP3   OH229775   5.717   3.848   7.186 -0.1815 -0.0403  0.0246
 2739TIP3    H129776   5.748   3.777   7.130 -0.5654  0.0112 -0.2608
 2739TIP3    H229777   5.659   3.806   7.249 -1.9801  0.2245 -1.3346
 2740TIP3   OH229778   6.335   5.558   6.088 -0.0710 -0.0311 -0.2894
 2740TIP3    H129779   6.281   5.495   6.040  1.1019 -0.9878 -0.4175
 2740TIP3    H229780   6.411   5.507   6.117  1.6985  1.6364 -1.7086
 2741TIP3   OH229781   3.656   3.684   7.542 -0.1445 -0.1593  0.2635
 2741TIP3    H129782   3.698   3.638   7.615  1.8553  0.5728 -0.3531
 2741TIP3    H229783   3.708   3.659   7.466 -0.3056  1.4781 -0.4164
 2742TIP3   OH229784   6.845   6.635   6.755 -0.2317  0.3015  0.2694
 2742TIP3    H129785   6.933   6.654   6.724 -0.9811  0.6518 -1.8259
 2742TIP3    H229786   6.847   6.657   6.849  1.9952 -0.1595  0.3849
 2743TIP3   OH229787   4.891   6.291   1.533  0.2171 -0.4797 -0.3968
 2743TIP3    H129788   4.900   6.287   1.438  0.7029 -1.4133 -0.3172
 2743TIP3    H229789   4.806   6.252   1.551  0.4415 -0.9786 -0.4007
 2744TIP3   OH229790   3.947   6.162   6.904 -0.4917  0.3192 -0.2381
 2744TIP3    H129791   3.954   6.224   6.832 -0.8009  0.2842 -0.2995
 2744TIP3    H229792   4.032   6.167   6.948 -0.8578  1.5739  0.3988
 2745TIP3   OH229793   0.196   5.402   0.819 -0.1093  0.2986 -0.6338
 2745TIP3    H129794   0.175   5.360   0.902  0.7022 -1.2650 -1.1850
 2745TIP3    H229795   0.291   5.400   0.815 -0.1232  0.8466 -1.3685
 2746TIP3   OH229796   0.485   1.913   8.210  0.0504 -0.0564  0.1469
 2746TIP3    H129797   0.535   1.994   8.216 -1.0405  0.8129 -1.4974
 2746TIP3    H229798   0.549   1.847   8.184  0.2912  1.2547 -3.1003
 2747TIP3   OH229799   1.479   6.312   8.490 -0.0105 -0.0137  0.5740
 2747TIP3    H129800   1.417   6.247   8.522  0.3861 -0.7196 -0.0468
 2747TIP3    H229801   1.425   6.378   8.446 -0.2565 -1.3535 -1.2237
 2748TIP3   OH229802   2.622   1.067   7.102  0.0862 -0.2689 -0.4973
 2748TIP3    H129803   2.623   1.147   7.155  0.5997 -0.2021 -0.5999
 2748TIP3    H229804   2.652   1.095   7.016 -2.1074 -0.0945 -1.2688
 2749TIP3   OH229805   2.224   2.705   7.576 -0.2508  0.5246  0.0561
 2749TIP3    H129806   2.303   2.755   7.596 -0.3311  0.5074  0.4216
 2749TIP3    H229807   2.250   2.648   7.503  0.5830 -0.7288  1.2853
 2750TIP3   OH229808   6.596   1.618   0.556 -0.1734 -0.6310 -0.2295
 2750TIP3    H129809   6.577   1.599   0.648  1.3705 -0.6527  0.1166
 2750TIP3    H229810   6.686   1.652   0.557 -0.6327  0.7577 -1.5641
 2751TIP3   OH229811   4.600   5.106   8.227 -0.3657 -0.0143  0.1025
 2751TIP3    H129812   4.592   5.199   8.205 -0.1644 -0.1071 -0.3819
 2751TIP3    H229813   4.567   5.061   8.149 -0.1845 -0.3518  0.2209
 2752TIP3   OH229814   5.425   5.306   8.601  0.0788 -0.2496  0.8813
 2752TIP3    H129815   5.378   5.225   8.619 -0.0968  0.0629  1.9551
 2752TIP3    H229816   5.358   5.374   8.607  0.5115  0.1294  1.6941
 2753TIP3   OH229817   2.289   6.049   7.266 -0.2585  0.0325 -0.3915
 2753TIP3    H129818   2.350   5.985   7.229 -0.7538 -0.6510 -0.0348
 2753TIP3    H229819   2.204   6.006   7.266 -0.6020  0.6815 -0.1275
 2754TIP3   OH229820   5.749   4.915   1.053 -0.0646  0.1617 -0.1671
 2754TIP3    H129821   5.732   4.934   1.146 -0.1109 -1.9262  0.2889
 2754TIP3    H229822   5.670   4.944   1.008 -0.1355  0.9820  0.4511
 2755TIP3   OH229823   3.904   3.446   0.140  0.5595  0.0230 -0.2246
 2755TIP3    H129824   3.956   3.393   0.200  0.1056 -0.3048 -0.1148
 2755TIP3    H229825   3.959   3.522   0.121  1.1922 -0.4649 -0.3532
 2756TIP3   OH229826   5.064   5.293   7.137 -0.9149  0.2528 -0.0840
 2756TIP3    H129827   5.137   5.244   7.175 -0.7887 -0.2171 -0.9260
 2756TIP3    H229828   5.087   5.303   7.045 -1.7836  0.3494 -0.2926
 2757TIP3   OH229829   3.699   4.742   1.725 -0.1418 -0.2024  0.3123
 2757TIP3    H129830   3.628   4.793   1.686  0.5418  0.9172  0.5029
 2757TIP3    H229831   3.725   4.681   1.656 -1.0839 -0.4403  0.1412
 2758TIP3   OH229832   6.387   0.493   0.218  0.5448  0.0212  0.3177
 2758TIP3    H129833   6.353   0.471   0.132 -0.8919 -0.5254  1.0018
 2758TIP3    H229834   6.371   0.415   0.271 -3.2578  1.9403  2.4094
 2759TIP3   OH229835   4.755   5.558   6.610  0.2638  0.2014  0.0874
 2759TIP3    H129836   4.774   5.502   6.534  0.4336  0.3039  0.0548
 2759TIP3    H229837   4.681   5.514   6.653 -0.2328  0.4645 -0.4725
 2760TIP3   OH229838   5.777   3.640   7.608  0.0760  0.0298 -0.1148
 2760TIP3    H129839   5.716   3.714   7.604  0.7086  0.5376 -0.5579
 2760TIP3    H229840   5.844   3.667   7.671 -0.4047 -0.7236  0.7332
 2761TIP3   OH229841   2.721   4.115   8.039  0.3042 -0.4064 -0.8237
 2761TIP3    H129842   2.765   4.196   8.063 -0.7695  0.4000 -1.4822
 2761TIP3    H229843   2.631   4.141   8.019 -0.4668 -1.9680  0.3294
 2762TIP3   OH229844   3.552   2.089   1.015 -0.1530 -0.1160  0.1814
 2762TIP3    H129845   3.472   2.141   1.024  1.6507  2.5282  2.1876
 2762TIP3    H229846   3.530   2.004   1.053 -1.9604  0.5854  0.7941
 2763TIP3   OH229847   0.079   3.350   7.653 -0.1227  0.0774  0.6435
 2763TIP3    H129848   0.024   3.427   7.666  0.6128  0.6123  0.6878
 2763TIP3    H229849   0.037   3.281   7.704  0.4330  1.0505  2.5072
 2764TIP3   OH229850   4.429   0.467   0.180 -0.6013 -0.3635  0.6206
 2764TIP3    H129851   4.508   0.443   0.229 -0.7801  0.8450  1.5570
 2764TIP3    H229852   4.427   0.563   0.184 -1.3175 -0.3080 -0.6909
 2765TIP3   OH229853   4.439   0.970   2.261 -0.0538 -0.5869 -0.6879
 2765TIP3    H129854   4.462   1.061   2.281 -1.0609 -0.4616  0.0042
 2765TIP3    H229855   4.348   0.975   2.231 -0.3503 -1.4374  0.0317
 2766TIP3   OH229856   0.915   1.826   6.804 -0.3472  0.4684  0.3306
 2766TIP3    H129857   0.853   1.865   6.742  0.0893 -0.0964 -0.4770
 2766TIP3    H229858   0.864   1.816   6.885 -1.5079 -0.5106 -0.4799
 2767TIP3   OH229859   0.752   4.906   7.605 -0.6242 -0.2542 -0.0091
 2767TIP3    H129860   0.809   4.836   7.637  0.0605  0.7937  1.1807
 2767TIP3    H229861   0.751   4.895   7.510 -0.1708 -1.6017  0.1280
 2768TIP3   OH229862   6.063   5.664   7.405  0.3470  1.0161 -0.1321
 2768TIP3    H129863   6.086   5.571   7.414  1.8765  1.2269 -1.5385
 2768TIP3    H229864   6.092   5.704   7.487  0.4819  0.4150  0.1178
 2769TIP3   OH229865   1.032   0.973   0.879 -0.0866  0.1100  0.6603
 2769TIP3    H129866   1.126   0.965   0.893 -0.0083 -0.8885 -0.2723
 2769TIP3    H229867   0.993   0.958   0.965  0.5460 -0.9803  0.7750
 2770TIP3   OH229868   0.872   0.266   8.465 -0.6253 -0.2516  0.3946
 2770TIP3    H129869   0.802   0.202   8.451  0.0591 -0.2551 -4.8323
 2770TIP3    H229870   0.948   0.229   8.421  1.3239  1.9889  1.6290
 2771TIP3   OH229871   3.754   5.168   1.752  0.4334 -0.2606 -0.1213
 2771TIP3    H129872   3.762   5.094   1.812 -1.9727 -1.3068 -0.9477
 2771TIP3    H229873   3.788   5.134   1.669 -1.0032 -0.6091 -0.5918
 2772TIP3   OH229874   1.208   2.224   6.650  0.7857 -0.3150  0.0797
 2772TIP3    H129875   1.297   2.243   6.621  0.4415  1.6850  0.1753
 2772TIP3    H229876   1.153   2.251   6.577  0.1712  0.3083  0.7586
 2773TIP3   OH229877   4.673   0.771   7.438  0.1317 -0.4434 -0.1709
 2773TIP3    H129878   4.608   0.834   7.470  0.2625  0.1821 -1.0846
 2773TIP3    H229879   4.643   0.749   7.350  0.1737 -1.5527  0.0885
 2774TIP3   OH229880   4.620   6.432   0.417 -0.2964 -0.4380  0.2108
 2774TIP3    H129881   4.662   6.365   0.363 -0.7518  0.6877 -1.6347
 2774TIP3    H229882   4.596   6.501   0.355 -3.8323 -0.4892  1.3031
 2775TIP3   OH229883   1.735   5.730   8.636  0.0416  0.1738  0.3673
 2775TIP3    H129884   1.791   5.768   8.704  1.1743  0.2303 -0.5644
 2775TIP3    H229885   1.647   5.730   8.674  0.7731 -0.5700  2.1419
 2776TIP3   OH229886   4.620   3.142   0.992 -0.4216  0.5358 -0.8027
 2776TIP3    H129887   4.575   3.186   0.920  0.2627  0.1127 -1.5050
 2776TIP3    H229888   4.652   3.060   0.954 -0.4777  0.0739  0.1180
 2777TIP3   OH229889   2.249   3.136   0.133 -0.3169 -0.9304 -0.2638
 2777TIP3    H129890   2.326   3.080   0.146  1.0193  0.9618  0.5954
 2777TIP3    H229891   2.206   3.102   0.055  1.9660 -1.4727 -1.3540
 2778TIP3   OH229892   4.745   2.324   8.509 -0.1902  0.9888 -0.5844
 2778TIP3    H129893   4.728   2.236   8.477 -0.1331  0.0460  1.7243
 2778TIP3    H229894   4.660   2.354   8.543  0.5127  0.2277  2.0622
 2779TIP3   OH229895   0.345   0.026   1.469 -0.2985 -0.6414 -0.1920
 2779TIP3    H129896   0.331  -0.015   1.384  0.8254 -1.8956  0.1852
 2779TIP3    H229897   0.270  -0.001   1.522  0.0492 -1.6004 -0.1794
 2780TIP3   OH229898   1.648   2.337   8.611  0.0446 -0.6420  0.1959
 2780TIP3    H129899   1.691   2.418   8.640 -1.5483 -0.2821  1.7164
 2780TIP3    H229900   1.720   2.280   8.583  1.2808  0.8722  0.2055
 2781TIP3   OH229901   1.234   1.565   7.012  0.1660  0.0458  0.0243
 2781TIP3    H129902   1.267   1.504   6.946  1.7949  0.6249  0.2430
 2781TIP3    H229903   1.261   1.526   7.096  2.5419  1.6928  0.1239
 2782TIP3   OH229904   2.947   4.318   0.581  0.1421 -0.3915 -0.4291
 2782TIP3    H129905   2.865   4.292   0.624 -0.0403  0.8682  0.0512
 2782TIP3    H229906   2.925   4.320   0.487  0.2983 -2.3165 -0.5366
 2783TIP3   OH229907   0.539   0.009   8.619  0.2283  0.1580 -0.3706
 2783TIP3    H129908   0.528   0.020   8.714  0.1795 -2.0994 -0.0673
 2783TIP3    H229909   0.462  -0.042   8.593 -0.0114  1.1736 -1.7402
 2784TIP3   OH229910   6.520   6.827   0.286  0.2519 -0.5678  0.4056
 2784TIP3    H129911   6.494   6.767   0.356  1.8506 -1.4666  0.2877
 2784TIP3    H229912   6.616   6.829   0.291  0.3287  0.3602 -0.9461
 2785TIP3   OH229913   5.007   1.427   0.825  0.6648 -0.0119  0.8751
 2785TIP3    H129914   4.950   1.456   0.754  1.3975 -2.2563 -0.7546
 2785TIP3    H229915   5.076   1.494   0.830 -1.4831  2.2669  2.2886
 2786TIP3   OH229916   6.216   4.042   7.319  0.8666 -0.0841 -0.2939
 2786TIP3    H129917   6.257   3.962   7.286  2.1285 -0.0984  1.2206
 2786TIP3    H229918   6.129   4.042   7.280  0.0659 -3.2583  1.1991
 2787TIP3   OH229919   1.945   5.072   6.657  0.4267  0.1720 -0.0093
 2787TIP3    H129920   1.935   5.018   6.578  0.2061 -0.1711  0.2492
 2787TIP3    H229921   2.034   5.054   6.686  0.4125  0.0751 -0.0224
 2788TIP3   OH229922   5.693   1.650   8.337 -0.1962  0.7422  0.2481
 2788TIP3    H129923   5.723   1.571   8.383  0.0596  0.3028 -0.6386
 2788TIP3    H229924   5.598   1.646   8.343 -0.1940  0.2403  0.0201
 2789TIP3   OH229925   1.954   2.975   1.961 -0.0658  0.4457 -0.2494
 2789TIP3    H129926   1.992   3.058   1.933  0.9845 -0.5298 -1.8930
 2789TIP3    H229927   1.874   2.966   1.910  1.4158 -0.9326 -2.5440
 2790TIP3   OH229928   1.036   5.973   6.739  0.0260 -0.3284  0.2165
 2790TIP3    H129929   1.120   5.930   6.750  0.5713  0.9833  1.5156
 2790TIP3    H229930   1.054   6.066   6.756 -1.2521  0.3264 -1.7139
 2791TIP3   OH229931   0.297   0.795   2.212  0.1721  0.1271  0.3573
 2791TIP3    H129932   0.211   0.836   2.227  0.3454  0.8584 -0.6091
 2791TIP3    H229933   0.285   0.705   2.243 -1.2456 -0.0682 -0.6512
 2792TIP3   OH229934   3.530   0.779   1.271 -0.1403 -0.2908 -1.0000
 2792TIP3    H129935   3.586   0.778   1.194  0.8682 -2.4219 -0.3021
 2792TIP3    H229936   3.584   0.819   1.340  0.3442 -1.7807 -0.4859
 2793TIP3   OH229937   4.851   4.444   1.393 -0.4611  0.0204  0.0269
 2793TIP3    H129938   4.772   4.467   1.345  0.0839 -0.3873 -1.1008
 2793TIP3    H229939   4.839   4.352   1.417 -1.4350  0.6307  2.1384
 2794TIP3   OH229940   3.732   3.620   2.548 -0.4089  0.2863  0.2157
 2794TIP3    H129941   3.755   3.530   2.569  0.6470  0.9628  2.1697
 2794TIP3    H229942   3.637   3.623   2.553 -0.5163 -0.8787 -0.7021
 2795TIP3   OH229943   5.730   3.369   1.972 -0.0986 -0.1617 -0.1797
 2795TIP3    H129944   5.717   3.298   2.036 -3.4293  0.0180 -0.4508
 2795TIP3    H229945   5.769   3.440   2.023  2.2424 -1.7028  0.3571
 2796TIP3   OH229946   4.059   3.361   7.249 -0.4116  0.5121 -0.0355
 2796TIP3    H129947   4.088   3.291   7.307 -0.4865  0.9843  0.5746
 2796TIP3    H229948   3.969   3.380   7.276 -1.5138 -1.1865 -2.1325
 2797TIP3   OH229949   1.356   5.197   6.336 -0.0487 -0.3731  0.7458
 2797TIP3    H129950   1.281   5.252   6.359  0.7958  0.0874  2.5271
 2797TIP3    H229951   1.355   5.195   6.240 -2.9649 -1.2709  0.6700
 2798TIP3   OH229952   4.501   5.457   7.038  0.4923  0.1727 -0.5520
 2798TIP3    H129953   4.441   5.510   7.090  2.8903  0.2298  2.4853
 2798TIP3    H229954   4.573   5.516   7.017  1.1218 -0.7264 -0.9956
 2799TIP3   OH229955   2.337   3.227   0.760 -0.3258  0.5817  0.5351
 2799TIP3    H129956   2.253   3.229   0.714  0.7575  0.5072 -1.5799
 2799TIP3    H229957   2.385   3.155   0.720  0.8851  0.8428  1.4497
 2800TIP3   OH229958   3.225   3.378   7.063  0.6527  0.2058 -0.5603
 2800TIP3    H129959   3.251   3.341   7.148  2.2280  0.3638 -0.9256
 2800TIP3    H229960   3.133   3.400   7.073  0.8245  0.3064  1.1501
 2801TIP3   OH229961   5.832   6.705   8.443 -0.2288 -0.1805  0.3110
 2801TIP3    H129962   5.876   6.626   8.473  0.2170  0.0693  0.3206
 2801TIP3    H229963   5.831   6.763   8.519 -1.0434 -0.3861  0.4589
 2802TIP3   OH229964   0.870   4.180   0.244 -0.0166  0.2038  0.1069
 2802TIP3    H129965   0.859   4.141   0.157 -1.2211 -2.7514  1.4230
 2802TIP3    H229966   0.928   4.118   0.290  0.6502  1.7253  1.4023
 2803TIP3   OH229967   5.431   3.386   7.976 -0.2645 -0.0960 -0.4379
 2803TIP3    H129968   5.526   3.379   7.961 -0.2828 -0.4241 -0.4066
 2803TIP3    H229969   5.408   3.305   8.022 -0.3521  0.5205  0.6309
 2804TIP3   OH229970   1.455   2.205   0.734  0.1062 -0.5216 -0.0971
 2804TIP3    H129971   1.385   2.153   0.772 -0.8431  0.6940 -0.1209
 2804TIP3    H229972   1.514   2.225   0.807 -1.3666  1.2633  0.6808
 2805TIP3   OH229973   1.305   3.481   7.198 -0.6793  0.2474 -0.4601
 2805TIP3    H129974   1.301   3.544   7.270 -1.2564 -0.6365  0.3014
 2805TIP3    H229975   1.224   3.430   7.206 -0.2510 -0.5589 -1.0907
 2806TIP3   OH229976   4.846   5.251   1.981  0.9372 -0.3294 -0.2209
 2806TIP3    H129977   4.932   5.210   1.983  1.7591  1.2332 -1.2550
 2806TIP3    H229978   4.864   5.345   1.989 -0.7756 -0.0469  0.9249
 2807TIP3   OH229979   3.795   1.292   8.437 -0.1027  0.1117 -0.0504
 2807TIP3    H129980   3.789   1.374   8.388 -0.3928  0.3170  0.3195
 2807TIP3    H229981   3.884   1.261   8.421  0.5682  1.3223  1.0943
 2808TIP3   OH229982   3.908   1.921   7.000 -0.1876  0.2622 -0.5285
 2808TIP3    H129983   3.991   1.924   7.049  0.5635  2.0235 -1.8040
 2808TIP3    H229984   3.848   1.971   7.055  0.0308  0.3401 -0.3538
 2809TIP3   OH229985   2.759   6.069   8.353 -0.8901  0.3862 -0.4825
 2809TIP3    H129986   2.744   6.121   8.432  0.1238  0.1670 -0.1329
 2809TIP3    H229987   2.735   5.980   8.378 -1.7616  0.5222 -0.8078
 2810TIP3   OH229988   6.848   6.383   6.952  0.2428 -0.2891 -0.0416
 2810TIP3    H129989   6.922   6.407   6.896 -0.3517 -0.7436 -1.0650
 2810TIP3    H229990   6.817   6.300   6.916 -0.3377 -0.4502  0.8023
 2811TIP3   OH229991   4.532   4.198   7.670 -0.0414 -0.0168 -0.1918
 2811TIP3    H129992   4.594   4.239   7.731 -0.0862  0.1741 -0.2739
 2811TIP3    H229993   4.470   4.267   7.649 -0.2082 -0.1728 -0.2123
 2812TIP3   OH229994   5.814   5.352   6.332  0.1045 -0.2905 -0.5425
 2812TIP3    H129995   5.859   5.414   6.389 -0.5161 -0.0686 -0.2913
 2812TIP3    H229996   5.740   5.401   6.296  0.1457 -0.6069 -1.0754
 2813TIP3   OH229997   1.139   5.366   6.367  0.6344  0.0458  0.3002
 2813TIP3    H129998   1.153   5.437   6.430  2.0302  1.4122 -1.4433
 2813TIP3    H229999   1.074   5.402   6.306  1.0716 -0.3203 -0.3853
 2814TIP3   OH230000   1.082   3.822   1.854  0.3140  0.0718  0.1212
 2814TIP3    H130001   1.022   3.830   1.928  1.1039 -0.3770  0.8203
 2814TIP3    H230002   1.027   3.788   1.783 -0.5396  0.8866  0.3658
 2815TIP3   OH230003   5.362   1.097   0.724  0.0247 -0.2848 -0.0329
 2815TIP3    H130004   5.281   1.047   0.712  0.1969 -0.7512  0.6496
 2815TIP3    H230005   5.404   1.055   0.800  0.0373  1.0769  0.7434
 2816TIP3   OH230006   4.853   0.320   0.650  0.1674  0.1353 -0.2527
 2816TIP3    H130007   4.761   0.340   0.633  0.0681 -1.1017 -1.3047
 2816TIP3    H230008   4.885   0.394   0.703 -1.7483 -0.0377  1.2364
 2817TIP3   OH230009   6.338   0.335   1.973 -0.0146 -0.1181  0.3724
 2817TIP3    H130010   6.330   0.367   1.884 -1.2168  1.8483  1.1290
 2817TIP3    H230011   6.415   0.381   2.008 -0.9261  0.9542  1.0343
 2818TIP3   OH230012   4.565   4.695   0.839  0.7542 -0.2955 -0.5160
 2818TIP3    H130013   4.519   4.698   0.923  0.2295 -0.3371 -0.7991
 2818TIP3    H230014   4.548   4.607   0.805 -0.3817  0.2265 -1.4006
 2819TIP3   OH230015   3.875   4.076   1.479  0.7362  0.2647  0.0912
 2819TIP3    H130016   3.908   4.165   1.467  1.3785 -0.0492 -0.5168
 2819TIP3    H230017   3.949   4.027   1.515  0.8715 -0.3852 -1.0312
 2820TIP3   OH230018   6.384   1.428   8.298 -0.1944 -0.5743 -1.0247
 2820TIP3    H130019   6.379   1.524   8.302  2.6651 -0.3022 -1.4559
 2820TIP3    H230020   6.405   1.402   8.388  0.4264 -0.6223 -1.1751
 2821TIP3   OH230021   5.978   1.695   0.286 -0.1300 -0.5157  0.0411
 2821TIP3    H130022   5.941   1.608   0.297 -1.4276  0.1032  0.8328
 2821TIP3    H230023   5.988   1.729   0.375  0.5881  0.0529 -0.2479
 2822TIP3   OH230024   0.600   3.344   1.308  0.0044 -0.0158 -0.0868
 2822TIP3    H130025   0.614   3.423   1.256 -0.5478  0.7624  0.8908
 2822TIP3    H230026   0.505   3.340   1.321  0.1376 -0.0948  0.9715
 2823TIP3   OH230027   1.534   0.575   7.245  0.0134  0.2192  0.0620
 2823TIP3    H130028   1.451   0.585   7.291  0.4119  1.4221  0.5749
 2823TIP3    H230029   1.559   0.665   7.223  0.8014 -0.1927 -0.7589
 2824TIP3   OH230030   6.185   2.836   2.050 -0.1214 -0.0414  0.3839
 2824TIP3    H130031   6.209   2.766   2.110 -1.7247 -1.3802 -0.4545
 2824TIP3    H230032   6.233   2.913   2.082  0.9253 -1.2769  1.9049
 2825TIP3   OH230033   4.019   4.023   8.044  0.0430  0.0282  0.0856
 2825TIP3    H130034   4.045   4.051   7.956  2.2532 -1.9320  0.0144
 2825TIP3    H230035   4.097   4.040   8.097 -0.6739 -0.4068  1.2955
 2826TIP3   OH230036   5.401   1.737   7.359  0.3614 -0.5297 -0.0795
 2826TIP3    H130037   5.443   1.738   7.445  0.4350 -1.0372 -0.1059
 2826TIP3    H230038   5.346   1.815   7.359 -0.2956 -0.9673  0.7644
 2827TIP3   OH230039   0.634   6.558   7.842 -0.3165 -0.4171 -0.2689
 2827TIP3    H130040   0.665   6.468   7.843  1.0230  0.0370  0.5598
 2827TIP3    H230041   0.554   6.555   7.789 -0.4626 -2.1307  0.0105
 2828TIP3   OH230042   2.490   4.928   1.291 -0.4268 -0.0355  0.4974
 2828TIP3    H130043   2.420   4.945   1.228  1.0259 -0.7448 -1.4297
 2828TIP3    H230044   2.505   4.833   1.284  1.4755  0.2711 -0.0176
 2829TIP3   OH230045   5.517   1.816   6.693  0.0143  0.1057  0.4194
 2829TIP3    H130046   5.607   1.784   6.705  0.3505  0.9382  0.2114
 2829TIP3    H230047   5.526   1.886   6.627 -1.0719 -1.1640 -1.1567
 2830TIP3   OH230048   1.813   5.378   5.578 -0.0094  0.5725  0.5716
 2830TIP3    H130049   1.756   5.408   5.507  1.0588  2.1640  0.3355
 2830TIP3    H230050   1.857   5.458   5.609  3.0497 -0.7135 -0.1353
 2831TIP3   OH230051   2.609   1.135   8.444 -0.0952  0.2614  0.3584
 2831TIP3    H130052   2.611   1.104   8.353 -1.8589  1.4872 -0.1712
 2831TIP3    H230053   2.567   1.064   8.493  1.1013 -0.5155  0.2872
 2832TIP3   OH230054   1.467   4.309   1.724  0.3279 -0.0868 -0.1227
 2832TIP3    H130055   1.400   4.298   1.792 -0.6284 -0.7581 -1.1432
 2832TIP3    H230056   1.418   4.306   1.642  1.4554  0.7882 -0.8494
 2833TIP3   OH230057   4.984   0.750   8.388 -0.6297 -0.4739  0.0570
 2833TIP3    H130058   4.994   0.673   8.445  1.8031 -0.2433  0.0267
 2833TIP3    H230059   4.960   0.821   8.447 -0.2628 -0.7041  0.4877
 2834TIP3   OH230060   0.376   6.844   6.978 -0.4303 -0.1557 -0.4643
 2834TIP3    H130061   0.448   6.821   6.919 -0.7533 -0.6369 -0.6762
 2834TIP3    H230062   0.314   6.893   6.923 -1.2304 -1.5068 -0.8053
 2835TIP3   OH230063   6.617   3.922   8.162  0.2511  0.1269  0.2395
 2835TIP3    H130064   6.609   3.841   8.112  1.0744 -0.4023  0.9448
 2835TIP3    H230065   6.536   3.928   8.212 -0.0938  0.0811 -0.3052
 2836TIP3   OH230066   6.335   2.213   6.475  1.0819  0.1982  0.1603
 2836TIP3    H130067   6.267   2.259   6.426  1.4641  0.8614  0.2335
 2836TIP3    H230068   6.288   2.163   6.542  0.5815 -0.4512 -0.6622
 2837TIP3   OH230069   5.771   1.048   7.865  0.0664  0.5875  0.3900
 2837TIP3    H130070   5.731   1.135   7.870  0.7424  0.8782  1.1180
 2837TIP3    H230071   5.776   1.019   7.956 -2.0123 -1.1178  0.0387
 2838TIP3   OH230072   5.631   3.851   8.481  0.2394 -0.3817 -0.1112
 2838TIP3    H130073   5.712   3.871   8.435  0.2639 -3.7456 -1.8765
 2838TIP3    H230074   5.568   3.834   8.411 -1.8043  1.2227  1.2153
 2839TIP3   OH230075   2.884   2.651   7.639 -0.0644 -0.2318  0.2558
 2839TIP3    H130076   2.872   2.576   7.581 -0.7132 -0.1199  0.2322
 2839TIP3    H230077   2.796   2.670   7.671  0.0649  0.6244  0.1229
 2840TIP3   OH230078   5.436   0.703   0.824  0.0678 -0.5676  0.3496
 2840TIP3    H130079   5.409   0.615   0.847 -0.1593 -0.9146 -1.1345
 2840TIP3    H230080   5.355   0.754   0.824  0.2389 -0.2659  1.5079
 2841TIP3   OH230081   2.106   1.425   8.038 -0.1648  0.1732 -0.7486
 2841TIP3    H130082   2.189   1.438   8.083 -1.1842  0.4173  1.1285
 2841TIP3    H230083   2.100   1.331   8.024  0.5989  0.1943 -1.2923
 2842TIP3   OH230084   6.843   2.380   7.629 -0.7314  0.0105  0.5517
 2842TIP3    H130085   6.864   2.294   7.593 -1.6093 -0.8595  2.0179
 2842TIP3    H230086   6.886   2.442   7.569  0.6963 -1.4517 -0.0209
 2843TIP3   OH230087   3.354   1.062   7.179 -0.5808  0.9063  0.2587
 2843TIP3    H130088   3.395   1.110   7.107 -1.6890  2.2221  0.4553
 2843TIP3    H230089   3.260   1.070   7.164 -0.8105 -0.4701  0.8110
 2844TIP3   OH230090   3.156   0.858   6.742  0.6582  0.2330 -0.8643
 2844TIP3    H130091   3.211   0.923   6.786  0.5070 -0.1497 -0.0883
 2844TIP3    H230092   3.067   0.895   6.746  0.2693 -0.8158  1.2097
 2845TIP3   OH230093   1.975   2.170   0.923 -0.1429  0.4380 -0.3881
 2845TIP3    H130094   2.034   2.181   0.849  0.4976  1.1441  0.2163
 2845TIP3    H230095   2.032   2.167   1.000 -0.8565  0.7351  0.1682
 2846TIP3   OH230096   3.267   4.512   6.418  0.1288 -0.5136  0.4465
 2846TIP3    H130097   3.206   4.504   6.491 -0.9552  0.9038 -0.2402
 2846TIP3    H230098   3.347   4.546   6.457 -0.3338 -0.0600  1.0191
 2847TIP3   OH230099   2.426   3.787   7.876 -0.1777 -0.0266  0.0986
 2847TIP3    H130100   2.444   3.711   7.820  1.9929 -0.3929  1.1734
 2847TIP3    H230101   2.508   3.837   7.874 -1.1526  1.6409  0.4146
 2848TIP3   OH230102   2.146   4.109   1.054 -0.5367 -0.4972 -0.1458
 2848TIP3    H130103   2.079   4.093   0.987  0.9826 -1.1900 -1.5686
 2848TIP3    H230104   2.229   4.107   1.006  0.4184  3.4974  0.9676
 2849TIP3   OH230105   5.910   0.011   8.235  0.2522 -0.2357  0.0880
 2849TIP3    H130106   6.004  -0.009   8.234  0.2660 -0.2211  0.6283
 2849TIP3    H230107   5.873  -0.051   8.298 -0.1375 -0.3915 -0.2941
 2850TIP3   OH230108   1.592   2.638   7.850  0.0456 -0.7311 -0.1924
 2850TIP3    H130109   1.535   2.681   7.787 -1.0285 -0.5371  0.8799
 2850TIP3    H230110   1.603   2.702   7.920  0.5361 -1.2478  0.2117
 2851TIP3   OH230111   4.036   5.133   0.151  0.2319  0.0023  0.2750
 2851TIP3    H130112   3.950   5.133   0.193  0.8356 -1.9758  1.6758
 2851TIP3    H230113   4.097   5.151   0.222  1.0580  0.1937 -0.4739
 2852TIP3   OH230114   5.406   4.388   0.683  0.0684 -0.0761 -0.0929
 2852TIP3    H130115   5.462   4.458   0.718 -0.9781  0.7248  0.0296
 2852TIP3    H230116   5.384   4.418   0.595 -1.0737  0.1749  0.2663
 2853TIP3   OH230117   5.717   2.793   0.360 -0.1747  0.2693  0.6855
 2853TIP3    H130118   5.666   2.722   0.397  1.1286 -0.5492  0.9966
 2853TIP3    H230119   5.658   2.837   0.299 -0.6654 -1.8284 -0.4382
 2854TIP3   OH230120   4.658   2.175   0.880 -0.5478  0.2693  0.0230
 2854TIP3    H130121   4.619   2.262   0.869  1.5712  1.4533  1.2095
 2854TIP3    H230122   4.634   2.149   0.969 -0.6690 -0.0924 -0.1134
 2855TIP3   OH230123   0.176   2.143   0.202  0.0919  0.3293 -0.5989
 2855TIP3    H130124   0.153   2.084   0.131  0.5282  0.4985 -0.8878
 2855TIP3    H230125   0.264   2.175   0.179 -0.2585  1.3282 -0.6111
 2856TIP3   OH230126   0.459   6.313   0.879 -0.0875 -0.1141  0.6230
 2856TIP3    H130127   0.524   6.259   0.924  0.1829  0.6730  1.1885
 2856TIP3    H230128   0.498   6.329   0.793  0.7665  0.8521  1.1654
 2857TIP3   OH230129   4.625   0.219   2.219  0.3236 -0.0690  0.0823
 2857TIP3    H130130   4.680   0.289   2.253  0.8853 -1.0150  1.2053
 2857TIP3    H230131   4.548   0.220   2.277 -0.6444  0.9128 -1.1603
 2858TIP3   OH230132   4.168   2.351   2.514  0.1614 -0.6470  1.1250
 2858TIP3    H130133   4.233   2.418   2.492  0.2688 -1.3083 -0.7493
 2858TIP3    H230134   4.093   2.400   2.548  0.1771  0.4737 -0.3372
 2859TIP3   OH230135   0.644   2.231   0.447  0.1174 -0.0317  0.0834
 2859TIP3    H130136   0.588   2.172   0.398 -1.0990  0.3016  1.0074
 2859TIP3    H230137   0.699   2.174   0.500 -0.3156 -0.3557  0.1884
 2860TIP3   OH230138   1.119   2.658   1.135  0.1289  0.1715 -0.1197
 2860TIP3    H130139   1.072   2.726   1.182 -1.1373 -0.7715  0.0464
 2860TIP3    H230140   1.160   2.703   1.061 -0.0963  1.2120  0.3787
 2861TIP3   OH230141   6.584   4.956   6.930 -0.3856 -0.2183  0.9282
 2861TIP3    H130142   6.650   4.897   6.967 -2.1020 -0.8790  3.1474
 2861TIP3    H230143   6.501   4.926   6.968 -2.1805 -0.0450 -2.4697
 2862TIP3   OH230144   3.945   3.956   0.241  0.1579  0.3835 -0.3214
 2862TIP3    H130145   3.993   4.016   0.298  1.0978  0.3296 -1.0338
 2862TIP3    H230146   3.905   3.893   0.301  1.7271 -0.1066  0.2572
 2863TIP3   OH230147   4.769   2.800   8.368 -0.4051 -0.1454 -0.3260
 2863TIP3    H130148   4.845   2.749   8.396  0.1100 -0.1059 -1.5749
 2863TIP3    H230149   4.727   2.746   8.302 -1.4960 -0.1694  0.3679
 2864TIP3   OH230150   5.068   3.186   0.873 -0.1428 -0.0423 -0.4789
 2864TIP3    H130151   5.063   3.091   0.864 -0.4738 -0.0310 -0.4233
 2864TIP3    H230152   5.131   3.213   0.805 -1.6860 -0.0850 -1.9953
 2865TIP3   OH230153   5.115   2.972   0.105  0.6509  0.6684 -0.1327
 2865TIP3    H130154   5.063   2.935   0.033  0.9745  1.5006 -0.8090
 2865TIP3    H230155   5.068   3.052   0.129 -0.5761 -0.5774  1.9610
 2866TIP3   OH230156   2.054   4.600   8.627  0.0960  0.4147 -0.7573
 2866TIP3    H130157   2.086   4.517   8.593  1.6298  0.8970 -0.5780
 2866TIP3    H230158   2.020   4.579   8.714  1.0747  0.0742 -0.4502
 2867TIP3   OH230159   6.267   0.426   8.632  0.2234 -0.1893 -0.3897
 2867TIP3    H130160   6.301   0.347   8.673  2.4869  1.2648  0.7405
 2867TIP3    H230161   6.323   0.440   8.556  0.7181  0.9820  0.1578
 2868TIP3   OH230162   1.997   4.531   8.261 -0.0273  0.1367  0.4631
 2868TIP3    H130163   2.091   4.538   8.275  0.2015  0.6010 -1.1052
 2868TIP3    H230164   1.983   4.570   8.174 -1.6355 -0.0822  0.6014
 2869TIP3   OH230165   1.253   5.143   6.722  0.0151 -0.0274 -0.0412
 2869TIP3    H130166   1.304   5.106   6.649 -0.6057  0.0626 -0.5270
 2869TIP3    H230167   1.163   5.147   6.689 -0.2250  0.2857  0.6330
 2870TIP3   OH230168   5.636   0.920   7.265  0.0222 -0.1320  0.0454
 2870TIP3    H130169   5.628   1.016   7.265 -1.4896 -0.1976 -1.7776
 2870TIP3    H230170   5.570   0.891   7.327 -0.7009 -0.0235 -0.6559
 2871TIP3   OH230171   0.358   5.478   6.773 -0.2011  0.9458  0.3607
 2871TIP3    H130172   0.374   5.398   6.723  0.1285  1.4002 -0.2735
 2871TIP3    H230173   0.435   5.533   6.755 -0.8022  1.7289  0.1450
 2872TIP3   OH230174   0.054   5.937   1.076  0.1393 -0.2207  0.7201
 2872TIP3    H130175   0.000   5.943   1.155 -0.4228 -0.8381  0.3926
 2872TIP3    H230176   0.132   5.888   1.104 -0.8989 -2.1119  0.4898
 2873TIP3   OH230177   4.441   4.408   0.155  0.2041  0.0336  0.1781
 2873TIP3    H130178   4.353   4.399   0.119  0.5106  0.9595 -0.8400
 2873TIP3    H230179   4.494   4.348   0.103  0.0178 -1.3094  1.4715
 2874TIP3   OH230180   0.824   3.760   7.604  0.4497 -0.3400 -0.0186
 2874TIP3    H130181   0.802   3.670   7.581 -1.5417  0.4909 -1.7277
 2874TIP3    H230182   0.762   3.784   7.672 -1.0802  0.5863 -1.6412
 2875TIP3   OH230183   3.634   4.522   8.421 -0.5121  0.5916  0.0112
 2875TIP3    H130184   3.595   4.607   8.441 -1.1216  0.3643 -0.1950
 2875TIP3    H230185   3.679   4.497   8.502  0.0951  1.3341 -0.0857
 2876TIP3   OH230186   6.821   0.465   1.097  0.0111 -0.4548  0.4152
 2876TIP3    H130187   6.898   0.516   1.125 -0.2206 -0.6167  1.3894
 2876TIP3    H230188   6.796   0.416   1.175  0.4270 -2.3353 -0.5769
 2877TIP3   OH230189   5.443   4.868   7.792  0.5030  0.0428 -0.4393
 2877TIP3    H130190   5.371   4.834   7.737  1.2915  0.2078 -1.6128
 2877TIP3    H230191   5.459   4.799   7.856 -0.6132 -0.0501 -0.2393
 2878TIP3   OH230192   5.590   3.436   7.613 -0.2739 -0.0821  0.0830
 2878TIP3    H130193   5.646   3.510   7.634 -0.6599  0.1702  0.2447
 2878TIP3    H230194   5.628   3.398   7.534 -0.0322  0.2492  0.0393
 2879TIP3   OH230195   0.362   3.176   8.312  0.1241 -0.7150 -0.1080
 2879TIP3    H130196   0.275   3.210   8.327 -0.5571 -1.8383 -1.2475
 2879TIP3    H230197   0.365   3.157   8.218  1.1588 -1.8247  0.1125
 2880TIP3   OH230198   6.591   6.527   0.096  0.1943  0.1666 -0.4652
 2880TIP3    H130199   6.507   6.508   0.138 -0.4200 -1.0991 -2.1572
 2880TIP3    H230200   6.657   6.505   0.161 -0.7514 -0.5128  0.2852
 2881TIP3   OH230201   2.859   2.171   1.289  0.2865 -0.2885 -0.0627
 2881TIP3    H130202   2.865   2.265   1.302 -0.7034 -0.2999  0.5749
 2881TIP3    H230203   2.906   2.155   1.207 -0.5301  0.9064 -0.7828
 2882TIP3   OH230204   3.475   5.975   1.770 -0.2831  0.4601 -0.2251
 2882TIP3    H130205   3.404   6.038   1.787 -0.1105  0.1539  1.9263
 2882TIP3    H230206   3.555   6.023   1.791  0.0702  0.3839 -1.3471
 2883TIP3   OH230207   3.405   3.925   8.140  0.2687  0.0327  0.3061
 2883TIP3    H130208   3.440   3.853   8.088  1.2351 -1.0607  2.3844
 2883TIP3    H230209   3.478   3.954   8.194 -0.5218  1.5900  0.5976
 2884TIP3   OH230210   3.382   4.115   1.389  0.4370  0.3272 -0.6091
 2884TIP3    H130211   3.437   4.155   1.456 -0.3294 -0.0611  0.2883
 2884TIP3    H230212   3.294   4.151   1.406 -0.0008 -0.7076 -0.6110
 2885TIP3   OH230213   1.179   1.930   1.105 -0.0848  0.1675  0.3913
 2885TIP3    H130214   1.266   1.926   1.145  0.4947 -0.3846 -0.8733
 2885TIP3    H230215   1.129   1.988   1.162  1.1910  0.7142  0.9900
 2886TIP3   OH230216   1.550   0.861   7.225 -0.3305  0.5989 -0.4996
 2886TIP3    H130217   1.624   0.880   7.167  0.7700 -1.6216  0.0225
 2886TIP3    H230218   1.568   0.914   7.303  2.2575 -1.7284  0.6761
 2887TIP3   OH230219   6.622   0.022   7.513  0.1317 -0.7368 -0.4447
 2887TIP3    H130220   6.627  -0.060   7.465 -0.2411 -1.0803  0.0950
 2887TIP3    H230221   6.660   0.002   7.599  0.8889 -0.1055 -0.6169
 2888TIP3   OH230222   4.579   6.422   8.230 -0.0195 -0.0923 -0.0239
 2888TIP3    H130223   4.621   6.386   8.308 -0.7271 -2.6779 -0.7346
 2888TIP3    H230224   4.639   6.489   8.198  1.4249 -0.6562  1.4012
 2889TIP3   OH230225   4.862   4.039   0.620  0.5537  0.0822  0.2311
 2889TIP3    H130226   4.942   4.058   0.669  0.4153  2.1878 -0.2671
 2889TIP3    H230227   4.794   4.090   0.665 -0.0243  0.1984 -0.7538
 2890TIP3   OH230228   3.044   1.785   8.031  0.2968  0.3918  0.7261
 2890TIP3    H130229   2.985   1.860   8.042  0.5931  0.4947  1.8033
 2890TIP3    H230230   3.002   1.730   7.966  0.0798  1.5004 -0.0932
 2891TIP3   OH230231   6.704   1.865   7.276  0.0974 -0.4947  0.0190
 2891TIP3    H130232   6.797   1.865   7.255  0.1618  0.8626  0.2277
 2891TIP3    H230233   6.694   1.795   7.340  0.7168 -1.5629 -1.0233
 2892TIP3   OH230234   6.092   5.805   7.661  0.5603  0.0170 -0.0709
 2892TIP3    H130235   6.085   5.866   7.588  1.8180  0.8875  0.4968
 2892TIP3    H230236   6.174   5.829   7.704 -0.5734  0.0796  2.1433
 2893TIP3   OH230237   6.846   1.676   6.555 -0.3652 -0.1959 -0.2829
 2893TIP3    H130238   6.759   1.647   6.529  0.5586 -2.1783 -1.4107
 2893TIP3    H230239   6.840   1.772   6.557 -2.2392 -0.2306 -1.4717
 2894TIP3   OH230240   6.502   5.403   1.210 -0.1110  0.7110  0.1586
 2894TIP3    H130241   6.552   5.451   1.276 -0.3821  1.8856 -0.4670
 2894TIP3    H230242   6.553   5.413   1.130 -0.1013 -0.1870  0.0449
 2895TIP3   OH230243   2.868   1.151   8.144  1.1679  0.0036 -0.0454
 2895TIP3    H130244   2.884   1.223   8.083  1.7448 -1.1935 -1.3605
 2895TIP3    H230245   2.939   1.158   8.208  0.8448  0.9787  0.2149
 2896TIP3   OH230246   2.199   5.109   1.408  0.4674 -0.3300 -0.0283
 2896TIP3    H130247   2.144   5.167   1.356  2.9570  2.0010 -0.3054
 2896TIP3    H230248   2.223   5.038   1.348 -2.1014 -1.4291  0.1166
 2897TIP3   OH230249   5.103   0.482   7.961  0.1755 -0.5948  0.3837
 2897TIP3    H130250   5.134   0.450   7.876  0.6367  0.5803  0.0930
 2897TIP3    H230251   5.041   0.551   7.939 -0.3584 -0.8571  1.0114
 2898TIP3   OH230252   5.725   0.913   1.697  0.1006  0.5813  0.1702
 2898TIP3    H130253   5.751   0.833   1.743 -1.0132 -0.6027 -1.1721
 2898TIP3    H230254   5.798   0.931   1.638  0.1863  0.3123  0.1915
 2899TIP3   OH230255   5.043   4.525   0.958 -0.3465 -0.1021  0.1500
 2899TIP3    H130256   5.000   4.461   1.014 -0.2201  0.5643  1.0449
 2899TIP3    H230257   5.013   4.610   0.991 -0.0461  0.3141 -0.6174
 2900TIP3   OH230258   4.165   6.038   8.539  0.0254 -0.3816 -0.2563
 2900TIP3    H130259   4.185   5.945   8.548  2.6594  0.0640 -0.8386
 2900TIP3    H230260   4.243   6.076   8.498 -0.8728  2.1361  0.1957
 2901TIP3   OH230261   0.959   1.587   7.009  1.0835  0.2016  0.3414
 2901TIP3    H130262   1.049   1.619   7.017  1.2191  0.5950 -2.1104
 2901TIP3    H230263   0.968   1.492   7.001  1.4721  0.3759 -1.6711
 2902TIP3   OH230264   1.443   0.329   7.761  0.3877  0.4943 -0.5222
 2902TIP3    H130265   1.479   0.404   7.809  0.5583  0.2385 -0.2462
 2902TIP3    H230266   1.497   0.255   7.788  1.4197  0.5742 -2.1726
 2903TIP3   OH230267   2.369   3.468   0.637  0.7298  0.2742  0.4564
 2903TIP3    H130268   2.425   3.428   0.570  1.9156  2.6427 -0.0841
 2903TIP3    H230269   2.343   3.395   0.693  0.5144 -1.6400 -1.9754
 2904TIP3   OH230270   5.987   5.956   1.221 -0.3118  0.2116  0.3152
 2904TIP3    H130271   5.989   6.015   1.297 -0.7973 -0.1968  0.6520
 2904TIP3    H230272   6.079   5.938   1.202 -0.1918 -0.0073  1.0681
 2905TIP3   OH230273   2.388   2.929   7.253  0.3096  0.2122  0.3485
 2905TIP3    H130274   2.348   3.016   7.248 -0.4531 -0.0059  1.8954
 2905TIP3    H230275   2.333   2.873   7.199 -0.7997  0.1785  1.4537
 2906TIP3   OH230276   0.195   5.745   6.771 -0.1867 -0.1657  0.3627
 2906TIP3    H130277   0.130   5.813   6.751  0.6033  0.1758 -1.1411
 2906TIP3    H230278   0.264   5.758   6.706  0.6035 -1.5912  0.8852
 2907TIP3   OH230279   3.945   6.281   8.092  0.1784 -0.3859 -0.3871
 2907TIP3    H130280   4.018   6.220   8.081  0.0962 -0.4032 -0.8777
 2907TIP3    H230281   3.981   6.365   8.062  0.4457 -0.0797  0.7465
 2908TIP3   OH230282   3.942   5.766   2.043  0.5570 -0.0046  0.0592
 2908TIP3    H130283   3.933   5.671   2.042  0.5472 -0.0026 -0.4054
 2908TIP3    H230284   4.013   5.784   1.980  0.0361  0.3413 -0.4453
 2909TIP3   OH230285   2.337   4.490   8.429 -0.4599  0.1609 -0.1864
 2909TIP3    H130286   2.300   4.565   8.476  0.2959 -0.4035  1.3856
 2909TIP3    H230287   2.393   4.530   8.361 -0.2823  1.0230  0.4480
 2910TIP3   OH230288   3.756   6.138   0.697  0.0056  0.6624 -0.1269
 2910TIP3    H130289   3.743   6.075   0.768 -0.4623  0.6797 -0.1964
 2910TIP3    H230290   3.700   6.107   0.626 -0.4460  1.3083 -0.0608
 2911TIP3   OH230291   2.315   2.265   7.028  0.6520 -0.8623  0.0663
 2911TIP3    H130292   2.302   2.280   7.122 -0.2380  0.6391 -0.2540
 2911TIP3    H230293   2.227   2.255   6.993  0.7521  1.2370 -0.9546
 2912TIP3   OH230294   0.400   1.510   7.076 -0.5785 -0.5626  0.1746
 2912TIP3    H130295   0.395   1.594   7.121  0.7806 -1.3860  1.9824
 2912TIP3    H230296   0.478   1.517   7.021 -0.0372 -0.8715  0.8878
 2913TIP3   OH230297   2.414   3.649   1.555 -0.4784  0.8516 -0.2613
 2913TIP3    H130298   2.460   3.589   1.496 -0.7497  0.3623  0.0218
 2913TIP3    H230299   2.480   3.715   1.576 -0.0406  0.4175 -0.2352
 2914TIP3   OH230300   0.446   5.349   8.234  0.4454 -0.1883 -0.5093
 2914TIP3    H130301   0.402   5.267   8.257 -0.8760 -0.2902 -3.0553
 2914TIP3    H230302   0.390   5.417   8.270  0.2673 -0.3646 -0.4496
 2915TIP3   OH230303   3.630   5.279   7.250  0.2730 -0.0801 -0.0245
 2915TIP3    H130304   3.556   5.299   7.192  1.8210  2.2302 -1.3478
 2915TIP3    H230305   3.616   5.334   7.327  1.3490  1.6175 -0.9763
 2916TIP3   OH230306   5.173   0.994   7.237 -0.0550 -0.0181  0.1838
 2916TIP3    H130307   5.158   0.953   7.152 -0.5437  0.2725  0.1247
 2916TIP3    H230308   5.109   0.954   7.296  0.7931 -0.7865  0.6160
 2917TIP3   OH230309   2.730   2.308   8.633 -0.0356  0.0378 -0.2751
 2917TIP3    H130310   2.792   2.378   8.614 -1.4504  1.8774  1.4672
 2917TIP3    H230311   2.784   2.229   8.639  1.6557  0.9888 -1.9385
 2918TIP3   OH230312   3.967   5.755   1.523  0.2965 -0.0641  0.5745
 2918TIP3    H130313   4.033   5.697   1.562 -0.4748 -2.3406 -1.2632
 2918TIP3    H230314   3.998   5.843   1.542  2.0285 -1.0446  2.7459
 2919TIP3   OH230315   5.328   0.536   8.220 -0.6274  0.1038 -0.2168
 2919TIP3    H130316   5.284   0.580   8.293 -1.4963  0.7519 -1.1172
 2919TIP3    H230317   5.420   0.562   8.228 -0.4843 -0.7468  1.2990
 2920TIP3   OH230318   3.226   3.967   8.354 -0.5029 -0.1396  0.7091
 2920TIP3    H130319   3.242   4.061   8.361 -1.0951  0.2710 -2.2463
 2920TIP3    H230320   3.278   3.940   8.278 -1.4783 -1.9160  0.6325
 2921TIP3   OH230321   2.250   3.274   6.793  0.7360 -0.3939  0.0414
 2921TIP3    H130322   2.157   3.255   6.799  0.5633  0.2447 -0.4372
 2921TIP3    H230323   2.259   3.324   6.711  0.8427  3.0662  1.9602
 2922TIP3   OH230324   0.534   0.194   7.033  0.6687 -0.7009  0.1706
 2922TIP3    H130325   0.442   0.166   7.034  0.9914 -1.8467  1.3338
 2922TIP3    H230326   0.530   0.287   7.054 -0.1790 -1.0562  1.7972
 2923TIP3   OH230327   0.624   6.537   0.568  0.1465  0.1024 -0.0848
 2923TIP3    H130328   0.585   6.462   0.613  0.6259  0.6958  1.3578
 2923TIP3    H230329   0.702   6.558   0.619  1.1267  0.3553 -1.6199
 2924TIP3   OH230330   6.519   1.816   0.068  0.2271 -0.0341  0.2953
 2924TIP3    H130331   6.552   1.771   0.145 -0.1527  0.4916  0.7753
 2924TIP3    H230332   6.442   1.766   0.041 -1.4593  1.3964  2.0538
 2925TIP3   OH230333   5.986   0.392   6.052 -0.0924  0.1961  0.4330
 2925TIP3    H130334   6.049   0.421   6.118 -1.3359 -0.2137  1.8315
 2925TIP3    H230335   6.041   0.361   5.979  1.2868  1.7440  0.7639
 2926TIP3   OH230336   4.072   4.399   0.552 -0.3266  0.6672  0.7366
 2926TIP3    H130337   4.153   4.448   0.543  0.1268  0.0228  1.2431
 2926TIP3    H230338   4.037   4.426   0.637 -1.0673  1.5422  0.1806
 2927TIP3   OH230339   3.951   0.118   6.227  0.0134 -0.2401  0.0698
 2927TIP3    H130340   3.863   0.081   6.216  0.4517 -2.6695  3.3290
 2927TIP3    H230341   4.010   0.048   6.198  0.8736  0.1784  0.7792
 2928TIP3   OH230342   0.416   3.768   7.343  0.1597  0.5322  0.1555
 2928TIP3    H130343   0.350   3.722   7.292  1.8597 -1.3362 -0.5384
 2928TIP3    H230344   0.372   3.791   7.425 -1.5631  0.1995 -0.6327
 2929TIP3   OH230345   1.695   2.463   2.239 -0.0822 -0.8180  0.5729
 2929TIP3    H130346   1.685   2.383   2.290  0.8829  0.0795  2.2623
 2929TIP3    H230347   1.612   2.510   2.251 -0.4569 -1.3136 -0.0109
 2930TIP3   OH230348   2.701   6.115   1.083 -0.2989  0.0533 -0.2126
 2930TIP3    H130349   2.756   6.146   1.011 -1.5867  0.2592 -1.1534
 2930TIP3    H230350   2.744   6.036   1.115  0.9746  0.6664 -0.3549
 2931TIP3   OH230351   6.115   1.057   7.679  0.2743 -0.2559  0.2457
 2931TIP3    H130352   6.098   1.139   7.724  1.3329 -0.1572  0.4834
 2931TIP3    H230353   6.120   1.081   7.586  0.2312 -0.1029  0.2831
 2932TIP3   OH230354   4.844   5.667   0.153  0.3674 -0.2820  0.2068
 2932TIP3    H130355   4.927   5.703   0.184 -1.3563  1.0894  3.7609
 2932TIP3    H230356   4.847   5.575   0.178  0.6088 -0.0952  0.8969
 2933TIP3   OH230357   4.782   3.672   7.261  0.3054  0.3334  0.1820
 2933TIP3    H130358   4.877   3.663   7.268  0.2249  0.4272  1.6794
 2933TIP3    H230359   4.768   3.764   7.235  0.6409  0.0101 -1.2229
 2934TIP3   OH230360   1.781   1.979   0.135 -0.1410 -0.1613  0.4948
 2934TIP3    H130361   1.875   1.960   0.138  0.2281  1.4056 -0.1355
 2934TIP3    H230362   1.754   1.955   0.047 -0.3690 -0.7262  0.7144
 2935TIP3   OH230363   0.993   0.450   1.235 -0.1749 -0.3910 -0.6347
 2935TIP3    H130364   1.071   0.476   1.284  0.7610 -0.9472 -1.7776
 2935TIP3    H230365   0.929   0.427   1.302  0.3518  0.8711  0.3358
 2936TIP3   OH230366   1.753   2.404   8.189  0.0822  0.0643 -0.2158
 2936TIP3    H130367   1.734   2.311   8.187 -1.7786  0.2814  2.1442
 2936TIP3    H230368   1.674   2.444   8.226  1.5013  2.3638  0.5736
 2937TIP3   OH230369   2.043   1.558   7.039  0.0924 -0.1461  0.5048
 2937TIP3    H130370   2.102   1.538   6.966 -0.5787  1.2537 -0.4839
 2937TIP3    H230371   2.102   1.573   7.113  1.1509  2.2815 -0.6987
 2938TIP3   OH230372   0.422   5.997   6.889  0.5830  0.1921 -0.1287
 2938TIP3    H130373   0.331   6.023   6.903  0.2485 -2.1027  2.7440
 2938TIP3    H230374   0.473   6.072   6.920 -0.1635  1.9557 -2.7525
 2939TIP3   OH230375   0.405   2.382   0.704  0.2174  0.0202 -0.4657
 2939TIP3    H130376   0.450   2.423   0.631  2.4486  0.3570  1.0199
 2939TIP3    H230377   0.416   2.288   0.690 -0.6040  0.0332 -1.2753
 2940TIP3   OH230378   1.366   5.703   0.845  0.2924  0.1062  0.2764
 2940TIP3    H130379   1.455   5.679   0.871  0.0465 -0.8660  0.2608
 2940TIP3    H230380   1.329   5.622   0.811 -1.1834  0.0605  1.8864
 2941TIP3   OH230381   5.974   0.464   8.532  0.0023  0.7039 -0.5669
 2941TIP3    H130382   5.944   0.390   8.480  0.2372  0.9345 -1.0406
 2941TIP3    H230383   6.067   0.471   8.512  0.7971 -0.9595  2.0337
 2942TIP3   OH230384   3.791   4.306   7.901 -0.6074 -0.3468 -0.3901
 2942TIP3    H130385   3.785   4.374   7.834  1.1956 -1.6015 -1.9453
 2942TIP3    H230386   3.883   4.279   7.900 -1.4345 -3.6061 -0.7232
 2943TIP3   OH230387   3.264   6.105   0.493  0.2439 -0.4825 -0.2865
 2943TIP3    H130388   3.285   6.180   0.438  1.3635 -0.4724  0.1200
 2943TIP3    H230389   3.323   6.114   0.569 -0.5033 -1.0750  0.3849
 2944TIP3   OH230390   2.503   2.357   8.470  0.0639  0.0908  0.0889
 2944TIP3    H130391   2.573   2.328   8.528 -0.2401  0.1703  0.5074
 2944TIP3    H230392   2.423   2.337   8.518 -0.1926  0.2105 -0.2845
 2945TIP3   OH230393   0.786   2.068   0.180 -0.0322  0.6714  0.9724
 2945TIP3    H130394   0.768   2.019   0.100 -1.2503  1.8887  0.4649
 2945TIP3    H230395   0.700   2.090   0.215  0.4455  2.7672  0.9521
 2946TIP3   OH230396   5.589   5.539   1.080 -0.5868 -0.0469 -0.1171
 2946TIP3    H130397   5.516   5.577   1.030 -0.7484  0.0819  0.2165
 2946TIP3    H230398   5.635   5.484   1.016 -0.5906  0.3842 -0.4985
 2947TIP3   OH230399   0.153   6.694   0.402 -0.3305 -0.0872  0.1609
 2947TIP3    H130400   0.176   6.785   0.385 -0.4479 -0.2393 -0.9019
 2947TIP3    H230401   0.229   6.643   0.374 -1.4710 -0.5217 -2.4980
 2948TIP3   OH230402   3.527   1.236   2.343  0.4830  0.0607 -0.2916
 2948TIP3    H130403   3.474   1.262   2.268 -0.1714  0.5389  0.3193
 2948TIP3    H230404   3.533   1.315   2.396  1.2754 -0.1659 -0.0310
 2949TIP3   OH230405   4.980   5.809   6.824  0.0781 -0.4096  0.5614
 2949TIP3    H130406   4.891   5.782   6.802  0.6246 -1.6451 -0.2425
 2949TIP3    H230407   5.009   5.861   6.750  0.2679 -0.5987  0.5028
 2950TIP3   OH230408   2.243   0.399   1.697 -0.2572 -0.0268 -0.0606
 2950TIP3    H130409   2.208   0.316   1.665  1.5329 -1.1695  0.7755
 2950TIP3    H230410   2.337   0.393   1.685 -0.1241  2.2938 -0.7999
 2951TIP3   OH230411   0.802   5.965   0.455 -0.4206 -0.4141  0.0029
 2951TIP3    H130412   0.740   6.020   0.502 -0.6547 -0.3002 -0.4327
 2951TIP3    H230413   0.884   5.973   0.504 -0.3018  0.7633 -0.3678
 2952TIP3   OH230414   1.944   6.079   0.838  0.2965 -0.1196  0.1242
 2952TIP3    H130415   1.982   6.122   0.914  1.5994 -1.4651  0.2928
 2952TIP3    H230416   2.005   6.099   0.766 -1.0015  1.2662 -0.6391
 2953TIP3   OH230417   1.319   3.343   0.468  0.6571  0.3136 -0.1148
 2953TIP3    H130418   1.335   3.329   0.375  1.4015  1.2048 -0.1383
 2953TIP3    H230419   1.253   3.278   0.491  1.5812 -0.9575 -0.9121
 2954TIP3   OH230420   6.023   5.794   8.469  0.4916  0.7346  0.2152
 2954TIP3    H130421   5.999   5.724   8.408 -2.8631  2.8695 -1.1839
 2954TIP3    H230422   6.018   5.754   8.555 -2.5195 -0.5694 -0.4525
 2955TIP3   OH230423   1.896   4.487   2.209 -0.9928  0.5231  0.1198
 2955TIP3    H130424   1.839   4.413   2.229 -0.7403  0.1479 -0.5175
 2955TIP3    H230425   1.844   4.565   2.232 -0.9746  0.1434  1.5329
 2956TIP3   OH230426   3.102   2.125   7.346 -0.4835 -0.2535  0.1485
 2956TIP3    H130427   3.150   2.093   7.270  0.3379 -2.0365  1.3593
 2956TIP3    H230428   3.013   2.141   7.313 -0.0734 -0.7266 -1.2406
 2957TIP3   OH230429   3.097   0.416   7.826  0.2863 -0.6331 -0.3544
 2957TIP3    H130430   3.148   0.400   7.747  2.1348  2.1639  0.1051
 2957TIP3    H230431   3.157   0.397   7.898  1.0744  3.0280  0.2009
 2958TIP3   OH230432   2.450   6.580   7.176  0.3343 -0.2344 -0.7466
 2958TIP3    H130433   2.379   6.531   7.217  0.1845  1.0848  0.6534
 2958TIP3    H230434   2.529   6.531   7.198  0.0324 -0.7201 -0.7413
 2959TIP3   OH230435   6.682   1.093   6.816  0.1897  0.0472 -0.3927
 2959TIP3    H130436   6.765   1.141   6.814 -0.6246  1.4504 -1.6053
 2959TIP3    H230437   6.666   1.068   6.726 -1.3184  0.9113 -0.4025
 2960TIP3   OH230438   2.693   4.391   1.852  0.0812 -0.1597 -0.4594
 2960TIP3    H130439   2.698   4.469   1.907  0.3186 -0.1096 -0.5528
 2960TIP3    H230440   2.782   4.377   1.822  0.3472 -1.3795  0.8205
 2961TIP3   OH230441   1.091   4.005   0.290  0.1136 -0.0062  0.5130
 2961TIP3    H130442   1.178   4.018   0.253  0.2704 -0.8642  0.5585
 2961TIP3    H230443   1.085   3.911   0.305 -1.0705 -0.0497 -0.1092
 2962TIP3   OH230444   6.162   6.796   1.793 -0.6283 -0.3759 -0.3592
 2962TIP3    H130445   6.076   6.758   1.811 -0.8674  0.2438 -0.1662
 2962TIP3    H230446   6.155   6.829   1.703 -0.3939 -0.8650 -0.5567
 2963TIP3   OH230447   5.083   3.463   7.755  0.3067 -0.3406 -0.2183
 2963TIP3    H130448   5.003   3.413   7.775  0.2136  0.2111  0.8973
 2963TIP3    H230449   5.154   3.402   7.774  0.1639 -0.9001 -1.4063
 2964TIP3   OH230450   0.933   2.456   0.503 -0.0334 -0.4812 -0.3705
 2964TIP3    H130451   1.004   2.488   0.559 -0.3104 -0.0371 -0.2655
 2964TIP3    H230452   0.877   2.405   0.562  0.6853 -1.6165 -0.6455
 2965TIP3   OH230453   3.192   3.444   1.033 -0.1402  0.1003  0.7330
 2965TIP3    H130454   3.129   3.420   0.965 -1.1737  0.2209  1.6127
 2965TIP3    H230455   3.166   3.392   1.109 -0.2539  1.4019  1.6197
 2966TIP3   OH230456   4.302   2.605   0.343 -0.2947  0.0658 -0.1727
 2966TIP3    H130457   4.339   2.606   0.431  0.3086 -1.3344 -0.3835
 2966TIP3    H230458   4.207   2.610   0.357 -0.2504 -1.0099  0.6086
 2967TIP3   OH230459   2.322   3.646   8.326 -0.0493  0.0157  0.6539
 2967TIP3    H130460   2.369   3.576   8.281 -2.1261  0.1898 -2.0757
 2967TIP3    H230461   2.274   3.602   8.397  0.4953 -0.9154  0.4528
 2968TIP3   OH230462   5.827   1.925   1.745 -0.1160  0.3725 -0.2358
 2968TIP3    H130463   5.886   1.889   1.678  0.1115 -0.0584  0.1939
 2968TIP3    H230464   5.844   2.019   1.744  1.3932  0.1358  0.6493
 2969TIP3   OH230465   4.647   4.625   7.190 -0.3609  0.0982 -0.1629
 2969TIP3    H130466   4.655   4.602   7.097  1.3491 -0.3455  0.0652
 2969TIP3    H230467   4.607   4.711   7.190 -1.3579 -0.3345 -1.2668
 2970TIP3   OH230468   3.687   6.740   0.633  0.0118 -0.0477 -0.7219
 2970TIP3    H130469   3.608   6.721   0.582  1.4550 -2.2155 -2.3262
 2970TIP3    H230470   3.745   6.784   0.572  0.5525  0.3244  0.0475
 2971TIP3   OH230471   4.585   5.515   1.390 -0.3183  0.1221 -0.1775
 2971TIP3    H130472   4.501   5.559   1.382 -0.1566  0.4247 -0.2265
 2971TIP3    H230473   4.601   5.513   1.485 -0.9479 -1.0242 -0.0788
 2972TIP3   OH230474   2.265   5.396   0.109 -0.2843 -0.7290  0.7771
 2972TIP3    H130475   2.170   5.382   0.102 -0.3313 -1.2938  2.2141
 2972TIP3    H230476   2.280   5.482   0.070 -1.0089 -1.6877 -1.8067
 2973TIP3   OH230477   2.192   6.551   2.231 -0.4488  0.5239 -0.5749
 2973TIP3    H130478   2.166   6.613   2.163  0.3018  0.7641 -0.6559
 2973TIP3    H230479   2.204   6.468   2.185  0.6205  0.8152 -0.8616
 2974TIP3   OH230480   5.169   1.128   6.965  0.2339  0.0902 -0.3190
 2974TIP3    H130481   5.197   1.042   6.935  0.9526  0.3061 -0.2795
 2974TIP3    H230482   5.129   1.112   7.051  0.9830 -0.1112 -0.0042
 2975TIP3   OH230483   3.937   1.756   8.186  0.0519  0.0633  0.6807
 2975TIP3    H130484   4.001   1.733   8.119 -0.9856 -1.1797  0.0801
 2975TIP3    H230485   3.988   1.765   8.266  0.9263 -1.5214  0.3457
 2976TIP3   OH230486   0.305   5.752   2.546 -0.2859 -0.2971 -0.2995
 2976TIP3    H130487   0.278   5.789   2.630  0.1619  0.0007 -0.2809
 2976TIP3    H230488   0.245   5.680   2.530 -1.6136  0.8467 -0.6590
 2977TIP3   OH230489   4.448   0.845   1.161 -0.1080 -0.0352 -0.7704
 2977TIP3    H130490   4.432   0.818   1.071  0.5943 -1.2425 -0.5613
 2977TIP3    H230491   4.543   0.834   1.172 -0.0282  1.1286 -0.2066
 2978TIP3   OH230492   0.807   6.357   1.024  0.7189  0.3243  0.0622
 2978TIP3    H130493   0.804   6.445   0.987 -0.0856  1.3989  2.4705
 2978TIP3    H230494   0.887   6.355   1.077  1.1933 -0.7280 -0.6537
 2979TIP3   OH230495   1.820   0.342   7.844 -0.4634  0.2957 -0.2069
 2979TIP3    H130496   1.800   0.295   7.764 -0.1263  0.7474 -0.5637
 2979TIP3    H230497   1.735   0.366   7.880 -0.6371 -0.6047 -0.0026
 2980TIP3   OH230498   1.583   6.588   6.630  0.0274  0.3843 -0.6673
 2980TIP3    H130499   1.582   6.637   6.548  0.0371 -0.3774 -1.1200
 2980TIP3    H230500   1.674   6.559   6.640 -0.0589  0.1422 -0.5848
 2981TIP3   OH230501   3.094   6.190   0.046 -0.3309  0.1221 -0.5463
 2981TIP3    H130502   3.149   6.118   0.014 -1.4151 -1.4712  1.0315
 2981TIP3    H230503   3.080   6.245  -0.032  1.1716 -0.9068 -1.6133
 2982TIP3   OH230504   4.194   1.089   1.153  0.1286 -0.2188 -0.4842
 2982TIP3    H130505   4.130   1.128   1.213 -0.1840  0.0154 -0.9683
 2982TIP3    H230506   4.266   1.151   1.151  0.6356 -0.7516  0.5066
 2983TIP3   OH230507   1.691   4.664   0.068 -0.4895  0.2346 -0.1684
 2983TIP3    H130508   1.727   4.687  -0.017  0.6995  2.8717  0.9360
 2983TIP3    H230509   1.659   4.747   0.104  0.9228 -0.3756  2.7908
 2984TIP3   OH230510   4.595   4.603   1.716  0.0616  0.3169  0.0948
 2984TIP3    H130511   4.630   4.629   1.631  0.2021 -0.2915 -0.0348
 2984TIP3    H230512   4.670   4.564   1.761  0.6142  2.6416  1.3792
 2985TIP3   OH230513   1.688   4.453   1.468  0.0777  0.0522  0.0010
 2985TIP3    H130514   1.660   4.372   1.423 -0.7722  0.3228  0.0165
 2985TIP3    H230515   1.606   4.499   1.485  0.6494  1.6815 -1.4209
 2986TIP3   OH230516   3.937   3.666   0.646 -0.1463  0.9271 -0.1349
 2986TIP3    H130517   3.990   3.681   0.724  2.9272 -0.5629 -1.7417
 2986TIP3    H230518   3.887   3.586   0.666  1.7092 -0.2830 -0.1397
 2987TIP3   OH230519   6.419   4.938   7.732 -0.0870 -0.1354 -0.2695
 2987TIP3    H130520   6.334   4.918   7.695  0.1577  2.1243 -2.3696
 2987TIP3    H230521   6.457   4.853   7.753 -2.4030 -1.2528 -0.2880
 2988TIP3   OH230522   0.742   3.315   6.805  0.1680  0.3956 -0.2072
 2988TIP3    H130523   0.707   3.310   6.716 -1.5610  2.1037  0.3262
 2988TIP3    H230524   0.706   3.395   6.842  1.3246  0.0563  1.8620
 2989TIP3   OH230525   6.693   5.205   7.208  0.3705 -0.3015 -0.0047
 2989TIP3    H130526   6.663   5.115   7.219  0.5193 -0.3601 -0.0843
 2989TIP3    H230527   6.775   5.210   7.256 -0.4282  0.2245  1.3598
 2990TIP3   OH230528   5.774   0.006   0.642  0.2145  0.0719  0.1700
 2990TIP3    H130529   5.797  -0.075   0.688 -0.5211 -1.1116 -1.4785
 2990TIP3    H230530   5.689   0.031   0.678  0.2095 -0.1622  0.3186
 2991TIP3   OH230531   2.225   1.106   8.197  0.5866  0.0439  0.0774
 2991TIP3    H130532   2.254   1.111   8.106 -0.5621 -1.1016 -0.3845
 2991TIP3    H230533   2.281   1.040   8.237  3.3807  2.8672  1.1899
 2992TIP3   OH230534   3.079   4.743   0.792  0.5036  0.1701 -0.2205
 2992TIP3    H130535   3.142   4.683   0.752  0.7429 -0.1382  0.6109
 2992TIP3    H230536   3.125   4.826   0.798  0.4871  0.2036 -0.5171
 2993TIP3   OH230537   2.908   4.888   1.602 -0.2447  0.3132 -0.3422
 2993TIP3    H130538   2.821   4.861   1.631  0.3597  0.1847  1.4589
 2993TIP3    H230539   2.895   4.973   1.560 -1.3527 -0.1230 -0.9136
 2994TIP3   OH230540   5.521   5.574   7.754 -0.1057  0.0465  0.1308
 2994TIP3    H130541   5.447   5.602   7.700  0.7337 -0.1069 -1.1634
 2994TIP3    H230542   5.532   5.481   7.733  0.9305  0.2546 -0.3162
 2995TIP3   OH230543   1.045   1.395   1.683 -0.4432 -0.7121  0.0568
 2995TIP3    H130544   1.056   1.399   1.588  0.9258  1.2946  0.2379
 2995TIP3    H230545   1.088   1.475   1.716  2.2576 -2.9576  2.6141
 2996TIP3   OH230546   1.252   6.170   7.069 -0.6531 -0.0929 -0.0181
 2996TIP3    H130547   1.298   6.211   7.141 -0.1166 -2.0828  0.8282
 2996TIP3    H230548   1.319   6.118   7.024 -1.7506 -2.0710  0.5151
 2997TIP3   OH230549   5.088   5.916   0.820 -0.2302 -0.0342  1.3413
 2997TIP3    H130550   5.163   5.894   0.764 -1.7966  1.6244 -1.6998
 2997TIP3    H230551   5.019   5.856   0.792 -1.1804  1.1256  1.0871
 2998TIP3   OH230552   5.964   4.628   7.608  0.1401  0.4582  0.3278
 2998TIP3    H130553   6.045   4.635   7.558 -0.0524  2.3511  0.2071
 2998TIP3    H230554   5.949   4.716   7.643 -0.5075 -0.4583  2.5250
 2999TIP3   OH230555   6.754   6.289   7.607 -0.4856 -0.8377 -0.1045
 2999TIP3    H130556   6.785   6.241   7.683  0.9078  1.1668  0.6996
 2999TIP3    H230557   6.824   6.279   7.542 -0.7248 -0.8438 -0.3656
 3000TIP3   OH230558   5.014   3.219   7.417 -0.4725  0.1126  0.3147
 3000TIP3    H130559   5.011   3.209   7.322 -0.2856 -2.6203  0.5087
 3000TIP3    H230560   5.102   3.252   7.435 -1.1447  2.5687 -0.5099
 3001TIP3   OH230561   6.595   0.425   8.585 -0.6662  0.2167 -0.5092
 3001TIP3    H130562   6.607   0.363   8.657  1.2259  1.7438  0.5946
 3001TIP3    H230563   6.670   0.410   8.528 -1.8721 -0.6132 -1.9458
 3002TIP3   OH230564   4.067   3.199   0.250  0.2484  0.5636 -0.4170
 3002TIP3    H130565   4.143   3.140   0.256 -0.1912  0.1610  2.1853
 3002TIP3    H230566   3.993   3.141   0.231  0.2775  0.7092 -0.9966
 3003TIP3   OH230567   3.299   6.586   0.766 -0.1901  0.0961 -0.0872
 3003TIP3    H130568   3.274   6.678   0.775 -0.2944  0.0292  0.3054
 3003TIP3    H230569   3.252   6.541   0.836 -0.9077 -0.4143 -0.8865
 3004TIP3   OH230570   3.945   4.869   0.766 -0.1697 -0.0007  0.1139
 3004TIP3    H130571   3.895   4.868   0.848 -0.2845  0.7451  0.0576
 3004TIP3    H230572   3.882   4.895   0.699 -0.0923 -0.6879 -0.2264
 3005TIP3   OH230573   4.417   4.352   8.546 -0.4635 -0.4935  0.0687
 3005TIP3    H130574   4.460   4.433   8.572 -1.3439 -0.5131  1.6944
 3005TIP3    H230575   4.489   4.292   8.528  0.1923  0.3628 -0.2514
 3006TIP3   OH230576   1.470   0.001   2.040  0.4391 -0.6586  0.0942
 3006TIP3    H130577   1.523   0.081   2.045  1.2616 -1.2132  0.6635
 3006TIP3    H230578   1.386   0.029   2.006  0.8606  0.3811 -0.1167
 3007TIP3   OH230579   4.316   2.565   0.074 -0.1350  0.1820  0.6702
 3007TIP3    H130580   4.253   2.619   0.026 -0.1422  0.4574  0.9866
 3007TIP3    H230581   4.308   2.593   0.165  1.0447  0.8287  0.6012
 3008TIP3   OH230582   4.475   6.092   0.363  0.2936 -0.2819 -0.9735
 3008TIP3    H130583   4.465   6.034   0.438 -0.3087 -4.0545 -3.6218
 3008TIP3    H230584   4.568   6.086   0.340  0.0765 -1.0323 -1.7457
 3009TIP3   OH230585   3.983   6.384   0.810  0.4359  0.1371 -0.6203
 3009TIP3    H130586   4.001   6.290   0.819 -1.7496 -0.4431 -1.6294
 3009TIP3    H230587   4.068   6.426   0.823  1.0874 -1.7659  2.4103
 3010TIP3   OH230588   2.155   6.149   0.658 -0.0066  0.1829 -0.3545
 3010TIP3    H130589   2.182   6.057   0.663 -1.6824 -0.3442 -0.5578
 3010TIP3    H230590   2.213   6.193   0.721 -1.0390 -1.4982  1.9527
 3011TIP3   OH230591   6.750   2.708   0.051  0.3212  0.2115  0.2560
 3011TIP3    H130592   6.688   2.640   0.078 -0.1197  0.3316 -0.4440
 3011TIP3    H230593   6.695   2.781   0.025  0.7914  0.9582  1.2600
 3012TIP3   OH230594   5.746   0.610   0.049  0.3132  0.3654 -0.1239
 3012TIP3    H130595   5.760   0.659  -0.032  2.2192  1.9185  1.0477
 3012TIP3    H230596   5.795   0.528   0.036  1.9388  1.2802 -0.0067
 3013TIP3   OH230597   3.211   1.921   0.131 -0.2043  0.0555  0.0913
 3013TIP3    H130598   3.171   1.919   0.044 -1.5086  0.6995  0.6371
 3013TIP3    H230599   3.258   1.838   0.139  0.4647  0.2610 -1.4518
 3014TIP3   OH230600   5.331   0.990   6.748  0.5959  0.4292  0.0089
 3014TIP3    H130601   5.394   0.922   6.774  0.1998  0.0791  0.0551
 3014TIP3    H230602   5.362   1.069   6.792  1.4127  0.4242 -0.5323
 3015TIP3   OH230603   2.781   3.437   0.221 -0.8062  0.0207 -0.8012
 3015TIP3    H130604   2.722   3.363   0.215  0.2290 -0.9056 -0.0414
 3015TIP3    H230605   2.745   3.490   0.293 -1.1726 -0.0916 -0.8995
 3016TIP3   OH230606   1.399   2.665   7.089  0.3730 -0.3351  0.0723
 3016TIP3    H130607   1.362   2.632   7.171  0.8266 -0.9800  0.0283
 3016TIP3    H230608   1.333   2.643   7.023 -0.6440  1.4310  0.4319
 3017TIP3   OH230609   1.679   1.367   7.511  0.1735 -0.2468  0.8258
 3017TIP3    H130610   1.631   1.374   7.429  0.0388 -0.1597  0.9116
 3017TIP3    H230611   1.643   1.290   7.554 -0.5781  0.3766  1.3371
 3018TIP3   OH230612   3.151   2.274   7.569 -1.2012 -0.0763  0.1828
 3018TIP3    H130613   3.239   2.300   7.541 -1.1768 -0.2693  0.0747
 3018TIP3    H230614   3.116   2.226   7.494 -1.3171 -0.1839  0.3052
 3019TIP3   OH230615   5.654   5.644   7.229  0.0698 -0.3216  0.4165
 3019TIP3    H130616   5.647   5.646   7.324 -0.5028 -1.8843  0.4408
 3019TIP3    H230617   5.582   5.699   7.198 -0.9466 -1.3643  0.8829
 3020TIP3   OH230618   6.824   6.386   0.247  0.2736 -0.4692 -0.2399
 3020TIP3    H130619   6.894   6.448   0.229 -0.6508  0.3543 -1.1436
 3020TIP3    H230620   6.867   6.301   0.253  1.6235  0.3025  1.4742
 3021TIP3   OH230621   0.754   5.027   6.407  0.1844  0.0604 -0.4531
 3021TIP3    H130622   0.816   4.967   6.366 -1.5099 -0.2681 -2.7067
 3021TIP3    H230623   0.786   5.114   6.384  0.3349 -0.0791 -0.7812
 3022TIP3   OH230624   6.709   0.494   0.621 -0.2610  0.3410  0.2763
 3022TIP3    H130625   6.764   0.515   0.545 -0.5597  1.2664  0.3059
 3022TIP3    H230626   6.644   0.433   0.586  0.1766  0.0112  0.0133
 3023TIP3   OH230627   0.745   0.459   0.125  0.3624  0.1868 -0.2790
 3023TIP3    H130628   0.734   0.549   0.157 -0.2769 -0.2742  0.8567
 3023TIP3    H230629   0.714   0.404   0.196  0.8495 -0.9551 -0.9168
 3024TIP3   OH230630   3.097   5.713   5.934 -0.1035  0.1690 -0.0820
 3024TIP3    H130631   3.109   5.683   5.844 -1.3237  0.4936 -0.3702
 3024TIP3    H230632   3.157   5.658   5.985  0.4462 -0.1688 -1.0503
 3025TIP3   OH230633   1.778   6.560   7.273  0.2965 -0.1146  0.1242
 3025TIP3    H130634   1.767   6.470   7.242  0.2561  0.1968 -0.8021
 3025TIP3    H230635   1.870   6.566   7.298  1.1143  0.4045 -2.6647
 3026TIP3   OH230636   0.282   1.757   8.648 -0.2546 -0.6615  0.0092
 3026TIP3    H130637   0.301   1.847   8.623 -1.1568 -0.3303  0.4699
 3026TIP3    H230638   0.235   1.720   8.573 -1.9291 -0.0246  0.7010
 3027TIP3   OH230639   0.254   5.608   7.662  0.0074 -0.4758  0.3316
 3027TIP3    H130640   0.298   5.627   7.579 -0.3024 -2.3443 -0.3158
 3027TIP3    H230641   0.317   5.555   7.711 -0.4179 -0.7439  0.5990
 3028TIP3   OH230642   0.140   0.050   7.413  0.1060  0.6903  0.0595
 3028TIP3    H130643   0.197   0.119   7.449  0.5872  0.7172 -0.7233
 3028TIP3    H230644   0.192  -0.030   7.418 -0.5921  0.2913  1.3162
 3029TIP3   OH230645   3.138   5.041   6.968  0.2214  0.0454 -0.1739
 3029TIP3    H130646   3.118   5.069   6.879 -2.8414  0.3707  0.4899
 3029TIP3    H230647   3.227   5.073   6.984  0.7254  0.2970 -2.9383
 3030TIP3   OH230648   0.913   0.779   0.707 -0.0000 -0.0945 -0.2625
 3030TIP3    H130649   0.909   0.854   0.766  2.2225 -1.2500  1.4950
 3030TIP3    H230650   0.824   0.744   0.707 -0.0559 -0.2393  2.7605
 3031TIP3   OH230651   3.592   3.930   8.540  0.5383  0.0782 -0.3464
 3031TIP3    H130652   3.665   3.962   8.593  2.8035 -1.6718 -2.2325
 3031TIP3    H230653   3.539   3.878   8.601  1.3101  0.6816  0.8668
 3032TIP3   OH230654   5.001   6.042   7.890  0.4218  0.3923  0.6148
 3032TIP3    H130655   4.945   6.118   7.903  2.7525  2.3695 -0.0903
 3032TIP3    H230656   5.043   6.029   7.975  1.4439  1.1601  0.2476
 3033TIP3   OH230657   2.900   1.624   7.847  0.0872 -0.1001 -0.3005
 3033TIP3    H130658   2.828   1.653   7.790 -1.2507 -0.6332  1.0271
 3033TIP3    H230659   2.920   1.535   7.818 -1.9171 -1.1243  1.1705
 3034TIP3   OH230660   2.958   0.142   8.059 -0.2356  0.2130  0.3404
 3034TIP3    H130661   3.025   0.169   8.121 -0.4454  0.6952  0.3629
 3034TIP3    H230662   2.907   0.075   8.106 -0.1102  0.2417  0.5182
 3035TIP3   OH230663   3.240   3.566   0.700 -0.0768 -0.0344 -0.2555
 3035TIP3    H130664   3.213   3.657   0.709 -0.0409  0.0832 -1.2555
 3035TIP3    H230665   3.184   3.518   0.762 -0.3967  0.6003 -0.0418
 3036TIP3   OH230666   5.515   6.090   0.060 -0.1187 -0.4706 -0.2020
 3036TIP3    H130667   5.528   6.029   0.132 -1.4615 -0.6036 -0.0574
 3036TIP3    H230668   5.498   6.174   0.102 -1.1813 -0.6029 -0.3439
 3037TIP3   OH230669   5.128   6.653   0.475  0.4915 -0.0648 -0.3010
 3037TIP3    H130670   5.207   6.608   0.445 -0.5425 -1.5224 -0.9905
 3037TIP3    H230671   5.136   6.742   0.441  1.4593 -0.4279 -1.0658
 3038TIP3   OH230672   0.671   6.362   1.913  0.4487  0.1883  0.5643
 3038TIP3    H130673   0.584   6.325   1.905 -0.1593  1.7633 -0.6436
 3038TIP3    H230674   0.690   6.359   2.007 -0.6159 -0.7493  0.7702
 3039TIP3   OH230675   0.230   1.579   0.618  0.7874  0.2444 -0.4142
 3039TIP3    H130676   0.182   1.587   0.700 -0.6438 -0.4814 -1.1354
 3039TIP3    H230677   0.300   1.644   0.624  0.6382  0.2825  1.3131
 3040TIP3   OH230678   0.328   2.501   0.077 -0.7879  0.0668  0.3500
 3040TIP3    H130679   0.240   2.519   0.045 -1.5907 -1.2409  1.6867
 3040TIP3    H230680   0.319   2.498   0.172  0.3470 -1.6972  0.4606
 3041TIP3   OH230681   0.782   5.487   1.931  0.7093 -0.3507 -0.6399
 3041TIP3    H130682   0.851   5.553   1.935  1.0711 -0.7716  0.5474
 3041TIP3    H230683   0.828   5.405   1.919  0.3009 -0.4820 -1.4063
 3042TIP3   OH230684   0.247   3.690   8.316 -0.3354  0.4085 -0.0527
 3042TIP3    H130685   0.222   3.765   8.263 -1.9166  0.3646  0.5763
 3042TIP3    H230686   0.166   3.642   8.330  0.5578 -1.1886 -0.0512
 3043TIP3   OH230687   6.332   0.823   0.051 -0.3576  0.1509 -0.8525
 3043TIP3    H130688   6.243   0.790   0.036  0.2316 -1.1397 -1.6352
 3043TIP3    H230689   6.387   0.773  -0.009  0.9760  0.6042 -0.0484
 3044TIP3   OH230690   4.966   6.174   1.034 -0.0648  0.2167 -0.2660
 3044TIP3    H130691   4.990   6.237   0.967 -0.7493  1.1695  0.3621
 3044TIP3    H230692   4.890   6.129   0.997  0.4917 -0.3361 -0.7607
 3045TIP3   OH230693   6.852   4.624   6.097 -0.7699 -0.1314  0.3776
 3045TIP3    H130694   6.900   4.682   6.156 -2.1688  0.7180  0.7245
 3045TIP3    H230695   6.874   4.536   6.127  0.7050  0.2245  0.3967
 3046TIP3   OH230696   6.176   5.489   1.034  0.2428  0.1562  0.0873
 3046TIP3    H130697   6.198   5.541   0.957 -1.4911  0.3293 -0.3312
 3046TIP3    H230698   6.212   5.403   1.017  1.4367  0.6749 -0.0963
 3047TIP3   OH230699   5.000   2.654   7.906 -0.6997  0.4186 -0.6541
 3047TIP3    H130700   4.971   2.635   7.816  0.9655  0.3857 -1.2202
 3047TIP3    H230701   5.006   2.568   7.948  0.3419  0.2452 -1.1239
 3048TIP3   OH230702   6.171   2.622   0.583  0.4329  0.2703 -0.0059
 3048TIP3    H130703   6.227   2.699   0.598  0.0229  0.4708  0.5301
 3048TIP3    H230704   6.232   2.548   0.581  0.7447  0.5111  0.3394
 3049TIP3   OH230705   6.144   5.358   8.574  0.0773  0.2541  0.1548
 3049TIP3    H130706   6.123   5.272   8.536  0.3371  1.1295 -2.1885
 3049TIP3    H230707   6.094   5.362   8.655 -1.6217 -1.2816 -0.7487
 3050TIP3   OH230708   2.100   1.847   8.262  1.2340 -0.5392  0.5570
 3050TIP3    H130709   2.174   1.813   8.311  1.1817 -0.8673  0.4099
 3050TIP3    H230710   2.107   1.806   8.176 -0.0052 -1.8210  1.0285
 3051TIP3   OH230711   1.049   3.543   7.706  0.1609 -0.2438 -0.7894
 3051TIP3    H130712   1.090   3.627   7.689  0.2557 -0.0145  0.4789
 3051TIP3    H230713   0.968   3.545   7.655  0.6624  0.1829 -1.5827
 3052TIP3   OH230714   5.555   6.403   0.966  0.2649  0.2117  0.0182
 3052TIP3    H130715   5.512   6.317   0.961 -0.3872  0.4522  1.0984
 3052TIP3    H230716   5.648   6.383   0.976  0.0236 -0.4131  1.2473
 3053TIP3   OH230717   1.014   6.844   7.279 -0.2345 -0.0853  0.5396
 3053TIP3    H130718   0.949   6.874   7.215 -0.1597  0.9617  0.9418
 3053TIP3    H230719   1.082   6.911   7.278  1.4549 -1.6936 -0.7008
 3054TIP3   OH230720   2.485   1.035   1.165  0.3842  0.0773  0.3865
 3054TIP3    H130721   2.567   1.008   1.207 -0.0933  1.1255  2.0795
 3054TIP3    H230722   2.427   1.057   1.237 -1.1502  0.1048 -0.8044
 3055TIP3   OH230723   4.704   5.914   0.178 -0.1282  0.0237 -0.1062
 3055TIP3    H130724   4.611   5.896   0.163 -0.1553  0.4214 -0.4219
 3055TIP3    H230725   4.745   5.828   0.177 -0.4530 -0.1314 -0.2654
 3056TIP3   OH230726   6.460   5.910   7.511 -0.0042  0.3923  0.3127
 3056TIP3    H130727   6.453   5.894   7.416  1.3587 -0.3173  0.3076
 3056TIP3    H230728   6.545   5.875   7.535 -0.1054  1.0453  1.7277
 3057TIP3   OH230729   0.348   3.108   1.852 -0.6590  0.3632 -0.6540
 3057TIP3    H130730   0.340   3.154   1.768 -0.9358  0.2239 -0.7052
 3057TIP3    H230731   0.442   3.108   1.870 -0.7887  2.5633  0.2536
 3058TIP3   OH230732   0.603   1.642   1.417  0.3832  0.4829  0.0006
 3058TIP3    H130733   0.635   1.629   1.506 -1.9324  0.0944  0.8511
 3058TIP3    H230734   0.550   1.564   1.399 -2.4146  2.2752 -0.1439
 3059TIP3   OH230735   1.282   3.203   6.836 -0.1493  0.3699 -0.1675
 3059TIP3    H130736   1.274   3.132   6.772 -0.3079 -0.3920  0.6756
 3059TIP3    H230737   1.209   3.189   6.896  0.2821  0.7819  0.4661
 3060TIP3   OH230738   5.996   0.777   7.461 -0.2331 -0.1486  0.0767
 3060TIP3    H130739   6.081   0.796   7.421 -0.0789 -0.3103  0.3242
 3060TIP3    H230740   5.948   0.859   7.454  0.5559  0.4737  1.4636
 3061TIP3   OH230741   1.068   3.940   0.896  0.1947 -0.0086 -0.1369
 3061TIP3    H130742   0.986   3.897   0.921 -0.3171  1.3555  0.6204
 3061TIP3    H230743   1.137   3.887   0.937 -0.4174 -0.1777  0.6981
 3062TIP3   OH230744   1.889   1.715   6.641 -0.1615  0.0008  0.2500
 3062TIP3    H130745   1.847   1.788   6.597  0.6001  1.1427  1.3375
 3062TIP3    H230746   1.983   1.729   6.627 -0.0158 -1.0952 -0.0042
 3063TIP3   OH230747   0.866   1.116   0.321  0.1295  0.0570  0.0007
 3063TIP3    H130748   0.862   1.029   0.360 -1.2899  0.8247  1.7551
 3063TIP3    H230749   0.782   1.127   0.277 -0.5575  1.2353  1.5203
 3064TIP3   OH230750   6.112   2.312   0.155  0.8789 -0.0186 -0.3618
 3064TIP3    H130751   6.038   2.370   0.173 -2.4447 -3.7144 -0.5297
 3064TIP3    H230752   6.114   2.252   0.229  0.5308 -2.8703 -2.4989
 3065TIP3   OH230753   4.666   3.695   7.568  0.2615  0.1083  0.1602
 3065TIP3    H130754   4.680   3.608   7.530  1.8283  0.0453  0.7868
 3065TIP3    H230755   4.588   3.729   7.524  2.4706  0.4902 -3.9813
 3066TIP3   OH230756   5.349   0.347   8.595  0.3689  0.0775  0.1840
 3066TIP3    H130757   5.284   0.305   8.539  0.9278 -1.1932  0.4459
 3066TIP3    H230758   5.328   0.317   8.683 -0.8974  2.5678  0.8098
 3067TIP3   OH230759   1.850   1.617   0.267 -0.2035  0.2008  0.2357
 3067TIP3    H130760   1.792   1.693   0.271  0.8513  1.0652 -0.2094
 3067TIP3    H230761   1.859   1.589   0.358 -0.6972  0.5322  0.3892
 3068TIP3   OH230762   1.125   4.157   1.505  0.3674  0.1089  0.3264
 3068TIP3    H130763   1.042   4.139   1.461  0.2518  0.5195  0.3689
 3068TIP3    H230764   1.167   4.071   1.515 -0.3683 -0.1908  0.9417
 3069TIP3   OH230765   5.705   2.636   6.989  0.1801 -0.8933  0.1525
 3069TIP3    H130766   5.640   2.565   6.992 -0.5190 -0.2995 -0.5690
 3069TIP3    H230767   5.707   2.670   7.078  1.2057 -2.4027  0.7483
 3070TIP3   OH230768   1.602   3.273   1.210  0.2519  0.1797  0.3413
 3070TIP3    H130769   1.592   3.191   1.258  1.8213 -1.0957 -1.3773
 3070TIP3    H230770   1.696   3.288   1.208  0.1202  0.9937 -1.0168
 3071TIP3   OH230771   1.477   5.837   8.657 -0.3046 -0.2065  0.1885
 3071TIP3    H130772   1.448   5.899   8.590 -0.1814 -0.4477 -0.0884
 3071TIP3    H230773   1.441   5.872   8.738  0.3446  0.6160  0.1431
 3072TIP3   OH230774   3.345   2.343   0.110  0.4297  0.2647 -0.2354
 3072TIP3    H130775   3.436   2.369   0.124  0.3309  0.3542  0.2543
 3072TIP3    H230776   3.311   2.408   0.049  0.4603  0.7207  0.2247
 3073TIP3   OH230777   1.661   1.412   6.237  0.2227 -0.2485 -0.2632
 3073TIP3    H130778   1.739   1.380   6.193  1.1633  0.9374  0.4824
 3073TIP3    H230779   1.668   1.507   6.234 -0.9005 -0.1234  0.3292
 3074TIP3   OH230780   1.647   3.595   8.583  0.0569  1.1362  0.4291
 3074TIP3    H130781   1.631   3.507   8.549 -0.4633  1.7538 -0.9883
 3074TIP3    H230782   1.669   3.581   8.676 -0.8270 -0.4084  0.4371
 3075TIP3   OH230783   6.313   1.332   6.190  0.2073  0.0160 -0.1440
 3075TIP3    H130784   6.342   1.242   6.183  2.2944  0.6768 -0.6943
 3075TIP3    H230785   6.393   1.384   6.186 -0.8560  1.8721  0.9614
 3076TIP3   OH230786   6.123   4.999   2.430  0.4405  0.2610 -0.2211
 3076TIP3    H130787   6.048   4.941   2.446  1.1144 -0.2695  1.1965
 3076TIP3    H230788   6.184   4.944   2.381  0.4688  0.2441 -0.1671
 3077TIP3   OH230789   5.023   4.873   7.203  0.4929 -0.0957 -0.0387
 3077TIP3    H130790   5.113   4.904   7.196 -0.2161  2.4371  0.7842
 3077TIP3    H230791   4.974   4.926   7.140 -0.5957 -0.5954  0.3535
 3078TIP3   OH230792   2.311   1.198   7.965 -0.9690  0.3923  0.1023
 3078TIP3    H130793   2.378   1.130   7.964 -0.3898  0.8826  1.8071
 3078TIP3    H230794   2.361   1.280   7.970 -1.6696  0.9320 -1.1176
 3079TIP3   OH230795   6.651   0.969   2.328 -0.5028  0.3038 -0.0653
 3079TIP3    H130796   6.587   1.039   2.329 -0.6810  0.1499 -0.7488
 3079TIP3    H230797   6.599   0.889   2.320 -0.1947  0.2343 -1.7046
 3080TIP3   OH230798   0.240   6.621   2.202  0.2190  0.4621  0.3369
 3080TIP3    H130799   0.314   6.620   2.262  0.6561 -2.0318 -0.1484
 3080TIP3    H230800   0.257   6.549   2.141 -3.1952 -1.0989  0.9910
 3081TIP3   OH230801   3.476   5.193   0.129 -0.9522  0.3988  0.2818
 3081TIP3    H130802   3.429   5.168   0.209  0.4572 -1.6061  0.5794
 3081TIP3    H230803   3.530   5.267   0.156  1.2957 -1.6874  1.9791
 3082TIP3   OH230804   5.428   4.767   0.049 -0.4259  0.0517 -0.5777
 3082TIP3    H130805   5.511   4.768   0.003 -1.0106 -0.2115 -1.6745
 3082TIP3    H230806   5.404   4.675   0.053 -1.0504  0.1907 -0.9959
 3083TIP3   OH230807   4.868   3.599   1.645 -0.5361  0.0033  0.3341
 3083TIP3    H130808   4.869   3.548   1.564 -0.0619 -0.3315  0.5484
 3083TIP3    H230809   4.940   3.563   1.697 -0.9959  0.0446  1.0073
 3084TIP3   OH230810   4.098   0.121   7.327  0.3537 -0.1440 -0.3966
 3084TIP3    H130811   4.093   0.213   7.354  0.0248  0.2414 -1.7066
 3084TIP3    H230812   4.176   0.117   7.271  0.6423 -0.7826  0.0322
 3085TIP3   OH230813   3.841   2.416   7.208  0.3824  0.0808  0.3422
 3085TIP3    H130814   3.810   2.506   7.207  0.6123  0.1666 -1.0537
 3085TIP3    H230815   3.935   2.422   7.225  0.7266  0.2528 -1.4336
 3086TIP3   OH230816   2.264   5.207   1.805  0.0016  0.4026  0.0959
 3086TIP3    H130817   2.326   5.204   1.731 -1.6651  1.6399 -1.4315
 3086TIP3    H230818   2.298   5.142   1.867  0.3111 -2.3207 -2.6830
 3087TIP3   OH230819   1.735   2.368   7.602  0.0555 -0.6157 -0.3739
 3087TIP3    H130820   1.698   2.340   7.686  0.8708 -0.1974  0.1357
 3087TIP3    H230821   1.767   2.288   7.562 -0.9222 -0.9154 -0.5958
 3088TIP3   OH230822   2.003   5.238   6.351 -0.0598 -0.6393  0.0771
 3088TIP3    H130823   2.067   5.170   6.329  0.1756  0.3339 -2.5685
 3088TIP3    H230824   1.922   5.211   6.308 -0.0203  0.5921 -0.8359
 3089TIP3   OH230825   5.301   6.068   0.674 -0.4086 -0.4384  0.1514
 3089TIP3    H130826   5.332   6.027   0.756 -0.8582 -0.5726  0.2548
 3089TIP3    H230827   5.306   6.162   0.692 -0.3922 -0.4652  0.2940
 3090TIP3   OH230828   4.999   6.566   7.681  0.3373  0.1939  0.2732
 3090TIP3    H130829   4.949   6.569   7.763  0.8708 -0.3323  0.6193
 3090TIP3    H230830   4.981   6.651   7.640 -2.2539 -0.6015 -0.4613
 3091TIP3   OH230831   2.079   5.752   6.894  0.0657  0.1039  0.5195
 3091TIP3    H130832   2.092   5.659   6.912  0.3731  0.2847  1.2661
 3091TIP3    H230833   1.991   5.757   6.857 -0.0063 -0.4617  0.6051
 3092TIP3   OH230834   4.218   6.308   6.924 -0.0431 -0.1851  0.0685
 3092TIP3    H130835   4.207   6.360   6.845  0.2709  0.9399  0.7393
 3092TIP3    H230836   4.162   6.351   6.989 -0.9467 -1.5815  0.2564
 3093TIP3   OH230837   6.199   6.476   8.447  0.1940  0.2580  0.2655
 3093TIP3    H130838   6.220   6.471   8.540 -0.7997 -1.5530  0.4365
 3093TIP3    H230839   6.155   6.393   8.428 -0.2625  0.8953 -1.6563
 3094TIP3   OH230840   2.763   1.248   0.216  0.2377 -0.5135 -0.2877
 3094TIP3    H130841   2.674   1.249   0.250  0.4286  0.3822  0.2454
 3094TIP3    H230842   2.760   1.303   0.138  0.3694 -0.2122 -0.0886
 3095TIP3   OH230843   1.011   5.363   7.238  0.3163  0.1051 -0.0609
 3095TIP3    H130844   1.027   5.454   7.215  3.3379 -0.0618  0.8788
 3095TIP3    H230845   1.007   5.317   7.154 -0.5067  0.9616 -0.5136
 3096TIP3   OH230846   3.043   5.324   7.101 -0.0421  0.5916  0.1908
 3096TIP3    H130847   3.015   5.307   7.011  0.0408 -0.1770  0.3082
 3096TIP3    H230848   3.138   5.338   7.094  0.0452  0.0371  0.2211
 3097TIP3   OH230849   0.700   1.907   6.620  0.4982  0.0601  0.2623
 3097TIP3    H130850   0.771   1.955   6.576  1.5970 -1.8658 -0.2146
 3097TIP3    H230851   0.634   1.895   6.552  1.0651 -0.7016 -0.1745
 3098TIP3   OH230852   2.645   2.706   7.762  0.5628  0.4110 -0.1237
 3098TIP3    H130853   2.630   2.627   7.814  2.3418  0.3427  0.3355
 3098TIP3    H230854   2.626   2.678   7.672 -0.0764 -0.1729  0.1778
 3099TIP3   OH230855   4.818   5.360   0.097 -0.0316 -0.5140 -0.0269
 3099TIP3    H130856   4.727   5.349   0.126 -0.2533 -0.4126 -0.6653
 3099TIP3    H230857   4.870   5.352   0.177 -0.5388 -1.4059  0.2295
 3100TIP3   OH230858   5.839   2.706   1.021  0.4157 -0.2403 -0.4839
 3100TIP3    H130859   5.880   2.633   1.067 -0.6453 -0.5583 -0.0097
 3100TIP3    H230860   5.831   2.676   0.931  0.7525 -0.3694 -0.4740
 3101TIP3   OH230861   0.381   4.011   8.232 -0.1177 -0.0653  0.0241
 3101TIP3    H130862   0.442   4.080   8.207  0.5750 -0.2927  1.0062
 3101TIP3    H230863   0.311   4.056   8.279 -0.3571  0.1105 -0.4895
 3102TIP3   OH230864   1.171   1.678   6.777 -0.1918 -0.0725 -0.0752
 3102TIP3    H130865   1.083   1.716   6.783 -0.8548 -1.5880  0.1959
 3102TIP3    H230866   1.180   1.626   6.857  0.7568 -0.3433 -0.3469
 3103TIP3   OH230867   3.477   1.836   0.792  0.3166 -0.6826  0.0028
 3103TIP3    H130868   3.523   1.831   0.876 -1.1125  2.8283  1.1885
 3103TIP3    H230869   3.429   1.753   0.786  1.6597 -1.6658  1.8794
 3104TIP3   OH230870   5.908   1.961   7.477 -0.0391  0.7608  0.2849
 3104TIP3    H130871   5.953   1.894   7.425  0.0936  0.9592  0.1408
 3104TIP3    H230872   5.816   1.935   7.478  0.1414  0.1185  0.9368
 3105TIP3   OH230873   3.395   1.353   0.882  1.4321 -0.5215 -0.2994
 3105TIP3    H130874   3.321   1.362   0.822  1.4963 -0.2554 -0.3396
 3105TIP3    H230875   3.447   1.432   0.869  1.7894 -0.7623 -0.3588
 3106TIP3   OH230876   1.607   6.449   0.037 -0.1694 -0.1237  0.0934
 3106TIP3    H130877   1.649   6.389   0.100  3.2001 -0.1481 -1.8975
 3106TIP3    H230878   1.579   6.392  -0.034 -0.3214  0.3005 -0.1858
 3107TIP3   OH230879   3.135   2.612   6.806 -0.4422 -0.3896 -0.0276
 3107TIP3    H130880   3.137   2.551   6.732  0.4698 -0.7682  0.2960
 3107TIP3    H230881   3.053   2.660   6.794  0.1989  0.3262 -1.9032
 3108TIP3   OH230882   0.105   0.041   0.750  0.2339  0.6834 -1.3167
 3108TIP3    H130883   0.161   0.006   0.819 -0.4652  1.1242 -0.4954
 3108TIP3    H230884   0.056   0.111   0.793  0.0147  1.1794 -2.3545
 3109TIP3   OH230885   5.700   0.581   6.386  0.3003 -0.2629  0.3713
 3109TIP3    H130886   5.627   0.569   6.325  0.4550  1.1686 -0.1435
 3109TIP3    H230887   5.778   0.579   6.331  1.0689 -4.8185  1.2258
 3110TIP3   OH230888   2.661   0.583   7.775 -0.4252 -0.4083  0.0417
 3110TIP3    H130889   2.715   0.505   7.790 -0.6835 -0.4651  0.6862
 3110TIP3    H230890   2.644   0.618   7.862 -0.2527  0.4188 -0.2507
 3111TIP3   OH230891   1.695   5.070   8.361  0.5229 -0.0991  0.0731
 3111TIP3    H130892   1.777   5.111   8.333  1.9060 -1.9276  1.1973
 3111TIP3    H230893   1.694   5.081   8.456  0.8368 -2.3703  0.3895
 3112TIP3   OH230894   1.678   6.698   0.282  0.1288  0.9865 -0.3077
 3112TIP3    H130895   1.742   6.768   0.288  0.4383  0.6640  0.1518
 3112TIP3    H230896   1.649   6.700   0.190  1.8827  0.1740 -0.9128
 3113TIP3   OH230897   3.182   5.632   7.225 -0.0858 -0.4643  0.1248
 3113TIP3    H130898   3.238   5.562   7.192 -1.1700 -1.4702  0.3508
 3113TIP3    H230899   3.093   5.607   7.199 -0.4213  1.3493 -0.6945
 3114TIP3   OH230900   3.197   5.463   0.079 -0.3941 -0.2380  0.1816
 3114TIP3    H130901   3.210   5.496   0.168  1.6184  0.7236 -0.4212
 3114TIP3    H230902   3.149   5.381   0.090  1.7600 -1.3016  2.3067
 3115TIP3   OH230903   3.128   2.004   6.734  0.6211  0.3489 -0.0434
 3115TIP3    H130904   3.122   2.073   6.668  1.6508  0.6012  0.1143
 3115TIP3    H230905   3.070   2.033   6.804 -1.5968 -0.5912 -1.3927
 3116TIP3   OH230906   1.364   4.088   7.222  0.0499 -0.1744  0.0005
 3116TIP3    H130907   1.305   4.163   7.217  1.3947  0.9919  0.5602
 3116TIP3    H230908   1.318   4.024   7.276 -1.1447  0.2336 -0.5014
 3117TIP3   OH230909   4.234   4.558   6.745  0.6239 -0.4298  0.1982
 3117TIP3    H130910   4.146   4.519   6.747  1.4407 -2.3634  1.8955
 3117TIP3    H230911   4.234   4.614   6.667 -2.2662  0.0698  0.4380
 3118TIP3   OH230912   4.802   5.884   6.457  0.0931 -0.0682 -0.3362
 3118TIP3    H130913   4.729   5.882   6.519  0.4806  1.5187  0.1940
 3118TIP3    H230914   4.826   5.792   6.446 -0.7752 -0.4720  0.9099
 3119TIP3   OH230915   3.040   4.922   8.397 -0.1214 -0.3504 -0.9744
 3119TIP3    H130916   2.959   4.901   8.350  0.3320  0.5834 -2.2083
 3119TIP3    H230917   3.018   5.001   8.448 -0.0699 -0.2633 -1.0877
 3120TIP3   OH230918   4.661   3.899   1.338 -0.2588 -0.5677  0.1811
 3120TIP3    H130919   4.744   3.922   1.378 -0.8150 -1.6625  2.1268
 3120TIP3    H230920   4.684   3.837   1.268  0.7281  1.2665 -1.1900
 3121TIP3   OH230921   5.181   1.950   0.166  0.1206 -0.2308 -0.6497
 3121TIP3    H130922   5.249   1.997   0.118  1.7962 -1.3770  0.4626
 3121TIP3    H230923   5.230   1.899   0.232 -1.8489 -0.9341  0.3348
 3122TIP3   OH230924   1.902   1.295   0.123  0.0650  0.0636  0.2518
 3122TIP3    H130925   1.838   1.289   0.193  0.3045  1.2759  0.6055
 3122TIP3    H230926   1.975   1.345   0.161  0.1704  0.7981 -0.8561
 3123TIP3   OH230927   0.165   6.687   1.525 -0.5034 -0.1672 -0.1033
 3123TIP3    H130928   0.096   6.748   1.499 -1.0486 -0.5491  0.4141
 3123TIP3    H230929   0.119   6.605   1.543  0.0636 -0.3743  0.4431
 3124TIP3   OH230930   1.932   0.927   0.130  0.0487  0.2808  0.6214
 3124TIP3    H130931   1.909   0.942   0.222  1.7628 -0.1711  1.1559
 3124TIP3    H230932   2.021   0.962   0.121  0.5864 -1.2476 -0.4008
 3125TIP3   OH230933   4.463   6.099   0.019  0.0853  0.3305 -0.1862
 3125TIP3    H130934   4.515   6.072  -0.057  2.9102 -0.8265  1.9574
 3125TIP3    H230935   4.408   6.023   0.039  0.7177 -0.0880 -0.0034
 3126TIP3   OH230936   4.564   5.434   6.755 -0.5042 -0.3359  0.3287
 3126TIP3    H130937   4.529   5.496   6.819 -1.6793 -0.0915 -0.5086
 3126TIP3    H230938   4.572   5.352   6.803 -0.6345  0.0255  0.9884
 3127TIP3   OH230939   5.397   0.712   0.532  0.2914 -0.7154  0.2035
 3127TIP3    H130940   5.491   0.697   0.527  0.2781 -0.5768 -0.7121
 3127TIP3    H230941   5.377   0.715   0.626  0.9392 -2.3014  0.4238
 3128TIP3   OH230942   5.473   1.330   2.411 -0.0314  0.4897 -0.0798
 3128TIP3    H130943   5.391   1.353   2.367 -0.6750 -1.1664  0.2042
 3128TIP3    H230944   5.473   1.234   2.414  0.6543  0.5148  2.2801
 3129TIP3   OH230945   6.155   6.373   7.433  0.2110 -0.5275  0.3369
 3129TIP3    H130946   6.104   6.416   7.365  1.1173  1.3224  0.7699
 3129TIP3    H230947   6.093   6.357   7.504 -0.6859 -2.2688 -0.7713
 3130TIP3   OH230948   6.727   6.159   6.868  0.5157  0.0003  0.0518
 3130TIP3    H130949   6.643   6.116   6.885 -0.0254  0.4846 -1.2135
 3130TIP3    H230950   6.792   6.090   6.878 -0.1861 -0.7628 -0.4599
 3131TIP3   OH230951   4.003   6.085   7.840 -0.1010 -0.6574  0.5893
 3131TIP3    H130952   3.968   6.001   7.811  0.0815 -1.0224  1.3916
 3131TIP3    H230953   3.927   6.135   7.869 -0.2569 -0.3797 -0.2788
 3132TIP3   OH230954   0.720   4.310   0.822  0.1807 -0.5750 -0.5425
 3132TIP3    H130955   0.779   4.257   0.767 -0.7315 -1.1558 -0.9785
 3132TIP3    H230956   0.710   4.391   0.773 -1.0824 -1.3087 -1.5581
 3133TIP3   OH230957   6.393   6.485   8.263 -0.5201  0.4353  0.5470
 3133TIP3    H130958   6.477   6.477   8.308 -0.1578 -2.3830 -0.3978
 3133TIP3    H230959   6.328   6.456   8.326 -0.4970  0.2968  0.5066
 3134TIP3   OH230960   2.697   2.963   7.516 -0.2476 -0.4007  0.4254
 3134TIP3    H130961   2.761   2.904   7.477 -0.8198 -0.5608 -0.2881
 3134TIP3    H230962   2.660   3.011   7.442  0.0565  0.7089  0.9739
 3135TIP3   OH230963   4.318   4.024   0.577 -0.2193 -0.2297  0.1169
 3135TIP3    H130964   4.298   4.066   0.494 -2.0102 -1.5581 -0.1729
 3135TIP3    H230965   4.271   4.076   0.643 -0.1217 -0.1389  0.1166
 3136TIP3   OH230966   1.008   4.938   7.067 -0.2934  0.6898 -0.0339
 3136TIP3    H130967   0.939   5.004   7.073  0.9708  2.0571  0.2744
 3136TIP3    H230968   1.087   4.989   7.046  0.4968 -0.8865 -1.0247
 3137TIP3   OH230969   3.571   0.821   2.132 -0.7007  0.2901  0.3889
 3137TIP3    H130970   3.509   0.877   2.085 -1.3182 -1.2692 -0.7297
 3137TIP3    H230971   3.522   0.788   2.207 -0.6984  0.3683  0.4244
 3138TIP3   OH230972   4.289   1.307   0.373  0.1020 -0.4064 -0.0350
 3138TIP3    H130973   4.374   1.345   0.353  0.6952 -1.7747 -0.2240
 3138TIP3    H230974   4.257   1.273   0.290 -2.2848  3.0614 -0.7732
 3139TIP3   OH230975   6.277   0.277   6.501  0.2761 -0.1020  0.1807
 3139TIP3    H130976   6.312   0.366   6.502  0.9877 -0.3735  0.3932
 3139TIP3    H230977   6.332   0.230   6.438 -1.0654 -0.0243 -1.0918
 3140TIP3   OH230978   0.539   0.691   1.330 -0.3816  0.2925  0.2298
 3140TIP3    H130979   0.614   0.670   1.273 -1.1303  1.0226 -1.0754
 3140TIP3    H230980   0.521   0.609   1.377  0.6731 -0.1411 -0.0799
 3141TIP3   OH230981   0.359   6.587   6.762  0.5638  0.1107  0.0572
 3141TIP3    H130982   0.453   6.570   6.764  0.7352  0.2595 -2.7067
 3141TIP3    H230983   0.350   6.675   6.725 -0.6659  0.9030  2.0693
 3142TIP3   OH230984   4.413   0.445   7.263 -1.1699  0.0249 -0.1688
 3142TIP3    H130985   4.403   0.403   7.177 -1.2559 -0.0086 -0.1429
 3142TIP3    H230986   4.452   0.378   7.319 -0.4581  0.2672 -0.3623
 3143TIP3   OH230987   4.615   6.721   1.157 -0.8262  0.8060  0.1437
 3143TIP3    H130988   4.702   6.761   1.161 -0.7302  0.8743 -1.6088
 3143TIP3    H230989   4.600   6.685   1.244  1.3217  0.0421  0.2472
 3144TIP3   OH230990   1.317   4.288   0.092  1.2252  0.0875  0.3897
 3144TIP3    H130991   1.380   4.322   0.029  0.3235 -0.4808 -0.8481
 3144TIP3    H230992   1.241   4.264   0.040  0.6025 -0.7839  1.6491
 3145TIP3   OH230993   3.806   3.413   7.446 -0.3284  0.1460 -0.4066
 3145TIP3    H130994   3.838   3.500   7.426  0.5598 -0.5102 -1.9890
 3145TIP3    H230995   3.753   3.388   7.371 -0.3228 -0.7977 -0.1182
 3146TIP3   OH230996   1.947   4.820   1.817  0.6208 -0.4815  0.0309
 3146TIP3    H130997   1.910   4.905   1.792  0.1522 -0.2847  1.2812
 3146TIP3    H230998   2.016   4.842   1.880  2.3587 -0.8979 -1.6641
 3147TIP3   OH230999   3.577   4.410   1.139 -0.3994  0.4142 -0.1380
 3147TIP3    H131000   3.510   4.450   1.194  1.2048 -0.0038  2.2496
 3147TIP3    H231001   3.530   4.386   1.059 -2.7922  1.2482  0.9074
 3148TIP3   OH231002   3.316   2.592   7.005 -0.2286  0.0159  0.5704
 3148TIP3    H131003   3.303   2.682   7.036 -0.7890 -0.2977  1.2700
 3148TIP3    H231004   3.254   2.583   6.932  0.2739  0.3877  0.0877
 3149TIP3   OH231005   1.029   3.215   7.577  0.1982 -0.9328 -0.7071
 3149TIP3    H131006   0.942   3.183   7.598  0.5086 -1.3283 -0.0037
 3149TIP3    H231007   1.015   3.280   7.508 -0.9298  0.9668  1.2252
 3150TIP3   OH231008   1.091   1.652   0.210  0.0511  0.8031  0.6916
 3150TIP3    H131009   1.179   1.687   0.225  0.2499  1.8861 -2.4167
 3150TIP3    H231010   1.105   1.574   0.157 -0.8751  2.1067 -1.5915
 3151TIP3   OH231011   3.213   1.770   0.555 -0.5673 -0.2865 -0.1198
 3151TIP3    H131012   3.232   1.768   0.461 -1.1096 -0.5356 -0.2260
 3151TIP3    H231013   3.241   1.857   0.583 -0.8236 -0.0425 -0.6026
 3152TIP3   OH231014   5.682   5.806   8.516  0.1287 -0.0131 -0.0258
 3152TIP3    H131015   5.714   5.761   8.438  0.0313  3.1734 -2.1059
 3152TIP3    H231016   5.744   5.879   8.528 -1.9267  1.7294  0.5748
 3153TIP3   OH231017   0.178   1.106   7.105  0.3049  0.3227 -0.6931
 3153TIP3    H131018   0.176   1.073   7.195 -1.4184 -0.8048 -1.0942
 3153TIP3    H231019   0.237   1.046   7.059  0.3587  0.2611 -0.5441
 3154TIP3   OH231020   6.600   4.405   7.034 -0.3041 -0.1930  0.1232
 3154TIP3    H131021   6.682   4.450   7.012 -0.8468  0.7199 -0.0589
 3154TIP3    H231022   6.531   4.460   6.998 -0.9623 -1.8900 -1.3874
 3155TIP3   OH231023   0.456   1.185   6.471 -0.0846  0.1013  0.2624
 3155TIP3    H131024   0.400   1.121   6.516  0.0989 -0.2723 -0.0313
 3155TIP3    H231025   0.522   1.210   6.535 -0.2781  0.1494  0.4439
 3156TIP3   OH231026   5.014   0.032   8.176  0.2134 -0.0313  0.5411
 3156TIP3    H131027   5.061  -0.045   8.144 -2.3209 -2.2085  1.6542
 3156TIP3    H231028   4.963  -0.000   8.250 -0.8221  2.8117  1.2010
 3157TIP3   OH231029   2.196   1.883   0.737  0.2205 -0.0304  0.2486
 3157TIP3    H131030   2.180   1.977   0.739 -0.8298 -0.1483 -1.1633
 3157TIP3    H231031   2.287   1.874   0.707 -0.2510  0.5233 -1.4241
 3158TIP3   OH231032   3.463   4.191   7.512 -0.3417  0.7858 -0.4223
 3158TIP3    H131033   3.436   4.216   7.601  0.2125  1.9557 -0.5700
 3158TIP3    H231034   3.551   4.155   7.523 -1.2317 -1.5456 -0.1679
 3159TIP3   OH231035   0.703   5.341   8.116 -0.4366 -0.2193 -0.0484
 3159TIP3    H131036   0.620   5.351   8.164 -1.3336 -0.0207 -1.5552
 3159TIP3    H231037   0.759   5.290   8.174 -1.8590 -0.9372  0.7420
 3160TIP3   OH231038   6.691   6.503   6.420 -0.7748 -0.4909  0.8098
 3160TIP3    H131039   6.752   6.429   6.425  0.7718  0.7469  1.4044
 3160TIP3    H231040   6.668   6.509   6.328  1.3079 -0.0519  0.2634
 3161TIP3   OH231041   6.051   0.619   2.631 -0.0280 -0.0818 -0.1526
 3161TIP3    H131042   6.051   0.524   2.645 -0.3512  0.2435  2.6938
 3161TIP3    H231043   5.962   0.646   2.654 -0.5021  0.7772 -2.6958
 3162TIP3   OH231044   4.925   5.193   7.666 -0.5934  0.0336  0.2684
 3162TIP3    H131045   5.003   5.245   7.648  0.8718 -2.1429  0.0127
 3162TIP3    H231046   4.867   5.210   7.592 -0.3193  1.5448  0.3711
 3163TIP3   OH231047   6.242   6.115   0.795  0.0369  0.0698  0.4379
 3163TIP3    H131048   6.212   6.049   0.733 -0.6775  0.6773  0.1200
 3163TIP3    H231049   6.187   6.191   0.778 -0.8477 -0.0501  2.4777
 3164TIP3   OH231050   4.156   0.669   7.764  0.7405 -0.3271  0.2888
 3164TIP3    H131051   4.221   0.738   7.761  0.1935  0.1597 -0.7079
 3164TIP3    H231052   4.188   0.601   7.705  1.0754 -0.7702  0.9561
 3165TIP3   OH231053   3.043   4.310   7.676 -0.1277 -0.3117  0.1825
 3165TIP3    H131054   3.133   4.334   7.653  0.0301 -1.3864 -0.3680
 3165TIP3    H231055   3.030   4.224   7.636 -1.9362  0.4944 -1.0750
 3166TIP3   OH231056   2.146   0.772   0.061 -0.1005  0.5046  0.0979
 3166TIP3    H131057   2.163   0.757  -0.032  1.5265  0.3122  0.4018
 3166TIP3    H231058   2.053   0.796   0.064 -0.4568 -0.4958 -1.4460
 3167TIP3   OH231059   5.302   1.879   1.780 -0.1703 -0.0246 -0.7664
 3167TIP3    H131060   5.395   1.883   1.801 -0.0630 -0.3514 -1.1630
 3167TIP3    H231061   5.269   1.804   1.830 -0.2431  0.1515 -0.5484
 3168TIP3   OH231062   0.372   0.949   0.307 -0.1937  0.7191 -0.1571
 3168TIP3    H131063   0.304   1.016   0.299 -0.9083 -0.1156 -1.4258
 3168TIP3    H231064   0.326   0.867   0.292  0.6619 -0.0865  1.3689
 3169TIP3   OH231065   2.790   2.288   1.663 -0.5843 -0.4064  0.3053
 3169TIP3    H131066   2.707   2.244   1.677  0.0228 -1.5877  0.2912
 3169TIP3    H231067   2.847   2.221   1.626  0.0865  0.6434 -0.6372
 3170TIP3   OH231068   0.542   2.262   8.056 -0.2140 -0.7558  0.2287
 3170TIP3    H131069   0.569   2.351   8.034 -1.8762 -0.0096  1.0255
 3170TIP3    H231070   0.613   2.228   8.110  1.3748 -0.6842 -1.6774
 3171TIP3   OH231071   4.808   0.386   6.680 -0.0818  0.5040 -0.3663
 3171TIP3    H131072   4.863   0.448   6.728 -0.6228  0.9511 -0.3178
 3171TIP3    H231073   4.774   0.436   6.606 -1.2096  0.5231  0.1479
 3172TIP3   OH231074   1.843   1.419   7.905  0.3233 -0.1558 -0.3942
 3172TIP3    H131075   1.837   1.464   7.990  0.9452  1.2881 -1.0796
 3172TIP3    H231076   1.937   1.406   7.892  0.1379 -2.1211 -0.0127
 3173TIP3   OH231077   3.145   3.013   1.197  0.3047  0.3245 -0.6490
 3173TIP3    H131078   3.222   3.067   1.213 -0.1654  0.1085  3.5025
 3173TIP3    H231079   3.180   2.924   1.190  0.5559  0.2763  0.8094
 3174TIP3   OH231080   3.841   5.579   7.837  0.2033 -0.5142  0.6149
 3174TIP3    H131081   3.893   5.518   7.785 -0.0462  0.3189 -0.6774
 3174TIP3    H231082   3.792   5.523   7.898  0.9535 -1.4786  0.3570
 3175TIP3   OH231083   3.970   1.145   0.976  0.0984  0.2454 -0.5086
 3175TIP3    H131084   3.926   1.174   1.056  0.9711  2.0225 -0.6323
 3175TIP3    H231085   4.061   1.132   1.003  0.3227  0.5025 -1.1332
 3176TIP3   OH231086   0.309   4.704   7.557 -0.0766  0.2286  0.0971
 3176TIP3    H131087   0.283   4.618   7.590 -0.9297  0.5445  0.2621
 3176TIP3    H231088   0.374   4.735   7.619 -0.9014  0.3630  0.9192
 3177TIP3   OH231089   0.682   3.037   8.294  0.2598  0.1780 -0.4752
 3177TIP3    H131090   0.635   3.121   8.293 -0.0652 -0.0002 -0.5551
 3177TIP3    H231091   0.748   3.047   8.362  0.0030  0.3830 -0.2520
 3178TIP3   OH231092   4.231   2.978   0.408 -0.4399  0.3431 -0.1526
 3178TIP3    H131093   4.291   2.971   0.334 -1.1276 -3.4669 -0.5836
 3178TIP3    H231094   4.286   2.966   0.485 -0.1533  0.8373 -0.2802
 3179TIP3   OH231095   1.650   6.610   1.429 -0.2951  0.0555 -1.0955
 3179TIP3    H131096   1.719   6.620   1.363 -0.3505  1.3559 -0.9789
 3179TIP3    H231097   1.697   6.612   1.513 -0.5319  1.9684 -0.9706
 3180TIP3   OH231098   2.859   4.599   7.033 -0.2776  0.5339  0.7256
 3180TIP3    H131099   2.931   4.538   7.017 -0.6465 -0.4648  2.5265
 3180TIP3    H231100   2.812   4.604   6.950 -0.3426 -1.8125  0.5697
 3181TIP3   OH231101   6.585   6.644   7.370  0.1401  0.4126  0.1567
 3181TIP3    H131102   6.627   6.601   7.295 -0.7035 -0.2963  0.0609
 3181TIP3    H231103   6.494   6.655   7.342 -0.0546  0.6474  0.8690
 3182TIP3   OH231104   2.623   6.809   6.557 -0.4367 -0.4193  0.0540
 3182TIP3    H131105   2.675   6.746   6.607 -0.4428 -2.2425 -2.0814
 3182TIP3    H231106   2.533   6.793   6.585 -0.2090  0.5416  1.4417
 3183TIP3   OH231107   4.012   2.658   6.835 -0.3675 -0.0148 -0.2689
 3183TIP3    H131108   3.966   2.739   6.856 -0.0160  0.0240  0.3810
 3183TIP3    H231109   3.981   2.635   6.748 -1.8684 -0.1634  0.2705
 3184TIP3   OH231110   5.258   1.518   0.798 -0.2465  0.1171  0.3653
 3184TIP3    H131111   5.293   1.466   0.870 -0.4873  1.1263  1.2259
 3184TIP3    H231112   5.306   1.601   0.802 -0.1800  0.1483 -0.7133
 3185TIP3   OH231113   4.075   2.559   7.706  0.2236  0.0392 -0.1988
 3185TIP3    H131114   4.006   2.618   7.737  2.4860  2.3637  0.7969
 3185TIP3    H231115   4.122   2.610   7.639  1.1854 -1.3397 -0.6391
 3186TIP3   OH231116   6.213   3.205   6.364 -0.4033  0.0805 -1.1145
 3186TIP3    H131117   6.304   3.226   6.342  0.2331 -0.8964  0.3927
 3186TIP3    H231118   6.190   3.267   6.434 -0.5004 -0.3892 -0.7192
 3187TIP3   OH231119   4.060   1.846   1.221  0.0806 -0.5128  0.1439
 3187TIP3    H131120   4.075   1.927   1.270 -0.1759  0.5157 -1.4063
 3187TIP3    H231121   4.146   1.821   1.188 -0.3839  1.6332 -3.0620
 3188TIP3   OH231122   4.000   3.997   0.647  0.5957 -0.1036 -0.0592
 3188TIP3    H131123   4.007   4.040   0.562 -3.7898  2.7378  0.6525
 3188TIP3    H231124   3.953   3.916   0.629  0.8487 -0.1471 -0.5177
 3189TIP3   OH231125   0.640   1.561   6.943  0.3809  0.0016 -0.4707
 3189TIP3    H131126   0.646   1.617   7.020  1.0494  0.9404 -1.1842
 3189TIP3    H231127   0.730   1.538   6.922  0.1207 -1.3908 -0.1756
 3190TIP3   OH231128   0.513   4.334   7.404 -0.3377 -0.0020 -0.0559
 3190TIP3    H131129   0.567   4.300   7.333  0.4494  0.4000  0.3340
 3190TIP3    H231130   0.574   4.382   7.460 -0.9505 -0.2670  0.8715
 3191TIP3   OH231131   3.080   4.090   6.822  0.1229  0.3719 -0.3864
 3191TIP3    H131132   3.154   4.034   6.800  0.6475  0.5414  0.8910
 3191TIP3    H231133   3.065   4.143   6.743 -0.0045 -1.1239 -1.4009
 3192TIP3   OH231134   2.128   5.478   0.903  0.4291 -0.1613  0.5354
 3192TIP3    H131135   2.219   5.448   0.906  1.0972  1.6086 -0.7395
 3192TIP3    H231136   2.133   5.572   0.890 -1.5984 -0.0343  0.2354
 3193TIP3   OH231137   2.990   5.684   1.343 -0.0299 -0.3217  0.0948
 3193TIP3    H131138   3.082   5.710   1.351 -0.4666  1.3706 -0.1086
 3193TIP3    H231139   2.981   5.657   1.251  0.1491 -0.0172 -0.0142
 3194TIP3   OH231140   4.113   5.617   7.358 -0.2754  0.1895  0.8993
 3194TIP3    H131141   4.051   5.630   7.430 -0.1908 -2.1188  1.4898
 3194TIP3    H231142   4.059   5.585   7.286 -0.0675  0.4550  0.6244
 3195TIP3   OH231143   1.645   4.696   8.429 -0.2768 -0.1541  0.2780
 3195TIP3    H131144   1.673   4.726   8.343 -0.9483  0.4985  0.2754
 3195TIP3    H231145   1.553   4.721   8.434 -0.1161  0.2949  1.3915
 3196TIP3   OH231146   4.901   5.768   7.883  0.4141 -0.5959 -0.2753
 3196TIP3    H131147   4.906   5.854   7.925 -1.0473  0.0889 -1.3959
 3196TIP3    H231148   4.989   5.732   7.891  1.4695  1.6499 -1.1086
 3197TIP3   OH231149   3.897   5.584   8.396 -0.2949  0.3872  0.3494
 3197TIP3    H131150   3.906   5.550   8.307 -2.6301 -2.0756  0.9039
 3197TIP3    H231151   3.811   5.627   8.397 -1.0462 -1.0332  1.7274
 3198TIP3   OH231152   4.243   1.765   0.408 -0.2157  0.6153  0.1657
 3198TIP3    H131153   4.219   1.723   0.491 -1.6770  1.8905  0.4439
 3198TIP3    H231154   4.303   1.835   0.433  1.3729 -0.5715 -0.1795
 3199TIP3   OH231155   3.148   6.694   7.747 -0.0987 -0.0186  0.1098
 3199TIP3    H131156   3.201   6.615   7.740 -0.0033  0.0527  0.0298
 3199TIP3    H231157   3.194   6.748   7.812 -0.6785 -0.4396  0.8849
 3200TIP3   OH231158   1.366   1.031   0.015  0.1666  0.2729  0.3568
 3200TIP3    H131159   1.390   0.987  -0.067 -2.0808  1.2836 -0.9175
 3200TIP3    H231160   1.450   1.047   0.058  1.3332 -1.5364 -1.0437
 3201TIP3   OH231161   5.695   4.255   7.661 -0.2730 -0.3242 -0.0318
 3201TIP3    H131162   5.782   4.286   7.637  1.0030 -2.3775  1.6772
 3201TIP3    H231163   5.652   4.238   7.577 -0.1126  3.1837 -1.0197
 3202TIP3   OH231164   0.397   2.394   6.988 -0.0504 -0.6601 -0.3944
 3202TIP3    H131165   0.472   2.451   7.002  0.0653 -0.5845 -1.2337
 3202TIP3    H231166   0.364   2.420   6.902 -2.8533  1.4156  1.1198
 3203TIP3   OH231167   1.168   1.155   7.058 -0.6581 -0.0973 -0.1740
 3203TIP3    H131168   1.196   1.084   7.116 -1.4239  0.9356  1.5682
 3203TIP3    H231169   1.241   1.217   7.060 -0.2003 -0.5743 -1.2894
 3204TIP3   OH231170   2.519   1.295   6.782 -0.1691 -0.2293 -0.1923
 3204TIP3    H131171   2.602   1.279   6.828 -0.6999 -2.0393  0.2324
 3204TIP3    H231172   2.539   1.365   6.720  1.8782 -1.0646 -0.5634
 3205TIP3   OH231173   1.524   3.942   8.378  0.2065  0.3716 -0.2850
 3205TIP3    H131174   1.569   3.858   8.377  0.7260  0.6487 -0.6681
 3205TIP3    H231175   1.594   4.007   8.381 -0.2098  0.7870  1.2520
 3206TIP3   OH231176   2.760   6.680   7.708  0.2359  0.0505 -0.0793
 3206TIP3    H131177   2.797   6.744   7.648  1.0509 -0.1881  0.1645
 3206TIP3    H231178   2.767   6.720   7.794  1.1119 -0.5195  0.1243
 3207TIP3   OH231179   6.282   3.577   2.059  0.0049 -0.3974 -0.0963
 3207TIP3    H131180   6.209   3.555   2.001 -0.6587 -2.7774  1.4513
 3207TIP3    H231181   6.312   3.492   2.092  0.4372  0.7812  2.8602
 3208TIP3   OH231182   5.259   5.986   5.749  1.1590 -0.8237 -0.0046
 3208TIP3    H131183   5.200   5.917   5.780  0.9826 -1.3124 -1.3341
 3208TIP3    H231184   5.342   5.967   5.791  0.6521 -0.7520  1.0715
 3209TIP3   OH231185   2.762   0.856   0.028  0.4037 -0.0494  0.2511
 3209TIP3    H131186   2.667   0.860   0.037 -0.1427 -4.3706 -1.2724
 3209TIP3    H231187   2.783   0.924  -0.036 -1.5498  1.1688  0.8004
 3210TIP3   OH231188   3.257   0.580   7.393  0.3993 -0.1527  0.0599
 3210TIP3    H131189   3.220   0.508   7.445  1.8193 -1.0622 -0.1149
 3210TIP3    H231190   3.308   0.631   7.456 -1.9739  1.7581  0.5298
 3211TIP3   OH231191   3.326   6.407   7.109  0.1377  0.0975 -0.4635
 3211TIP3    H131192   3.322   6.400   7.014  1.1558  1.2944 -0.6312
 3211TIP3    H231193   3.342   6.500   7.125 -0.6214  0.0193  0.9093
 3212TIP3   OH231194   3.397   2.335   8.233 -0.0275  0.6508 -0.3479
 3212TIP3    H131195   3.485   2.301   8.250 -1.1241 -1.4363  1.5302
 3212TIP3    H231196   3.379   2.311   8.142 -0.1330 -2.6347  0.4123
 3213TIP3   OH231197   4.298   2.782   1.518 -0.0890  0.2594 -0.0238
 3213TIP3    H131198   4.212   2.786   1.560  1.0322  0.7675  2.3852
 3213TIP3    H231199   4.296   2.851   1.452 -0.7302  1.9869  1.7104
 3214TIP3   OH231200   0.618   0.133   1.088  0.3026 -0.7433  0.4517
 3214TIP3    H131201   0.680   0.114   1.018 -0.1426 -1.3685  0.2166
 3214TIP3    H231202   0.539   0.161   1.043  0.7047  1.0343  0.7738
 3215TIP3   OH231203   3.216   4.242   0.788  0.0585 -1.1831 -0.6489
 3215TIP3    H131204   3.143   4.270   0.843 -0.5297 -1.2618 -1.3770
 3215TIP3    H231205   3.202   4.286   0.704  1.1598 -0.7541 -0.6237
 3216TIP3   OH231206   6.454   6.191   1.196 -0.1724 -0.1376 -0.2329
 3216TIP3    H131207   6.362   6.208   1.176  0.4867  2.3722 -1.5701
 3216TIP3    H231208   6.487   6.146   1.118 -0.2952 -1.3505  0.3886
 3217TIP3   OH231209   2.101   2.824   0.303  0.0627  0.1419  0.0700
 3217TIP3    H131210   2.027   2.800   0.359 -0.2216  0.1463 -0.2964
 3217TIP3    H231211   2.084   2.915   0.278  0.2832  0.1995  0.1249
 3218TIP3   OH231212   0.666   6.520   2.371 -0.3564 -0.3121 -0.2652
 3218TIP3    H131213   0.624   6.484   2.293 -0.6715 -2.7753  0.9387
 3218TIP3    H231214   0.680   6.444   2.428  3.2843  0.7896  0.5623
 3219TIP3   OH231215   1.958   5.425   2.386  0.2748  0.2004  0.4998
 3219TIP3    H131216   1.898   5.372   2.333  0.2159  0.6467  0.1180
 3219TIP3    H231217   2.031   5.446   2.327  1.1141 -0.8344  1.1296
 3220TIP3   OH231218   1.151   1.167   8.418 -0.2379 -0.4220 -0.4540
 3220TIP3    H131219   1.090   1.201   8.483 -1.7353 -1.8559 -1.0154
 3220TIP3    H231220   1.226   1.227   8.421 -0.7298  0.1790  1.7661
 3221TIP3   OH231221   4.618   1.481   2.096  0.1295 -0.3177  0.1887
 3221TIP3    H131222   4.622   1.547   2.165 -0.4437  0.0310 -0.1001
 3221TIP3    H231223   4.590   1.530   2.018 -2.2282 -1.2272  0.3971
 3222TIP3   OH231224   4.167   0.379   0.754 -0.2533  0.2920  0.0826
 3222TIP3    H131225   4.185   0.473   0.755 -1.5604  0.5670 -0.1846
 3222TIP3    H231226   4.215   0.344   0.829  1.0021  1.0153 -0.3546
 3223TIP3   OH231227   2.690   6.282   7.945  0.5237  0.4808  0.0177
 3223TIP3    H131228   2.737   6.285   7.862  1.6878 -0.4666  0.6029
 3223TIP3    H231229   2.652   6.194   7.948 -0.2485  0.8175  0.0976
 3224TIP3   OH231230   6.599   3.316   7.531  0.4663 -0.3155 -0.1165
 3224TIP3    H131231   6.672   3.280   7.482  0.4393 -0.0652 -0.3412
 3224TIP3    H231232   6.585   3.403   7.494  1.0785  0.2799  0.9756
 3225TIP3   OH231233   3.560   1.583   8.467  0.0376  0.3532 -0.5320
 3225TIP3    H131234   3.514   1.501   8.484  1.9270 -0.5871  0.3358
 3225TIP3    H231235   3.501   1.651   8.500 -0.8831 -0.7491  0.1757
 3226TIP3   OH231236   6.561   4.449   0.276 -0.9378 -0.5435 -0.9664
 3226TIP3    H131237   6.491   4.390   0.247 -0.2564 -1.1736 -1.3399
 3226TIP3    H231238   6.517   4.508   0.338 -2.2270  0.2693 -2.5624
 3227TIP3   OH231239   0.602   4.788   0.211 -0.4786 -0.5825 -0.3746
 3227TIP3    H131240   0.665   4.772   0.141  1.2485 -0.7430  1.1268
 3227TIP3    H231241   0.551   4.864   0.181  0.0383 -0.7961 -1.8837
 3228TIP3   OH231242   6.618   3.674   6.708  0.0715 -0.4432 -0.5362
 3228TIP3    H131243   6.696   3.654   6.657 -0.0274  0.3330 -1.0024
 3228TIP3    H231244   6.590   3.760   6.677 -0.3084 -0.2038  0.4356
 3229TIP3   OH231245   1.560   2.828   0.846  0.1068 -0.4060 -0.2632
 3229TIP3    H131246   1.638   2.808   0.898  1.0238  3.5112  0.2180
 3229TIP3    H231247   1.588   2.820   0.755  1.3018  1.3503 -0.1011
 3230TIP3   OH231248   2.764   4.162   0.030  0.6604  0.0835  0.0151
 3230TIP3    H131249   2.799   4.073   0.026 -1.7819 -0.9458 -0.3950
 3230TIP3    H231250   2.733   4.172   0.120  1.7867  0.9252  0.3370
 3231TIP3   OH231251   0.639   2.643   1.353  0.2081  0.9147 -0.1522
 3231TIP3    H131252   0.707   2.689   1.304 -0.6531  2.2995 -0.1118
 3231TIP3    H231253   0.637   2.555   1.315  1.9980  0.8314 -0.1413
 3232TIP3   OH231254   5.931   6.018   0.913 -0.4453 -0.0942  0.2382
 3232TIP3    H131255   5.955   5.985   0.999 -2.0703  0.2317  0.8385
 3232TIP3    H231256   5.956   5.948   0.853  2.7807  0.5571  0.6581
 3233TIP3   OH231257   6.476   3.762   1.984 -1.0108  0.1601 -0.1781
 3233TIP3    H131258   6.442   3.672   1.987 -0.2832 -0.2213 -2.1186
 3233TIP3    H231259   6.493   3.784   2.076 -0.3152 -2.0476  0.2854
 3234TIP3   OH231260   1.003   0.428   0.926 -0.5052  0.3944 -0.4072
 3234TIP3    H131261   1.043   0.506   0.887  2.2258  1.1310  3.3175
 3234TIP3    H231262   0.952   0.461   0.999 -0.9934 -1.1875  0.0026
 3235TIP3   OH231263   1.211   4.828   2.285  0.5301 -0.0561  0.0801
 3235TIP3    H131264   1.144   4.852   2.349  0.5686 -0.5794  0.3262
 3235TIP3    H231265   1.239   4.740   2.312  0.6450 -0.2245 -0.5724
 3236TIP3   OH231266   0.063   2.677   6.726  0.6022  1.1204  0.1012
 3236TIP3    H131267   0.140   2.629   6.758  1.2025  2.4871  0.7573
 3236TIP3    H231268   0.099   2.755   6.684 -0.4253  2.4348  1.5346
 3237TIP3   OH231269   0.839   5.681   7.646  0.1661 -0.5742  1.0095
 3237TIP3    H131270   0.818   5.760   7.695  3.1547  0.3377  0.9785
 3237TIP3    H231271   0.932   5.665   7.663  0.4966 -2.1451 -1.6589
 3238TIP3   OH231272   3.125   5.088   1.055 -0.1415 -0.3662 -0.2339
 3238TIP3    H131273   3.154   5.125   1.138  1.2828  0.7658 -1.1650
 3238TIP3    H231274   3.131   4.994   1.067  0.8399 -0.2036  0.6959
 3239TIP3   OH231275   1.196   2.420   6.173  0.1325 -0.6538  0.4627
 3239TIP3    H131276   1.276   2.470   6.186  0.2226 -0.4066 -0.8500
 3239TIP3    H231277   1.127   2.485   6.162  0.1239 -0.7972 -0.4945
 3240TIP3   OH231278   0.764   2.796   1.754 -0.3959 -0.5630 -0.0950
 3240TIP3    H131279   0.743   2.870   1.697 -1.7713 -0.2720  0.7440
 3240TIP3    H231280   0.786   2.836   1.838 -4.2552 -1.0904  1.3403
 3241TIP3   OH231281   3.146   1.780   7.136 -0.1943 -0.6294  0.4329
 3241TIP3    H131282   3.161   1.872   7.112  0.2398 -1.0104 -0.8533
 3241TIP3    H231283   3.080   1.784   7.205 -0.0297  0.6570  0.5578
 3242TIP3   OH231284   6.626   1.121   7.756  0.2308  0.0532  0.7543
 3242TIP3    H131285   6.550   1.148   7.808 -0.3884  0.3028 -0.2382
 3242TIP3    H231286   6.630   1.026   7.766 -0.0054  0.0763  1.0888
 3243TIP3   OH231287   4.024   4.083   7.698  0.1845 -0.1550 -0.0718
 3243TIP3    H131288   4.096   4.038   7.741 -0.2963  0.0443  0.9739
 3243TIP3    H231289   3.969   4.012   7.664 -0.5122 -0.4102  1.4724
 3244TIP3   OH231290   4.558   0.578   1.267  0.3664 -0.0788 -0.4109
 3244TIP3    H131291   4.617   0.507   1.243 -0.0023 -0.6216  0.2459
 3244TIP3    H231292   4.616   0.650   1.294  0.7425 -0.0287 -1.3425
 3245TIP3   OH231293   2.272   4.575   6.995  0.4696  0.2192 -0.1498
 3245TIP3    H131294   2.328   4.589   6.919 -1.0260  1.2714 -1.1027
 3245TIP3    H231295   2.293   4.486   7.024 -0.9207 -1.3402 -3.5191
 3246TIP3   OH231296   5.957   4.359   7.559  0.1465 -0.3338  0.8737
 3246TIP3    H131297   5.957   4.450   7.591 -1.5847  0.2521 -0.6118
 3246TIP3    H231298   6.039   4.351   7.512  1.3962 -0.3152  2.9027
 3247TIP3   OH231299   3.039   3.302   8.662  0.4924 -0.2524  0.2745
 3247TIP3    H131300   2.973   3.371   8.656  1.1702  0.5063  1.1972
 3247TIP3    H231301   3.117   3.341   8.622  1.6727  0.5690  3.1614
 3248TIP3   OH231302   5.427   6.358   7.409  0.9819 -0.0382 -0.2528
 3248TIP3    H131303   5.448   6.378   7.318  2.0278  1.4204  0.2794
 3248TIP3    H231304   5.474   6.276   7.426  1.1754 -0.0661 -0.8781
 3249TIP3   OH231305   1.175   3.174   1.225  0.3883  0.2521  0.5528
 3249TIP3    H131306   1.210   3.228   1.296  0.1519  2.5441 -0.9540
 3249TIP3    H231307   1.080   3.175   1.239  0.3362  0.7605  0.2007
 3250TIP3   OH231308   3.856   2.698   0.918  0.3032  0.1433 -0.4394
 3250TIP3    H131309   3.791   2.700   0.847 -0.8451 -0.3718  0.5515
 3250TIP3    H231310   3.813   2.648   0.988  1.2069  1.0406  0.8014
 3251TIP3   OH231311   6.057   1.002   0.351 -0.1860 -0.8180 -0.1007
 3251TIP3    H131312   5.993   0.931   0.351 -0.5039 -0.6368  3.0133
 3251TIP3    H231313   6.118   0.981   0.421  1.3753  0.6192 -0.9424
 3252TIP3   OH231314   0.143   0.440   6.916 -0.0764 -0.3335 -0.2295
 3252TIP3    H131315   0.134   0.476   6.828  1.2440  2.8052  0.7827
 3252TIP3    H231316   0.058   0.456   6.957 -1.0239 -2.6627 -1.1025
 3253TIP3   OH231317   2.456   6.590   0.313  0.8033 -0.4139  0.3190
 3253TIP3    H131318   2.421   6.616   0.399  1.4512  1.7372 -0.0115
 3253TIP3    H231319   2.551   6.603   0.321  1.1542 -2.5407  0.0085
 3254TIP3   OH231320   3.798   4.196   6.817  0.1269  0.0739  0.1581
 3254TIP3    H131321   3.802   4.204   6.912  2.1375 -1.6330  0.2945
 3254TIP3    H231322   3.779   4.104   6.801  0.5332  0.1821 -1.0712
 3255TIP3   OH231323   1.463   5.113   1.145 -0.3975  0.3217 -0.1173
 3255TIP3    H131324   1.541   5.124   1.199 -0.7822  0.8498  0.3405
 3255TIP3    H231325   1.418   5.198   1.150 -0.0850  0.6312 -1.8370
 3256TIP3   OH231326   5.211   1.008   7.579 -0.1307  0.0691 -0.1530
 3256TIP3    H131327   5.126   1.000   7.535 -1.4765  1.5833  1.9690
 3256TIP3    H231328   5.193   0.986   7.670  1.4843  1.6334  0.6036
 3257TIP3   OH231329   5.473   5.667   1.511  0.9292  0.0428 -0.3670
 3257TIP3    H131330   5.508   5.683   1.599 -1.2045  1.4751  0.2926
 3257TIP3    H231331   5.408   5.598   1.524  0.2464  0.6190 -0.7210
 3258TIP3   OH231332   0.386   0.316   0.694 -0.6812 -0.9810 -0.0524
 3258TIP3    H131333   0.342   0.346   0.614 -0.9096 -0.1025  0.3900
 3258TIP3    H231334   0.450   0.384   0.713 -2.2440  0.0815  1.8078
 3259TIP3   OH231335   6.033   5.396   6.158 -0.7377  0.2090  0.3328
 3259TIP3    H131336   6.072   5.317   6.121 -1.7711  0.2174 -0.8543
 3259TIP3    H231337   5.977   5.365   6.229  0.7134  0.1256  1.4921
 3260TIP3   OH231338   5.808   2.202   0.980  0.2086  0.0563  0.7611
 3260TIP3    H131339   5.767   2.161   1.055 -1.8355  1.3033  0.3892
 3260TIP3    H231340   5.799   2.138   0.909 -1.0543  0.2780  0.7104
 3261TIP3   OH231341   5.997   2.126   1.409 -0.1730  0.5684 -0.5334
 3261TIP3    H131342   6.074   2.174   1.379  0.1890  0.2801 -0.0933
 3261TIP3    H231343   5.998   2.045   1.359  1.0307 -0.3855  0.9495
 3262TIP3   OH231344   0.175   3.708   0.970  0.0442 -0.0094  0.1530
 3262TIP3    H131345   0.158   3.782   0.910  3.2678  0.5131 -0.2842
 3262TIP3    H231346   0.124   3.636   0.933 -0.5012  1.1120 -1.4095
 3263TIP3   OH231347   2.458   3.998   1.456 -0.6277 -0.5489  0.0757
 3263TIP3    H131348   2.549   3.967   1.451 -0.8359 -0.9826 -1.3305
 3263TIP3    H231349   2.421   3.950   1.531  0.2970 -0.3563  0.6693
 3264TIP3   OH231350   2.912   5.918   7.070  0.8092 -0.1771  0.1230
 3264TIP3    H131351   2.935   5.962   6.988  0.5602  1.3646  0.8549
 3264TIP3    H231352   2.872   5.986   7.124  1.7434 -0.9475  1.8709
 3265TIP3   OH231353   0.094   1.435   8.535  0.0622 -0.6129  0.2842
 3265TIP3    H131354   0.118   1.344   8.553  0.4719 -0.5102  0.2673
 3265TIP3    H231355   0.022   1.453   8.595 -0.2639 -1.0614  0.0347
 3266TIP3   OH231356   4.778   4.356   6.576  0.0724 -0.2789  0.1354
 3266TIP3    H131357   4.819   4.438   6.604  0.8441 -1.0632  1.3737
 3266TIP3    H231358   4.686   4.379   6.562  0.4909  1.0252 -0.6035
 3267TIP3   OH231359   6.349   5.557   8.287 -0.0348 -0.3250 -0.1607
 3267TIP3    H131360   6.413   5.488   8.268 -0.8290 -0.8412 -1.0921
 3267TIP3    H231361   6.347   5.563   8.382 -1.4756 -3.1263  0.0907
 3268TIP3   OH231362   5.971   4.669   1.204 -0.6121 -0.1212  0.0566
 3268TIP3    H131363   5.933   4.736   1.261 -0.8209  0.0454 -0.2768
 3268TIP3    H231364   6.014   4.718   1.134  0.8304 -0.2776  0.7886
 3269TIP3   OH231365   2.618   3.817   1.588  0.0024  0.1469 -0.4805
 3269TIP3    H131366   2.631   3.880   1.659  2.2137 -0.2119 -0.4968
 3269TIP3    H231367   2.707   3.789   1.564 -0.7907 -1.0841 -2.1806
 3270TIP3   OH231368   1.458   4.460   6.425  0.3078  0.3420  0.6507
 3270TIP3    H131369   1.520   4.452   6.498  0.2900 -0.6099  0.5700
 3270TIP3    H231370   1.509   4.437   6.348  0.0967  0.4796  0.4701
 3271TIP3   OH231371   6.009   5.660   6.272 -0.1696  0.4540  0.0165
 3271TIP3    H131372   6.087   5.715   6.262 -0.0888  0.7781  1.9791
 3271TIP3    H231373   6.033   5.577   6.231  0.5815  1.0933 -0.8889
 3272TIP3   OH231374   4.562   1.064   7.217 -0.2036  0.2184  0.6591
 3272TIP3    H131375   4.635   1.056   7.278 -0.0837  0.1072  0.5020
 3272TIP3    H231376   4.601   1.098   7.137 -0.4305  0.7738  0.7809
 3273TIP3   OH231377   3.039   2.622   0.987  0.4274  0.0028 -0.4587
 3273TIP3    H131378   3.044   2.600   0.894  1.0932  1.3886 -0.7785
 3273TIP3    H231379   2.965   2.682   0.994 -0.1862 -0.7984  0.0728
 3274TIP3   OH231380   0.817   3.129   6.983  0.0010 -0.7797 -0.0312
 3274TIP3    H131381   0.790   3.207   6.934  1.6183 -0.1751 -0.0129
 3274TIP3    H231382   0.837   3.064   6.914  0.8457 -0.4227 -0.1225
 3275TIP3   OH231383   3.651   5.717   8.391  0.2410 -0.3690 -0.4968
 3275TIP3    H131384   3.597   5.660   8.446  1.5585 -0.6637  0.5466
 3275TIP3    H231385   3.686   5.782   8.451 -0.4097  0.9606 -1.4980
 3276TIP3   OH231386   3.488   6.059   7.306  0.7119  0.3676  0.2381
 3276TIP3    H131387   3.573   6.086   7.272  0.9127  1.0002  1.1888
 3276TIP3    H231388   3.445   6.141   7.330  0.0210  0.0222  0.2100
 3277TIP3   OH231389   2.659   5.136   0.841 -0.2827  0.1878 -0.1727
 3277TIP3    H131390   2.722   5.188   0.890  0.1917 -1.0937  0.6092
 3277TIP3    H231391   2.666   5.168   0.751 -0.5793  2.0070  0.4203
 3278TIP3   OH231392   6.192   0.091   6.857 -0.2545  0.5196 -0.2300
 3278TIP3    H131393   6.286   0.074   6.864 -0.0214  1.8154 -0.0133
 3278TIP3    H231394   6.152   0.004   6.865  0.8674  0.0362  0.4643
 3279TIP3   OH231395   2.004   5.120   7.179 -0.5404 -0.4627  0.6142
 3279TIP3    H131396   2.035   5.054   7.242 -1.2323 -0.5458  0.8702
 3279TIP3    H231397   2.032   5.086   7.094  0.3250 -0.3946  0.8592
 3280TIP3   OH231398   0.894   5.225   0.384 -0.4263  0.1082  0.5638
 3280TIP3    H131399   0.908   5.248   0.292 -0.5700  2.7156  1.1032
 3280TIP3    H231400   0.823   5.160   0.382  0.3033 -0.7086 -1.1929
 3281TIP3   OH231401   0.079   0.556   7.629 -0.4786  0.5499 -0.0860
 3281TIP3    H131402   0.115   0.485   7.683  1.5228  1.4442 -0.1314
 3281TIP3    H231403   0.118   0.542   7.543 -3.7521 -0.9444 -1.4915
 3282TIP3   OH231404   2.913   5.420   1.438  0.0545 -0.0822  0.1610
 3282TIP3    H131405   2.901   5.513   1.415  1.6289 -0.2595 -1.5944
 3282TIP3    H231406   2.833   5.397   1.486 -1.1296  1.7320 -0.8079
 3283TIP3   OH231407   5.871   4.254   7.960  0.0869 -0.3787  0.0156
 3283TIP3    H131408   5.809   4.216   7.898  0.4195  0.4022 -0.8029
 3283TIP3    H231409   5.951   4.202   7.949 -0.3538 -1.3151  0.9937
 3284TIP3   OH231410   3.690   0.702   7.782 -0.0883 -0.2596  0.0355
 3284TIP3    H131411   3.645   0.777   7.743  0.2711 -0.2030 -0.2747
 3284TIP3    H231412   3.644   0.625   7.749 -0.2576 -0.1894  0.1039
 3285TIP3   OH231413   1.831   3.450   7.871  0.1613  0.1880 -0.1057
 3285TIP3    H131414   1.900   3.513   7.854 -0.0588  0.3145 -0.5509
 3285TIP3    H231415   1.763   3.470   7.806  0.8883 -1.7231 -1.5483
 3286TIP3   OH231416   0.664   4.079   6.663 -0.3556 -0.2911 -0.4460
 3286TIP3    H131417   0.650   4.101   6.570  1.1527 -0.7651 -0.8095
 3286TIP3    H231418   0.638   3.987   6.669 -0.0811 -0.3705 -0.4845
 3287TIP3   OH231419   5.177   5.275   1.259  0.0556  0.0661 -0.8444
 3287TIP3    H131420   5.177   5.370   1.275  0.0820 -0.0860  0.1070
 3287TIP3    H231421   5.218   5.238   1.337  1.0310 -0.6607 -1.6844
 3288TIP3   OH231422   3.723   1.960   1.757 -0.0581  0.0305 -0.4138
 3288TIP3    H131423   3.724   2.055   1.774 -0.9680 -0.0200 -0.0130
 3288TIP3    H231424   3.747   1.921   1.841  0.7568 -0.0918 -0.6971
 3289TIP3   OH231425   2.558   5.228   8.001 -0.6203 -0.3435 -0.1280
 3289TIP3    H131426   2.625   5.266   8.058 -0.5672 -2.0863  1.0528
 3289TIP3    H231427   2.508   5.170   8.058 -1.0318 -1.6212 -1.7121
 3290TIP3   OH231428   2.658   2.992   0.383 -0.0133 -0.5175  0.4183
 3290TIP3    H131429   2.621   2.979   0.471 -2.1059 -1.3453 -0.5060
 3290TIP3    H231430   2.675   2.903   0.352  2.3521 -0.1711  0.5778
 3291TIP3   OH231431   3.143   0.947   8.652  0.3414 -0.6620 -0.3563
 3291TIP3    H131432   3.077   0.980   8.591  2.0439  2.0963 -0.8532
 3291TIP3    H231433   3.094   0.928   8.732 -1.6280 -2.5171 -1.8603
 3292TIP3   OH231434   6.693   3.231   8.106  0.2275  0.2427  0.2011
 3292TIP3    H131435   6.635   3.186   8.044  0.0917 -1.0581  1.2455
 3292TIP3    H231436   6.781   3.206   8.079  0.1231 -1.8986  1.6263
 3293TIP3   OH231437   1.711   1.988   0.689  0.1700 -0.5586 -0.1749
 3293TIP3    H131438   1.684   1.965   0.600 -0.9539 -2.7975  0.6542
 3293TIP3    H231439   1.645   2.051   0.719 -0.3530 -0.9667 -0.4374
 3294TIP3   OH231440   4.542   6.737   0.812  0.6992 -0.2085  0.4341
 3294TIP3    H131441   4.507   6.688   0.887 -1.9360  0.5037 -0.2148
 3294TIP3    H231442   4.622   6.690   0.788 -0.3818 -2.7152  1.3636
 3295TIP3   OH231443   6.400   6.015   2.128  0.5998 -0.0258 -0.1320
 3295TIP3    H131444   6.352   6.086   2.085 -1.6264 -0.5111  1.3618
 3295TIP3    H231445   6.394   5.941   2.067 -0.8916 -0.1571  0.1245
 3296TIP3   OH231446   3.282   2.458   1.495 -0.0468 -0.0872  0.3677
 3296TIP3    H131447   3.313   2.547   1.512 -0.2621  0.1182 -0.2808
 3296TIP3    H231448   3.201   2.450   1.545 -0.0859  0.1216  0.3381
 3297TIP3   OH231449   4.801   1.490   7.827  0.4113 -0.2170 -0.2108
 3297TIP3    H131450   4.808   1.571   7.777  1.9835 -0.5365 -0.5638
 3297TIP3    H231451   4.827   1.421   7.766 -1.1912 -1.0593 -0.0103
 3298TIP3   OH231452   5.257   2.392   0.855  0.0083  0.5476 -0.9476
 3298TIP3    H131453   5.176   2.379   0.807 -1.6568  0.4778  1.6697
 3298TIP3    H231454   5.308   2.313   0.837 -1.4869 -0.4764 -0.8985
 3299TIP3   OH231455   1.185   4.670   6.611 -0.0077 -0.2269 -0.1703
 3299TIP3    H131456   1.208   4.712   6.528  0.3793 -0.4412 -0.1708
 3299TIP3    H231457   1.222   4.583   6.606  1.4602  0.2967  0.8856
 3300TIP3   OH231458   2.336   4.436   7.988 -0.0327  0.6686 -0.3236
 3300TIP3    H131459   2.255   4.470   8.025  0.3564  0.7813  0.4363
 3300TIP3    H231460   2.372   4.508   7.936  0.2162  1.0334  0.3568
 3301TIP3   OH231461   1.473   3.845   7.556 -0.1108 -0.0209 -0.0021
 3301TIP3    H131462   1.519   3.872   7.477 -0.7470  1.0880 -0.0201
 3301TIP3    H231463   1.541   3.813   7.614  0.3760 -0.7376 -0.9524
 3302TIP3   OH231464   3.597   4.946   7.778  0.2412 -0.0378  0.3172
 3302TIP3    H131465   3.543   5.020   7.750 -1.1267 -1.2554 -0.4133
 3302TIP3    H231466   3.561   4.919   7.862 -0.5410 -1.0690 -0.3313
 3303TIP3   OH231467   5.464   6.347   1.706  0.6077 -0.8029  0.3870
 3303TIP3    H131468   5.492   6.339   1.615  0.9012 -1.2925  0.5186
 3303TIP3    H231469   5.409   6.426   1.707 -1.5655 -2.1860 -0.7467
 3304TIP3   OH231470   2.679   6.259   8.604  0.0135 -0.4422 -0.6624
 3304TIP3    H131471   2.771   6.274   8.625  0.3837 -1.3837 -1.5363
 3304TIP3    H231472   2.635   6.258   8.689  0.9560 -0.8700 -0.1573
 3305TIP3   OH231473   0.576   6.282   0.635  0.0903 -0.7082 -0.2627
 3305TIP3    H131474   0.525   6.210   0.598  0.0969 -1.0842  0.4281
 3305TIP3    H231475   0.651   6.239   0.675 -1.9146 -0.8738  3.8335
 3306TIP3   OH231476   5.605   1.883   8.491  0.1886  0.7469  0.2267
 3306TIP3    H131477   5.660   1.805   8.503  0.1318  0.4747 -1.1158
 3306TIP3    H231478   5.649   1.933   8.421 -0.1694  1.5515  0.5680
 3307TIP3   OH231479   4.701   2.276   0.339 -0.1813 -0.4905 -0.5710
 3307TIP3    H131480   4.709   2.326   0.420  1.3044 -1.1233 -0.2963
 3307TIP3    H231481   4.615   2.299   0.305 -0.5222  0.3596  0.7998
 3308TIP3   OH231482   3.598   4.433   7.130  0.1386 -0.3033 -0.2786
 3308TIP3    H131483   3.503   4.441   7.136  0.0038 -1.8841 -0.0639
 3308TIP3    H231484   3.624   4.508   7.076 -1.4900 -1.1550 -2.3943
 3309TIP3   OH231485   5.965   4.023   7.498 -0.1055 -0.1833 -0.5606
 3309TIP3    H131486   5.879   4.065   7.498 -0.2726 -0.4612 -1.9735
 3309TIP3    H231487   5.958   3.955   7.430  1.5250  0.4279 -1.3949
 3310TIP3   OH231488   0.501   4.460   0.017  0.2891 -0.6068  0.2390
 3310TIP3    H131489   0.532   4.482  -0.071  0.0369 -1.4960 -0.0873
 3310TIP3    H231490   0.460   4.374   0.007 -0.5252 -0.3347  1.0518
 3311TIP3   OH231491   4.515   6.042   8.415 -0.1980  0.0808  0.3745
 3311TIP3    H131492   4.584   6.028   8.350 -0.4818  0.5700 -0.0362
 3311TIP3    H231493   4.456   5.967   8.404 -2.1846  1.8864 -2.4090
 3312TIP3   OH231494   5.595   1.073   0.253  0.5232 -0.6045  0.9471
 3312TIP3    H131495   5.557   1.045   0.336  0.5154 -0.4487  0.9964
 3312TIP3    H231496   5.632   0.994   0.216 -1.1848 -1.0839  0.1799
 3313TIP3   OH231497   6.859   0.437   2.393 -0.0222 -0.4207  0.2687
 3313TIP3    H131498   6.953   0.428   2.377  0.0239  1.7362 -1.0927
 3313TIP3    H231499   6.819   0.367   2.342  0.7883 -0.5363 -0.2349
 3314TIP3   OH231500   6.117   5.072   7.012  0.6698 -0.3698 -0.2853
 3314TIP3    H131501   6.040   5.104   7.058  0.8724 -2.5842  1.7249
 3314TIP3    H231502   6.086   5.053   6.923 -0.4242  1.1994 -0.2787
 3315TIP3   OH231503   1.499   1.695   0.045  0.0593  0.0072  0.1795
 3315TIP3    H131504   1.407   1.709   0.070 -0.4164  0.6610 -1.7446
 3315TIP3    H231505   1.513   1.601   0.060 -0.9546 -0.1157  0.4592
 3316TIP3   OH231506   0.203   5.816   1.509 -0.1439  0.0293  0.1066
 3316TIP3    H131507   0.202   5.754   1.583 -1.2635  1.2996  1.2123
 3316TIP3    H231508   0.123   5.867   1.520 -0.0651  0.6061 -1.7185
 3317TIP3   OH231509   4.366   6.663   6.242 -0.2011 -0.3249  0.1452
 3317TIP3    H131510   4.416   6.683   6.321 -0.5491 -0.8513  0.5116
 3317TIP3    H231511   4.387   6.571   6.223  0.6052  0.0572 -0.9216
 3318TIP3   OH231512   4.991   4.026   8.604 -0.1175  0.5846 -0.0625
 3318TIP3    H131513   5.056   3.981   8.549 -1.9656 -1.0418 -1.0257
 3318TIP3    H231514   5.029   4.024   8.692  2.3065  2.0738 -0.9698
 3319TIP3   OH231515   4.029   0.042   0.120  0.3646 -0.0362  0.0509
 3319TIP3    H131516   4.123   0.056   0.134  0.4461 -1.6388  1.4681
 3319TIP3    H231517   4.024  -0.044   0.079 -0.3591  1.4591 -3.2950
 3320TIP3   OH231518   2.342   4.197   0.837 -0.0851  0.1271  0.4892
 3320TIP3    H131519   2.340   4.167   0.746  0.1461 -0.8016  0.7774
 3320TIP3    H231520   2.360   4.291   0.832  0.9519 -0.1098 -0.3821
 3321TIP3   OH231521   0.994   0.522   7.731 -0.4828 -0.1339 -0.3638
 3321TIP3    H131522   1.059   0.462   7.767 -0.2827  0.1133 -0.3134
 3321TIP3    H231523   0.919   0.467   7.710  0.4513 -0.7573 -2.3042
 3322TIP3   OH231524   5.833   5.630   1.416  0.4983 -0.4214 -0.1813
 3322TIP3    H131525   5.833   5.626   1.321 -1.7441 -0.1636 -0.2459
 3322TIP3    H231526   5.770   5.563   1.443 -0.8188  1.2114  0.9701
 3323TIP3   OH231527   5.300   6.270   8.527 -0.1973  0.2766 -0.3887
 3323TIP3    H131528   5.366   6.227   8.474 -0.4985  0.0264 -0.5642
 3323TIP3    H231529   5.249   6.322   8.465  0.6676  1.5482 -0.0741
 3324TIP3   OH231530   4.043   1.068   0.717 -0.3891  0.4605  0.1966
 3324TIP3    H131531   3.954   1.047   0.691 -0.4832 -0.9646  1.5364
 3324TIP3    H231532   4.033   1.124   0.794 -0.1393 -0.0085  0.5758
 3325TIP3   OH231533   4.766   2.588   6.836 -0.3187 -0.1917 -0.0193
 3325TIP3    H131534   4.789   2.676   6.804 -1.0232 -0.0223 -0.0783
 3325TIP3    H231535   4.789   2.530   6.765  1.2650 -0.2007  0.4673
 3326TIP3   OH231536   0.769   3.503   7.067 -0.4203 -0.1207 -0.1667
 3326TIP3    H131537   0.809   3.498   7.153  1.2776  1.4261 -0.8132
 3326TIP3    H231538   0.842   3.512   7.006 -1.6536  1.6446 -1.5162
 3327TIP3   OH231539   0.787   5.946   2.383  0.0984  0.1821 -0.3518
 3327TIP3    H131540   0.708   5.904   2.416  2.3855 -1.2155  4.2980
 3327TIP3    H231541   0.855   5.878   2.389  2.8531  2.8487  2.0940
 3328TIP3   OH231542   2.940   1.635   0.339  0.0521 -0.0204 -0.1686
 3328TIP3    H131543   3.023   1.588   0.341 -0.1217 -0.4319 -1.5652
 3328TIP3    H231544   2.923   1.658   0.430  3.2182  2.7445 -0.0768
 3329TIP3   OH231545   4.741   4.199   7.211 -0.1996 -0.1733 -0.0751
 3329TIP3    H131546   4.680   4.211   7.283 -1.5483 -1.9646 -0.8481
 3329TIP3    H231547   4.695   4.236   7.135  1.2248  1.7516 -0.0667
 3330TIP3   OH231548   4.253   5.225   0.313  0.2773  0.3157 -0.5067
 3330TIP3    H131549   4.336   5.240   0.268  0.0562 -0.0154 -1.0276
 3330TIP3    H231550   4.275   5.232   0.406  0.5649  1.8683 -0.6690
 3331TIP3   OH231551   0.659   1.758   7.861  0.0255  0.2191  0.3794
 3331TIP3    H131552   0.601   1.685   7.885 -1.8163  1.2678 -0.6421
 3331TIP3    H231553   0.719   1.720   7.797 -1.5541 -0.2340 -0.9062
 3332TIP3   OH231554   0.262   1.078   6.676 -0.9139  0.8000 -0.6860
 3332TIP3    H131555   0.203   1.003   6.666  0.4218 -0.3840  0.0075
 3332TIP3    H231556   0.241   1.113   6.763 -0.2890  0.0720 -0.2274
 3333TIP3   OH231557   0.108   2.620   8.606  0.5456 -0.1772  0.1721
 3333TIP3    H131558   0.030   2.645   8.656  0.3809 -0.1136 -0.1184
 3333TIP3    H231559   0.074   2.569   8.533  0.6894  0.7095 -0.5225
 3334TIP3   OH231560   5.758   6.855   8.652 -0.4303 -1.0716 -0.2090
 3334TIP3    H131561   5.668   6.835   8.677 -0.4473 -0.9955 -0.2090
 3334TIP3    H231562   5.805   6.862   8.736 -0.8618  0.9825 -0.0886
 3335TIP3   OH231563   6.455   0.041   8.135 -0.6130 -0.0826 -0.1048
 3335TIP3    H131564   6.364   0.069   8.140 -0.1448  2.0569 -1.9421
 3335TIP3    H231565   6.502   0.102   8.191 -0.1684 -0.5214  0.0090
 3336TIP3   OH231566   1.647   5.152   8.627 -0.1087  0.0495  0.2699
 3336TIP3    H131567   1.602   5.236   8.616  0.1546  0.2685  0.8023
 3336TIP3    H231568   1.714   5.170   8.694  1.3375 -0.0491 -1.0884
 3337TIP3   OH231569   6.347   5.840   7.775 -0.5701 -0.0008 -0.6796
 3337TIP3    H131570   6.419   5.827   7.836 -1.4566  1.2172  0.6879
 3337TIP3    H231571   6.389   5.840   7.689  1.1644  1.2785  0.1060
 3338TIP3   OH231572   1.011   2.505   1.724 -0.0972  0.6252 -0.4827
 3338TIP3    H131573   0.926   2.511   1.681 -1.8890  1.7764  2.8517
 3338TIP3    H231574   1.010   2.419   1.767 -0.3242  1.2882  0.8872
 3339TIP3   OH231575   1.277   3.153   7.385 -0.5332  0.5288  0.1746
 3339TIP3    H131576   1.200   3.099   7.404 -1.1104  1.7669  1.4890
 3339TIP3    H231577   1.263   3.234   7.434  1.8877  0.5729  0.9311
 3340TIP3   OH231578   1.323   6.545   8.439  0.6315  0.4038 -0.3892
 3340TIP3    H131579   1.343   6.601   8.514  0.7736  1.4847 -1.2119
 3340TIP3    H231580   1.293   6.605   8.371 -0.6969 -0.6780 -0.8128
 3341TIP3   OH231581   4.540   4.242   1.882 -0.2152 -0.0094 -0.1114
 3341TIP3    H131582   4.579   4.304   1.943 -0.2091  2.7221 -2.6228
 3341TIP3    H231583   4.614   4.194   1.845  0.3220  1.6265 -1.2576
 3342TIP3   OH231584   6.401   4.679   0.961 -0.4117  0.3689  0.3472
 3342TIP3    H131585   6.337   4.719   1.020 -0.9362 -0.9160  0.6778
 3342TIP3    H231586   6.384   4.721   0.876  0.1922  2.0611  1.0147
 3343TIP3   OH231587   0.335   5.231   1.855 -0.9601  0.1304 -0.3090
 3343TIP3    H131588   0.371   5.152   1.895  1.7651  1.3805 -0.0700
 3343TIP3    H231589   0.373   5.303   1.905 -1.7871  1.6459 -1.7480
 3344TIP3   OH231590   3.428   0.027   7.564 -0.5087 -0.1329 -0.1477
 3344TIP3    H131591   3.435   0.099   7.626  1.7980 -1.0842  0.7927
 3344TIP3    H231592   3.420  -0.051   7.619 -1.6065 -0.7389 -1.1271
 3345TIP3   OH231593   2.429   5.660   8.145  0.4104 -0.0503  0.1211
 3345TIP3    H131594   2.489   5.731   8.168 -0.5637  0.8944 -0.2035
 3345TIP3    H231595   2.373   5.651   8.222  1.4430 -1.4933  0.7594
 3346TIP3   OH231596   3.566   4.316   1.865  0.5031  0.2294  0.1856
 3346TIP3    H131597   3.566   4.286   1.955 -4.1361  0.4307  0.4909
 3346TIP3    H231598   3.607   4.403   1.868  0.1243  0.3756  2.1701
 3347TIP3   OH231599   1.730   2.310   7.219  0.5487  0.2646  0.6930
 3347TIP3    H131600   1.706   2.229   7.263  1.9982 -0.8947 -0.5642
 3347TIP3    H231601   1.814   2.291   7.177 -0.3399  1.5349 -1.8675
 3348TIP3   OH231602   0.123   2.126   0.660  0.0611  0.3089  0.1153
 3348TIP3    H131603   0.152   2.191   0.597  1.2589 -1.4624 -1.2854
 3348TIP3    H231604   0.029   2.117   0.644  0.1216  0.7821 -0.5583
 3349TIP3   OH231605   5.531   5.813   1.728  0.0989 -0.7110  0.7613
 3349TIP3    H131606   5.577   5.803   1.812 -0.6390  0.2961  1.3080
 3349TIP3    H231607   5.499   5.903   1.729 -3.3999 -1.8024  1.2191
 3350TIP3   OH231608   2.276   2.756   8.563  0.0863 -0.5502  0.0566
 3350TIP3    H131609   2.361   2.739   8.605 -0.2272 -2.9735 -0.1281
 3350TIP3    H231610   2.258   2.676   8.513 -1.5752  0.5543 -1.2079
 3351TIP3   OH231611   5.684   4.502   7.138 -0.0841 -0.4601  0.2490
 3351TIP3    H131612   5.603   4.462   7.107 -0.9562  1.6559 -0.3310
 3351TIP3    H231613   5.727   4.433   7.188 -0.9810 -2.4640 -1.5806
 3352TIP3   OH231614   0.947   4.471   1.314 -0.3609 -0.1793 -0.6436
 3352TIP3    H131615   0.936   4.379   1.338  2.8947 -0.4859  0.1719
 3352TIP3    H231616   0.954   4.470   1.218  1.7876 -1.1994 -0.5539
 3353TIP3   OH231617   5.132   1.747   7.170 -0.5290 -0.4800 -0.4619
 3353TIP3    H131618   5.099   1.697   7.245 -0.4346 -0.1059 -0.1671
 3353TIP3    H231619   5.068   1.817   7.158 -1.3857 -1.4384 -1.7230
 3354TIP3   OH231620   5.347   3.998   1.900  0.1054 -0.1175  0.0097
 3354TIP3    H131621   5.413   3.977   1.833 -0.3436 -0.8752 -0.2139
 3354TIP3    H231622   5.351   3.924   1.961  0.9500  0.8708  1.1824
 3355TIP3   OH231623   3.366   6.267   1.141  0.7517 -0.2737  0.4913
 3355TIP3    H131624   3.402   6.247   1.227 -1.2997  2.5813  2.1849
 3355TIP3    H231625   3.418   6.342   1.110  0.2847 -0.0965  0.1151
 3356TIP3   OH231626   0.882   3.733   0.552 -0.6105  0.0736  0.4701
 3356TIP3    H131627   0.959   3.730   0.495 -0.3646 -0.3424  0.8125
 3356TIP3    H231628   0.900   3.806   0.611 -1.4256  1.2983 -0.7386
 3357TIP3   OH231629   3.578   5.062   7.446  0.4213  0.5437  0.1765
 3357TIP3    H131630   3.596   5.085   7.355 -0.0631  1.5986  0.3387
 3357TIP3    H231631   3.641   4.992   7.465  0.6753  0.4585 -0.8949
 3358TIP3   OH231632   1.113   4.998   8.121  0.3089 -0.4182  0.2420
 3358TIP3    H131633   1.189   5.056   8.136  0.3873 -0.4053 -0.1813
 3358TIP3    H231634   1.072   5.034   8.042  2.0272 -2.6116 -1.8223
 3359TIP3   OH231635   4.902   4.872   0.234 -0.5095  0.3716  0.0507
 3359TIP3    H131636   4.980   4.920   0.208 -0.4197 -0.8799 -2.2339
 3359TIP3    H231637   4.830   4.914   0.187 -0.9590  0.4392  0.7823
 3360TIP3   OH231638   3.145   5.494   1.563 -0.1111  0.1473  0.4513
 3360TIP3    H131639   3.064   5.451   1.540  0.3556 -0.9338  0.7825
 3360TIP3    H231640   3.118   5.581   1.594 -1.1594 -0.3036  0.8414
 3361TIP3   OH231641   2.464   1.430   7.947 -0.2701 -0.2894  0.0672
 3361TIP3    H131642   2.557   1.415   7.962 -0.0916  1.1792  0.5934
 3361TIP3    H231643   2.458   1.522   7.924 -1.7336  0.0581  1.5999
 3362TIP3   OH231644   1.107   3.601   1.547  0.0845 -0.3488  0.1360
 3362TIP3    H131645   1.122   3.562   1.462 -2.1078 -1.5371  0.2077
 3362TIP3    H231646   1.013   3.587   1.564  0.3331  0.3012  2.5089
 3363TIP3   OH231647   0.538   3.536   7.480 -0.0349  0.8656  0.1490
 3363TIP3    H131648   0.463   3.519   7.537 -0.2433  1.7876  0.1751
 3363TIP3    H231649   0.504   3.596   7.413  0.4737  0.6466 -0.3146
 3364TIP3   OH231650   1.486   0.216   2.450 -0.4857 -0.5163  0.4907
 3364TIP3    H131651   1.536   0.259   2.380  1.7169 -0.1574  2.1619
 3364TIP3    H231652   1.501   0.123   2.436 -2.3559 -0.6474 -1.0647
 3365TIP3   OH231653   3.328   6.559   8.167 -0.0334 -0.0026 -0.1662
 3365TIP3    H131654   3.335   6.614   8.246  0.6753  0.2487 -0.3942
 3365TIP3    H231655   3.242   6.580   8.131 -0.5442 -0.4368  0.7670
 3366TIP3   OH231656   0.414   1.525   1.635 -0.7386 -0.1804  0.9635
 3366TIP3    H131657   0.379   1.614   1.634 -1.2967 -0.3963  0.9296
 3366TIP3    H231658   0.509   1.537   1.645 -0.8431  0.4038  1.3307
 3367TIP3   OH231659   6.861   1.426   0.495  0.0531 -0.0075  0.7354
 3367TIP3    H131660   6.849   1.521   0.499 -0.0595 -0.0310  1.0508
 3367TIP3    H231661   6.848   1.397   0.586 -0.9153 -0.4374  0.4748
 3368TIP3   OH231662   1.192   5.179   7.830 -0.0979 -0.6018  0.0357
 3368TIP3    H131663   1.262   5.239   7.855  1.3937 -2.3229  0.1786
 3368TIP3    H231664   1.221   5.141   7.747  0.4245 -3.1673  1.2978
 3369TIP3   OH231665   0.934   2.289   0.266  0.5381 -0.4683 -0.1929
 3369TIP3    H131666   0.916   2.356   0.333  2.2226  0.2405 -0.4018
 3369TIP3    H231667   0.887   2.212   0.297  2.1036 -0.5081  2.4373
 3370TIP3   OH231668   4.284   6.271   0.900  0.4918 -0.1980 -0.0460
 3370TIP3    H131669   4.227   6.201   0.869  0.8600 -0.3188 -0.4723
 3370TIP3    H231670   4.285   6.262   0.995 -0.3354 -0.0833 -0.0173
 3371TIP3   OH231671   6.319   1.667   0.989  0.1771  0.2968 -0.2746
 3371TIP3    H131672   6.325   1.574   0.967 -0.6807  0.4244 -1.1384
 3371TIP3    H231673   6.230   1.677   1.023 -0.1273  0.9874 -1.2242
 3372TIP3   OH231674   2.168   6.776   0.893  0.0447 -0.2247 -0.3756
 3372TIP3    H131675   2.192   6.848   0.835  1.0599  0.3006  0.6731
 3372TIP3    H231676   2.250   6.746   0.931 -0.3836 -1.7948 -0.5981
 3373TIP3   OH231677   1.950   4.161   0.796  0.4410  0.4334 -0.3939
 3373TIP3    H131678   1.993   4.214   0.730 -0.3837  1.0652 -0.4391
 3373TIP3    H231679   1.934   4.221   0.869  3.2288 -0.7020  1.3035
 3374TIP3   OH231680   6.550   4.827   1.872  0.3507  0.0293 -0.6360
 3374TIP3    H131681   6.465   4.833   1.827  0.0396 -1.3383 -0.2731
 3374TIP3    H231682   6.600   4.901   1.838 -0.4678  0.0064 -1.9783
 3375TIP3   OH231683   0.839   5.489   1.564 -0.2792  0.1326  0.4074
 3375TIP3    H131684   0.801   5.406   1.592  3.3643 -1.6385  0.7260
 3375TIP3    H231685   0.854   5.478   1.470 -0.5699  0.7967  0.2802
 3376TIP3   OH231686   4.936   6.572   6.643  0.2202  0.5550  0.2690
 3376TIP3    H131687   4.935   6.514   6.719 -1.0042  1.9465  1.3871
 3376TIP3    H231688   4.845   6.602   6.635  0.2605  0.2391 -1.9446
 3377TIP3   OH231689   1.348   5.588   1.389  0.2119  0.1701 -0.6408
 3377TIP3    H131690   1.344   5.682   1.406 -0.5684  0.0827 -0.2870
 3377TIP3    H231691   1.282   5.573   1.322  0.5594 -0.0818 -0.9325
 3378TIP3   OH231692   5.419   4.167   7.599  0.0634 -0.1894 -0.3756
 3378TIP3    H131693   5.356   4.238   7.603 -1.5204 -1.3702 -2.2738
 3378TIP3    H231694   5.369   4.089   7.623  1.7208 -0.7525  1.5419
 3379TIP3   OH231695   1.167   0.177   6.262  0.4358 -0.2039 -0.1140
 3379TIP3    H131696   1.215   0.094   6.254  0.4080 -0.0747 -1.9546
 3379TIP3    H231697   1.079   0.156   6.231 -0.3937 -0.1101  1.9909
 3380TIP3   OH231698   2.723   0.830   6.366  0.4285 -0.7318 -0.5718
 3380TIP3    H131699   2.637   0.851   6.330  0.8284  0.6581 -0.7758
 3380TIP3    H231700   2.783   0.843   6.293  0.9756 -0.2430 -0.0431
 3381TIP3   OH231701   0.983   5.144   6.619  0.6149 -0.1461  0.4088
 3381TIP3    H131702   0.981   5.054   6.586 -1.0796  0.3894 -1.1363
 3381TIP3    H231703   1.013   5.196   6.544  0.2962  0.7208  0.8715
 3382TIP3   OH231704   2.427   1.373   6.069 -0.4255  0.4329 -0.1144
 3382TIP3    H131705   2.357   1.387   6.004 -1.5056 -1.6789  0.4961
 3382TIP3    H231706   2.497   1.332   6.019 -0.8048 -0.1552 -0.1694
 3383TIP3   OH231707   3.374   5.637   7.436  0.4199 -0.7246  0.3716
 3383TIP3    H131708   3.287   5.653   7.400  1.2945  1.3454 -1.0018
 3383TIP3    H231709   3.373   5.682   7.521 -0.0894 -1.4523  0.7668
 3384TIP3   OH231710   0.694   3.724   6.434  0.3582 -0.6956  0.3060
 3384TIP3    H131711   0.744   3.656   6.480 -0.2215 -1.2524  0.1354
 3384TIP3    H231712   0.760   3.773   6.385  1.0845  0.3059  2.1740
 3385TIP3   OH231713   6.352   6.533   2.114  0.2499 -0.6026 -0.0610
 3385TIP3    H131714   6.370   6.453   2.065  0.8899 -0.3995 -0.1686
 3385TIP3    H231715   6.438   6.573   2.127 -0.0610  0.0524  0.0226
 3386TIP3   OH231716   2.378   1.630   0.954  0.3546 -0.0725 -0.4020
 3386TIP3    H131717   2.323   1.655   1.029 -1.7406 -1.3999 -1.4135
 3386TIP3    H231718   2.402   1.539   0.971  0.8812 -0.0053 -0.7712
 3387TIP3   OH231719   6.784   5.642   7.385  0.6898 -0.7151 -0.2531
 3387TIP3    H131720   6.854   5.585   7.416  0.1651 -1.6173 -0.6858
 3387TIP3    H231721   6.704   5.603   7.419  0.3059 -0.3015 -0.6539
 3388TIP3   OH231722   2.085   2.923   0.674  0.1714  0.0902 -0.4371
 3388TIP3    H131723   2.026   2.877   0.614 -0.3178  0.6902 -0.4240
 3388TIP3    H231724   2.041   2.917   0.759 -0.0559  0.8445 -0.4930
 3389TIP3   OH231725   4.506   6.798   8.026 -0.4881 -0.0672 -0.3784
 3389TIP3    H131726   4.439   6.748   8.073 -0.1831 -0.7540 -0.6578
 3389TIP3    H231727   4.465   6.883   8.009 -1.2768 -0.4648 -0.5128
 3390TIP3   OH231728   0.160   3.349   7.964  0.4191 -0.4651 -0.0331
 3390TIP3    H131729   0.152   3.311   7.877 -0.7700  0.0096 -0.1502
 3390TIP3    H231730   0.099   3.299   8.018 -0.7580  0.8704 -0.0679
 3391TIP3   OH231731   3.995   5.291   6.599  0.3065  0.4082  0.5625
 3391TIP3    H131732   4.010   5.385   6.596 -0.7810  0.5996  0.6634
 3391TIP3    H231733   4.012   5.266   6.690  0.3918  0.5366  0.5817
 3392TIP3   OH231734   3.445   0.970   8.008 -0.0413 -0.0093  0.2619
 3392TIP3    H131735   3.498   1.022   8.068  1.6757  1.3278 -2.2162
 3392TIP3    H231736   3.375   1.028   7.980 -1.8455 -1.1697  2.1056
 3393TIP3   OH231737   0.647   6.478   6.828 -0.0639  0.2179 -0.1377
 3393TIP3    H131738   0.645   6.395   6.876 -0.8775  1.3886  1.9953
 3393TIP3    H231739   0.719   6.527   6.866  0.5507  0.4446 -1.5276
 3394TIP3   OH231740   0.804   2.686   1.117 -0.0387 -0.2627  0.5147
 3394TIP3    H131741   0.746   2.636   1.060  1.1014 -1.8234  0.6623
 3394TIP3    H231742   0.886   2.694   1.068  0.1024  0.6807  0.8739
 3395TIP3   OH231743   1.091   5.882   8.627 -0.1491  0.1491 -0.3644
 3395TIP3    H131744   1.076   5.966   8.670 -2.1658  0.7258 -2.0329
 3395TIP3    H231745   1.057   5.817   8.689 -0.7668  0.7596 -0.0449
 3396TIP3   OH231746   2.521   4.412   1.010 -0.3272  0.1080 -0.1404
 3396TIP3    H131747   2.453   4.445   0.951 -0.4796  0.3318  0.1545
 3396TIP3    H231748   2.489   4.435   1.098 -0.3085 -0.6051  0.0552
 3397TIP3   OH231749   2.954   1.388   1.294  0.1722 -0.0766  0.0174
 3397TIP3    H131750   2.991   1.449   1.357  0.1670  1.0658 -1.0586
 3397TIP3    H231751   2.860   1.404   1.296  0.0245 -0.9412  0.6333
 3398TIP3   OH231752   1.631   4.175   7.320 -0.3349 -0.3322  0.0647
 3398TIP3    H131753   1.557   4.235   7.332 -0.2377 -0.0630 -0.5966
 3398TIP3    H231754   1.596   4.106   7.264 -0.6292 -1.2554  1.3496
 3399TIP3   OH231755   4.870   3.663   6.910 -0.5674  0.0036  0.3312
 3399TIP3    H131756   4.793   3.637   6.961 -1.0094 -2.0588 -1.2642
 3399TIP3    H231757   4.844   3.649   6.819  1.2409  0.6344 -0.3168
 3400TIP3   OH231758   1.864   6.674   8.291 -0.7556 -0.1055 -0.3980
 3400TIP3    H131759   1.883   6.580   8.302 -0.7619 -0.1253 -0.5509
 3400TIP3    H231760   1.846   6.684   8.198  0.4381  0.2701 -0.5971
 3401TIP3   OH231761   4.540   4.524   6.597 -0.3634  0.3525 -0.1860
 3401TIP3    H131762   4.597   4.599   6.581 -0.7009  0.5297 -0.5901
 3401TIP3    H231763   4.457   4.549   6.556 -0.5023 -0.2087 -0.2448
 3402TIP3   OH231764   3.737   5.728   0.517  0.0727  0.2767 -0.6005
 3402TIP3    H131765   3.811   5.746   0.575 -0.1353  0.6643 -0.4442
 3402TIP3    H231766   3.699   5.815   0.501  0.2745  0.2023 -1.5185
 3403TIP3   OH231767   1.911   3.331   7.031  0.4360 -0.3320 -0.5704
 3403TIP3    H131768   1.931   3.315   6.939  1.9631 -0.4162 -0.2565
 3403TIP3    H231769   1.982   3.388   7.061 -0.2030 -0.0663  0.4755
 3404TIP3   OH231770   5.643   6.753   1.353  0.0684 -0.2151  0.5671
 3404TIP3    H131771   5.613   6.759   1.443 -1.6854 -1.7210  0.1429
 3404TIP3    H231772   5.621   6.664   1.326  0.4100  0.2489 -1.3898
 3405TIP3   OH231773   3.748   3.133   7.307  0.0353 -0.4218  0.0790
 3405TIP3    H131774   3.713   3.044   7.308  0.9270 -0.8066  2.3725
 3405TIP3    H231775   3.838   3.124   7.336  0.7613  1.0499 -1.5133
 3406TIP3   OH231776   3.710   1.259   1.252  0.6213  0.0199 -0.1381
 3406TIP3    H131777   3.685   1.331   1.310  0.8478  0.5200 -0.6577
 3406TIP3    H231778   3.635   1.199   1.254  0.2272  0.5134 -0.0909
 3407TIP3   OH231779   0.064   4.366   6.852  0.3488  0.2158 -0.4567
 3407TIP3    H131780   0.103   4.425   6.916 -0.6727 -1.8287  2.2375
 3407TIP3    H231781   0.138   4.312   6.821  0.2952 -1.6389  2.3492
 3408TIP3   OH231782   2.475   6.862   8.011 -0.4355 -0.4033 -0.2892
 3408TIP3    H131783   2.471   6.892   7.920 -1.2830 -2.0552 -0.8156
 3408TIP3    H231784   2.443   6.937   8.061  0.5092  0.7149 -1.2784
 3409TIP3   OH231785   2.612   5.622   7.927  0.3270  0.0759 -0.0585
 3409TIP3    H131786   2.537   5.634   7.985 -1.3755 -1.1025 -1.8605
 3409TIP3    H231787   2.584   5.660   7.844  1.5647 -0.7710 -0.9006
 3410TIP3   OH231788   4.570   0.730   0.258  0.3295 -0.1255  0.0576
 3410TIP3    H131789   4.602   0.738   0.348  1.1538  0.5075 -0.2820
 3410TIP3    H231790   4.513   0.805   0.246 -0.4918 -0.6943  0.3288
 3411TIP3   OH231791   6.461   5.213   7.825  0.2116 -0.2949 -0.9332
 3411TIP3    H131792   6.527   5.268   7.783  0.2988  0.8201  0.5475
 3411TIP3    H231793   6.469   5.128   7.783 -0.0583  0.8483 -3.4679
 3412TIP3   OH231794   6.172   5.359   7.068  0.3113  0.2117  0.1237
 3412TIP3    H131795   6.227   5.314   7.132 -0.0387 -2.4299 -1.2928
 3412TIP3    H231796   6.083   5.332   7.089  0.0758  0.3342 -0.6841
 3413TIP3   OH231797   1.131   0.614   0.754  0.4854 -0.1475 -0.4179
 3413TIP3    H131798   1.166   0.615   0.665 -0.5655 -1.6726 -0.8754
 3413TIP3    H231799   1.061   0.679   0.753  0.5087 -0.1258 -0.6888
 3414TIP3   OH231800   2.330   6.082   8.416  0.1402 -0.0006 -0.3837
 3414TIP3    H131801   2.337   6.099   8.322  1.0882  0.7302 -0.2002
 3414TIP3    H231802   2.340   6.168   8.457  0.7413 -0.4402  0.4195
 3415TIP3   OH231803   5.542   4.219   6.388  0.2460  0.0735 -0.5130
 3415TIP3    H131804   5.590   4.144   6.423  1.7690  0.6288 -1.3239
 3415TIP3    H231805   5.555   4.288   6.453 -1.1185 -0.3041  0.2119
 3416TIP3   OH231806   1.144   5.564   1.201 -0.1008 -0.1998 -0.2471
 3416TIP3    H131807   1.077   5.632   1.205  2.1345  2.2549 -1.4588
 3416TIP3    H231808   1.103   5.493   1.151 -2.2119  0.6053  0.2570
 3417TIP3   OH231809   5.020   6.169   0.719  0.0252  0.2318 -0.4567
 3417TIP3    H131810   5.048   6.251   0.758 -0.5118  0.4646 -0.5431
 3417TIP3    H231811   5.081   6.104   0.752 -0.6676  0.3367  1.1311
 3418TIP3   OH231812   3.405   4.847   7.191 -0.4031 -0.7139  0.3617
 3418TIP3    H131813   3.391   4.940   7.175  0.7632 -0.1062  2.4401
 3418TIP3    H231814   3.456   4.817   7.117  1.5954  1.0025  0.9551
 3419TIP3   OH231815   1.749   2.983   7.673 -0.8730 -0.3431 -0.0627
 3419TIP3    H131816   1.730   2.907   7.727  0.8826 -0.7263  0.0573
 3419TIP3    H231817   1.804   2.950   7.603  0.2519  0.8695  0.2162
 3420TIP3   OH231818   0.560   3.078   7.669 -0.4535 -0.6115  0.6920
 3420TIP3    H131819   0.519   3.028   7.740 -0.7362 -0.3089  0.7481
 3420TIP3    H231820   0.515   3.049   7.590 -0.4642 -0.6084  0.6971
 3421TIP3   OH231821   2.315   6.805   5.939 -0.1849  0.5446 -0.0554
 3421TIP3    H131822   2.245   6.763   5.888 -0.7376  0.2150  0.9453
 3421TIP3    H231823   2.328   6.747   6.014  1.8496  0.0864 -0.6819
 3422TIP3   OH231824   6.215   5.181   0.954 -0.7002  0.0480 -0.0367
 3422TIP3    H131825   6.156   5.158   0.883 -0.4126  0.4893 -0.4279
 3422TIP3    H231826   6.300   5.146   0.926 -0.4356  0.8386 -0.2538
 3423TIP3   OH231827   4.223   1.059   7.586 -0.3645 -0.5774  0.4304
 3423TIP3    H131828   4.203   1.100   7.670 -1.0361 -0.6400  0.3078
 3423TIP3    H231829   4.205   1.127   7.521  3.2941  0.6292  0.4596
 3424TIP3   OH231830   5.751   6.729   6.753  0.0671 -0.0720  0.0903
 3424TIP3    H131831   5.815   6.679   6.703 -1.5930 -3.0802  0.7086
 3424TIP3    H231832   5.803   6.785   6.811  2.1612 -2.1935  0.4047
 3425TIP3   OH231833   0.072   4.410   7.771 -0.3692  0.2838  0.1999
 3425TIP3    H131834   0.132   4.441   7.838 -0.1507  0.8882 -0.2583
 3425TIP3    H231835   0.001   4.368   7.819  0.0371  0.2550  0.7800
 3426TIP3   OH231836   5.545   0.986   0.496 -0.2372  0.0615  0.3558
 3426TIP3    H131837   5.493   0.997   0.575 -0.1248 -0.3450  0.4870
 3426TIP3    H231838   5.584   0.899   0.505 -1.5874 -0.7224 -0.9390
 3427TIP3   OH231839   6.251   4.382   0.474 -0.5735  0.2600 -0.3365
 3427TIP3    H131840   6.181   4.440   0.505  0.3869 -0.1222  2.9311
 3427TIP3    H231841   6.330   4.436   0.477 -0.4288  0.3045 -2.7542
 3428TIP3   OH231842   4.669   5.196   7.753 -0.3187 -0.9272  0.2198
 3428TIP3    H131843   4.758   5.218   7.781  0.3783 -2.4816 -0.6566
 3428TIP3    H231844   4.647   5.263   7.689  0.0098 -0.2374  0.8089
 3429TIP3   OH231845   2.556   3.023   0.636  0.3049 -0.1838  0.0453
 3429TIP3    H131846   2.513   2.969   0.703  0.2819 -0.5532 -0.2651
 3429TIP3    H231847   2.608   3.086   0.686 -1.9300  1.4254  0.4988
 3430TIP3   OH231848   2.891   3.748   7.960  0.1628  0.0023 -0.3601
 3430TIP3    H131849   2.978   3.712   7.980 -0.0645  0.0904  0.8130
 3430TIP3    H231850   2.830   3.682   7.993 -0.2899  1.7073  2.4964
 3431TIP3   OH231851   5.026   5.151   0.621 -0.2374  0.1365  0.3469
 3431TIP3    H131852   5.037   5.056   0.614  0.1455  0.1489  0.7110
 3431TIP3    H231853   5.109   5.187   0.589 -0.0187  0.3110  1.0844
 3432TIP3   OH231854   4.263   4.264   7.019 -0.4234  0.7089 -0.0728
 3432TIP3    H131855   4.341   4.318   7.024  0.2787 -0.3924  2.3230
 3432TIP3    H231856   4.208   4.294   7.092 -0.3835 -1.1623  0.7920
 3433TIP3   OH231857   3.371   6.687   7.076  0.0296 -0.8010 -0.3440
 3433TIP3    H131858   3.368   6.755   7.144 -0.4980 -0.7509 -0.4193
 3433TIP3    H231859   3.371   6.735   6.994 -1.0021 -0.8956 -0.4158
 3434TIP3   OH231860   5.268   3.132   8.452  0.4373 -0.1702 -0.0210
 3434TIP3    H131861   5.177   3.162   8.444  0.4955 -0.0441 -0.2212
 3434TIP3    H231862   5.281   3.118   8.546 -1.0552 -4.0895 -0.2004
 3435TIP3   OH231863   4.917   6.731   6.910 -0.4017 -0.0279 -0.1971
 3435TIP3    H131864   4.857   6.738   6.984 -0.0788  0.3752  0.0300
 3435TIP3    H231865   4.985   6.670   6.939 -0.1545  0.3036 -0.0783
 3436TIP3   OH231866   6.108   1.146   2.017 -0.0177  0.0162 -0.1349
 3436TIP3    H131867   6.055   1.222   1.994  0.9907  0.7406 -0.0974
 3436TIP3    H231868   6.072   1.116   2.101  0.4692  1.3115  0.5624
 3437TIP3   OH231869   4.576   0.023   8.353 -0.1357 -0.0787 -0.6007
 3437TIP3    H131870   4.518   0.070   8.293  0.2903 -0.8825 -1.6839
 3437TIP3    H231871   4.655   0.077   8.357 -0.7086  0.7178  0.4152
 3438TIP3   OH231872   6.114   0.389   8.242  0.0610 -0.5762  0.9228
 3438TIP3    H131873   6.167   0.322   8.284 -0.1860 -0.7801  0.9064
 3438TIP3    H231874   6.151   0.472   8.274  0.3005 -0.7188  1.0179
 3439TIP3   OH231875   1.646   5.674   6.451  0.4687 -0.0427  0.8012
 3439TIP3    H131876   1.585   5.748   6.448  1.2710  0.6148  0.3938
 3439TIP3    H231877   1.728   5.709   6.417  1.4310 -0.5880  2.4696
 3440TIP3   OH231878   4.760   0.112   8.093  0.1016  0.0278  0.0942
 3440TIP3    H131879   4.719   0.178   8.149  0.3559  2.2854 -2.2009
 3440TIP3    H231880   4.853   0.114   8.117  0.1543  0.7306 -0.1566
 3441TIP3   OH231881   6.815   3.288   2.169 -0.5688 -0.0002 -0.1365
 3441TIP3    H131882   6.779   3.317   2.253 -0.5132  0.0146 -0.1176
 3441TIP3    H231883   6.906   3.317   2.171 -0.0859 -1.5139  0.5119
 3442TIP3   OH231884   6.813   1.573   8.008 -0.3082  0.4081  0.2799
 3442TIP3    H131885   6.786   1.604   7.922  0.5773  0.4229  0.0033
 3442TIP3    H231886   6.750   1.504   8.030 -1.0356  0.9697 -0.0045
 3443TIP3   OH231887   6.454   2.840   7.788  0.4641 -0.0719  0.1897
 3443TIP3    H131888   6.426   2.756   7.826  2.1645  0.5702  3.1073
 3443TIP3    H231889   6.529   2.866   7.840  0.7175  2.7351 -1.4161
 3444TIP3   OH231890   3.520   3.187   0.802 -0.0068 -0.6985 -0.0684
 3444TIP3    H131891   3.514   3.245   0.726 -0.5478 -0.8842 -0.1738
 3444TIP3    H231892   3.567   3.238   0.868 -3.4450  1.2846  1.1258
 3445TIP3   OH231893   2.393   2.363   7.312  0.0064 -0.4480  0.8353
 3445TIP3    H131894   2.427   2.421   7.244  0.5201 -1.2741  0.3693
 3445TIP3    H231895   2.315   2.408   7.345 -0.0823  0.1080 -0.0922
 3446TIP3   OH231896   5.999   2.301   1.869  0.5326  0.6010 -0.1360
 3446TIP3    H131897   6.028   2.392   1.859  3.4559 -0.1289  0.6971
 3446TIP3    H231898   6.060   2.263   1.932  0.6681 -2.4735 -1.9205
 3447TIP3   OH231899   2.153   6.821   8.617 -0.0578  0.2748  0.3696
 3447TIP3    H131900   2.099   6.752   8.656  0.4340 -0.7511 -0.6684
 3447TIP3    H231901   2.131   6.819   8.524  1.4260  0.1073 -0.0155
 3448TIP3   OH231902   5.910   0.123   6.791 -0.0219  0.2628  0.5067
 3448TIP3    H131903   5.943   0.211   6.811 -0.0134 -0.0363  1.8915
 3448TIP3    H231904   5.988   0.067   6.795 -0.0075  0.1909 -0.4878
 3449TIP3   OH231905   6.490   0.743   0.688  0.3779  0.2895  0.3002
 3449TIP3    H131906   6.519   0.657   0.718 -0.1985 -0.2301 -0.5974
 3449TIP3    H231907   6.566   0.779   0.643  0.7358  0.4137  0.9837
 3450TIP3   OH231908   2.950   6.289   0.858  0.0210 -0.0972  0.0942
 3450TIP3    H131909   2.949   6.309   0.764 -0.0127  0.5185  0.2168
 3450TIP3    H231910   2.929   6.196   0.863  0.7709 -0.3226 -0.5574
 3451TIP3   OH231911   0.411   3.553   1.629  0.5751 -0.8138  0.2736
 3451TIP3    H131912   0.405   3.641   1.665  1.2184 -0.7337  0.2042
 3451TIP3    H231913   0.321   3.521   1.627  0.1659  0.3044 -0.8684
 3452TIP3   OH231914   1.916   2.449   8.568 -0.1526  0.1231 -0.5393
 3452TIP3    H131915   1.990   2.409   8.615 -0.7680 -1.6173 -0.9793
 3452TIP3    H231916   1.894   2.526   8.620  0.4378 -0.6685  0.9450
 3453TIP3   OH231917   2.947   5.634   7.087 -0.0319  0.2254  0.5433
 3453TIP3    H131918   2.917   5.595   7.004  0.1945 -1.0612  1.0479
 3453TIP3    H231919   2.921   5.726   7.080  1.1524  0.4922 -1.5289
 3454TIP3   OH231920   6.651   4.464   8.219  0.2027  0.3556 -0.3791
 3454TIP3    H131921   6.591   4.522   8.265 -0.3257  0.2215 -0.8861
 3454TIP3    H231922   6.671   4.395   8.283  2.2952  2.0063  0.8958
 3455TIP3   OH231923   3.732   3.343   0.925  0.8805  0.3746 -0.1090
 3455TIP3    H131924   3.811   3.315   0.878  1.8891  0.3361  1.5123
 3455TIP3    H231925   3.744   3.437   0.938 -0.0492  0.6416 -1.0942
 3456TIP3   OH231926   0.565   2.432   1.178 -0.2786 -0.1955  0.4182
 3456TIP3    H131927   0.504   2.449   1.106 -1.5029  2.8974  2.0430
 3456TIP3    H231928   0.618   2.359   1.146 -3.0693 -1.3247 -2.1398
 3457TIP3   OH231929   0.885   5.550   0.446 -0.0492 -1.2326  0.2067
 3457TIP3    H131930   0.822   5.617   0.419  1.0342 -0.4631 -0.4704
 3457TIP3    H231931   0.834   5.469   0.448 -0.9832 -0.6943 -0.7098
 3458TIP3   OH231932   3.742   5.992   2.145  0.3573  0.5046  0.1260
 3458TIP3    H131933   3.785   6.064   2.191 -0.1699  0.7987  0.1664
 3458TIP3    H231934   3.806   5.964   2.079 -0.1771  2.3567 -1.2656
 3459TIP3   OH231935   3.352   0.502   6.711  0.3517 -0.1557  0.0672
 3459TIP3    H131936   3.397   0.585   6.691 -0.8455  0.7761  1.0605
 3459TIP3    H231937   3.316   0.474   6.627 -0.3583  1.0768 -0.0817
 3460TIP3   OH231938   5.946   1.803   1.391 -0.4263 -0.2404 -0.0594
 3460TIP3    H131939   5.928   1.710   1.407 -1.6869  0.2288  1.4880
 3460TIP3    H231940   5.979   1.836   1.474 -0.6778  0.8506 -0.3700
 3461TIP3   OH231941   3.217   4.264   6.319 -0.1644  0.2381 -0.8672
 3461TIP3    H131942   3.176   4.219   6.393 -3.3292 -0.3009 -2.7432
 3461TIP3    H231943   3.247   4.348   6.355 -0.9480 -0.2871  1.1524
 3462TIP3   OH231944   0.475   4.791   7.308 -0.3513  0.0564 -0.7980
 3462TIP3    H131945   0.557   4.841   7.301  0.4668 -1.1982 -0.3490
 3462TIP3    H231946   0.486   4.736   7.385 -2.4115  1.2409  0.4586
 3463TIP3   OH231947   2.321   5.502   7.562  0.4851 -0.0878  0.4514
 3463TIP3    H131948   2.333   5.430   7.499  3.1879 -0.6549  1.4856
 3463TIP3    H231949   2.346   5.464   7.646  0.1810  1.5822  1.3250
 3464TIP3   OH231950   2.299   6.384   0.223  0.0988 -0.2376  0.4649
 3464TIP3    H131951   2.355   6.460   0.235 -0.3979  0.4246 -1.1633
 3464TIP3    H231952   2.238   6.387   0.296  1.1653 -0.0853  1.3798
 3465TIP3   OH231953   2.754   1.122   6.859  0.4367 -0.1658 -0.2931
 3465TIP3    H131954   2.803   1.181   6.801 -0.4056  0.2087 -0.6475
 3465TIP3    H231955   2.812   1.046   6.870  1.5307  0.6963  0.1444
 3466TIP3   OH231956   0.254   0.600   1.925 -0.2395  0.1218 -0.3278
 3466TIP3    H131957   0.224   0.509   1.924  1.1152 -0.3751 -2.5659
 3466TIP3    H231958   0.180   0.650   1.959 -1.5808 -1.6405 -0.5659
 3467TIP3   OH231959   5.190   5.592   6.860  0.0837  0.3418 -0.3270
 3467TIP3    H131960   5.238   5.571   6.780  0.1562 -0.0990 -0.1716
 3467TIP3    H231961   5.158   5.681   6.846  1.8412  1.0736 -0.0049
 3468TIP3   OH231962   3.446   4.296   0.935  0.3554 -0.0490  0.1382
 3468TIP3    H131963   3.392   4.282   0.857  1.2842 -0.1069 -0.5120
 3468TIP3    H231964   3.427   4.222   0.992  2.8729 -2.4770 -1.8981
 3469TIP3   OH231965   4.291   0.826   8.409 -0.1240  1.0911  0.0650
 3469TIP3    H131966   4.226   0.785   8.465 -1.9572  2.9353 -0.5689
 3469TIP3    H231967   4.311   0.759   8.343 -0.2931  0.0046  1.0790
 3470TIP3   OH231968   5.816   6.009   2.458  0.3220  0.6412 -0.6413
 3470TIP3    H131969   5.750   5.940   2.445  0.3554  0.0254  1.8994
 3470TIP3    H231970   5.770   6.078   2.506  0.9029  1.3047 -1.0213
 3471TIP3   OH231971   4.182   1.097   8.217  0.6138 -0.6056  0.3546
 3471TIP3    H131972   4.260   1.126   8.170  0.6124 -0.7220  0.2819
 3471TIP3    H231973   4.113   1.156   8.187  0.3329 -1.4618 -0.7173
 3472TIP3   OH231974   0.550   2.800   7.197  0.1168 -0.0973 -0.2307
 3472TIP3    H131975   0.579   2.837   7.281 -0.3586 -0.7564  0.2354
 3472TIP3    H231976   0.580   2.863   7.132 -0.3940  0.9524  0.5125
 3473TIP3   OH231977   4.361   2.953   8.266  0.5070 -0.8743  0.2031
 3473TIP3    H131978   4.364   2.912   8.352 -1.3290  0.7980  1.1402
 3473TIP3    H231979   4.268   2.958   8.245  0.8862 -0.5271 -1.5269
 3474TIP3   OH231980   1.408   2.565   0.912 -0.0349  0.1607 -0.1592
 3474TIP3    H131981   1.471   2.613   0.858 -0.4210  0.8897  0.0191
 3474TIP3    H231982   1.461   2.512   0.971  0.4061  0.3936 -0.3465
 3475TIP3   OH231983   4.015   3.479   2.437  0.3916  0.2410 -0.1402
 3475TIP3    H131984   4.105   3.445   2.441 -0.0983 -1.0189  0.6729
 3475TIP3    H231985   3.961   3.402   2.419 -0.7703  0.5169  1.8752
 3476TIP3   OH231986   6.733   6.180   8.618  0.2024  0.6844  0.0623
 3476TIP3    H131987   6.756   6.242   8.548 -0.2440  1.3363  0.4749
 3476TIP3    H231988   6.662   6.128   8.581  1.3888 -0.4285 -0.7269
 3477TIP3   OH231989   3.595   2.275   6.823 -0.3281 -0.0682  0.1454
 3477TIP3    H131990   3.681   2.294   6.786  1.8597 -2.7751  3.1900
 3477TIP3    H231991   3.584   2.340   6.893 -1.7553  1.4407 -1.3932
 3478TIP3   OH231992   1.886   2.213   8.442  0.0249 -0.2157  0.1970
 3478TIP3    H131993   1.976   2.182   8.431  0.5101  1.4565 -0.7535
 3478TIP3    H231994   1.895   2.305   8.466 -1.4445 -0.1040  0.3889
 3479TIP3   OH231995   2.424   5.636   7.302 -0.3075  0.1644  0.1254
 3479TIP3    H131996   2.419   5.634   7.398 -0.2944  1.4362  0.1692
 3479TIP3    H231997   2.333   5.632   7.273 -0.3520  0.5111  0.2163
 3480TIP3   OH231998   0.423   0.426   0.059 -0.1372  0.0414  0.3831
 3480TIP3    H131999   0.506   0.398   0.021  0.4870  1.0691  0.9340
 3480TIP3    H232000   0.408   0.512   0.020 -0.3615  0.3539  1.1400
 3481TIP3   OH232001   3.075   5.615   7.875 -0.1576  0.1258 -0.4497
 3481TIP3    H132002   3.048   5.527   7.847  0.0552  0.1096 -0.6098
 3481TIP3    H232003   3.106   5.656   7.794 -1.2496  0.7221 -0.5878
 3482TIP3   OH232004   3.303   0.037   1.102  0.0091 -0.8958 -0.6363
 3482TIP3    H132005   3.379   0.015   1.156  0.2522  0.0169 -0.5930
 3482TIP3    H232006   3.243  -0.037   1.114  0.3278 -1.0016  0.3787
 3483TIP3   OH232007   5.439   0.995   7.075 -0.1554 -0.5948  0.0061
 3483TIP3    H132008   5.399   1.029   7.154  1.8132  0.0769  0.7636
 3483TIP3    H232009   5.464   0.905   7.097  1.1037 -0.1528  0.4416
 3484TIP3   OH232010   3.088   5.994   7.365 -0.2398 -0.2458 -0.1849
 3484TIP3    H132011   3.175   5.964   7.389 -0.5291 -0.9489  0.0238
 3484TIP3    H232012   3.089   5.998   7.269  0.0616 -0.1204 -0.1764
 3485TIP3   OH232013   3.176   4.134   0.061  0.1893 -0.0405 -0.1647
 3485TIP3    H132014   3.163   4.158  -0.031  0.8913  0.7514 -0.0689
 3485TIP3    H232015   3.269   4.149   0.077 -0.3373  2.1338  1.3030
 3486TIP3   OH232016   3.714   0.279   6.961 -0.0248  0.5201  0.8260
 3486TIP3    H132017   3.777   0.212   6.989  2.3388  1.8286 -0.9937
 3486TIP3    H232018   3.725   0.349   7.025 -2.0001 -0.4275  2.3221
 3487TIP3   OH232019   2.800   4.759   0.859 -0.3948 -0.9285  0.3239
 3487TIP3    H132020   2.875   4.738   0.803  0.1374  1.3813  0.0530
 3487TIP3    H232021   2.813   4.851   0.883 -0.7738 -1.6668  3.9904
 3488TIP3   OH232022   6.606   0.355   1.649  0.3569 -0.3468 -0.2347
 3488TIP3    H132023   6.618   0.326   1.559 -1.4483 -1.0823 -0.2696
 3488TIP3    H232024   6.606   0.274   1.701  1.3566  0.0645  0.4373
 3489TIP3   OH232025   6.461   6.151   7.618  0.3280 -0.0183  0.3573
 3489TIP3    H132026   6.449   6.081   7.553  0.2298  0.0857  0.2640
 3489TIP3    H232027   6.484   6.228   7.566  0.2920  0.0538  0.4499
 3490TIP3   OH232028   0.189   6.042   0.458 -0.2011 -0.2828 -0.0031
 3490TIP3    H132029   0.275   6.021   0.420 -0.2317  0.6825 -0.6289
 3490TIP3    H232030   0.131   6.053   0.382 -0.3616  1.2663  0.3129
 3491TIP3   OH232031   1.284   5.888   6.748 -0.4030 -0.6436  0.0866
 3491TIP3    H132032   1.284   5.922   6.659 -0.1472  0.8361  0.6239
 3491TIP3    H232033   1.337   5.951   6.798  0.1765 -1.8966  1.1224
 3492TIP3   OH232034   6.628   3.714   1.143  0.7825 -0.1161  0.1729
 3492TIP3    H132035   6.607   3.645   1.206  0.5453 -0.1726  0.0323
 3492TIP3    H232036   6.674   3.780   1.195 -1.3006  0.8593  0.9094
 3493TIP3   OH232037   1.627   0.719   2.088  0.3044  0.3847  0.1603
 3493TIP3    H132038   1.592   0.769   2.014  1.2196 -1.0463 -1.3232
 3493TIP3    H232039   1.555   0.715   2.151 -0.9923  0.5250 -1.2591
 3494TIP3   OH232040   5.038   5.591   6.576  0.6107 -0.0605 -0.7587
 3494TIP3    H132041   5.010   5.611   6.487  0.0268 -2.0700 -1.0878
 3494TIP3    H232042   4.961   5.609   6.630  0.7521  0.5166 -0.7428
 3495TIP3   OH232043   1.096   3.427   6.723  0.3224  0.0013 -0.3117
 3495TIP3    H132044   1.050   3.345   6.706 -0.7902  0.6048 -0.3347
 3495TIP3    H232045   1.169   3.403   6.780 -0.8556 -0.8039  0.9223
 3496TIP3   OH232046   1.512   2.030   0.200 -1.0374 -0.6378 -0.1823
 3496TIP3    H132047   1.607   2.035   0.191 -1.1137 -1.0488 -1.5382
 3496TIP3    H232048   1.489   2.102   0.259 -0.0645  0.6823 -1.3404
 3497TIP3   OH232049   1.825   3.285   1.885  0.9222 -0.1411 -0.3511
 3497TIP3    H132050   1.788   3.211   1.838  0.4683  0.2613 -0.6380
 3497TIP3    H232051   1.919   3.267   1.887  0.9676 -0.1435 -1.4881
 3498TIP3   OH232052   1.835   6.713   7.965  0.3845 -0.5009  0.0851
 3498TIP3    H132053   1.813   6.627   7.928 -1.9491 -0.2580  0.7882
 3498TIP3    H232054   1.901   6.748   7.905 -0.4699 -1.7243 -1.6607
 3499TIP3   OH232055   4.571   3.838   8.437  0.1293 -0.0729 -0.0113
 3499TIP3    H132056   4.532   3.810   8.354 -1.1742 -1.2953  0.9663
 3499TIP3    H232057   4.618   3.761   8.469  0.8239  0.4629  0.2947
 3500TIP3   OH232058   0.762   4.569   7.227  0.3186 -0.1867  0.2987
 3500TIP3    H132059   0.776   4.490   7.175 -0.2002 -0.0744 -0.0191
 3500TIP3    H232060   0.765   4.538   7.318 -0.9911 -0.7875  0.1721
 3501TIP3   OH232061   6.792   4.128   8.266 -0.2060 -0.4447 -0.8764
 3501TIP3    H132062   6.717   4.079   8.231 -0.4478 -0.4311 -0.3950
 3501TIP3    H232063   6.782   4.121   8.361 -0.8162  1.3817 -0.7722
 3502TIP3   OH232064   0.546   4.177   1.646 -0.3380 -0.1660  0.2841
 3502TIP3    H132065   0.471   4.235   1.662  0.4449  0.6972  1.0102
 3502TIP3    H232066   0.606   4.198   1.717 -0.5726 -2.8622  1.3796
 3503TIP3   OH232067   0.990   0.865   2.146 -0.2384  0.1441  0.2134
 3503TIP3    H132068   1.073   0.841   2.188 -0.1324 -0.5195 -0.3647
 3503TIP3    H232069   0.923   0.819   2.197 -0.1914  0.1170  0.2510
 3504TIP3   OH232070   5.793   3.100   2.068  0.3410 -0.1672  0.5662
 3504TIP3    H132071   5.801   3.042   2.143  1.2113  0.8546  1.2876
 3504TIP3    H232072   5.821   3.047   1.993 -1.5977 -1.5562  0.7283
 3505TIP3   OH232073   6.195   1.301   6.696  0.9180  0.9460 -0.5019
 3505TIP3    H132074   6.237   1.257   6.770  0.5089 -0.1139 -0.8910
 3505TIP3    H232075   6.214   1.394   6.710  1.6443  0.6732  0.4259
 3506TIP3   OH232076   5.268   0.355   1.589  0.2863 -0.0023  0.0902
 3506TIP3    H132077   5.207   0.400   1.647 -0.5284 -0.9726  0.0172
 3506TIP3    H232078   5.311   0.290   1.644 -1.0793 -1.4885 -0.5069
 3507TIP3   OH232079   6.499   4.601   1.653  0.7091  0.1088 -0.3551
 3507TIP3    H132080   6.516   4.553   1.734  2.6275 -0.0254 -0.7795
 3507TIP3    H232081   6.513   4.536   1.584  0.8984  0.6531 -0.8436
 3508TIP3   OH232082   0.331   6.321   7.003  0.1603  0.5410 -0.5531
 3508TIP3    H132083   0.343   6.400   7.056  2.4626  0.4987 -0.9325
 3508TIP3    H232084   0.282   6.351   6.926 -2.7140  0.7140  1.1708
 3509TIP3   OH232085   1.625   6.612   6.144 -0.0768  0.2091  0.0542
 3509TIP3    H132086   1.537   6.602   6.107  0.4654  2.3623 -1.9778
 3509TIP3    H232087   1.672   6.533   6.115 -1.1518 -0.7442  0.7853
 3510TIP3   OH232088   5.991   3.979   1.072 -0.4931 -0.3264  0.4060
 3510TIP3    H132089   5.977   3.889   1.043  1.0678 -0.3362 -0.4693
 3510TIP3    H232090   5.918   4.028   1.036  0.1162 -0.7774 -1.5724
 3511TIP3   OH232091   1.634   0.528   0.400 -0.0101 -0.8466  0.5926
 3511TIP3    H132092   1.673   0.514   0.313 -0.8166 -1.1516  0.2759
 3511TIP3    H232093   1.553   0.575   0.382 -0.9090 -2.1804  1.0556
 3512TIP3   OH232094   1.181   2.754   7.658  0.2174 -0.5727 -0.0464
 3512TIP3    H132095   1.171   2.747   7.563 -0.2351  0.5345 -0.0951
 3512TIP3    H232096   1.129   2.681   7.693 -0.3659 -0.4386 -0.6164
 3513TIP3   OH232097   2.025   0.795   7.451  0.1805  0.9221 -0.0111
 3513TIP3    H132098   2.006   0.706   7.481  1.2740  0.7102  0.0861
 3513TIP3    H232099   1.958   0.813   7.386  0.7807 -0.5319 -1.0925
 3514TIP3   OH232100   3.363   0.196   8.419 -0.1574  0.1198  0.5375
 3514TIP3    H132101   3.274   0.227   8.437 -1.8510 -3.2577 -1.0439
 3514TIP3    H232102   3.381   0.132   8.488  0.3824 -0.3462 -0.0145
 3515TIP3   OH232103   2.430   2.458   7.735 -0.1614  0.2515  0.0291
 3515TIP3    H132104   2.464   2.471   7.823  0.7211 -0.7054 -0.1588
 3515TIP3    H232105   2.336   2.478   7.742 -1.2160 -4.1333  2.3097
 3516TIP3   OH232106   5.287   3.443   8.407 -0.5165 -0.3555  0.2138
 3516TIP3    H132107   5.315   3.494   8.483 -0.5832 -0.6456  0.4373
 3516TIP3    H232108   5.315   3.353   8.427  0.8730 -0.1869 -0.8084
 3517TIP3   OH232109   0.576   6.523   0.077 -0.0083  0.0969  0.0843
 3517TIP3    H132110   0.614   6.436   0.072 -0.6108 -0.1118 -1.1415
 3517TIP3    H232111   0.622   6.574   0.011 -0.2744  0.4687  0.1778
 3518TIP3   OH232112   2.660   0.337   0.658 -0.2949  0.2335 -0.1407
 3518TIP3    H132113   2.595   0.318   0.725 -1.5390  2.2606 -0.6792
 3518TIP3    H232114   2.615   0.395   0.597  1.5766  0.5041 -1.3432
 3519TIP3   OH232115   6.795   5.910   2.028 -0.0196 -0.4338  0.6436
 3519TIP3    H132116   6.703   5.899   2.004  0.0221 -0.4846  0.5024
 3519TIP3    H232117   6.800   5.876   2.117 -0.2078 -0.0962  0.7813
 3520TIP3   OH232118   0.360   5.221   7.046 -0.4770  0.2717 -0.2340
 3520TIP3    H132119   0.354   5.204   6.952 -2.0155 -0.2891 -0.0674
 3520TIP3    H232120   0.322   5.143   7.087 -0.9401  1.0212  0.8053
 3521TIP3   OH232121   3.238   5.770   1.280 -0.5628 -0.3341  0.8025
 3521TIP3    H132122   3.321   5.722   1.282  0.1472  0.6457 -1.4024
 3521TIP3    H232123   3.259   5.856   1.315  0.4375  1.2025 -3.0413
 3522TIP3   OH232124   6.858   2.823   7.196 -0.2283  0.6921  0.5439
 3522TIP3    H132125   6.834   2.800   7.106 -0.5424  0.1723  0.7609
 3522TIP3    H232126   6.942   2.868   7.187  0.1171 -0.0312  0.0589
 3523TIP3   OH232127   3.946   1.840   0.890  0.6750  0.2389 -0.1541
 3523TIP3    H132128   3.924   1.877   0.976  2.1922  1.6766 -0.3245
 3523TIP3    H232129   3.906   1.753   0.890 -0.9231  0.9271  1.2674
 3524TIP3   OH232130   2.835   5.809   0.239 -0.3024  1.0687  0.2454
 3524TIP3    H132131   2.909   5.790   0.182 -0.0986 -1.7070  1.2412
 3524TIP3    H232132   2.791   5.884   0.199  0.8976  0.4436 -2.4402
 3525TIP3   OH232133   6.274   5.655   0.843  0.0628 -0.6226  0.2449
 3525TIP3    H132134   6.364   5.686   0.840 -0.3498  0.6270  0.1587
 3525TIP3    H232135   6.262   5.606   0.762  0.1026  0.8926 -0.7299
 3526TIP3   OH232136   0.927   6.719   8.237 -0.0805 -0.5931 -0.5581
 3526TIP3    H132137   0.840   6.754   8.218 -0.3394 -1.3715 -0.8300
 3526TIP3    H232138   0.910   6.634   8.279  0.5463 -0.8101 -0.7376
 3527TIP3   OH232139   1.624   4.436   7.710 -0.0167  0.8098 -0.1812
 3527TIP3    H132140   1.660   4.369   7.651  1.8550  2.2020 -0.7574
 3527TIP3    H232141   1.614   4.392   7.794  0.6159 -0.3526 -0.6923
 3528TIP3   OH232142   3.512   5.350   0.389 -0.3079 -1.3229  0.1377
 3528TIP3    H132143   3.533   5.404   0.312 -0.0640 -0.1832  0.9645
 3528TIP3    H232144   3.463   5.409   0.446  0.4484 -1.7984  1.3186
 3529TIP3   OH232145   0.580   6.639   8.343 -0.8653  0.2298 -0.2860
 3529TIP3    H132146   0.596   6.566   8.283  0.7699  1.1006 -0.9576
 3529TIP3    H232147   0.508   6.608   8.398 -0.8675 -1.5079 -1.1791
 3530TIP3   OH232148   3.996   3.140   1.700  0.3801 -0.3617 -0.2772
 3530TIP3    H132149   3.997   3.225   1.655 -0.5677  0.7295  1.6471
 3530TIP3    H232150   3.903   3.125   1.720  0.6234 -1.5015  0.0490
 3531TIP3   OH232151   1.289   0.095   0.867  0.4393  0.6003 -0.3907
 3531TIP3    H132152   1.310   0.088   0.960  2.0377  2.1427 -0.5982
 3531TIP3    H232153   1.197   0.122   0.865 -0.1878 -1.3094  0.6605
 3532TIP3   OH232154   5.392   4.885   1.141 -0.7530  0.1436  0.0751
 3532TIP3    H132155   5.462   4.930   1.189  0.5916 -1.2018 -0.5555
 3532TIP3    H232156   5.398   4.920   1.052 -0.0212 -0.8673 -0.2941
 3533TIP3   OH232157   1.360   5.402   1.604  0.5411 -0.0179  0.0436
 3533TIP3    H132158   1.360   5.459   1.527 -0.6688  0.6448  0.4931
 3533TIP3    H232159   1.268   5.380   1.617  0.5789  0.7116  1.8702
 3534TIP3   OH232160   2.025   1.629   6.279 -0.2524  0.3730 -0.2744
 3534TIP3    H132161   1.936   1.650   6.250  0.6137  3.2535 -1.1816
 3534TIP3    H232162   2.063   1.714   6.300  2.1330 -0.8480  0.6272
 3535TIP3   OH232163   3.097   0.357   8.196  0.6800  0.1868  0.0727
 3535TIP3    H132164   3.081   0.404   8.278 -0.3257  1.0343 -0.5724
 3535TIP3    H232165   3.192   0.351   8.189  0.7898  0.7326  0.9603
 3536TIP3   OH232166   4.046   2.755   2.175  0.8603  0.0504  0.1170
 3536TIP3    H132167   4.071   2.786   2.089 -0.6893 -1.1579 -0.8206
 3536TIP3    H232168   3.958   2.718   2.163 -0.8064  2.6301  2.8434
 3537TIP3   OH232169   5.800   6.467   7.058  0.5806  0.3231 -0.1329
 3537TIP3    H132170   5.857   6.466   6.982  0.9228  0.5936  0.1187
 3537TIP3    H232171   5.858   6.484   7.132  0.2019  0.4174  0.1472
 3538TIP3   OH232172   4.810   1.051   7.328 -0.6128  0.6388 -0.4775
 3538TIP3    H132173   4.867   1.059   7.251  0.0874  0.7021  0.0390
 3538TIP3    H232174   4.844   0.976   7.376 -1.0643  0.5808 -0.2432
 3539TIP3   OH232175   0.386   3.356   0.332 -0.5491 -0.0540 -0.0256
 3539TIP3    H132176   0.293   3.356   0.311 -0.3148  1.1854 -1.2205
 3539TIP3    H232177   0.429   3.334   0.249  0.2164 -0.6770  0.5316
 3540TIP3   OH232178   5.221   3.413   0.960  0.0233 -0.1855 -0.2074
 3540TIP3    H132179   5.201   3.321   0.972  1.9821 -0.6630 -0.3545
 3540TIP3    H232180   5.258   3.419   0.872 -0.2055  0.7633 -0.2564
 3541TIP3   OH232181   4.467   4.215   6.497  0.6410  0.6303 -0.0358
 3541TIP3    H132182   4.424   4.143   6.451  0.7129  0.3724  0.2960
 3541TIP3    H232183   4.559   4.205   6.476  0.6757  0.5040  0.1685
 3542TIP3   OH232184   1.966   2.536   6.838  0.0197  0.2344  0.0551
 3542TIP3    H132185   1.971   2.579   6.923 -0.8016  1.2362 -0.3824
 3542TIP3    H232186   1.873   2.541   6.815  0.0435 -1.0759 -0.3737
 3543TIP3   OH232187   1.948   2.129   6.744 -0.2631  1.0328 -0.3254
 3543TIP3    H132188   2.006   2.063   6.706 -2.0194 -1.4153  0.9866
 3543TIP3    H232189   1.871   2.129   6.688 -1.1594  0.3782  0.8751
 3544TIP3   OH232190   5.585   2.181   7.400 -0.3302 -0.3702 -0.6435
 3544TIP3    H132191   5.514   2.235   7.434  0.9990  0.1778  1.4658
 3544TIP3    H232192   5.608   2.221   7.316 -0.9675  0.8583 -0.2509
 3545TIP3   OH232193   6.509   5.778   7.274  0.3296  0.4106  0.5047
 3545TIP3    H132194   6.473   5.813   7.192 -2.7928  2.4153  2.5056
 3545TIP3    H232195   6.470   5.691   7.282 -1.9344  1.4149  1.2227
 3546TIP3   OH232196   4.676   0.437   8.561 -0.3139 -0.2419 -0.8557
 3546TIP3    H132197   4.752   0.474   8.517 -0.3958  0.7879 -0.1677
 3546TIP3    H232198   4.680   0.473   8.650 -1.0898 -0.9148 -0.5383
 3547TIP3   OH232199   0.114   4.847   1.511  0.4024  0.0203 -0.3422
 3547TIP3    H132200   0.141   4.922   1.457  0.6048 -0.8025 -1.4047
 3547TIP3    H232201   0.026   4.826   1.480 -0.2952  0.7493  1.0096
 3548TIP3   OH232202   5.488   1.684   0.916  0.7670 -0.1566 -0.0256
 3548TIP3    H132203   5.515   1.621   0.849  1.5148 -0.1018  0.2153
 3548TIP3    H232204   5.510   1.769   0.879  0.7617 -0.0998  0.1014
 3549TIP3   OH232205   1.508   1.547   6.670 -0.1116 -0.5069 -0.2250
 3549TIP3    H132206   1.443   1.497   6.719  1.1240 -1.4371  0.5367
 3549TIP3    H232207   1.537   1.615   6.731 -0.8145  0.3201 -0.7886
 3550TIP3   OH232208   3.403   3.442   6.284  0.0785 -0.3460  1.0860
 3550TIP3    H132209   3.422   3.375   6.218  2.2436  0.1640  1.1379
 3550TIP3    H232210   3.483   3.450   6.335 -0.4876  1.5418  1.7644
 3551TIP3   OH232211   4.894   5.370   1.161 -0.4526  0.4567 -0.1048
 3551TIP3    H132212   4.956   5.330   1.100 -0.7125 -0.0755 -0.0272
 3551TIP3    H232213   4.939   5.449   1.193 -0.1001  0.4451 -0.5700
 3552TIP3   OH232214   5.932   5.798   1.743 -0.1206 -0.1545 -0.5302
 3552TIP3    H132215   5.980   5.797   1.660 -0.2559 -1.8494 -0.6236
 3552TIP3    H232216   5.894   5.711   1.750 -0.8212  0.2307  0.9196
 3553TIP3   OH232217   5.416   4.736   7.345 -0.0245  0.3216 -0.1371
 3553TIP3    H132218   5.423   4.650   7.389 -1.9143 -0.1161 -0.5981
 3553TIP3    H232219   5.361   4.719   7.269 -0.3166  1.9445 -0.3066
 3554TIP3   OH232220   2.635   2.567   7.518 -0.4157  0.3798 -0.2059
 3554TIP3    H132221   2.607   2.621   7.445  2.0692  1.2570 -0.5802
 3554TIP3    H232222   2.709   2.516   7.484 -0.9429 -1.2558  0.9377
 3555TIP3   OH232223   3.177   3.474   6.446  0.1733  0.0511  0.0997
 3555TIP3    H132224   3.094   3.458   6.400 -0.1025  1.8883 -0.1013
 3555TIP3    H232225   3.244   3.449   6.382 -0.2087 -0.7860  0.0113
 3556TIP3   OH232226   2.182   0.501   8.427  0.3652 -0.1390 -1.1169
 3556TIP3    H132227   2.157   0.593   8.439 -1.3592 -0.7632  0.4449
 3556TIP3    H232228   2.179   0.463   8.515  4.0192 -1.0673 -1.2163
 3557TIP3   OH232229   4.252   4.130   1.344 -1.1301 -0.0221  0.5337
 3557TIP3    H132230   4.334   4.158   1.384 -1.6583  2.5291  0.0129
 3557TIP3    H232231   4.261   4.157   1.252 -2.8315  0.9996  0.6448
 3558TIP3   OH232232   4.591   2.845   0.978  0.2343 -0.1126  0.0150
 3558TIP3    H132233   4.518   2.826   0.918  0.2739 -2.1390  0.5176
 3558TIP3    H232234   4.669   2.814   0.932  0.6089  0.7615  0.0487
 3559TIP3   OH232235   3.236   6.020   8.540 -0.2622  0.3764  0.6319
 3559TIP3    H132236   3.328   6.039   8.522 -0.7013  4.7644  1.8248
 3559TIP3    H232237   3.202   5.986   8.457  1.8603  1.2725 -0.6947
 3560TIP3   OH232238   6.618   4.385   6.484 -0.7986  0.3418  0.8095
 3560TIP3    H132239   6.530   4.353   6.465 -0.7325 -1.5773  3.2809
 3560TIP3    H232240   6.620   4.474   6.448 -3.9332  0.6641  1.2309
 3561TIP3   OH232241   4.343   5.210   0.567  0.1145  0.4161  0.8180
 3561TIP3    H132242   4.364   5.136   0.623 -0.6777 -0.2105  0.3133
 3561TIP3    H232243   4.411   5.275   0.585  0.9885 -0.5505  1.0400
 3562TIP3   OH232244   0.720   2.084   7.644  0.1199 -0.0421  0.3249
 3562TIP3    H132245   0.757   2.115   7.562 -2.0443  0.8527 -0.3929
 3562TIP3    H232246   0.796   2.063   7.699  1.6664  2.1777 -0.8315
 3563TIP3   OH232247   4.384   3.252   1.538  0.2638 -0.3352 -0.1167
 3563TIP3    H132248   4.408   3.160   1.552  1.5377 -0.5422 -3.0031
 3563TIP3    H232249   4.347   3.254   1.450 -1.2668  1.7050  0.4948
 3564TIP3   OH232250   5.526   1.587   8.654  0.1380 -0.9169  0.1530
 3564TIP3    H132251   5.586   1.522   8.616  1.5753 -1.1206  2.4932
 3564TIP3    H232252   5.577   1.626   8.726 -1.8827  0.3650  0.9659
 3565TIP3   OH232253   0.771   2.973   1.150 -0.3962 -0.3188 -0.6691
 3565TIP3    H132254   0.809   2.887   1.131 -1.6331 -0.2847 -4.0309
 3565TIP3    H232255   0.680   2.966   1.120 -1.6456  1.1083  2.4083
 3566TIP3   OH232256   1.279   1.407   7.798  0.1113 -0.4577 -0.0595
 3566TIP3    H132257   1.216   1.424   7.868  0.9979 -2.1330  1.2117
 3566TIP3    H232258   1.364   1.416   7.840  0.7139  0.1072 -1.3494
 3567TIP3   OH232259   3.595   0.304   1.516 -0.0822  0.3439 -0.1337
 3567TIP3    H132260   3.678   0.340   1.487  0.4297 -0.5450  0.1881
 3567TIP3    H232261   3.597   0.313   1.612 -0.2242  0.0552 -0.1010
 3568TIP3   OH232262   2.970   0.943   6.547  0.0109  0.9000 -0.3873
 3568TIP3    H132263   2.937   0.998   6.476 -0.7313 -0.7141 -1.3448
 3568TIP3    H232264   2.988   1.005   6.618 -1.2509  2.3206 -1.2336
 3569TIP3   OH232265   4.882   2.174   1.693  0.3839  0.1998 -0.7881
 3569TIP3    H132266   4.957   2.147   1.746  0.3304 -0.4622 -1.0381
 3569TIP3    H232267   4.896   2.267   1.678 -0.1925  0.7047  1.3662
 3570TIP3   OH232268   4.600   0.400   7.509  0.1183  0.2183  0.9780
 3570TIP3    H132269   4.675   0.364   7.461 -0.4611  0.0209  0.1884
 3570TIP3    H232270   4.580   0.334   7.575  0.1413 -0.1157  0.6598
 3571TIP3   OH232271   5.581   4.900   1.863 -0.1282  0.3490  0.2271
 3571TIP3    H132272   5.599   4.847   1.785 -1.4629  2.3105 -1.5256
 3571TIP3    H232273   5.667   4.932   1.890  0.7596 -2.7051  1.4676
 3572TIP3   OH232274   1.648   1.675   6.872  0.5185  0.1827 -0.1265
 3572TIP3    H132275   1.654   1.642   6.962  1.6666  0.2144 -0.1817
 3572TIP3    H232276   1.675   1.766   6.877  1.3323 -0.0237 -0.6168
 3573TIP3   OH232277   5.154   1.250   1.303 -0.1911 -0.4542 -0.4033
 3573TIP3    H132278   5.230   1.308   1.309  0.4158 -1.3042  0.4082
 3573TIP3    H232279   5.112   1.274   1.220  0.6417  0.4125 -0.5897
 3574TIP3   OH232280   3.327   2.229   0.966 -0.2096  0.1685  0.5141
 3574TIP3    H132281   3.334   2.315   0.924 -2.5911  0.3457  0.3268
 3574TIP3    H232282   3.236   2.225   0.995 -0.3250 -2.5307 -0.0165
 3575TIP3   OH232283   6.761   2.520   7.191  0.1371 -0.1524  0.1397
 3575TIP3    H132284   6.666   2.509   7.197  0.2207 -1.2350 -0.2810
 3575TIP3    H232285   6.776   2.554   7.103  0.2023 -1.0005 -0.1903
 3576TIP3   OH232286   3.725   6.330   7.613  0.0191  0.1079  0.0571
 3576TIP3    H132287   3.756   6.266   7.677 -0.6573  0.3179  0.6068
 3576TIP3    H232288   3.761   6.413   7.644 -1.0552  0.3518  0.6939
 3577TIP3   OH232289   2.346   1.467   8.202  0.3556 -0.2236  0.2506
 3577TIP3    H132290   2.373   1.466   8.110 -1.2282  0.0516 -0.2401
 3577TIP3    H232291   2.426   1.447   8.250  1.0140 -1.3215 -1.2230
 3578TIP3   OH232292   0.441   3.526   6.324  0.0776 -0.6769  0.0286
 3578TIP3    H132293   0.364   3.551   6.272 -0.0889  0.1656  0.6704
 3578TIP3    H232294   0.426   3.565   6.410  0.4952 -1.8136  0.6305
 3579TIP3   OH232295   1.344   0.554   8.187 -0.2473  0.1190  0.0949
 3579TIP3    H132296   1.269   0.502   8.159  0.1784 -0.6746  0.4097
 3579TIP3    H232297   1.412   0.535   8.122  0.0414 -0.0380  0.4403
 3580TIP3   OH232298   3.423   4.159   5.870  0.1456  0.0081 -0.1406
 3580TIP3    H132299   3.335   4.141   5.836  0.4720  2.1047 -2.3395
 3580TIP3    H232300   3.409   4.213   5.947 -0.5150 -1.8684  1.1182
 3581TIP3   OH232301   3.985   5.270   6.887 -0.0871 -0.3325  0.2065
 3581TIP3    H132302   3.947   5.302   6.970 -0.3653 -1.1548  0.4013
 3581TIP3    H232303   4.074   5.305   6.887  0.2958 -1.2516  1.3951
 3582TIP3   OH232304   0.203   0.060   0.293 -0.4057 -0.3757  0.0845
 3582TIP3    H132305   0.262   0.126   0.256 -1.3897 -0.1027 -1.0366
 3582TIP3    H232306   0.239   0.044   0.381  1.7680 -0.7844 -0.8102
 3583TIP3   OH232307   1.669   0.682   6.486 -0.3950 -0.3542  0.5125
 3583TIP3    H132308   1.762   0.695   6.505 -0.3362  2.6863 -1.1965
 3583TIP3    H232309   1.624   0.728   6.557 -0.2303  5.9725 -2.7312
 3584TIP3   OH232310   1.296   1.272   6.547  0.1641  0.1302  0.3633
 3584TIP3    H132311   1.280   1.185   6.509 -2.2861  0.2202  1.0272
 3584TIP3    H232312   1.366   1.309   6.493  0.5299 -1.8195 -0.6040
 3585TIP3   OH232313   5.403   3.679   1.166  0.6725  0.0661 -0.6116
 3585TIP3    H132314   5.472   3.735   1.132  0.5624 -0.1488 -1.1992
 3585TIP3    H232315   5.448   3.600   1.197  1.0316  1.1259  1.7638
 3586TIP3   OH232316   1.485   5.887   8.056  0.5338 -0.1394  0.6906
 3586TIP3    H132317   1.529   5.966   8.023  0.8436  0.0775  1.6051
 3586TIP3    H232318   1.499   5.890   8.150 -0.8663 -0.4381  0.9162
 3587TIP3   OH232319   2.517   2.973   0.951  0.5154 -0.1973  0.3046
 3587TIP3    H132320   2.507   3.051   1.005 -0.8276 -0.3597  0.3244
 3587TIP3    H232321   2.604   2.939   0.974  0.7035  0.7327  1.0250
 3588TIP3   OH232322   5.890   1.711   7.137  0.3917  0.1444  0.0865
 3588TIP3    H132323   5.827   1.783   7.143  0.8972  0.5709  0.3048
 3588TIP3    H232324   5.908   1.687   7.228  0.1960 -0.2925  0.0157
 3589TIP3   OH232325   5.198   6.630   0.723  0.3163  0.1375 -0.2593
 3589TIP3    H132326   5.177   6.642   0.630  1.1381  0.3066 -0.4327
 3589TIP3    H232327   5.123   6.666   0.769 -0.1922 -0.1229 -0.8598
 3590TIP3   OH232328   2.583   1.507   7.275 -0.2039 -0.0628 -1.0005
 3590TIP3    H132329   2.554   1.592   7.309  0.0655 -0.2049 -0.4118
 3590TIP3    H232330   2.610   1.526   7.185  0.3336  0.5780 -0.7111
 3591TIP3   OH232331   0.050   5.293   0.615 -1.2492  0.3970  0.1714
 3591TIP3    H132332   0.057   5.375   0.664  0.7964  0.6489 -0.4274
 3591TIP3    H232333   0.115   5.235   0.656 -2.1000 -0.6680  0.0754
 3592TIP3   OH232334   3.801   4.855   1.035 -0.7078  0.1327  0.1954
 3592TIP3    H132335   3.886   4.873   1.077 -0.6109 -0.8586  0.4496
 3592TIP3    H232336   3.757   4.795   1.095 -0.3358 -1.7898 -1.3518
 3593TIP3   OH232337   2.373   6.764   6.215 -0.0546  0.1468  0.8783
 3593TIP3    H132338   2.461   6.791   6.243  1.0520 -2.1395 -0.1474
 3593TIP3    H232339   2.347   6.697   6.277  0.8462 -2.2927 -1.2258
 3594TIP3   OH232340   2.295   6.552   8.470  0.3183  0.1487  0.3178
 3594TIP3    H132341   2.257   6.558   8.382 -1.8772 -1.8162  1.0235
 3594TIP3    H232342   2.219   6.546   8.528  1.7079 -1.6698  2.0623
 3595TIP3   OH232343   1.284   3.703   0.561 -0.2279  0.2129  0.4748
 3595TIP3    H132344   1.297   3.797   0.563  0.5519  0.1061  3.0321
 3595TIP3    H232345   1.254   3.680   0.649 -1.5379 -1.7985 -0.4048
 3596TIP3   OH232346   5.874   0.271   8.201  0.1439  0.5896  0.3927
 3596TIP3    H132347   5.955   0.316   8.222 -0.5191  1.8716  0.2724
 3596TIP3    H232348   5.890   0.180   8.227  2.0074  0.5587 -0.6910
 3597TIP3   OH232349   3.463   0.673   1.910  0.2721 -0.1359  0.5188
 3597TIP3    H132350   3.497   0.731   1.978  2.6714 -0.6192 -0.1647
 3597TIP3    H232351   3.425   0.600   1.958 -0.1453  0.6118  1.3550
 3598TIP3   OH232352   6.213   3.543   0.235  0.6546  0.1953  0.1402
 3598TIP3    H132353   6.290   3.496   0.269  1.4423  1.3696  0.0496
 3598TIP3    H232354   6.247   3.630   0.212  0.0075 -0.2500 -2.9159
 3599TIP3   OH232355   1.452   2.817   8.241  0.1822  0.4218  0.1079
 3599TIP3    H132356   1.393   2.890   8.221 -1.6573 -1.2988 -1.2229
 3599TIP3    H232357   1.393   2.743   8.256  1.9925 -1.0258  0.3802
 3600TIP3   OH232358   0.093   6.797   8.231  0.1797  0.5630  0.2436
 3600TIP3    H132359   0.169   6.750   8.197 -0.2320 -0.8245  1.1305
 3600TIP3    H232360   0.120   6.827   8.318  0.1629  1.2514  0.0102
 3601TIP3   OH232361   5.780   0.905   6.658 -0.1194  0.3844  0.1041
 3601TIP3    H132362   5.829   0.981   6.689 -0.1448  0.5551 -0.2704
 3601TIP3    H232363   5.703   0.901   6.716 -0.0193  0.5294  0.2468
 3602TIP3   OH232364   4.669   2.548   1.278 -0.0699  0.2543 -0.0858
 3602TIP3    H132365   4.584   2.506   1.262 -0.4127  0.5619  0.8391
 3602TIP3    H232366   4.648   2.623   1.334  1.0536 -0.9233  2.0309
 3603TIP3   OH232367   2.302   3.646   1.806 -0.0966  0.3839 -0.3416
 3603TIP3    H132368   2.284   3.553   1.815 -0.8093  0.5655  0.1242
 3603TIP3    H232369   2.364   3.651   1.733  0.0080 -0.4553 -0.3192
 3604TIP3   OH232370   3.818   4.959   1.505  0.0906 -0.4878  0.1086
 3604TIP3    H132371   3.906   4.994   1.520  1.2476 -2.1697 -2.2188
 3604TIP3    H232372   3.829   4.864   1.513 -1.2680 -0.7848 -1.2560
 3605TIP3   OH232373   5.738   5.705   0.463 -0.8843  0.0502 -0.5076
 3605TIP3    H132374   5.814   5.657   0.493 -1.6765 -0.6185  0.5103
 3605TIP3    H232375   5.745   5.705   0.367 -0.7304 -1.8904 -0.5349
 3606TIP3   OH232376   1.579   5.639   7.473 -0.2750  0.3884  0.1279
 3606TIP3    H132377   1.633   5.580   7.421  2.9892  0.6885  2.7640
 3606TIP3    H232378   1.594   5.725   7.434  0.8121  0.3805  0.4747
 3607TIP3   OH232379   4.302   3.610   1.173  0.6572 -0.2001 -0.1327
 3607TIP3    H132380   4.249   3.679   1.215 -1.0829 -0.2165 -2.1410
 3607TIP3    H232381   4.360   3.658   1.114  0.3326 -0.3600 -0.5888
 3608TIP3   OH232382   5.581   1.847   1.821 -0.1647 -0.3671 -0.0723
 3608TIP3    H132383   5.672   1.874   1.837 -0.3221 -0.2087  0.5768
 3608TIP3    H232384   5.562   1.786   1.893  0.0038 -1.8038 -1.1996
 3609TIP3   OH232385   3.706   3.354   7.155 -0.3419  0.2900 -0.1250
 3609TIP3    H132386   3.734   3.286   7.216 -0.5452  0.0956 -0.2496
 3609TIP3    H232387   3.719   3.316   7.069  0.4177  0.7434 -0.2241
 3610TIP3   OH232388   1.051   4.762   7.685  0.5211 -0.6264  0.5040
 3610TIP3    H132389   1.139   4.795   7.702 -0.4505  1.9017  1.0738
 3610TIP3    H232390   1.042   4.766   7.590  1.0045 -0.8657  0.4466
 3611TIP3   OH232391   4.171   0.878   7.985 -0.5199  0.3538 -0.7953
 3611TIP3    H132392   4.209   0.951   7.935  0.7553 -0.8781 -1.7133
 3611TIP3    H232393   4.092   0.854   7.936  0.5648 -0.6585 -2.1500
 3612TIP3   OH232394   3.342   1.311   2.168 -0.4277  0.0763  0.1586
 3612TIP3    H132395   3.280   1.246   2.134 -1.3620  1.2332 -0.4304
 3612TIP3    H232396   3.335   1.385   2.107  1.6161  0.2164  0.0351
 3613TIP3   OH232397   2.333   2.518   6.546  0.1942  0.2722 -0.4880
 3613TIP3    H132398   2.331   2.607   6.581  1.1751 -0.0095  0.3241
 3613TIP3    H232399   2.401   2.473   6.597 -1.1624 -1.3235  0.0032
 3614TIP3   OH232400   5.740   4.666   8.648 -0.0626  0.0447  0.2752
 3614TIP3    H132401   5.772   4.608   8.579  0.4477 -0.1375  0.6611
 3614TIP3    H232402   5.735   4.752   8.607 -0.1290 -0.1352 -0.0948
 3615TIP3   OH232403   1.060   0.794   7.764  0.6597 -0.4111  0.2811
 3615TIP3    H132404   1.154   0.783   7.757  0.6702  0.1945 -0.8327
 3615TIP3    H232405   1.023   0.720   7.715  0.5591 -0.6129  0.6608
 3616TIP3   OH232406   5.141   1.319   8.106  0.2289 -0.0947 -0.0053
 3616TIP3    H132407   5.128   1.397   8.160  1.1299 -0.5904  0.9503
 3616TIP3    H232408   5.210   1.343   8.044 -1.8759  1.0186 -2.0932
 3617TIP3   OH232409   5.697   4.997   7.076  0.0798 -0.0581  0.4362
 3617TIP3    H132410   5.625   5.024   7.133  1.0836 -0.6778  2.0445
 3617TIP3    H232411   5.759   5.070   7.079 -0.6669  0.7230 -1.3941
 3618TIP3   OH232412   5.869   3.975   1.345  0.4150 -0.1582 -0.2279
 3618TIP3    H132413   5.890   4.042   1.279 -1.1979 -0.7643 -1.4318
 3618TIP3    H232414   5.941   3.980   1.407  0.9620  1.8711 -0.9151
 3619TIP3   OH232415   1.992   1.909   1.232  0.3456  0.0864 -0.0391
 3619TIP3    H132416   1.969   1.841   1.296  1.3828 -1.6585 -1.4373
 3619TIP3    H232417   2.030   1.979   1.285 -0.2909 -0.5959  1.4105
 3620TIP3   OH232418   6.511   4.335   2.496 -0.1180  0.2198  0.9979
 3620TIP3    H132419   6.577   4.394   2.461  1.3340 -1.2566  1.1291
 3620TIP3    H232420   6.429   4.385   2.491  0.5278  1.1840 -1.5984
 3621TIP3   OH232421   6.068   4.312   6.696 -0.5315  0.1033 -0.1376
 3621TIP3    H132422   5.986   4.265   6.679  0.1799 -0.9696 -0.6722
 3621TIP3    H232423   6.051   4.402   6.666 -1.6332  0.0085  0.1366
 3622TIP3   OH232424   3.791   3.350   2.628 -0.3409  0.0675 -0.1682
 3622TIP3    H132425   3.789   3.283   2.697  1.5764  0.6941  0.5494
 3622TIP3    H232426   3.808   3.300   2.548 -0.9623 -0.5035  0.0399
 3623TIP3   OH232427   0.780   0.632   1.156  0.5772  0.0943 -0.1821
 3623TIP3    H132428   0.839   0.568   1.194 -1.0595 -1.5023 -0.2140
 3623TIP3    H232429   0.730   0.583   1.090 -0.1712  1.5917 -0.7796
 3624TIP3   OH232430   5.329   6.658   6.494 -0.3609 -0.4344 -0.2226
 3624TIP3    H132431   5.324   6.654   6.589  0.4564  2.2527  0.0125
 3624TIP3    H232432   5.420   6.634   6.474 -0.5672 -1.1297 -0.3802
 3625TIP3   OH232433   5.440   6.822   6.163  0.0409  0.2585  0.3997
 3625TIP3    H132434   5.466   6.872   6.086  0.8538 -1.1383 -0.2859
 3625TIP3    H232435   5.514   6.830   6.223 -0.2460  0.6802  0.6972
 3626TIP3   OH232436   3.389   3.440   8.006  0.5096 -0.1612 -0.0223
 3626TIP3    H132437   3.480   3.409   8.006  0.4587 -0.3448  0.7491
 3626TIP3    H232438   3.372   3.462   8.098  0.4928  2.0289 -0.5051
 3627TIP3   OH232439   1.467   0.293   7.086 -0.2124 -0.2590 -0.1523
 3627TIP3    H132440   1.454   0.366   7.147 -0.8230 -0.9842  0.6012
 3627TIP3    H232441   1.436   0.327   7.002  0.7782  0.7998 -0.1123
 3628TIP3   OH232442   3.419   3.643   1.002 -0.2718  0.1628 -0.2520
 3628TIP3    H132443   3.487   3.629   0.937 -0.6625  0.2303 -0.6767
 3628TIP3    H232444   3.367   3.562   1.001  1.3229 -1.0060  1.9343
 3629TIP3   OH232445   3.878   3.127   8.032 -0.3113 -0.0096  0.4551
 3629TIP3    H132446   3.962   3.112   7.989  0.4975  1.7717  1.3297
 3629TIP3    H232447   3.830   3.044   8.021  0.1433  0.0543 -3.0744
 3630TIP3   OH232448   4.608   3.138   1.273 -0.3976  0.1103 -0.6312
 3630TIP3    H132449   4.617   3.147   1.179 -1.0459  0.3920 -0.6739
 3630TIP3    H232450   4.586   3.226   1.304 -0.3996 -0.0235 -0.2453
 3631TIP3   OH232451   5.927   2.377   7.879  0.5511 -0.8208 -0.6377
 3631TIP3    H132452   5.980   2.403   7.954  0.5736  0.7727 -1.1711
 3631TIP3    H232453   5.859   2.444   7.873  0.7004 -0.7591 -2.1751
 3632TIP3   OH232454   6.209   1.268   2.395  0.3519 -0.0239 -0.0301
 3632TIP3    H132455   6.203   1.346   2.340 -0.1156 -1.0931 -1.5929
 3632TIP3    H232456   6.118   1.248   2.417  0.5808  0.9423  2.0401
 3633TIP3   OH232457   0.525   2.842   8.180  0.0394  0.7430  0.5911
 3633TIP3    H132458   0.568   2.913   8.227  2.0596  0.5476 -0.8293
 3633TIP3    H232459   0.540   2.765   8.234  0.3397  0.9149  0.7579
 3634TIP3   OH232460   5.945   1.134   1.486 -0.1899 -0.0295  0.0661
 3634TIP3    H132461   5.967   1.063   1.546 -0.1839 -2.1669 -2.3035
 3634TIP3    H232462   6.011   1.129   1.417 -0.7797  1.6635 -0.6809
 3635TIP3   OH232463   6.734   0.956   8.436  0.1041  0.2090  0.1546
 3635TIP3    H132464   6.812   0.902   8.449  0.0017 -0.3817 -1.4468
 3635TIP3    H232465   6.711   0.943   8.343 -1.2492  1.2352  0.3166
 3636TIP3   OH232466   2.919   4.333   7.448  0.2141 -0.3334  0.1412
 3636TIP3    H132467   2.992   4.364   7.501 -1.0322  2.9138  0.1830
 3636TIP3    H232468   2.845   4.327   7.509 -0.3643 -0.2279 -0.5359
 3637TIP3   OH232469   1.460   6.062   1.583 -0.2361  0.0047 -0.5646
 3637TIP3    H132470   1.406   6.121   1.636 -1.7724 -0.4893 -1.5308
 3637TIP3    H232471   1.550   6.088   1.604 -0.8012  0.5169  1.4725
 3638TIP3   OH232472   5.862   0.821   7.743 -0.5468  0.2031 -0.0970
 3638TIP3    H132473   5.812   0.899   7.770 -2.5178 -1.1317  0.3438
 3638TIP3    H232474   5.949   0.855   7.721 -1.2913  2.5062  0.1856
 3639TIP3   OH232475   3.042   5.139   8.538 -0.0355  0.1665 -0.6392
 3639TIP3    H132476   3.042   5.168   8.629 -1.5679 -0.3856 -0.4250
 3639TIP3    H232477   3.112   5.189   8.497  0.1827  0.9925  0.6657
 3640TIP3   OH232478   2.602   5.736   1.723  0.3619  0.3950  0.2961
 3640TIP3    H132479   2.685   5.738   1.770 -0.0484 -2.4039  1.3547
 3640TIP3    H232480   2.537   5.761   1.788  0.2968  2.8277 -0.5922
 3641TIP3   OH232481   3.226   6.295   0.261 -0.1842  0.0124  0.7661
 3641TIP3    H132482   3.309   6.270   0.221 -0.8517  1.2665 -1.5938
 3641TIP3    H232483   3.159   6.259   0.203 -1.2517  0.9070  1.3946
 3642TIP3   OH232484   5.475   4.670   7.006  0.6022  0.2661  0.0043
 3642TIP3    H132485   5.454   4.650   6.914  1.5919 -0.6445 -0.0412
 3642TIP3    H232486   5.459   4.587   7.052 -0.1828  0.7994  0.7201
 3643TIP3   OH232487   2.061   5.835   0.462 -0.6446 -0.0501  0.2644
 3643TIP3    H132488   2.077   5.742   0.443 -0.6653 -0.3100  1.4658
 3643TIP3    H232489   1.967   5.840   0.478 -0.5262  0.0302  0.9616
 3644TIP3   OH232490   5.553   5.037   7.333 -0.0935 -0.4123 -0.3723
 3644TIP3    H132491   5.589   4.967   7.389  1.8835  1.5310  0.9487
 3644TIP3    H232492   5.492   5.083   7.390 -2.0949 -1.5277 -1.5232
 3645TIP3   OH232493   2.431   2.938   0.150  0.0097  0.3029 -0.0274
 3645TIP3    H132494   2.376   2.863   0.171  1.6786 -1.3170 -1.1740
 3645TIP3    H232495   2.514   2.921   0.193  0.8160  0.8785 -1.2983
 3646TIP3   OH232496   1.247   0.653   0.980 -0.5540 -0.6246 -0.0457
 3646TIP3    H132497   1.269   0.560   0.987 -0.1526 -0.7530 -2.3101
 3646TIP3    H232498   1.212   0.663   0.891 -1.2192  1.2747  0.3818
 3647TIP3   OH232499   2.184   3.445   0.937 -0.5344  0.4048  0.3334
 3647TIP3    H132500   2.223   3.367   0.899 -0.3502  0.7377 -0.1660
 3647TIP3    H232501   2.116   3.472   0.874 -0.7919  0.4839  0.6387
 3648TIP3   OH232502   5.744   5.639   6.217  0.4196 -0.0913 -0.2326
 3648TIP3    H132503   5.706   5.714   6.171 -0.6800  0.2247  1.1291
 3648TIP3    H232504   5.835   5.664   6.234  0.5665  0.1803 -1.3140
 3649TIP3   OH232505   4.123   1.539   1.923  0.0876 -0.5475 -0.0398
 3649TIP3    H132506   4.049   1.571   1.973  0.7890 -0.0680  0.7041
 3649TIP3    H232507   4.200   1.575   1.966  0.7417 -0.5761 -1.1274
 3650TIP3   OH232508   5.857   2.568   7.579 -0.2378 -0.3678  0.2677
 3650TIP3    H132509   5.828   2.499   7.638  0.6193 -1.9090 -1.0266
 3650TIP3    H232510   5.923   2.617   7.629 -0.3978 -0.8729  0.9821
 3651TIP3   OH232511   1.235   2.983   1.859  0.2841 -0.3556  0.1398
 3651TIP3    H132512   1.324   2.973   1.895 -0.5030  0.2749  2.4059
 3651TIP3    H232513   1.190   2.902   1.884 -0.0455 -0.2806 -0.2067
 3652TIP3   OH232514   6.445   5.101   6.448  0.2023  0.1362 -0.0861
 3652TIP3    H132515   6.524   5.144   6.415 -0.1722 -0.6051 -2.0938
 3652TIP3    H232516   6.463   5.008   6.439 -0.9529 -0.0373 -0.7597
 3653TIP3   OH232517   2.109   5.037   6.023 -0.0272 -0.0771  0.1053
 3653TIP3    H132518   2.146   5.090   5.953 -1.4687  0.7215 -0.0997
 3653TIP3    H232519   2.051   4.974   5.979 -2.2189  1.4788  0.5820
 3654TIP3   OH232520   0.429   2.141   6.416 -0.2411 -0.5122 -0.5201
 3654TIP3    H132521   0.400   2.199   6.487 -0.3188 -1.1359 -0.0349
 3654TIP3    H232522   0.366   2.156   6.346 -2.2074 -2.3405  0.7547
 3655TIP3   OH232523   3.467   0.976   1.642 -0.0572  0.3641 -0.1262
 3655TIP3    H132524   3.488   0.885   1.621  0.9539  0.7868 -1.0193
 3655TIP3    H232525   3.401   0.970   1.711 -0.0813 -1.0443 -0.2482
 3656TIP3   OH232526   4.199   1.994   8.482 -0.1458  0.0768 -0.5000
 3656TIP3    H132527   4.260   1.941   8.430 -1.2669 -0.3971 -1.3823
 3656TIP3    H232528   4.127   1.934   8.502 -0.1742  0.5288  0.8163
 3657TIP3   OH232529   4.822   1.144   1.063  0.4512 -0.2254 -0.1704
 3657TIP3    H132530   4.837   1.134   0.969  0.0559 -2.1328 -0.0646
 3657TIP3    H232531   4.750   1.084   1.082 -0.4288  1.1746  1.1279
 3658TIP3   OH232532   3.669   1.274   0.453 -0.0735  0.1051 -0.0837
 3658TIP3    H132533   3.747   1.326   0.471 -0.1254  0.0650  0.2801
 3658TIP3    H232534   3.702   1.190   0.421  0.0603 -0.1589  0.7141
 3659TIP3   OH232535   5.366   1.888   8.339 -0.2418  0.3001  0.2241
 3659TIP3    H132536   5.377   1.961   8.278 -1.4443  0.5828  0.3164
 3659TIP3    H232537   5.451   1.844   8.340 -0.3461 -0.0637 -2.0802
 3660TIP3   OH232538   0.909   5.053   8.546 -0.1890  0.5320  0.1933
 3660TIP3    H132539   0.874   5.105   8.473  0.0156 -0.4547 -0.6282
 3660TIP3    H232540   1.004   5.059   8.537 -0.1033 -1.8323 -1.3373
 3661TIP3   OH232541   2.253   6.311   1.232 -0.4642  0.1365  0.6878
 3661TIP3    H132542   2.225   6.248   1.166 -1.0758 -0.6666  1.6824
 3661TIP3    H232543   2.347   6.295   1.242 -0.3884  0.1998  0.0777
 3662TIP3   OH232544   3.354   2.290   0.430  0.1472 -0.1188  0.0204
 3662TIP3    H132545   3.340   2.380   0.400 -0.1213 -0.4882 -0.9811
 3662TIP3    H232546   3.271   2.264   0.470  1.1533  1.1578  3.3207
 3663TIP3   OH232547   2.111   6.797   1.340 -0.2313  1.0007  0.0909
 3663TIP3    H132548   2.017   6.810   1.353 -0.0666  1.3286  1.0719
 3663TIP3    H232549   2.145   6.885   1.325 -0.0210  0.9421  0.2120
 3664TIP3   OH232550   3.254   5.735   7.720  0.5041 -0.7097  0.0418
 3664TIP3    H132551   3.211   5.752   7.637  1.5778  0.4127 -0.3117
 3664TIP3    H232552   3.264   5.821   7.761 -0.6173 -1.3023  1.6678
 3665TIP3   OH232553   5.569   6.119   2.543 -0.4962 -0.2374  0.3595
 3665TIP3    H132554   5.491   6.072   2.512  0.3080 -0.4035 -1.5798
 3665TIP3    H232555   5.539   6.169   2.618 -2.7204  0.4324 -0.8907
 3666TIP3   OH232556   1.273   0.286   0.124 -0.7710 -0.6056  0.4360
 3666TIP3    H132557   1.296   0.248   0.039 -0.9748  0.7369 -0.2519
 3666TIP3    H232558   1.182   0.314   0.114 -0.6053  0.1083  0.8972
 3667TIP3   OH232559   3.523   2.750   7.821  0.0104  0.3048 -0.0860
 3667TIP3    H132560   3.586   2.817   7.794  0.6053 -0.2825 -0.1504
 3667TIP3    H232561   3.452   2.800   7.862  1.5720  0.8230  2.1414
 3668TIP3   OH232562   2.350   0.776   7.464 -0.1498 -0.3937 -0.1618
 3668TIP3    H132563   2.372   0.723   7.387  1.8244 -1.9661  1.3557
 3668TIP3    H232564   2.266   0.817   7.442  0.0586 -1.2150 -2.8933
 3669TIP3   OH232565   1.243   4.559   7.975 -0.5509 -0.6025  0.0151
 3669TIP3    H132566   1.170   4.594   8.027 -1.1685 -0.8117 -0.6910
 3669TIP3    H232567   1.315   4.620   7.991 -1.4137  0.6681 -0.6928
 3670TIP3   OH232568   2.664   2.141   0.773  0.2225  0.0842  0.2823
 3670TIP3    H132569   2.675   2.195   0.851 -2.2849  0.3493  0.5619
 3670TIP3    H232570   2.590   2.084   0.793  1.4208 -1.9844 -0.8316
 3671TIP3   OH232571   0.679   0.063   8.384 -0.8410 -0.1973 -0.2061
 3671TIP3    H132572   0.653  -0.021   8.347 -1.8613  0.9843 -2.4082
 3671TIP3    H232573   0.647   0.062   8.474 -1.8058 -1.7379 -0.5387
 3672TIP3   OH232574   2.508   4.583   1.625  0.6524  0.4377  0.0676
 3672TIP3    H132575   2.480   4.591   1.717  0.1201  0.5816 -0.1040
 3672TIP3    H232576   2.458   4.509   1.591 -0.2467  1.2789 -0.5013
 3673TIP3   OH232577   5.274   0.285   6.161  0.3534 -0.0101  0.8620
 3673TIP3    H132578   5.212   0.359   6.158  1.1323  0.6590  0.9396
 3673TIP3    H232579   5.341   0.307   6.097  0.7257 -0.5383  1.0652
 3674TIP3   OH232580   0.678   0.351   7.303 -0.2934  0.1569 -0.7272
 3674TIP3    H132581   0.589   0.325   7.280  0.2290 -2.5586  0.0395
 3674TIP3    H232582   0.725   0.354   7.219 -0.9231  1.0482 -1.0687
 3675TIP3   OH232583   4.491   6.740   1.446  0.5174  0.9475  0.1138
 3675TIP3    H132584   4.402   6.720   1.417  0.5577  1.0921 -0.1163
 3675TIP3    H232585   4.540   6.659   1.431 -0.1703 -0.0703  2.8061
 3676TIP3   OH232586   6.309   4.987   2.002  0.0396 -0.1382  0.3820
 3676TIP3    H132587   6.362   4.912   1.974  2.2165  0.8216  1.6976
 3676TIP3    H232588   6.299   4.975   2.096  1.0011  1.5204  0.7316
 3677TIP3   OH232589   3.742   0.286   6.685 -0.3979 -0.4134 -0.0468
 3677TIP3    H132590   3.837   0.271   6.679 -0.4834 -0.8724 -0.3514
 3677TIP3    H232591   3.728   0.317   6.774 -0.1412 -1.7782  0.4955
 3678TIP3   OH232592   0.933   6.204   2.354  0.0414  0.9372  0.5901
 3678TIP3    H132593   0.862   6.228   2.414 -0.6530 -0.4431  0.3745
 3678TIP3    H232594   0.911   6.115   2.326  2.5592 -0.0610  1.5136
 3679TIP3   OH232595   5.571   1.823   0.212 -0.2664  0.1561  0.3276
 3679TIP3    H132596   5.497   1.795   0.266 -0.8407 -1.9700 -1.4049
 3679TIP3    H232597   5.532   1.878   0.144  0.0723  0.7786  0.6338
 3680TIP3   OH232598   5.914   6.307   1.855  0.0726 -0.6465  0.2407
 3680TIP3    H132599   5.946   6.227   1.814  0.9624  0.0731 -0.5239
 3680TIP3    H232600   5.990   6.344   1.899 -0.9740 -1.6503  3.0646
 3681TIP3   OH232601   0.950   2.144   8.040 -0.1123 -0.2311 -0.4859
 3681TIP3    H132602   0.944   2.114   7.949  0.5940  1.3189 -1.0767
 3681TIP3    H232603   1.026   2.202   8.041  1.1782 -1.8382  1.6012
 3682TIP3   OH232604   3.330   6.052   0.746  0.4858  0.1121 -0.2519
 3682TIP3    H132605   3.375   5.981   0.792 -0.8874 -1.4282 -1.1834
 3682TIP3    H232606   3.265   6.084   0.809 -0.2501 -0.8524 -0.4921
 3683TIP3   OH232607   6.395   0.134   1.743  0.9948 -0.5639 -0.2488
 3683TIP3    H132608   6.477   0.155   1.788  1.7221 -2.8081 -0.4282
 3683TIP3    H232609   6.422   0.094   1.661 -0.3048 -0.2223 -0.8689
 3684TIP3   OH232610   2.794   0.754   0.281  0.1546  0.4594  0.0351
 3684TIP3    H132611   2.815   0.775   0.190  0.3026  3.8022  0.6853
 3684TIP3    H232612   2.846   0.816   0.333  1.0005 -2.1190  2.5315
 3685TIP3   OH232613   1.189   6.413   7.273  0.4609  0.0951 -0.4892
 3685TIP3    H132614   1.235   6.497   7.263 -0.3889  0.4846 -1.3890
 3685TIP3    H232615   1.258   6.349   7.287  1.1939  0.8339 -0.6538
 3686TIP3   OH232616   5.137   5.758   8.629  0.2261  0.1308 -0.1875
 3686TIP3    H132617   5.211   5.815   8.613 -0.3306  0.7628 -0.5659
 3686TIP3    H232618   5.096   5.792   8.708  0.5591 -0.4514  0.2402
 3687TIP3   OH232619   5.315   3.007   7.374 -0.1192  0.4370 -0.5899
 3687TIP3    H132620   5.296   3.018   7.280  0.0273 -1.1799 -0.8324
 3687TIP3    H232621   5.398   2.961   7.376 -0.5231 -0.2858  0.3189
 3688TIP3   OH232622   2.775   2.787   1.036  0.2089  0.1034  0.1655
 3688TIP3    H132623   2.751   2.758   1.124 -0.4179 -0.2275 -0.1092
 3688TIP3    H232624   2.834   2.862   1.051 -1.0247  0.9688  0.8733
 3689TIP3   OH232625   1.437   0.962   1.434  0.4699  0.2741  0.5872
 3689TIP3    H132626   1.445   0.968   1.529 -0.5271  1.7361  0.6163
 3689TIP3    H232627   1.357   0.911   1.420 -1.0860  2.5198  0.6461
 3690TIP3   OH232628   2.041   2.804   7.860  0.1737  0.5806  0.2263
 3690TIP3    H132629   1.984   2.799   7.784 -1.3658  0.3522  1.3497
 3690TIP3    H232630   2.100   2.877   7.841 -2.7014  3.1667  0.3991
 3691TIP3   OH232631   4.378   1.482   8.303 -0.3230  0.0647 -0.5242
 3691TIP3    H132632   4.436   1.528   8.363 -1.3390 -0.0999  0.6244
 3691TIP3    H232633   4.362   1.398   8.346 -0.0714 -0.5725 -1.6433
 3692TIP3   OH232634   1.712   4.356   1.860  0.5827  0.2424  0.2441
 3692TIP3    H132635   1.793   4.343   1.811  1.2837  0.5466  1.3030
 3692TIP3    H232636   1.645   4.364   1.792  1.6561  1.6089 -0.7189
 3693TIP3   OH232637   4.267   3.719   7.960  0.0504  0.6339  0.1179
 3693TIP3    H132638   4.265   3.636   8.008  1.8297  0.1477 -0.5471
 3693TIP3    H232639   4.333   3.705   7.892 -0.8180  2.0607 -1.0599
 3694TIP3   OH232640   1.870   3.862   7.422 -0.5172  0.0448  0.3482
 3694TIP3    H132641   1.883   3.914   7.343 -1.1035  1.4852  1.1639
 3694TIP3    H232642   1.777   3.873   7.443 -0.2784  0.0280  1.4579
 3695TIP3   OH232643   5.715   0.986   8.404  0.2431 -0.6221  0.2666
 3695TIP3    H132644   5.709   1.027   8.490  0.0558 -2.2261  1.0600
 3695TIP3    H232645   5.736   0.895   8.422 -0.4069 -1.1428 -1.3603
 3696TIP3   OH232646   1.826   0.543   0.632 -0.1445  0.8784  0.0577
 3696TIP3    H132647   1.788   0.560   0.546 -1.2936  0.2386  0.4116
 3696TIP3    H232648   1.902   0.600   0.636  0.0886  0.7342 -1.4843
 3697TIP3   OH232649   0.200   5.409   8.016  0.3593  0.3597 -0.6642
 3697TIP3    H132650   0.153   5.348   8.074  0.1163 -0.3031 -1.5284
 3697TIP3    H232651   0.280   5.362   7.993 -0.5739 -0.3653 -2.6363
 3698TIP3   OH232652   4.634   5.445   1.664 -0.0829 -0.0754  0.0227
 3698TIP3    H132653   4.616   5.409   1.750  0.9468  0.2752  0.4074
 3698TIP3    H232654   4.711   5.396   1.634 -0.0857  0.2025 -0.4447
 3699TIP3   OH232655   2.072   0.020   0.628 -0.4018 -1.0290  0.1300
 3699TIP3    H132656   2.042   0.108   0.605 -1.5300 -1.6853 -1.0463
 3699TIP3    H232657   2.167   0.028   0.637 -0.5301  0.3725  0.3879
 3700TIP3   OH232658   5.929   4.223   1.239  0.4819  0.3282  0.0392
 3700TIP3    H132659   5.960   4.264   1.158  0.2878 -0.9081 -0.6950
 3700TIP3    H232660   5.952   4.285   1.308 -0.7196  2.1499 -1.1018
 3701TIP3   OH232661   0.955   3.440   0.633 -0.0106  0.2151  0.3823
 3701TIP3    H132662   0.946   3.529   0.599 -0.6833 -0.3742 -1.0330
 3701TIP3    H232663   1.038   3.441   0.681  0.7298  1.2123 -0.8691
 3702TIP3   OH232664   0.830   1.419   1.485 -0.0875 -0.2200 -0.0849
 3702TIP3    H132665   0.843   1.412   1.580  0.2537  1.1757  0.0032
 3702TIP3    H232666   0.741   1.388   1.470 -0.7417  1.0463  0.9289
 3703TIP3   OH232667   3.182   0.918   8.193  0.3009 -0.4486  0.1344
 3703TIP3    H132668   3.194   0.961   8.278 -1.4853 -0.0799  0.2549
 3703TIP3    H232669   3.259   0.862   8.182  0.3036 -0.9208  2.2506
 3704TIP3   OH232670   3.376   0.033   8.647  0.3983  0.4668  0.0207
 3704TIP3    H132671   3.429  -0.017   8.709  0.7610 -2.2091 -2.2631
 3704TIP3    H232672   3.287  -0.002   8.657  0.0008  1.5482  0.4793
 3705TIP3   OH232673   1.073   3.946   8.332  0.1599  0.4846  0.2102
 3705TIP3    H132674   1.092   4.040   8.337 -0.9649  0.6742  1.1777
 3705TIP3    H232675   0.978   3.941   8.325  0.3136 -0.5314 -2.1022
 3706TIP3   OH232676   5.778   5.250   7.394 -0.0226 -0.1361 -0.0325
 3706TIP3    H132677   5.733   5.275   7.474  0.8117  0.1373  0.3663
 3706TIP3    H232678   5.721   5.185   7.353 -1.0319  0.6114  0.1672
 3707TIP3   OH232679   6.044   3.877   6.236  0.5803  0.3609  0.2574
 3707TIP3    H132680   6.093   3.947   6.192  1.5987 -2.0262 -2.8071
 3707TIP3    H232681   6.109   3.809   6.251 -0.9275 -1.0943  0.4525
 3708TIP3   OH232682   0.070   0.928   2.322 -0.2622 -0.5989  0.6023
 3708TIP3    H132683   0.116   0.995   2.372 -1.2141  0.5186  0.0158
 3708TIP3    H232684  -0.023   0.949   2.333 -0.5161 -0.8146 -0.9539
 3709TIP3   OH232685   6.837   4.382   0.999  0.2064 -0.0120 -0.6135
 3709TIP3    H132686   6.920   4.429   0.992 -0.2061  1.1802  1.5208
 3709TIP3    H232687   6.770   4.450   1.000 -0.4545 -0.5789  1.9455
 3710TIP3   OH232688   1.881   2.710   1.392  0.0654  0.0847 -0.2661
 3710TIP3    H132689   1.977   2.707   1.394  0.0741  0.6794  1.1911
 3710TIP3    H232690   1.854   2.666   1.472 -0.7973  1.7599  0.4096
 3711TIP3   OH232691   3.319   5.302   8.077  0.3311  0.3727 -0.2309
 3711TIP3    H132692   3.232   5.263   8.086  0.5773 -0.6792 -1.8198
 3711TIP3    H232693   3.375   5.250   8.135  0.2093 -0.0995 -0.5289
 3712TIP3   OH232694   6.756   4.758   0.069 -0.0414  0.2777  0.1492
 3712TIP3    H132695   6.823   4.826   0.080 -0.6547  0.6030  2.5061
 3712TIP3    H232696   6.788   4.685   0.123 -0.4130 -0.5162 -0.6818
 3713TIP3   OH232697   4.636   5.421   1.091 -0.1179  0.1933  0.5555
 3713TIP3    H132698   4.580   5.473   1.148 -0.1453 -0.6777  1.3477
 3713TIP3    H232699   4.721   5.420   1.136  1.6567  4.1906 -2.1279
 3714TIP3   OH232700   1.942   0.596   0.191  0.4295  0.5070 -0.7936
 3714TIP3    H132701   1.942   0.594   0.286  0.7829  0.8498 -0.7801
 3714TIP3    H232702   1.899   0.515   0.164 -0.7305  0.9621 -0.3386
 3715TIP3   OH232703   3.278   2.551   8.551 -0.1881 -0.2725  0.3244
 3715TIP3    H132704   3.283   2.625   8.491 -0.5039 -0.4729  0.0461
 3715TIP3    H232705   3.341   2.488   8.517 -0.5378 -0.4839  0.0632
 3716TIP3   OH232706   0.574   3.529   7.822 -0.6221  0.2813 -0.0456
 3716TIP3    H132707   0.507   3.551   7.757 -1.0666 -0.9543 -0.0437
 3716TIP3    H232708   0.628   3.462   7.780  0.4439  1.0525  0.0685
 3717TIP3   OH232709   3.010   3.564   6.748 -0.3735  0.6207  0.1193
 3717TIP3    H132710   3.055   3.626   6.805 -0.8427  0.9597  0.1224
 3717TIP3    H232711   2.987   3.614   6.670 -0.9443  0.5147  0.2120
 3718TIP3   OH232712   0.179   2.182   0.924  0.7662  0.3357 -0.4255
 3718TIP3    H132713   0.132   2.264   0.915  0.1528 -0.1368 -1.9097
 3718TIP3    H232714   0.183   2.147   0.835  0.3808 -1.5819  0.2660
 3719TIP3   OH232715   5.456   2.979   8.291 -0.0225 -0.6356 -0.0966
 3719TIP3    H132716   5.478   2.892   8.324  1.3466 -0.0573  0.6050
 3719TIP3    H232717   5.382   3.008   8.345  0.7423 -0.6163  0.9624
 3720TIP3   OH232718   4.246   6.626   2.015  0.0298 -0.3989 -0.4069
 3720TIP3    H132719   4.294   6.671   2.085  0.6941  0.5848 -1.4737
 3720TIP3    H232720   4.313   6.575   1.969 -0.4474 -1.2264 -0.2104
 3721TIP3   OH232721   0.604   1.439   8.123 -0.1209 -0.0492  0.7974
 3721TIP3    H132722   0.518   1.435   8.081 -0.0489  2.5378  0.2616
 3721TIP3    H232723   0.664   1.403   8.057 -0.4744  0.5823  0.1125
 3722TIP3   OH232724   6.666   1.843   0.905 -0.2466 -0.3621  0.2528
 3722TIP3    H132725   6.622   1.843   0.819 -0.5360  2.3505  0.3080
 3722TIP3    H232726   6.638   1.925   0.946  1.7718 -0.4464  1.9730
 3723TIP3   OH232727   1.064   3.851   7.909  0.5938 -0.2711 -0.0653
 3723TIP3    H132728   1.054   3.818   7.819  0.3956 -0.4205  0.0110
 3723TIP3    H232729   1.114   3.932   7.899  0.8438 -0.4497 -0.2836
 3724TIP3   OH232730   4.712   1.950   1.622  0.3212  0.1898 -0.0272
 3724TIP3    H132731   4.765   2.018   1.666  0.2115  0.5603 -0.4602
 3724TIP3    H232732   4.624   1.962   1.658 -0.4566  2.3951 -2.3817
 3725TIP3   OH232733   2.091   5.848   8.148  0.1461 -0.0635  0.1801
 3725TIP3    H132734   2.086   5.918   8.213 -2.2921 -1.2897  1.4331
 3725TIP3    H232735   2.075   5.768   8.197 -0.7039 -1.1579 -1.7556
 3726TIP3   OH232736   5.563   1.657   2.018 -0.0769 -0.0260 -0.0846
 3726TIP3    H132737   5.645   1.633   2.061 -0.2897 -1.5285 -0.4544
 3726TIP3    H232738   5.496   1.607   2.066 -0.5694 -0.0814 -0.8139
 3727TIP3   OH232739   4.171   1.866   2.084 -0.6163  0.2796  0.5877
 3727TIP3    H132740   4.085   1.866   2.041  0.4719 -0.2983 -1.7152
 3727TIP3    H232741   4.175   1.782   2.130 -0.0863 -1.1763 -1.9648
 3728TIP3   OH232742   1.128   2.463   0.860  0.4728 -0.4875 -0.3840
 3728TIP3    H132743   1.113   2.429   0.948 -1.8990  2.9288  0.7175
 3728TIP3    H232744   1.222   2.481   0.857  0.3349  1.1689  2.3000
 3729TIP3   OH232745   2.108   4.562   1.916  0.1888 -0.4496 -0.3994
 3729TIP3    H132746   2.042   4.500   1.886  0.9873 -2.4725  1.6688
 3729TIP3    H232747   2.058   4.629   1.964 -0.6525  0.3987 -2.3596
 3730TIP3   OH232748   1.606   6.265   6.937  0.6456  0.2132 -0.5160
 3730TIP3    H132749   1.655   6.267   6.855  0.2670  0.2372 -0.7471
 3730TIP3    H232750   1.540   6.334   6.926  1.3111  0.9958  0.2678
 3731TIP3   OH232751   0.341   6.402   7.476 -0.1891  0.5464 -0.0372
 3731TIP3    H132752   0.401   6.425   7.405  0.4061  1.0283  0.6079
 3731TIP3    H232753   0.283   6.336   7.438  1.9146 -1.3620 -0.1811
 3732TIP3   OH232754   4.230   4.568   6.322  0.3963  0.2681  0.0094
 3732TIP3    H132755   4.224   4.615   6.406  2.1861 -0.0713  0.3664
 3732TIP3    H232756   4.231   4.638   6.256 -1.4893  0.5208  0.2007
 3733TIP3   OH232757   3.049   1.396   8.035 -0.7599  0.2298 -0.3908
 3733TIP3    H132758   3.074   1.368   8.123 -0.2859  0.6545 -0.3868
 3733TIP3    H232759   3.120   1.453   8.007 -0.5048 -0.5243 -1.3627
 3734TIP3   OH232760   1.360   3.398   1.097 -0.5292 -0.0664 -0.0466
 3734TIP3    H132761   1.387   3.458   1.027 -2.6955  0.9554 -0.1041
 3734TIP3    H232762   1.438   3.388   1.152  0.2673  1.8520 -0.7237
 3735TIP3   OH232763   0.664   1.315   0.407 -0.0935  0.6005  0.5689
 3735TIP3    H132764   0.635   1.344   0.321  0.4355 -0.0383  0.1656
 3735TIP3    H232765   0.586   1.321   0.462 -0.3000  1.5629  0.1945
 3736TIP3   OH232766   5.498   0.562   6.742  0.2494  0.0050 -0.2524
 3736TIP3    H132767   5.434   0.537   6.675 -2.4000 -0.7689  2.3704
 3736TIP3    H232768   5.507   0.657   6.731 -0.8588  0.0445 -1.1226
 3737TIP3   OH232769   1.742   3.324   6.570  0.0478 -0.4398 -0.1466
 3737TIP3    H132770   1.703   3.262   6.510 -0.7914  1.2895 -1.4628
 3737TIP3    H232771   1.752   3.405   6.519  0.7592  0.6324  1.5858
 3738TIP3   OH232772   5.799   0.283   0.317  0.7742 -0.4054  0.6434
 3738TIP3    H132773   5.851   0.261   0.394  1.4189  2.1406  1.0592
 3738TIP3    H232774   5.855   0.344   0.268 -0.1530 -0.9482 -1.1633
 3739TIP3   OH232775   5.088   5.932   0.161  0.1385  0.2640  0.2124
 3739TIP3    H132776   5.147   5.954   0.234 -0.3449 -0.4041  0.8230
 3739TIP3    H232777   5.049   6.016   0.136 -0.0017  0.4444  1.0084
 3740TIP3   OH232778   5.398   0.229   0.542 -0.2175  0.0067  0.1355
 3740TIP3    H132779   5.469   0.278   0.583 -0.7223 -0.6823  1.9402
 3740TIP3    H232780   5.327   0.292   0.532  0.4160  0.5532 -1.1425
 3741TIP3   OH232781   4.214   3.593   0.328  0.4552  0.4389  0.0237
 3741TIP3    H132782   4.263   3.514   0.351 -0.0434  0.2464  0.4483
 3741TIP3    H232783   4.267   3.665   0.364  0.8320  0.2944 -0.2308
 3742TIP3   OH232784   1.927   3.275   6.766  0.2881 -0.5219  0.1012
 3742TIP3    H132785   1.861   3.293   6.698  1.1403 -1.9482 -1.1573
 3742TIP3    H232786   1.977   3.201   6.732  2.4634  0.4213  1.0800
 3743TIP3   OH232787   6.467   1.046   8.362  0.2912 -0.4237  0.0642
 3743TIP3    H132788   6.538   1.109   8.375  0.1352  0.0769 -1.4193
 3743TIP3    H232789   6.393   1.083   8.410  0.8529 -0.6738  1.1565
 3744TIP3   OH232790   5.861   1.333   1.189 -0.0701 -0.2254  0.2867
 3744TIP3    H132791   5.826   1.413   1.229 -0.7581  0.1361 -0.9941
 3744TIP3    H232792   5.934   1.309   1.245 -0.5671  0.6515  1.3585
 3745TIP3   OH232793   3.059   1.891   8.579 -0.9891 -0.6911 -0.1394
 3745TIP3    H132794   2.976   1.851   8.603  0.4402 -2.9632  1.2939
 3745TIP3    H232795   3.053   1.903   8.484 -2.3990 -2.1292 -0.2651
 3746TIP3   OH232796   6.641   1.639   7.396 -0.1769  0.5811 -0.0201
 3746TIP3    H132797   6.558   1.594   7.413 -0.3680  0.0762 -2.0001
 3746TIP3    H232798   6.701   1.569   7.369 -0.0622  1.2943 -1.7539
 3747TIP3   OH232799   2.068   4.844   7.247  0.3845  0.0596  0.2769
 3747TIP3    H132800   2.156   4.871   7.219 -0.5103  1.0656 -1.6740
 3747TIP3    H232801   2.073   4.748   7.250  0.6856 -0.1251 -3.0755
 3748TIP3   OH232802   3.838   1.579   6.748 -0.6292 -0.2932  0.3668
 3748TIP3    H132803   3.841   1.675   6.751  1.1279 -0.2112 -1.6916
 3748TIP3    H232804   3.846   1.558   6.656 -0.3354 -2.4551  0.8419
 3749TIP3   OH232805   4.737   6.531   0.704  0.1310 -0.5261  0.4740
 3749TIP3    H132806   4.710   6.470   0.634 -1.2798  0.4439  0.1180
 3749TIP3    H232807   4.759   6.612   0.658 -2.1973  0.5996  1.1711
 3750TIP3   OH232808   0.414   6.586   7.656 -0.1206  0.1294 -0.1894
 3750TIP3    H132809   0.446   6.654   7.596 -0.1515  0.1863 -0.1417
 3750TIP3    H232810   0.392   6.512   7.598  0.7402 -0.1586 -0.1512
 3751TIP3   OH232811   0.167   0.120   6.271  0.3795 -0.6270 -0.1197
 3751TIP3    H132812   0.093   0.120   6.333  1.2743  4.0935  1.3382
 3751TIP3    H232813   0.226   0.053   6.304 -1.2110 -1.3580  1.4092
 3752TIP3   OH232814   5.214   3.886   0.711 -0.3684  0.5810  0.2075
 3752TIP3    H132815   5.308   3.870   0.725 -0.4580 -0.2966 -0.1166
 3752TIP3    H232816   5.171   3.812   0.752 -0.9695  1.3270  0.9475
 3753TIP3   OH232817   2.634   2.566   2.428  0.2292  0.2471 -0.0583
 3753TIP3    H132818   2.687   2.557   2.507  0.0230 -1.1787 -0.0644
 3753TIP3    H232819   2.633   2.660   2.411  1.7553  0.4267  0.6215
 3754TIP3   OH232820   6.019   4.922   8.480 -0.3717 -0.0237 -0.0719
 3754TIP3    H132821   5.934   4.933   8.438  0.3384  1.8155 -1.1351
 3754TIP3    H232822   6.082   4.913   8.408  0.4779 -0.2028  0.6632
 3755TIP3   OH232823   0.661   4.045   7.406 -0.5299  0.4984  0.3613
 3755TIP3    H132824   0.586   4.035   7.465  0.7901 -0.8828  1.9000
 3755TIP3    H232825   0.646   3.981   7.336 -1.1390  0.7723  0.2370
 3756TIP3   OH232826   3.315   3.113   8.008  0.4822 -0.2140 -0.5794
 3756TIP3    H132827   3.302   3.018   8.005 -0.2950 -0.1015 -1.5866
 3756TIP3    H232828   3.253   3.144   8.074 -0.1935 -0.2910 -1.1621
 3757TIP3   OH232829   0.412   5.446   0.044 -0.2496  0.3826 -0.1068
 3757TIP3    H132830   0.404   5.496   0.125  0.9293  0.5383 -0.0693
 3757TIP3    H232831   0.379   5.359   0.066  1.3676 -0.0059  0.9660
 3758TIP3   OH232832   1.019   2.218   1.056 -0.1437  0.0027  0.1925
 3758TIP3    H132833   1.016   2.148   1.121 -0.2008  1.4003  1.7506
 3758TIP3    H232834   1.095   2.270   1.080 -0.0777  0.4802 -0.9674
 3759TIP3   OH232835   0.415   0.044   7.927 -0.1351  0.1271  0.4951
 3759TIP3    H132836   0.359   0.105   7.879 -0.0493  0.5372  0.9160
 3759TIP3    H232837   0.367  -0.040   7.923  1.0900 -0.5818 -2.6351
 3760TIP3   OH232838   3.385   3.203   8.374  0.3927  0.0663  0.0718
 3760TIP3    H132839   3.465   3.154   8.394  0.0858 -0.3622  0.2504
 3760TIP3    H232840   3.339   3.149   8.310  0.5691  0.6398 -0.5572
 3761TIP3   OH232841   5.289   3.412   0.708  0.3077 -0.5612 -0.0181
 3761TIP3    H132842   5.355   3.352   0.675 -1.4291 -2.0256 -0.9809
 3761TIP3    H232843   5.225   3.419   0.637 -0.9826  0.1698  1.1613
 3762TIP3   OH232844   0.646   1.853   1.841  0.2010  0.0326  0.7156
 3762TIP3    H132845   0.571   1.904   1.873  1.2049  0.4477  2.5633
 3762TIP3    H232846   0.681   1.811   1.920  2.1714  0.2054 -0.0213
 3763TIP3   OH232847   1.717   3.627   0.176  0.1752  0.7036 -0.8001
 3763TIP3    H132848   1.651   3.625   0.246  0.4570  0.4140 -0.5376
 3763TIP3    H232849   1.780   3.559   0.200 -0.2378 -0.0770 -1.8375
 3764TIP3   OH232850   3.377   1.493   8.256  0.1632  0.0780 -0.1937
 3764TIP3    H132851   3.396   1.447   8.338 -0.9086  0.0285  0.0364
 3764TIP3    H232852   3.411   1.435   8.188 -0.6689 -0.7944  0.1189
 3765TIP3   OH232853   1.649   0.045   7.168 -0.2350  0.0031  0.3357
 3765TIP3    H132854   1.588   0.108   7.129 -1.6719 -0.9658  0.9332
 3765TIP3    H232855   1.677  -0.010   7.094  0.4153  0.8313 -0.0476
 3766TIP3   OH232856   6.277   2.142   1.244  0.1985 -0.4197  0.4543
 3766TIP3    H132857   6.370   2.119   1.241  0.5302  0.8895 -0.9058
 3766TIP3    H232858   6.232   2.065   1.209  0.9657 -0.3988 -0.6542
 3767TIP3   OH232859   1.685   5.925   7.467 -0.5105 -0.2809 -0.0496
 3767TIP3    H132860   1.761   5.883   7.508 -1.5455 -1.1162  1.0888
 3767TIP3    H232861   1.715   6.014   7.448  0.2605 -0.0390  1.9660
 3768TIP3   OH232862   1.918   1.423   0.752 -0.2828  0.3476  0.4638
 3768TIP3    H132863   1.981   1.474   0.802 -0.5513  0.4515  0.6957
 3768TIP3    H232864   1.875   1.366   0.816 -2.2240  2.0512  0.7873
 3769TIP3   OH232865   1.794   1.708   7.714 -0.4477  0.0395 -0.2399
 3769TIP3    H132866   1.854   1.637   7.735 -0.3639 -0.2646 -1.4560
 3769TIP3    H232867   1.721   1.665   7.668 -0.6977  0.6534 -0.4325
 3770TIP3   OH232868   4.745   0.321   2.470 -0.4291  0.4656 -0.3384
 3770TIP3    H132869   4.808   0.365   2.412  2.7947 -1.3841  1.4373
 3770TIP3    H232870   4.728   0.385   2.539 -0.9064  1.1671 -1.0947
 3771TIP3   OH232871   0.443   1.963   2.212  0.5473 -0.4118 -0.1672
 3771TIP3    H132872   0.507   2.030   2.187  0.7100 -0.7548 -0.6939
 3771TIP3    H232873   0.359   1.999   2.187  0.2954  0.8363  2.1732
 3772TIP3   OH232874   3.842   1.482   8.055  0.2566 -0.3622 -0.0974
 3772TIP3    H132875   3.841   1.525   7.969  0.2244 -0.6989 -0.2648
 3772TIP3    H232876   3.775   1.529   8.106  0.6014  0.1476 -0.1028
 3773TIP3   OH232877   6.723   2.588   7.767 -0.8274 -0.1099 -0.1847
 3773TIP3    H132878   6.790   2.522   7.750 -0.8556 -0.2082  0.0780
 3773TIP3    H232879   6.723   2.644   7.689 -0.8465 -0.4556 -0.4316
 3774TIP3   OH232880   5.749   0.070   1.143  0.0798 -0.5727  0.9690
 3774TIP3    H132881   5.697   0.024   1.209 -0.8094  3.0793  3.0649
 3774TIP3    H232882   5.826   0.101   1.190  1.0543 -0.5611 -0.5598
 3775TIP3   OH232883   6.350   0.182   2.372 -0.0240 -0.2986 -0.3429
 3775TIP3    H132884   6.427   0.239   2.373  0.4192 -0.8350 -1.4703
 3775TIP3    H232885   6.372   0.112   2.434 -0.0200  0.0560  0.0621
 3776TIP3   OH232886   5.985   5.436   0.173 -0.3336 -0.1326  0.4995
 3776TIP3    H132887   5.945   5.499   0.113 -1.4966 -0.7980  0.5505
 3776TIP3    H232888   6.058   5.484   0.212  0.0058  0.5497 -0.9040
 3777TIP3   OH232889   3.859   4.153   8.247 -0.2592 -0.2520 -0.2947
 3777TIP3    H132890   3.925   4.122   8.185  1.0467 -0.2440  1.0356
 3777TIP3    H232891   3.853   4.247   8.230  1.1080 -0.0070  0.4810
 3778TIP3   OH232892   6.058   6.286   6.350 -0.2156 -0.0924  0.2694
 3778TIP3    H132893   6.000   6.348   6.394  1.1345  1.0122  0.5662
 3778TIP3    H232894   6.114   6.252   6.420 -1.8344 -2.8157  0.4008
 3779TIP3   OH232895   2.556   4.780   0.282 -0.4700  0.3003 -0.4887
 3779TIP3    H132896   2.492   4.803   0.215 -2.6300 -0.7585  1.0898
 3779TIP3    H232897   2.519   4.816   0.363 -0.3022 -2.3582  0.8619
 3780TIP3   OH232898   3.888   1.646   1.130 -0.3017  0.2519 -0.0311
 3780TIP3    H132899   3.955   1.692   1.181 -1.8241 -0.5059  2.8659
 3780TIP3    H232900   3.807   1.660   1.179 -1.5602 -2.0080 -1.3273
 3781TIP3   OH232901   2.031   3.799   0.312  0.6456  0.0061 -0.1231
 3781TIP3    H132902   2.045   3.833   0.224 -0.6220 -0.7851 -0.6391
 3781TIP3    H232903   2.084   3.720   0.316  0.3316 -0.2130 -0.3305
 3782TIP3   OH232904   6.634   4.303   6.139 -0.1429  0.1291  0.1209
 3782TIP3    H132905   6.661   4.217   6.173 -2.2791 -0.1673  1.2548
 3782TIP3    H232906   6.621   4.357   6.217 -1.2338  0.6937 -0.4281
 3783TIP3   OH232907   0.357   5.912   7.391  0.5145  0.5500  0.2465
 3783TIP3    H132908   0.347   5.964   7.470  0.6180 -1.5519  1.7236
 3783TIP3    H232909   0.445   5.933   7.359  0.0330  2.2908 -0.0174
 3784TIP3   OH232910   3.573   5.445   0.133 -0.1528  0.1585  0.0877
 3784TIP3    H132911   3.651   5.406   0.093 -0.5443 -0.7302  0.1840
 3784TIP3    H232912   3.560   5.527   0.084  2.0820  1.4259  1.4705
 3785TIP3   OH232913   3.369   2.180   2.042 -0.5015 -0.2432  0.0166
 3785TIP3    H132914   3.464   2.193   2.032 -0.3729 -0.5691  0.7452
 3785TIP3    H232915   3.344   2.243   2.110 -1.0653  0.8289 -1.1547
 3786TIP3   OH232916   5.140   4.576   0.237 -0.2887  0.2647  0.1036
 3786TIP3    H132917   5.080   4.572   0.311  0.5463  0.1061  0.7975
 3786TIP3    H232918   5.173   4.666   0.238 -2.1243  1.0299 -1.6287
 3787TIP3   OH232919   4.853   6.080   6.713 -0.9453 -0.0404 -0.4287
 3787TIP3    H132920   4.840   5.992   6.680  0.9656  0.0454 -1.5464
 3787TIP3    H232921   4.819   6.078   6.803 -2.2243 -1.4909 -0.9123
 3788TIP3   OH232922   5.166   3.446   6.201  0.0973  0.0318  0.3573
 3788TIP3    H132923   5.150   3.515   6.265 -0.1233  0.5314 -0.2202
 3788TIP3    H232924   5.163   3.491   6.116  3.7087  0.0172  0.0888
 3789TIP3   OH232925   5.306   0.999   6.404  0.2633 -0.7707  0.5485
 3789TIP3    H132926   5.298   1.089   6.434  0.8764 -0.5969  0.1972
 3789TIP3    H232927   5.215   0.969   6.395 -0.1147  0.9512 -2.7750
 3790TIP3   OH232928   4.517   6.440   1.091  0.0998 -0.0349 -0.0044
 3790TIP3    H132929   4.585   6.419   1.027 -0.6423  0.7569 -1.0963
 3790TIP3    H232930   4.537   6.529   1.120 -0.3170  0.1082 -0.1446
 3791TIP3   OH232931   1.458   5.969   7.309 -0.8389  0.0057  0.4826
 3791TIP3    H132932   1.534   5.939   7.359 -1.1935 -1.8192  0.0029
 3791TIP3    H232933   1.439   5.897   7.249 -3.0507  0.3256  0.7163
 3792TIP3   OH232934   5.530   1.875   1.372  0.0048  0.1104  0.3079
 3792TIP3    H132935   5.462   1.925   1.418 -0.1994  0.7809 -0.6858
 3792TIP3    H232936   5.577   1.828   1.441 -1.7752 -0.7670  0.9966
 3793TIP3   OH232937   2.206   1.900   8.555 -0.3817  0.5545 -0.5969
 3793TIP3    H132938   2.285   1.937   8.593  0.0310  0.0668 -0.9696
 3793TIP3    H232939   2.234   1.817   8.517 -1.4483 -0.5476  0.9245
 3794TIP3   OH232940   1.863   4.487   0.152 -0.0843  0.1215 -0.5857
 3794TIP3    H132941   1.832   4.435   0.227  2.2125  2.5144  2.2371
 3794TIP3    H232942   1.792   4.548   0.134 -0.4519 -0.1343 -0.0246
 3795TIP3   OH232943   5.037   2.340   6.829  0.5413  0.3048 -0.3129
 3795TIP3    H132944   5.048   2.431   6.802 -0.2923  0.1623 -1.1704
 3795TIP3    H232945   5.126   2.309   6.844  1.0563  0.5081 -2.5902
 3796TIP3   OH232946   3.226   1.196   0.698  0.0561 -0.4813 -0.1955
 3796TIP3    H132947   3.220   1.174   0.791  0.0357 -0.8216 -0.2791
 3796TIP3    H232948   3.318   1.182   0.676 -0.3970 -2.7733 -0.8235
 3797TIP3   OH232949   2.688   4.067   6.706  0.1678 -0.3647  0.3808
 3797TIP3    H132950   2.653   4.106   6.786 -0.4194  0.4980 -0.2791
 3797TIP3    H232951   2.611   4.049   6.652  0.6689  1.6735 -1.1471
 3798TIP3   OH232952   5.555   4.232   0.976  0.0152 -0.5439  0.5950
 3798TIP3    H132953   5.626   4.296   0.967  0.8576 -1.1217  2.6137
 3798TIP3    H232954   5.486   4.265   0.919  1.6450  0.3693 -0.9813
 3799TIP3   OH232955   1.397   6.269   0.168  0.3009 -0.0345  0.2956
 3799TIP3    H132956   1.309   6.242   0.143  0.6699  1.1973 -2.6454
 3799TIP3    H232957   1.384   6.350   0.218 -0.2208  2.2616 -3.2558
 3800TIP3   OH232958   2.252   4.561   1.217  0.4956  0.8004 -0.0953
 3800TIP3    H132959   2.185   4.493   1.231  0.9426  0.2336 -0.6450
 3800TIP3    H232960   2.221   4.608   1.140 -0.6549  2.2924  1.2175
 3801TIP3   OH232961   3.261   6.190   7.997 -0.2183  0.0990  0.0498
 3801TIP3    H132962   3.229   6.101   7.980  0.4135  0.1361 -1.4964
 3801TIP3    H232963   3.185   6.246   7.983 -0.5031 -0.1498  0.5639
 3802TIP3   OH232964   0.010   3.725   7.015 -0.5298 -0.2507  0.1689
 3802TIP3    H132965  -0.023   3.802   6.969 -0.0805  1.0721  1.9580
 3802TIP3    H232966   0.025   3.660   6.946 -0.2959  1.4782 -1.4793
 3803TIP3   OH232967   0.647   5.887   8.158  0.4213 -0.1060 -0.3873
 3803TIP3    H132968   0.689   5.929   8.233  1.3651 -1.6987  0.0488
 3803TIP3    H232969   0.595   5.817   8.197  1.2621 -1.2270 -1.1990
 3804TIP3   OH232970   1.360   1.505   8.125 -0.2890 -0.5425 -0.5157
 3804TIP3    H132971   1.378   1.420   8.166  0.7547  0.1257  0.4794
 3804TIP3    H232972   1.280   1.536   8.169  0.1435 -0.3760  0.1710
 3805TIP3   OH232973   3.541   2.646   1.989 -0.0998  0.0864  0.3846
 3805TIP3    H132974   3.481   2.610   2.054 -2.1105 -1.3332 -2.0631
 3805TIP3    H232975   3.528   2.591   1.912  0.7125  2.7852 -1.8546
 3806TIP3   OH232976   5.014   1.169   8.331 -0.7866  0.1111 -0.0340
 3806TIP3    H132977   5.104   1.152   8.358 -0.0993  1.0712 -1.5547
 3806TIP3    H232978   4.962   1.105   8.379  0.5565  0.3184  1.7796
 3807TIP3   OH232979   6.073   0.576   0.307  0.2349 -0.3559  0.6072
 3807TIP3    H132980   6.154   0.571   0.358  1.1034  0.9691 -0.5680
 3807TIP3    H232981   6.075   0.498   0.251 -0.1963 -1.2489  1.7946
 3808TIP3   OH232982   6.325   3.239   7.717 -0.3018  0.2362 -0.0903
 3808TIP3    H132983   6.310   3.175   7.646  1.8992 -0.8544  0.3430
 3808TIP3    H232984   6.246   3.293   7.717 -1.8560 -1.8747 -1.1335
 3809TIP3   OH232985   1.641   2.784   0.582  0.2943 -0.6748 -0.1240
 3809TIP3    H132986   1.659   2.842   0.508 -0.1040 -0.4593 -0.0556
 3809TIP3    H232987   1.586   2.714   0.545  0.1916 -0.6300 -0.0555
 3810TIP3   OH232988   1.029   5.283   0.773  0.2341 -0.2201  0.4675
 3810TIP3    H132989   1.085   5.216   0.733 -1.0597 -0.3299 -1.2621
 3810TIP3    H232990   0.945   5.274   0.728 -1.6964 -0.9605  3.8439
 3811TIP3   OH232991   5.483   1.426   7.562 -0.3731  0.3830  0.1181
 3811TIP3    H132992   5.480   1.337   7.598 -1.5174  0.5489  0.4803
 3811TIP3    H232993   5.572   1.435   7.529  0.7632  0.2184  2.8584
 3812TIP3   OH232994   3.419   0.953   0.069 -0.1471  0.1380 -0.1198
 3812TIP3    H132995   3.327   0.949   0.045 -0.0947 -0.7067 -0.2432
 3812TIP3    H232996   3.450   0.862   0.059  0.4743  0.2387  0.7679
 3813TIP3   OH232997   1.697   5.192   2.273  0.2859 -0.2127  0.3939
 3813TIP3    H132998   1.681   5.099   2.256 -0.6014 -0.0783  0.4870
 3813TIP3    H232999   1.614   5.235   2.254  0.0959  0.3128  2.2343
 3814TIP3   OH233000   4.315   3.783   0.724  0.0374  0.7066  0.3971
 3814TIP3    H133001   4.363   3.812   0.802 -1.0092  0.2749  1.2279
 3814TIP3    H233002   4.288   3.864   0.681  1.7028  0.9603 -0.2301
 3815TIP3   OH233003   2.732   0.090   8.300 -0.1102  0.4047  0.1801
 3815TIP3    H133004   2.728   0.013   8.243  1.0926  0.2938  0.2167
 3815TIP3    H233005   2.642   0.103   8.330 -0.2303 -1.3609  0.6693
 3816TIP3   OH233006   2.479   6.571   6.910  0.3032  0.2163  0.5276
 3816TIP3    H133007   2.399   6.565   6.857 -0.0388  2.1105  0.7548
 3816TIP3    H233008   2.449   6.560   7.000  0.5369 -0.5704  0.5174
 3817TIP3   OH233009   1.489   6.031   6.895 -0.3768 -0.2825 -0.3333
 3817TIP3    H133010   1.523   5.967   6.957 -1.0369  0.5342  0.9252
 3817TIP3    H233011   1.539   6.111   6.913 -0.9349  0.1109 -0.5007
 3818TIP3   OH233012   3.827   3.600   0.973  0.0871 -0.2055  0.3824
 3818TIP3    H133013   3.871   3.566   1.050  1.2434  0.1516 -0.0968
 3818TIP3    H233014   3.886   3.668   0.939  0.6179 -1.7351 -1.9766
 3819TIP3   OH233015   4.423   3.249   0.786 -0.4186 -0.4500 -0.2206
 3819TIP3    H133016   4.335   3.217   0.808 -0.8843 -0.0810 -1.4331
 3819TIP3    H233017   4.412   3.344   0.777  0.2808 -0.3031  0.3475
 3820TIP3   OH233018   5.824   5.224   8.594 -0.0579 -0.2278  0.0919
 3820TIP3    H133019   5.791   5.313   8.584  0.1858 -0.2072 -0.5590
 3820TIP3    H233020   5.860   5.202   8.508 -3.5447 -2.3749 -0.9916
 3821TIP3   OH233021   1.095   4.214   8.308 -0.5166  0.2468 -0.1087
 3821TIP3    H133022   1.173   4.246   8.261 -0.5734 -0.0706 -0.4236
 3821TIP3    H233023   1.113   4.234   8.400  0.5538 -1.0601 -0.0051
 3822TIP3   OH233024   2.988   6.250   0.542  0.2378 -0.3165 -0.3608
 3822TIP3    H133025   2.957   6.223   0.456  0.2519  0.6703 -0.6810
 3822TIP3    H233026   3.084   6.246   0.535  0.2932  1.1819 -0.8858
 3823TIP3   OH233027   2.642   4.122   8.439  0.2765 -0.3017 -0.1314
 3823TIP3    H133028   2.661   4.125   8.533 -1.4802  1.6660  0.2331
 3823TIP3    H233029   2.546   4.124   8.434  0.3149  2.7479 -1.9630
 3824TIP3   OH233030   3.366   3.051   1.682 -0.2976 -0.5087 -0.5223
 3824TIP3    H133031   3.357   3.049   1.778 -2.0092  0.9883 -0.5964
 3824TIP3    H233032   3.293   2.997   1.650 -1.1411  0.8556 -0.9848
 3825TIP3   OH233033   0.184   3.963   0.284  0.2140  0.1985  0.2175
 3825TIP3    H133034   0.135   3.912   0.349  1.7807  0.4321  1.6701
 3825TIP3    H233035   0.227   3.897   0.229 -1.7678 -0.0064 -1.1634
 3826TIP3   OH233036   6.028   6.161   1.509  0.4623  0.5163 -0.3736
 3826TIP3    H133037   6.022   6.132   1.600  0.4760  0.4986 -0.3785
 3826TIP3    H233038   5.939   6.151   1.475  0.9097 -1.6556 -1.0363
 3827TIP3   OH233039   6.111   3.092   8.377  0.5105 -0.2599  0.4320
 3827TIP3    H133040   6.090   3.050   8.461  2.3826  2.2051  2.3103
 3827TIP3    H233041   6.044   3.159   8.366  0.5761 -0.2308  0.2067
 3828TIP3   OH233042   1.198   1.942   1.936 -0.2376 -0.3025 -0.4232
 3828TIP3    H133043   1.168   1.950   1.846  0.5809  1.8121 -0.5704
 3828TIP3    H233044   1.280   1.893   1.931 -0.4609 -0.6379 -0.7650
 3829TIP3   OH233045   1.776   0.188   7.610  0.2729  0.5650  0.5741
 3829TIP3    H133046   1.813   0.128   7.546 -2.1984 -0.6664  0.1740
 3829TIP3    H233047   1.747   0.263   7.558  1.5403  1.2340  0.7990
 3830TIP3   OH233048   6.419   4.056   0.042 -0.3198 -0.0391  0.0782
 3830TIP3    H133049   6.440   4.143   0.078  1.0912 -1.9120  4.3708
 3830TIP3    H233050   6.336   4.069  -0.004 -1.4929  3.1490  2.6696
 3831TIP3   OH233051   0.941   5.695   0.682 -0.1132 -0.2501 -0.1145
 3831TIP3    H133052   0.925   5.634   0.609  1.3834 -0.9940  0.1457
 3831TIP3    H233053   1.013   5.655   0.731  1.4068  2.0780 -0.3230
 3832TIP3   OH233054   3.049   1.352   7.026 -1.0891  0.0315 -0.1752
 3832TIP3    H133055   3.059   1.266   6.985  3.2909  0.9011 -1.5431
 3832TIP3    H233056   3.113   1.352   7.098 -0.7491  2.1728 -0.3905
 3833TIP3   OH233057   1.586   0.124   0.946 -0.1569 -0.7611 -0.4903
 3833TIP3    H133058   1.681   0.116   0.936  0.3983  0.8932  2.1553
 3833TIP3    H233059   1.563   0.200   0.892  0.1652 -0.7276 -0.5849
 3834TIP3   OH233060   5.042   3.454   1.182 -0.3135 -0.4431 -0.0591
 3834TIP3    H133061   4.981   3.416   1.119 -0.9584  2.0875 -1.0842
 3834TIP3    H233062   5.129   3.438   1.145 -0.5555 -1.0542 -0.3704
 3835TIP3   OH233063   3.597   3.588   0.807 -0.2469 -0.0023 -0.3287
 3835TIP3    H133064   3.683   3.601   0.846  0.0419  0.8729 -1.2214
 3835TIP3    H233065   3.613   3.528   0.733 -0.2950  0.6142 -0.8478
 3836TIP3   OH233066   2.423   6.185   8.150 -0.1997 -0.1250 -0.1876
 3836TIP3    H133067   2.494   6.192   8.086 -0.3413 -0.8135 -0.4305
 3836TIP3    H233068   2.343   6.188   8.096 -0.5712  3.7523  0.2486
 3837TIP3   OH233069   6.028   6.524   0.579  0.2786  0.1999  0.1157
 3837TIP3    H133070   6.024   6.507   0.485  0.4341  0.8777 -0.0195
 3837TIP3    H233071   5.961   6.590   0.595  0.3247  0.1669  0.4600
 3838TIP3   OH233072   2.972   2.405   0.240  0.5104 -0.4181  0.0703
 3838TIP3    H133073   3.015   2.321   0.223  0.8035 -0.3260  0.3580
 3838TIP3    H233074   2.899   2.383   0.298  0.8154 -0.4225  0.4576
 3839TIP3   OH233075   1.354   1.692   6.238  0.4223  0.4636  0.0884
 3839TIP3    H133076   1.414   1.743   6.183 -0.9670  0.8666 -1.1134
 3839TIP3    H233077   1.402   1.679   6.319  3.3385 -1.7729 -1.7991
 3840TIP3   OH233078   2.006   6.091   0.403 -0.3934  0.2031  0.0525
 3840TIP3    H133079   2.031   6.169   0.452  0.5355  1.6814 -2.5841
 3840TIP3    H233080   2.070   6.025   0.429 -0.1627  0.8013  1.0763
 3841TIP3   OH233081   0.737   2.791   8.465 -0.2257  0.4916 -0.4374
 3841TIP3    H133082   0.822   2.767   8.501  0.2183  1.7201 -0.6077
 3841TIP3    H233083   0.728   2.738   8.386  0.4036  0.3974 -0.4439
 3842TIP3   OH233084   4.018   3.455   1.099 -0.3823  0.2960  0.2269
 3842TIP3    H133085   4.027   3.376   1.153 -1.4519 -1.6102 -2.1283
 3842TIP3    H233086   4.107   3.487   1.088  0.3567 -1.6995 -0.1550
 3843TIP3   OH233087   0.418   4.806   6.450  0.1595 -0.1941 -0.9953
 3843TIP3    H133088   0.379   4.732   6.496 -1.4385  0.2220 -1.6059
 3843TIP3    H233089   0.472   4.767   6.382 -1.1747 -0.8281 -1.7279
 3844TIP3   OH233090   5.355   4.149   1.343 -0.4150 -0.0133  0.3706
 3844TIP3    H133091   5.437   4.100   1.351 -0.0786  0.2645 -1.1598
 3844TIP3    H233092   5.293   4.100   1.398 -0.0248 -2.0248 -0.8814
 3845TIP3   OH233093   3.306   5.190   1.258  0.1456 -0.2967  0.0145
 3845TIP3    H133094   3.327   5.197   1.351 -0.6757 -0.3564  0.2115
 3845TIP3    H233095   3.217   5.226   1.251  0.0559 -0.6426 -0.6866
 3846TIP3   OH233096   4.867   3.871   8.278  0.2994 -0.9709  0.3102
 3846TIP3    H133097   4.902   3.793   8.322  1.3252 -0.3103  0.7151
 3846TIP3    H233098   4.934   3.893   8.213  1.1036  0.8042  1.6544
 3847TIP3   OH233099   3.911   2.409   8.031 -0.5106  0.1375  0.1831
 3847TIP3    H133100   3.996   2.408   7.988  0.0527  0.2804  1.2624
 3847TIP3    H233101   3.866   2.332   7.997  0.6019 -0.7512  0.6646
 3848TIP3   OH233102   2.418   5.186   7.141  0.2242  0.4385 -0.3905
 3848TIP3    H133103   2.506   5.224   7.139  0.4710 -0.0566  0.5189
 3848TIP3    H233104   2.385   5.207   7.228  0.4684 -1.6198  0.2413
 3849TIP3   OH233105   6.685   5.908   1.712 -0.1892  0.3176 -0.0625
 3849TIP3    H133106   6.767   5.953   1.691  2.3311 -2.7029  2.3475
 3849TIP3    H233107   6.644   5.963   1.779  0.6538  1.0800 -0.1457
 3850TIP3   OH233108   6.806   0.118   0.516  0.1357  0.0317 -0.1619
 3850TIP3    H133109   6.858   0.185   0.472 -1.0534  0.7463 -0.5589
 3850TIP3    H233110   6.869   0.060   0.557  1.2320  0.5777 -1.0411
 3851TIP3   OH233111   4.440   4.517   1.421  0.7289  0.0999 -0.7258
 3851TIP3    H133112   4.449   4.584   1.353 -1.1879  2.9954  1.5818
 3851TIP3    H233113   4.496   4.549   1.493  1.5581 -2.0795 -0.3277
 3852TIP3   OH233114   6.742   1.343   1.058 -0.1124  0.5337  0.1113
 3852TIP3    H133115   6.814   1.399   1.027  2.9040 -2.1311  1.7579
 3852TIP3    H233116   6.691   1.323   0.979  2.3279  0.6938 -1.5936
 3853TIP3   OH233117   2.998   6.603   7.540 -0.3302  0.1480  0.2300
 3853TIP3    H133118   3.041   6.663   7.601 -0.1703 -0.8563  1.1378
 3853TIP3    H233119   2.914   6.645   7.522 -0.3106  0.5534  1.0169
 3854TIP3   OH233120   5.829   2.270   0.356  0.2695 -0.8850  0.1291
 3854TIP3    H133121   5.788   2.301   0.275 -0.7278  1.1863  1.3290
 3854TIP3    H233122   5.853   2.180   0.337 -0.8747 -0.8103 -2.1248
 3855TIP3   OH233123   6.328   1.125   0.042  0.6199 -0.3069  0.2386
 3855TIP3    H133124   6.412   1.080   0.033  0.0857 -1.4380  0.6896
 3855TIP3    H233125   6.281   1.076   0.110  0.2587  1.3431  1.2385
 3856TIP3   OH233126   3.711   5.990   6.758  0.6044  0.0263  0.1007
 3856TIP3    H133127   3.756   6.046   6.822 -0.6947 -0.9187  1.9172
 3856TIP3    H233128   3.675   6.051   6.694  1.4869  1.0476  0.5388
 3857TIP3   OH233129   4.578   2.553   6.483  0.4885  0.4297 -0.3833
 3857TIP3    H133130   4.602   2.573   6.393 -1.0860  0.6102 -0.7880
 3857TIP3    H233131   4.514   2.620   6.506 -0.0274 -0.3291  0.4490
 3858TIP3   OH233132   5.738   1.324   6.544  0.2093  0.5585 -0.2013
 3858TIP3    H133133   5.824   1.343   6.506 -0.1732  0.2271 -1.2723
 3858TIP3    H233134   5.677   1.380   6.495 -0.5264 -1.1539 -1.3517
 3859TIP3   OH233135   3.474   0.792   8.305  0.2579 -1.1417 -0.3445
 3859TIP3    H133136   3.548   0.764   8.359  1.7293  0.0969 -1.6198
 3859TIP3    H233137   3.478   0.737   8.227  0.7330 -0.1429 -1.0532
 3860TIP3   OH233138   0.393   1.949   1.871 -0.1377 -0.4226 -0.9239
 3860TIP3    H133139   0.331   1.897   1.922  1.9676 -1.1367  1.1211
 3860TIP3    H233140   0.357   2.038   1.871 -1.2042 -0.8351  0.1223
 3861TIP3   OH233141   0.762   4.491   0.049 -0.1154 -0.4181 -0.6062
 3861TIP3    H133142   0.688   4.462   0.103  1.0256 -1.1626  0.6328
 3861TIP3    H233143   0.721   4.524  -0.031 -1.8747  0.6252  0.6441
 3862TIP3   OH233144   0.195   1.038   1.455  0.3796  0.0494 -0.6526
 3862TIP3    H133145   0.106   1.005   1.443 -0.2627  0.9008  1.3393
 3862TIP3    H233146   0.250   0.959   1.458 -0.6489 -0.6609  0.4679
 3863TIP3   OH233147   5.727   2.399   1.585 -0.6365 -0.0732 -0.3933
 3863TIP3    H133148   5.762   2.321   1.626 -1.3160  0.0519  0.4548
 3863TIP3    H233149   5.800   2.461   1.584 -0.4458 -0.2858  0.0815
 3864TIP3   OH233150   2.952   4.688   1.164 -0.2058 -0.1631  0.0858
 3864TIP3    H133151   2.883   4.722   1.106  0.0970  0.4823  0.0898
 3864TIP3    H233152   3.030   4.686   1.109  0.5493  2.2870  0.9188
 3865TIP3   OH233153   3.387   4.499   1.327  0.0432 -0.1472 -0.0666
 3865TIP3    H133154   3.368   4.440   1.400  1.2195  0.3664  0.6863
 3865TIP3    H233155   3.348   4.583   1.353  0.7751  0.1349  0.1621
 3866TIP3   OH233156   2.599   5.331   1.394 -0.0408  0.5937 -0.5331
 3866TIP3    H133157   2.598   5.400   1.460 -1.5335  0.2306 -0.1432
 3866TIP3    H233158   2.617   5.251   1.443 -0.3862  0.4322 -0.6643
 3867TIP3   OH233159   2.808   6.627   6.683 -0.0360 -0.9114 -0.6326
 3867TIP3    H133160   2.822   6.577   6.763 -0.4700 -1.6838 -1.0200
 3867TIP3    H233161   2.895   6.650   6.653  0.1025  0.4951  0.7189
 3868TIP3   OH233162   6.791   3.568   0.946  0.5974  1.0586  0.3737
 3868TIP3    H133163   6.727   3.617   0.997 -2.5019 -0.9358 -1.3025
 3868TIP3    H233164   6.764   3.581   0.855  1.5586 -1.2019 -0.2939
 3869TIP3   OH233165   6.739   3.451   0.309 -0.5543 -0.3488 -0.3551
 3869TIP3    H133166   6.650   3.418   0.296 -0.7811  0.8561 -2.2086
 3869TIP3    H233167   6.734   3.544   0.287  1.2342 -0.3341 -0.8807
 3870TIP3   OH233168   0.375   2.665   1.244  0.0147 -0.1592  0.5584
 3870TIP3    H133169   0.325   2.605   1.188  1.0292 -0.1653 -0.3809
 3870TIP3    H233170   0.465   2.634   1.238  0.4568  1.0763  0.5704
 3871TIP3   OH233171   0.623   6.390   0.342 -0.3297  0.2214 -0.5829
 3871TIP3    H133172   0.651   6.415   0.430 -0.4674 -0.1610 -0.4245
 3871TIP3    H233173   0.634   6.469   0.289  0.6776  0.1856 -0.4446
 3872TIP3   OH233174   3.135   3.738   6.918 -0.5093  0.2250 -0.0997
 3872TIP3    H133175   3.183   3.801   6.865  0.6462 -0.8322 -0.3687
 3872TIP3    H233176   3.158   3.760   7.008 -2.6294  2.1494  0.0639
 3873TIP3   OH233177   0.526   5.837   7.781 -0.0422  0.2079  0.1461
 3873TIP3    H133178   0.622   5.834   7.787  0.0070 -1.6895 -0.8725
 3873TIP3    H233179   0.498   5.872   7.866  1.5133  0.1375  0.7298
 3874TIP3   OH233180   3.649   1.878   8.063  0.4699 -0.0013 -0.0785
 3874TIP3    H133181   3.736   1.901   8.095  0.1410 -1.1138  1.8396
 3874TIP3    H233182   3.590   1.907   8.133 -0.7379  0.9000 -1.4260
 3875TIP3   OH233183   4.070   4.515   2.578  0.3210 -0.4624  0.2975
 3875TIP3    H133184   4.023   4.438   2.545  2.1292 -1.0201 -1.1311
 3875TIP3    H233185   4.019   4.543   2.654 -1.6545 -1.6961 -0.4900
 3876TIP3   OH233186   2.511   5.845   6.564 -0.0078 -0.8820 -0.2145
 3876TIP3    H133187   2.474   5.886   6.486  0.0140  0.4513  0.4503
 3876TIP3    H233188   2.601   5.823   6.540  0.2002  0.1148 -0.3691
 3877TIP3   OH233189   3.233   1.946   2.003 -0.2744  0.1961 -0.6033
 3877TIP3    H133190   3.216   1.927   1.911  1.1795 -1.6874 -0.5441
 3877TIP3    H233191   3.289   2.023   2.002 -1.0329  0.7572 -1.2153
 3878TIP3   OH233192   2.875   6.433   0.049  0.4417  0.6491 -0.5550
 3878TIP3    H133193   2.929   6.463   0.122 -0.6201  1.3752 -0.0424
 3878TIP3    H233194   2.933   6.438  -0.027  0.7929  2.5570 -0.2246
 3879TIP3   OH233195   5.766   4.505   8.437  0.2228  0.1326  0.1502
 3879TIP3    H133196   5.789   4.512   8.344  0.9832  0.2784  0.3403
 3879TIP3    H233197   5.765   4.411   8.455 -0.1442  0.0967 -0.0567
 3880TIP3   OH233198   0.079   6.551   7.674  0.0316 -0.3791  0.2943
 3880TIP3    H133199   0.027   6.574   7.751  0.4591 -0.7042  0.6810
 3880TIP3    H233200   0.026   6.486   7.628 -0.5041  0.2678 -0.0163
 3881TIP3   OH233201   1.142   1.889   1.677  0.2075 -0.5645  0.2519
 3881TIP3    H133202   1.233   1.881   1.704  1.0600 -0.2352 -2.2974
 3881TIP3    H233203   1.144   1.881   1.582 -2.2707  0.7829 -0.0037
 3882TIP3   OH233204   0.533   3.951   1.475 -0.6386 -0.3637  0.0030
 3882TIP3    H133205   0.498   3.983   1.392  1.2020  0.2808 -0.5861
 3882TIP3    H233206   0.509   4.019   1.539  0.2739  0.5402 -0.5728
 3883TIP3   OH233207   1.508   2.756   7.451  1.0364 -0.1485 -0.8314
 3883TIP3    H133208   1.433   2.723   7.403  2.4216 -1.7638 -1.9660
 3883TIP3    H233209   1.559   2.679   7.474  3.0819  0.9703 -1.3357
 3884TIP3   OH233210   6.441   3.256   1.660 -0.3654  0.5271 -0.1057
 3884TIP3    H133211   6.438   3.241   1.754 -0.0745  0.9227 -0.0312
 3884TIP3    H233212   6.521   3.308   1.646 -1.2411  1.8459 -0.3714
 3885TIP3   OH233213   6.578   1.232   7.036  0.3051 -0.2782  0.5851
 3885TIP3    H133214   6.636   1.173   6.987 -0.9236  0.5346 -2.0316
 3885TIP3    H233215   6.597   1.319   7.000 -0.8942  0.3265  1.3552
 3886TIP3   OH233216   1.867   6.392   8.342  0.2201 -0.0570  0.2003
 3886TIP3    H133217   1.868   6.349   8.428 -0.6269 -0.0944  0.2034
 3886TIP3    H233218   1.789   6.357   8.299 -0.5409  1.5153  0.2253
 3887TIP3   OH233219   5.404   5.868   8.576 -0.2912 -0.1110 -0.1515
 3887TIP3    H133220   5.409   5.957   8.610 -1.4340 -0.1506  0.1458
 3887TIP3    H233221   5.493   5.849   8.546 -0.3997  1.8150 -1.9500
 3888TIP3   OH233222   5.339   2.363   7.980 -0.0997  0.2787  0.3897
 3888TIP3    H133223   5.423   2.330   7.947  0.0553  0.3723  0.6918
 3888TIP3    H233224   5.361   2.447   8.021 -0.5956  1.1327 -0.9988
 3889TIP3   OH233225   0.386   1.360   0.489  0.2934 -0.4421 -0.4387
 3889TIP3    H133226   0.309   1.347   0.433  0.8883 -1.5741 -1.0366
 3889TIP3    H233227   0.362   1.431   0.548 -0.7680  0.0211 -1.4057
 3890TIP3   OH233228   5.311   4.432   1.567  0.5397 -0.3887 -0.0917
 3890TIP3    H133229   5.288   4.442   1.659  0.6309 -1.8640  0.1202
 3890TIP3    H233230   5.406   4.440   1.565  0.5755 -0.7460  0.0154
 3891TIP3   OH233231   4.718   1.498   6.927 -0.4918  0.3773 -0.4124
 3891TIP3    H133232   4.771   1.452   6.861  0.9517  0.4383  0.6648
 3891TIP3    H233233   4.669   1.428   6.970 -1.3725  0.3255 -1.4596
 3892TIP3   OH233234   5.375   5.263   7.863  0.2707 -0.4968  0.2751
 3892TIP3    H133235   5.337   5.176   7.874 -0.4473 -0.2960 -0.5031
 3892TIP3    H233236   5.324   5.320   7.920 -0.3395 -0.3077 -0.4365
 3893TIP3   OH233237   2.389   0.391   7.971  0.3813 -0.0768 -0.1164
 3893TIP3    H133238   2.428   0.321   8.022 -1.5239 -0.5160  0.8227
 3893TIP3    H233239   2.303   0.405   8.010 -0.3454  0.9774 -1.9445
 3894TIP3   OH233240   3.315   1.711   1.155 -0.1717  0.3479  0.1058
 3894TIP3    H133241   3.272   1.654   1.091  1.2104 -1.5081  0.7598
 3894TIP3    H233242   3.388   1.750   1.107 -0.2800  0.4913  0.0531
 3895TIP3   OH233243   6.249   3.130   2.475 -0.3942  0.3608 -0.4863
 3895TIP3    H133244   6.195   3.053   2.456 -3.2847  2.0551  0.2802
 3895TIP3    H233245   6.232   3.189   2.402  0.4198  0.9767 -0.1874
 3896TIP3   OH233246   0.081   5.514   0.218 -0.2579 -0.1757  0.1056
 3896TIP3    H133247   0.005   5.562   0.249 -0.0938  0.1819 -0.0353
 3896TIP3    H233248   0.096   5.548   0.129 -1.6358 -2.2474 -0.9830
 3897TIP3   OH233249   6.556   3.493   1.335  0.3481 -0.2077 -0.7642
 3897TIP3    H133250   6.465   3.517   1.318  0.9632  1.0352 -2.7274
 3897TIP3    H233251   6.563   3.487   1.430 -1.0974  2.6367 -0.3860
 3898TIP3   OH233252   0.351   6.852   1.175 -0.0605  0.3765  0.2050
 3898TIP3    H133253   0.258   6.877   1.175  0.6376  3.3344  0.3829
 3898TIP3    H233254   0.384   6.882   1.090  1.2104  1.5551  1.0730
 3899TIP3   OH233255   4.030   3.822   1.121 -0.2230 -0.2067 -0.3094
 3899TIP3    H133256   3.973   3.899   1.118  1.1627  0.8369 -0.7047
 3899TIP3    H233257   4.085   3.836   1.199  0.8687 -0.1573 -1.0647
 3900TIP3   OH233258   2.050   2.304   6.914 -0.3664 -0.3931  0.3162
 3900TIP3    H133259   2.041   2.392   6.878 -1.2480 -0.3221  0.6930
 3900TIP3    H233260   2.023   2.246   6.843 -1.5267 -0.2760  0.6382
 3901TIP3   OH233261   2.462   5.813   0.677 -0.3607 -0.2628  0.3356
 3901TIP3    H133262   2.477   5.814   0.583  2.7943  0.7404  0.7472
 3901TIP3    H233263   2.373   5.847   0.687 -0.8363 -0.5243 -2.2490
 3902TIP3   OH233264   2.530   2.221   1.037  0.0189 -0.6075  0.0437
 3902TIP3    H133265   2.504   2.139   0.995 -0.2335 -1.0642  1.0522
 3902TIP3    H233266   2.465   2.233   1.107  1.6204 -1.0064  1.6737
 3903TIP3   OH233267   0.745   6.829   6.557 -0.2656  0.0288 -0.7062
 3903TIP3    H133268   0.732   6.838   6.463  0.9893 -0.1820 -0.9204
 3903TIP3    H233269   0.829   6.872   6.574  0.0268 -0.8450  0.1401
 3904TIP3   OH233270   1.512   1.158   1.101 -0.0107 -0.2239 -0.0569
 3904TIP3    H133271   1.589   1.146   1.156  0.2518 -1.3477 -0.6477
 3904TIP3    H233272   1.438   1.144   1.161  0.2374  0.5016  0.4317
 3905TIP3   OH233273   6.801   4.921   7.101  0.5052  0.2862 -0.0774
 3905TIP3    H133274   6.823   4.951   7.189 -1.4434 -1.0573  0.9315
 3905TIP3    H233275   6.876   4.868   7.074  0.5763 -0.3764  1.3322
 3906TIP3   OH233276   4.497   0.135   6.420  0.1571  0.5104 -0.2784
 3906TIP3    H133277   4.489   0.044   6.450  1.2900  0.3802 -0.3311
 3906TIP3    H233278   4.562   0.131   6.350  0.7350  1.4525  0.1770
 3907TIP3   OH233279   3.180   6.814   0.425 -0.3404  0.2013 -0.0099
 3907TIP3    H133280   3.213   6.903   0.438  2.0881 -0.5276 -0.7619
 3907TIP3    H233281   3.159   6.783   0.514 -0.1996  1.1372  0.3566
 3908TIP3   OH233282   2.252   3.659   0.253 -0.2359  0.1063  0.3444
 3908TIP3    H133283   2.308   3.655   0.175  2.8580 -1.0980  2.4287
 3908TIP3    H233284   2.234   3.567   0.274  2.9757 -0.0254  3.5013
 3909TIP3   OH233285   2.590   6.026   7.951  0.4173 -0.4384 -0.3642
 3909TIP3    H133286   2.646   5.996   7.880 -1.6869 -0.5699 -2.0827
 3909TIP3    H233287   2.565   5.946   7.998  3.1428 -0.2061  1.6993
 3910TIP3   OH233288   0.343   3.458   0.592 -0.6433  0.3019 -0.5258
 3910TIP3    H133289   0.377   3.394   0.529 -0.3069 -0.4790  0.4406
 3910TIP3    H233290   0.359   3.543   0.549 -0.3333 -0.2045 -1.4551
 3911TIP3   OH233291   2.817   4.540   1.553  0.5062  0.4313  0.6734
 3911TIP3    H133292   2.731   4.523   1.591  1.3159 -0.5061  2.2051
 3911TIP3    H233293   2.819   4.490   1.472 -0.5323  0.7936  0.4194
 3912TIP3   OH233294   1.991   5.605   7.359 -0.4789  0.3032  0.4625
 3912TIP3    H133295   2.056   5.536   7.373 -0.2580  0.2210 -0.7966
 3912TIP3    H233296   1.906   5.563   7.372 -0.3473 -0.2591 -0.4138
 3913TIP3   OH233297   4.443   3.991   7.136  0.5219 -0.6351  0.8179
 3913TIP3    H133298   4.392   4.054   7.186 -0.5722 -1.0005  0.1805
 3913TIP3    H233299   4.438   3.909   7.186  0.2529 -0.7415  0.6189
 3914TIP3   OH233300   2.676   0.148   0.261 -0.0176 -0.3110  0.4982
 3914TIP3    H133301   2.593   0.155   0.307 -0.3762  1.5829 -0.3064
 3914TIP3    H233302   2.693   0.054   0.254 -1.9357 -0.7262  0.9255
 3915TIP3   OH233303   6.024   5.970   6.408  0.5970 -0.3904 -0.2267
 3915TIP3    H133304   6.098   6.016   6.446 -0.6100  0.6422  0.9955
 3915TIP3    H233305   6.029   5.990   6.314  3.9082 -3.3997 -0.8881
 3916TIP3   OH233306   0.623   5.298   7.323 -0.4195  0.1773 -0.0898
 3916TIP3    H133307   0.622   5.372   7.263 -2.2166  0.7364  0.5693
 3916TIP3    H233308   0.556   5.319   7.388  1.8795 -0.0363  2.5596
 3917TIP3   OH233309   0.755   1.567   7.224 -0.3119  0.0032  1.0788
 3917TIP3    H133310   0.817   1.606   7.163  0.3682  0.6320  2.1304
 3917TIP3    H233311   0.778   1.474   7.225  2.1755  0.5036  3.0748
 3918TIP3   OH233312   1.996   2.290   2.263 -0.1873 -0.2802 -0.0329
 3918TIP3    H133313   2.022   2.212   2.213  1.8259 -0.0760  0.5906
 3918TIP3    H233314   2.078   2.322   2.301  0.1708  4.9233 -4.0187
 3919TIP3   OH233315   4.138   5.005   7.487 -0.3591  0.1991 -0.2609
 3919TIP3    H133316   4.231   4.987   7.470 -0.6748 -0.8893 -0.8856
 3919TIP3    H233317   4.091   4.935   7.443 -1.3806 -0.7656  2.1751
 3920TIP3   OH233318   1.958   3.192   8.530  0.0036  0.2278  0.1727
 3920TIP3    H133319   2.044   3.150   8.532 -0.6564 -1.1956  0.3865
 3920TIP3    H233320   1.897   3.119   8.520 -1.1859  1.1995  0.1630
 3921TIP3   OH233321   4.641   4.594   6.906  0.1586 -0.7420  0.0759
 3921TIP3    H133322   4.662   4.603   6.813  0.1654 -1.1377  0.0376
 3921TIP3    H233323   4.556   4.637   6.916 -0.3457 -1.6232 -0.3226
 3922TIP3   OH233324   1.044   6.326   1.185 -0.0390  0.2466  0.5793
 3922TIP3    H133325   1.094   6.400   1.219  0.2821  0.8818 -1.1977
 3922TIP3    H233326   1.101   6.286   1.120 -1.3306  0.2007 -0.5652
 3923TIP3   OH233327   0.718   4.898   7.987 -0.1727 -0.6293  0.3693
 3923TIP3    H133328   0.728   4.803   7.983 -1.7414 -0.8603  1.0529
 3923TIP3    H233329   0.805   4.932   7.967  0.3949 -2.1968 -0.0128
 3924TIP3   OH233330   3.165   2.046   7.081 -0.1849 -0.0182  0.1699
 3924TIP3    H133331   3.106   2.050   7.005  0.3839  1.9241 -0.2403
 3924TIP3    H233332   3.237   2.106   7.058  0.3332  0.1039  1.9829
 3925TIP3   OH233333   6.609   0.210   7.195 -0.2634 -0.0220  0.0073
 3925TIP3    H133334   6.618   0.254   7.279  1.3065  0.7869 -0.5454
 3925TIP3    H233335   6.697   0.178   7.174 -0.5466  0.0795 -1.4663
 3926TIP3   OH233336   5.431   3.089   1.511  0.1226  0.6529  0.0991
 3926TIP3    H133337   5.387   3.082   1.596  1.8234  0.3135  0.9865
 3926TIP3    H233338   5.448   3.183   1.501  0.9298  0.5761  0.6818
 3927TIP3   OH233339   3.859   0.200   0.801 -0.3655 -0.1050 -0.4655
 3927TIP3    H133340   3.943   0.244   0.791 -0.2939 -0.1242  0.0325
 3927TIP3    H233341   3.828   0.187   0.711 -0.4750  1.1292 -0.6229
 3928TIP3   OH233342   5.324   6.086   6.248 -0.0074  0.0241  0.0668
 3928TIP3    H133343   5.342   6.029   6.173 -1.2544 -0.1872 -0.0936
 3928TIP3    H233344   5.342   6.031   6.325 -0.8021 -0.4701 -0.0888
 3929TIP3   OH233345   3.107   2.684   6.391 -0.9055 -0.4610 -0.1202
 3929TIP3    H133346   3.151   2.743   6.330  0.8975 -0.8373  0.7470
 3929TIP3    H233347   3.036   2.736   6.429 -0.0609  0.7873 -0.2202
 3930TIP3   OH233348   1.690   4.940   7.226  0.5583  0.4308  0.6299
 3930TIP3    H133349   1.744   4.945   7.305  0.0161 -1.1281  1.1420
 3930TIP3    H233350   1.701   4.850   7.195  0.6544  0.9742 -1.0242
 3931TIP3   OH233351   1.375   5.279   0.541 -0.5216 -0.3372 -0.0330
 3931TIP3    H133352   1.290   5.321   0.528  0.0260  1.4440  1.6084
 3931TIP3    H233353   1.434   5.351   0.564  0.9983 -1.7585  0.7468
 3932TIP3   OH233354   0.379   5.610   7.388  0.2112  0.2073 -0.0738
 3932TIP3    H133355   0.450   5.594   7.450  1.6884 -0.8297 -1.9342
 3932TIP3    H233356   0.404   5.689   7.342 -1.2489  1.3928  1.0748
 3933TIP3   OH233357   5.320   1.577   7.018 -0.0231 -0.2405  0.2793
 3933TIP3    H133358   5.250   1.525   6.979  0.7515 -2.3469  1.5214
 3933TIP3    H233359   5.276   1.656   7.050 -1.7704 -1.3073  0.6711
 3934TIP3   OH233360   2.018   3.199   0.808  0.0200 -0.2382 -0.0899
 3934TIP3    H133361   1.958   3.161   0.744  1.5998  0.2755 -1.9665
 3934TIP3    H233362   1.982   3.286   0.826 -1.2019 -0.9073  0.8699
 3935TIP3   OH233363   3.478   6.180   1.416 -0.4042 -0.4291 -0.2248
 3935TIP3    H133364   3.472   6.265   1.459 -1.2365  0.1435 -1.3928
 3935TIP3    H233365   3.572   6.160   1.413 -0.0652  1.1814 -1.2610
 3936TIP3   OH233366   3.801   4.431   8.229 -0.5422  0.3351  0.1205
 3936TIP3    H133367   3.771   4.454   8.316  0.3207  1.2157  0.1983
 3936TIP3    H233368   3.720   4.419   8.178 -1.0560 -0.7325  1.1600
 3937TIP3   OH233369   0.587   0.129   7.728 -0.1018  0.0436 -0.2134
 3937TIP3    H133370   0.541   0.084   7.799  1.5944 -1.6127 -0.0895
 3937TIP3    H233371   0.563   0.079   7.650 -1.1544  1.2447 -0.6937
 3938TIP3   OH233372   6.479   5.849   8.011 -0.8899  0.7056 -0.2836
 3938TIP3    H133373   6.394   5.828   8.050 -0.8793  0.7914 -0.2137
 3938TIP3    H233374   6.536   5.777   8.036 -1.0249  0.4812 -0.6031
 3939TIP3   OH233375   0.993   1.165   7.375  0.0015 -0.0507  0.1879
 3939TIP3    H133376   0.985   1.125   7.462 -0.6233 -0.1255  0.0997
 3939TIP3    H233377   1.061   1.115   7.331 -0.2460 -0.5294  0.3477
 3940TIP3   OH233378   0.736   1.791   6.301  0.6147  0.3864  0.2411
 3940TIP3    H133379   0.651   1.752   6.320  1.5209 -2.5111 -1.1476
 3940TIP3    H233380   0.719   1.885   6.296 -2.3469 -0.0500  0.5806
 3941TIP3   OH233381   1.587   6.124   7.983  0.4505 -0.2264  0.3105
 3941TIP3    H133382   1.655   6.188   8.002  1.2136 -0.9299 -0.0187
 3941TIP3    H233383   1.607   6.092   7.895 -0.5241 -0.1739  0.0497
 3942TIP3   OH233384   2.209   1.073   0.112  0.2026  0.1530  0.1117
 3942TIP3    H133385   2.228   1.110   0.199  0.6245 -1.6537  0.8331
 3942TIP3    H233386   2.258   0.991   0.110 -1.1885 -0.6904 -1.1835
 3943TIP3   OH233387   5.662   0.101   1.581 -0.7429 -0.2317 -0.2047
 3943TIP3    H133388   5.681   0.152   1.660 -0.4372  0.4407 -0.6992
 3943TIP3    H233389   5.567   0.089   1.582 -1.0964  2.0802 -1.0986
 3944TIP3   OH233390   6.680   0.011   7.766  0.3461 -0.0862 -0.2472
 3944TIP3    H133391   6.756   0.013   7.824  0.1909 -1.1128  0.0150
 3944TIP3    H233392   6.628  -0.063   7.797 -1.5195  1.4655  0.5025
 3945TIP3   OH233393   6.474   2.566   6.926 -0.0938  0.7147  0.8237
 3945TIP3    H133394   6.456   2.537   7.015 -1.9101  0.9859  0.5747
 3945TIP3    H233395   6.469   2.486   6.874  2.5282  0.2736  1.1057
 3946TIP3   OH233396   3.581   0.081   0.795 -0.0112  0.2735  0.2537
 3946TIP3    H133397   3.640   0.145   0.834  0.3056 -0.1701  0.5145
 3946TIP3    H233398   3.639   0.023   0.745 -0.5477  1.9496 -2.5584
 3947TIP3   OH233399   0.180   5.004   2.139 -0.3790 -0.1905  0.3440
 3947TIP3    H133400   0.094   5.034   2.109 -0.7229 -0.9963  0.4996
 3947TIP3    H233401   0.161   4.940   2.207  0.3484 -0.3027  0.4500
 3948TIP3   OH233402   0.944   0.323   7.373 -0.0358 -0.1857 -0.9210
 3948TIP3    H133403   0.942   0.318   7.469  0.9220 -1.2825 -0.9486
 3948TIP3    H233404   0.852   0.316   7.347 -0.5787  2.2530 -0.0272
 3949TIP3   OH233405   4.494   1.972   1.367 -0.1504  0.2883  0.0753
 3949TIP3    H133406   4.417   2.023   1.343 -0.5160  0.1629  0.9446
 3949TIP3    H233407   4.463   1.914   1.437  0.8237  0.4961  0.6860
 3950TIP3   OH233408   4.697   2.198   7.222  0.2488 -0.7649  0.1886
 3950TIP3    H133409   4.670   2.248   7.145  0.5501  0.1102  0.6429
 3950TIP3    H233410   4.786   2.170   7.203  0.1823 -0.8941  0.0584
 3951TIP3   OH233411   6.594   3.965   1.477 -0.1598 -0.2475 -0.2191
 3951TIP3    H133412   6.535   4.039   1.487  0.8840  0.9372 -2.1135
 3951TIP3    H233413   6.536   3.889   1.472 -1.5745  0.8581 -1.9630
 3952TIP3   OH233414   4.814   0.286   7.364 -0.0633 -0.1727  0.3694
 3952TIP3    H133415   4.883   0.339   7.403 -0.7977  1.2333 -0.1777
 3952TIP3    H233416   4.790   0.331   7.283 -0.3710 -1.6214 -0.3968
 3953TIP3   OH233417   4.721   6.742   7.111 -0.1936 -0.5968  0.3336
 3953TIP3    H133418   4.642   6.750   7.058  0.9600  1.3204 -1.2252
 3953TIP3    H233419   4.710   6.659   7.158 -3.4784 -0.0189  0.8252
 3954TIP3   OH233420   4.395   3.574   6.571  0.2135 -0.9209 -0.1758
 3954TIP3    H133421   4.393   3.666   6.543  1.4503 -0.6974  0.4112
 3954TIP3    H233422   4.453   3.531   6.508  0.9948 -0.9377  0.5424
 3955TIP3   OH233423   2.534   5.889   1.326  0.6919  0.2019  0.1099
 3955TIP3    H133424   2.620   5.847   1.336 -0.2037 -1.3575  1.9217
 3955TIP3    H233425   2.533   5.957   1.393  1.1140  1.3761 -1.0392
 3956TIP3   OH233426   2.796   3.644   6.367 -0.0424 -0.0520  0.6440
 3956TIP3    H133427   2.710   3.650   6.410  1.2326 -0.1233  3.4317
 3956TIP3    H233428   2.795   3.714   6.302 -2.5072 -0.6256 -0.0438
 3957TIP3   OH233429   5.961   5.036   0.412 -0.4018 -0.1915 -0.3476
 3957TIP3    H133430   6.032   4.996   0.363  0.4061 -0.2597  0.8201
 3957TIP3    H233431   5.926   5.104   0.354 -0.0718 -0.8552 -1.3360
 3958TIP3   OH233432   1.774   0.478   7.140 -0.2307 -0.6462 -0.4085
 3958TIP3    H133433   1.682   0.494   7.159 -0.2428  0.2470 -1.1124
 3958TIP3    H233434   1.805   0.422   7.211 -1.1875 -0.5214  0.1132
 3959TIP3   OH233435   0.770   0.529   7.532  0.1062 -0.2772 -0.3412
 3959TIP3    H133436   0.708   0.482   7.587  1.9506 -1.4914  0.7801
 3959TIP3    H233437   0.748   0.501   7.443 -1.4833 -0.0025 -0.0657
 3960TIP3   OH233438   2.606   4.305   7.832  0.0984 -0.4878 -0.4111
 3960TIP3    H133439   2.553   4.301   7.912 -0.7551  1.4305 -0.8204
 3960TIP3    H233440   2.696   4.313   7.863 -0.2993  1.2362  0.4469
 3961TIP3   OH233441   5.356   5.621   8.085 -0.3652 -0.1058  0.0378
 3961TIP3    H133442   5.348   5.642   8.178 -1.1990  2.7421 -0.5687
 3961TIP3    H233443   5.444   5.650   8.061 -1.2858  2.3685 -0.6683
 3962TIP3   OH233444   4.895   1.069   7.074 -0.4420 -0.1465 -1.2628
 3962TIP3    H133445   4.827   1.071   7.006 -0.5752  0.5481 -1.1139
 3962TIP3    H233446   4.963   1.012   7.038 -0.0302  1.0369 -2.4551
 3963TIP3   OH233447   0.784   1.485   2.142  0.1500  0.1510  0.4697
 3963TIP3    H133448   0.695   1.480   2.107  0.3406 -1.4992  0.1336
 3963TIP3    H233449   0.775   1.466   2.235 -0.0142  1.5383  0.7470
 3964TIP3   OH233450   6.055   3.444   7.228 -0.0911  0.5390  0.0788
 3964TIP3    H133451   5.989   3.473   7.165  0.4998  0.0554 -0.7945
 3964TIP3    H233452   6.123   3.510   7.224 -0.3524  0.8616  0.7314
 3965TIP3   OH233453   3.501   1.148   0.626  0.0039  0.0622  0.2039
 3965TIP3    H133454   3.557   1.121   0.699  2.2145  1.9016 -0.6930
 3965TIP3    H233455   3.554   1.210   0.576 -1.4046 -1.0131 -2.9571
 3966TIP3   OH233456   0.272   4.206   6.950 -0.3684  0.3681 -0.2816
 3966TIP3    H133457   0.249   4.268   7.019 -0.5607 -0.1562  0.1331
 3966TIP3    H233458   0.364   4.186   6.965 -0.6719 -0.5633  0.5015
 3967TIP3   OH233459   0.924   6.193   8.579  0.0888  0.0350 -0.4875
 3967TIP3    H133460   0.858   6.237   8.526 -0.2944 -0.6025 -0.5617
 3967TIP3    H233461   1.006   6.236   8.557  0.0463 -0.6210 -2.0763
 3968TIP3   OH233462   2.701   6.022   7.465  0.0400  0.7392 -0.0092
 3968TIP3    H133463   2.792   6.013   7.492 -0.3536  0.2519  1.1865
 3968TIP3    H233464   2.657   6.065   7.539 -1.0103 -0.4203  0.0689
 3969TIP3   OH233465   3.606   1.429   6.657 -0.3099 -0.4841 -0.0489
 3969TIP3    H133466   3.597   1.336   6.680 -0.9366 -0.2544  0.6717
 3969TIP3    H233467   3.620   1.473   6.741 -0.8407  0.1734 -0.3002
 3970TIP3   OH233468   4.974   0.637   1.882 -0.1938 -0.0294 -0.1158
 3970TIP3    H133469   5.001   0.690   1.957  1.6406 -0.2772 -0.5444
 3970TIP3    H233470   4.889   0.602   1.907  0.3250 -0.0374  1.8287
 3971TIP3   OH233471   1.123   1.820   1.409  0.0836  0.0160  0.1863
 3971TIP3    H133472   1.043   1.769   1.401 -0.3506  0.7050  0.0746
 3971TIP3    H233473   1.107   1.899   1.358  1.4252 -0.5303 -1.1626
 3972TIP3   OH233474   5.970   1.428   6.947  0.3428 -0.2323  0.3923
 3972TIP3    H133475   6.040   1.487   6.920  0.1016  0.2065  0.7188
 3972TIP3    H233476   5.895   1.455   6.895  0.7114 -1.4743 -0.8320
 3973TIP3   OH233477   5.788   3.244   1.205 -0.0356 -0.2906  0.3074
 3973TIP3    H133478   5.829   3.238   1.119 -2.4042  1.0124 -1.0400
 3973TIP3    H233479   5.803   3.335   1.232 -2.3432  0.4056 -0.4955
 3974TIP3   OH233480   3.888   3.373   6.778  0.1577  0.2875  0.6551
 3974TIP3    H133481   3.835   3.320   6.838 -1.3467  0.9265 -0.0670
 3974TIP3    H233482   3.828   3.437   6.742  0.9200 -0.2083 -1.7493
 3975TIP3   OH233483   0.708   4.040   7.947 -0.9617 -0.5291  0.2297
 3975TIP3    H133484   0.655   3.981   7.894 -2.3593  0.7760  0.1230
 3975TIP3    H233485   0.763   4.086   7.883 -2.5660  0.9631 -0.1451
 3976TIP3   OH233486   0.957   4.211   6.549  0.0952 -0.2678 -0.5661
 3976TIP3    H133487   0.876   4.181   6.509  0.8418 -2.3335 -0.6146
 3976TIP3    H233488   1.024   4.152   6.516  1.6880  1.5155 -0.6813
 3977TIP3   OH233489   1.891   4.299   1.644 -0.1655 -0.8103 -0.0074
 3977TIP3    H133490   1.907   4.392   1.629 -0.3978 -1.0230 -1.6958
 3977TIP3    H233491   1.867   4.264   1.559  1.9120 -2.8434  0.1435
 3978TIP3   OH233492   5.889   4.375   2.229  0.4407 -0.2186 -0.1122
 3978TIP3    H133493   5.826   4.434   2.188  0.7613 -0.7317 -1.4120
 3978TIP3    H233494   5.857   4.364   2.319 -0.7408  0.3349 -0.4442
 3979TIP3   OH233495   2.174   0.700   2.252 -0.5745  0.6642  0.0532
 3979TIP3    H133496   2.106   0.651   2.206 -1.6334  0.7609  1.4542
 3979TIP3    H233497   2.250   0.642   2.252 -0.7472  0.3990 -1.1831
 3980TIP3   OH233498   4.093   2.443   0.949  0.2566  0.4267  0.5809
 3980TIP3    H133499   4.041   2.399   1.016  0.5743  0.3963  0.8117
 3980TIP3    H233500   4.158   2.377   0.923  0.9954  0.8872  1.2220
 3981TIP3   OH233501   3.069   0.942   0.594 -0.1952 -0.0941 -0.6556
 3981TIP3    H133502   3.084   0.958   0.688 -1.7797  0.1612 -0.4196
 3981TIP3    H233503   3.042   1.027   0.559 -5.3538 -1.1789 -0.0811
 3982TIP3   OH233504   2.438   1.779   8.167 -0.1616 -0.3761  0.2385
 3982TIP3    H133505   2.371   1.762   8.101 -3.6367  0.9038  3.0926
 3982TIP3    H233506   2.480   1.860   8.139  0.5227 -1.3704 -1.7767
 3983TIP3   OH233507   4.890   0.073   0.744 -0.1797  0.1947 -0.3209
 3983TIP3    H133508   4.887   0.161   0.708 -0.3129 -0.0462 -0.9185
 3983TIP3    H233509   4.865   0.016   0.670  0.5575 -0.3894 -0.1288
 3984TIP3   OH233510   2.102   3.593   2.027 -0.2418  0.6053 -0.2207
 3984TIP3    H133511   2.016   3.564   1.995  0.2104  0.4102 -1.3344
 3984TIP3    H233512   2.149   3.512   2.045  0.0123  0.6931 -0.4806
 3985TIP3   OH233513   6.539   6.508   7.594 -0.0170  0.1180  0.1924
 3985TIP3    H133514   6.598   6.435   7.577 -0.7302 -0.9416  1.9886
 3985TIP3    H233515   6.564   6.574   7.530 -0.6929 -2.4150 -2.9322
 3986TIP3   OH233516   3.568   1.120   8.182 -0.0968  0.8395 -0.3029
 3986TIP3    H133517   3.560   1.128   8.278  0.1582  0.3088 -0.2387
 3986TIP3    H233518   3.654   1.082   8.168 -0.4687  0.1395 -0.7110
 3987TIP3   OH233519   1.924   0.721   0.434 -0.1181  0.0619  0.1224
 3987TIP3    H133520   2.005   0.752   0.395  0.3176 -1.0088  0.1389
 3987TIP3    H233521   1.856   0.779   0.399  0.6064  0.7692 -0.1289
 3988TIP3   OH233522   1.347   2.381   7.196  0.0292  0.3709  0.4360
 3988TIP3    H133523   1.399   2.359   7.118 -0.5527 -0.0958  0.1763
 3988TIP3    H233524   1.291   2.453   7.168 -2.8108 -2.1104 -0.7299
 3989TIP3   OH233525   2.808   1.806   8.605 -0.3305  0.1755 -0.1909
 3989TIP3    H133526   2.755   1.791   8.683  0.0385  0.6473  0.1567
 3989TIP3    H233527   2.765   1.755   8.536  0.4899 -1.9210  0.7691
 3990TIP3   OH233528   2.129   5.915   6.572 -0.3019  0.2405 -0.2804
 3990TIP3    H133529   2.041   5.923   6.535  0.1113 -0.3612 -1.4102
 3990TIP3    H233530   2.178   5.988   6.533  0.1657 -0.4661 -1.0526
 3991TIP3   OH233531   5.788   4.303   7.363 -0.2382  0.3668  0.5617
 3991TIP3    H133532   5.867   4.322   7.413 -0.9036  3.5940  0.6258
 3991TIP3    H233533   5.819   4.289   7.273  0.4137  1.8519  0.5341
 3992TIP3   OH233534   6.043   3.736   1.628  0.3093 -0.2466 -0.2534
 3992TIP3    H133535   5.950   3.714   1.622  0.4627 -1.2700  0.6699
 3992TIP3    H233536   6.046   3.830   1.614 -0.5364 -0.5463 -3.1535
 3993TIP3   OH233537   4.001   6.546   0.532 -0.3583 -0.5184 -0.5417
 3993TIP3    H133538   3.919   6.535   0.581 -1.2515  1.8354 -1.3533
 3993TIP3    H233539   3.977   6.600   0.457  1.9925  0.4392 -0.6956
 3994TIP3   OH233540   5.010   0.359   2.057 -0.3975 -0.1716 -0.1340
 3994TIP3    H133541   5.089   0.353   2.003 -0.8758  0.0349 -0.8670
 3994TIP3    H233542   4.969   0.273   2.050 -1.4069  0.3891 -1.5939
 3995TIP3   OH233543   0.204   0.683   1.662 -0.3523  0.3835  0.2204
 3995TIP3    H133544   0.268   0.701   1.594 -0.0310 -0.7641  0.2105
 3995TIP3    H233545   0.256   0.674   1.742 -0.5172 -0.3438  0.2497
 3996TIP3   OH233546   2.398   6.141   0.444 -0.3752  0.2355 -0.0589
 3996TIP3    H133547   2.456   6.095   0.383 -0.8406  0.4038 -0.6384
 3996TIP3    H233548   2.312   6.140   0.401 -0.6069  0.7809  0.3746
 3997TIP3   OH233549   6.800   3.058   2.011  0.5700  0.1378  0.1586
 3997TIP3    H133550   6.830   3.124   2.074  0.3232 -2.2730  3.0111
 3997TIP3    H233551   6.879   3.032   1.963  0.9083  1.4649 -0.0448
 3998TIP3   OH233552   0.450   0.485   5.982  0.1851  0.1303 -0.1765
 3998TIP3    H133553   0.402   0.402   5.989 -0.3688  0.4398 -0.2328
 3998TIP3    H233554   0.534   0.467   6.023 -0.3767 -0.1160  0.8980
 3999TIP3   OH233555   3.213   5.876   1.014  0.3993  0.5301  0.0445
 3999TIP3    H133556   3.218   5.848   1.105  1.9743 -2.1455 -0.7508
 3999TIP3    H233557   3.135   5.932   1.011 -0.5833 -0.4959  2.7236
 4000TIP3   OH233558   0.297   6.298   1.597 -0.2652 -0.4758 -0.3605
 4000TIP3    H133559   0.257   6.332   1.678  1.0557  0.5146 -0.0703
 4000TIP3    H233560   0.269   6.359   1.529  1.2795  0.6984 -0.0190
 4001TIP3   OH233561   5.855   5.871   7.250  0.4123 -0.2411  0.7245
 4001TIP3    H133562   5.814   5.788   7.274 -0.0825  0.0551  0.9199
 4001TIP3    H233563   5.938   5.846   7.209  1.1211 -0.8031  2.3847
 4002TIP3   OH233564   3.512   2.181   6.434 -0.0155 -0.4565  0.0874
 4002TIP3    H133565   3.464   2.104   6.465  0.0461 -1.2369 -1.5968
 4002TIP3    H233566   3.525   2.164   6.340 -1.3372  2.3242 -0.6907
 4003TIP3   OH233567   4.141   1.212   7.368 -0.2237 -0.3424 -0.5013
 4003TIP3    H133568   4.115   1.274   7.301 -1.5642  0.0039  0.3033
 4003TIP3    H233569   4.142   1.127   7.323 -0.5010 -0.0328 -1.1061
 4004TIP3   OH233570   0.494   4.484   1.029  0.2612 -0.0209  0.4211
 4004TIP3    H133571   0.476   4.405   0.978 -0.7667  0.3055  0.2758
 4004TIP3    H233572   0.587   4.501   1.014  0.2925 -0.7151 -0.2289
 4005TIP3   OH233573   4.077   0.809   0.979  0.0872 -0.0277  0.7071
 4005TIP3    H133574   4.146   0.826   1.043  0.2621  1.8875  0.0886
 4005TIP3    H233575   4.042   0.896   0.958 -0.3046 -0.6277 -1.4150
 4006TIP3   OH233576   0.996   4.854   2.460 -0.1179 -0.2161  0.0584
 4006TIP3    H133577   0.938   4.860   2.536 -0.5129  1.2472 -0.3487
 4006TIP3    H233578   0.940   4.871   2.385  0.3872 -1.1069 -0.5394
 4007TIP3   OH233579   2.971   3.235   6.647  0.4021 -0.1143 -0.1039
 4007TIP3    H133580   2.948   3.283   6.568  0.9270 -1.8942 -1.3869
 4007TIP3    H233581   2.897   3.249   6.706 -1.0034 -0.4513 -1.7016
 4008TIP3   OH233582   6.631   0.100   6.001  0.3115  0.3532  0.4216
 4008TIP3    H133583   6.611   0.053   6.082  0.7512 -0.2801  0.1700
 4008TIP3    H233584   6.724   0.122   6.008  0.4836 -0.1732 -0.1454
 4009TIP3   OH233585   0.686   2.484   8.082 -0.5119 -0.0951 -0.2994
 4009TIP3    H133586   0.632   2.556   8.049  0.8554  0.6111 -1.0728
 4009TIP3    H233587   0.669   2.482   8.176  0.5292  2.2522  0.0066
 4010TIP3   OH233588   4.127   6.448   8.007 -0.0955 -0.3483  0.0059
 4010TIP3    H133589   4.210   6.405   8.026 -0.9070 -2.1917 -0.3913
 4010TIP3    H233590   4.129   6.462   7.912 -1.4006 -3.1188 -0.5065
 4011TIP3   OH233591   0.007   0.472   8.410  0.2298 -0.1861 -0.4049
 4011TIP3    H133592  -0.028   0.537   8.351  1.4262  2.6123  1.7293
 4011TIP3    H233593   0.101   0.467   8.388  0.8407  1.4174  1.5532
 4012TIP3   OH233594   1.205   4.668   1.965  0.1479  0.2257  0.2932
 4012TIP3    H133595   1.267   4.670   2.038  0.8212 -0.6460 -0.2390
 4012TIP3    H233596   1.193   4.575   1.946  0.2369  0.4383 -0.9139
 4013TIP3   OH233597   5.164   3.402   1.438 -0.1911  0.9847  0.8231
 4013TIP3    H133598   5.253   3.428   1.460 -0.0055  0.8486  0.2258
 4013TIP3    H233599   5.158   3.410   1.343  0.1033 -1.7840  0.4767
 4014TIP3   OH233600   0.699   5.707   1.356  0.1916  0.0792 -0.2553
 4014TIP3    H133601   0.660   5.794   1.343  0.5926  0.1380 -1.1456
 4014TIP3    H233602   0.652   5.671   1.431 -2.2970 -0.2547 -1.8524
 4015TIP3   OH233603   1.727   1.138   0.735  0.0132  0.0964  0.2880
 4015TIP3    H133604   1.781   1.182   0.800  1.0124 -0.6870  0.0185
 4015TIP3    H233605   1.781   1.066   0.703 -0.8132 -0.1101 -0.7279
 4016TIP3   OH233606   6.323   0.337   0.450 -0.3296 -0.1123  0.3031
 4016TIP3    H133607   6.414   0.332   0.479 -0.1932  0.1796 -0.0717
 4016TIP3    H233608   6.292   0.246   0.451 -0.2869 -0.1235  1.2209
 4017TIP3   OH233609   3.456   0.173   7.166 -0.2674 -0.1347 -0.5329
 4017TIP3    H133610   3.439   0.174   7.072 -1.3850  0.7951 -0.3411
 4017TIP3    H233611   3.406   0.099   7.200 -2.0628  1.1022 -0.3290
 4018TIP3   OH233612   2.645   4.905   7.994 -0.1082  0.5015  0.5056
 4018TIP3    H133613   2.678   4.829   7.946 -1.9394 -0.2399  0.3478
 4018TIP3    H233614   2.692   4.902   8.078 -0.2623 -0.9188  0.5717
 4019TIP3   OH233615   3.466   2.955   7.588 -0.2296  0.2832  0.4497
 4019TIP3    H133616   3.537   2.954   7.652 -1.1685 -2.9376  1.5958
 4019TIP3    H233617   3.450   3.049   7.572  2.6347  1.1321  1.9158
 4020TIP3   OH233618   1.407   6.612   0.483  0.0033  0.4953  0.2617
 4020TIP3    H133619   1.369   6.682   0.537  0.3127  0.0818  1.0237
 4020TIP3    H233620   1.459   6.659   0.418 -2.8734  1.1643 -1.7164
 4021TIP3   OH233621   4.945   1.905   7.072  0.0164  0.6998 -0.1579
 4021TIP3    H133622   4.976   1.950   6.994 -0.6606  2.5648  0.5735
 4021TIP3    H233623   4.851   1.893   7.057  0.0425  0.2839  0.0057
 4022TIP3   OH233624   2.494   0.180   0.031  0.4476  0.2488  0.2505
 4022TIP3    H133625   2.433   0.116   0.068  0.5079  0.2226  0.3039
 4022TIP3    H233626   2.575   0.168   0.080  0.9083 -0.6072 -0.6993
 4023TIP3   OH233627   0.394   1.173   1.360 -0.0329 -0.4287  0.1823
 4023TIP3    H133628   0.428   1.095   1.317 -0.2937  1.0459 -3.0103
 4023TIP3    H233629   0.314   1.144   1.404 -0.1429 -1.9594 -0.9464
 4024TIP3   OH233630   0.298   1.843   6.919  0.2062  0.1094  0.1261
 4024TIP3    H133631   0.299   1.925   6.870 -2.4523  1.8970  2.6630
 4024TIP3    H233632   0.338   1.779   6.861  2.0269  3.0647 -2.1748
 4025TIP3   OH233633   1.598   5.126   7.654 -0.0412  0.3004 -0.2028
 4025TIP3    H133634   1.542   5.193   7.615 -0.1819  0.7783  0.7914
 4025TIP3    H233635   1.687   5.154   7.634 -0.1126  0.5027 -0.2422
 4026TIP3   OH233636   4.822   0.762   7.016  0.4908  0.3972 -0.7860
 4026TIP3    H133637   4.912   0.774   7.046  0.8543  0.0322 -1.7166
 4026TIP3    H233638   4.805   0.837   6.959 -0.4033  1.4117  0.7284
 4027TIP3   OH233639   0.888   3.533   8.329  0.2235  0.0863  0.3911
 4027TIP3    H133640   0.867   3.449   8.369  1.2483 -0.3847 -0.0104
 4027TIP3    H233641   0.821   3.545   8.261 -1.7061  1.0400  2.3681
 4028TIP3   OH233642   1.168   0.854   1.412  0.4064  0.0668 -0.5351
 4028TIP3    H133643   1.181   0.777   1.357  0.2863 -0.6420  0.4142
 4028TIP3    H233644   1.101   0.905   1.366  1.6186  0.4278 -1.9924
 4029TIP3   OH233645   1.678   1.850   8.548 -0.0159 -0.2712 -0.1735
 4029TIP3    H133646   1.631   1.771   8.573 -0.9757 -0.4502 -2.3602
 4029TIP3    H233647   1.719   1.829   8.464  1.2404  0.9853  0.0672
 4030TIP3   OH233648   0.684   0.010   1.593 -0.2675  0.0141 -0.4465
 4030TIP3    H133649   0.739  -0.040   1.652  0.8395 -0.4720 -1.8319
 4030TIP3    H233650   0.722   0.098   1.592  0.6117 -0.3531 -1.4961
 4031TIP3   OH233651   4.340   3.192   7.531 -0.0268  0.4043 -0.8839
 4031TIP3    H133652   4.260   3.163   7.486 -0.0860  0.7006 -0.9772
 4031TIP3    H233653   4.308   3.242   7.606  0.0511 -1.7384  0.6459
 4032TIP3   OH233654   2.846   2.303   2.499  0.3718  0.4518 -0.7950
 4032TIP3    H133655   2.785   2.372   2.526  0.8079  0.4117  0.3761
 4032TIP3    H233656   2.921   2.314   2.558  0.4233 -1.0608 -0.5473
 4033TIP3   OH233657   0.709   2.907   7.413 -0.1725  0.1384 -0.3282
 4033TIP3    H133658   0.740   2.958   7.337 -1.4045  0.1479 -0.8441
 4033TIP3    H233659   0.710   2.970   7.485  1.9972 -0.1273 -0.0527
 4034TIP3   OH233660   0.705   5.017   0.393 -0.2469  0.8832  0.0064
 4034TIP3    H133661   0.682   5.032   0.485  3.2587  0.6074  1.0825
 4034TIP3    H233662   0.653   4.940   0.368 -0.5035  0.2900  2.1362
 4035TIP3   OH233663   1.394   5.930   8.314  0.4155  1.0475 -0.9129
 4035TIP3    H133664   1.426   5.982   8.388 -0.3415  0.7230 -0.3396
 4035TIP3    H233665   1.327   5.985   8.274  1.4479  1.6001 -1.9259
 4036TIP3   OH233666   2.323   1.887   1.568 -0.0840  0.6467  0.1338
 4036TIP3    H133667   2.400   1.891   1.625  0.0978  1.1560 -0.1402
 4036TIP3    H233668   2.250   1.869   1.628  0.2482  0.1616  0.3932
 4037TIP3   OH233669   6.167   2.992   0.462  0.7617  0.4353  0.5600
 4037TIP3    H133670   6.153   3.030   0.375 -2.8940 -1.6289  0.0344
 4037TIP3    H233671   6.184   2.900   0.445  0.1634  0.0310  2.0128
 4038TIP3   OH233672   2.997   2.428   1.212 -0.3197  0.1674 -0.0075
 4038TIP3    H133673   3.083   2.391   1.232 -0.6766 -0.0221  1.2515
 4038TIP3    H233674   3.009   2.471   1.128  1.1003  0.4179  0.2920
 4039TIP3   OH233675   3.096   6.169   1.081  0.2759 -0.0731  0.0067
 4039TIP3    H133676   3.187   6.189   1.104  0.4614 -0.8849  0.0059
 4039TIP3    H233677   3.044   6.233   1.130  0.8888  1.0923 -0.8207
 4040TIP3   OH233678   3.432   0.346   1.106 -0.0223 -0.0373 -0.6846
 4040TIP3    H133679   3.403   0.309   1.189  0.9712 -0.6442 -0.5927
 4040TIP3    H233680   3.501   0.286   1.075 -1.2252 -0.5340 -2.5731
 4041TIP3   OH233681   1.291   6.637   7.547 -0.7222  0.6400 -0.2554
 4041TIP3    H133682   1.337   6.705   7.497  0.6918  1.2235  1.7056
 4041TIP3    H233683   1.328   6.555   7.514  1.0612  1.0628  0.5480
 4042TIP3   OH233684   5.252   6.545   1.076 -0.5922 -0.1209  0.4611
 4042TIP3    H133685   5.267   6.544   1.171  1.9404  0.0429  0.1277
 4042TIP3    H233686   5.308   6.475   1.042  1.0133  1.8248 -1.1613
 4043TIP3   OH233687   6.776   3.736   0.221  0.5232 -0.6260 -1.0073
 4043TIP3    H133688   6.714   3.756   0.292  0.5468  0.9015 -1.3711
 4043TIP3    H233689   6.723   3.737   0.142  0.9120  0.2523 -1.2715
 4044TIP3   OH233690   1.851   3.070   1.559  0.3205 -0.6813 -0.1114
 4044TIP3    H133691   1.785   3.038   1.498  1.1881 -1.7717 -0.4939
 4044TIP3    H233692   1.831   3.025   1.641  0.9365 -1.4528 -0.3825
 4045TIP3   OH233693   1.618   4.139   1.273  1.2620  0.1234 -0.2378
 4045TIP3    H133694   1.643   4.135   1.366  0.5992 -1.0376 -0.0905
 4045TIP3    H233695   1.624   4.049   1.243  0.6185  0.3590 -1.0961
 4046TIP3   OH233696   4.459   3.873   7.527  0.7753  0.0530 -0.4006
 4046TIP3    H133697   4.439   3.956   7.484  0.2620  0.8734  1.3333
 4046TIP3    H233698   4.374   3.840   7.557  1.1245 -0.4552  0.0544
 4047TIP3   OH233699   6.261   4.312   8.081 -0.2450  0.0560  0.2244
 4047TIP3    H133700   6.297   4.268   8.158 -1.6776  1.4229  1.7509
 4047TIP3    H233701   6.176   4.345   8.109 -1.5629 -0.7404 -2.4351
 4048TIP3   OH233702   4.372   5.838   0.002 -0.2213 -0.2508 -0.1890
 4048TIP3    H133703   4.408   5.768   0.057  2.4278 -0.6106 -2.1623
 4048TIP3    H233704   4.384   5.807  -0.088 -2.3235  1.2576 -1.0770
 4049TIP3   OH233705   6.081   3.912   8.466  0.1945 -0.1985 -0.3832
 4049TIP3    H133706   6.088   3.836   8.407  1.0346  0.3454 -1.0026
 4049TIP3    H233707   6.014   3.967   8.425  1.1596  0.4362 -1.1492
 4050TIP3   OH233708   0.949   5.425   6.178  0.2090  0.5464  0.3000
 4050TIP3    H133709   0.886   5.486   6.139 -0.1144 -0.4401 -0.7613
 4050TIP3    H233710   1.017   5.415   6.111  1.1507  1.0470  1.1556
 4051TIP3   OH233711   1.537   3.324   1.859 -0.0886  0.0502  0.0447
 4051TIP3    H133712   1.525   3.254   1.795 -1.6336  0.8178 -0.5591
 4051TIP3    H233713   1.624   3.309   1.895  0.0031 -1.5883 -0.7786
 4052TIP3   OH233714   0.523   4.831   0.927 -0.2071  0.0887 -0.0346
 4052TIP3    H133715   0.601   4.776   0.925 -0.3113 -0.0995  0.8313
 4052TIP3    H233716   0.555   4.919   0.904  0.3702  0.1350  0.8861
 4053TIP3   OH233717   4.448   1.276   6.401 -0.1824  0.1537  0.2486
 4053TIP3    H133718   4.418   1.346   6.343 -1.0223  0.7057  1.3361
 4053TIP3    H233719   4.543   1.289   6.406 -0.4165  1.7841  1.1361
 4054TIP3   OH233720   5.111   5.154   2.070  0.5396 -1.1642  0.0270
 4054TIP3    H133721   5.147   5.206   2.143  1.8646 -0.8953 -0.7791
 4054TIP3    H233722   5.181   5.154   2.005 -0.3118 -2.1002 -0.9105
 4055TIP3   OH233723   5.134   6.079   1.242  0.0166 -0.4572 -0.9311
 4055TIP3    H133724   5.093   6.116   1.164  1.9027  1.0057 -1.3110
 4055TIP3    H233725   5.089   6.123   1.315 -0.0592  0.0695 -1.2870
 4056TIP3   OH233726   4.720   6.053   0.893  0.2638  0.1272  0.3109
 4056TIP3    H133727   4.700   6.146   0.882  0.2263  0.0991  0.1428
 4056TIP3    H233728   4.660   6.024   0.962 -0.0120  0.1310  0.0718
 4057TIP3   OH233729   3.462   0.119   6.617 -0.1104 -0.0293 -0.5763
 4057TIP3    H133730   3.510   0.198   6.642 -0.8359  0.7007 -1.4576
 4057TIP3    H233731   3.390   0.150   6.562 -0.7371 -1.2496 -0.4857
 4058TIP3   OH233732   5.247   4.325   0.879 -0.6423  0.3170 -0.1589
 4058TIP3    H133733   5.296   4.366   0.808 -1.0470  2.1846  0.5982
 4058TIP3    H233734   5.189   4.393   0.911 -1.6515 -0.9813  0.9046
 4059TIP3   OH233735   1.098   1.816   0.485  0.6333 -0.0399 -0.3404
 4059TIP3    H133736   1.003   1.808   0.473  0.7607 -2.3732 -0.1030
 4059TIP3    H233737   1.135   1.785   0.403  1.2086 -1.9096  0.5786
 4060TIP3   OH233738   2.780   1.184   1.034 -0.1934  0.3787 -0.1168
 4060TIP3    H133739   2.737   1.268   1.016  2.0847  2.0503  1.6269
 4060TIP3    H233740   2.761   1.166   1.126  1.3656  0.3184  0.2254
 4061TIP3   OH233741   5.530   5.655   0.615  0.1279 -0.8721 -0.0565
 4061TIP3    H133742   5.562   5.665   0.705 -1.2851 -1.2183  0.5090
 4061TIP3    H233743   5.601   5.688   0.560  0.1377  1.4740  1.2592
 4062TIP3   OH233744   2.629   1.872   1.148  0.0265  0.3692 -0.2334
 4062TIP3    H133745   2.565   1.843   1.213  1.4385  0.2562  1.1675
 4062TIP3    H233746   2.577   1.899   1.072 -1.5777 -1.8070 -0.0059
 4063TIP3   OH233747   1.563   0.110   7.875 -0.0541 -0.2482 -0.1231
 4063TIP3    H133748   1.556   0.121   7.970 -0.8068 -0.8151 -0.1010
 4063TIP3    H233749   1.645   0.063   7.861  0.4160  0.4596  0.1829
 4064TIP3   OH233750   0.436   2.067   0.643 -0.5760 -0.9338  0.0676
 4064TIP3    H133751   0.463   2.068   0.551 -1.2423  1.4266 -0.1584
 4064TIP3    H233752   0.359   2.012   0.646  0.2577 -2.1739 -0.5033
 4065TIP3   OH233753   0.163   4.774   7.073  0.1096 -0.1825  0.2502
 4065TIP3    H133754   0.229   4.762   7.005  0.3082  0.1577  0.3820
 4065TIP3    H233755   0.211   4.809   7.148 -0.3428  0.7723  0.1030
 4066TIP3   OH233756   0.478   6.164   1.730  0.0664  0.5724 -0.6950
 4066TIP3    H133757   0.553   6.221   1.747  0.2831  0.7208 -2.0011
 4066TIP3    H233758   0.422   6.217   1.672 -0.4419 -0.0027 -0.7345
 4067TIP3   OH233759   2.245   5.262   6.931 -0.2939 -0.1577  0.2722
 4067TIP3    H133760   2.295   5.216   6.862  0.5203  0.4030  0.4780
 4067TIP3    H233761   2.291   5.239   7.012  1.0970  2.2290  0.2368
 4068TIP3   OH233762   4.646   3.553   7.030 -0.6293  0.1670  0.3400
 4068TIP3    H133763   4.643   3.573   7.123 -2.6758 -0.4299  0.4587
 4068TIP3    H233764   4.603   3.467   7.023  0.4921 -0.3191 -1.0358
 4069TIP3   OH233765   0.155   1.121   0.289  0.0770  0.3364  0.5487
 4069TIP3    H133766   0.171   1.210   0.260 -0.1608  1.2111  2.8508
 4069TIP3    H233767   0.069   1.099   0.255  0.2387  0.8779 -0.2392
 4070TIP3   OH233768   6.541   2.176   8.507 -0.6480  0.0685  0.2158
 4070TIP3    H133769   6.590   2.163   8.426 -1.8659 -1.1796 -0.3650
 4070TIP3    H233770   6.483   2.099   8.513  0.8774 -1.0122  3.3701
 4071TIP3   OH233771   6.058   2.953   2.394  0.0522  0.2019 -0.4644
 4071TIP3    H133772   6.117   2.878   2.384 -3.4113 -2.7864 -0.7784
 4071TIP3    H233773   5.988   2.937   2.330 -2.8640  1.4972  2.1034
 4072TIP3   OH233774   6.638   1.412   8.179 -0.9051  1.1010 -0.5693
 4072TIP3    H133775   6.544   1.417   8.191 -0.8331 -0.1925  0.8115
 4072TIP3    H233776   6.671   1.373   8.260  0.7702  1.0915 -1.2057
 4073TIP3   OH233777   3.086   3.756   0.479  0.6016 -0.5520  0.0591
 4073TIP3    H133778   3.150   3.819   0.511  0.5121 -0.2209 -0.3974
 4073TIP3    H233779   3.084   3.771   0.384  1.0110 -1.6509 -0.1291
 4074TIP3   OH233780   1.992   4.580   6.924 -0.7954  0.2824  0.0795
 4074TIP3    H133781   1.973   4.501   6.874  0.8768 -0.5515  0.6568
 4074TIP3    H233782   2.086   4.573   6.943 -0.1614  3.3228 -1.4086
 4075TIP3   OH233783   5.582   2.394   0.969 -0.0994 -0.4720  0.2177
 4075TIP3    H133784   5.657   2.347   0.932 -1.2179 -0.8943 -1.6565
 4075TIP3    H233785   5.509   2.332   0.962 -1.0089  0.5580  0.2849
 4076TIP3   OH233786   0.643   3.074   0.325 -0.5269 -0.2287 -0.2777
 4076TIP3    H133787   0.707   3.032   0.268 -0.0070  1.2301 -0.8136
 4076TIP3    H233788   0.693   3.138   0.376 -1.4987  0.8740 -0.6389
 4077TIP3   OH233789   4.623   6.035   7.306  0.1117 -0.1385  0.7402
 4077TIP3    H133790   4.642   5.964   7.246 -0.9159  0.0198  0.2035
 4077TIP3    H233791   4.658   6.006   7.390 -0.6502 -1.4689  0.6205
 4078TIP3   OH233792   0.555   3.030   6.945 -0.0429 -0.1081 -0.2632
 4078TIP3    H133793   0.486   3.058   6.885 -2.2184 -1.3041  1.5537
 4078TIP3    H233794   0.602   2.962   6.897 -2.5008 -1.9216 -0.2808
 4079TIP3   OH233795   1.581   5.421   0.018  0.2287 -0.1705  0.0229
 4079TIP3    H133796   1.669   5.440  -0.015  0.2482  0.5016  0.4464
 4079TIP3    H233797   1.579   5.457   0.106 -0.5956  0.1749 -0.1230
 4080TIP3   OH233798   5.381   6.323   1.232 -0.0221  0.5518  0.1981
 4080TIP3    H133799   5.332   6.375   1.297  0.3781 -1.3985  2.1752
 4080TIP3    H233800   5.372   6.233   1.262  1.9920 -0.2132 -1.2996
 4081TIP3   OH233801   1.120   3.436   8.200 -0.2062  0.1446 -0.3638
 4081TIP3    H133802   1.057   3.496   8.241  0.3570 -0.2991  1.2049
 4081TIP3    H233803   1.077   3.409   8.119 -0.7602  2.1473 -0.7885
 4082TIP3   OH233804   3.615   5.536   1.527  0.5439 -0.3050  0.0128
 4082TIP3    H133805   3.679   5.511   1.594  1.9611  3.3697  0.3069
 4082TIP3    H233806   3.552   5.592   1.574 -1.0532 -1.2582 -0.9210
 4083TIP3   OH233807   0.068   0.127   1.641 -0.0037  0.0267 -0.1475
 4083TIP3    H133808   0.008   0.069   1.593  0.3224  0.6042 -1.3007
 4083TIP3    H233809   0.015   0.202   1.665 -0.4123 -0.6942  1.2972
 4084TIP3   OH233810   5.221   6.021   0.393  0.2265 -0.0151 -0.2351
 4084TIP3    H133811   5.303   6.070   0.395  1.7340 -2.3833  0.1494
 4084TIP3    H233812   5.221   5.970   0.474 -1.3717 -0.4518 -0.4807
 4085TIP3   OH233813   3.851   5.602   7.249 -0.1778  0.1631  0.1535
 4085TIP3    H133814   3.793   5.582   7.323 -0.4236 -1.2379 -0.3940
 4085TIP3    H233815   3.802   5.664   7.196 -1.2243 -1.0277 -0.3170
 4086TIP3   OH233816   0.191   6.168   8.192 -0.1588  0.0333  0.0856
 4086TIP3    H133817   0.214   6.095   8.134  0.9049  0.5739 -0.1939
 4086TIP3    H233818   0.095   6.168   8.192 -0.1852 -0.4304 -1.1074
 4087TIP3   OH233819   0.817   2.598   6.881 -0.1975  0.0403  1.3335
 4087TIP3    H133820   0.855   2.565   6.799  0.0552  0.4603  1.2748
 4087TIP3    H233821   0.798   2.690   6.862 -0.1711  0.1281  1.7373
 4088TIP3   OH233822   2.092   5.420   8.297  0.0505  0.4142  0.1316
 4088TIP3    H133823   2.084   5.513   8.316  0.0078 -0.1322  3.5240
 4088TIP3    H233824   2.164   5.391   8.353 -0.0191 -1.6359 -0.7564
 4089TIP3   OH233825   6.238   6.046   8.182 -0.1135 -0.6693 -0.2890
 4089TIP3    H133826   6.327   6.081   8.180 -0.6913  0.8617 -0.5557
 4089TIP3    H233827   6.249   5.951   8.183  1.5678 -0.5177  1.8967
 4090TIP3   OH233828   2.496   0.981   8.640  0.1982  0.2750  0.1023
 4090TIP3    H133829   2.406   0.985   8.608 -0.2072 -0.4090  1.0992
 4090TIP3    H233830   2.491   0.926   8.718  1.6168 -0.3699 -0.2419
 4091TIP3   OH233831   3.408   4.504   7.875 -0.1712  0.2713  0.2761
 4091TIP3    H133832   3.327   4.555   7.877 -0.9951 -0.9426 -0.3712
 4091TIP3    H233833   3.460   4.545   7.806 -1.3837 -0.4951 -1.1748
 4092TIP3   OH233834   4.842   1.999   8.450  0.3716 -0.2738  0.2629
 4092TIP3    H133835   4.780   2.030   8.385 -0.0019  1.5658  1.4389
 4092TIP3    H233836   4.920   1.975   8.398 -0.3571 -0.0923 -0.9659
 4093TIP3   OH233837   3.853   5.224   0.465 -0.3107 -0.0581  0.5881
 4093TIP3    H133838   3.817   5.147   0.509 -1.4735  1.0154  1.5681
 4093TIP3    H233839   3.929   5.249   0.517 -0.1954 -0.2644  0.5217
 4094TIP3   OH233840   0.144   3.633   1.336 -0.7906  0.2031  0.2104
 4094TIP3    H133841   0.108   3.647   1.424 -1.1941 -0.4471  0.1506
 4094TIP3    H233842   0.076   3.585   1.289  0.3621 -1.5387  0.2560
 4095TIP3   OH233843   1.434   1.302   7.071 -0.6958 -0.5051  0.8563
 4095TIP3    H133844   1.475   1.377   7.114 -0.9627  0.1102  0.0754
 4095TIP3    H233845   1.498   1.231   7.078  0.9882  0.6914 -1.1899
 4096TIP3   OH233846   0.592   3.820   7.747  0.3101 -0.0431  0.8255
 4096TIP3    H133847   0.570   3.777   7.830 -0.0701 -0.5439  0.4769
 4096TIP3    H233848   0.507   3.849   7.712  0.3854 -0.4566  0.2822
 4097TIP3   OH233849   2.811   2.782   8.492  0.3364  0.2606 -0.0614
 4097TIP3    H133850   2.805   2.690   8.465 -0.0787  0.1126  0.5148
 4097TIP3    H233851   2.902   2.806   8.475  0.1811  0.0833 -1.2720
 4098TIP3   OH233852   0.648   6.285   1.283 -0.2406  0.5946 -0.2735
 4098TIP3    H133853   0.558   6.260   1.262 -0.4975  0.2586  1.1214
 4098TIP3    H233854   0.696   6.202   1.286 -0.0407  0.7082 -0.3067
 4099TIP3   OH233855   1.816   1.513   1.096 -0.0466 -0.0764 -0.0660
 4099TIP3    H133856   1.830   1.517   1.191 -0.5725 -1.1303  0.0713
 4099TIP3    H233857   1.755   1.584   1.078 -0.4583 -0.2827  0.4895
 4100TIP3   OH233858   4.949   6.658   1.426 -0.0154 -0.4014  0.2340
 4100TIP3    H133859   5.018   6.697   1.480 -1.0826  0.1178  1.2626
 4100TIP3    H233860   4.927   6.726   1.362  0.2505 -0.4825  0.0528
 4101TIP3   OH233861   5.302   4.232   6.917 -0.1774 -0.0448 -0.5657
 4101TIP3    H133862   5.371   4.170   6.937 -0.1118  0.5349  1.1855
 4101TIP3    H233863   5.341   4.293   6.855  0.5591 -0.3129 -0.3695
 4102TIP3   OH233864   3.832   5.205   7.931 -0.0337  0.5301 -0.1321
 4102TIP3    H133865   3.774   5.213   7.855  1.5760  0.0273 -1.4672
 4102TIP3    H233866   3.918   5.232   7.899  0.7414  0.0513  1.4469
 4103TIP3   OH233867   5.243   3.618   7.068 -0.1916 -0.0177  0.5802
 4103TIP3    H133868   5.332   3.586   7.080 -0.3241 -0.0443  1.5853
 4103TIP3    H233869   5.250   3.686   7.001  0.3102 -1.1498 -0.5531
 4104TIP3   OH233870   6.728   5.067   0.930  0.6858 -0.2302 -0.0737
 4104TIP3    H133871   6.730   5.135   0.997  2.8041  0.8725 -1.1759
 4104TIP3    H233872   6.740   4.985   0.979 -1.1324  0.1765  1.1797
 4105TIP3   OH233873   1.796   3.412   0.450  0.2242 -0.3108  0.1160
 4105TIP3    H133874   1.811   3.482   0.514  3.3344 -1.5773  1.0131
 4105TIP3    H233875   1.849   3.437   0.374  2.6709 -2.2201  1.0292
 4106TIP3   OH233876   4.365   0.348   6.990  0.3413  0.0566  0.0604
 4106TIP3    H133877   4.309   0.301   6.929 -0.0423 -0.4016  0.7551
 4106TIP3    H233878   4.450   0.351   6.947  0.0695 -0.2299 -0.5074
 4107TIP3   OH233879   1.302   1.420   0.195  0.0116  0.1908 -0.5327
 4107TIP3    H133880   1.388   1.418   0.153  0.6555 -1.4103  0.7535
 4107TIP3    H233881   1.321   1.421   0.289 -1.3634 -0.5200 -0.2132
 4108TIP3   OH233882   5.769   1.411   7.233 -0.9240 -0.6204 -0.1809
 4108TIP3    H133883   5.687   1.454   7.210 -0.7972 -0.0210  0.4889
 4108TIP3    H233884   5.831   1.482   7.247 -0.3684 -1.0593 -0.3427
 4109TIP3   OH233885   5.812   2.595   0.756 -0.3202 -0.5034 -0.2678
 4109TIP3    H133886   5.826   2.574   0.664 -0.1597  0.7986 -0.5619
 4109TIP3    H233887   5.738   2.656   0.755  2.3791  3.1269 -0.0534
 4110TIP3   OH233888   3.696   4.288   0.427  0.3067 -0.4598 -0.4015
 4110TIP3    H133889   3.642   4.270   0.350 -0.7565  1.2872 -0.1099
 4110TIP3    H233890   3.785   4.290   0.393 -0.0697 -0.4889 -1.4401
 4111TIP3   OH233891   6.754   5.692   0.605 -0.1136  0.1154 -0.0103
 4111TIP3    H133892   6.842   5.662   0.582  0.1166  0.0458  0.9165
 4111TIP3    H233893   6.745   5.776   0.560  0.5462  0.2658  0.1188
 4112TIP3   OH233894   5.760   2.073   8.216  0.0747 -0.0231 -0.4787
 4112TIP3    H133895   5.796   2.131   8.149 -0.9544  0.2089 -0.8480
 4112TIP3    H233896   5.766   1.986   8.178 -1.1116  0.1796 -1.1607
 4113TIP3   OH233897   0.292   3.824   6.234  0.2549 -0.6728  0.4546
 4113TIP3    H133898   0.212   3.870   6.257  0.4837  0.1173 -0.2913
 4113TIP3    H233899   0.263   3.735   6.214 -0.7630  0.0880 -1.7711
 4114TIP3   OH233900   6.635   4.560   1.058 -0.8113 -0.2064 -0.4938
 4114TIP3    H133901   6.560   4.602   1.015 -0.6185 -0.8196 -1.4554
 4114TIP3    H233902   6.597   4.515   1.134 -1.3249 -0.0323 -0.6435
 4115TIP3   OH233903   4.242   0.113   7.657  0.0301 -0.5324  0.0382
 4115TIP3    H133904   4.270   0.027   7.627  2.3576  0.1104  0.1523
 4115TIP3    H233905   4.147   0.113   7.646  0.0613 -2.8120 -0.6878
 4116TIP3   OH233906   1.416   2.533   7.622  0.0291 -0.0539 -0.2083
 4116TIP3    H133907   1.395   2.493   7.707  2.7759  0.9591  1.0550
 4116TIP3    H233908   1.486   2.478   7.587 -0.7971 -0.2163 -1.6821
 4117TIP3   OH233909   4.826   5.202   0.798 -0.2788 -0.3733 -0.1933
 4117TIP3    H133910   4.846   5.125   0.852 -0.6688 -0.4172 -0.1069
 4117TIP3    H233911   4.904   5.214   0.745  1.4004  1.4511  2.4268
 4118TIP3   OH233912   2.409   4.272   6.004 -0.5865 -0.8700 -0.2166
 4118TIP3    H133913   2.381   4.197   5.952 -0.4476 -0.7129 -0.5229
 4118TIP3    H233914   2.329   4.301   6.048 -0.8963 -0.5007 -0.9930
 4119TIP3   OH233915   4.426   2.771   8.079  0.2392 -0.1828 -0.0633
 4119TIP3    H133916   4.395   2.859   8.099  2.9215  1.4899 -2.4403
 4119TIP3    H233917   4.380   2.747   7.998 -0.1163 -0.7595  0.3058
 4120TIP3   OH233918   3.763   4.520   0.901  0.4659 -0.1837  0.0472
 4120TIP3    H133919   3.701   4.581   0.861  0.7171 -0.3773 -0.6555
 4120TIP3    H233920   3.849   4.562   0.890  0.5630 -0.3462  0.1776
 4121TIP3   OH233921   0.501   3.858   8.460 -0.0710  0.5146 -0.6637
 4121TIP3    H133922   0.438   3.866   8.388  1.3421 -0.8749 -2.1673
 4121TIP3    H233923   0.540   3.771   8.446  1.4136  0.9127  0.8259
 4122TIP3   OH233924   0.656   2.545   0.558 -0.3624 -0.0672  0.4501
 4122TIP3    H133925   0.596   2.603   0.512 -2.5321 -0.3055  2.7613
 4122TIP3    H233926   0.662   2.468   0.503 -0.9859  0.5683 -0.5393
 4123TIP3   OH233927   1.608   3.719   1.765  0.8009 -0.4785 -0.1093
 4123TIP3    H133928   1.556   3.641   1.746  1.2946 -0.8518  0.0379
 4123TIP3    H233929   1.699   3.689   1.758  0.9964 -0.1278  0.7612
 4124TIP3   OH233930   1.086   3.812   7.630 -0.1623 -0.3840  0.3642
 4124TIP3    H133931   1.103   3.899   7.596 -2.1772  0.3788  1.1828
 4124TIP3    H233932   0.994   3.795   7.612 -0.1545 -1.7928  1.3919
 4125TIP3   OH233933   6.323   4.123   8.262 -0.1286  0.4509  0.1238
 4125TIP3    H133934   6.297   4.045   8.213  1.2126  0.1003 -0.0589
 4125TIP3    H233935   6.357   4.088   8.345 -0.2560  0.8961  0.3646
 4126TIP3   OH233936   1.617   3.992   0.998 -0.4416 -0.5232 -0.2705
 4126TIP3    H133937   1.712   3.981   1.000 -0.0914  1.8227  1.0384
 4126TIP3    H233938   1.596   4.006   0.906 -0.1072 -4.3677 -1.0839
 4127TIP3   OH233939   2.442   1.980   0.033 -0.4223  0.0257  0.1866
 4127TIP3    H133940   2.501   1.924   0.083 -0.2857  1.6984  1.9981
 4127TIP3    H233941   2.487   1.994  -0.051  1.2447  0.3527  1.0922
 4128TIP3   OH233942   2.971   3.998   8.026  0.4858  0.1053 -0.2639
 4128TIP3    H133943   2.894   4.049   7.999  1.3208  1.4799 -0.1160
 4128TIP3    H233944   2.948   3.908   8.004 -0.8726  0.5768 -0.9132
 4129TIP3   OH233945   2.120   4.525   1.475  0.0501 -0.3171 -0.2586
 4129TIP3    H133946   2.181   4.455   1.498 -0.2877 -0.8588 -0.9773
 4129TIP3    H233947   2.176   4.596   1.444  0.7083  1.1722  3.7489
 4130TIP3   OH233948   3.261   0.741   8.492 -0.3730  0.0408  0.4905
 4130TIP3    H133949   3.330   0.787   8.444 -0.3654 -0.6571 -0.1820
 4130TIP3    H233950   3.218   0.810   8.543 -0.2131  0.7580 -0.3134
 4131TIP3   OH233951   3.298   6.561   7.451  0.4862 -0.4301 -0.4476
 4131TIP3    H133952   3.321   6.604   7.368  0.5209  0.6312  0.0873
 4131TIP3    H233953   3.202   6.565   7.454  0.4016 -1.6286 -1.0168
 4132TIP3   OH233954   4.503   2.357   7.868  0.4396  0.3316  0.0158
 4132TIP3    H133955   4.419   2.379   7.909  0.6358  0.9502  0.1047
 4132TIP3    H233956   4.555   2.437   7.877  0.3345  0.6605 -1.8584
 4133TIP3   OH233957   1.425   2.181   1.656  0.1250 -0.5582 -0.3727
 4133TIP3    H133958   1.332   2.205   1.662  0.3462  0.4970 -0.9132
 4133TIP3    H233959   1.455   2.177   1.747 -0.1798  0.2292 -0.2333
 4134TIP3   OH233960   1.444   3.205   8.498 -0.4113 -0.5471 -0.2718
 4134TIP3    H133961   1.401   3.125   8.530 -1.0205 -0.3400 -0.5625
 4134TIP3    H233962   1.407   3.275   8.552 -0.4610 -0.3634 -0.5469
 4135TIP3   OH233963   0.802   0.783   1.569  0.5897  0.2376  0.0792
 4135TIP3    H133964   0.738   0.733   1.620  1.1492 -1.3364 -0.6990
 4135TIP3    H233965   0.878   0.791   1.627 -0.1165  1.7655  0.8561
 4136TIP3   OH233966   4.140   0.231   6.858 -0.2138 -0.7160 -0.6108
 4136TIP3    H133967   4.092   0.261   6.781 -1.8375 -0.2863  0.5057
 4136TIP3    H233968   4.075   0.232   6.929  1.4300 -0.2264  0.9741
 4137TIP3   OH233969   2.176   3.202   7.632  0.1939 -0.3494 -0.3939
 4137TIP3    H133970   2.082   3.193   7.650  0.3072 -1.1593 -0.2048
 4137TIP3    H233971   2.179   3.241   7.544 -0.3741  3.7814  1.1582
 4138TIP3   OH233972   6.195   4.289   7.475  0.2300  0.0615  0.8692
 4138TIP3    H133973   6.242   4.288   7.558  1.0361 -0.2048  0.4200
 4138TIP3    H233974   6.174   4.197   7.457  0.3023  0.0864  0.6483
 4139TIP3   OH233975   1.163   3.534   0.112  0.3516  0.1206 -0.5185
 4139TIP3    H133976   1.159   3.583   0.030  0.5688 -0.7863 -1.0939
 4139TIP3    H233977   1.077   3.491   0.118  0.2402  0.3962 -0.1369
 4140TIP3   OH233978   6.776   4.787   0.436  0.4018  0.3212 -0.1411
 4140TIP3    H133979   6.858   4.832   0.419 -0.0358  0.9710 -0.5472
 4140TIP3    H233980   6.767   4.790   0.532  1.1184 -0.2444 -0.0488
 4141TIP3   OH233981   1.305   2.445   1.904  0.1283  0.2037 -0.7733
 4141TIP3    H133982   1.261   2.377   1.956 -1.0715  0.3805 -1.5163
 4141TIP3    H233983   1.397   2.436   1.927 -0.0795 -1.2564 -0.3586
 4142TIP3   OH233984   3.210   1.651   7.717  0.4501 -0.0310 -0.0680
 4142TIP3    H133985   3.138   1.713   7.727  0.2572 -0.4021  1.0246
 4142TIP3    H233986   3.234   1.629   7.807  2.9845  1.2787 -0.3369
 4143TIP3   OH233987   6.580   1.025   0.011 -0.1623  0.1968 -0.6677
 4143TIP3    H133988   6.614   1.003  -0.076 -0.5672 -1.6200 -0.4161
 4143TIP3    H233989   6.606   0.950   0.066  0.7707  1.6584  0.9784
 4144TIP3   OH233990   6.570   0.473   7.534  0.1344  0.2343 -0.3148
 4144TIP3    H133991   6.584   0.493   7.626 -1.1235  1.3500 -0.3398
 4144TIP3    H233992   6.632   0.531   7.488  1.6686 -1.2146 -0.1766
 4145TIP3   OH233993   0.959   2.675   8.633 -0.5309  0.3302  0.1318
 4145TIP3    H133994   0.982   2.649   8.723 -1.3180 -0.4806  0.1183
 4145TIP3    H233995   0.986   2.600   8.579 -0.9074  0.4149 -0.1825
 4146TIP3   OH233996   2.384   2.366   1.576 -0.1594  0.0975  0.4381
 4146TIP3    H133997   2.438   2.443   1.561 -1.9450  1.6188  1.5284
 4146TIP3    H233998   2.294   2.398   1.575 -0.9554 -1.9512  1.0337
 4147TIP3   OH233999   2.790   2.146   0.289  0.2280 -0.0544 -0.3442
 4147TIP3    H134000   2.821   2.084   0.223 -0.1081  0.4158 -0.9515
 4147TIP3    H234001   2.851   2.135   0.362  1.8410  0.8543 -1.5026
 4148TIP3   OH234002   2.558   4.213   7.439 -0.3695 -0.2399  0.0018
 4148TIP3    H134003   2.514   4.138   7.398 -0.8435  0.1950 -0.2886
 4148TIP3    H234004   2.530   4.210   7.530  0.8880 -1.3621  0.3792
 4149TIP3   OH234005   4.959   3.894   0.404  0.2361 -0.1243  0.3205
 4149TIP3    H134006   4.898   3.919   0.334 -0.0610  0.5883  0.8230
 4149TIP3    H234007   4.914   3.919   0.485  1.6525  1.4994  0.6664
 4150TIP3   OH234008   1.901   1.503   7.507  0.0807  0.0804 -0.6097
 4150TIP3    H134009   1.818   1.455   7.505  0.3606 -0.4181 -0.5147
 4150TIP3    H234010   1.913   1.533   7.417  0.4376 -0.9771 -0.9332
 4151TIP3   OH234011   2.807   5.160   0.253  0.0787 -0.4634 -0.7971
 4151TIP3    H134012   2.714   5.163   0.229 -1.0621 -0.3684  2.9513
 4151TIP3    H234013   2.823   5.069   0.276  0.2477 -0.0831  0.6848
 4152TIP3   OH234014   1.300   5.469   7.112  0.0212 -0.1178 -0.1445
 4152TIP3    H134015   1.225   5.411   7.123  0.2056 -0.1845  0.8620
 4152TIP3    H234016   1.375   5.409   7.101  0.2671 -0.0948  1.2762
 4153TIP3   OH234017   4.521   5.485   7.912 -0.1196  0.7382 -0.2127
 4153TIP3    H134018   4.585   5.489   7.984 -0.7591 -1.5316  0.5650
 4153TIP3    H234019   4.449   5.541   7.941  0.3338  1.1431  0.1526
 4154TIP3   OH234020   0.363   6.641   0.633  0.5273 -0.1507  0.4864
 4154TIP3    H134021   0.446   6.615   0.591  0.4993  2.2894 -1.2965
 4154TIP3    H234022   0.390   6.704   0.700  0.3153 -1.8938  2.2959
 4155TIP3   OH234023   5.738   3.237   0.595 -0.8958 -0.1299 -0.0966
 4155TIP3    H134024   5.783   3.154   0.580  2.3293  0.6549  3.4675
 4155TIP3    H234025   5.782   3.299   0.537  0.7977  0.0733  1.3262
 4156TIP3   OH234026   0.620   1.260   7.444 -0.2975 -0.2027 -0.0622
 4156TIP3    H134027   0.663   1.291   7.364  0.2833 -2.0114 -0.4892
 4156TIP3    H234028   0.687   1.209   7.488 -1.1224 -0.5627  0.7842
 4157TIP3   OH234029   1.990   2.163   6.387 -0.1613 -0.4498 -0.0834
 4157TIP3    H134030   2.018   2.090   6.443 -0.4441 -1.2379 -0.9552
 4157TIP3    H234031   1.920   2.127   6.333 -1.2387  0.8393  0.3860
 4158TIP3   OH234032   4.027   1.401   8.347  0.6134 -0.1367 -0.4287
 4158TIP3    H134033   4.002   1.358   8.265 -2.2692  0.3520  0.0938
 4158TIP3    H234034   3.989   1.488   8.341  0.4400 -0.0527  1.3855
 4159TIP3   OH234035   6.162   2.075   6.652  0.6346  0.8839 -0.1330
 4159TIP3    H134036   6.105   1.999   6.652  2.6759 -0.7528  0.5229
 4159TIP3    H234037   6.103   2.150   6.653 -1.4822 -0.6785  1.8437
 4160TIP3   OH234038   2.239   4.711   8.267 -0.1200  0.2546  0.5402
 4160TIP3    H134039   2.298   4.787   8.266 -0.8298  0.9023  2.5121
 4160TIP3    H234040   2.181   4.724   8.192  0.7189  0.8489 -0.0262
 4161TIP3   OH234041   1.978   5.575   5.669 -0.0806  0.4703 -0.7558
 4161TIP3    H134042   1.966   5.602   5.760 -0.7182 -1.0306 -0.3584
 4161TIP3    H234043   2.073   5.582   5.654  0.8462 -3.6166  1.5888
 4162TIP3   OH234044   0.544   0.737   5.988  0.6488 -0.3336  0.2092
 4162TIP3    H134045   0.475   0.804   5.993  1.2041  0.5384 -2.3637
 4162TIP3    H234046   0.496   0.656   5.971  0.0864 -0.3496  1.6805
 4163TIP3   OH234047   5.240   5.737   0.676  0.6300  0.5221  0.3709
 4163TIP3    H134048   5.324   5.694   0.660  0.9343  2.0222 -2.6799
 4163TIP3    H234049   5.179   5.664   0.689  1.9896 -0.6549  0.5172
 4164TIP3   OH234050   0.549   6.199   6.592  0.2548 -0.5165  0.3483
 4164TIP3    H134051   0.610   6.129   6.569  1.1428 -0.1237  1.4565
 4164TIP3    H234052   0.586   6.239   6.670 -0.8692  0.4307  0.4218
 4165TIP3   OH234053   5.793   4.995   0.621  0.2522  0.1822  0.1465
 4165TIP3    H134054   5.854   4.988   0.548  1.7509 -0.7689  1.4375
 4165TIP3    H234055   5.846   5.023   0.695 -0.6948 -1.3993  1.4940
 4166TIP3   OH234056   4.794   4.176   7.981  0.0001 -0.0774 -0.5683
 4166TIP3    H134057   4.776   4.219   7.897 -0.1135  1.6813  0.3230
 4166TIP3    H234058   4.804   4.083   7.958 -0.1006  0.3454 -2.5065
 4167TIP3   OH234059   0.512   1.763   0.317  0.3827  0.3444 -0.2325
 4167TIP3    H134060   0.560   1.780   0.398 -0.0214 -0.0936  0.1028
 4167TIP3    H234061   0.574   1.712   0.263  0.5339  0.3506 -0.0668
 4168TIP3   OH234062   2.490   1.984   7.624 -0.6791  0.0708 -0.2076
 4168TIP3    H134063   2.417   1.923   7.618 -1.1182  0.1563  2.7149
 4168TIP3    H234064   2.454   2.068   7.595 -1.5811 -0.0181  0.6180
 4169TIP3   OH234065   0.429   2.499   0.954 -0.3853  0.3566  0.6972
 4169TIP3    H134066   0.417   2.462   0.867  2.3474 -0.6805  0.6654
 4169TIP3    H234067   0.461   2.588   0.938  0.1964  0.1379  0.6142
 4170TIP3   OH234068   3.879   6.536   1.787 -0.1263  0.5348 -0.0912
 4170TIP3    H134069   3.924   6.452   1.784  0.1889  0.7167 -0.8199
 4170TIP3    H234070   3.786   6.514   1.792 -0.0314  0.1445 -0.0146
 4171TIP3   OH234071   6.558   2.228   7.351  0.4311 -0.4291 -0.0345
 4171TIP3    H134072   6.653   2.216   7.350  0.9758  2.9660 -0.8387
 4171TIP3    H234073   6.541   2.279   7.430 -0.8971 -1.7348  0.5678
 4172TIP3   OH234074   5.327   0.346   1.322  0.2071  0.8870  0.5751
 4172TIP3    H134075   5.311   0.349   1.416  1.4004  1.0896  0.7885
 4172TIP3    H234076   5.422   0.353   1.313 -0.0146  3.2182 -0.7327
 4173TIP3   OH234077   3.469   4.903   1.902  0.0050 -0.0329  0.3429
 4173TIP3    H134078   3.558   4.921   1.932 -0.0669  1.4678 -0.2730
 4173TIP3    H234079   3.413   4.947   1.965 -0.2908 -0.5769  0.4642
 4174TIP3   OH234080   2.196   5.007   0.001 -0.1847  0.5524 -0.4785
 4174TIP3    H134081   2.278   5.056   0.008  1.6405 -2.0426 -2.0147
 4174TIP3    H234082   2.155   5.040  -0.079 -0.8192  2.0063  0.4083
 4175TIP3   OH234083   4.848   0.389   7.841  0.4612  0.0713 -0.6093
 4175TIP3    H134084   4.824   0.449   7.770 -2.1319  0.3176  0.3638
 4175TIP3    H234085   4.820   0.434   7.921  0.9684 -1.2920  0.3781
 4176TIP3   OH234086   2.100   4.313   1.210 -0.4004  0.0222 -0.0686
 4176TIP3    H134087   2.151   4.237   1.181 -0.8549 -0.3868  0.1895
 4176TIP3    H234088   2.029   4.276   1.262 -0.5275  0.6399  0.2101
 4177TIP3   OH234089   5.235   3.145   6.294  0.2765 -0.5941  0.5386
 4177TIP3    H134090   5.162   3.086   6.314 -1.5585  1.2571 -0.2259
 4177TIP3    H234091   5.200   3.203   6.225  2.3412  0.6499  0.4605
 4178TIP3   OH234092   6.083   2.537   1.775 -0.1593  0.3153  0.0773
 4178TIP3    H134093   6.157   2.591   1.745 -0.7534  0.6010 -0.9288
 4178TIP3    H234094   6.059   2.487   1.697 -0.9212  0.1047  0.4505
 4179TIP3   OH234095   2.272   1.085   1.340  0.3114  0.1922 -0.0832
 4179TIP3    H134096   2.200   1.035   1.377 -0.9554  1.9351 -0.0750
 4179TIP3    H234097   2.324   1.113   1.416 -0.2045  0.6899  0.0903
 4180TIP3   OH234098   2.272   4.084   0.210 -0.1286 -0.0289  0.5309
 4180TIP3    H134099   2.198   4.049   0.160 -1.6297  0.8249  2.0461
 4180TIP3    H234100   2.283   4.022   0.282  0.4354  0.0073  0.4765
 4181TIP3   OH234101   5.730   4.449   2.461 -0.4994  0.0233 -0.5631
 4181TIP3    H134102   5.735   4.362   2.501  0.4087 -0.1167 -0.9484
 4181TIP3    H234103   5.738   4.509   2.535 -0.6333 -0.2211 -0.3470
 4182TIP3   OH234104   1.138   4.672   0.006  0.5580  0.5433 -0.0130
 4182TIP3    H134105   1.153   4.726  -0.071  0.2107  0.3900 -0.1875
 4182TIP3    H234106   1.093   4.594  -0.027 -0.0693  0.7151  0.4150
 4183TIP3   OH234107   6.701   2.140   0.625  0.6367 -0.0600 -0.1374
 4183TIP3    H134108   6.616   2.097   0.617 -0.0412  1.0576  0.8770
 4183TIP3    H234109   6.681   2.233   0.632  2.0555  0.4342 -1.8006
 4184TIP3   OH234110   1.505   1.502   0.671  0.3686 -0.0326  0.1140
 4184TIP3    H134111   1.506   1.430   0.734  0.7402 -1.2527 -1.2326
 4184TIP3    H234112   1.459   1.573   0.717 -1.3029 -1.5780  1.0005
 4185TIP3   OH234113   3.100   0.301   0.266  0.0722 -0.1949  0.1988
 4185TIP3    H134114   3.151   0.262   0.337  2.0174  0.8886 -0.5335
 4185TIP3    H234115   3.099   0.394   0.285  1.1772  0.2103 -1.4398
 4186TIP3   OH234116   6.368   2.348   6.799 -0.4789 -0.2827 -0.3020
 4186TIP3    H134117   6.365   2.255   6.822  0.7066  0.1128  1.6378
 4186TIP3    H234118   6.278   2.379   6.812 -0.4568 -0.7352  1.0112
 4187TIP3   OH234119   0.189   2.942   1.988 -0.1061  0.1819  0.3416
 4187TIP3    H134120   0.184   3.015   2.049  0.3695 -0.4159  1.1149
 4187TIP3    H234121   0.269   2.958   1.937 -0.7175  0.8906 -0.4170
 4188TIP3   OH234122   2.597   1.583   7.607 -0.1252  0.0559  0.4598
 4188TIP3    H134123   2.640   1.641   7.544  2.5300 -1.4236  0.7613
 4188TIP3    H234124   2.639   1.498   7.594 -1.3317 -0.9349  2.4869
 4189TIP3   OH234125   4.017   5.388   8.162  0.1509 -0.4534  0.0593
 4189TIP3    H134126   3.997   5.315   8.221 -1.3820 -0.5968 -0.5782
 4189TIP3    H234127   3.992   5.356   8.076  3.2358 -0.5895 -0.8913
 4190TIP3   OH234128   5.043   1.863   8.273  0.1304 -0.0108 -0.5156
 4190TIP3    H134129   5.123   1.825   8.310 -0.2320 -0.0028  0.3118
 4190TIP3    H234130   5.071   1.905   8.192  0.9686 -0.0201 -0.2421
 4191TIP3   OH234131   0.594   5.324   1.465 -0.4666  0.0292  0.0086
 4191TIP3    H134132   0.508   5.324   1.507 -0.4988  2.8006  0.1395
 4191TIP3    H234133   0.579   5.366   1.380  0.4528 -1.1427 -0.7529
 4192TIP3   OH234134   0.230   0.072   8.435 -0.3186  0.3206  0.0960
 4192TIP3    H134135   0.279   0.100   8.357  0.0486 -0.4476  0.0372
 4192TIP3    H234136   0.294   0.025   8.488 -0.2251  2.0039  1.5400
 4193TIP3   OH234137   4.756   1.615   7.560  0.5687  0.3451  0.0837
 4193TIP3    H134138   4.722   1.527   7.545 -1.2616  0.8954  0.7880
 4193TIP3    H234139   4.771   1.650   7.472  0.1827 -0.2454 -0.2194
 4194TIP3   OH234140   1.642   6.656   7.027 -0.1877  0.0129  0.0750
 4194TIP3    H134141   1.659   6.663   7.121  0.6470  0.1270 -0.0708
 4194TIP3    H234142   1.648   6.562   7.008  1.4010  0.1336 -0.1500
 4195TIP3   OH234143   4.362   4.687   6.946 -0.5035 -0.1781  0.2692
 4195TIP3    H134144   4.313   4.636   6.881 -0.6032  0.9488 -0.5634
 4195TIP3    H234145   4.302   4.756   6.973  0.1418  0.4144  0.2338
 4196TIP3   OH234146   1.679   1.719   7.197  0.3421 -0.1720 -0.8923
 4196TIP3    H134147   1.622   1.791   7.223  0.0568 -0.6207 -0.2614
 4196TIP3    H234148   1.763   1.739   7.239 -0.0682 -0.8056  0.2750
 4197TIP3   OH234149   3.608   1.638   1.278 -0.4724 -0.1128 -0.1433
 4197TIP3    H134150   3.514   1.622   1.267 -0.3737 -0.0898 -1.1366
 4197TIP3    H234151   3.623   1.632   1.372 -1.5225  0.1597  0.0523
 4198TIP3   OH234152   2.587   5.859   8.491  0.0619 -0.3032  0.0005
 4198TIP3    H134153   2.507   5.863   8.544  0.7708  2.2739  1.0422
 4198TIP3    H234154   2.556   5.839   8.403 -1.3972 -2.3271  0.9053
 4199TIP3   OH234155   1.536   3.143   7.640  0.5360 -0.1223  0.0225
 4199TIP3    H134156   1.476   3.069   7.629  0.0766  0.1234  0.8153
 4199TIP3    H234157   1.617   3.103   7.670  0.5119 -0.3769 -0.2441
 4200TIP3   OH234158   3.072   5.736   1.724 -0.1247  0.0131 -0.0291
 4200TIP3    H134159   3.161   5.735   1.757 -0.2625  0.0815  0.3553
 4200TIP3    H234160   3.052   5.829   1.712 -0.9444  0.1811  2.1383
 4201TIP3   OH234161   3.327   3.120   0.386 -0.1744  0.4921  0.0021
 4201TIP3    H134162   3.386   3.190   0.358 -0.6820  0.4566 -1.2180
 4201TIP3    H234163   3.248   3.166   0.415 -0.2438  0.4551 -0.1290
 4202TIP3   OH234164   2.702   3.230   0.752  0.1512 -0.2760  0.1561
 4202TIP3    H134165   2.736   3.315   0.780  1.4722 -0.0776 -1.8990
 4202TIP3    H234166   2.750   3.167   0.806  1.0350  0.1856 -0.0609
 4203TIP3   OH234167   5.290   4.824   7.585 -0.3607 -0.5218 -0.3241
 4203TIP3    H134168   5.223   4.758   7.603  0.2919 -0.8926  0.8874
 4203TIP3    H234169   5.314   4.810   7.493 -1.1910 -1.0753 -0.4635
 4204TIP3   OH234170   3.066   1.170   1.410 -0.2053 -0.6193 -0.0881
 4204TIP3    H134171   2.988   1.141   1.456 -0.3682 -1.6742 -1.0027
 4204TIP3    H234172   3.041   1.253   1.369 -0.1612  0.1619  1.3924
 4205TIP3   OH234173   3.992   0.433   7.844  0.2610  0.0768  0.5522
 4205TIP3    H134174   4.057   0.499   7.819 -0.6328  0.3389 -1.2598
 4205TIP3    H234175   4.020   0.354   7.798  0.4841 -0.4045  1.5033
 4206TIP3   OH234176   0.464   0.726   0.967  0.2739 -0.0333  0.2394
 4206TIP3    H134177   0.453   0.784   1.042  0.5081 -1.2033  1.2027
 4206TIP3    H234178   0.381   0.733   0.919  0.3238  1.1272  0.2967
 4207TIP3   OH234179   0.342   5.492   7.126 -0.4415  0.1455  0.3929
 4207TIP3    H134180   0.393   5.545   7.187  0.0191  1.4600 -1.0613
 4207TIP3    H234181   0.380   5.404   7.133  0.4075  0.5582  1.0973
 4208TIP3   OH234182   3.476   5.461   8.403  0.1846 -0.4740 -0.2611
 4208TIP3    H134183   3.449   5.450   8.495  0.5334  1.3396  0.0933
 4208TIP3    H234184   3.503   5.373   8.376 -0.2871 -1.1273  1.2470
 4209TIP3   OH234185   6.821   4.549   0.222  0.2264  0.3248 -0.6039
 4209TIP3    H134186   6.741   4.514   0.260 -0.3898  0.7413 -1.4985
 4209TIP3    H234187   6.876   4.569   0.298  0.0633 -1.2727 -0.0241
 4210TIP3   OH234188   0.144   1.590   2.150 -0.2937  0.3326 -0.1404
 4210TIP3    H134189   0.087   1.629   2.217 -1.6428  0.6600 -1.4108
 4210TIP3    H234190   0.101   1.507   2.128 -0.4966  0.7411 -1.3630
 4211TIP3   OH234191   3.173   0.235   1.540 -0.8753  0.3939 -0.5459
 4211TIP3    H134192   3.221   0.305   1.497 -2.2038  0.8312 -1.3938
 4211TIP3    H234193   3.223   0.216   1.619  0.7252  0.7334 -1.4213
 4212TIP3   OH234194   2.156   4.722   1.007  0.9925  0.1359 -0.4153
 4212TIP3    H134195   2.067   4.753   1.025  1.2638  2.0262 -1.9954
 4212TIP3    H234196   2.152   4.689   0.917  2.0892  1.2101 -0.8828
 4213TIP3   OH234197   0.879   5.121   6.910  0.0295  0.6440 -0.9167
 4213TIP3    H134198   0.912   5.100   6.822  0.4725 -0.9077 -0.4233
 4213TIP3    H234199   0.784   5.129   6.898 -0.1713 -1.5750 -1.2367
 4214TIP3   OH234200   5.487   3.547   6.960 -0.2234  0.2021 -0.2929
 4214TIP3    H134201   5.465   3.515   6.872 -1.2113  2.6221 -1.0245
 4214TIP3    H234202   5.567   3.597   6.948  0.3975 -0.5683  0.4951
 4215TIP3   OH234203   0.318   4.990   7.182  0.2203  0.0953 -0.0800
 4215TIP3    H134204   0.395   4.937   7.205  0.4661  0.3973 -0.2079
 4215TIP3    H234205   0.273   5.003   7.266  0.2631 -0.1465 -0.0163
 4216TIP3   OH234206   0.163   2.968   7.480 -0.3070  0.5905 -0.1020
 4216TIP3    H134207   0.183   2.886   7.434  0.2614  0.1072  0.9983
 4216TIP3    H234208   0.085   2.947   7.532  0.2095  0.5683  0.6615
 4217TIP3   OH234209   1.145   3.093   0.129  0.0972 -0.3785 -0.2765
 4217TIP3    H134210   1.178   3.017   0.177 -1.1011 -0.4742  0.4514
 4217TIP3    H234211   1.070   3.059   0.080 -1.8917  0.7245  1.8070
 4218TIP3   OH234212   0.529   5.571   7.953  0.4048 -0.0668 -0.0419
 4218TIP3    H134213   0.593   5.641   7.941  1.6582 -1.0810  0.5146
 4218TIP3    H234214   0.577   5.490   7.931 -0.5778 -0.8791  0.7118
 4219TIP3   OH234215   5.469   5.691   0.294 -0.0015 -0.2297 -0.3967
 4219TIP3    H134216   5.496   5.776   0.327 -0.7979 -0.2739  0.4045
 4219TIP3    H234217   5.519   5.628   0.346 -0.0131 -0.2696 -0.4331
 4220TIP3   OH234218   5.614   2.923   8.602 -0.3419  0.0957 -0.0317
 4220TIP3    H134219   5.532   2.924   8.652 -0.1652  1.0594  0.2680
 4220TIP3    H234220   5.598   2.863   8.529 -1.4435  0.5780 -0.1991
 4221TIP3   OH234221   2.692   1.392   1.287 -0.1584 -0.5206 -0.1057
 4221TIP3    H134222   2.644   1.427   1.212  0.2652  2.1983  0.7631
 4221TIP3    H234223   2.648   1.431   1.363 -0.3935 -2.9558  1.1154
 4222TIP3   OH234224   1.356   2.978   1.275  0.0917 -0.1173  0.1331
 4222TIP3    H134225   1.429   3.026   1.313  0.1033 -1.2288  1.6252
 4222TIP3    H234226   1.305   3.044   1.227  1.3483  0.9045  0.1691
 4223TIP3   OH234227   6.558   5.300   0.750  0.2550  0.3182  0.0257
 4223TIP3    H134228   6.510   5.248   0.815  1.8902  1.6445  2.4465
 4223TIP3    H234229   6.650   5.276   0.764  0.6277  0.0526 -2.4356
 4224TIP3   OH234230   3.907   1.532   0.227 -0.0906 -0.3397  0.0926
 4224TIP3    H134231   3.895   1.505   0.318  1.1112 -0.9433  0.0919
 4224TIP3    H234232   3.930   1.624   0.232 -1.2617 -0.0451  0.3041
 4225TIP3   OH234233   2.903   5.811   6.135 -0.2579  0.2047 -0.1250
 4225TIP3    H134234   2.820   5.804   6.087  0.9515 -0.6908 -2.2397
 4225TIP3    H234235   2.970   5.786   6.071  1.5757 -0.1654  1.8078
 4226TIP3   OH234236   3.439   1.200   1.474 -0.2590 -0.2147  0.0433
 4226TIP3    H134237   3.494   1.264   1.519 -1.0011  0.0962  0.5432
 4226TIP3    H234238   3.444   1.121   1.528 -1.3497  0.2369  0.8543
 4227TIP3   OH234239   0.051   3.125   6.820  0.2134  0.4076  0.1319
 4227TIP3    H134240   0.014   3.086   6.741 -0.0343 -2.2219  1.4397
 4227TIP3    H234241   0.145   3.132   6.802  0.6422 -2.7614  0.4310
 4228TIP3   OH234242   4.483   3.643   7.807  0.4010 -0.6885 -0.1906
 4228TIP3    H134243   4.504   3.570   7.749  0.2789  0.0792 -1.2226
 4228TIP3    H234244   4.554   3.706   7.794 -1.1613  0.8269 -1.8284
 4229TIP3   OH234245   5.946   3.467   0.463 -0.4585  0.6237  0.4950
 4229TIP3    H134246   5.997   3.401   0.416  0.9236  0.0580  2.6220
 4229TIP3    H234247   5.914   3.526   0.395  1.7424  0.0924 -1.1231
 4230TIP3   OH234248   3.485   1.732   1.823 -0.3923  0.4350  0.4940
 4230TIP3    H134249   3.510   1.807   1.878  3.7115  1.4219 -2.2214
 4230TIP3    H234250   3.403   1.759   1.781  0.8309  3.4844 -0.2287
 4231TIP3   OH234251   1.214   2.589   6.694  0.8954  0.0263 -0.1611
 4231TIP3    H134252   1.208   2.635   6.610  2.1115  0.4754 -0.0201
 4231TIP3    H234253   1.132   2.541   6.700  0.4850  0.5367 -1.2858
 4232TIP3   OH234254   3.128   3.518   8.256  0.1453 -0.5355 -0.3465
 4232TIP3    H134255   3.155   3.565   8.177 -0.5325  0.7909  0.1903
 4232TIP3    H234256   3.066   3.576   8.299  1.1124 -0.8556  1.6114
 4233TIP3   OH234257   5.357   3.204   0.465  0.0597  0.1440  0.3562
 4233TIP3    H134258   5.323   3.239   0.383 -2.6948 -0.6057  1.1031
 4233TIP3    H234259   5.448   3.234   0.468  0.4128 -0.2391 -3.1794
 4234TIP3   OH234260   0.021   2.611   1.504 -0.8887  0.3613 -0.6271
 4234TIP3    H134261  -0.020   2.619   1.418 -0.2519  2.2717 -0.8178
 4234TIP3    H234262   0.090   2.546   1.493 -0.6468  0.7788 -1.6550
 4235TIP3   OH234263   4.486   5.552   0.068 -0.1944  0.5220 -0.0527
 4235TIP3    H134264   4.546   5.492   0.024  1.5260  0.8564  1.6804
 4235TIP3    H234265   4.404   5.503   0.075  0.8810 -1.3097  0.4956
 4236TIP3   OH234266   5.611   5.092   7.874  0.1842 -0.8345  0.0068
 4236TIP3    H134267   5.566   5.020   7.832 -1.2053 -1.5298  2.4652
 4236TIP3    H234268   5.542   5.144   7.914  1.1970  1.6004 -1.2029
 4237TIP3   OH234269   3.410   3.245   6.904  0.0877 -0.4490  0.2633
 4237TIP3    H134270   3.363   3.310   6.956  1.6122  0.5459  0.4492
 4237TIP3    H234271   3.412   3.281   6.816  1.5902  0.1439  0.5237
 4238TIP3   OH234272   2.722   0.798   6.630  0.3750  0.5129 -0.0192
 4238TIP3    H134273   2.750   0.814   6.540 -1.4108 -1.0041 -0.9060
 4238TIP3    H234274   2.719   0.703   6.638  0.7379  0.6173  1.7390
 4239TIP3   OH234275   5.766   4.880   8.426 -0.6196  0.4158  0.1938
 4239TIP3    H134276   5.743   4.959   8.474  1.4366  0.3395  1.4214
 4239TIP3    H234277   5.755   4.903   8.334  1.4913  2.7448  0.4216
 4240TIP3   OH234278   3.506   5.023   0.700 -0.6830 -0.3739  0.4450
 4240TIP3    H134279   3.514   4.980   0.785  2.0993  0.3186  0.6360
 4240TIP3    H234280   3.509   4.952   0.637  3.1232 -0.7249  0.7850
 4241TIP3   OH234281   2.586   4.461   7.299 -0.1134  0.6150 -0.0032
 4241TIP3    H134282   2.574   4.446   7.205  2.5633  0.9836 -0.4857
 4241TIP3    H234283   2.593   4.373   7.336  3.6609  0.2931 -1.0139
 4242TIP3   OH234284   2.264   2.119   0.188 -0.4050 -0.0778 -0.1791
 4242TIP3    H134285   2.344   2.090   0.144 -0.5850 -0.5153 -0.2321
 4242TIP3    H234286   2.222   2.037   0.216 -0.1839  0.1963  0.9913
 4243TIP3   OH234287   6.197   2.103   1.765  0.0923  0.9082  0.1212
 4243TIP3    H134288   6.288   2.126   1.780  0.1276  0.3096  0.8794
 4243TIP3    H234289   6.150   2.186   1.771  0.5815  1.2247 -0.3022
 4244TIP3   OH234290   4.880   4.616   7.831  0.2641  0.0714 -0.2277
 4244TIP3    H134291   4.939   4.582   7.899  1.8009  0.3875 -1.3460
 4244TIP3    H234292   4.810   4.659   7.880  0.6821 -0.7426  1.1594
 4245TIP3   OH234293   3.112   5.452   0.676 -0.2484 -0.5892  0.7352
 4245TIP3    H134294   3.159   5.520   0.725 -1.0213 -0.3948  1.2283
 4245TIP3    H234295   3.144   5.370   0.713  0.4737 -0.4914  0.3413
 4246TIP3   OH234296   3.870   6.498   1.022  0.1352 -0.7420 -0.7748
 4246TIP3    H134297   3.945   6.479   0.966  0.8511  1.7627 -0.7910
 4246TIP3    H234298   3.830   6.576   0.983  0.3969  0.8382  1.8599
 4247TIP3   OH234299   1.053   1.104   8.181  0.1261  0.4332  0.1238
 4247TIP3    H134300   0.989   1.172   8.201 -2.6754 -2.4144  1.9451
 4247TIP3    H234301   1.112   1.104   8.257  1.3990  1.9799 -0.7960
 4248TIP3   OH234302   2.749   6.511   6.918 -0.0935  0.0816  0.3431
 4248TIP3    H134303   2.718   6.428   6.881 -0.3282  0.4852 -0.3817
 4248TIP3    H234304   2.671   6.566   6.922 -0.0463  0.0976  1.3280
 4249TIP3   OH234305   6.790   3.585   7.618  0.3087 -0.0409 -0.6705
 4249TIP3    H134306   6.809   3.674   7.588  0.2944 -0.6504 -2.6451
 4249TIP3    H234307   6.707   3.563   7.576 -1.3930  0.1110  2.3593
 4250TIP3   OH234308   3.708   3.554   0.286  0.4583 -0.3692  0.1358
 4250TIP3    H134309   3.762   3.626   0.317  1.3348 -0.4632 -1.1239
 4250TIP3    H234310   3.759   3.513   0.216 -0.8120 -1.0796 -0.4160
 4251TIP3   OH234311   6.123   5.265   1.612 -0.2019  0.0806 -0.4604
 4251TIP3    H134312   6.031   5.238   1.612  0.0915 -0.9726 -0.0186
 4251TIP3    H234313   6.122   5.354   1.578 -1.6860  1.1722  2.1601
 4252TIP3   OH234314   4.695   5.212   6.601  0.5616 -0.3186 -0.8412
 4252TIP3    H134315   4.668   5.272   6.531  0.2692 -0.5279 -0.9107
 4252TIP3    H234316   4.789   5.225   6.609  0.2494  1.5505  0.4593
 4253TIP3   OH234317   3.587   1.665   2.235 -0.5606  0.1325  0.4145
 4253TIP3    H134318   3.499   1.687   2.267 -0.1363  0.0640  1.6902
 4253TIP3    H234319   3.613   1.589   2.287 -0.8891 -1.7615 -2.0103
 4254TIP3   OH234320   4.326   1.345   8.040  0.4672 -0.5180 -0.6159
 4254TIP3    H134321   4.407   1.310   8.076  1.1963  0.0017 -1.7039
 4254TIP3    H234322   4.303   1.417   8.098  0.3546 -1.1460  0.1357
 4255TIP3   OH234323   5.734   4.521   0.451 -0.0617  0.1236  0.1457
 4255TIP3    H134324   5.661   4.583   0.439 -1.1000 -0.8218  1.3250
 4255TIP3    H234325   5.754   4.492   0.362  1.6778  3.4002 -0.7144
 4256TIP3   OH234326   2.647   0.669   0.621 -0.1923  0.1467 -0.4936
 4256TIP3    H134327   2.708   0.735   0.588  1.4174 -0.7586  0.5654
 4256TIP3    H234328   2.695   0.587   0.617 -2.0409 -0.9508 -1.4471
 4257TIP3   OH234329   6.017   4.170   2.072  0.5046 -1.0066 -0.0940
 4257TIP3    H134330   5.972   4.228   2.133 -0.1711 -2.2181  0.6129
 4257TIP3    H234331   5.953   4.154   2.002  0.8543 -0.5382 -0.5212
 4258TIP3   OH234332   1.775   2.027   7.267  0.0218  0.4124 -0.4154
 4258TIP3    H134333   1.682   2.024   7.289 -0.5234  2.4668 -2.0264
 4258TIP3    H234334   1.777   2.017   7.172  1.5657 -0.5452 -0.3139
 4259TIP3   OH234335   6.603   6.193   0.246  0.1300  0.4312  0.3039
 4259TIP3    H134336   6.636   6.255   0.312  0.8760 -0.3361  0.6778
 4259TIP3    H234337   6.613   6.238   0.163  1.9639  0.3230  0.4298
 4260TIP3   OH234338   1.118   0.365   7.156 -0.3566  0.1672 -0.8789
 4260TIP3    H134339   1.171   0.286   7.169  2.1507  2.0012  1.2439
 4260TIP3    H234340   1.059   0.366   7.231 -0.0744  0.5310 -0.6621
 4261TIP3   OH234341   2.003   1.049   0.414  0.3167  0.1859 -0.5590
 4261TIP3    H134342   2.013   1.135   0.455  0.2892 -1.1670  2.5070
 4261TIP3    H234343   2.092   1.021   0.395  0.8749 -1.1257  3.1885
 4262TIP3   OH234344   0.866   0.266   7.666  0.3081 -0.1334  0.1227
 4262TIP3    H134345   0.940   0.207   7.649  1.0795  1.3995 -2.5956
 4262TIP3    H234346   0.789   0.216   7.642  0.7834 -0.6630 -0.3358
 4263TIP3   OH234347   0.804   6.628   0.843  0.0579 -0.2524  0.3296
 4263TIP3    H134348   0.851   6.582   0.773 -0.7187  1.5045 -1.4522
 4263TIP3    H234349   0.873   6.654   0.904  0.5842 -3.2361  1.1961
 4264TIP3   OH234350   1.523   3.636   1.364 -0.2611  0.3609 -0.0352
 4264TIP3    H134351   1.549   3.714   1.412 -1.3726  0.4754  0.3899
 4264TIP3    H234352   1.506   3.667   1.275 -1.5086  0.7810  0.3269
 4265TIP3   OH234353   2.915   2.646   8.196  0.7953 -0.0881 -0.0319
 4265TIP3    H134354   2.845   2.623   8.257  0.2213  0.1432 -0.5985
 4265TIP3    H234355   2.901   2.590   8.120  1.5477 -0.4204  0.0690
 4266TIP3   OH234356   1.147   3.155   7.843  0.2809 -0.3628  0.0701
 4266TIP3    H134357   1.136   3.134   7.750 -0.1382 -2.3292  0.5113
 4266TIP3    H234358   1.230   3.115   7.867 -0.4108 -1.3662  0.8986
 4267TIP3   OH234359   0.370   2.918   1.321  0.0024  0.0212 -0.0923
 4267TIP3    H134360   0.417   2.956   1.247  1.1665 -1.8191 -0.3872
 4267TIP3    H234361   0.353   2.827   1.294 -1.0673 -0.2058  1.2375
 4268TIP3   OH234362   2.170   2.397   6.371 -0.0634 -0.2271  0.2799
 4268TIP3    H134363   2.225   2.421   6.446  0.7760 -0.6182 -0.1914
 4268TIP3    H234364   2.126   2.317   6.398 -0.5167  0.1629  0.7139
 4269TIP3   OH234365   1.121   3.101   6.201 -0.6484  0.0909 -0.4857
 4269TIP3    H134366   1.111   3.014   6.241  1.3937  0.4556  0.9246
 4269TIP3    H234367   1.186   3.088   6.132  1.2784  0.8508  1.1120
 4270TIP3   OH234368   5.501   0.533   6.213  0.4175  0.1056  0.1683
 4270TIP3    H134369   5.550   0.475   6.154 -1.0695 -0.5846 -0.4481
 4270TIP3    H234370   5.409   0.516   6.191 -0.0937  1.5474  1.0961
 4271TIP3   OH234371   6.230   0.890   0.538 -0.0989  0.5260 -0.2644
 4271TIP3    H134372   6.279   0.828   0.484 -0.2025  0.8665 -0.7610
 4271TIP3    H234373   6.248   0.863   0.628  1.3678  0.8961 -0.4087
 4272TIP3   OH234374   6.739   3.059   0.892 -0.6811 -0.1116  0.2424
 4272TIP3    H134375   6.729   3.150   0.865  0.0380  0.0663  0.5574
 4272TIP3    H234376   6.775   3.015   0.815 -1.3243 -0.2059 -0.0150
 4273TIP3   OH234377   5.503   1.353   0.652 -0.1923  0.1913 -0.2287
 4273TIP3    H134378   5.442   1.395   0.713 -0.6292 -2.1962  1.0669
 4273TIP3    H234379   5.461   1.270   0.628  1.0878 -0.0329 -1.9168
 4274TIP3   OH234380   2.637   2.766   0.236  0.4749  0.0308  0.0111
 4274TIP3    H134381   2.714   2.751   0.182 -0.3246  0.6585 -1.3463
 4274TIP3    H234382   2.617   2.680   0.274  1.7583 -0.1562  0.2895
 4275TIP3   OH234383   2.417   0.658   7.235  0.4051  0.5126  0.2122
 4275TIP3    H134384   2.337   0.660   7.184  0.7970  2.6157 -0.3943
 4275TIP3    H234385   2.468   0.586   7.196  0.1251  1.1871 -1.4876
 4276TIP3   OH234386   5.697   2.078   6.359 -0.4739 -0.3295  0.6840
 4276TIP3    H134387   5.775   2.030   6.332 -0.3123 -0.2930  1.0720
 4276TIP3    H234388   5.715   2.103   6.450 -0.1103  1.3683  0.1814
 4277TIP3   OH234389   1.458   4.946   7.105 -0.1837  0.0381  0.5609
 4277TIP3    H134390   1.445   4.853   7.120  0.1553  0.0880  1.2258
 4277TIP3    H234391   1.542   4.965   7.147  1.1276  0.0937 -1.9123
 4278TIP3   OH234392   2.985   0.858   7.398 -0.4445 -0.4398 -0.1783
 4278TIP3    H134393   3.030   0.831   7.478  0.1465  2.7694  0.7337
 4278TIP3    H234394   2.892   0.860   7.422 -0.2187  1.0758  0.6844
 4279TIP3   OH234395   5.258   4.077   7.931 -0.2063  0.6009  0.0815
 4279TIP3    H134396   5.170   4.097   7.901 -0.3004 -0.3749 -0.3311
 4279TIP3    H234397   5.261   3.982   7.937  0.8330  0.6100  0.0262
 4280TIP3   OH234398   0.299   5.673   8.034  0.8734 -0.0794 -0.3542
 4280TIP3    H134399   0.385   5.648   7.999  0.5231  0.1024 -1.3975
 4280TIP3    H234400   0.261   5.590   8.065  1.0331 -0.3275 -0.8062
 4281TIP3   OH234401   4.684   2.870   0.069  0.3560  0.0718  0.0782
 4281TIP3    H134402   4.645   2.869   0.157 -1.2386  1.9291 -0.5302
 4281TIP3    H234403   4.724   2.957   0.062 -0.2276  0.2501 -1.3071
 4282TIP3   OH234404   5.331   2.263   1.676 -0.1320  0.0296 -0.0594
 4282TIP3    H134405   5.381   2.317   1.737  1.1568 -1.4629  0.2656
 4282TIP3    H234406   5.273   2.211   1.731  0.4413 -0.7201 -0.1373
 4283TIP3   OH234407   1.597   4.157   6.992  0.2300  0.3093  0.8984
 4283TIP3    H134408   1.597   4.209   6.911 -1.7500 -2.6606 -1.2127
 4283TIP3    H234409   1.536   4.203   7.050 -1.6139  0.3386 -0.9568
 4284TIP3   OH234410   0.580   5.453   1.747  0.2531 -0.4849 -0.6329
 4284TIP3    H134411   0.589   5.358   1.734 -0.3550 -0.7572  0.7378
 4284TIP3    H234412   0.650   5.476   1.808  0.1206 -0.1236 -0.6155
 4285TIP3   OH234413   1.401   5.848   0.601 -0.0570 -0.2465  0.2458
 4285TIP3    H134414   1.335   5.820   0.538 -0.4240  0.7265  0.1819
 4285TIP3    H234415   1.362   5.829   0.687 -1.0189  1.5121  0.2516
 4286TIP3   OH234416   3.067   4.786   1.808 -0.2035  0.6337 -0.2004
 4286TIP3    H134417   3.007   4.786   1.733 -0.7086  2.0090  0.1835
 4286TIP3    H234418   3.048   4.867   1.854  0.7730  0.2622  0.8982
 4287TIP3   OH234419   1.666   5.762   7.758 -0.4009  0.3723 -0.1978
 4287TIP3    H134420   1.667   5.741   7.665  0.5617 -2.9034  0.4154
 4287TIP3    H234421   1.740   5.820   7.771  1.1429 -1.2764 -1.1384
 4288TIP3   OH234422   2.818   2.354   6.941  0.5934 -0.1058  0.2493
 4288TIP3    H134423   2.732   2.314   6.925  0.1236  0.3238  1.5268
 4288TIP3    H234424   2.800   2.448   6.945  1.0796 -0.0274  0.7378
 4289TIP3   OH234425   4.611   6.558   0.137 -0.2009 -0.7156 -0.1701
 4289TIP3    H134426   4.595   6.625   0.070  1.9753 -0.1024 -0.1561
 4289TIP3    H234427   4.564   6.481   0.105 -1.2598  0.2798 -1.1104
 4290TIP3   OH234428   1.549   4.908   0.087  0.3812 -0.6505  0.6346
 4290TIP3    H134429   1.511   4.924   0.174 -0.9081 -0.0121 -0.0328
 4290TIP3    H234430   1.580   4.994   0.059 -0.1087 -0.6693  0.0369
 4291TIP3   OH234431   0.426   5.141   0.982  0.4850 -0.0342  0.0044
 4291TIP3    H134432   0.463   5.119   0.896 -1.4380  0.3982 -0.9832
 4291TIP3    H234433   0.467   5.224   1.005  1.6662 -0.5803 -0.0617
 4292TIP3   OH234434   0.198   6.519   5.916  0.2105 -0.6870  0.2680
 4292TIP3    H134435   0.275   6.564   5.880 -0.0656 -0.8157 -0.5129
 4292TIP3    H234436   0.232   6.436   5.949  0.5370 -0.3945  0.6835
 4293TIP3   OH234437   2.594   3.934   7.555 -0.3534 -0.1076 -0.7423
 4293TIP3    H134438   2.633   3.936   7.642  0.6751 -1.0831 -1.1620
 4293TIP3    H234439   2.634   4.008   7.508 -0.5711  0.1450 -0.5300
 4294TIP3   OH234440   0.754   0.892   8.210 -0.2889  0.3538 -0.7323
 4294TIP3    H134441   0.798   0.904   8.125 -0.0679 -2.9620 -1.2306
 4294TIP3    H234442   0.823   0.859   8.268 -1.6705 -4.0228 -1.2718
 4295TIP3   OH234443   6.149   3.749   2.221  0.2436 -0.4563  0.3951
 4295TIP3    H134444   6.188   3.689   2.158 -0.0456 -1.3824  1.0817
 4295TIP3    H234445   6.153   3.703   2.304  2.1667  1.4008  1.4330
 4296TIP3   OH234446   0.567   0.473   8.168 -0.2022 -0.8993  0.6607
 4296TIP3    H134447   0.591   0.381   8.157 -0.3872 -0.8374 -0.3166
 4296TIP3    H234448   0.635   0.522   8.122  0.4298 -0.4798  1.9820
 4297TIP3   OH234449   2.828   3.467   8.607 -0.7733 -0.4137 -0.4596
 4297TIP3    H134450   2.824   3.490   8.700 -2.1321 -1.3186 -0.2665
 4297TIP3    H234451   2.846   3.550   8.563  0.1941 -0.0199  0.6172
 4298TIP3   OH234452   2.027   2.282   7.452  0.4855  0.1656  0.5727
 4298TIP3    H134453   2.008   2.293   7.359  1.4495  1.1968  0.4823
 4298TIP3    H234454   2.081   2.203   7.456  1.2890  0.6722  0.1154
 4299TIP3   OH234455   0.211   0.174   7.751 -0.2962  0.3527 -0.0956
 4299TIP3    H134456   0.123   0.185   7.713 -0.5830 -0.9084  0.1499
 4299TIP3    H234457   0.231   0.082   7.737 -0.2132 -0.0659  2.3557
 4300TIP3   OH234458   5.307   0.616   7.624 -0.2603 -0.4595  0.2693
 4300TIP3    H134459   5.314   0.637   7.531 -0.8907 -1.9498 -0.1452
 4300TIP3    H234460   5.395   0.632   7.659  0.1926 -0.6299 -0.7516
 4301TIP3   OH234461   1.386   3.032   7.902 -0.2081  0.2014 -0.0734
 4301TIP3    H134462   1.407   2.955   7.849 -0.8682  0.1246 -0.2342
 4301TIP3    H234463   1.470   3.060   7.939  0.1876 -0.0097 -0.8027
 4302TIP3   OH234464   5.414   4.932   1.554 -0.2661  0.3677  0.8291
 4302TIP3    H134465   5.497   4.885   1.550  0.6061  1.7621  1.5883
 4302TIP3    H234466   5.378   4.912   1.640 -0.0193  0.8537  1.0516
 4303TIP3   OH234467   6.799   2.410   0.526 -0.1557 -0.0289  0.0542
 4303TIP3    H134468   6.773   2.502   0.524  1.2937  0.4020  0.0035
 4303TIP3    H234469   6.774   2.376   0.440 -0.7909  0.2844  0.1135
 4304TIP3   OH234470   0.306   4.477   1.892 -0.1331 -0.5500  0.1394
 4304TIP3    H134471   0.393   4.499   1.924  0.2229  0.2470 -1.3037
 4304TIP3    H234472   0.261   4.562   1.884 -1.0691 -0.9505  0.9118
 4305TIP3   OH234473   0.277   5.016   6.795 -0.7348 -0.1812 -0.2227
 4305TIP3    H134474   0.223   5.087   6.760  0.8816  0.9109 -0.6166
 4305TIP3    H234475   0.300   4.963   6.718 -0.9771 -0.4489 -0.1102
 4306TIP3   OH234476   0.007   4.979   7.667 -0.8678  0.2702 -1.0616
 4306TIP3    H134477  -0.033   4.940   7.745  1.1565 -3.0283 -1.4772
 4306TIP3    H234478   0.065   5.047   7.701 -2.1030  0.8645 -0.0136
 4307TIP3   OH234479   2.353   5.499   2.305 -0.0888 -0.5193 -0.5112
 4307TIP3    H134480   2.297   5.481   2.229 -1.2905  1.7412 -0.2906
 4307TIP3    H234481   2.361   5.595   2.305  0.6699 -0.5410  1.6642
 4308TIP3   OH234482   2.598   3.655   1.158  0.2403  0.1024 -0.5744
 4308TIP3    H134483   2.508   3.639   1.130  0.4951 -0.0260 -1.3522
 4308TIP3    H234484   2.643   3.681   1.078  1.1098 -0.7498 -0.3835
 4309TIP3   OH234485   1.665   3.686   6.829  0.0190 -0.3244  0.5897
 4309TIP3    H134486   1.647   3.619   6.895 -0.3246 -2.3306 -1.4415
 4309TIP3    H234487   1.719   3.643   6.763 -0.1257  1.4246 -0.7661
 4310TIP3   OH234488   5.608   2.143   6.914 -0.4282  0.1057 -0.2917
 4310TIP3    H134489   5.539   2.165   6.852  0.1230  1.1465 -0.5460
 4310TIP3    H234490   5.688   2.141   6.862  0.2342  2.1870  0.5624
 4311TIP3   OH234491   0.722   5.743   0.324  0.7773  0.2078  0.7762
 4311TIP3    H134492   0.756   5.822   0.367 -0.6284  1.4423 -0.2934
 4311TIP3    H234493   0.631   5.737   0.352  0.8235 -1.0156  0.7537
 4312TIP3   OH234494   1.797   2.102   1.132  0.1282 -0.8289 -0.4345
 4312TIP3    H134495   1.868   2.040   1.148  1.7045  0.7895 -0.8577
 4312TIP3    H234496   1.808   2.127   1.041  1.3782  2.1814  0.4204
 4313TIP3   OH234497   5.918   5.552   1.144 -0.2090 -0.4622  0.2584
 4313TIP3    H134498   5.993   5.532   1.088 -0.5920  3.2358 -1.8855
 4313TIP3    H234499   5.852   5.488   1.118 -0.5952  1.3802 -4.2694
 4314TIP3   OH234500   1.262   2.658   8.104 -0.3115 -0.0108 -0.0790
 4314TIP3    H134501   1.191   2.641   8.166 -0.8840 -0.2289 -0.7813
 4314TIP3    H234502   1.227   2.724   8.044 -0.0026 -0.2720 -0.5581
 4315TIP3   OH234503   6.445   4.037   1.901  0.2438  0.1366 -0.5362
 4315TIP3    H134504   6.443   3.942   1.914  0.8888  0.2333  0.3660
 4315TIP3    H234505   6.511   4.068   1.963  0.9588  1.0457 -1.7133
 4316TIP3   OH234506   2.274   4.315   7.096  0.6205  0.2228  0.0963
 4316TIP3    H134507   2.361   4.274   7.092  0.2403 -0.6954  0.8519
 4316TIP3    H234508   2.213   4.244   7.075 -0.0056  0.5687  0.7012
 4317TIP3   OH234509   6.485   0.004   1.516 -0.1169 -0.5277 -0.2010
 4317TIP3    H134510   6.506   0.096   1.497 -0.4826 -0.3587  0.1922
 4317TIP3    H234511   6.445  -0.028   1.435 -0.9502 -0.0319 -0.0101
 4318TIP3   OH234512   6.534   5.719   0.812  0.1174  0.1437 -0.0491
 4318TIP3    H134513   6.575   5.647   0.764 -2.9059  0.0968 -2.9138
 4318TIP3    H234514   6.564   5.798   0.767  1.5676  0.6023  1.6058
 4319TIP3   OH234515   3.770   2.755   1.314  0.1679  0.0490 -0.4024
 4319TIP3    H134516   3.751   2.714   1.399 -0.8991 -0.5373 -0.9000
 4319TIP3    H234517   3.844   2.704   1.280 -0.8269 -1.1993 -0.7920
 4320TIP3   OH234518   3.243   4.748   8.246  0.0767 -0.3019  0.3396
 4320TIP3    H134519   3.329   4.755   8.286 -0.2642  2.4332  0.7732
 4320TIP3    H234520   3.183   4.786   8.310 -0.9825  0.8458 -1.2616
 4321TIP3   OH234521   0.429   0.959   0.591 -0.1602  0.4838  0.3376
 4321TIP3    H134522   0.370   1.032   0.609  0.0172  0.6554  0.2205
 4321TIP3    H234523   0.425   0.948   0.496  0.2485  0.7104  0.2918
 4322TIP3   OH234524   3.264   5.860   8.321  0.1869  0.2444  0.1224
 4322TIP3    H134525   3.334   5.908   8.277 -0.5053  0.8114 -0.3688
 4322TIP3    H234526   3.221   5.811   8.251  0.3235 -0.4045  0.4838
 4323TIP3   OH234527   6.723   1.184   2.488 -0.1222  0.1561  0.3585
 4323TIP3    H134528   6.727   1.093   2.459  1.3052  0.1296  0.5457
 4323TIP3    H234529   6.637   1.215   2.460 -0.4220 -1.0955 -0.1582
 4324TIP3   OH234530   3.842   5.104   8.459 -0.8266 -0.1313 -0.0023
 4324TIP3    H134531   3.830   5.021   8.503 -3.1201  0.5111  0.7400
 4324TIP3    H234532   3.795   5.094   8.376 -2.7561  0.9332  0.8821
 4325TIP3   OH234533   5.627   1.187   7.308 -0.0623 -0.5764 -0.4695
 4325TIP3    H134534   5.664   1.275   7.300  0.0347 -0.4980  0.6308
 4325TIP3    H234535   5.533   1.202   7.315  0.1126 -0.2842  2.5396
 4326TIP3   OH234536   4.682   4.521   1.190 -0.6796 -0.1222 -0.5493
 4326TIP3    H134537   4.617   4.588   1.168 -0.6335 -0.4732 -1.8078
 4326TIP3    H234538   4.690   4.468   1.111  0.9678 -0.2180 -0.3590
 4327TIP3   OH234539   2.340   1.767   1.836  0.1518  0.0294 -0.5056
 4327TIP3    H134540   2.280   1.826   1.881 -0.8411  1.1403 -3.0735
 4327TIP3    H234541   2.421   1.817   1.827 -0.4580  0.8044 -2.0481
 4328TIP3   OH234542   5.945   6.512   1.381 -0.5170 -0.6496 -0.5861
 4328TIP3    H134543   5.869   6.554   1.339  1.0167  1.4095 -1.4964
 4328TIP3    H234544   5.910   6.476   1.462 -2.3985  0.6615 -0.7362
 4329TIP3   OH234545   5.533   6.141   6.802 -0.0936  0.1925 -0.2330
 4329TIP3    H134546   5.489   6.197   6.738  0.9708 -1.8017 -2.9034
 4329TIP3    H234547   5.518   6.052   6.770  0.9013 -0.8872  2.0905
 4330TIP3   OH234548   1.794   1.171   1.287 -0.2975  0.3646 -0.4014
 4330TIP3    H134549   1.870   1.193   1.339 -0.1327 -0.5507 -0.2435
 4330TIP3    H234550   1.781   1.077   1.300 -1.1583  0.4081 -0.8092
 4331TIP3   OH234551   4.348   0.560   6.716  0.1853  0.2102 -0.3670
 4331TIP3    H134552   4.414   0.630   6.712 -0.3909  0.7380 -0.8646
 4331TIP3    H234553   4.389   0.486   6.672  0.1823  0.7668 -1.3198
 4332TIP3   OH234554   5.813   6.632   0.752  0.9640 -0.4620 -0.1313
 4332TIP3    H134555   5.731   6.587   0.731  1.0562 -0.3270 -0.8048
 4332TIP3    H234556   5.857   6.574   0.814  0.6014 -0.7840 -0.1722
 4333TIP3   OH234557   6.066   6.069   7.466  0.0600 -0.3789 -0.0594
 4333TIP3    H134558   6.130   6.137   7.488 -0.8601  0.6738 -0.5178
 4333TIP3    H234559   6.061   6.070   7.371 -0.0230 -1.0553 -0.0703
 4334TIP3   OH234560   5.977   2.442   8.482  0.0542  0.5832 -0.0554
 4334TIP3    H134561   6.062   2.426   8.523 -0.4879 -0.5783  0.6915
 4334TIP3    H234562   5.922   2.369   8.512 -0.7037  0.3049 -1.9658
 4335TIP3   OH234563   2.435   3.239   7.687 -0.0451  0.1319  0.7574
 4335TIP3    H134564   2.461   3.246   7.779  1.0740  1.4031  0.3850
 4335TIP3    H234565   2.343   3.214   7.689  0.2639 -0.9836  2.1992
 4336TIP3   OH234566   1.072   5.304   8.375 -0.4097  0.0734  1.2194
 4336TIP3    H134567   1.043   5.388   8.340  2.7851  0.6716 -0.3824
 4336TIP3    H234568   1.053   5.241   8.305  0.4743  0.1730  0.8714
 4337TIP3   OH234569   0.221   4.192   7.407 -0.0603 -0.2169  0.4584
 4337TIP3    H134570   0.194   4.106   7.376  1.4764 -1.2059  1.6430
 4337TIP3    H234571   0.281   4.225   7.340 -1.6300  0.5403 -0.6137
 4338TIP3   OH234572   2.949   5.573   1.090  0.2253  0.0573 -0.4153
 4338TIP3    H134573   2.916   5.649   1.043 -2.3874 -1.5393 -1.3885
 4338TIP3    H234574   2.870   5.527   1.121  1.7229 -1.5215  1.3642
 4339TIP3   OH234575   3.720   0.671   6.906  0.1691 -0.1391 -0.9916
 4339TIP3    H134576   3.815   0.664   6.902  0.2950  0.5963  0.4404
 4339TIP3    H234577   3.698   0.663   6.998 -1.0680  0.8254 -1.1688
 4340TIP3   OH234578   1.245   4.981   0.748 -0.0357 -0.1263 -0.0529
 4340TIP3    H134579   1.300   4.938   0.683 -0.8256 -1.0558 -0.1125
 4340TIP3    H234580   1.180   5.029   0.697 -0.0001  0.0193  0.0376
 4341TIP3   OH234581   6.309   3.294   0.857  0.7332 -0.2221  0.8854
 4341TIP3    H134582   6.268   3.299   0.943 -0.5561  0.8079  0.2551
 4341TIP3    H234583   6.369   3.220   0.863 -2.5976 -3.1927  1.3562
 4342TIP3   OH234584   3.035   6.250   1.865 -0.7579  0.2755 -0.0047
 4342TIP3    H134585   3.004   6.216   1.949  0.3388  1.3010  0.8416
 4342TIP3    H234586   3.041   6.345   1.877  0.2272  0.3587 -0.9555
 4343TIP3   OH234587   6.871   2.103   7.920 -0.5880  0.2612 -0.2775
 4343TIP3    H134588   6.952   2.101   7.870  0.0983  1.7046  0.7143
 4343TIP3    H234589   6.823   2.025   7.892  0.0084  0.6924 -2.7372
 4344TIP3   OH234590   4.641   2.784   7.631  0.3025  0.4087  0.2559
 4344TIP3    H134591   4.595   2.868   7.635  0.5644  0.5111  1.7188
 4344TIP3    H234592   4.700   2.785   7.706 -0.2388 -1.4029  0.7674
 4345TIP3   OH234593   2.481   4.181   0.067  0.0064  0.5190  0.6963
 4345TIP3    H134594   2.407   4.135   0.105  1.0301 -1.3837  0.5461
 4345TIP3    H234595   2.555   4.160   0.124  0.7113  1.1878  0.0688
 4346TIP3   OH234596   0.657   5.793   7.026  0.4887  0.4880 -0.5179
 4346TIP3    H134597   0.703   5.798   7.110  1.7552 -0.8415 -1.0919
 4346TIP3    H234598   0.564   5.794   7.049  0.7888  1.6549  0.7827
 4347TIP3   OH234599   6.046   6.266   0.675 -0.5693  0.2225 -0.3445
 4347TIP3    H134600   5.960   6.260   0.715  0.1792 -0.3404  1.2811
 4347TIP3    H234601   6.051   6.356   0.643 -1.2214  0.7333  0.8962
 4348TIP3   OH234602   2.735   4.646   1.940 -0.5032 -0.5619  0.3122
 4348TIP3    H134603   2.687   4.689   2.011  1.3174 -0.4825  1.5562
 4348TIP3    H234604   2.802   4.594   1.984 -0.1589 -1.5811 -1.3221
 4349TIP3   OH234605   1.653   0.182   2.042  0.0172 -0.0368 -0.0427
 4349TIP3    H134606   1.658   0.201   2.135  2.0615  0.0752 -0.1172
 4349TIP3    H234607   1.719   0.240   2.002 -0.9851  0.1083 -1.5915
 4350TIP3   OH234608   4.473   4.064   8.004 -0.2464  0.2730 -0.4602
 4350TIP3    H134609   4.406   4.091   8.068 -0.8451 -0.0472 -0.9435
 4350TIP3    H234610   4.556   4.074   8.051 -0.4468  2.6028 -0.4727
 4351TIP3   OH234611   2.094   1.503   0.973  0.8382  0.0499 -0.3681
 4351TIP3    H134612   2.029   1.466   1.032  1.5949  0.0468  0.4948
 4351TIP3    H234613   2.079   1.597   0.977  1.2675  0.1006  0.3237
 4352TIP3   OH234614   1.089   0.121   7.601  0.3038 -0.6912  0.4693
 4352TIP3    H134615   1.171   0.112   7.650  0.4809  0.1285  0.3391
 4352TIP3    H234616   1.056   0.032   7.592  1.0337 -0.9960  0.7795
 4353TIP3   OH234617   6.332   0.053   2.104  1.2064  0.2240 -0.2585
 4353TIP3    H134618   6.410  -0.001   2.088  0.9978 -0.2535  0.2723
 4353TIP3    H234619   6.356   0.108   2.178  0.9608 -0.1103  0.0782
 4354TIP3   OH234620   3.530   4.118   6.426  0.3108 -0.2331  0.3445
 4354TIP3    H134621   3.582   4.171   6.365  0.8274 -0.5410  0.5090
 4354TIP3    H234622   3.580   4.036   6.435 -0.9978 -1.2064 -0.7450
 4355TIP3   OH234623   1.882   2.428   0.266  0.0030  0.0152  0.1642
 4355TIP3    H134624   1.789   2.450   0.255 -1.2772 -3.9230  1.4532
 4355TIP3    H234625   1.905   2.466   0.351 -0.2474  1.3369 -0.3281
 4356TIP3   OH234626   2.116   5.476   2.175  0.0913 -0.5450 -0.0903
 4356TIP3    H134627   2.056   5.434   2.113  1.6061 -2.7820 -0.1468
 4356TIP3    H234628   2.173   5.531   2.120  0.9845 -1.9842 -0.6519
 4357TIP3   OH234629   1.241   5.744   0.417  0.3452  0.0996  0.1830
 4357TIP3    H134630   1.269   5.680   0.352 -2.7709 -1.7752  0.5110
 4357TIP3    H234631   1.147   5.756   0.402 -0.0669  1.2577  2.9451
 4358TIP3   OH234632   5.798   4.144   0.061 -0.0576 -0.4531 -0.0045
 4358TIP3    H134633   5.793   4.216  -0.001 -0.5367  1.0215  1.6802
 4358TIP3    H234634   5.707   4.117   0.075 -0.0201 -0.3019  0.5682
 4359TIP3   OH234635   6.858   1.702   0.551  0.0814 -0.1163 -0.2104
 4359TIP3    H134636   6.863   1.790   0.513 -0.5537 -0.0664 -0.1941
 4359TIP3    H234637   6.934   1.696   0.608 -0.2238  0.6763  0.2970
 4360TIP3   OH234638   3.692   0.109   7.665  0.0274  0.1117  0.0288
 4360TIP3    H134639   3.663   0.045   7.730  1.6535  2.1176  2.9880
 4360TIP3    H234640   3.612   0.149   7.632 -0.8519 -0.8553  0.9408
 4361TIP3   OH234641   3.004   4.893   8.022 -0.5391 -0.2764 -0.2806
 4361TIP3    H134642   3.071   4.924   7.962 -2.0240 -0.6091 -2.2052
 4361TIP3    H234643   3.008   4.798   8.016  0.3862 -0.3959  1.4728
 4362TIP3   OH234644   1.928   4.098   0.472  0.3606 -0.1513 -0.0759
 4362TIP3    H134645   1.951   4.096   0.379  0.6186  1.1604 -0.0645
 4362TIP3    H234646   1.881   4.180   0.483 -1.2330 -1.1144  0.6290
 4363TIP3   OH234647   2.836   6.042   0.824 -0.4303 -0.4065  0.0110
 4363TIP3    H134648   2.870   5.952   0.829  0.3294 -0.0965  0.4003
 4363TIP3    H234649   2.792   6.045   0.739 -0.4794 -1.1552 -0.0006
 4364TIP3   OH234650   1.402   5.370   7.806  0.1113 -0.4146 -0.4634
 4364TIP3    H134651   1.375   5.461   7.795 -0.9867 -0.6387  0.2535
 4364TIP3    H234652   1.493   5.368   7.775  0.6897  1.2491  0.9818
 4365TIP3   OH234653   6.816   6.820   1.460 -0.3247 -0.0191  0.0429
 4365TIP3    H134654   6.777   6.750   1.407  2.5537 -0.8413 -1.1985
 4365TIP3    H234655   6.770   6.899   1.432 -0.2604 -0.7282 -2.3113
 4366TIP3   OH234656   3.892   6.502   7.325 -0.0533  0.1931  0.5040
 4366TIP3    H134657   3.944   6.577   7.354 -1.5730  1.3619  0.2679
 4366TIP3    H234658   3.818   6.539   7.278 -1.3481 -1.4128  1.1618
 4367TIP3   OH234659   0.683   4.572   0.698 -0.0927  0.2452 -0.1446
 4367TIP3    H134660   0.629   4.612   0.630 -0.2167  1.4376  0.6124
 4367TIP3    H234661   0.765   4.549   0.655 -1.1495 -1.5346 -1.3039
 4368TIP3   OH234662   1.081   2.564   1.434 -0.0617  0.5995  0.3294
 4368TIP3    H134663   0.999   2.546   1.480 -0.2411 -0.8813 -0.4939
 4368TIP3    H234664   1.056   2.569   1.342  0.8668 -0.7695 -0.0327
 4369TIP3   OH234665   4.825   0.099   0.150 -0.0170 -0.5083 -0.8041
 4369TIP3    H134666   4.918   0.101   0.170 -0.2223 -0.4188  0.2007
 4369TIP3    H234667   4.820   0.065   0.060  0.9577 -0.8461 -0.7392
 4370TIP3   OH234668   3.440   0.702   0.340 -0.4186 -0.2210 -0.0907
 4370TIP3    H134669   3.397   0.767   0.285 -1.2333 -0.2370  0.5083
 4370TIP3    H234670   3.370   0.642   0.366  0.1286 -0.7505  0.1944
 4371TIP3   OH234671   1.985   6.035   7.925  0.6993 -0.2999 -0.0335
 4371TIP3    H134672   1.984   5.956   7.979 -0.2127 -0.0090  0.3951
 4371TIP3    H234673   1.969   6.106   7.986 -1.9915 -0.0949 -0.8518
 4372TIP3   OH234674   2.863   4.984   7.409  0.1094 -0.4222  0.5789
 4372TIP3    H134675   2.947   5.028   7.400 -0.7721  1.8506  2.2911
 4372TIP3    H234676   2.838   4.960   7.320  1.4247  1.1420 -0.2664
 4373TIP3   OH234677   2.381   1.474   8.510 -0.2211  0.0581  0.3948
 4373TIP3    H134678   2.445   1.429   8.564 -0.0448  0.5757  0.6250
 4373TIP3    H234679   2.313   1.408   8.493  0.4972 -0.5708 -0.0775
 4374TIP3   OH234680   1.733   0.910   7.038  0.4578  0.3744 -0.2229
 4374TIP3    H134681   1.737   1.002   7.011  1.7272  0.8944  1.5029
 4374TIP3    H234682   1.760   0.861   6.961  1.6179  1.5962 -0.6357
 4375TIP3   OH234683   1.848   6.687   1.228 -0.0410 -0.1954  0.5627
 4375TIP3    H134684   1.850   6.707   1.135  1.9860  0.2261  0.6548
 4375TIP3    H234685   1.829   6.770   1.270 -0.2396 -0.2408  0.5639
 4376TIP3   OH234686   3.908   4.314   0.227 -0.1739  0.2464 -0.0123
 4376TIP3    H134687   3.981   4.278   0.176  0.2838 -0.3947  1.0586
 4376TIP3    H234688   3.941   4.398   0.258  0.1552 -0.0770  0.5356
 4377TIP3   OH234689   3.496   1.875   8.293  0.1636 -0.1177 -0.1735
 4377TIP3    H134690   3.440   1.858   8.369  1.4013  1.5253  1.1854
 4377TIP3    H234691   3.436   1.900   8.224 -1.1185 -3.0110 -0.2259
 4378TIP3   OH234692   4.333   3.583   7.480  0.4836  0.7529 -0.0459
 4378TIP3    H134693   4.239   3.562   7.482  0.5822  0.1913 -0.9265
 4378TIP3    H234694   4.374   3.508   7.522  0.5623  0.8671  0.0804
 4379TIP3   OH234695   2.045   1.200   1.166  0.1048 -0.0512  0.2038
 4379TIP3    H134696   1.963   1.216   1.214  1.1326  1.7510  1.4442
 4379TIP3    H234697   2.112   1.195   1.234  1.0344 -1.9204 -0.7599
 4380TIP3   OH234698   2.667   4.399   1.379 -0.2030  0.1378  0.5710
 4380TIP3    H134699   2.596   4.337   1.364  1.0489 -1.2575  0.2916
 4380TIP3    H234700   2.635   4.481   1.341 -2.0821 -0.1787  1.3865
 4381TIP3   OH234701   4.344   2.934   1.271 -0.4232 -0.6941 -0.0188
 4381TIP3    H134702   4.413   2.971   1.326 -0.8506  1.0016 -0.5687
 4381TIP3    H234703   4.343   2.989   1.193 -2.5382 -0.4898  0.0890
 4382TIP3   OH234704   3.961   3.973   7.198  0.2120  0.3787  0.3590
 4382TIP3    H134705   4.020   3.928   7.258 -2.3180 -2.8940  0.7033
 4382TIP3    H234706   3.973   3.927   7.115 -1.3853 -0.0198  0.3126
 4383TIP3   OH234707   0.175   5.148   7.775 -0.6419  0.4066  0.2916
 4383TIP3    H134708   0.145   5.238   7.760  1.3566  1.1156  0.2519
 4383TIP3    H234709   0.264   5.158   7.809 -0.1576 -1.5799 -0.2640
 4384TIP3   OH234710   2.088   0.925   1.471  0.0756  0.0457 -0.3211
 4384TIP3    H134711   2.088   0.831   1.450 -0.3827 -0.1118  0.3347
 4384TIP3    H234712   2.124   0.930   1.559  0.3128  0.5151 -0.4431
 4385TIP3   OH234713   1.643   5.606   6.705  0.0039 -0.5521 -0.6308
 4385TIP3    H134714   1.633   5.629   6.612  0.0405 -0.2161 -0.5517
 4385TIP3    H234715   1.585   5.531   6.718  0.0944 -0.6823 -0.9553
 4386TIP3   OH234716   4.336   4.617   1.920  0.2619 -0.2814  0.4820
 4386TIP3    H134717   4.277   4.567   1.863 -0.6624  0.1581  1.0423
 4386TIP3    H234718   4.418   4.622   1.870 -0.9307  1.2531 -1.4543
 4387TIP3   OH234719   5.424   6.158   8.300  0.0780  0.0359 -0.7371
 4387TIP3    H134720   5.392   6.174   8.212 -0.0801  0.6315 -0.5767
 4387TIP3    H234721   5.519   6.149   8.290  0.1862  1.1471 -0.8417
 4388TIP3   OH234722   4.927   4.167   6.430 -0.0129  0.1254  0.5910
 4388TIP3    H134723   4.886   4.229   6.490 -0.5145 -0.1823  0.5681
 4388TIP3    H234724   4.855   4.132   6.377  0.4187  0.4010 -0.2070
 4389TIP3   OH234725   3.474   1.417   7.329  0.2850  0.9504 -0.2979
 4389TIP3    H134726   3.522   1.500   7.336  0.6105  0.6570  1.6452
 4389TIP3    H234727   3.436   1.405   7.416 -1.1573 -0.1281 -1.0508
 4390TIP3   OH234728   5.777   1.481   7.866 -0.1124 -0.5726  0.1770
 4390TIP3    H134729   5.860   1.528   7.875 -0.6925  0.6459 -0.6320
 4390TIP3    H234730   5.770   1.429   7.946  0.8635  0.2052  0.7878
 4391TIP3   OH234731   6.802   6.304   8.388  0.4470 -0.0668  0.4667
 4391TIP3    H134732   6.823   6.340   8.302  0.4280  1.1129  0.9449
 4391TIP3    H234733   6.748   6.370   8.430  1.2380 -0.1969  1.7578
 4392TIP3   OH234734   2.043   5.014   7.447  0.7922 -0.3402 -0.6831
 4392TIP3    H134735   2.063   4.939   7.391 -0.2044 -0.0395 -1.4645
 4392TIP3    H234736   1.949   5.007   7.464  0.9648 -0.0752  0.4558
 4393TIP3   OH234737   5.344   6.760   6.760  0.0428  0.1925 -0.6145
 4393TIP3    H134738   5.295   6.815   6.698  1.2190  0.3112 -1.4544
 4393TIP3    H234739   5.392   6.823   6.814  0.0910  0.0386 -0.4788
 4394TIP3   OH234740   2.883   2.791   0.610 -0.2514  0.1935 -0.2865
 4394TIP3    H134741   2.886   2.697   0.593 -1.4631  0.2774 -1.0914
 4394TIP3    H234742   2.816   2.801   0.679  1.3571  0.2958  1.3351
 4395TIP3   OH234743   3.974   1.361   1.777  0.2005 -0.6620 -0.0699
 4395TIP3    H134744   3.922   1.355   1.857 -1.1267  0.4580 -0.8116
 4395TIP3    H234745   4.029   1.438   1.791  0.3714 -0.7903 -0.0249
 4396TIP3   OH234746   1.713   5.202   5.809 -0.6010  0.0351  0.1855
 4396TIP3    H134747   1.756   5.254   5.742  2.3092 -0.5939  1.3884
 4396TIP3    H234748   1.645   5.153   5.762 -1.5651  2.6966 -1.4406
 4397TIP3   OH234749   0.893   4.736   1.250  0.5678  0.7702 -0.5533
 4397TIP3    H134750   0.905   4.748   1.156  0.6570  0.7167 -0.5488
 4397TIP3    H234751   0.926   4.648   1.267  1.7192  1.2435 -0.2648
 4398TIP3   OH234752   4.710   1.433   0.762  0.7218  0.2260 -0.3254
 4398TIP3    H134753   4.712   1.377   0.685  0.5654 -2.4779  1.5250
 4398TIP3    H234754   4.620   1.464   0.767  0.3554 -0.7882 -0.4489
 4399TIP3   OH234755   1.914   2.750   7.017 -0.6227  0.1298  0.6119
 4399TIP3    H134756   1.821   2.750   7.043 -0.8058 -1.7935  0.1114
 4399TIP3    H234757   1.934   2.843   7.001 -2.4878  0.5776  0.6045
 4400TIP3   OH234758   2.083   1.911   0.475 -0.1790 -0.5116  0.1592
 4400TIP3    H134759   2.088   1.947   0.564 -2.1895 -1.1605  0.5856
 4400TIP3    H234760   2.014   1.963   0.432  0.1611 -0.7779 -0.7313
 4401TIP3   OH234761   1.518   3.846   8.654 -0.2142 -0.1742  0.1157
 4401TIP3    H134762   1.580   3.774   8.661  0.8277  0.2732 -2.7995
 4401TIP3    H234763   1.572   3.924   8.647 -0.9695  0.2251 -2.5856
 4402TIP3   OH234764   4.256   4.843   0.910 -0.1549  0.4478 -0.1920
 4402TIP3    H134765   4.181   4.881   0.956 -0.4231  0.7048 -0.8392
 4402TIP3    H234766   4.307   4.801   0.979 -1.0488  0.0080  0.2183
 4403TIP3   OH234767   1.875   5.260   8.310  0.2450  0.2198 -0.3435
 4403TIP3    H134768   1.960   5.304   8.317 -0.8642  2.5283 -0.6992
 4403TIP3    H234769   1.812   5.331   8.302 -2.0397 -1.2852  2.5502
 4404TIP3   OH234770   6.838   2.724   2.037  0.3967 -0.4310 -0.0931
 4404TIP3    H134771   6.859   2.737   1.944 -0.1672 -0.7407 -0.2680
 4404TIP3    H234772   6.914   2.760   2.083  0.1126  0.9583 -0.6323
 4405TIP3   OH234773   5.264   0.080   6.936  0.8513 -0.4002 -0.5837
 4405TIP3    H134774   5.319   0.077   7.014  0.9450  0.0371 -0.6328
 4405TIP3    H234775   5.177   0.054   6.966  1.1265 -1.3354 -0.5486
 4406TIP3   OH234776   1.046   6.240   0.788  0.8564  0.0760 -0.2229
 4406TIP3    H134777   1.070   6.323   0.828  1.0896  0.3406 -0.9039
 4406TIP3    H234778   1.125   6.212   0.741  0.4665 -0.0322 -0.8285
 4407TIP3   OH234779   2.362   0.711   6.648  0.0144  0.5158  0.0657
 4407TIP3    H134780   2.283   0.697   6.596  0.4215  0.3573 -0.5142
 4407TIP3    H234781   2.434   0.707   6.585  0.4955  0.5745  0.6011
 4408TIP3   OH234782   3.984   0.256   7.096  0.1610  0.0100  0.6927
 4408TIP3    H134783   3.976   0.349   7.119 -3.1885  0.1336 -0.4466
 4408TIP3    H234784   3.976   0.210   7.179  0.6790  0.7136  1.1439
 4409TIP3   OH234785   0.376   4.233   0.028  0.2648  0.1473 -0.2737
 4409TIP3    H134786   0.330   4.237   0.112 -1.1545  2.6802 -1.0474
 4409TIP3    H234787   0.341   4.155  -0.015 -1.2882  0.4925  0.2899
 4410TIP3   OH234788   6.319   0.713   0.345 -0.6071  0.0948 -0.5562
 4410TIP3    H134789   6.290   0.746   0.260 -0.3158  0.4476 -0.5239
 4410TIP3    H234790   6.374   0.638   0.324  0.3224  0.8040 -0.7493
 4411TIP3   OH234791   0.595   2.733   0.251 -0.0881 -0.6513 -0.0984
 4411TIP3    H134792   0.586   2.785   0.171 -0.4017 -1.1720 -0.4015
 4411TIP3    H234793   0.661   2.668   0.230  0.6277 -0.1061  0.4282
 4412TIP3   OH234794   2.677   5.128   7.752  0.0974  0.0906  0.2226
 4412TIP3    H134795   2.706   5.215   7.781 -0.3513  0.6290 -0.8988
 4412TIP3    H234796   2.647   5.085   7.832 -0.5315  1.3092  0.6555
 4413TIP3   OH234797   2.193   1.021   7.801 -0.4715 -0.6204 -0.8257
 4413TIP3    H134798   2.205   0.958   7.872 -3.4137  0.0756  0.4039
 4413TIP3    H234799   2.244   1.098   7.827  0.2440 -1.1609 -0.5963
 4414TIP3   OH234800   6.295   4.621   7.539  0.2255  0.5063  0.0353
 4414TIP3    H134801   6.288   4.657   7.450 -0.3167  0.3531  0.0173
 4414TIP3    H234802   6.376   4.569   7.536  1.7320  2.6955  0.4168
 4415TIP3   OH234803   5.631   3.138   6.539 -0.1395 -0.0142  0.6526
 4415TIP3    H134804   5.578   3.070   6.498 -0.0474  0.0739  0.3855
 4415TIP3    H234805   5.584   3.160   6.619 -1.9957  1.9945 -0.8701
 4416TIP3   OH234806   2.405   0.492   7.730 -0.5781 -0.8747  0.3429
 4416TIP3    H134807   2.394   0.451   7.815 -0.7637 -1.0146  0.2533
 4416TIP3    H234808   2.487   0.456   7.696 -0.7194 -1.1460  0.2822
 4417TIP3   OH234809   4.118   3.468   7.663  0.3919 -0.0736  0.3690
 4417TIP3    H134810   4.050   3.412   7.624  0.2329  0.7261 -0.5292
 4417TIP3    H234811   4.103   3.461   7.757 -0.2863 -0.7148  0.2276
 4418TIP3   OH234812   3.161   4.230   1.482 -0.6754 -0.0358  0.3146
 4418TIP3    H134813   3.089   4.230   1.420  0.6765 -0.1233 -1.3233
 4418TIP3    H234814   3.146   4.307   1.537 -2.1486 -0.2303  0.2089
 4419TIP3   OH234815   6.812   0.954   7.115  0.2841 -0.6713  0.0944
 4419TIP3    H134816   6.883   1.019   7.113  1.3658 -1.7580  1.3111
 4419TIP3    H234817   6.759   0.980   7.191 -1.0948  0.5493 -1.2116
 4420TIP3   OH234818   2.694   4.233   6.046  0.1547 -0.1990  0.3101
 4420TIP3    H134819   2.608   4.241   6.004  0.3826 -1.1351 -0.3637
 4420TIP3    H234820   2.678   4.179   6.124 -0.3207  1.7712  1.6506
 4421TIP3   OH234821   2.905   5.247   6.880 -0.1907 -0.3192  0.0113
 4421TIP3    H134822   2.822   5.265   6.923  0.5758  1.3063  0.8956
 4421TIP3    H234823   2.909   5.151   6.875 -0.8780 -0.5347  2.4653
 4422TIP3   OH234824   6.314   4.867   6.749  0.4134  0.1057 -0.0330
 4422TIP3    H134825   6.355   4.846   6.665 -1.8480  1.7941 -1.7070
 4422TIP3    H234826   6.220   4.868   6.730 -0.0542  3.7139  1.6405
 4423TIP3   OH234827   0.293   4.794   0.778  0.0048 -0.3040  0.3910
 4423TIP3    H134828   0.364   4.787   0.842  2.3844 -0.5575 -2.1085
 4423TIP3    H234829   0.261   4.884   0.787  1.9777  0.4552  0.2958
 4424TIP3   OH234830   5.071   5.920   6.578 -0.0841  0.2636  0.2568
 4424TIP3    H134831   5.021   5.969   6.512 -0.0413 -0.0056  0.0227
 4424TIP3    H234832   5.161   5.921   6.545 -0.5752 -2.7350 -1.4506
 4425TIP3   OH234833   5.828   4.230   0.311 -0.4444 -0.0972 -0.3661
 4425TIP3    H134834   5.734   4.233   0.330 -0.7369  1.7055 -1.7036
 4425TIP3    H234835   5.835   4.171   0.236 -0.4133 -0.7727  0.1675
 4426TIP3   OH234836   4.304   1.384   7.655  0.6671 -0.2643 -0.0025
 4426TIP3    H134837   4.374   1.320   7.658  2.0415  1.1241 -1.0980
 4426TIP3    H234838   4.342   1.464   7.689 -0.4528  0.4709 -0.4028
 4427TIP3   OH234839   5.864   2.942   0.549  0.4028 -0.0726  0.0648
 4427TIP3    H134840   5.950   2.965   0.515 -0.5097  0.8748 -1.7892
 4427TIP3    H234841   5.817   2.908   0.473 -0.9934 -0.1826  0.9398
 4428TIP3   OH234842   0.006   6.359   1.349  0.5225  0.0732  0.1016
 4428TIP3    H134843   0.057   6.366   1.269 -1.3507 -0.4210 -1.2096
 4428TIP3    H234844   0.067   6.383   1.419  2.2752  0.2930 -1.4288
 4429TIP3   OH234845   3.252   2.025   0.777 -0.2425  0.0330  0.8804
 4429TIP3    H134846   3.339   1.987   0.765 -0.6657 -0.1852 -2.2962
 4429TIP3    H234847   3.266   2.095   0.841  2.8279  1.5054 -1.1249
 4430TIP3   OH234848   6.126   6.049   0.459 -0.0411 -0.4710  0.2888
 4430TIP3    H134849   6.190   6.072   0.392 -0.4389  0.5681  0.2537
 4430TIP3    H234850   6.099   6.132   0.496 -1.1674 -0.9179  0.5057
 4431TIP3   OH234851   3.434   5.806   7.199 -0.2404 -0.7053 -0.0492
 4431TIP3    H134852   3.385   5.741   7.248 -1.0372 -1.7239 -2.0905
 4431TIP3    H234853   3.423   5.887   7.249 -1.8079 -1.4793  0.9229
 4432TIP3   OH234854   0.128   1.006   7.372 -0.2412 -0.2340 -0.8726
 4432TIP3    H134855   0.051   1.008   7.428 -0.7362 -1.3341 -1.4764
 4432TIP3    H234856   0.201   1.028   7.430 -0.4833 -3.0733  0.6982
 4433TIP3   OH234857   6.008   3.336   8.286 -0.3798  0.0400 -0.0560
 4433TIP3    H134858   5.933   3.395   8.280 -0.9511 -0.6526  0.2366
 4433TIP3    H234859   6.084   3.395   8.293 -0.8063  0.7557 -1.1130
 4434TIP3   OH234860   1.764   1.455   6.665 -0.6441 -0.4901  0.3480
 4434TIP3    H134861   1.809   1.537   6.687  2.4919 -2.1064  0.4831
 4434TIP3    H234862   1.673   1.481   6.649 -0.1045  2.7613  1.8279
 4435TIP3   OH234863   2.837   6.390   7.729  0.5193 -0.0593  0.1343
 4435TIP3    H134864   2.796   6.475   7.746  1.0008 -0.2430  2.5904
 4435TIP3    H234865   2.791   6.357   7.652 -1.8107  1.0985  0.9204
 4436TIP3   OH234866   1.339   5.138   8.102 -0.6067  0.3811 -0.1493
 4436TIP3    H134867   1.394   5.080   8.049 -0.8004 -0.1863  0.2609
 4436TIP3    H234868   1.387   5.221   8.104 -0.4881  0.3407 -1.0200
 4437TIP3   OH234869   5.555   5.260   8.227 -0.0428 -0.5095 -0.2525
 4437TIP3    H134870   5.463   5.280   8.206 -0.1113 -1.9481 -1.4841
 4437TIP3    H234871   5.550   5.191   8.292  0.1897  0.0927  0.4191
 4438TIP3   OH234872   6.805   2.892   7.688 -0.8194 -0.2664  0.0413
 4438TIP3    H134873   6.751   2.857   7.617 -0.8856 -1.6813  0.7527
 4438TIP3    H234874   6.755   2.871   7.768  0.2540 -0.6079  0.6387
 4439TIP3   OH234875   0.491   1.251   0.720  0.2013 -0.2851  0.2793
 4439TIP3    H134876   0.518   1.330   0.765 -1.8987  0.0015  1.1678
 4439TIP3    H234877   0.439   1.282   0.646 -0.6540 -0.8055  0.6473
 4440TIP3   OH234878   0.023   5.284   8.556  0.1399 -0.2193 -0.0582
 4440TIP3    H134879   0.017   5.259   8.648 -0.4376 -1.6440 -0.4614
 4440TIP3    H234880  -0.023   5.368   8.551  0.3551 -0.0256  0.9787
 4441TIP3   OH234881   5.207   0.766   8.015 -0.0835  0.3369 -0.3512
 4441TIP3    H134882   5.254   0.796   8.093 -0.4985  1.3083 -0.4559
 4441TIP3    H234883   5.209   0.670   8.021 -2.4337  0.3306  2.3151
 4442TIP3   OH234884   1.119   5.109   0.522 -0.0613 -0.2862 -0.1342
 4442TIP3    H134885   1.030   5.136   0.499  0.6044  1.1045 -1.1860
 4442TIP3    H234886   1.145   5.048   0.453 -1.0879 -2.8383  1.5584
 4443TIP3   OH234887   2.295   3.400   1.372  0.3577  0.2111 -0.2563
 4443TIP3    H134888   2.224   3.414   1.434  0.5109 -0.2859  0.0433
 4443TIP3    H234889   2.305   3.484   1.327 -0.1010  0.4229  0.0251
 4444TIP3   OH234890   5.403   3.730   0.335 -0.4302 -0.0236  0.7696
 4444TIP3    H134891   5.311   3.747   0.356 -0.3660  0.6613  0.5222
 4444TIP3    H234892   5.399   3.675   0.257 -0.6348  0.7752  0.1986
 4445TIP3   OH234893   3.057   5.390   8.409  0.2740 -0.0081  0.3775
 4445TIP3    H134894   3.034   5.478   8.439 -0.3652  1.0032 -2.7147
 4445TIP3    H234895   3.148   5.396   8.381 -0.0463 -0.0163 -0.7303
 4446TIP3   OH234896   6.401   1.811   0.790  0.7617 -0.2502  0.1026
 4446TIP3    H134897   6.365   1.792   0.877  0.7762  0.0747  0.1833
 4446TIP3    H234898   6.372   1.739   0.735  0.2577 -0.1555  0.2404
 4447TIP3   OH234899   5.586   2.726   1.178 -0.4764 -0.4421 -0.1032
 4447TIP3    H134900   5.658   2.723   1.115  0.3687 -1.3976  0.8589
 4447TIP3    H234901   5.600   2.649   1.234 -1.7651 -0.1698  0.6316
 4448TIP3   OH234902   0.758   2.391   7.309 -0.7146  0.7881 -0.5151
 4448TIP3    H134903   0.684   2.443   7.340 -1.1411  0.6396 -1.2727
 4448TIP3    H234904   0.825   2.455   7.284 -0.4617  0.9182  0.4303
 4449TIP3   OH234905   1.534   3.787   0.768  0.3136 -0.0335  0.0918
 4449TIP3    H134906   1.442   3.791   0.795  0.1608 -0.3673 -0.3696
 4449TIP3    H234907   1.553   3.875   0.736  0.0146 -0.0935 -0.2534
 4450TIP3   OH234908   4.237   1.542   6.540  0.3106 -0.3779 -0.1493
 4450TIP3    H134909   4.316   1.587   6.508  1.3037 -1.2183  1.0142
 4450TIP3    H234910   4.165   1.600   6.516  1.4246  1.1872  0.1494
 4451TIP3   OH234911   3.508   3.613   0.098 -0.3736 -0.2676  0.0665
 4451TIP3    H134912   3.563   3.572   0.032  1.3718  1.8200  0.1173
 4451TIP3    H234913   3.569   3.651   0.161 -1.9593 -0.9693  2.1446
 4452TIP3   OH234914   2.182   4.429   2.254 -0.4017 -0.3734 -0.4058
 4452TIP3    H134915   2.097   4.467   2.229  0.1742  0.9965 -0.3936
 4452TIP3    H234916   2.184   4.437   2.349  0.0014  0.2092 -0.4585
 4453TIP3   OH234917   3.911   1.971   2.039  1.5443  0.1734  0.4394
 4453TIP3    H134918   3.891   1.987   2.131  0.5618  1.9710 -0.0391
 4453TIP3    H234919   3.879   2.049   1.994  2.4428 -0.4587 -1.3766
 4454TIP3   OH234920   3.597   6.377   6.793 -0.5089 -0.4286  0.0683
 4454TIP3    H134921   3.681   6.408   6.759 -0.3570 -2.9029 -2.1040
 4454TIP3    H234922   3.612   6.367   6.887  1.9534 -1.6141 -0.3789
 4455TIP3   OH234923   1.658   6.438   0.882  0.4673  0.1444 -0.1015
 4455TIP3    H134924   1.667   6.412   0.790  0.3287  0.5905 -0.2431
 4455TIP3    H234925   1.616   6.524   0.879  1.1427  0.4995  0.3506
 4456TIP3   OH234926   1.389   5.643   6.853 -0.3879 -0.0556 -0.4592
 4456TIP3    H134927   1.475   5.660   6.813 -0.8360  2.0353 -0.6907
 4456TIP3    H234928   1.339   5.723   6.836 -1.5051 -0.1446  1.9821
 4457TIP3   OH234929   3.550   6.332   7.400 -0.2810  0.3458 -0.0031
 4457TIP3    H134930   3.614   6.341   7.471  0.3015  0.3219 -0.5073
 4457TIP3    H234931   3.489   6.405   7.412  0.8835  1.4554 -0.5339
 4458TIP3   OH234932   6.318   3.115   1.439  0.0032  0.1848  0.2001
 4458TIP3    H134933   6.402   3.078   1.413  0.4205  1.9654 -1.2380
 4458TIP3    H234934   6.332   3.146   1.528  0.8557  0.3707  0.0097
 4459TIP3   OH234935   6.719   4.001   7.858  0.1917  0.1029  0.4344
 4459TIP3    H134936   6.689   3.971   7.944 -0.5419 -0.0586  0.1244
 4459TIP3    H234937   6.807   3.964   7.849 -0.3408 -1.2058  0.4492
 4460TIP3   OH234938   5.261   5.119   7.222 -0.4702  0.5562 -0.2915
 4460TIP3    H134939   5.238   5.101   7.313 -1.2220 -1.4721 -0.8356
 4460TIP3    H234940   5.313   5.044   7.195 -1.6738  0.2855 -2.0072
 4461TIP3   OH234941   6.585   3.700   7.199  0.4858 -0.2993 -0.1777
 4461TIP3    H134942   6.652   3.769   7.199  0.9018 -0.5879 -2.8700
 4461TIP3    H234943   6.634   3.619   7.186 -0.2494 -0.6713 -0.7099
 4462TIP3   OH234944   3.584   4.110   1.211 -0.3827  0.3285 -0.7070
 4462TIP3    H134945   3.636   4.181   1.249 -1.1004  1.1339 -1.1815
 4462TIP3    H234946   3.502   4.113   1.260 -1.8442  2.2132 -3.0370
 4463TIP3   OH234947   0.344   5.504   0.305  0.2678  0.1287 -0.3339
 4463TIP3    H134948   0.251   5.489   0.320  0.3500 -1.9281 -1.5408
 4463TIP3    H234949   0.370   5.565   0.375 -1.6256 -0.4262  0.9326
 4464TIP3   OH234950   5.455   3.005   0.647  0.5138  0.4091 -0.5389
 4464TIP3    H134951   5.393   2.955   0.699 -0.4511  1.0243 -1.0527
 4464TIP3    H234952   5.400   3.056   0.587  1.3319  2.9904  0.7364
 4465TIP3   OH234953   6.464   2.898   8.572  0.3456 -0.1543  0.2432
 4465TIP3    H134954   6.452   2.935   8.485  2.3617 -0.3939 -0.1978
 4465TIP3    H234955   6.408   2.951   8.629  0.4406  1.2557 -0.9096
 4466TIP3   OH234956   2.778   6.412   0.399 -0.1674 -0.4601 -0.5747
 4466TIP3    H134957   2.759   6.343   0.462  0.4591 -1.0091 -0.9844
 4466TIP3    H234958   2.868   6.438   0.418 -0.9391  1.5541  0.8006
 4467TIP3   OH234959   6.597   2.190   6.149  0.5407 -0.1498 -0.0235
 4467TIP3    H134960   6.648   2.203   6.229 -1.7842  1.1630  1.3648
 4467TIP3    H234961   6.653   2.136   6.093  1.6558 -2.5687  3.1227
 4468TIP3   OH234962   1.076   6.128   6.407  0.4625  0.4654  0.1901
 4468TIP3    H134963   1.150   6.073   6.431 -0.6331 -1.2209 -0.1481
 4468TIP3    H234964   1.078   6.132   6.312  0.8040  1.4377  0.2254
 4469TIP3   OH234965   4.725   5.043   7.244 -0.0929 -0.5115  0.2573
 4469TIP3    H134966   4.719   4.995   7.326 -1.2542 -0.5064  0.2022
 4469TIP3    H234967   4.818   5.051   7.227  0.2742  0.9705  2.4581
 4470TIP3   OH234968   1.484   1.181   7.616 -0.2019 -0.0521 -0.1204
 4470TIP3    H134969   1.412   1.239   7.590  0.2265  1.2159  1.3992
 4470TIP3    H234970   1.456   1.143   7.699  0.7448  0.2689  0.3653
 4471TIP3   OH234971   5.484   6.379   7.135 -0.2551 -0.0763 -0.8201
 4471TIP3    H134972   5.543   6.454   7.134 -1.6089  1.0618 -0.0111
 4471TIP3    H234973   5.420   6.398   7.066 -0.9357 -0.1847 -0.2307
 4472TIP3   OH234974   5.011   5.319   8.001  0.0419  0.2810 -0.7505
 4472TIP3    H134975   4.972   5.246   8.049 -1.0700  1.5163  0.3350
 4472TIP3    H234976   4.965   5.396   8.035  3.0972  1.8236  0.2335
 4473TIP3   OH234977   3.514   5.698   1.720  0.1435 -0.4355 -0.1578
 4473TIP3    H134978   3.506   5.713   1.814 -0.5628 -0.7311 -0.1615
 4473TIP3    H234979   3.498   5.784   1.680  0.7692 -0.2437  0.0039
 4474TIP3   OH234980   6.375   0.481   1.732  0.4566 -0.5777  0.1404
 4474TIP3    H134981   6.461   0.451   1.706  0.8222  1.1573 -0.8049
 4474TIP3    H234982   6.375   0.575   1.714 -1.1124 -0.2406  1.5393
 4475TIP3   OH234983   2.450   0.208   8.168 -0.1003 -0.8939  0.0457
 4475TIP3    H134984   2.363   0.244   8.186  0.7240  0.8200  0.8209
 4475TIP3    H234985   2.481   0.177   8.253 -0.0426 -1.7722 -0.2821
 4476TIP3   OH234986   3.398   4.586   0.034 -0.8448  0.1643 -0.7719
 4476TIP3    H134987   3.340   4.663   0.035  0.7290  1.6209  3.6623
 4476TIP3    H234988   3.479   4.618  -0.006 -0.8310  0.2725 -0.6613
 4477TIP3   OH234989   3.496   3.304   0.233  0.1909  0.1710 -0.6044
 4477TIP3    H134990   3.565   3.312   0.167  0.7566  1.7232  0.1169
 4477TIP3    H234991   3.470   3.394   0.252  0.7681 -0.1133  1.9951
 4478TIP3   OH234992   0.518   4.500   7.080  0.1199  0.3455 -0.3527
 4478TIP3    H134993   0.544   4.414   7.113  0.3567  0.9129  1.0524
 4478TIP3    H234994   0.560   4.562   7.141 -0.6429  1.4293 -0.8899
 4479TIP3   OH234995   6.422   3.806   8.395  0.2707 -0.4358  0.4332
 4479TIP3    H134996   6.378   3.790   8.479  0.0508 -0.0184  0.4000
 4479TIP3    H234997   6.350   3.822   8.334  0.4922  1.5938  0.6491
 4480TIP3   OH234998   4.490   6.433   7.054  0.1242  0.0520  0.0321
 4480TIP3    H134999   4.414   6.384   7.084 -0.2944  1.2034  0.9559
 4480TIP3    H235000   4.565   6.392   7.097 -0.3947  1.2396  2.2352
 4481TIP3   OH235001   0.473   3.802   8.003 -0.0331 -0.2096 -0.2713
 4481TIP3    H135002   0.423   3.856   8.065  0.8510  1.1354 -0.6929
 4481TIP3    H235003   0.549   3.772   8.052  0.9245  1.2590 -0.7875
 4482TIP3   OH235004   0.865   3.704   1.712 -0.7020 -0.4387 -0.1488
 4482TIP3    H135005   0.840   3.659   1.793  0.4000  2.7401  2.1612
 4482TIP3    H235006   0.801   3.672   1.648  0.1666 -5.3851  0.9846
 4483TIP3   OH235007   6.421   1.419   1.265 -0.2025 -0.6613 -0.4511
 4483TIP3    H135008   6.441   1.333   1.226  0.7373  0.0381 -1.6181
 4483TIP3    H235009   6.498   1.439   1.318 -0.4590 -0.5811 -0.1123
 4484TIP3   OH235010   5.800   1.975   1.215 -0.0115  0.2336  0.2208
 4484TIP3    H135011   5.817   1.911   1.284 -0.7210  0.4331  0.6008
 4484TIP3    H235012   5.746   2.042   1.258  1.4327  1.5461  0.0817
 4485TIP3   OH235013   3.370   4.492   0.317 -0.1929 -0.3422 -0.2144
 4485TIP3    H135014   3.367   4.530   0.229  0.6684  1.2228  0.3853
 4485TIP3    H235015   3.314   4.415   0.312 -0.4264 -0.0989 -2.0415
 4486TIP3   OH235016   4.228   3.212   8.089 -0.1830  0.1730 -0.1362
 4486TIP3    H135017   4.154   3.171   8.134 -0.9004  2.2093  0.6918
 4486TIP3    H235018   4.305   3.173   8.130 -0.7851 -1.1594 -0.2066
 4487TIP3   OH235019   0.608   4.552   8.449  0.4324 -0.5392 -0.0519
 4487TIP3    H135020   0.669   4.527   8.379  1.3428  0.4792  0.3507
 4487TIP3    H235021   0.569   4.633   8.418  1.2384  0.2046  0.8373
 4488TIP3   OH235022   3.481   6.152   8.429  0.3029  0.2282 -0.4302
 4488TIP3    H135023   3.546   6.146   8.499  0.9148  1.6080 -0.8439
 4488TIP3    H235024   3.442   6.239   8.441  0.5783  0.5806 -1.9289
 4489TIP3   OH235025   1.707   5.812   5.924 -0.2470  0.4745 -0.3175
 4489TIP3    H135026   1.731   5.870   5.997  1.2186  0.8032 -1.0210
 4489TIP3    H235027   1.612   5.821   5.917 -0.6487 -0.6425  2.4169
 4490TIP3   OH235028   3.216   6.319   7.748  0.3809  0.0267  0.3090
 4490TIP3    H135029   3.147   6.323   7.814  0.7944  0.9890  0.6985
 4490TIP3    H235030   3.169   6.313   7.665 -0.2361  2.0534  0.4540
 4491TIP3   OH235031   3.950   1.062   0.399  0.2498  0.0537 -0.3047
 4491TIP3    H135032   3.884   1.025   0.457 -1.0655 -0.4113 -1.9918
 4491TIP3    H235033   3.982   1.139   0.445 -1.0031 -0.0835  0.8721
 4492TIP3   OH235034   1.708   3.160   0.834  0.7293  0.7737 -0.7897
 4492TIP3    H135035   1.620   3.146   0.870 -0.1683  1.9731 -2.4029
 4492TIP3    H235036   1.730   3.249   0.859  1.1793  0.7340 -1.0407
 4493TIP3   OH235037   2.944   5.784   8.231  0.0110 -0.2635  0.3159
 4493TIP3    H135038   2.935   5.873   8.197 -0.6890  0.1972  1.6257
 4493TIP3    H235039   2.934   5.728   8.154 -1.8720  0.7151 -0.2317
 4494TIP3   OH235040   1.761   4.911   0.303  0.7764 -0.0268 -0.1689
 4494TIP3    H135041   1.779   4.879   0.215 -2.0831 -2.1027 -0.1512
 4494TIP3    H235042   1.769   4.833   0.359 -0.7730  0.4715  0.8267
 4495TIP3   OH235043   0.010   6.519   8.176  0.6201 -0.5699  0.8034
 4495TIP3    H135044  -0.017   6.469   8.099  0.3024 -0.2799  0.7255
 4495TIP3    H235045   0.034   6.605   8.142 -0.9323  0.0520  1.1880
 4496TIP3   OH235046   2.671   3.097   7.277 -0.6124 -0.2013  0.1698
 4496TIP3    H135047   2.681   3.039   7.201  0.2182  0.6787 -0.4151
 4496TIP3    H235048   2.616   3.169   7.246  1.0075  0.9704 -0.1063
 4497TIP3   OH235049   5.653   0.541   0.290 -0.2476  0.0847  0.2754
 4497TIP3    H135050   5.683   0.568   0.203 -2.7331  1.1815 -0.3452
 4497TIP3    H235051   5.655   0.445   0.288 -0.5266  0.0913 -1.1261
 4498TIP3   OH235052   3.128   5.462   0.407  0.4028  0.2196  0.1595
 4498TIP3    H135053   3.141   5.443   0.500  0.1521  0.2902  0.2093
 4498TIP3    H235054   3.034   5.478   0.399  0.0101 -2.0574 -0.5034
 4499TIP3   OH235055   3.255   0.235   0.482  0.4352 -0.2101  0.7963
 4499TIP3    H135056   3.344   0.265   0.500  0.6535 -1.0124  1.0910
 4499TIP3    H235057   3.207   0.253   0.563  0.6346 -0.9008  1.0717
 4500TIP3   OH235058   6.804   5.070   1.988 -0.3933 -0.3198 -0.1715
 4500TIP3    H135059   6.742   5.085   1.917  0.7692 -0.2859 -1.2125
 4500TIP3    H235060   6.782   5.136   2.054 -0.3658  0.8341 -1.2813
 4501TIP3   OH235061   6.377   3.163   7.438 -0.9188 -0.0828  0.6674
 4501TIP3    H135062   6.419   3.105   7.375 -0.2708 -2.7378  3.3330
 4501TIP3    H235063   6.448   3.218   7.472 -0.7218 -0.5655  1.0416
 4502TIP3   OH235064   4.134   5.687   8.048  0.1423  0.0436 -0.3119
 4502TIP3    H135065   4.117   5.597   8.075 -1.7578  0.4266 -0.0275
 4502TIP3    H235066   4.048   5.730   8.053  0.5951  1.3513 -2.4362
 4503TIP3   OH235067   1.228   5.417   6.783  0.5795 -0.1809  0.0103
 4503TIP3    H135068   1.298   5.478   6.809  0.5851  0.2156 -0.9103
 4503TIP3    H235069   1.272   5.351   6.730  0.6366 -1.2243  1.3172
 4504TIP3   OH235070   1.002   5.600   6.783 -0.0278  0.4073  0.5017
 4504TIP3    H135071   0.945   5.532   6.748  1.0862  0.0005 -0.5723
 4504TIP3    H235072   1.088   5.560   6.789  0.1759  1.0002  2.1556
 4505TIP3   OH235073   4.650   0.290   8.259  0.3075 -0.3630  0.1364
 4505TIP3    H135074   4.700   0.363   8.295 -0.9337 -1.0881  3.7894
 4505TIP3    H235075   4.570   0.330   8.226  1.7331  0.4007 -2.6846
 4506TIP3   OH235076   0.290   2.308   8.004  0.5871 -0.6307 -0.1767
 4506TIP3    H135077   0.272   2.243   7.936  0.3029 -1.2111  0.4463
 4506TIP3    H235078   0.379   2.290   8.033  0.6060 -0.5662 -0.1937
 4507TIP3   OH235079   0.518   4.967   5.901  0.3496  0.6515  0.6268
 4507TIP3    H135080   0.462   4.958   5.978 -1.3884 -0.5234 -0.7021
 4507TIP3    H235081   0.540   4.878   5.876 -1.0880  0.8299 -1.5577
 4508TIP3   OH235082   4.291   2.468   8.043  0.3447 -0.2951  0.1456
 4508TIP3    H135083   4.208   2.443   8.004  1.8095 -2.3039 -1.9458
 4508TIP3    H235084   4.315   2.549   7.999  0.9816 -1.4427 -1.7269
 4509TIP3   OH235085   3.211   1.504   6.578  0.3717 -0.2874 -0.3045
 4509TIP3    H135086   3.237   1.487   6.488 -0.6669 -1.0817 -0.4622
 4509TIP3    H235087   3.234   1.425   6.626  0.0342 -0.2418 -0.0623
 4510TIP3   OH235088   1.353   0.140   1.145 -0.3984 -0.5918  0.4728
 4510TIP3    H135089   1.344   0.074   1.213  0.0550  0.8905  2.0405
 4510TIP3    H235090   1.446   0.139   1.122 -0.6955 -1.6882 -0.8041
 4511TIP3   OH235091   3.061   2.039   1.144  0.1283 -0.6025 -0.1472
 4511TIP3    H135092   3.014   1.971   1.191  0.4613  0.3289  1.6161
 4511TIP3    H235093   3.154   2.022   1.164  0.3630 -0.7846 -1.3202
 4512TIP3   OH235094   6.841   0.257   7.644  0.1811 -0.6282 -0.6200
 4512TIP3    H135095   6.790   0.176   7.644  0.1340 -0.6130  0.3138
 4512TIP3    H235096   6.852   0.279   7.552 -0.4539 -1.2905 -0.8597
 4513TIP3   OH235097   3.247   2.574   1.891 -0.2156  0.3706 -0.6788
 4513TIP3    H135098   3.318   2.562   1.828 -1.0142 -2.3071 -1.1965
 4513TIP3    H235099   3.261   2.505   1.956 -2.0887 -0.0080 -0.6093
 4514TIP3   OH235100   4.405   1.017   6.458  0.1023 -0.4734  0.1910
 4514TIP3    H135101   4.476   0.980   6.406  1.0528 -0.5545  1.4918
 4514TIP3    H235102   4.395   1.107   6.425  1.6991 -0.0331  0.8276
 4515TIP3   OH235103   3.992   2.916   8.527  0.1793 -0.1274 -0.6158
 4515TIP3    H135104   3.918   2.895   8.584 -0.1713 -0.3774 -1.1539
 4515TIP3    H235105   4.069   2.902   8.582 -0.1762  0.4388  0.0443
 4516TIP3   OH235106   4.055   0.087   1.292 -1.1941  0.1647  0.2021
 4516TIP3    H135107   4.102   0.017   1.337  2.7182  1.9780 -0.6372
 4516TIP3    H235108   4.039   0.052   1.204  0.0369 -0.0211  0.0278
 4517TIP3   OH235109   6.169   1.360   1.775 -0.3382 -0.8092  0.5275
 4517TIP3    H135110   6.088   1.347   1.824 -0.1771  2.8822  2.1491
 4517TIP3    H235111   6.228   1.403   1.837  1.2882  0.5403 -1.7815
 4518TIP3   OH235112   5.252   2.934   1.081  0.1291 -0.2229  0.0788
 4518TIP3    H135113   5.193   2.989   1.133 -0.5881 -2.0234  1.2582
 4518TIP3    H235114   5.333   2.985   1.075 -1.3475  2.1213 -1.2230
 4519TIP3   OH235115   3.417   1.318   8.032 -0.1250  0.3756 -0.2028
 4519TIP3    H135116   3.368   1.258   7.975 -0.4238  1.8614 -1.5965
 4519TIP3    H235117   3.488   1.265   8.067 -2.6028 -1.8748  1.8858
 4520TIP3   OH235118   4.711   3.107   6.220 -0.3501  0.6309 -0.1998
 4520TIP3    H135119   4.697   3.115   6.315 -0.3646  1.9717 -0.2909
 4520TIP3    H235120   4.706   3.197   6.188  1.7245  0.4691 -1.1849
 4521TIP3   OH235121   6.053   4.188   6.394 -0.2748  0.8359 -0.3170
 4521TIP3    H135122   5.979   4.137   6.363 -0.7421  2.3203 -1.8064
 4521TIP3    H235123   6.015   4.251   6.456 -0.5082  2.2653 -1.8298
 4522TIP3   OH235124   3.780   2.159   7.093 -0.3180  0.4635 -0.2438
 4522TIP3    H135125   3.787   2.251   7.117 -0.5642 -0.3089  3.3511
 4522TIP3    H235126   3.687   2.139   7.101 -0.3044 -0.0758 -1.2540
 4523TIP3   OH235127   2.994   4.693   6.703 -0.1539  0.1053 -0.0479
 4523TIP3    H135128   3.068   4.634   6.684  0.5008  0.4992  1.1549
 4523TIP3    H235129   2.924   4.662   6.646  1.2278  0.3312 -1.9570
 4524TIP3   OH235130   1.300   4.033   8.528 -0.8889 -0.6980 -0.4519
 4524TIP3    H135131   1.345   4.003   8.449  0.0699 -0.4314 -0.0159
 4524TIP3    H235132   1.362   4.016   8.599 -2.3454 -2.4435  0.4882
 4525TIP3   OH235133   6.806   3.380   6.935  0.1170  0.5665 -0.0579
 4525TIP3    H135134   6.832   3.301   6.887  0.9043 -0.2442  1.6064
 4525TIP3    H235135   6.836   3.452   6.881  0.9216 -0.3058 -0.8079
 4526TIP3   OH235136   0.807   5.262   0.626  0.0005 -0.4285 -0.3793
 4526TIP3    H135137   0.821   5.261   0.532  1.5752 -0.3393 -0.1744
 4526TIP3    H235138   0.719   5.225   0.638 -0.0052 -0.9442 -1.8329
 4527TIP3   OH235139   4.543   5.301   0.844  0.3297  0.1662  0.0242
 4527TIP3    H135140   4.607   5.231   0.833 -0.3442 -0.4866  0.1898
 4527TIP3    H235141   4.459   5.260   0.823  0.0417  1.2078 -0.9713
 4528TIP3   OH235142   3.443   0.019   8.166 -0.0888 -0.0048 -0.4627
 4528TIP3    H135143   3.449   0.099   8.218 -1.0100  0.4148 -0.9829
 4528TIP3    H235144   3.350  -0.005   8.169  0.1248 -0.8734 -0.5769
 4529TIP3   OH235145   3.921   0.011   7.871 -0.1210  0.0658  0.3865
 4529TIP3    H135146   3.965   0.076   7.816 -1.9622  0.6863 -0.4197
 4529TIP3    H235147   3.891   0.060   7.947 -1.6674  0.2435 -0.3056
 4530TIP3   OH235148   5.654   1.880   7.458  0.3272 -1.1981 -0.6859
 4530TIP3    H135149   5.642   1.963   7.413  0.0983 -0.3348  0.8792
 4530TIP3    H235150   5.581   1.876   7.521  0.3645 -2.5603 -0.6835
 4531TIP3   OH235151   0.000   0.057   8.568  0.2214  0.3486 -0.3830
 4531TIP3    H135152   0.004  -0.019   8.626 -0.1770  1.5466  1.2984
 4531TIP3    H235153   0.086   0.060   8.526  0.6563 -0.3681  0.4223
 4532TIP3   OH235154   4.370   5.800   8.372 -0.0848 -0.0690 -0.2424
 4532TIP3    H135155   4.287   5.766   8.407 -0.1624  0.8116  0.4619
 4532TIP3    H235156   4.345   5.847   8.293 -0.5119  1.6347  0.8627
 4533TIP3   OH235157   1.328   3.306   8.087  0.1320 -0.2237  0.3193
 4533TIP3    H135158   1.246   3.353   8.104  0.0056 -0.4955  0.4772
 4533TIP3    H235159   1.380   3.367   8.035 -0.5457 -0.4097 -0.6063
 4534TIP3   OH235160   4.902   2.376   0.810  0.3707  0.0144 -0.1598
 4534TIP3    H135161   4.835   2.385   0.878 -0.6990 -2.7792 -0.7255
 4534TIP3    H235162   4.957   2.304   0.840  1.7310  0.7356 -0.8546
 4535TIP3   OH235163   0.484   0.414   2.089  0.0407 -0.0582 -0.1388
 4535TIP3    H135164   0.548   0.372   2.031 -0.0995 -0.6659  0.1404
 4535TIP3    H235165   0.534   0.482   2.134  1.0542 -1.8279  1.5946
 4536TIP3   OH235166   2.537   3.979   6.495 -0.2595  0.5758 -0.0145
 4536TIP3    H135167   2.617   3.992   6.442  0.7271  0.3520  1.3631
 4536TIP3    H235168   2.521   3.885   6.490 -0.1389  0.5476  0.1138
 4537TIP3   OH235169   5.593   1.711   1.169 -0.0675  0.3722  0.6534
 4537TIP3    H135170   5.549   1.784   1.212 -1.0778  0.1229  0.0691
 4537TIP3    H235171   5.578   1.725   1.075 -0.2427 -0.5531  0.5327
 4538TIP3   OH235172   6.572   3.596   7.445  0.4146 -0.2161 -0.5534
 4538TIP3    H135173   6.571   3.628   7.355  1.0425  0.6516 -0.2652
 4538TIP3    H235174   6.499   3.642   7.488  0.1604 -0.5739 -0.5979
 4539TIP3   OH235175   3.565   1.962   6.259  0.3813  0.1028 -1.0277
 4539TIP3    H135176   3.598   1.915   6.182  3.1625  0.6462 -0.2931
 4539TIP3    H235177   3.556   1.894   6.326  1.6260  0.1512 -0.7873
 4540TIP3   OH235178   2.019   6.862   7.780  0.0915 -0.3082 -0.6698
 4540TIP3    H135179   2.025   6.953   7.752  0.7977 -0.3435 -0.6632
 4540TIP3    H235180   2.110   6.838   7.800 -0.3743 -0.2552  1.7643
 4541TIP3   OH235181   6.254   5.793   8.144  0.0817 -0.3697 -0.1238
 4541TIP3    H135182   6.287   5.707   8.172  0.3590 -0.8459 -1.8139
 4541TIP3    H235183   6.159   5.780   8.138 -0.2917  0.3812  2.6112
 4542TIP3   OH235184   0.010   5.614   7.984  0.6542 -0.7224  0.0635
 4542TIP3    H135185   0.036   5.522   7.976  1.8079 -0.5221  1.1080
 4542TIP3    H235186   0.093   5.660   7.999 -0.0964  0.2458  1.3943
 4543TIP3   OH235187   5.024   6.737   6.419 -0.8907 -1.0608 -0.9063
 4543TIP3    H135188   4.940   6.764   6.381 -2.2306 -0.2271  2.3098
 4543TIP3    H235189   5.000   6.668   6.482  0.7524 -0.4963  0.3890
 4544TIP3   OH235190   4.204   0.773   1.382 -0.1874 -0.0905 -0.0631
 4544TIP3    H135191   4.140   0.807   1.444 -0.8130  0.1782 -0.8454
 4544TIP3    H235192   4.153   0.748   1.305  0.8625  2.4964 -1.7299
 4545TIP3   OH235193   5.471   6.183   0.365 -0.0160 -0.1764  0.1372
 4545TIP3    H135194   5.515   6.105   0.331 -1.4423 -1.0143  0.1354
 4545TIP3    H235195   5.475   6.246   0.292  2.0162  0.1512  0.4867
 4546TIP3   OH235196   0.103   1.348   6.189 -0.3007  0.6897 -0.7027
 4546TIP3    H135197   0.190   1.381   6.167  0.5385 -1.3232 -0.6143
 4546TIP3    H235198   0.101   1.346   6.285  0.0378 -0.3765 -0.7033
 4547TIP3   OH235199   4.108   2.347   8.485  0.0734  0.4273 -0.1577
 4547TIP3    H135200   4.111   2.443   8.477  2.0396  0.7629  2.9145
 4547TIP3    H235201   4.190   2.325   8.529 -0.1769 -2.7599 -1.0990
 4548TIP3   OH235202   6.540   0.937   1.595  0.7155 -0.2038  0.2607
 4548TIP3    H135203   6.533   0.967   1.686 -0.5244 -0.7540  0.3669
 4548TIP3    H235204   6.634   0.926   1.581  0.9370  0.0135  1.4402
 4549TIP3   OH235205   4.192   6.824   6.994  0.7202  0.0672 -0.8481
 4549TIP3    H135206   4.213   6.913   7.020  0.4789  0.5439 -2.2456
 4549TIP3    H235207   4.196   6.774   7.076 -4.5544  2.2614  1.2183
 4550TIP3   OH235208   0.476   4.071   2.011  0.3239 -0.4033 -0.1136
 4550TIP3    H135209   0.404   4.049   1.952  0.6827 -0.4880 -0.5201
 4550TIP3    H235210   0.453   4.030   2.094 -0.8592  0.8351  0.2122
 4551TIP3   OH235211   5.851   1.232   7.627 -0.2169  0.0808 -0.1925
 4551TIP3    H135212   5.893   1.199   7.707  3.4707  2.4847 -0.8863
 4551TIP3    H235213   5.884   1.176   7.557 -2.2166 -1.0524 -0.2955
 4552TIP3   OH235214   6.560   5.559   7.570 -0.1558 -0.0929 -0.1854
 4552TIP3    H135215   6.603   5.626   7.622  2.1491 -1.2183 -0.5045
 4552TIP3    H235216   6.561   5.481   7.625 -1.4185 -0.2908 -0.3955
 4553TIP3   OH235217   5.459   0.714   7.072  0.0796 -0.0673  0.1691
 4553TIP3    H135218   5.483   0.637   7.123  0.7768 -0.5722 -0.8768
 4553TIP3    H235219   5.378   0.689   7.027  1.1753 -0.8384 -1.4578
 4554TIP3   OH235220   5.471   4.700   8.009  0.3213  0.3711  0.5006
 4554TIP3    H135221   5.468   4.763   8.081  1.1606  0.4027  0.5210
 4554TIP3    H235222   5.553   4.652   8.022  0.6528  0.5996 -0.6119
 4555TIP3   OH235223   4.120   2.408   7.314  0.4331  0.5068  0.0698
 4555TIP3    H135224   4.193   2.433   7.370  0.6028 -0.2751  0.2051
 4555TIP3    H235225   4.158   2.348   7.249  0.1348  0.9940 -0.5703
 4556TIP3   OH235226   6.815   5.630   0.908  0.0375 -0.3170  0.5477
 4556TIP3    H135227   6.738   5.580   0.881  0.2702 -0.8576  0.8771
 4556TIP3    H235228   6.864   5.645   0.827 -1.3793  1.7574 -0.0213
 4557TIP3   OH235229   0.384   3.810   1.779  0.1658  0.0832 -0.0994
 4557TIP3    H135230   0.350   3.855   1.702  1.8726  1.9358  0.1469
 4557TIP3    H235231   0.306   3.790   1.831 -0.7959  1.5926 -0.8698
 4558TIP3   OH235232   3.394   3.347   1.822 -0.6934  0.0751  0.2126
 4558TIP3    H135233   3.463   3.317   1.762 -3.0083 -1.2152 -1.9911
 4558TIP3    H235234   3.373   3.269   1.874 -0.1916  0.5923  1.2032
 4559TIP3   OH235235   2.379   0.652   1.252 -0.0706  0.8025  0.5296
 4559TIP3    H135236   2.422   0.730   1.288 -0.9523  0.9422  1.3282
 4559TIP3    H235237   2.287   0.663   1.275 -0.5978  0.6100 -1.2983
 4560TIP3   OH235238   2.925   2.917   8.225  0.1888 -0.1120  0.4828
 4560TIP3    H135239   2.938   2.826   8.197 -0.2705 -0.6691  1.9718
 4560TIP3    H235240   2.956   2.919   8.316 -2.2192  0.5443  1.3760
 4561TIP3   OH235241   0.835   5.736   1.746  0.7947  0.1984 -0.8597
 4561TIP3    H135242   0.892   5.707   1.817  2.4316  2.0408 -1.3552
 4561TIP3    H235243   0.832   5.662   1.685 -0.9411 -1.5716  1.1994
 4562TIP3   OH235244   2.108   1.555   7.726 -0.2114 -0.6268 -0.3645
 4562TIP3    H135245   2.050   1.532   7.654 -0.2392  0.5525 -0.7368
 4562TIP3    H235246   2.167   1.480   7.734 -1.6466 -1.7643 -0.0940
 4563TIP3   OH235247   5.257   5.990   2.169 -0.1277 -0.0225 -0.1546
 4563TIP3    H135248   5.302   5.984   2.254 -0.1348 -0.5502 -0.1848
 4563TIP3    H235249   5.259   5.901   2.135  0.5381  0.3203 -1.0550
 4564TIP3   OH235250   6.474   6.137   7.906  0.5440  0.7054 -0.2039
 4564TIP3    H135251   6.465   6.043   7.921  2.1787  0.5471  0.0168
 4564TIP3    H235252   6.474   6.147   7.811  0.0225  0.5336 -0.2253
 4565TIP3   OH235253   0.138   4.571   1.280  0.4762  0.7278 -0.1774
 4565TIP3    H135254   0.095   4.634   1.222 -0.1455 -0.3056 -0.8756
 4565TIP3    H235255   0.066   4.527   1.325  0.5750 -2.0412 -2.4168
 4566TIP3   OH235256   3.104   0.103   6.990  0.5582  0.4933  0.0164
 4566TIP3    H135257   3.182   0.111   6.935  0.8183 -0.4607  0.2346
 4566TIP3    H235258   3.051   0.036   6.948  0.1435  0.6885  0.2181
 4567TIP3   OH235259   2.475   4.621   7.813 -0.1197  0.3047  0.7500
 4567TIP3    H135260   2.450   4.660   7.729  0.7478  1.1993  0.8793
 4567TIP3    H235261   2.568   4.600   7.802 -0.2815 -0.6480  1.1030
 4568TIP3   OH235262   4.990   2.891   7.002  0.1321  0.1763  0.3082
 4568TIP3    H135263   5.053   2.963   6.993 -0.6833  0.7178 -1.6447
 4568TIP3    H235264   4.976   2.860   6.913 -2.0205 -0.2287  0.7298
 4569TIP3   OH235265   4.591   0.736   7.177  0.4849 -0.7653 -0.0825
 4569TIP3    H135266   4.527   0.790   7.132 -0.8055 -0.5793  1.8369
 4569TIP3    H235267   4.675   0.756   7.134 -0.7670 -1.4642 -3.0531
 4570TIP3   OH235268   2.686   2.025   7.263  0.0378  0.1046 -0.0408
 4570TIP3    H135269   2.748   2.092   7.234  1.9247 -1.3854  0.3572
 4570TIP3    H235270   2.722   1.943   7.231 -1.5291 -0.8800  0.5821
 4571TIP3   OH235271   3.606   0.892   7.595 -0.2851  0.5852  0.5744
 4571TIP3    H135272   3.569   0.841   7.523  0.9180 -0.5616  0.7163
 4571TIP3    H235273   3.601   0.983   7.566 -1.1819  0.2652 -0.3063
 4572TIP3   OH235274   6.104   2.374   8.126 -0.7320  0.5698  0.4402
 4572TIP3    H135275   6.174   2.380   8.191 -0.7469  1.7854  0.3745
 4572TIP3    H235276   6.118   2.450   8.069 -1.2495  0.0249 -0.4496
 4573TIP3   OH235277   3.276   2.870   6.233  0.0055 -1.0089  0.1737
 4573TIP3    H135278   3.358   2.839   6.272  0.4485 -0.2845 -0.1745
 4573TIP3    H235279   3.282   2.965   6.235 -0.7433 -0.9492 -0.0347
 4574TIP3   OH235280   0.347   0.982   7.693 -0.1166  0.3761  0.3639
 4574TIP3    H135281   0.264   0.936   7.699  1.0022 -1.7118  0.9641
 4574TIP3    H235282   0.392   0.961   7.775  2.4037 -1.6248 -1.3493
 4575TIP3   OH235283   5.492   4.917   8.237  0.4623 -0.2164 -0.4740
 4575TIP3    H135284   5.435   4.981   8.280  1.6567  0.4356  0.1848
 4575TIP3    H235285   5.534   4.967   8.166 -2.6547 -1.6249 -3.6387
 4576TIP3   OH235286   2.292   1.518   6.863  0.1689  0.3709  0.0565
 4576TIP3    H135287   2.291   1.602   6.909 -0.3332  1.4153 -1.7804
 4576TIP3    H235288   2.348   1.532   6.787  3.0204 -2.0385  1.4648
 4577TIP3   OH235289   0.947   0.527   1.711 -0.4389  0.0439  0.0148
 4577TIP3    H135290   0.998   0.597   1.751  1.3060 -2.3831  2.3857
 4577TIP3    H235291   0.867   0.522   1.764 -0.6357  0.3432 -0.2541
 4578TIP3   OH235292   1.652   6.220   8.299  0.4014 -0.0785 -0.1176
 4578TIP3    H135293   1.691   6.140   8.334 -1.2677 -0.5858  0.6523
 4578TIP3    H235294   1.598   6.253   8.369  0.4770  1.3449 -0.6983
 4579TIP3   OH235295   6.264   6.371   6.814  0.5683  0.2039 -0.1448
 4579TIP3    H135296   6.358   6.351   6.812  0.8950  1.5139  0.8271
 4579TIP3    H235297   6.222   6.292   6.780  2.1386  0.5452 -3.1744
 4580TIP3   OH235298   3.394   1.371   8.510 -0.4176 -0.1910 -0.4471
 4580TIP3    H135299   3.435   1.310   8.571  0.0918 -0.1529 -0.7428
 4580TIP3    H235300   3.304   1.341   8.503 -0.3029 -0.6047 -0.1972
 4581TIP3   OH235301   1.099   5.469   8.597  0.8142 -0.0865 -0.3026
 4581TIP3    H135302   1.194   5.475   8.591  0.6290  2.1785 -2.1051
 4581TIP3    H235303   1.074   5.404   8.531  1.1188 -0.9714  0.4458
 4582TIP3   OH235304   0.785   1.148   2.574  0.1487 -0.0712 -0.1236
 4582TIP3    H135305   0.803   1.056   2.594 -0.3429  0.1741  1.6027
 4582TIP3    H235306   0.859   1.196   2.611 -0.3999  0.3465  0.4452
 4583TIP3   OH235307   1.977   2.837   7.559  0.4193 -0.0989  0.2517
 4583TIP3    H135308   2.067   2.806   7.564  0.5893  0.2649 -0.4922
 4583TIP3    H235309   1.941   2.797   7.480 -1.0870 -2.8057  2.1409
 4584TIP3   OH235310   1.288   6.171   7.978  0.1381 -0.0389  0.2828
 4584TIP3    H135311   1.244   6.192   7.895 -1.9364 -0.5937  1.1746
 4584TIP3    H235312   1.372   6.132   7.951 -1.3761 -2.2778 -1.6681
 4585TIP3   OH235313   1.991   5.337   0.004  0.1308  0.3061  0.4092
 4585TIP3    H135314   1.929   5.333   0.077 -0.9413  0.6144 -0.4605
 4585TIP3    H235315   1.946   5.389  -0.062  1.3205  0.5088 -0.2598
 4586TIP3   OH235316   3.926   6.831   6.936  0.0034  0.4616  0.3136
 4586TIP3    H135317   4.018   6.811   6.956 -0.4596 -3.1413 -0.3334
 4586TIP3    H235318   3.881   6.819   7.020 -0.0829  0.4795  0.2694
 4587TIP3   OH235319   0.185   6.477   0.039  0.5845  0.5221  0.4058
 4587TIP3    H135320   0.233   6.405   0.080  1.1562  0.8713  0.3447
 4587TIP3    H235321   0.186   6.456  -0.054 -0.9967 -0.4454  0.5488
 4588TIP3   OH235322   5.569   3.417   7.188 -0.3705 -0.0873  0.1874
 4588TIP3    H135323   5.554   3.461   7.105  0.7572 -1.4653 -0.8076
 4588TIP3    H235324   5.499   3.447   7.245 -1.1254  0.9432 -1.2384
 4589TIP3   OH235325   4.080   2.062   6.031 -0.6769  0.0491 -0.2551
 4589TIP3    H135326   4.008   2.000   6.018 -0.6514 -0.2896  1.1290
 4589TIP3    H235327   4.038   2.142   6.061 -0.3803 -0.8257  2.7862
 4590TIP3   OH235328   3.784   2.092   8.556 -0.1093  0.3164  0.5723
 4590TIP3    H135329   3.862   2.095   8.612 -1.5999  1.2062  2.7496
 4590TIP3    H235330   3.789   2.006   8.513  2.2956  0.5555  0.2286
 4591TIP3   OH235331   0.553   2.619   8.321  0.3413  0.5994  0.3664
 4591TIP3    H135332   0.465   2.584   8.305  0.8432 -0.4753 -0.1121
 4591TIP3    H235333   0.570   2.598   8.413  1.1006 -1.5491 -0.2120
 4592TIP3   OH235334   4.876   5.316   0.350 -0.5485  0.0773 -0.1767
 4592TIP3    H135335   4.831   5.259   0.411 -1.4934 -0.0024 -0.9214
 4592TIP3    H235336   4.927   5.376   0.405 -0.9540 -0.3278  0.6516
 4593TIP3   OH235337   6.027   1.625   8.462 -0.2456 -0.9320 -0.1101
 4593TIP3    H135338   5.992   1.713   8.449  2.4483  0.1833 -0.5336
 4593TIP3    H235339   5.980   1.592   8.538 -0.9104  1.1347  0.4570
 4594TIP3   OH235340   3.833   4.384   1.202 -0.5029  0.4703  0.0300
 4594TIP3    H135341   3.744   4.381   1.166 -1.2042 -0.9652  1.7219
 4594TIP3    H235342   3.884   4.329   1.143 -1.1734 -0.2017  0.0500
 4595TIP3   OH235343   2.250   1.275   6.788 -0.3450  0.2170 -0.2170
 4595TIP3    H135344   2.345   1.273   6.780 -0.3332  0.1839 -0.0630
 4595TIP3    H235345   2.230   1.364   6.819 -0.2066 -0.4105  1.8216
 4596TIP3   OH235346   0.183   2.745   2.198  0.2173 -0.1435 -0.3348
 4596TIP3    H135347   0.258   2.688   2.217  0.9004  1.4775  2.2878
 4596TIP3    H235348   0.218   2.812   2.140  0.6015  0.1375  0.2136
 4597TIP3   OH235349   5.124   3.780   8.128  0.1436  0.5470  0.1978
 4597TIP3    H135350   5.076   3.761   8.047 -1.5505  0.5069  1.1622
 4597TIP3    H235351   5.160   3.696   8.156 -2.6315 -0.3087  1.5189
 4598TIP3   OH235352   3.614   0.330   8.346  0.0858  0.5445 -0.5840
 4598TIP3    H135353   3.686   0.327   8.409 -0.4622  0.7490  0.0574
 4598TIP3    H235354   3.545   0.275   8.385 -0.1994  0.5469 -1.0760
 4599TIP3   OH235355   1.355   4.320   6.098  0.2739  0.0887  0.1770
 4599TIP3    H135356   1.442   4.318   6.139 -0.2748  0.4265  1.4173
 4599TIP3    H235357   1.295   4.293   6.168 -0.6023 -0.3264 -0.7161
 4600TIP3   OH235358   2.074   6.007   1.237 -0.6006 -0.4721 -0.2765
 4600TIP3    H135359   2.128   6.051   1.171  0.8339 -1.9100 -0.1441
 4600TIP3    H235360   2.101   6.047   1.320 -1.2993  0.2867 -0.4128
 4601TIP3   OH235361   3.420   3.088   1.262  0.3262 -0.1047 -0.2695
 4601TIP3    H135362   3.467   3.011   1.294 -0.5668 -0.2781  0.6776
 4601TIP3    H235363   3.479   3.128   1.198  1.9363 -0.0963  1.1446
 4602TIP3   OH235364   1.230   6.722   8.254 -0.5600 -0.8496 -0.1107
 4602TIP3    H135365   1.264   6.681   8.175  0.6324 -2.1965  1.0324
 4602TIP3    H235366   1.135   6.714   8.247 -0.4959 -0.5571 -1.5821
 4603TIP3   OH235367   4.941   5.428   8.524 -0.2342 -0.2552  0.1448
 4603TIP3    H135368   4.892   5.510   8.525 -1.9262 -1.2327  0.9662
 4603TIP3    H235369   4.890   5.368   8.579  0.1944 -2.2852 -1.5287
 4604TIP3   OH235370   0.804   6.153   0.726  0.0788  0.2188 -0.5176
 4604TIP3    H135371   0.794   6.064   0.759  0.4323  0.7332  1.0134
 4604TIP3    H235372   0.887   6.184   0.762  0.7577  0.6493 -2.3061
 4605TIP3   OH235373   1.788   2.028   6.248 -0.1052 -0.2335 -1.0049
 4605TIP3    H135374   1.814   1.978   6.171 -0.8213 -0.5229 -1.0661
 4605TIP3    H235375   1.737   2.101   6.215  0.5129  0.2686 -0.8758
 4606TIP3   OH235376   0.661   4.454   7.731 -0.0153  0.4338  0.0375
 4606TIP3    H135377   0.569   4.480   7.722  0.5381  1.8895 -2.7843
 4606TIP3    H235378   0.701   4.526   7.779 -0.2159  0.1629  0.6104
 4607TIP3   OH235379   4.713   4.354   7.793  0.4581 -0.3382  0.0517
 4607TIP3    H135380   4.765   4.421   7.837  3.2047 -0.3517 -2.7777
 4607TIP3    H235381   4.639   4.401   7.756  0.5130  0.4689  0.9387
 4608TIP3   OH235382   4.063   6.418   7.113 -0.0301 -0.6361 -0.2876
 4608TIP3    H135383   4.144   6.431   7.162  1.0647 -1.1955 -1.8733
 4608TIP3    H235384   3.997   6.400   7.180  1.3512 -1.1765  0.9865
 4609TIP3   OH235385   6.579   2.775   7.184 -0.4091  0.0526  0.3461
 4609TIP3    H135386   6.577   2.867   7.209 -0.2491 -0.2555  1.5512
 4609TIP3    H235387   6.672   2.751   7.187 -0.5176 -0.3346  0.7925
 4610TIP3   OH235388   5.330   5.116   0.586 -0.7010 -0.1939  0.5574
 4610TIP3    H135389   5.352   5.025   0.569 -0.6792 -0.0202 -0.3631
 4610TIP3    H235390   5.410   5.154   0.620 -0.0878 -0.0240 -1.0110
 4611TIP3   OH235391   4.168   3.403   6.399 -0.5887 -0.0670 -0.8696
 4611TIP3    H135392   4.191   3.376   6.310 -0.0120 -1.9991 -0.1903
 4611TIP3    H235393   4.252   3.417   6.442 -0.7448 -1.9121  0.1241
 4612TIP3   OH235394   5.938   0.003   7.590 -0.0525 -0.2621 -0.3846
 4612TIP3    H135395   5.859   0.008   7.537 -1.6289  0.3596  1.8868
 4612TIP3    H235396   5.961   0.094   7.608 -0.4108 -0.4284  1.1148
 4613TIP3   OH235397   1.660   4.448   6.629  0.5632  0.0626  0.3606
 4613TIP3    H135398   1.747   4.425   6.596  1.6486  1.6635  1.8829
 4613TIP3    H235399   1.662   4.424   6.721 -1.1524 -1.1357  0.1412
 4614TIP3   OH235400   6.285   3.333   8.076 -0.1647  0.4298 -0.9244
 4614TIP3    H135401   6.194   3.362   8.067 -0.0132  0.5213 -2.6160
 4614TIP3    H235402   6.319   3.334   7.986  0.9531 -1.4490 -0.5800
 4615TIP3   OH235403   1.326   6.405   1.295 -0.5018 -0.1714  0.2646
 4615TIP3    H135404   1.378   6.365   1.225 -0.2154 -0.4568  0.6371
 4615TIP3    H235405   1.320   6.337   1.362  1.2752  0.8746  1.5814
 4616TIP3   OH235406   3.780   2.178   0.518 -0.2843  0.1869 -0.2129
 4616TIP3    H135407   3.866   2.183   0.477 -0.6240  0.0121 -0.9667
 4616TIP3    H235408   3.722   2.227   0.460 -0.7717 -0.0324  0.0770
 4617TIP3   OH235409   0.945   3.495   6.352  0.1738  0.5311 -0.7995
 4617TIP3    H135410   1.033   3.475   6.320  0.6328  0.2637  0.5507
 4617TIP3    H235411   0.958   3.518   6.444 -0.9095  2.5782 -1.0859
 4618TIP3   OH235412   5.148   6.378   0.826 -0.1412  0.2397  0.4043
 4618TIP3    H135413   5.224   6.341   0.869  0.4494  1.4576  0.4532
 4618TIP3    H235414   5.181   6.457   0.783 -1.0627 -0.0339 -0.8598
 4619TIP3   OH235415   2.914   6.802   6.877  0.3445 -0.5527 -0.1869
 4619TIP3    H135416   2.899   6.710   6.898 -0.3036 -0.9253 -2.1111
 4619TIP3    H235417   2.837   6.828   6.826  0.0441  1.3622  1.1104
 4620TIP3   OH235418   5.399   0.336   8.032 -0.1099  0.2194 -0.2266
 4620TIP3    H135419   5.367   0.419   8.067 -3.0061 -1.2160  0.7804
 4620TIP3    H235420   5.321   0.290   8.004  1.5418 -1.6599 -2.0443
 4621TIP3   OH235421   0.815   6.063   8.068  0.0055 -0.2335 -0.1249
 4621TIP3    H135422   0.891   6.011   8.042  0.1848 -0.2750  0.4578
 4621TIP3    H235423   0.744   5.999   8.077  0.1680 -0.3536  0.3593
 4622TIP3   OH235424   6.320   3.828   6.407 -0.3761  0.4356  0.1655
 4622TIP3    H135425   6.323   3.747   6.457 -1.9618 -0.6131 -1.3383
 4622TIP3    H235426   6.377   3.811   6.332 -1.5761  0.2534 -0.7344
 4623TIP3   OH235427   3.609   3.812   0.545 -0.0009 -0.8189 -0.1245
 4623TIP3    H135428   3.619   3.904   0.570 -1.4997 -0.9706  1.2301
 4623TIP3    H235429   3.660   3.764   0.609  0.1570 -0.9795 -0.3688
 4624TIP3   OH235430   5.680   2.822   6.660 -0.1124 -0.0851  0.6380
 4624TIP3    H135431   5.594   2.828   6.703  0.8589  1.0937  2.5583
 4624TIP3    H235432   5.661   2.840   6.568 -2.3760 -3.3688  0.2841
 4625TIP3   OH235433   1.090   5.609   7.707  0.6354 -0.1532 -0.0406
 4625TIP3    H135434   1.112   5.547   7.637  3.4204 -0.2334  0.7792
 4625TIP3    H235435   1.150   5.587   7.778 -0.6791  1.2878  1.6024
 4626TIP3   OH235436   4.048   3.649   6.494 -0.3465  0.3183 -0.0309
 4626TIP3    H135437   4.107   3.717   6.460  1.6658 -0.3316  1.9175
 4626TIP3    H235438   4.095   3.567   6.478 -0.5315 -0.1932  1.8628
 4627TIP3   OH235439   4.922   5.441   1.630 -0.5452 -0.6006 -0.1994
 4627TIP3    H135440   4.927   5.346   1.625 -1.4698 -0.6255 -0.9213
 4627TIP3    H235441   4.951   5.462   1.718  0.6137 -1.4732 -0.3516
 4628TIP3   OH235442   3.456   4.142   6.869  0.2074 -0.0459 -0.6614
 4628TIP3    H135443   3.420   4.063   6.829 -3.6333  0.2998  1.6823
 4628TIP3    H235444   3.471   4.119   6.961  3.4766  0.7705 -0.8432
 4629TIP3   OH235445   3.281   2.848   6.688  0.3698  0.1899  0.1654
 4629TIP3    H135446   3.231   2.901   6.626 -1.9867 -0.9386  0.9821
 4629TIP3    H235447   3.215   2.796   6.735  2.0799  0.3267  3.0053
 4630TIP3   OH235448   6.547   3.049   0.568  0.7889 -0.4122 -0.4650
 4630TIP3    H135449   6.559   3.140   0.593 -2.0050  0.0927 -0.6063
 4630TIP3    H235450   6.634   3.011   0.572  2.2483  2.5188 -1.5278
 4631TIP3   OH235451   4.310   2.708   7.115 -0.5008 -0.4279  0.0632
 4631TIP3    H135452   4.318   2.794   7.156  2.2563 -0.6709  0.2910
 4631TIP3    H235453   4.352   2.718   7.029  0.3038 -1.6105  0.2839
 4632TIP3   OH235454   3.324   5.299   1.538 -0.1728  0.2802  0.0744
 4632TIP3    H135455   3.253   5.235   1.545 -1.1998  1.4965  1.4880
 4632TIP3    H235456   3.282   5.383   1.558  1.6773  1.0340  1.0221
 4633TIP3   OH235457   1.209   5.607   6.486  0.3275 -0.2789  0.2472
 4633TIP3    H135458   1.264   5.671   6.441  0.4785 -1.0846 -0.7400
 4633TIP3    H235459   1.230   5.619   6.579 -0.5691  1.9314  0.2232
 4634TIP3   OH235460   1.133   1.055   0.130 -0.1130 -0.0626  0.4650
 4634TIP3    H135461   1.096   1.143   0.136 -0.1280 -0.1184  1.2887
 4634TIP3    H235462   1.218   1.067   0.089  0.3611  0.4752  1.5876
 4635TIP3   OH235463   2.414   3.927   1.930 -0.0929 -0.1803  0.2556
 4635TIP3    H135464   2.484   3.886   1.981  0.9886  0.3541 -0.7661
 4635TIP3    H235465   2.429   4.021   1.941  1.3632  0.0254 -2.5076
 4636TIP3   OH235466   6.034   0.199   1.804 -0.2883 -0.2764  0.2373
 4636TIP3    H135467   6.080   0.252   1.739  0.5401 -0.4841  0.6437
 4636TIP3    H235468   5.942   0.203   1.777 -0.0780  0.3762 -0.4249
 4637TIP3   OH235469   6.546   4.201   6.783  0.0290 -0.3454  0.4653
 4637TIP3    H135470   6.519   4.289   6.755  0.4973 -1.0265 -2.5334
 4637TIP3    H235471   6.637   4.212   6.809 -0.3569  0.3096  1.5810
 4638TIP3   OH235472   4.637   5.536   0.302 -0.9954  0.2726  0.2704
 4638TIP3    H135473   4.604   5.451   0.332  0.2884  0.1853  1.5326
 4638TIP3    H235474   4.585   5.555   0.224 -4.2324  0.2892  2.2348
 4639TIP3   OH235475   4.628   6.306   8.471 -0.5132 -0.3248  0.5588
 4639TIP3    H135476   4.610   6.213   8.487 -1.4564 -0.0577  1.0897
 4639TIP3    H235477   4.554   6.352   8.510  1.8762  0.9278  4.2328
 4640TIP3   OH235478   4.572   3.235   8.652  0.2327 -0.2495  0.4251
 4640TIP3    H135479   4.502   3.282   8.609  0.9952 -0.1407 -0.7542
 4640TIP3    H235480   4.578   3.152   8.605 -0.8041 -1.3789  2.1895
 4641TIP3   OH235481   0.622   5.424   0.448 -0.0386 -0.1542  0.0784
 4641TIP3    H135482   0.611   5.498   0.507 -2.6151 -0.3228 -0.0784
 4641TIP3    H235483   0.607   5.459   0.361 -0.5566 -0.7238 -0.0671
 4642TIP3   OH235484   1.862   5.962   2.126  0.3538  0.1325  0.5187
 4642TIP3    H135485   1.943   5.923   2.093  1.5259  1.6230  1.5111
 4642TIP3    H235486   1.813   5.889   2.163  0.1616 -1.1849 -2.0903
 4643TIP3   OH235487   6.727   2.497   8.064  0.4088 -0.0795  0.1884
 4643TIP3    H135488   6.748   2.408   8.094  1.8165 -0.0076 -0.4750
 4643TIP3    H235489   6.745   2.495   7.970 -0.9961  0.5146 -0.1069
 4644TIP3   OH235490   4.905   1.168   0.782  0.0227  0.1371 -0.0725
 4644TIP3    H135491   4.971   1.141   0.718 -0.6793  0.9830 -1.2028
 4644TIP3    H235492   4.929   1.259   0.804 -0.2386  0.1374  0.2145
 4645TIP3   OH235493   1.657   5.177   1.970  0.0259 -0.1801  0.4063
 4645TIP3    H135494   1.703   5.180   2.053  0.7033  1.1205  0.0214
 4645TIP3    H235495   1.713   5.126   1.912  1.5161  2.0881 -0.3028
 4646TIP3   OH235496   4.975   2.195   6.432  0.1804 -0.2688  0.0988
 4646TIP3    H135497   4.916   2.131   6.471  1.0079 -1.0125  0.1746
 4646TIP3    H235498   5.063   2.161   6.451  0.6258  0.5173 -0.4871
 4647TIP3   OH235499   2.773   2.608   0.842 -0.5373  0.3186 -0.1608
 4647TIP3    H135500   2.713   2.539   0.871 -1.4982  1.5639  0.9033
 4647TIP3    H235501   2.770   2.674   0.911  1.6880  0.6856 -0.3160
 4648TIP3   OH235502   3.244   4.973   6.227 -0.7600 -0.2383  0.3599
 4648TIP3    H135503   3.294   5.048   6.259  0.6152 -0.0667 -1.9227
 4648TIP3    H235504   3.166   5.011   6.187  0.1759  0.0875 -1.2365
 4649TIP3   OH235505   4.939   4.855   8.081  0.0410  0.0669  0.3758
 4649TIP3    H135506   4.920   4.897   7.997 -1.5120  0.3844  0.8584
 4649TIP3    H235507   5.027   4.819   8.070 -1.1781 -2.5330 -2.4801
 4650TIP3   OH235508   3.093   5.353   7.787 -0.1523  1.3409  0.1539
 4650TIP3    H135509   3.181   5.369   7.753  0.2926 -0.0812  0.5395
 4650TIP3    H235510   3.042   5.327   7.710  0.4836 -0.4368  0.2669
 4651TIP3   OH235511   3.046   4.333   0.981 -0.0727  0.3054  0.1598
 4651TIP3    H135512   3.049   4.245   1.018  0.0615  0.8452  1.4682
 4651TIP3    H235513   2.952   4.352   0.972 -0.1208 -0.4433 -1.3730
 4652TIP3   OH235514   2.963   6.126   1.422  0.1655  0.1387 -0.0758
 4652TIP3    H135515   3.027   6.169   1.479  0.7113 -0.4260 -0.2471
 4652TIP3    H235516   2.880   6.132   1.469  0.5852 -0.2076  0.7184
 4653TIP3   OH235517   0.419   6.179   8.358  0.2832  0.1915  0.1117
 4653TIP3    H135518   0.412   6.100   8.412 -1.1064  1.6128  2.1783
 4653TIP3    H235519   0.355   6.165   8.288 -1.2855  0.1578  1.4713
 4654TIP3   OH235520   3.582   3.145   2.781  0.7854 -0.0885 -0.5271
 4654TIP3    H135521   3.550   3.064   2.821  0.4874  0.6983  0.8683
 4654TIP3    H235522   3.677   3.138   2.786  0.7490  0.4689  1.3321
 4655TIP3   OH235523   4.123   5.585   1.662 -0.3469  0.1102 -0.1777
 4655TIP3    H135524   4.216   5.564   1.649 -0.4583 -1.6379  1.5167
 4655TIP3    H235525   4.094   5.526   1.732 -2.5077  1.2847  0.0024
 4656TIP3   OH235526   6.806   2.724   1.752 -0.4847  0.2261 -0.3177
 4656TIP3    H135527   6.843   2.704   1.666 -0.8816  2.3367 -1.0414
 4656TIP3    H235528   6.711   2.723   1.738 -0.5348  2.2490 -0.3810
 4657TIP3   OH235529   4.437   4.695   7.822  0.3533 -0.2522 -0.2957
 4657TIP3    H135530   4.358   4.736   7.788  1.1389  0.8119 -0.9306
 4657TIP3    H235531   4.485   4.767   7.864  1.4347 -0.6559 -0.8045
 4658TIP3   OH235532   4.016   3.395   1.598 -0.4045 -0.2384  0.3411
 4658TIP3    H135533   4.076   3.468   1.613 -1.4382  0.7604 -0.1575
 4658TIP3    H235534   3.975   3.415   1.514 -0.3415 -1.6810 -0.0555
 4659TIP3   OH235535   5.346   4.050   6.525  0.1885  0.0369  0.3317
 4659TIP3    H135536   5.383   3.967   6.495  0.6566  0.7388 -1.0975
 4659TIP3    H235537   5.411   4.085   6.585  0.0465 -0.5662  0.8448
 4660TIP3   OH235538   4.658   3.256   0.644  0.0503 -0.1998 -0.3772
 4660TIP3    H135539   4.705   3.202   0.709  0.4695 -1.6631 -1.8283
 4660TIP3    H235540   4.566   3.248   0.669 -0.0170 -2.4256 -1.0616
 4661TIP3   OH235541   6.680   2.764   7.492  0.4289  0.1647 -0.4239
 4661TIP3    H135542   6.728   2.749   7.411  0.1173 -1.0505 -0.4014
 4661TIP3    H235543   6.594   2.793   7.464 -0.1644 -1.6278 -0.6223
 4662TIP3   OH235544   1.312   3.614   8.292  0.7187  0.2828 -0.5055
 4662TIP3    H135545   1.250   3.675   8.254 -0.0947 -0.0357  0.2766
 4662TIP3    H235546   1.266   3.530   8.292  2.0379 -0.5011 -2.1270
 4663TIP3   OH235547   5.620   5.027   1.282  0.3792  0.1243 -0.6290
 4663TIP3    H135548   5.608   5.041   1.377  3.1320  0.2328 -0.2398
 4663TIP3    H235549   5.691   5.086   1.258 -1.2463  1.1949 -3.1385
 4664TIP3   OH235550   1.129   5.157   1.013 -0.2324  0.3125  0.3287
 4664TIP3    H135551   1.084   5.198   0.939 -0.2788 -0.8898 -0.3286
 4664TIP3    H235552   1.058   5.120   1.066 -0.2117  1.3176  1.0871
 4665TIP3   OH235553   0.647   5.876   6.676  0.1385 -0.1205  0.0698
 4665TIP3    H135554   0.623   5.933   6.750  0.2675 -0.4206  0.3454
 4665TIP3    H235555   0.564   5.862   6.630  0.0076 -0.1500  0.3107
 4666TIP3   OH235556   5.793   4.317   0.673 -1.0715  0.4495  0.8461
 4666TIP3    H135557   5.775   4.389   0.613 -0.1470 -0.8008 -1.0202
 4666TIP3    H235558   5.735   4.246   0.644  0.2268 -0.5578  0.6370
 4667TIP3   OH235559   5.369   2.944   0.065  0.3155 -0.4633 -0.0526
 4667TIP3    H135560   5.283   2.987   0.070  0.7879  0.4545  0.3403
 4667TIP3    H235561   5.378   2.900   0.150  0.8135  0.5893  0.4579
 4668TIP3   OH235562   4.667   1.729   1.368 -0.3338  0.1842 -0.3515
 4668TIP3    H135563   4.719   1.771   1.300 -0.9068 -0.3171 -1.1191
 4668TIP3    H235564   4.633   1.801   1.421 -2.0146  0.8016 -2.1536
 4669TIP3   OH235565   0.430   1.873   6.505 -0.3496 -0.0734  0.7111
 4669TIP3    H135566   0.387   1.806   6.453  0.2512 -0.9514  1.3286
 4669TIP3    H235567   0.390   1.955   6.476 -0.5570 -0.6138 -0.5850
 4670TIP3   OH235568   4.117   1.718   7.935 -0.1252  0.5344 -0.4096
 4670TIP3    H135569   4.188   1.669   7.977  2.4684  1.7147 -3.0526
 4670TIP3    H235570   4.075   1.656   7.876 -1.8702 -0.3353  1.5977
 4671TIP3   OH235571   4.210   6.781   1.424  0.1357  0.0428  0.6330
 4671TIP3    H135572   4.207   6.823   1.510  2.1571  1.2450  0.1920
 4671TIP3    H235573   4.169   6.695   1.437  1.2967 -0.2269  3.0658
 4672TIP3   OH235574   4.846   4.896   1.321  0.2501  0.3081  0.1006
 4672TIP3    H135575   4.872   4.987   1.334 -0.6625  0.3868  1.5911
 4672TIP3    H235576   4.888   4.849   1.393 -0.7449 -0.1473  0.3941
 4673TIP3   OH235577   2.029   1.828   7.618  0.4672 -0.3552 -0.3736
 4673TIP3    H135578   1.940   1.812   7.651  0.9173  0.2756  1.2003
 4673TIP3    H235579   2.082   1.760   7.658  0.6747 -0.8717 -1.4988
 4674TIP3   OH235580   2.621   6.237   0.562 -0.1637  0.5764 -0.5800
 4674TIP3    H135581   2.545   6.214   0.509 -0.1954 -1.3483  0.2418
 4674TIP3    H235582   2.631   6.165   0.624  0.8146  1.9986  1.0223
 4675TIP3   OH235583   1.657   3.448   7.050 -0.3566  0.1579  0.1490
 4675TIP3    H135584   1.609   3.366   7.065  0.6533 -0.3739  0.6184
 4675TIP3    H235585   1.749   3.422   7.055 -0.0086  1.5289  1.4535
 4676TIP3   OH235586   0.991   5.746   8.018 -0.7469 -0.0063 -0.0964
 4676TIP3    H135587   0.972   5.653   8.022 -0.4337 -0.0317  1.9257
 4676TIP3    H235588   1.054   5.761   8.088 -2.3778  2.0604  1.0635
 4677TIP3   OH235589   5.004   6.345   8.050  0.0439  0.0314  0.0022
 4677TIP3    H135590   5.038   6.299   8.126  2.0109 -0.4687 -1.1158
 4677TIP3    H235591   4.929   6.293   8.022  0.2247 -0.6192  0.6905
 4678TIP3   OH235592   1.226   4.308   0.347 -0.3603 -0.6955 -0.4425
 4678TIP3    H135593   1.210   4.223   0.387 -0.0961 -0.3118  0.5145
 4678TIP3    H235594   1.280   4.289   0.271 -2.7601 -1.7015 -2.0154
 4679TIP3   OH235595   1.285   6.668   7.196  0.2926 -0.1651  0.5181
 4679TIP3    H135596   1.335   6.724   7.137 -0.4800 -1.0779 -1.0536
 4679TIP3    H235597   1.211   6.722   7.224  1.9940  1.1636  2.7889
 4680TIP3   OH235598   4.048   4.171   0.433 -0.2786  0.0118 -0.3508
 4680TIP3    H135599   4.054   4.250   0.487 -2.7106 -0.0590  0.1582
 4680TIP3    H235600   4.034   4.203   0.344 -0.1703  0.1375 -0.3229
 4681TIP3   OH235601   2.297   4.050   2.557  0.3814 -0.1981 -0.6456
 4681TIP3    H135602   2.262   4.122   2.609 -0.6252 -1.3681  0.3772
 4681TIP3    H235603   2.380   4.082   2.523 -0.8728  2.0915 -1.7505
 4682TIP3   OH235604   0.025   0.531   0.019  0.1266  0.2759 -0.1421
 4682TIP3    H135605   0.018   0.516  -0.075 -2.2000  0.1857 -0.0158
 4682TIP3    H235606   0.054   0.622   0.026 -2.4005  1.2486 -1.0302
 4683TIP3   OH235607   1.424   3.366   0.717 -0.1132 -0.2872 -0.0984
 4683TIP3    H135608   1.487   3.438   0.722  1.4635 -1.6523  1.5111
 4683TIP3    H235609   1.416   3.347   0.624  1.6768  0.1340 -0.3783
 4684TIP3   OH235610   0.323   0.688   6.837  0.2612  0.4204  0.3563
 4684TIP3    H135611   0.232   0.686   6.807  0.8305 -1.2425 -1.4893
 4684TIP3    H235612   0.366   0.752   6.780  1.4298 -3.0147 -3.0454
 4685TIP3   OH235613   1.407   4.876   7.418 -0.3324  0.4528 -0.0764
 4685TIP3    H135614   1.379   4.963   7.390 -1.2055 -0.0129 -0.6908
 4685TIP3    H235615   1.386   4.819   7.344 -0.3892 -0.3907  0.5748
 4686TIP3   OH235616   5.590   0.960   7.641 -0.1239  0.1377  0.5763
 4686TIP3    H135617   5.513   1.016   7.640  1.3261  2.3023 -1.6134
 4686TIP3    H235618   5.664   1.021   7.651  1.4196 -1.6781  0.8737
 4687TIP3   OH235619   2.617   3.151   1.551 -0.4326 -0.1638 -0.0110
 4687TIP3    H135620   2.521   3.149   1.551 -0.5384  2.0414  1.1565
 4687TIP3    H235621   2.643   3.063   1.576 -2.1389 -0.8644 -0.5616
 4688TIP3   OH235622   4.208   2.071   2.258  0.0402 -0.1119  0.3022
 4688TIP3    H135623   4.224   2.004   2.325 -0.0403 -0.2198  0.2140
 4688TIP3    H235624   4.211   2.023   2.175 -1.3610 -0.2520  0.3175
 4689TIP3   OH235625   4.771   2.705   0.805 -0.4903  0.2226 -0.6166
 4689TIP3    H135626   4.820   2.643   0.859 -0.2767  0.1736 -0.8631
 4689TIP3    H235627   4.810   2.696   0.718 -0.6347  0.5139 -0.7112
 4690TIP3   OH235628   1.266   1.263   0.584  0.2810 -0.6835  0.4975
 4690TIP3    H135629   1.282   1.344   0.631 -1.1531  0.0428 -0.2039
 4690TIP3    H235630   1.205   1.287   0.514  1.7624 -1.8576 -1.2911
 4691TIP3   OH235631   2.966   1.498   7.268 -0.2796 -0.2811  0.1159
 4691TIP3    H135632   2.901   1.428   7.267 -0.8955  0.2069  1.7378
 4691TIP3    H235633   3.021   1.479   7.343 -0.2242  0.7478  0.3553
 4692TIP3   OH235634   1.394   2.617   0.486 -0.3254  0.1709 -0.0779
 4692TIP3    H135635   1.311   2.663   0.491 -1.1718 -0.5188 -3.9273
 4692TIP3    H235636   1.379   2.534   0.530 -1.0979  0.7115  0.6992
 4693TIP3   OH235637   2.556   2.974   8.558  0.1671  0.0528  0.2007
 4693TIP3    H135638   2.505   2.983   8.638  1.7571  2.2877  1.0410
 4693TIP3    H235639   2.645   2.958   8.588  0.9257  1.6434 -1.0755
 4694TIP3   OH235640   2.647   4.015   1.768 -0.3460 -0.0380 -0.4795
 4694TIP3    H135641   2.681   3.999   1.856 -0.4700 -1.4273 -0.6666
 4694TIP3    H235642   2.562   4.055   1.783  0.1356  0.8309  0.0142
 4695TIP3   OH235643   3.545   2.525   8.059 -0.5806  0.3226  0.2865
 4695TIP3    H135644   3.575   2.449   8.109 -1.1570  0.6588  1.1726
 4695TIP3    H235645   3.614   2.590   8.070 -0.8201  0.4858  0.8823
 4696TIP3   OH235646   4.429   4.464   7.291 -0.0306  0.5542 -0.4764
 4696TIP3    H135647   4.476   4.387   7.325  2.1652  1.1630 -1.9312
 4696TIP3    H235648   4.498   4.519   7.254 -1.5220  3.3517  0.6781
 4697TIP3   OH235649   1.824   1.990   2.179  0.3041  0.6656 -0.2415
 4697TIP3    H135650   1.916   2.009   2.196  0.4465  0.6154 -0.9519
 4697TIP3    H235651   1.787   2.073   2.151 -0.2687  1.1011  1.6242
 4698TIP3   OH235652   6.124   2.400   7.648  0.0714  0.0720 -0.2487
 4698TIP3    H135653   6.081   2.338   7.590 -1.2562 -0.3597  1.1404
 4698TIP3    H235654   6.060   2.419   7.717  1.0759  1.6360  0.3315
 4699TIP3   OH235655   4.067   1.856   7.539  0.3988 -0.0649  0.3876
 4699TIP3    H135656   4.139   1.796   7.560 -1.5821 -2.3680  1.1132
 4699TIP3    H235657   4.110   1.935   7.508  3.2224 -1.4068  0.5461
 4700TIP3   OH235658   6.382   4.376   8.521  0.1614  0.3509 -0.1313
 4700TIP3    H135659   6.322   4.446   8.496 -0.2294  0.0421 -0.0731
 4700TIP3    H235660   6.346   4.342   8.604 -0.0189 -0.3318 -0.4773
 4701TIP3   OH235661   0.033   3.265   1.445 -0.1531  0.7347  0.1880
 4701TIP3    H135662   0.068   3.184   1.408 -1.0935 -0.1446  1.1570
 4701TIP3    H235663   0.012   3.319   1.369 -1.6521 -0.8441 -0.5992
 4702TIP3   OH235664   5.607   6.146   0.663 -0.3077 -0.0402 -0.3584
 4702TIP3    H135665   5.519   6.183   0.654 -0.6357 -0.8332 -0.4782
 4702TIP3    H235666   5.612   6.080   0.594  0.3987  0.0288 -0.3768
 4703TIP3   OH235667   3.956   2.575   1.220  0.2100  0.0794 -0.1492
 4703TIP3    H135668   3.933   2.505   1.160 -0.0922 -1.1510  1.3308
 4703TIP3    H235669   4.052   2.575   1.222  0.2119 -0.5561  0.1107
 4704TIP3   OH235670   3.813   4.502   7.705  0.1348  0.7968 -0.0447
 4704TIP3    H135671   3.884   4.565   7.715  1.3424 -0.6125  0.5512
 4704TIP3    H235672   3.733   4.555   7.710  1.1054  2.2734  0.3860
 4705TIP3   OH235673   1.301   6.100   8.541 -0.1023 -0.2521  0.0105
 4705TIP3    H135674   1.229   6.071   8.485 -0.8394  1.1582  0.1746
 4705TIP3    H235675   1.260   6.115   8.626  0.0506  1.9555 -0.2605
 4706TIP3   OH235676   3.869   2.887   7.211 -0.6844 -0.2788  0.5363
 4706TIP3    H135677   3.914   2.968   7.231 -1.7716  0.6916 -0.7745
 4706TIP3    H235678   3.939   2.823   7.196  0.1862 -0.0230  3.0234
 4707TIP3   OH235679   1.998   4.148   6.337  0.2031  0.5354  0.0832
 4707TIP3    H135680   1.942   4.176   6.409  0.4381  0.9998  0.0860
 4707TIP3    H235681   2.014   4.055   6.353 -2.7585 -0.3346 -1.3311
 4708TIP3   OH235682   1.707   3.158   0.508 -0.0234 -0.2614  0.1261
 4708TIP3    H135683   1.739   3.245   0.484  0.0837 -0.0460  1.0253
 4708TIP3    H235684   1.683   3.165   0.600  0.5457 -1.3479  0.3748
 4709TIP3   OH235685   4.416   0.916   7.017  0.1303 -0.0055 -0.3501
 4709TIP3    H135686   4.404   0.967   7.096  0.6987  0.8826 -0.8193
 4709TIP3    H235687   4.335   0.864   7.009  1.1705 -2.2308  2.2661
 4710TIP3   OH235688   4.416   0.127   1.344  0.6656 -0.4442  0.5903
 4710TIP3    H135689   4.409   0.133   1.248  0.5690  0.6146  0.6458
 4710TIP3    H235690   4.426   0.034   1.362 -0.0087 -0.7207 -0.4074
 4711TIP3   OH235691   4.298   1.050   0.477  0.1027 -0.4481 -0.3866
 4711TIP3    H135692   4.292   1.138   0.440  1.0958  0.2273  0.9621
 4711TIP3    H235693   4.311   0.993   0.402 -0.2061  0.5956 -1.2523
 4712TIP3   OH235694   5.585   2.268   0.520  0.0160 -0.4737 -0.4660
 4712TIP3    H135695   5.530   2.340   0.491  0.5577  0.1512  0.0455
 4712TIP3    H235696   5.647   2.255   0.448 -1.2266 -1.6773 -1.3821
 4713TIP3   OH235697   5.499   4.067   6.970 -0.4936  0.1529  0.2840
 4713TIP3    H135698   5.487   4.035   7.060 -1.7849 -1.3756 -0.3834
 4713TIP3    H235699   5.573   4.018   6.936  0.0606  0.8057  0.5294
 4714TIP3   OH235700   2.585   5.571   7.094  0.6869 -0.2724  1.2258
 4714TIP3    H135701   2.519   5.589   7.027  1.2064 -0.1139  0.7495
 4714TIP3    H235702   2.539   5.583   7.177  0.1344 -0.1109  0.9015
 4715TIP3   OH235703   4.162   1.333   6.688 -0.9892  0.6589 -0.5695
 4715TIP3    H135704   4.180   1.415   6.641 -0.9146  0.8217 -0.2580
 4715TIP3    H235705   4.101   1.286   6.631  1.5347 -0.6183 -2.4271
 4716TIP3   OH235706   6.322   6.019   0.179 -0.2080 -0.3604 -0.5250
 4716TIP3    H135707   6.300   6.061   0.096 -1.0161 -3.4405 -2.0320
 4716TIP3    H235708   6.352   5.932   0.154 -0.3186 -1.3632  2.4343
 4717TIP3   OH235709   4.579   1.341   7.868  0.1433  0.3403  0.0972
 4717TIP3    H135710   4.653   1.401   7.862  1.0960 -0.8244 -0.0962
 4717TIP3    H235711   4.595   1.290   7.947 -0.5265  0.1522  0.1237
 4718TIP3   OH235712   3.218   1.387   1.624  0.1831  0.1983 -0.5117
 4718TIP3    H135713   3.269   1.311   1.598  0.3652 -0.0783  0.6166
 4718TIP3    H235714   3.243   1.404   1.715  0.7180  2.0728 -0.9460
 4719TIP3   OH235715   3.377   6.531   1.216 -0.3188 -0.1347 -0.0219
 4719TIP3    H135716   3.400   6.482   1.295  0.5173  1.1744  0.5623
 4719TIP3    H235717   3.445   6.597   1.207 -0.7155  0.1140 -1.5310
 4720TIP3   OH235718   0.359   0.964   1.106  0.7421 -0.6180  0.1526
 4720TIP3    H135719   0.408   0.978   1.025  0.4056 -0.4830 -0.0281
 4720TIP3    H235720   0.314   1.047   1.121 -0.1268 -1.0215 -0.1479
 4721TIP3   OH235721   0.829   3.836   0.939  0.2531  0.5091  0.2284
 4721TIP3    H135722   0.835   3.741   0.942 -0.0244  0.3524 -2.1122
 4721TIP3    H235723   0.765   3.859   1.007  1.2993 -0.8211  1.7138
 4722TIP3   OH235724   1.648   4.151   1.551 -0.1276 -0.1201 -0.0704
 4722TIP3    H135725   1.596   4.193   1.619  0.7000  0.1700  0.3963
 4722TIP3    H235726   1.733   4.136   1.591 -0.1270 -1.4261 -0.5274
 4723TIP3   OH235727   2.472   5.980   1.601 -0.0273  0.4311  0.5060
 4723TIP3    H135728   2.501   6.049   1.661  0.8656  0.4128  0.1135
 4723TIP3    H235729   2.530   5.906   1.619  0.1860  0.3902 -0.3118
 4724TIP3   OH235730   4.476   1.512   7.229  0.4024  0.0001  0.4106
 4724TIP3    H135731   4.422   1.519   7.151  0.3616 -0.2306  0.4162
 4724TIP3    H235732   4.460   1.423   7.261  1.3632 -0.3369 -0.0177
 4725TIP3   OH235733   6.540   3.918   6.604  0.3599 -0.3288  0.1627
 4725TIP3    H135734   6.549   4.013   6.609 -0.4576 -0.3019  1.7062
 4725TIP3    H235735   6.472   3.904   6.538  1.2297  0.0849 -0.8552
 4726TIP3   OH235736   6.679   5.482   1.453 -0.5727 -0.3787 -0.1664
 4726TIP3    H135737   6.687   5.532   1.534 -0.8739 -0.3015 -0.1813
 4726TIP3    H235738   6.767   5.482   1.415 -0.3086 -0.8617  0.4253
 4727TIP3   OH235739   2.178   0.148   1.612 -0.3719 -0.0051  0.2286
 4727TIP3    H135740   2.126   0.078   1.653 -1.4181  0.5877 -0.0413
 4727TIP3    H235741   2.186   0.121   1.521  0.1609 -0.2943  0.3550
 4728TIP3   OH235742   1.360   6.031   1.199  0.1056 -0.3638 -0.1289
 4728TIP3    H135743   1.355   5.955   1.257  1.3332  0.4546  1.0989
 4728TIP3    H235744   1.453   6.052   1.195 -0.3320  2.3450  1.3051
 4729TIP3   OH235745   0.006   6.154   1.926 -0.1312 -0.0137  0.0761
 4729TIP3    H135746  -0.073   6.207   1.913 -0.7508 -1.2709 -1.7221
 4729TIP3    H235747  -0.026   6.072   1.963  0.6696  0.3914  1.7299
 4730TIP3   OH235748   3.017   1.360   2.006  0.3349 -0.8677  0.0269
 4730TIP3    H135749   2.936   1.317   2.034  0.5682 -0.8946  0.6520
 4730TIP3    H235750   3.069   1.290   1.967 -0.1396 -0.7613 -0.8250
 4731TIP3   OH235751   0.290   1.793   0.988  0.5151 -0.4580 -0.5203
 4731TIP3    H135752   0.221   1.781   0.924 -0.4187  3.0983 -0.3308
 4731TIP3    H235753   0.247   1.785   1.073  1.3792 -3.1335 -0.2262
 4732TIP3   OH235754   0.342   1.201   8.016  0.2637  0.0093 -0.0069
 4732TIP3    H135755   0.332   1.285   8.061  2.3488  1.0141 -1.2787
 4732TIP3    H235756   0.423   1.164   8.051  0.3609 -0.5724 -0.8073
 4733TIP3   OH235757   3.307   2.018   6.499 -0.2700  0.0346  0.1821
 4733TIP3    H135758   3.250   1.951   6.537 -0.0204  0.6691  1.7421
 4733TIP3    H235759   3.258   2.049   6.423 -0.9675 -1.0118  0.1656
 4734TIP3   OH235760   0.927   5.458   7.972 -1.3538 -0.0189  0.4390
 4734TIP3    H135761   0.945   5.412   7.890 -1.4841 -1.8625  1.3955
 4734TIP3    H235762   0.848   5.417   8.006 -0.6703 -0.1012  2.0415
 4735TIP3   OH235763   0.292   4.519   7.321  0.2948 -0.0081  0.0104
 4735TIP3    H135764   0.338   4.602   7.333  1.4436 -0.4972 -0.7808
 4735TIP3    H235765   0.360   4.453   7.336 -0.9833 -0.9119  2.4595
 4736TIP3   OH235766   5.133   4.470   8.403 -0.4967  0.3407 -0.3203
 4736TIP3    H135767   5.143   4.380   8.435 -0.8784  0.5849  0.4926
 4736TIP3    H235768   5.221   4.508   8.411 -0.2724 -0.0361 -0.9204
 4737TIP3   OH235769   0.941   3.316   1.583 -0.1046  0.0272  0.2561
 4737TIP3    H135770   0.850   3.306   1.556 -0.2550 -2.9665  1.4893
 4737TIP3    H235771   0.990   3.259   1.524  0.9410  1.1259  0.0083
 4738TIP3   OH235772   5.643   5.391   7.116 -0.0282 -0.1512  0.5708
 4738TIP3    H135773   5.643   5.472   7.166 -0.9057 -0.1625  0.6163
 4738TIP3    H235774   5.611   5.416   7.029  0.0343 -0.3810  0.4790
 4739TIP3   OH235775   4.861   0.701   2.610 -0.4775  0.0515  0.3506
 4739TIP3    H135776   4.895   0.686   2.522  0.0119 -0.2345  0.5819
 4739TIP3    H235777   4.938   0.721   2.663 -0.7816  0.3448  0.6906
 4740TIP3   OH235778   1.085   5.957   1.612  0.1294 -0.0131  0.0670
 4740TIP3    H135779   1.098   5.884   1.673 -0.1915 -0.9513 -0.9588
 4740TIP3    H235780   0.990   5.958   1.597  0.1070  0.7423  0.1997
 4741TIP3   OH235781   2.678   6.268   6.780  0.0806 -0.5359 -0.4105
 4741TIP3    H135782   2.768   6.267   6.746 -0.4096  1.4685 -1.9718
 4741TIP3    H235783   2.625   6.233   6.708 -0.5879  0.1378 -0.2581
 4742TIP3   OH235784   3.296   4.734   7.681 -0.2417  0.3379  0.2516
 4742TIP3    H135785   3.328   4.703   7.596 -0.4989 -2.0475  0.9628
 4742TIP3    H235786   3.201   4.737   7.671 -0.2505  0.3853  0.3534
 4743TIP3   OH235787   4.510   3.338   8.361  0.9528 -0.4935  0.2387
 4743TIP3    H135788   4.502   3.417   8.308  0.4997  0.2211  1.3164
 4743TIP3    H235789   4.433   3.339   8.417  2.0727 -0.4643  1.8602
 4744TIP3   OH235790   2.227   0.130   7.518 -0.5207  0.5313 -0.1258
 4744TIP3    H135791   2.213   0.173   7.602 -0.1334  0.7177 -0.1565
 4744TIP3    H235792   2.184   0.188   7.454 -0.6244  0.5020 -0.0822
 4745TIP3   OH235793   5.823   5.933   7.570 -0.2553 -0.1229 -0.0073
 4745TIP3    H135794   5.891   5.935   7.503 -1.3919 -1.7968 -1.3127
 4745TIP3    H235795   5.863   5.974   7.646  1.8199 -0.0735 -1.0520
 4746TIP3   OH235796   4.298   2.679   7.539  0.2276  0.3096  0.1617
 4746TIP3    H135797   4.282   2.678   7.445  3.5668  1.2629 -0.5743
 4746TIP3    H235798   4.380   2.631   7.549 -0.2628 -0.1270  2.6859
 4747TIP3   OH235799   0.353   0.743   8.125 -0.2559  0.0725  0.1579
 4747TIP3    H135800   0.335   0.656   8.088 -0.7371 -0.0602  0.6999
 4747TIP3    H235801   0.422   0.728   8.190  1.3787  0.4711 -1.4089
 4748TIP3   OH235802   4.750   6.631   8.155 -0.1524  0.5674 -0.0715
 4748TIP3    H135803   4.719   6.721   8.140  2.4239  1.2311 -2.0757
 4748TIP3    H235804   4.809   6.638   8.230  2.3765  1.2880 -1.9767
 4749TIP3   OH235805   0.878   2.971   6.780 -0.3558  0.1949 -0.2940
 4749TIP3    H135806   0.792   2.945   6.749 -0.0480 -0.3908 -0.6684
 4749TIP3    H235807   0.936   2.899   6.753  0.1106  0.2118  0.6275
 4750TIP3   OH235808   6.000   0.380   6.735  0.4061 -0.2333  0.5485
 4750TIP3    H135809   5.948   0.455   6.707  1.1719  0.1090  0.0410
 4750TIP3    H235810   6.039   0.346   6.654  0.7250 -0.6749  0.8846
 4751TIP3   OH235811   4.003   5.454   8.603  0.4180  0.1735 -0.6691
 4751TIP3    H135812   3.967   5.512   8.536 -0.7242  0.4306  0.1263
 4751TIP3    H235813   4.029   5.513   8.674  1.7871 -0.0759 -0.9283
 4752TIP3   OH235814   1.317   3.301   0.198 -0.6604 -0.2193  0.2260
 4752TIP3    H135815   1.287   3.386   0.165 -0.1402  0.0608  0.4626
 4752TIP3    H235816   1.253   3.238   0.164  0.9375 -0.2649 -3.1297
 4753TIP3   OH235817   3.788   0.177   7.406 -0.0315  0.4459  0.0751
 4753TIP3    H135818   3.696   0.197   7.390 -0.7245 -0.1240  2.8603
 4753TIP3    H235819   3.824   0.257   7.444  0.0856  0.0117  0.8883
 4754TIP3   OH235820   4.586   2.594   7.444  0.4573  0.1888  0.4567
 4754TIP3    H135821   4.618   2.626   7.529  2.4123 -1.4160  0.4062
 4754TIP3    H235822   4.614   2.503   7.441 -2.2298 -0.7093 -0.6753
 4755TIP3   OH235823   2.990   0.535   0.398  0.2971  0.1830 -0.6473
 4755TIP3    H135824   2.986   0.545   0.493  0.4045  0.0430 -0.6278
 4755TIP3    H235825   2.899   0.545   0.369 -0.3799 -3.3050 -0.1589
 4756TIP3   OH235826   1.662   2.467   6.892  0.3599 -0.1810  0.5056
 4756TIP3    H135827   1.575   2.466   6.932 -0.0556  0.5706 -0.3348
 4756TIP3    H235828   1.689   2.375   6.889 -2.3343 -1.0671 -3.2442
 4757TIP3   OH235829   4.422   2.540   0.562 -0.0103 -0.0567  0.4306
 4757TIP3    H135830   4.356   2.473   0.577 -0.6076  0.3091 -0.4615
 4757TIP3    H235831   4.449   2.568   0.649 -0.1943 -1.0224  0.8045
 4758TIP3   OH235832   4.506   3.967   6.171  0.9634 -0.1271  0.2017
 4758TIP3    H135833   4.474   4.005   6.090 -2.5196 -1.4865  0.7509
 4758TIP3    H235834   4.434   3.979   6.233  2.4433 -1.4845  2.3245
 4759TIP3   OH235835   2.244   3.914   1.230 -0.5747 -0.2841  0.1048
 4759TIP3    H135836   2.331   3.949   1.250  0.3330 -1.1857 -1.9377
 4759TIP3    H235837   2.211   3.971   1.160 -1.6698  0.0561  0.8650
 4760TIP3   OH235838   5.154   6.319   7.392  0.2846  0.0271 -0.1643
 4760TIP3    H135839   5.247   6.325   7.415 -0.1403  0.4373  1.6336
 4760TIP3    H235840   5.132   6.404   7.355  0.4721  0.1843  0.0810
 4761TIP3   OH235841   6.567   5.099   1.306 -0.4230  0.0090  0.2429
 4761TIP3    H135842   6.564   5.184   1.262  1.9220  0.8075  1.4701
 4761TIP3    H235843   6.513   5.110   1.384  0.9117  0.8524  1.0824
 4762TIP3   OH235844   6.656   5.420   6.548 -1.1265  0.1148 -0.1074
 4762TIP3    H135845   6.652   5.353   6.480 -0.6787  0.0204 -0.0441
 4762TIP3    H235846   6.569   5.418   6.588 -1.4577  0.3081 -0.8045
 4763TIP3   OH235847   3.131   3.939   6.324 -0.4788 -0.3410 -0.0465
 4763TIP3    H135848   3.140   3.984   6.409 -2.3366 -1.2446  0.7008
 4763TIP3    H235849   3.220   3.919   6.298  0.1221 -1.1692  2.3500
 4764TIP3   OH235850   2.429   0.860   0.204  0.0192 -0.3613  0.4862
 4764TIP3    H135851   2.467   0.780   0.239  1.4838  0.6915  1.3784
 4764TIP3    H235852   2.416   0.916   0.280 -3.2851 -0.5767  0.2412
 4765TIP3   OH235853   6.781   2.980   6.998 -0.2360 -0.0494  0.7578
 4765TIP3    H135854   6.788   2.990   7.093  2.7640  0.8462  0.5439
 4765TIP3    H235855   6.829   3.054   6.962 -1.8673  0.0039 -1.5227
 4766TIP3   OH235856   0.245   5.119   8.181  1.0061 -0.2110 -0.5811
 4766TIP3    H135857   0.199   5.118   8.098  1.1129  0.1707 -0.6434
 4766TIP3    H235858   0.257   5.026   8.203  3.5252 -0.4135 -2.4025
 4767TIP3   OH235859   2.042   3.535   1.189 -0.7482 -0.5675 -0.2478
 4767TIP3    H135860   2.075   3.616   1.228 -2.2751 -0.2133  0.3616
 4767TIP3    H235861   2.113   3.505   1.132  0.1010  0.8387  0.0335
 4768TIP3   OH235862   4.071   0.285   0.506  0.0021 -0.1663  0.1029
 4768TIP3    H135863   4.122   0.305   0.585 -1.0012 -0.6629  0.8962
 4768TIP3    H235864   4.065   0.369   0.460  0.4140  0.1809  0.6637
 4769TIP3   OH235865   0.353   3.008   8.543  0.4889 -0.3358 -0.0262
 4769TIP3    H135866   0.380   3.069   8.474 -0.9123  0.4163  0.0503
 4769TIP3    H235867   0.290   3.058   8.595  0.8689 -1.1769  1.2883
 4770TIP3   OH235868   2.537   2.667   8.615 -0.0809 -0.7384 -0.0734
 4770TIP3    H135869   2.577   2.742   8.571 -2.5075 -0.0963 -1.3500
 4770TIP3    H235870   2.610   2.608   8.633  1.4405  0.3903 -2.1471
 4771TIP3   OH235871   0.044   3.522   0.490  0.2348 -0.2081 -0.1976
 4771TIP3    H135872  -0.028   3.481   0.442 -0.4408  2.1301 -1.3382
 4771TIP3    H235873   0.102   3.556   0.422  1.3916 -0.3073  0.7022
 4772TIP3   OH235874   6.829   6.668   0.578  0.0932 -0.4428 -0.2450
 4772TIP3    H135875   6.790   6.587   0.545 -0.0921 -0.5972  0.3305
 4772TIP3    H235876   6.919   6.666   0.548  1.1991 -2.6508  2.7185
 4773TIP3   OH235877   2.358   1.087   6.501 -0.8071 -0.7748 -0.2678
 4773TIP3    H135878   2.395   1.059   6.585 -0.7846 -1.9836 -0.6567
 4773TIP3    H235879   2.338   1.005   6.456 -1.6864 -0.1414 -1.0677
 4774TIP3   OH235880   0.286   6.283   6.540  0.3414  0.0700 -0.2119
 4774TIP3    H135881   0.362   6.230   6.562  0.2911  0.0404 -0.1114
 4774TIP3    H235882   0.314   6.333   6.463  0.4396  0.0105 -0.2155
 4775TIP3   OH235883   5.064   3.928   6.642  0.2274 -0.3346 -0.0297
 4775TIP3    H135884   5.030   3.846   6.605  0.9383 -0.5784 -0.1499
 4775TIP3    H235885   5.064   3.914   6.736 -1.4175  0.2212  0.0860
 4776TIP3   OH235886   1.589   0.497   1.954  0.2430  0.3887 -0.4843
 4776TIP3    H135887   1.587   0.571   2.015  0.2991 -0.3179  0.3847
 4776TIP3    H235888   1.674   0.456   1.967 -0.1368 -0.3646 -0.3112
 4777TIP3   OH235889   3.714   3.603   1.932 -0.1100 -0.0904  0.2812
 4777TIP3    H135890   3.796   3.647   1.954  0.1723  0.4826 -1.7108
 4777TIP3    H235891   3.652   3.633   1.998  0.9476  0.5487  1.0096
 4778TIP3   OH235892   1.164   6.245   7.711  0.0806 -0.0445 -0.1560
 4778TIP3    H135893   1.108   6.311   7.669 -1.8923 -1.3055  0.3691
 4778TIP3    H235894   1.166   6.172   7.649  1.2849  0.0089 -0.2107
 4779TIP3   OH235895   3.716   5.565   6.213 -0.0988  0.1069  0.1785
 4779TIP3    H135896   3.809   5.545   6.226  0.2017  1.7160  0.7706
 4779TIP3    H235897   3.714   5.612   6.129  0.0096  2.1267  1.2397
 4780TIP3   OH235898   1.329   5.026   2.125 -0.5038 -0.1312 -0.4924
 4780TIP3    H135899   1.271   5.045   2.051 -2.3524 -0.1234  0.8919
 4780TIP3    H235900   1.280   4.964   2.179 -1.2435  3.0842  2.9734
 4781TIP3   OH235901   1.326   1.340   8.533 -0.0348 -0.1506 -0.1727
 4781TIP3    H135902   1.254   1.393   8.566 -1.0786 -0.9547 -1.0767
 4781TIP3    H235903   1.380   1.401   8.483 -0.1591  0.4317  0.3914
 4782TIP3   OH235904   4.758   3.824   0.808  0.5064 -0.2111  0.2215
 4782TIP3    H135905   4.815   3.883   0.759  4.2772 -2.8437  0.9159
 4782TIP3    H235906   4.724   3.764   0.742 -0.3305  0.5138 -0.0188
 4783TIP3   OH235907   0.883   3.985   0.042  0.2171 -0.4962  0.1751
 4783TIP3    H135908   0.801   3.979  -0.008  1.2338 -0.6681 -1.5489
 4783TIP3    H235909   0.936   3.912   0.010  1.1321 -0.2688  1.1237
 4784TIP3   OH235910   5.848   0.356   7.496  0.0423  0.0764  0.3951
 4784TIP3    H135911   5.851   0.308   7.579  0.3582 -0.4435  0.0912
 4784TIP3    H235912   5.939   0.358   7.466  0.5049  3.1675  1.6526
 4785TIP3   OH235913   2.724   0.550   1.901 -0.3052  0.6048  0.6512
 4785TIP3    H135914   2.723   0.580   1.992 -0.0204 -0.0998  0.8870
 4785TIP3    H235915   2.644   0.499   1.891 -0.1844  0.4265  0.5924
 4786TIP3   OH235916   6.794   5.266   1.156  0.3421  0.3101  0.1673
 4786TIP3    H135917   6.878   5.251   1.112 -0.0088  1.1058 -0.8344
 4786TIP3    H235918   6.786   5.361   1.161 -0.1840  0.2365  0.8990
 4787TIP3   OH235919   4.192   3.481   8.089 -0.4268 -0.4657 -0.2869
 4787TIP3    H135920   4.193   3.385   8.090 -1.0761 -0.5088 -1.8970
 4787TIP3    H235921   4.100   3.504   8.103 -0.2016 -0.0512  0.5659
 4788TIP3   OH235922   0.537   0.383   1.747  0.3915  0.3552  0.0036
 4788TIP3    H135923   0.577   0.358   1.831 -0.4120 -2.5480 -0.3868
 4788TIP3    H235924   0.445   0.361   1.757 -0.5132  3.4661 -0.4296
 4789TIP3   OH235925   4.252   6.204   1.179  0.1144  0.2010  0.3940
 4789TIP3    H135926   4.313   6.206   1.253  1.9953 -0.2641 -1.0851
 4789TIP3    H235927   4.177   6.257   1.209  0.4446 -0.5936  2.9016
 4790TIP3   OH235928   3.607   3.740   1.432  0.2807  0.1284 -0.6756
 4790TIP3    H135929   3.609   3.832   1.458 -3.3466 -0.1343  1.1707
 4790TIP3    H235930   3.631   3.692   1.511 -2.0875 -0.5094 -0.2606
 4791TIP3   OH235931   6.141   0.341   2.219  0.2669 -0.1941 -0.3922
 4791TIP3    H135932   6.184   0.369   2.300  0.1964 -1.1695 -0.0046
 4791TIP3    H235933   6.210   0.345   2.153 -0.0392  2.1012 -0.6582
 4792TIP3   OH235934   4.943   1.356   7.107  0.0115 -0.4739  0.0466
 4792TIP3    H135935   5.010   1.372   7.041  0.3201  0.0489  0.4739
 4792TIP3    H235936   4.909   1.269   7.087 -1.5363  0.5618 -2.2112
 4793TIP3   OH235937   4.119   1.364   7.113  0.6231  0.0501  0.9286
 4793TIP3    H135938   4.032   1.325   7.118  0.7149 -0.1270  1.1779
 4793TIP3    H235939   4.154   1.334   7.029  0.3027  0.4249  0.6566
 4794TIP3   OH235940   6.158   5.617   1.280 -0.2866 -0.4427  0.1228
 4794TIP3    H135941   6.068   5.613   1.248  0.3022  0.9411 -1.9073
 4794TIP3    H235942   6.192   5.529   1.264 -0.5840 -0.3104 -1.4434
 4795TIP3   OH235943   4.594   5.654   8.296 -0.0937 -0.3516 -0.4992
 4795TIP3    H135944   4.534   5.720   8.329 -0.9909 -1.0987 -0.6159
 4795TIP3    H235945   4.614   5.682   8.207 -0.2261 -0.0775 -0.4448
 4796TIP3   OH235946   1.541   6.086   0.921  0.3450  0.2142 -1.2461
 4796TIP3    H135947   1.579   6.046   0.999  0.4923  1.8145 -0.4571
 4796TIP3    H235948   1.594   6.052   0.849  2.4582  1.2961 -0.3088
 4797TIP3   OH235949   4.975   1.718   8.518  0.1816 -0.7243  0.3384
 4797TIP3    H135950   5.066   1.739   8.538 -0.4173  1.3954  1.0509
 4797TIP3    H235951   4.928   1.800   8.532 -2.1234 -2.1894  1.7802
 4798TIP3   OH235952   1.727   0.877   0.334 -0.1694  0.6064 -0.2753
 4798TIP3    H135953   1.688   0.912   0.254 -0.7209  1.4011  0.3284
 4798TIP3    H235954   1.653   0.849   0.387  0.2399 -1.6059 -0.7511
 4799TIP3   OH235955   4.430   4.480   2.125  0.6450 -0.1217 -0.1568
 4799TIP3    H135956   4.374   4.515   2.056 -1.6006  0.3361  1.7653
 4799TIP3    H235957   4.401   4.389   2.136  0.9066 -0.1559  0.2634
 4800TIP3   OH235958   2.805   5.937   6.768  0.3024 -0.2544 -0.0656
 4800TIP3    H135959   2.718   5.943   6.806 -1.0298 -0.2615 -2.8520
 4800TIP3    H235960   2.848   6.019   6.790 -0.4442 -0.1906  1.1999
 4801TIP3   OH235961   0.976   3.198   6.638 -0.2075 -0.3386  0.2961
 4801TIP3    H135962   0.930   3.126   6.679 -0.0050 -0.8750 -0.3971
 4801TIP3    H235963   1.057   3.160   6.605 -1.3803 -0.5371 -2.6824
 4802TIP3   OH235964   1.728   4.438   7.172 -0.2409 -0.2760  0.3118
 4802TIP3    H135965   1.661   4.407   7.233 -1.1259 -0.7194 -0.8623
 4802TIP3    H235966   1.789   4.365   7.165 -0.1501 -0.2345  0.6309
 4803TIP3   OH235967   5.052   6.845   7.372  0.0712  0.2767  0.7135
 4803TIP3    H135968   5.011   6.841   7.458  2.5942  1.8486  2.1348
 4803TIP3    H235969   5.129   6.901   7.385  0.8825  0.1003 -2.4524
 4804TIP3   OH235970   3.932   6.659   7.727 -0.1313 -0.1628  0.6695
 4804TIP3    H135971   3.870   6.600   7.771 -0.6180 -0.2960 -0.1777
 4804TIP3    H235972   3.936   6.736   7.784 -0.4386 -0.5008  1.1575
 4805TIP3   OH235973   1.129   4.936   5.798 -0.5623 -0.0340 -0.2959
 4805TIP3    H135974   1.175   5.018   5.780  0.4800 -0.5990 -0.3023
 4805TIP3    H235975   1.152   4.914   5.888 -1.8920  0.3335  0.1486
 4806TIP3   OH235976   6.040   4.674   7.057 -0.8737 -0.5130 -0.0979
 4806TIP3    H135977   6.104   4.688   7.127  0.2240  0.1741 -1.2079
 4806TIP3    H235978   6.076   4.602   7.005 -1.5304 -0.8123 -0.1496
 4807TIP3   OH235979   0.585   4.970   8.206 -0.3850 -0.0958  0.2046
 4807TIP3    H135980   0.623   4.954   8.120 -0.1590  1.8160 -0.0898
 4807TIP3    H235981   0.491   4.952   8.194 -0.6088  1.5620 -0.8859
 4808TIP3   OH235982   1.618   0.829   0.619  0.2498  0.4329  0.1305
 4808TIP3    H135983   1.634   0.844   0.712  1.1246 -0.0127  0.0632
 4808TIP3    H235984   1.554   0.757   0.617  0.7594 -0.0354  0.3868
 4809TIP3   OH235985   6.769   6.427   2.582  0.0471 -0.2846  0.5307
 4809TIP3    H135986   6.702   6.359   2.577 -0.4028  0.2035 -0.4821
 4809TIP3    H235987   6.846   6.388   2.541  0.4900 -0.9337  1.9155
 4810TIP3   OH235988   5.952   2.463   1.098  0.1923  0.0785  0.5148
 4810TIP3    H135989   6.029   2.453   1.042 -0.2366 -0.3260 -0.0163
 4810TIP3    H235990   5.885   2.407   1.058  0.1839 -1.0471  2.0262
 4811TIP3   OH235991   1.591   0.576   1.274 -0.1308  0.0756 -0.5466
 4811TIP3    H135992   1.582   0.483   1.255 -3.9030 -0.6375  3.2784
 4811TIP3    H235993   1.665   0.582   1.334 -2.2238 -1.3037  2.4051
 4812TIP3   OH235994   1.334   3.666   7.404 -0.2928  0.0942 -0.3112
 4812TIP3    H135995   1.389   3.719   7.462 -1.1668  1.0159 -0.2903
 4812TIP3    H235996   1.283   3.611   7.463 -1.8489  1.6814 -0.0939
 4813TIP3   OH235997   4.096   3.085   7.887  0.4157 -0.3665  0.1383
 4813TIP3    H135998   4.157   3.048   7.823  2.8568  2.0940  0.8165
 4813TIP3    H235999   4.153   3.123   7.954 -1.9586  0.8093  1.6246
 4814TIP3   OH236000   5.816   0.422   2.095 -0.1356 -0.2560  0.2127
 4814TIP3    H136001   5.820   0.492   2.161  2.3575 -1.0542  1.0039
 4814TIP3    H236002   5.767   0.352   2.139 -0.5942  0.0969  0.2819
 4815TIP3   OH236003   2.868   3.891   6.803  0.0394  0.4637  0.1597
 4815TIP3    H136004   2.954   3.933   6.802 -0.6265  1.9037 -1.3628
 4815TIP3    H236005   2.809   3.957   6.768 -1.5885 -0.7386  0.5395
 4816TIP3   OH236006   1.841   5.212   7.568  0.0194 -0.1811  0.3443
 4816TIP3    H136007   1.863   5.305   7.573  0.8870 -0.4470  2.3925
 4816TIP3    H236008   1.916   5.167   7.607 -0.3965 -1.7730 -0.5558
 4817TIP3   OH236009   1.252   5.401   1.861 -0.3779 -0.1100 -0.2220
 4817TIP3    H136010   1.259   5.430   1.770 -1.3855  1.9167  0.2743
 4817TIP3    H236011   1.279   5.477   1.912 -0.8471 -0.8563  1.1924
 4818TIP3   OH236012   2.363   4.835   7.526 -0.0415  0.3215  0.4791
 4818TIP3    H136013   2.430   4.903   7.532  0.5921 -0.3528  1.4988
 4818TIP3    H236014   2.367   4.805   7.436  0.3289  0.9853  0.2665
 4819TIP3   OH236015   0.482   6.022   0.592  0.0767  0.1356 -0.0793
 4819TIP3    H136016   0.518   5.942   0.554  1.8438  0.3726  0.9579
 4819TIP3    H236017   0.437   5.993   0.671  1.2307  0.1847  0.6216
 4820TIP3   OH236018   2.888   0.884   6.842  0.0677  0.0104 -0.2098
 4820TIP3    H136019   2.837   0.850   6.768  1.5700  0.5633 -1.5506
 4820TIP3    H236020   2.918   0.806   6.888 -2.4774 -0.3404  1.0376
 4821TIP3   OH236021   5.102   1.121   0.579 -0.0742  0.1852 -0.0586
 4821TIP3    H136022   5.110   1.033   0.543  0.8394 -0.0939  0.7769
 4821TIP3    H236023   5.125   1.179   0.506 -0.6803 -0.2561 -0.6128
 4822TIP3   OH236024   1.963   4.689   8.027 -0.2351  0.7561  0.0311
 4822TIP3    H136025   1.923   4.675   7.941  1.5656 -0.6981 -0.6305
 4822TIP3    H236026   2.027   4.758   8.014 -0.2730  0.8484  0.3128
 4823TIP3   OH236027   2.679   0.528   6.667  0.0903  0.1189  0.6214
 4823TIP3    H136028   2.660   0.545   6.760 -0.4177 -2.7984  1.1619
 4823TIP3    H236029   2.603   0.479   6.636  0.0725  1.4115 -1.4952
 4824TIP3   OH236030   6.789   0.520   1.388  0.3293 -0.0860  0.0146
 4824TIP3    H136031   6.743   0.530   1.471 -1.7846  1.6874 -1.2486
 4824TIP3    H236032   6.771   0.430   1.361  1.4519 -0.8443  1.6294
 4825TIP3   OH236033   5.233   1.942   6.621  0.5382  0.2349 -0.3043
 4825TIP3    H136034   5.317   1.960   6.664  2.6612  0.1710 -3.9899
 4825TIP3    H236035   5.214   2.022   6.571 -1.7112  0.2721  0.5041
 4826TIP3   OH236036   3.064   6.827   0.677 -0.4432  0.5523  0.5028
 4826TIP3    H136037   3.019   6.911   0.663  0.4605  0.8179 -1.0365
 4826TIP3    H236038   3.134   6.848   0.739 -2.4644  0.0855  3.1051
 4827TIP3   OH236039   0.655   4.864   1.828  0.1599  0.1212 -0.1431
 4827TIP3    H136040   0.721   4.923   1.863  0.9058 -0.4311 -0.5683
 4827TIP3    H236041   0.594   4.849   1.900  1.3044 -0.4934  0.7223
 4828TIP3   OH236042   0.977   2.724   6.549  0.1801  0.2243  0.0102
 4828TIP3    H136043   0.935   2.766   6.474 -0.2562 -0.2524 -0.0142
 4828TIP3    H236044   0.914   2.658   6.578  1.0227 -0.7013 -0.2053
 4829TIP3   OH236045   0.894   4.832   6.674 -0.3852 -0.3064 -0.4614
 4829TIP3    H136046   0.965   4.826   6.611  1.1584 -0.2003  1.1832
 4829TIP3    H236047   0.928   4.789   6.753 -0.5176  3.1391  1.7115
 4830TIP3   OH236048   3.743   3.449   0.615  0.0794  0.8692 -0.0738
 4830TIP3    H136049   3.775   3.360   0.630  0.2277  1.1610  1.4823
 4830TIP3    H236050   3.738   3.457   0.520  2.0797 -0.0942 -0.3034
 4831TIP3   OH236051   3.410   4.518   1.600 -0.3550 -0.1245  0.2075
 4831TIP3    H136052   3.425   4.425   1.617 -2.4198 -0.5878 -0.2567
 4831TIP3    H236053   3.372   4.551   1.681  0.0492  0.2531  0.2461
 4832TIP3   OH236054   6.280   2.126   7.494 -0.2226 -0.4977 -0.6670
 4832TIP3    H136055   6.217   2.185   7.453  0.1912  0.0758 -0.4941
 4832TIP3    H236056   6.330   2.181   7.553  0.8236 -0.8094 -1.2219
 4833TIP3   OH236057   0.295   6.633   8.153  0.4938  0.1088 -0.7752
 4833TIP3    H136058   0.382   6.594   8.164  0.3189 -0.7183 -2.1286
 4833TIP3    H236059   0.246   6.569   8.103 -0.7273  0.8355 -0.5506
 4834TIP3   OH236060   3.740   0.773   6.599  0.1959  0.4941  0.2146
 4834TIP3    H136061   3.646   0.785   6.615 -0.0002 -2.4476  1.8783
 4834TIP3    H236062   3.748   0.771   6.503 -1.5564 -0.0165  0.0480
 4835TIP3   OH236063   3.072   3.376   0.799 -0.6808 -0.1059 -0.2256
 4835TIP3    H136064   3.077   3.361   0.705 -1.5909 -1.6105 -0.0670
 4835TIP3    H236065   2.979   3.392   0.816 -0.3958  1.1157  0.3104
 4836TIP3   OH236066   2.220   6.590   8.190  0.3560 -0.2695 -0.3551
 4836TIP3    H136067   2.190   6.577   8.100  0.0883 -0.9975 -0.1727
 4836TIP3    H236068   2.315   6.579   8.185  0.3058 -0.6905 -0.4967
 4837TIP3   OH236069   1.487   3.898   1.467 -0.0546  0.4281 -0.0779
 4837TIP3    H136070   1.392   3.911   1.463 -0.0428  0.2022 -1.9823
 4837TIP3    H236071   1.523   3.986   1.471 -0.3382  0.5128  0.7828
 4838TIP3   OH236072   3.977   0.166   7.650  0.2356 -0.3122 -0.1855
 4838TIP3    H136073   3.963   0.245   7.597  0.1067  1.0474  1.7543
 4838TIP3    H236074   3.892   0.121   7.648 -0.8813  1.5643  1.6522
 4839TIP3   OH236075   6.040   1.513   7.665 -0.0053 -0.2782  0.6252
 4839TIP3    H136076   6.122   1.561   7.671 -0.5138  0.9795 -1.2921
 4839TIP3    H236077   5.973   1.582   7.663 -0.7272 -0.8732 -2.8666
 4840TIP3   OH236078   0.183   3.130   2.195  0.0473 -0.7029 -0.0305
 4840TIP3    H136079   0.222   3.217   2.190  1.6087 -1.3806 -0.3155
 4840TIP3    H236080   0.123   3.135   2.270 -0.4928  0.8219 -0.5240
 4841TIP3   OH236081   6.646   5.492   2.556 -0.3739 -0.3418  0.1032
 4841TIP3    H136082   6.686   5.405   2.556 -0.6132 -0.4540  0.3951
 4841TIP3    H236083   6.694   5.540   2.489 -0.8179 -0.9562 -0.6764
 4842TIP3   OH236084   1.209   6.416   0.921  0.0645 -0.0947  0.2623
 4842TIP3    H136085   1.250   6.337   0.957 -1.4686 -0.7177  0.7336
 4842TIP3    H236086   1.265   6.441   0.848  0.1853 -2.0956 -0.3928
 4843TIP3   OH236087   1.099   1.677   1.031 -0.3708  0.6299  0.1002
 4843TIP3    H136088   1.164   1.615   1.061  0.2543  0.7865 -0.9053
 4843TIP3    H236089   1.135   1.763   1.053  0.5226  0.7961 -1.8357
 4844TIP3   OH236090   2.631   6.853   6.284  0.3753 -0.0638  0.8199
 4844TIP3    H136091   2.607   6.859   6.376 -0.1472  0.4134  0.6651
 4844TIP3    H236092   2.721   6.884   6.279  1.5712 -3.1084  1.6087
 4845TIP3   OH236093   0.739   4.183   1.083 -0.6406 -0.0223  0.4457
 4845TIP3    H136094   0.737   4.239   1.006  1.3027 -1.0216 -0.3890
 4845TIP3    H236095   0.688   4.106   1.058 -0.4179 -0.1347  0.3393
 4846TIP3   OH236096   4.151   3.013   6.158  0.0906 -0.2998 -0.3486
 4846TIP3    H136097   4.114   2.966   6.083  0.1964 -2.3294  0.7908
 4846TIP3    H236098   4.075   3.034   6.213  0.0386  0.9590 -0.8834
 4847TIP3   OH236099   5.717   2.297   0.080 -0.0808  0.2034 -0.0084
 4847TIP3    H136100   5.704   2.221   0.024 -1.1563  0.7166 -0.4970
 4847TIP3    H236101   5.808   2.323   0.066  0.7582 -1.8034  1.2399
 4848TIP3   OH236102   2.924   6.062   8.114  0.4545  0.3954  0.3743
 4848TIP3    H136103   2.987   6.134   8.117 -0.1058  0.8506  2.4085
 4848TIP3    H236104   2.869   6.074   8.191 -1.2113 -0.8470 -0.5525
 4849TIP3   OH236105   3.201   6.416   0.951  0.4297 -0.0514  0.1381
 4849TIP3    H136106   3.124   6.363   0.932  0.0173  0.4659  0.3297
 4849TIP3    H236107   3.265   6.354   0.985  0.5750 -0.7054 -1.2897
 4850TIP3   OH236108   0.390   3.388   2.592  0.8968 -0.7930  0.3854
 4850TIP3    H136109   0.458   3.405   2.527  0.8895 -0.0655  0.5624
 4850TIP3    H236110   0.388   3.467   2.646 -1.1820 -0.1068 -0.5948
 4851TIP3   OH236111   4.788   5.624   8.523  0.6111 -0.4187  0.7146
 4851TIP3    H136112   4.801   5.696   8.461  1.2395 -0.9560  0.1968
 4851TIP3    H236113   4.819   5.658   8.607  3.7941 -0.9854 -0.0777
 4852TIP3   OH236114   0.518   4.649   1.662 -0.0430  0.6815  0.5309
 4852TIP3    H136115   0.554   4.698   1.736  0.5375 -0.0105  0.7120
 4852TIP3    H236116   0.424   4.645   1.681  0.0787  0.6192  1.1704
 4853TIP3   OH236117   0.131   2.338   8.358  0.4333 -0.7938 -0.7905
 4853TIP3    H136118   0.089   2.302   8.436 -0.5151  1.0621 -0.3869
 4853TIP3    H236119   0.074   2.411   8.332  2.2151  0.3711 -1.5738
 4854TIP3   OH236120   3.466   2.512   7.665 -0.3775  0.3616 -0.4283
 4854TIP3    H136121   3.375   2.506   7.694 -0.3008 -0.3243 -0.3179
 4854TIP3    H236122   3.500   2.590   7.710 -0.9406  0.6955 -0.5677
 4855TIP3   OH236123   4.336   4.178   1.728 -0.1131 -0.1707  0.1684
 4855TIP3    H136124   4.407   4.195   1.790  0.5565  1.2064 -0.8981
 4855TIP3    H236125   4.328   4.083   1.725  0.4145 -0.2897  1.6930
 4856TIP3   OH236126   3.047   1.327   0.553  0.7818  0.2176  0.0219
 4856TIP3    H136127   3.125   1.286   0.591  1.1681  0.5867 -0.3589
 4856TIP3    H236128   3.080   1.408   0.513  0.3272  0.0197 -0.7732
 4857TIP3   OH236129   5.366   3.493   7.368  0.2044  0.1071 -0.6272
 4857TIP3    H136130   5.336   3.405   7.393 -2.4943  0.1671 -3.1664
 4857TIP3    H236131   5.294   3.551   7.392  1.4569  1.5347 -0.0863
 4858TIP3   OH236132   1.261   5.089   7.561 -0.2089  0.5925 -0.2798
 4858TIP3    H136133   1.292   5.176   7.536 -2.4916  1.7851  0.6872
 4858TIP3    H236134   1.185   5.074   7.504 -1.3445  0.3713  1.2200
 4859TIP3   OH236135   5.274   2.643   0.545  0.6613  0.2698 -0.2435
 4859TIP3    H136136   5.224   2.562   0.550  1.1701 -0.0026  0.6519
 4859TIP3    H236137   5.271   2.668   0.452  1.3584 -1.3178 -0.7165
 4860TIP3   OH236138   5.881   4.435   2.772 -0.8327  0.0039 -0.2970
 4860TIP3    H136139   5.819   4.508   2.775 -0.5148  0.3044 -0.8729
 4860TIP3    H236140   5.965   4.475   2.749 -1.0069 -0.7370 -2.4551
 4861TIP3   OH236141   5.774   1.975   7.181 -0.5409 -0.3428  0.0241
 4861TIP3    H136142   5.682   1.953   7.168 -0.9792  2.1385 -1.9483
 4861TIP3    H236143   5.775   2.071   7.181  1.9515 -0.3027  0.9538
 4862TIP3   OH236144   4.267   4.816   2.109 -0.2781 -0.0340  0.1401
 4862TIP3    H136145   4.298   4.792   2.196  1.1318 -3.6071 -1.1880
 4862TIP3    H236146   4.288   4.741   2.054  0.8891  2.8599 -3.8173
 4863TIP3   OH236147   3.663   2.302   7.397 -0.2621 -0.4717 -0.0321
 4863TIP3    H136148   3.728   2.351   7.348 -1.2851 -0.6835 -1.6534
 4863TIP3    H236149   3.703   2.215   7.410  0.0220 -0.4039 -0.4565
 4864TIP3   OH236150   0.101   1.685   1.423  0.1070 -0.5802  0.0377
 4864TIP3    H136151   0.108   1.757   1.359 -0.3968 -0.0082  0.6153
 4864TIP3    H236152   0.158   1.712   1.495  0.3240 -1.0131  0.0312
 4865TIP3   OH236153   4.557   3.079   7.590  0.2187 -0.3646 -0.3530
 4865TIP3    H136154   4.628   3.137   7.566  0.1084 -0.0363  0.1147
 4865TIP3    H236155   4.482   3.110   7.539  0.0868  0.0843  0.1115
 4866TIP3   OH236156   2.762   1.026   1.308 -0.3070 -0.2842  0.6321
 4866TIP3    H136157   2.752   1.069   1.393 -2.3629 -1.0017  0.8249
 4866TIP3    H236158   2.830   0.960   1.322  2.3702  2.2796  0.5264
 4867TIP3   OH236159   5.684   4.738   7.340  0.3985  0.2501 -0.0110
 4867TIP3    H136160   5.595   4.766   7.321  0.5050  0.4227 -0.2618
 4867TIP3    H236161   5.710   4.685   7.265 -0.1987 -1.4833  0.9715
 4868TIP3   OH236162   6.011   2.033   8.624 -0.5418 -0.2507  0.3222
 4868TIP3    H136163   6.044   1.982   8.550 -1.3686  2.2988 -1.9614
 4868TIP3    H236164   6.049   1.991   8.701  1.9569 -1.8857 -1.6438
 4869TIP3   OH236165   2.701   3.601   0.470 -0.4083 -0.4942  0.3056
 4869TIP3    H136166   2.747   3.612   0.553 -0.4494 -0.0090  0.2688
 4869TIP3    H236167   2.693   3.690   0.436 -0.6327 -0.6647 -0.0875
 4870TIP3   OH236168   0.679   0.944   7.346 -0.2079 -0.1991 -0.2749
 4870TIP3    H136169   0.637   0.926   7.430  2.3767  1.8259  1.6172
 4870TIP3    H236170   0.692   1.039   7.346  0.6496 -0.2520 -2.5877
 4871TIP3   OH236171   6.841   4.693   8.439  0.2230  0.4749 -0.3879
 4871TIP3    H136172   6.863   4.714   8.530 -0.4880  1.8441 -0.4933
 4871TIP3    H236173   6.769   4.630   8.445 -1.1360  1.9893  0.0694
 4872TIP3   OH236174   6.497   4.684   7.841 -0.2774 -0.0207 -1.0528
 4872TIP3    H136175   6.565   4.636   7.794 -0.0414  0.5386 -1.2935
 4872TIP3    H236176   6.485   4.634   7.922  0.2027 -0.2976 -1.1454
 4873TIP3   OH236177   1.622   3.087   6.975 -0.1794 -0.0645 -0.5724
 4873TIP3    H136178   1.565   3.156   7.009  0.0565  0.4398 -1.1954
 4873TIP3    H236179   1.616   3.017   7.041  1.8624  1.6752  1.6231
 4874TIP3   OH236180   5.074   2.873   0.858  0.4163 -0.1946  0.5510
 4874TIP3    H136181   5.095   2.809   0.926  0.9618 -0.7519 -0.1203
 4874TIP3    H236182   5.155   2.880   0.807  0.5432  1.4610  0.9378
 4875TIP3   OH236183   6.358   4.401   6.696  0.6480  0.3529 -0.2004
 4875TIP3    H136184   6.361   4.433   6.606 -0.5732 -0.2250 -0.4722
 4875TIP3    H236185   6.283   4.342   6.697  0.9990 -0.0916  1.0586
 4876TIP3   OH236186   2.501   2.619   1.526  0.3266  0.0807 -0.5060
 4876TIP3    H136187   2.501   2.679   1.451 -0.7268  1.2948  0.4027
 4876TIP3    H236188   2.507   2.677   1.602  0.2545 -1.0520  0.3881
 4877TIP3   OH236189   1.460   1.931   0.939 -0.9310  0.1994  0.5013
 4877TIP3    H136190   1.447   1.927   1.034 -0.4879 -0.1957  0.5478
 4877TIP3    H236191   1.536   1.875   0.923 -1.3419 -0.1810 -0.1510
 4878TIP3   OH236192   2.095   5.496   6.652 -0.5749 -0.4174 -0.2713
 4878TIP3    H136193   2.159   5.566   6.658 -0.0252 -0.9419  0.0522
 4878TIP3    H236194   2.079   5.470   6.742  1.3974 -2.6434 -0.4693
 4879TIP3   OH236195   2.838   5.721   1.863 -0.1780  0.4946  0.3760
 4879TIP3    H136196   2.814   5.813   1.865  2.3146  1.1971  0.9495
 4879TIP3    H236197   2.927   5.720   1.828  0.0929 -1.6437  0.9786
 4880TIP3   OH236198   5.259   1.446   7.402  0.4890 -0.0630 -0.3134
 4880TIP3    H136199   5.330   1.436   7.466 -0.6934  1.9087  1.4284
 4880TIP3    H236200   5.283   1.523   7.351 -0.2858  0.5189  0.1807
 4881TIP3   OH236201   5.355   0.223   6.694  0.2467  0.3482  0.3962
 4881TIP3    H136202   5.322   0.178   6.772 -0.1073 -1.1641 -0.5862
 4881TIP3    H236203   5.281   0.274   6.662 -0.5198 -1.3176 -0.5649
 4882TIP3   OH236204   1.955   2.691   2.108 -0.1086 -0.5526  0.4625
 4882TIP3    H136205   1.941   2.767   2.051  0.9350 -0.4673  0.2850
 4882TIP3    H236206   1.921   2.718   2.193 -1.4976 -0.6056 -0.0644
 4883TIP3   OH236207   6.732   2.745   6.404 -0.1137  0.1383  0.0071
 4883TIP3    H136208   6.820   2.767   6.372 -0.3007 -0.9033 -1.3367
 4883TIP3    H236209   6.723   2.652   6.385 -2.1407  0.5672 -1.5018
 4884TIP3   OH236210   6.252   1.894   6.853  0.0735  0.4860 -0.0015
 4884TIP3    H136211   6.212   1.909   6.767  2.0256 -0.9354 -1.2798
 4884TIP3    H236212   6.321   1.960   6.860 -0.6262  1.1359  0.8782
 4885TIP3   OH236213   2.828   0.193   1.160 -0.0534  0.2086 -0.1815
 4885TIP3    H136214   2.920   0.204   1.183 -0.1030  1.0865 -0.3854
 4885TIP3    H236215   2.818   0.242   1.078 -1.0931  1.5748  0.7235
 4886TIP3   OH236216   4.956   6.413   0.509 -0.1169  0.2715  0.7460
 4886TIP3    H136217   5.000   6.498   0.504 -0.2004  0.3372  1.0939
 4886TIP3    H236218   4.975   6.382   0.598  1.5960 -0.9844  0.0080
 4887TIP3   OH236219   2.104   0.367   0.324  0.0524 -0.0622 -0.0767
 4887TIP3    H136220   2.117   0.281   0.283  1.2496 -0.2753  0.7177
 4887TIP3    H236221   2.047   0.349   0.398  0.2536 -0.1624  0.0548
 4888TIP3   OH236222   5.265   3.539   8.146  0.1972  0.1666 -0.5315
 4888TIP3    H136223   5.292   3.526   8.237  0.2597 -0.8396 -0.6769
 4888TIP3    H236224   5.304   3.466   8.099  3.0214  2.4617 -2.0280
 4889TIP3   OH236225   4.236   5.815   0.846  0.3964  0.5481  0.0547
 4889TIP3    H136226   4.214   5.875   0.776  0.0144 -0.5754 -0.8222
 4889TIP3    H236227   4.163   5.753   0.849  0.4523  0.5196  1.3814
 4890TIP3   OH236228   5.890   5.239   7.098  0.0360 -0.2797 -0.2041
 4890TIP3    H136229   5.812   5.288   7.124 -0.1243 -0.5104 -0.2445
 4890TIP3    H236230   5.876   5.220   7.005  0.4368  0.2286 -0.3700
 4891TIP3   OH236231   2.228   2.315   0.384  0.6735 -0.1200  0.2230
 4891TIP3    H136232   2.136   2.338   0.371  0.6981  0.7465  1.4664
 4891TIP3    H236233   2.251   2.265   0.306 -1.9602 -3.9348  1.5987
 4892TIP3   OH236234   0.746   5.340   6.404  0.0680  0.0726 -0.4104
 4892TIP3    H136235   0.703   5.424   6.420  0.5822  0.1151  0.9508
 4892TIP3    H236236   0.817   5.360   6.343 -0.8629  0.2854 -1.4484
 4893TIP3   OH236237   1.130   1.558   0.727 -0.3148  0.4064 -0.3469
 4893TIP3    H136238   1.112   1.505   0.805  1.5543 -0.8133 -0.7007
 4893TIP3    H236239   1.061   1.534   0.666  1.3625 -3.0387 -1.1392
 4894TIP3   OH236240   3.758   3.971   7.888  0.2297 -0.1427 -0.1656
 4894TIP3    H136241   3.703   3.936   7.959  1.9666 -1.5954  0.5408
 4894TIP3    H236242   3.824   4.024   7.933  1.0415 -0.6645 -0.7175
 4895TIP3   OH236243   5.410   6.064   1.731  0.0635  0.5475  0.3017
 4895TIP3    H136244   5.356   6.072   1.809  2.0137 -0.3733  1.8435
 4895TIP3    H236245   5.439   6.153   1.712 -0.5060  0.7916  0.5544
 4896TIP3   OH236246   4.531   6.044   7.910  0.2322  0.1565 -0.1601
 4896TIP3    H136247   4.440   6.014   7.904  0.1645  0.6467 -2.4948
 4896TIP3    H236248   4.577   5.993   7.843  1.3444  1.0248 -0.0704
 4897TIP3   OH236249   0.832   6.581   2.127  0.7005  0.4264 -0.1886
 4897TIP3    H136250   0.809   6.594   2.219 -0.9789  0.2715 -0.5487
 4897TIP3    H236251   0.806   6.491   2.108 -1.3836  1.2089 -1.4262
 4898TIP3   OH236252   4.909   0.677   7.967 -1.0282  0.5115 -0.3001
 4898TIP3    H136253   4.838   0.714   7.915  0.6594  2.0746 -1.5992
 4898TIP3    H236254   4.945   0.751   8.015  2.8220  0.9640 -3.4155
 4899TIP3   OH236255   3.036   4.649   1.424 -0.5107 -0.5350  0.3361
 4899TIP3    H136256   3.003   4.645   1.334 -0.2813  0.9647  0.1558
 4899TIP3    H236257   2.959   4.637   1.478 -0.8705 -0.1520 -0.0802
 4900TIP3   OH236258   4.404   2.455   8.284 -0.3298  0.1094  0.1889
 4900TIP3    H136259   4.493   2.491   8.280  0.0007 -0.5465  1.1866
 4900TIP3    H236260   4.375   2.453   8.192  0.6300  0.4558 -0.1367
 4901TIP3   OH236261   4.438   6.327   0.164  0.0590 -0.6828  0.4355
 4901TIP3    H136262   4.457   6.267   0.236 -1.5146 -2.3814 -0.4704
 4901TIP3    H236263   4.424   6.269   0.089  0.8642  0.9929 -1.0552
 4902TIP3   OH236264   4.823   1.999   6.543 -0.1857  0.2529  0.2127
 4902TIP3    H136265   4.835   2.000   6.638  2.0111  3.1414  0.0712
 4902TIP3    H236266   4.742   2.048   6.529  0.5604  1.7041  0.6398
 4903TIP3   OH236267   6.065   6.853   0.761 -0.4282 -0.4278  0.3802
 4903TIP3    H136268   6.101   6.864   0.849 -1.4359 -2.0291  1.0390
 4903TIP3    H236269   6.061   6.758   0.748 -0.4339 -0.2320 -1.3561
 4904TIP3   OH236270   6.657   6.024   0.710  0.3631  0.2641 -0.5199
 4904TIP3    H136271   6.718   6.010   0.638 -0.2893  0.8892 -1.2109
 4904TIP3    H236272   6.574   6.048   0.668 -0.2370 -0.1082  0.4144
 4905TIP3   OH236273   1.411   2.568   1.431 -0.3717  0.1223  0.3291
 4905TIP3    H136274   1.424   2.476   1.408 -0.1845  0.6319 -1.8024
 4905TIP3    H236275   1.454   2.616   1.361 -2.6366  1.8475  0.0106
 4906TIP3   OH236276   2.648   6.583   0.063 -0.3359  0.4128  0.3318
 4906TIP3    H136277   2.727   6.530   0.054 -2.1006 -2.4198  0.4582
 4906TIP3    H236278   2.646   6.609   0.155  0.3151  0.3031  0.3786
 4907TIP3   OH236279   5.207   0.611   1.321  0.1739  0.5764  0.0154
 4907TIP3    H136280   5.232   0.519   1.320 -1.2700  0.1486  0.5111
 4907TIP3    H236281   5.215   0.639   1.230  1.3623  0.1894 -0.0177
 4908TIP3   OH236282   2.036   2.949   7.256  0.4747 -0.4000 -0.0732
 4908TIP3    H136283   2.004   2.859   7.261  0.8704 -0.5138  0.5679
 4908TIP3    H236284   1.986   2.997   7.323  0.0107 -0.0586 -0.6561
 4909TIP3   OH236285   0.300   2.996   8.057  0.1154  0.3117 -0.8772
 4909TIP3    H136286   0.364   2.973   7.989 -0.8017  0.0515 -1.6855
 4909TIP3    H236287   0.312   2.929   8.124 -2.3014 -2.6013 -3.0579
 4910TIP3   OH236288   2.385   1.570   6.597 -0.1257 -0.1988  0.1510
 4910TIP3    H136289   2.376   1.665   6.593  2.8696  0.1875 -4.3914
 4910TIP3    H236290   2.478   1.556   6.614 -0.1256 -2.1997 -1.2067
 4911TIP3   OH236291   0.451   1.440   1.305 -0.1341  0.4995 -0.5860
 4911TIP3    H136292   0.434   1.346   1.303  0.8572  0.3196 -1.0120
 4911TIP3    H236293   0.364   1.480   1.308 -0.5523 -0.4354  0.3628
 4912TIP3   OH236294   4.335   4.599   7.514  0.1993 -0.2653  0.3906
 4912TIP3    H136295   4.346   4.694   7.514 -5.4828  0.7194 -0.9605
 4912TIP3    H236296   4.365   4.571   7.428 -0.9728  0.8599 -0.4089
 4913TIP3   OH236297   2.413   5.028   0.807  0.5008 -0.3000 -0.7159
 4913TIP3    H136298   2.419   4.937   0.779  2.0610 -0.0129 -1.4931
 4913TIP3    H236299   2.504   5.056   0.815  0.0503  1.0836 -0.1288
 4914TIP3   OH236300   3.729   3.995   7.325 -0.0609 -0.0503 -0.7638
 4914TIP3    H136301   3.815   3.959   7.305 -0.4163 -1.0038 -0.6245
 4914TIP3    H236302   3.746   4.086   7.349  0.7802  0.0999 -1.8345
 4915TIP3   OH236303   2.277   6.774   7.688 -0.2239 -0.5006 -0.4986
 4915TIP3    H136304   2.288   6.843   7.622  1.4659 -0.0341  0.2286
 4915TIP3    H236305   2.365   6.739   7.701 -0.5163 -0.5935  1.5142
 4916TIP3   OH236306   1.922   5.569   1.975 -0.2069  0.1757  0.4415
 4916TIP3    H136307   1.899   5.644   1.920  0.3514  0.0397  0.0094
 4916TIP3    H236308   1.849   5.561   2.036 -0.1990  1.1676  0.5995
 4917TIP3   OH236309   2.585   6.685   1.391  0.5390 -0.5540  0.1456
 4917TIP3    H136310   2.540   6.753   1.441  0.8313 -0.0292 -0.2915
 4917TIP3    H236311   2.635   6.733   1.325  1.2086 -1.1613  0.1977
 4918TIP3   OH236312   0.172   3.635   0.282 -0.2186 -0.4883  0.2599
 4918TIP3    H136313   0.224   3.615   0.205 -0.4484  0.9071 -0.2981
 4918TIP3    H236314   0.094   3.680   0.248 -0.7246 -0.5720  1.2421
 4919TIP3   OH236315   5.913   1.160   0.128  0.1506 -0.4300 -0.0427
 4919TIP3    H136316   5.959   1.232   0.173  1.3216 -1.2140  0.0720
 4919TIP3    H236317   5.943   1.082   0.174 -0.9266 -1.0209 -0.3254
 4920TIP3   OH236318   5.760   6.124   7.262  0.1649 -0.0857 -0.4154
 4920TIP3    H136319   5.828   6.060   7.280 -0.9597 -1.2105 -0.0714
 4920TIP3    H236320   5.748   6.120   7.167  0.5565  0.1070 -0.4759
 4921TIP3   OH236321   0.519   1.179   8.659  0.1581 -0.5905 -0.4654
 4921TIP3    H136322   0.444   1.212   8.708 -0.5125  0.7219 -2.2651
 4921TIP3    H236323   0.490   1.179   8.568  3.0418  2.4206 -1.6142
 4922TIP3   OH236324   3.522   1.126   0.995 -0.4672 -0.0989 -0.8795
 4922TIP3    H136325   3.455   1.185   0.961 -1.2160 -0.8935 -0.8161
 4922TIP3    H236326   3.491   1.101   1.082 -0.6233 -1.2875 -1.2610
 4923TIP3   OH236327   1.210   2.624   6.410  0.1703  0.1724 -0.3864
 4923TIP3    H136328   1.136   2.565   6.395  0.8961 -1.1925  1.0516
 4923TIP3    H236329   1.171   2.711   6.412 -1.5234 -0.5487  0.9310
 4924TIP3   OH236330   5.164   4.992   1.806 -0.5949  0.3670  0.4020
 4924TIP3    H136331   5.231   5.046   1.849  0.4790 -0.4129 -0.2405
 4924TIP3    H236332   5.124   5.051   1.742 -0.5701  0.8619  0.8355
 4925TIP3   OH236333   5.358   2.526   1.292  0.3067 -0.0154 -0.0495
 4925TIP3    H136334   5.325   2.533   1.382 -0.9019  0.3890 -0.5151
 4925TIP3    H236335   5.453   2.524   1.302  0.1957  0.2709  1.2262
 4926TIP3   OH236336   3.120   2.186   0.163 -0.2801 -0.0282 -0.6112
 4926TIP3    H136337   3.198   2.240   0.155 -2.0593  2.8854  0.0740
 4926TIP3    H236338   3.152   2.101   0.194  2.4757  1.3053  0.5001
 4927TIP3   OH236339   2.493   6.787   7.459  0.0826 -0.1200 -0.4434
 4927TIP3    H136340   2.496   6.883   7.459 -2.0551  0.0380  1.9537
 4927TIP3    H236341   2.448   6.765   7.377  3.3848  0.6269 -2.6452
 4928TIP3   OH236342   2.710   0.541   8.392 -0.6693  0.1850  0.4858
 4928TIP3    H136343   2.645   0.555   8.461 -0.1393  0.0279  1.0291
 4928TIP3    H236344   2.792   0.528   8.439 -0.0225  1.5586 -0.2311
 4929TIP3   OH236345   4.920   6.703   8.387  0.2361 -0.3322 -0.1108
 4929TIP3    H136346   4.859   6.751   8.444  0.2892  1.1768 -1.2678
 4929TIP3    H236347   4.990   6.675   8.446  1.1078  2.5729  0.4129
 4930TIP3   OH236348   2.955   6.380   1.629  0.1681 -0.3766  0.0864
 4930TIP3    H136349   2.931   6.442   1.698  2.4298 -1.4976  2.0402
 4930TIP3    H236350   3.039   6.343   1.658 -0.2995 -3.2060 -1.7375
 4931TIP3   OH236351   0.010   1.148   6.451 -0.2239 -0.1813 -0.0755
 4931TIP3    H136352  -0.026   1.216   6.509  0.0352 -0.9901  1.0677
 4931TIP3    H236353   0.105   1.155   6.463 -0.2133 -1.0912  0.4832
 4932TIP3   OH236354   0.694   6.757   8.019  0.0463 -0.1970  0.5405
 4932TIP3    H136355   0.650   6.692   7.964 -0.5634  0.9755 -0.4198
 4932TIP3    H236356   0.633   6.831   8.022  0.8311  0.4380  1.3808
 4933TIP3   OH236357   2.136   2.117   8.383 -0.4516  0.2069  0.3397
 4933TIP3    H136358   2.160   2.034   8.426 -0.5777  0.5518  1.0970
 4933TIP3    H236359   2.127   2.094   8.291 -0.1075 -0.5465  0.4810
 4934TIP3   OH236360   5.124   6.226   5.766  0.0510  0.0749  0.0726
 4934TIP3    H136361   5.197   6.174   5.733 -0.4146 -0.5058 -0.0665
 4934TIP3    H236362   5.063   6.162   5.802 -0.5972  0.5114 -0.2226
 4935TIP3   OH236363   3.821   1.027   7.403 -0.5268  0.1476 -0.4494
 4935TIP3    H136364   3.741   1.062   7.444  0.6516  2.1762  0.2484
 4935TIP3    H236365   3.869   0.986   7.475 -0.4607 -0.1487 -0.6615
 4936TIP3   OH236366   4.692   2.062   1.156 -0.2764 -0.0619  0.0597
 4936TIP3    H136367   4.645   2.055   1.240  0.4285 -2.3356  0.3394
 4936TIP3    H236368   4.779   2.093   1.180 -0.1284 -0.5450  0.1482
 4937TIP3   OH236369   6.476   0.673   8.514 -0.5445  0.2877  0.1789
 4937TIP3    H136370   6.516   0.705   8.434 -0.1917  0.2235  0.3295
 4937TIP3    H236371   6.519   0.590   8.532 -2.1008 -0.7670 -0.7193
 4938TIP3   OH236372   6.649   3.903   0.923  0.1038  0.1763 -0.5914
 4938TIP3    H136373   6.594   3.867   0.853  0.1859 -1.2966  0.0613
 4938TIP3    H236374   6.662   3.829   0.983  3.5790  0.1465 -1.1956
 4939TIP3   OH236375   3.861   0.202   8.065 -0.0454  0.9836  0.1241
 4939TIP3    H136376   3.838   0.156   8.146 -2.2856  2.9028  0.6855
 4939TIP3    H236377   3.934   0.258   8.089 -0.1858  0.9580  0.6306
 4940TIP3   OH236378   1.906   3.981   8.189 -0.4918  0.3580  0.1444
 4940TIP3    H136379   1.988   4.019   8.157 -0.2792  1.5451  1.9557
 4940TIP3    H236380   1.840   4.011   8.126  0.5154 -1.3221 -1.8279
 4941TIP3   OH236381   0.045   5.357   7.141  0.8352 -0.3651 -0.0081
 4941TIP3    H136382   0.071   5.419   7.073 -0.9583  1.2329  0.6692
 4941TIP3    H236383   0.080   5.395   7.222  1.0648 -1.0985  0.2480
 4942TIP3   OH236384   3.978   3.744   8.404 -0.1073  0.3198 -0.3604
 4942TIP3    H136385   3.950   3.654   8.417  0.0481  0.0237 -1.9226
 4942TIP3    H236386   3.938   3.770   8.321  0.8819  1.2595 -0.5613
 4943TIP3   OH236387   2.357   4.130   6.748 -0.1781 -0.3241  0.0877
 4943TIP3    H136388   2.390   4.219   6.740 -0.6801 -0.1061  0.3649
 4943TIP3    H236389   2.396   4.097   6.829  1.1816 -0.8829 -0.7754
 4944TIP3   OH236390   1.380   1.832   0.578 -0.3339 -0.3434 -0.4237
 4944TIP3    H136391   1.397   1.790   0.663 -2.2054 -0.6591 -0.1461
 4944TIP3    H236392   1.284   1.837   0.574 -0.3365 -1.3508 -3.0292
 4945TIP3   OH236393   6.095   6.053   7.185  0.6461 -0.4710 -0.7369
 4945TIP3    H136394   6.061   6.083   7.101  1.0622 -2.5690 -1.7191
 4945TIP3    H236395   6.119   5.962   7.170  1.5366 -0.6562  1.4404
 4946TIP3   OH236396   6.644   5.767   0.014 -0.3021  0.2779 -0.8041
 4946TIP3    H136397   6.633   5.832   0.083  1.0723 -2.1486  1.9479
 4946TIP3    H236398   6.739   5.762   0.001 -0.3449 -1.2839 -0.7630
 4947TIP3   OH236399   1.126   1.520   8.558 -0.7488 -0.3438  0.6444
 4947TIP3    H136400   1.031   1.506   8.556 -0.8464  0.3425  0.1591
 4947TIP3    H236401   1.136   1.613   8.575 -0.2216  0.0389 -1.4469
 4948TIP3   OH236402   1.821   0.501   1.086  0.3342  0.5268 -0.3023
 4948TIP3    H136403   1.750   0.531   1.029 -0.9871  2.0444  1.9902
 4948TIP3    H236404   1.776   0.458   1.159  1.7257  1.7490  1.3391
 4949TIP3   OH236405   2.957   5.955   0.496 -0.2741 -0.4085 -0.2955
 4949TIP3    H136406   3.016   6.008   0.551 -0.0710  0.4936 -1.3469
 4949TIP3    H236407   2.957   6.000   0.412 -0.7895 -1.6245 -0.9608
 4950TIP3   OH236408   5.018   3.108   8.006 -0.1014  0.6060 -0.1775
 4950TIP3    H136409   4.991   3.016   8.000  1.6241 -0.0667  1.2718
 4950TIP3    H236410   5.063   3.125   7.924 -0.7314  0.2720 -0.5987
 4951TIP3   OH236411   5.535   4.076   8.612 -0.0992 -0.0718 -0.1640
 4951TIP3    H136412   5.558   3.993   8.571  2.9414  1.0458 -1.0177
 4951TIP3    H236413   5.505   4.052   8.700  1.1365 -2.0647 -0.2122
 4952TIP3   OH236414   1.949   5.475   7.658 -0.3469 -0.1687  0.1104
 4952TIP3    H136415   2.002   5.403   7.691  0.0442 -0.5523 -1.3247
 4952TIP3    H236416   1.982   5.552   7.705 -0.1813 -0.7625  1.0046
 4953TIP3   OH236417   4.056   5.129   7.218  0.6050  0.6189 -0.1888
 4953TIP3    H136418   3.995   5.169   7.158 -0.8911  0.1707  0.9776
 4953TIP3    H236419   4.017   5.044   7.240  2.4526 -0.4186 -0.6697
 4954TIP3   OH236420   3.684   2.216   1.394 -0.2243  0.0796  0.1447
 4954TIP3    H136421   3.667   2.274   1.468 -1.1660  0.6466 -0.4995
 4954TIP3    H236422   3.630   2.138   1.411  0.5696 -0.3689  0.6983
 4955TIP3   OH236423   6.232   4.949   1.426  0.0517 -0.4433  0.0652
 4955TIP3    H136424   6.148   4.923   1.464  0.4216 -1.3655  0.2783
 4955TIP3    H236425   6.210   5.014   1.359 -0.6320  1.1332  1.7384
 4956TIP3   OH236426   2.557   3.326   0.519  0.1760  0.0710  0.1055
 4956TIP3    H136427   2.579   3.237   0.545  0.2153 -0.7876 -2.5418
 4956TIP3    H236428   2.627   3.380   0.556  2.3545 -1.5422 -1.4253
 4957TIP3   OH236429   0.445   4.811   7.884  0.7327  0.0548  0.2862
 4957TIP3    H136430   0.457   4.725   7.924 -0.9051 -0.7341 -0.7962
 4957TIP3    H236431   0.367   4.846   7.926  1.0025  0.7351  0.2304
 4958TIP3   OH236432   6.758   1.346   0.740 -0.0890 -0.3021 -0.0322
 4958TIP3    H136433   6.692   1.414   0.748  0.1172 -0.2270  1.1619
 4958TIP3    H236434   6.713   1.273   0.697 -1.1053 -0.4401  1.2092
 4959TIP3   OH236435   0.627   0.604   6.882  0.4235  0.5100 -0.1058
 4959TIP3    H136436   0.642   0.654   6.962 -0.2227  0.6314 -0.0526
 4959TIP3    H236437   0.540   0.567   6.892 -0.2279  1.6108 -1.2939
 4960TIP3   OH236438   5.041   5.472   1.865 -0.2090  0.3130 -0.5130
 4960TIP3    H136439   5.118   5.416   1.865 -0.8314 -0.5818 -1.1894
 4960TIP3    H236440   5.064   5.545   1.922  0.2799 -1.0984  1.1835
 4961TIP3   OH236441   1.730   6.100   0.054  1.1122 -0.5864 -0.1914
 4961TIP3    H136442   1.684   6.183   0.069  1.1947 -0.4820 -0.5209
 4961TIP3    H236443   1.750   6.068   0.142 -1.5095 -1.7177  0.0785
 4962TIP3   OH236444   0.628   4.258   1.904  0.6942 -0.2485  0.8578
 4962TIP3    H136445   0.616   4.351   1.925 -2.3699  0.1051 -1.6958
 4962TIP3    H236446   0.551   4.215   1.940  0.6319 -1.2778 -0.4358
 4963TIP3   OH236447   6.165   5.399   7.409  0.7737  0.1708  1.0722
 4963TIP3    H136448   6.186   5.403   7.502 -1.3044  1.7231  1.5460
 4963TIP3    H236449   6.140   5.308   7.394  0.8446 -0.0295  2.1025
 4964TIP3   OH236450   4.317   5.806   2.026  0.4873  0.5498  0.2383
 4964TIP3    H136451   4.247   5.808   1.961  1.4187 -0.5059 -0.8510
 4964TIP3    H236452   4.284   5.858   2.099 -1.9267 -0.9044  0.2896
 4965TIP3   OH236453   3.187   3.037   8.577 -0.3619 -0.3650  0.1177
 4965TIP3    H136454   3.240   3.114   8.556 -1.1000 -0.3130 -1.6854
 4965TIP3    H236455   3.132   3.065   8.651  0.1579  0.4662  0.1971
 4966TIP3   OH236456   3.563   4.511   0.512 -0.1547 -0.5015  0.1955
 4966TIP3    H136457   3.619   4.437   0.491  2.0880  0.9552  0.7496
 4966TIP3    H236458   3.490   4.504   0.449  0.6477 -2.4215 -0.5957
 4967TIP3   OH236459   2.456   3.392   8.232 -0.2278 -0.6029  0.3669
 4967TIP3    H136460   2.496   3.388   8.145  0.1656 -0.8416  0.5555
 4967TIP3    H236461   2.493   3.317   8.279  0.3480  0.1041  1.0657
 4968TIP3   OH236462   2.982   5.715   6.776 -0.3994  0.2893 -0.1180
 4968TIP3    H136463   2.910   5.778   6.779 -0.0046  0.7795 -0.7703
 4968TIP3    H236464   3.048   5.751   6.835  1.4689  2.5866 -3.3328
 4969TIP3   OH236465   6.219   5.581   0.242 -0.9195 -0.5194  0.2445
 4969TIP3    H136466   6.242   5.590   0.334  1.7762  1.4075 -0.5081
 4969TIP3    H236467   6.302   5.560   0.198 -1.3750  1.9922 -2.1155
 4970TIP3   OH236468   1.210   6.084   0.393  0.6027 -0.1930 -0.3990
 4970TIP3    H136469   1.249   6.170   0.401 -3.3235  1.8189 -0.1993
 4970TIP3    H236470   1.210   6.048   0.481  3.0370 -0.8974 -0.6227
 4971TIP3   OH236471   6.674   0.696   1.835  0.0206 -0.0194 -0.2113
 4971TIP3    H136472   6.658   0.755   1.909 -0.5215  0.9779 -1.0875
 4971TIP3    H236473   6.730   0.746   1.776  0.7801 -0.9549 -0.3037
 4972TIP3   OH236474   4.700   3.320   8.105  0.1737  0.2486 -0.5182
 4972TIP3    H136475   4.649   3.370   8.169  0.4777  0.8331 -0.7240
 4972TIP3    H236476   4.680   3.229   8.124  1.8545  0.2688  1.8192
 4973TIP3   OH236477   0.451   5.221   6.119 -0.1631 -0.3268 -0.1889
 4973TIP3    H136478   0.480   5.130   6.128 -0.4703 -0.2943  1.4864
 4973TIP3    H236479   0.361   5.215   6.089 -0.2194 -0.5888  0.0257
 4974TIP3   OH236480   0.400   4.055   7.575 -0.0744 -0.0787  0.5033
 4974TIP3    H136481   0.428   4.088   7.660 -1.8118  0.3219  0.9607
 4974TIP3    H236482   0.373   4.134   7.527 -0.3111 -0.4296  0.0503
 4975TIP3   OH236483   1.888   6.228   6.468  0.0941 -0.4005 -0.2120
 4975TIP3    H136484   1.924   6.150   6.426  1.1731  0.4600 -0.9473
 4975TIP3    H236485   1.950   6.298   6.447 -2.0712  1.2241 -1.7175
 4976TIP3   OH236486   3.814   2.646   7.806 -0.4999  0.2963  0.3161
 4976TIP3    H136487   3.786   2.682   7.723 -0.2019  0.0277  0.0962
 4976TIP3    H236488   3.782   2.556   7.806  0.5106 -0.0791 -0.0264
 4977TIP3   OH236489   0.846   1.280   8.216 -0.1586 -0.1631  0.0818
 4977TIP3    H136490   0.791   1.293   8.293 -1.0066  0.0010 -0.5373
 4977TIP3    H236491   0.849   1.365   8.173 -1.5660 -0.7393 -1.2613
 4978TIP3   OH236492   3.940   2.307   2.098 -0.4041 -0.5132  0.3115
 4978TIP3    H136493   3.915   2.392   2.134  0.9324  0.1064 -0.1565
 4978TIP3    H236494   3.967   2.256   2.174  1.7829  0.5687  0.3329
 4979TIP3   OH236495   3.561   0.827   0.573 -0.1077 -0.1535 -0.5975
 4979TIP3    H136496   3.468   0.818   0.593 -0.4263  1.6996 -1.0242
 4979TIP3    H236497   3.573   0.780   0.490 -1.1491  1.3028 -1.6324
 4980TIP3   OH236498   5.362   3.415   0.269  0.2873 -0.2952 -0.3014
 4980TIP3    H136499   5.273   3.410   0.235 -0.3557 -0.2222  1.2884
 4980TIP3    H236500   5.416   3.373   0.202 -1.3258 -3.2876  0.0933
 4981TIP3   OH236501   4.792   4.948   0.935 -0.2334  0.4644  0.1440
 4981TIP3    H136502   4.842   4.867   0.946 -2.7421 -1.4946 -1.7176
 4981TIP3    H236503   4.723   4.943   1.001 -1.5680  0.0568 -1.2368
 4982TIP3   OH236504   3.612   6.556   0.298  0.3353  0.6330 -0.2579
 4982TIP3    H136505   3.563   6.625   0.344 -0.7156 -0.3643  0.1758
 4982TIP3    H236506   3.702   6.586   0.299 -0.2427  2.5411 -1.0797
 4983TIP3   OH236507   6.840   1.086   7.577  0.1497 -0.4289 -0.3882
 4983TIP3    H136508   6.920   1.124   7.612 -1.0333  0.8973  0.9720
 4983TIP3    H236509   6.770   1.117   7.635 -1.1703 -2.9170 -0.5094
 4984TIP3   OH236510   1.938   5.686   5.943 -0.5675  0.6601  0.5212
 4984TIP3    H136511   1.854   5.731   5.940 -0.5462  0.9640  2.5536
 4984TIP3    H236512   1.989   5.735   6.009  1.1129  0.3416 -0.4772
 4985TIP3   OH236513   3.062   2.215   0.913  0.0820 -0.6239  0.5194
 4985TIP3    H136514   3.066   2.139   0.971  0.0951 -1.2057 -0.2308
 4985TIP3    H236515   2.983   2.262   0.941  0.0097 -0.9751  0.9143
 4986TIP3   OH236516   4.527   3.022   1.604  0.6952  0.1092  0.1153
 4986TIP3    H136517   4.616   2.987   1.597  0.4154 -0.7999  0.8819
 4986TIP3    H236518   4.475   2.948   1.634  0.4643  1.6201  4.0568
 4987TIP3   OH236519   4.805   0.993   0.240 -0.0560 -0.2925  0.0245
 4987TIP3    H136520   4.734   0.977   0.177 -0.1151  0.4977 -0.1256
 4987TIP3    H236521   4.759   1.019   0.320  0.0456 -0.4143  0.1214
 4988TIP3   OH236522   6.150   5.128   1.220  0.3806  0.1982  0.1271
 4988TIP3    H136523   6.185   5.197   1.275  1.8446 -1.2524  1.1280
 4988TIP3    H236524   6.167   5.158   1.131 -0.7325  1.9443  0.4620
 4989TIP3   OH236525   2.182   1.634   7.269 -0.3098 -0.0734 -0.2374
 4989TIP3    H136526   2.183   1.566   7.337 -2.3454 -0.5820 -0.6381
 4989TIP3    H236527   2.123   1.702   7.304 -0.5675  0.1339 -1.0490
 4990TIP3   OH236528   5.124   5.254   6.873  0.1372 -0.2086  0.1449
 4990TIP3    H136529   5.059   5.228   6.807 -0.3769  2.3848 -0.4868
 4990TIP3    H236530   5.207   5.258   6.825 -0.2674  1.8586 -0.4895
 4991TIP3   OH236531   2.939   1.887   0.255 -0.7568  0.1953  0.5527
 4991TIP3    H136532   3.023   1.895   0.209 -0.5349  1.2342  1.1047
 4991TIP3    H236533   2.935   1.795   0.281  0.1104  0.0802  0.3262
 4992TIP3   OH236534   6.618   1.508   6.974  0.0142  0.1430 -0.3205
 4992TIP3    H136535   6.564   1.582   7.001 -0.6324 -0.6136  0.5380
 4992TIP3    H236536   6.605   1.501   6.879 -0.0246  1.0279 -0.3829
 4993TIP3   OH236537   2.391   0.531   2.335 -0.1719  0.4271 -0.2183
 4993TIP3    H136538   2.418   0.439   2.333  0.4033  0.4863  2.0331
 4993TIP3    H236539   2.349   0.542   2.420 -0.1208  2.2830 -0.3982
 4994TIP3   OH236540   5.090   3.674   0.311 -0.6222 -0.2341  0.4507
 4994TIP3    H136541   5.052   3.746   0.360 -1.1200  0.2244 -0.5922
 4994TIP3    H236542   5.027   3.655   0.241  1.1005  0.7027 -1.4657
 4995TIP3   OH236543   3.290   0.749   0.672 -0.0786 -0.6461  0.0600
 4995TIP3    H136544   3.283   0.792   0.757  0.8795  1.4548 -0.8448
 4995TIP3    H236545   3.203   0.713   0.656 -0.5197 -0.2922  1.5340
 4996TIP3   OH236546   6.214   6.513   1.340  0.4520  0.4053  0.4458
 4996TIP3    H136547   6.118   6.518   1.346  0.3485  0.6899 -0.9683
 4996TIP3    H236548   6.237   6.434   1.388 -0.4858  0.3495  0.8323
 4997TIP3   OH236549   3.675   5.241   7.673  0.4455 -0.3073  0.0781
 4997TIP3    H136550   3.649   5.175   7.608 -0.4721 -0.5563  0.6770
 4997TIP3    H236551   3.598   5.250   7.729  0.6535  1.0914  0.1581
 4998TIP3   OH236552   2.550   2.452   7.983  0.3859  0.5066  0.1987
 4998TIP3    H136553   2.644   2.458   7.967  0.7903  0.9560  2.3747
 4998TIP3    H236554   2.541   2.376   8.041 -0.6940  0.0399 -0.5486
 4999TIP3   OH236555   5.386   0.438   0.878 -0.7351 -0.3573 -0.6018
 4999TIP3    H136556   5.457   0.424   0.941 -0.8189  1.7098  0.0268
 4999TIP3    H236557   5.356   0.350   0.856 -0.9648 -1.2012  2.5633
 5000TIP3   OH236558   2.706   4.578   6.810  0.7472  0.9251 -0.3001
 5000TIP3    H136559   2.611   4.562   6.809  0.8484  0.2729 -0.4774
 5000TIP3    H236560   2.729   4.584   6.717  0.9220  0.7784 -0.2663
 5001TIP3   OH236561   3.436   2.372   6.604 -0.2330 -0.3362  0.8776
 5001TIP3    H136562   3.474   2.313   6.539  1.1855  1.6744 -0.2173
 5001TIP3    H236563   3.467   2.339   6.688 -2.1811 -3.0587  0.6903
 5002TIP3   OH236564   6.522   5.382   6.189 -0.1353  0.2374  0.1213
 5002TIP3    H136565   6.547   5.346   6.104 -1.4608  2.1139 -1.1496
 5002TIP3    H236566   6.576   5.334   6.252  1.0111 -1.1091 -1.7701
 5003TIP3   OH236567   2.728   4.235   2.167  0.5439  0.4491 -0.6054
 5003TIP3    H136568   2.641   4.269   2.147  0.3883 -0.9608 -2.5547
 5003TIP3    H236569   2.739   4.161   2.108  2.9607  0.4067 -0.1873
 5004TIP3   OH236570   1.638   2.564   0.315  0.0077 -0.1895  0.2555
 5004TIP3    H136571   1.556   2.602   0.345  0.3919  1.9569 -1.1896
 5004TIP3    H236572   1.681   2.533   0.395 -2.1585 -1.4272  1.0328
 5005TIP3   OH236573   3.962   2.078   1.635  0.5237  0.7949  0.0192
 5005TIP3    H136574   3.897   2.012   1.661 -0.0063  0.9989 -0.7655
 5005TIP3    H236575   3.950   2.149   1.697 -1.0287  1.4645 -1.0014
 5006TIP3   OH236576   0.985   5.443   0.995  0.4434 -0.0522  0.2500
 5006TIP3    H136577   1.007   5.418   0.906 -0.6408  0.9877 -0.3449
 5006TIP3    H236578   0.906   5.393   1.015 -0.7072  1.4647 -0.2951
 5007TIP3   OH236579   0.936   0.175   6.583 -0.2079 -0.1997 -0.2452
 5007TIP3    H136580   1.018   0.133   6.557 -0.4885 -0.5295 -0.6130
 5007TIP3    H236581   0.924   0.246   6.521 -0.0436  0.0453  0.0015
 5008TIP3   OH236582   3.211   1.573   7.455  0.2257  0.0227 -0.1484
 5008TIP3    H136583   3.232   1.645   7.395 -3.7498  0.7439 -0.9667
 5008TIP3    H236584   3.183   1.616   7.536 -2.1013 -0.4356 -0.6155
 5009TIP3   OH236585   4.852   3.148   1.436 -0.0120  0.2800 -0.4412
 5009TIP3    H136586   4.778   3.166   1.378  0.9862  0.9795 -1.5386
 5009TIP3    H236587   4.824   3.073   1.488 -1.0718 -0.1721 -1.6153
 5010TIP3   OH236588   3.945   2.183   6.863  0.1816  0.6994 -0.3833
 5010TIP3    H136589   3.912   2.272   6.874 -2.8056 -0.1185 -1.6739
 5010TIP3    H236590   3.894   2.131   6.925  1.7139 -0.1600  0.1881
 5011TIP3   OH236591   2.317   4.324   1.489  0.2077  0.2267  0.4107
 5011TIP3    H136592   2.256   4.252   1.506  1.7606 -0.7133  2.2961
 5011TIP3    H236593   2.378   4.289   1.425 -0.9030  1.0323 -1.1611
 5012TIP3   OH236594   0.357   4.435   7.659  0.3299 -0.9449 -0.0792
 5012TIP3    H136595   0.313   4.393   7.733  0.1317  0.0518  0.3903
 5012TIP3    H236596   0.362   4.367   7.592 -3.6054 -0.6959 -0.8886
 5013TIP3   OH236597   2.530   0.830   1.479  0.0640  0.7428  0.1092
 5013TIP3    H136598   2.492   0.791   1.558  0.0009  0.7688  0.0918
 5013TIP3    H236599   2.588   0.898   1.512  2.1338 -0.9981  0.2653
 5014TIP3   OH236600   1.565   0.788   6.717  0.3735  0.3646  0.0123
 5014TIP3    H136601   1.575   0.883   6.721 -0.2090  0.4717 -0.8634
 5014TIP3    H236602   1.507   0.767   6.790  0.9440  0.6134  0.5419
 5015TIP3   OH236603   3.682   1.589   1.977  0.8428 -0.1254 -0.3719
 5015TIP3    H136604   3.625   1.578   1.901  1.8690 -0.0162 -1.1816
 5015TIP3    H236605   3.624   1.618   2.048 -0.1809 -0.5537 -1.0208
 5016TIP3   OH236606   4.234   6.103   7.964 -0.7376  0.4096  0.5495
 5016TIP3    H136607   4.265   6.193   7.951 -0.5375  0.1276 -1.1312
 5016TIP3    H236608   4.158   6.095   7.906  0.7306 -1.2095 -1.3001
 5017TIP3   OH236609   3.726   0.304   0.060  0.3201  0.1559  0.3366
 5017TIP3    H136610   3.766   0.313  -0.026  3.1578  2.0076  1.6634
 5017TIP3    H236611   3.633   0.321   0.046  0.0284 -3.0369 -2.7638
 5018TIP3   OH236612   1.239   0.615   1.275 -0.0060 -0.2786  0.6089
 5018TIP3    H136613   1.227   0.592   1.183 -0.7839  0.4109  0.5254
 5018TIP3    H236614   1.328   0.652   1.279 -0.9709  2.4448 -0.4882
 5019TIP3   OH236615   6.709   6.729   8.332 -0.1489 -0.1341 -0.1984
 5019TIP3    H136616   6.682   6.695   8.246 -0.2890 -0.2567 -0.1066
 5019TIP3    H236617   6.798   6.761   8.318  0.4196 -1.5601 -0.0259
 5020TIP3   OH236618   4.414   1.767   1.600  0.4480  0.1542 -0.2030
 5020TIP3    H136619   4.468   1.694   1.632  0.9676  0.4408 -0.4131
 5020TIP3    H236620   4.326   1.731   1.594  1.0350 -1.0766 -2.3066
 5021TIP3   OH236621   0.527   4.828   8.476 -0.3385  0.5194 -0.3358
 5021TIP3    H136622   0.442   4.807   8.514 -0.6866  1.1065 -0.7596
 5021TIP3    H236623   0.506   4.856   8.387  0.3075  0.5736 -0.4693
 5022TIP3   OH236624   1.662   3.934   6.457 -0.0650 -0.9868  0.1236
 5022TIP3    H136625   1.579   3.981   6.459 -0.0240 -0.9290  2.0679
 5022TIP3    H236626   1.642   3.853   6.411 -1.1363 -0.8420  0.3020
 5023TIP3   OH236627   1.857   0.943   7.691  0.4257 -0.0209  0.2009
 5023TIP3    H136628   1.830   1.034   7.700  2.2946  0.4635  1.5344
 5023TIP3    H236629   1.777   0.892   7.707 -0.7642  1.3470 -1.1218
 5024TIP3   OH236630   0.464   1.027   0.873 -0.4063  0.7025  0.1382
 5024TIP3    H136631   0.427   1.085   0.806  0.9037 -0.4240 -1.6517
 5024TIP3    H236632   0.521   0.968   0.824 -0.9381 -1.4830  2.0044
 5025TIP3   OH236633   1.692   6.364   0.310  0.2361  0.3811  0.1278
 5025TIP3    H136634   1.684   6.459   0.321  0.1737  0.5915 -1.4503
 5025TIP3    H236635   1.620   6.328   0.362  0.8888  1.1191  1.5939
 5026TIP3   OH236636   2.800   5.389   0.694  0.1566 -0.3928  0.0380
 5026TIP3    H136637   2.790   5.332   0.618  1.9454 -1.8752  0.8313
 5026TIP3    H236638   2.890   5.421   0.688 -0.7634  2.3448 -0.3166
 5027TIP3   OH236639   6.160   3.095   7.940  0.6345  0.0671  0.6337
 5027TIP3    H136640   6.242   3.101   7.990  1.2264  0.1772 -0.3064
 5027TIP3    H236641   6.189   3.072   7.851 -0.2784  1.0683  0.0595
 5028TIP3   OH236642   2.225   5.266   8.090  0.2338 -0.1840 -0.1988
 5028TIP3    H136643   2.270   5.210   8.154 -1.9676 -0.8974  0.8305
 5028TIP3    H236644   2.163   5.317   8.143 -1.0047 -0.1203 -1.6457
 5029TIP3   OH236645   1.718   3.576   0.760 -0.2719  0.0652 -0.2640
 5029TIP3    H136646   1.788   3.611   0.706 -0.1924 -1.3461 -1.1101
 5029TIP3    H236647   1.658   3.650   0.773  0.2432  0.6954 -1.3895
 5030TIP3   OH236648   3.974   1.172   1.349 -0.4574  0.2927  0.1427
 5030TIP3    H136649   3.962   1.173   1.444 -2.2342 -2.7052  0.0733
 5030TIP3    H236650   3.886   1.169   1.313  0.1786  1.4428 -1.6561
 5031TIP3   OH236651   4.339   1.541   0.263  0.0775 -0.0746 -0.5212
 5031TIP3    H136652   4.325   1.616   0.321  1.1701  1.0435 -1.6760
 5031TIP3    H236653   4.252   1.522   0.228 -0.2236  0.5984 -0.1677
 5032TIP3   OH236654   5.410   6.323   6.647 -0.7898  0.0627  0.2173
 5032TIP3    H136655   5.451   6.305   6.563 -1.0620 -3.1383  0.6722
 5032TIP3    H236656   5.463   6.393   6.685 -0.4264  1.3053 -2.3826
 5033TIP3   OH236657   0.968   2.044   7.765  0.3714  0.6413  0.0860
 5033TIP3    H136658   1.040   1.980   7.769 -0.9906 -0.9050  1.2897
 5033TIP3    H236659   0.987   2.096   7.687  3.0264  0.6083  0.5943
 5034TIP3   OH236660   6.182   0.012   6.521  1.0232 -0.0038 -0.7039
 5034TIP3    H136661   6.200   0.106   6.526  0.2693  0.0866  1.2690
 5034TIP3    H236662   6.096   0.006   6.479  1.3044  0.1377 -1.3136
 5035TIP3   OH236663   2.088   1.164   7.253 -0.1962 -0.4221  0.0773
 5035TIP3    H136664   2.008   1.115   7.272  1.2743 -3.0452  0.0623
 5035TIP3    H236665   2.108   1.143   7.162  1.2610 -1.0757  0.5119
 5036TIP3   OH236666   6.585   5.103   1.783  0.5059  0.7052 -0.0716
 5036TIP3    H136667   6.501   5.090   1.738 -0.4091  1.8127  1.2540
 5036TIP3    H236668   6.582   5.192   1.816  1.6969  0.3610  1.0634
 5037TIP3   OH236669   5.657   0.112   6.951 -0.3459 -0.0449  0.2623
 5037TIP3    H136670   5.621   0.198   6.932 -1.9177 -0.9381 -1.1051
 5037TIP3    H236671   5.716   0.094   6.878 -1.5561 -0.9071 -0.5403
 5038TIP3   OH236672   4.034   0.056   8.484 -0.1616  0.2534 -0.2409
 5038TIP3    H136673   4.127   0.069   8.499 -0.4066  1.3312  0.5044
 5038TIP3    H236674   3.991   0.103   8.556 -1.2568 -1.3466  0.1998
 5039TIP3   OH236675   4.250   6.056   7.601  0.0989  0.6615 -0.3639
 5039TIP3    H136676   4.200   6.134   7.575 -1.6654 -0.6139 -0.9241
 5039TIP3    H236677   4.213   6.033   7.687 -0.4392 -0.4074 -0.8732
 5040TIP3   OH236678   2.274   6.180   7.508 -0.3769  0.0479 -0.0855
 5040TIP3    H136679   2.271   6.116   7.579 -0.7664  0.0589 -0.0914
 5040TIP3    H236680   2.279   6.128   7.428 -1.3825  0.0083 -0.1304
 5041TIP3   OH236681   0.763   5.549   1.147  0.1156  0.3232  0.2099
 5041TIP3    H136682   0.731   5.606   1.217  0.5708  1.2940 -0.3543
 5041TIP3    H236683   0.727   5.587   1.067  0.8615  0.1341 -0.2226
 5042TIP3   OH236684   6.572   1.014   1.843 -0.1699 -0.2941 -0.2606
 5042TIP3    H136685   6.626   1.014   1.922 -1.4904 -1.1703  0.6794
 5042TIP3    H236686   6.497   1.069   1.865 -0.5065 -0.4686 -0.9413
 5043TIP3   OH236687   5.062   4.284   7.913 -0.1608  0.9324  0.0668
 5043TIP3    H136688   5.104   4.361   7.952 -0.6484  0.2775  2.0482
 5043TIP3    H236689   4.977   4.279   7.957 -0.8337  0.2261 -1.2692
 5044TIP3   OH236690   6.515   6.664   0.961 -0.6774 -0.0593 -0.1697
 5044TIP3    H136691   6.598   6.685   0.918 -0.0789  1.3720  1.5560
 5044TIP3    H236692   6.527   6.575   0.993 -0.5115 -0.5282 -1.4851
 5045TIP3   OH236693   4.720   1.324   6.409 -0.1649  0.3184 -0.4788
 5045TIP3    H136694   4.744   1.389   6.343 -0.4636  1.6640  0.7020
 5045TIP3    H236695   4.795   1.264   6.411 -0.2444  0.1069 -2.1687
 5046TIP3   OH236696   0.361   6.036   7.645 -0.7939 -0.5275  0.5920
 5046TIP3    H136697   0.436   5.982   7.673 -0.0783 -1.1310 -2.1818
 5046TIP3    H236698   0.287   6.002   7.695  0.3708 -1.4551  1.7551
 5047TIP3   OH236699   1.368   4.627   0.201  0.0715 -0.5939  0.2219
 5047TIP3    H136700   1.312   4.598   0.272 -0.2515  2.3556  1.3241
 5047TIP3    H236701   1.307   4.648   0.130 -0.0551  0.5247  0.6416
 5048TIP3   OH236702   2.661   1.619   0.620 -0.4399 -0.5674 -0.1308
 5048TIP3    H136703   2.679   1.680   0.549  1.2314 -1.0820 -0.1923
 5048TIP3    H236704   2.676   1.670   0.700 -0.4882 -0.4986 -0.1656
 5049TIP3   OH236705   3.834   0.114   0.541 -0.6740  0.3689  0.1112
 5049TIP3    H136706   3.921   0.140   0.511 -0.4487 -2.0339 -1.5748
 5049TIP3    H236707   3.779   0.117   0.463 -1.1251 -1.8961  0.2709
 5050TIP3   OH236708   4.522   6.517   7.509 -0.0542  0.4647 -0.3603
 5050TIP3    H136709   4.560   6.430   7.523  0.7453  1.0630  1.4094
 5050TIP3    H236710   4.595   6.577   7.518 -0.6965  1.3818 -1.0786
 5051TIP3   OH236711   4.790   4.208   6.805  0.3734  0.2386 -0.0739
 5051TIP3    H136712   4.882   4.199   6.831  0.4174  0.1485 -0.2589
 5051TIP3    H236713   4.793   4.257   6.723  0.2134  0.8148  0.2630
 5052TIP3   OH236714   2.645   5.429   1.931  0.1476  0.0307  0.2039
 5052TIP3    H136715   2.684   5.516   1.941  0.1076 -0.0841  1.6729
 5052TIP3    H236716   2.581   5.438   1.861 -1.5574  1.8187  1.8781
 5053TIP3   OH236717   4.674   2.337   7.460  1.1063 -0.1694  0.1491
 5053TIP3    H136718   4.740   2.321   7.528  1.4296 -0.4405 -0.2270
 5053TIP3    H236719   4.689   2.269   7.395  0.4399 -0.2405  0.0643
 5054TIP3   OH236720   0.774   6.617   7.520  0.1224  0.1244 -0.0319
 5054TIP3    H136721   0.759   6.524   7.540 -1.0987  0.4359  0.6459
 5054TIP3    H236722   0.864   6.633   7.546  0.5996 -1.0555 -0.8929
 5055TIP3   OH236723   4.576   1.298   0.281 -0.4630 -0.1139  0.5330
 5055TIP3    H136724   4.621   1.382   0.287  1.0372 -0.8698  0.5774
 5055TIP3    H236725   4.535   1.298   0.194  1.2386 -0.1021 -0.3233
 5056TIP3   OH236726   4.342   5.254   8.451  1.2627  0.4935  0.3809
 5056TIP3    H136727   4.389   5.306   8.386  2.9488  0.6349  1.6608
 5056TIP3    H236728   4.351   5.303   8.533  2.4048 -1.4366  1.4947
 5057TIP3   OH236729   5.628   6.295   1.481 -0.6556 -0.0082  0.4378
 5057TIP3    H136730   5.675   6.216   1.453 -1.7007 -0.6573  0.4589
 5057TIP3    H236731   5.615   6.345   1.400 -1.3060 -0.5926  0.1678
 5058TIP3   OH236732   3.340   1.033   2.337  0.4319  0.2148  0.1055
 5058TIP3    H136733   3.407   1.097   2.359 -1.0113  1.3975  1.2743
 5058TIP3    H236734   3.364   1.001   2.250  1.4780  1.9726 -0.2806
 5059TIP3   OH236735   5.927   4.057   1.778 -0.1601  0.0572 -0.1505
 5059TIP3    H136736   5.961   4.050   1.689  1.6691  0.7295  0.4294
 5059TIP3    H236737   5.841   4.098   1.768  0.1534  0.4326 -1.5779
 5060TIP3   OH236738   5.281   6.543   7.562  0.8949  0.4547  0.0140
 5060TIP3    H136739   5.202   6.495   7.538  0.7813 -0.5025  2.0442
 5060TIP3    H236740   5.347   6.514   7.500 -0.0006  0.1852 -0.8231
 5061TIP3   OH236741   5.221   3.982   0.380  0.1779  0.8898 -0.2185
 5061TIP3    H136742   5.259   3.975   0.468 -0.4338  2.0016  0.1592
 5061TIP3    H236743   5.137   3.937   0.387  0.2779  0.6819 -0.3367
 5062TIP3   OH236744   5.885   6.396   7.351 -0.3504  0.1623 -0.3667
 5062TIP3    H136745   5.861   6.324   7.293  1.5551 -0.8256 -0.0176
 5062TIP3    H236746   5.838   6.379   7.432  0.7381 -1.2323  0.0179
 5063TIP3   OH236747   4.020   0.566   6.403  0.4489  0.3741  0.2849
 5063TIP3    H136748   3.950   0.535   6.345  1.2371  0.0118 -0.4872
 5063TIP3    H236749   4.101   0.546   6.356  1.1459 -0.6753  1.8590
 5064TIP3   OH236750   3.646   5.885   8.189 -0.1118  0.2264 -0.0104
 5064TIP3    H136751   3.625   5.824   8.260  1.0325  0.4219  0.5125
 5064TIP3    H236752   3.570   5.943   8.184 -2.0593 -2.2739 -1.7168
 5065TIP3   OH236753   4.584   1.645   1.884  0.9210 -0.4905  0.5540
 5065TIP3    H136754   4.548   1.733   1.883  0.8120 -0.5211  1.3402
 5065TIP3    H236755   4.616   1.631   1.795 -0.2726 -0.1631  0.0593
 5066TIP3   OH236756   1.197   4.865   1.048  0.2879 -0.1511 -0.5892
 5066TIP3    H136757   1.229   4.931   0.986 -0.3213  0.5220 -0.2001
 5066TIP3    H236758   1.217   4.902   1.135 -0.1237 -0.4482 -0.3662
 5067TIP3   OH236759   2.981   1.559   0.062 -0.2684 -0.3952  0.5762
 5067TIP3    H136760   3.028   1.634   0.027  0.6612 -0.4025  1.7498
 5067TIP3    H236761   2.930   1.594   0.135 -0.8670 -0.6754  0.3009
 5068TIP3   OH236762   4.287   4.474   0.956 -0.3886 -0.5057  0.0010
 5068TIP3    H136763   4.347   4.529   1.005 -1.1726  1.4307 -1.1203
 5068TIP3    H236764   4.337   4.445   0.880 -0.5182  0.2124 -0.3666
 5069TIP3   OH236765   2.817   1.709   1.530 -0.2365 -0.1012  0.2014
 5069TIP3    H136766   2.736   1.667   1.498 -0.1950 -1.6457  1.9386
 5069TIP3    H236767   2.884   1.641   1.520  0.5771  0.7111  0.0429
 5070TIP3   OH236768   6.136   2.376   1.556  0.0569 -0.2316  0.2270
 5070TIP3    H136769   6.065   2.423   1.512 -0.5366 -1.8426 -0.5998
 5070TIP3    H236770   6.212   2.389   1.499 -0.2203 -0.6519 -0.2441
 5071TIP3   OH236771   0.248   1.314   7.325  0.1628 -0.1405 -0.0820
 5071TIP3    H136772   0.297   1.255   7.382 -0.4621 -0.8589 -0.2781
 5071TIP3    H236773   0.175   1.343   7.380 -1.1408 -1.7910 -0.8610
 5072TIP3   OH236774   0.520   2.705   0.799  0.1041  0.1811 -0.4970
 5072TIP3    H136775   0.580   2.780   0.799  1.1962 -0.6396 -1.5485
 5072TIP3    H236776   0.566   2.638   0.748 -1.9589 -0.2966 -1.8461
 5073TIP3   OH236777   2.939   3.046   0.438  0.4609 -0.3910 -0.4756
 5073TIP3    H136778   2.852   3.055   0.398  1.3902  0.5072 -2.3765
 5073TIP3    H236779   2.924   2.986   0.512 -2.0190  0.7561  0.0830
 5074TIP3   OH236780   3.741   0.999   1.737 -0.3613 -0.7179  0.1426
 5074TIP3    H136781   3.733   0.922   1.794 -1.0122 -1.3458 -0.7751
 5074TIP3    H236782   3.653   1.012   1.702 -0.4588  0.9706  0.9256
 5075TIP3   OH236783   0.120   0.464   0.806  0.5810  1.0677  0.5366
 5075TIP3    H136784   0.152   0.420   0.884  0.1032  0.9708  0.6817
 5075TIP3    H236785   0.045   0.411   0.778  2.5725 -0.7714 -1.8100
 5076TIP3   OH236786   1.548   3.667   7.165  0.5544 -0.0732 -0.1254
 5076TIP3    H136787   1.626   3.623   7.131  0.8030  0.2845 -0.0128
 5076TIP3    H236788   1.487   3.595   7.183  0.6283 -0.3135 -0.7786
 5077TIP3   OH236789   6.348   1.123   0.602  0.0367  0.0425  0.1345
 5077TIP3    H136790   6.273   1.180   0.585 -0.4643 -0.6990 -0.1707
 5077TIP3    H236791   6.318   1.035   0.578  0.5672 -0.4660  1.2810
 5078TIP3   OH236792   0.665   3.918   1.810  0.0329 -0.3208  0.1141
 5078TIP3    H136793   0.578   3.891   1.782 -0.2927 -1.5172  2.1159
 5078TIP3    H236794   0.720   3.841   1.797  1.3795  0.9874 -3.0468
 5079TIP3   OH236795   5.105   2.320   1.471  0.0737  0.6817 -0.7812
 5079TIP3    H136796   5.043   2.356   1.534 -0.0049 -0.6421 -0.0654
 5079TIP3    H236797   5.191   2.345   1.504  0.1647 -1.7242  1.0863
 5080TIP3   OH236798   3.540   5.936   0.961 -0.2236 -0.0593 -0.4329
 5080TIP3    H136799   3.502   5.885   1.033 -0.7779  0.3871 -0.4036
 5080TIP3    H236800   3.587   6.007   1.004 -1.0862  0.5772 -0.5158
 5081TIP3   OH236801   5.999   2.386   0.760  0.8179  0.8726 -0.1076
 5081TIP3    H136802   5.912   2.422   0.778  0.7018  0.9090 -0.7258
 5081TIP3    H236803   6.049   2.459   0.726  0.8947  0.6946 -0.3794
 5082TIP3   OH236804   0.209   5.882   2.279 -0.2233  0.2093  0.2949
 5082TIP3    H136805   0.114   5.879   2.291 -0.1790 -0.8919  0.4701
 5082TIP3    H236806   0.244   5.855   2.364  0.2353  0.2248  0.1107
 5083TIP3   OH236807   2.753   4.617   7.771  0.1085  0.3167 -0.3026
 5083TIP3    H136808   2.769   4.573   7.688  0.2937  1.1973 -0.7517
 5083TIP3    H236809   2.762   4.710   7.750 -0.0711  0.5568  0.6563
 5084TIP3   OH236810   1.072   0.829   1.669 -0.0978  0.1225 -0.1813
 5084TIP3    H136811   1.153   0.826   1.719 -1.1845  0.2230  1.6729
 5084TIP3    H236812   1.100   0.818   1.578  2.0447  0.9749  0.3157
 5085TIP3   OH236813   5.526   2.949   7.076  0.3716  0.4348  0.0547
 5085TIP3    H136814   5.436   2.980   7.060  0.8074  0.8663 -1.8033
 5085TIP3    H236815   5.544   2.891   7.002  1.3700 -0.2670  0.8337
 5086TIP3   OH236816   3.972   4.698   8.622  0.0753 -0.5227 -0.6119
 5086TIP3    H136817   3.948   4.687   8.530 -1.2086  1.5993 -0.5979
 5086TIP3    H236818   3.890   4.682   8.670  0.8145 -1.9849  0.2454
 5087TIP3   OH236819   3.449   1.841   7.240 -0.1463 -0.1410  0.2924
 5087TIP3    H136820   3.355   1.854   7.256 -0.1260  1.4363 -0.7212
 5087TIP3    H236821   3.480   1.797   7.320 -1.8225 -1.1914  0.4314
 5088TIP3   OH236822   6.564   6.366   2.233  0.2945 -0.9643 -0.8729
 5088TIP3    H136823   6.630   6.326   2.290  0.8311 -1.6409 -1.9485
 5088TIP3    H236824   6.493   6.390   2.293  1.8252  0.5381  0.4510
 5089TIP3   OH236825   2.899   1.127   7.453 -0.4163  0.0664  0.1878
 5089TIP3    H136826   2.875   1.095   7.540  0.2424 -0.8299  0.0518
 5089TIP3    H236827   2.927   1.049   7.405  0.4603  0.7254 -0.4146
 5090TIP3   OH236828   5.370   3.990   7.269 -0.1235 -0.0409  0.1125
 5090TIP3    H136829   5.279   3.980   7.241  0.1148 -0.7297 -0.4510
 5090TIP3    H236830   5.392   3.905   7.309  1.6362 -1.7004 -3.8220
 5091TIP3   OH236831   0.676   3.629   0.713 -0.7349  0.1213 -0.0940
 5091TIP3    H136832   0.728   3.592   0.784 -0.4794 -4.3033 -2.1936
 5091TIP3    H236833   0.739   3.672   0.656 -0.5360  1.2321  0.9444
 5092TIP3   OH236834   5.095   3.954   7.351 -0.2678  0.4507 -0.3122
 5092TIP3    H136835   5.061   4.034   7.391  1.1353  1.0129 -0.1964
 5092TIP3    H236836   5.055   3.884   7.402 -0.4291  1.1153  0.5053
 5093TIP3   OH236837   1.119   0.668   1.946 -0.6527  0.2625  0.0652
 5093TIP3    H136838   1.066   0.747   1.955  0.4787  0.8608  2.1188
 5093TIP3    H236839   1.205   0.700   1.917 -0.4692 -0.3265 -0.0564
 5094TIP3   OH236840   4.887   4.561   8.410 -0.3307  1.1390 -0.1035
 5094TIP3    H136841   4.969   4.513   8.407 -0.7981  0.3514 -1.2727
 5094TIP3    H236842   4.889   4.609   8.493  0.1876 -0.8176  1.0625
 5095TIP3   OH236843   6.129   5.931   6.807  0.1297 -0.1761 -0.1543
 5095TIP3    H136844   6.101   5.982   6.882  0.4409  1.9832 -1.4151
 5095TIP3    H236845   6.213   5.969   6.782  0.6906 -1.7489 -0.7849
 5096TIP3   OH236846   2.125   1.478   0.194 -0.0620  0.2380  0.1016
 5096TIP3    H136847   2.216   1.475   0.223 -0.3862 -0.4431  1.0773
 5096TIP3    H236848   2.091   1.559   0.230  0.7814  1.7637 -2.2763
 5097TIP3   OH236849   6.625   4.794   2.140 -0.4478 -0.3965  0.4172
 5097TIP3    H136850   6.613   4.779   2.047  0.9706 -2.6077  0.5164
 5097TIP3    H236851   6.552   4.749   2.182 -2.1257  2.1110  0.3991
 5098TIP3   OH236852   3.536   3.690   8.090  0.0006  0.3930 -0.2885
 5098TIP3    H136853   3.488   3.609   8.106 -1.4564  1.6673  2.2930
 5098TIP3    H236854   3.534   3.700   7.995 -2.2462 -1.1566 -0.4842
 5099TIP3   OH236855   0.729   5.574   0.847  1.1227  0.7237  0.3554
 5099TIP3    H136856   0.658   5.637   0.834 -0.7147 -1.3877 -0.4484
 5099TIP3    H236857   0.807   5.620   0.817 -0.2217  2.4439 -0.7300
 5100TIP3   OH236858   2.805   4.896   0.205  0.3270  0.7186  0.0017
 5100TIP3    H136859   2.731   4.856   0.251  0.0256  0.1673 -0.9479
 5100TIP3    H236860   2.856   4.823   0.172  1.1322  1.1031  0.3683
 5101TIP3   OH236861   6.368   2.387   0.516 -0.2902  0.1723  0.2251
 5101TIP3    H136862   6.407   2.304   0.490 -0.6067  0.1729 -0.2683
 5101TIP3    H236863   6.375   2.388   0.611  0.6598  0.0571  0.1658
 5102TIP3   OH236864   3.695   3.873   6.417 -0.3155  0.2474 -0.2353
 5102TIP3    H136865   3.749   3.849   6.492  1.5802  0.2203 -1.5521
 5102TIP3    H236866   3.757   3.882   6.345 -2.1492 -0.3663 -1.9574
 5103TIP3   OH236867   3.252   3.327   6.671  0.1868  0.1366  1.0138
 5103TIP3    H136868   3.271   3.416   6.640 -1.0394  0.0536 -0.0841
 5103TIP3    H236869   3.156   3.319   6.663  0.1626 -0.9246  2.1055
 5104TIP3   OH236870   3.803   0.117   0.256 -0.0185 -0.4910 -0.3679
 5104TIP3    H136871   3.891   0.102   0.222  1.1150  0.3597  2.0082
 5104TIP3    H236872   3.761   0.172   0.189  1.5572 -0.1383 -1.1143
 5105TIP3   OH236873   3.919   4.599   7.133 -0.2447  0.1998  0.4595
 5105TIP3    H136874   3.867   4.598   7.213  0.0654  0.8289  0.6793
 5105TIP3    H236875   3.999   4.646   7.157 -0.0564  0.2133 -0.1644
 5106TIP3   OH236876   4.977   6.726   0.880  0.0246 -0.2972  0.2082
 5106TIP3    H136877   4.949   6.805   0.834 -0.0988 -0.9822 -0.9440
 5106TIP3    H236878   5.024   6.758   0.957 -0.0262  0.8890 -0.2342
 5107TIP3   OH236879   0.172   5.428   7.391  0.4780  0.0406 -0.0714
 5107TIP3    H136880   0.228   5.359   7.427  0.2411 -0.0396  0.1498
 5107TIP3    H236881   0.232   5.496   7.365  0.8364 -0.8448 -1.6513
 5108TIP3   OH236882   4.259   2.562   6.410  0.0422 -1.0463  0.6132
 5108TIP3    H136883   4.210   2.636   6.373  0.9787  0.4899  2.2976
 5108TIP3    H236884   4.328   2.546   6.346 -0.6023 -0.9801 -0.1240
 5109TIP3   OH236885   5.786   6.287   0.109 -1.2370  0.0284 -0.5487
 5109TIP3    H136886   5.845   6.213   0.120  0.0756  0.9958 -0.8978
 5109TIP3    H236887   5.724   6.258   0.042 -1.4088 -1.1358  0.0918
 5110TIP3   OH236888   3.636   4.020   8.232  0.5641 -0.6012  0.7331
 5110TIP3    H136889   3.625   4.011   8.327  1.5806 -0.5363  0.8606
 5110TIP3    H236890   3.711   4.078   8.221 -0.6238  0.8649 -0.1192
 5111TIP3   OH236891   6.299   5.349   6.365 -0.2710  0.1360 -0.1915
 5111TIP3    H136892   6.334   5.280   6.421  0.2280 -0.2511 -0.9624
 5111TIP3    H236893   6.304   5.313   6.276 -2.0478  0.3204 -0.4089
 5112TIP3   OH236894   3.310   4.935   8.547  0.1772 -0.2101  0.2762
 5112TIP3    H136895   3.253   4.874   8.594 -1.8843  0.6536 -0.9527
 5112TIP3    H236896   3.260   4.959   8.469  3.2006 -1.1827 -2.1691
 5113TIP3   OH236897   1.271   4.734   6.315  0.3459 -0.4629 -0.1987
 5113TIP3    H136898   1.227   4.653   6.292  2.8104 -1.9882  0.1638
 5113TIP3    H236899   1.356   4.729   6.272  0.8565  1.6031  0.4373
 5114TIP3   OH236900   2.026   0.290   0.568  0.1180 -0.3691  0.1854
 5114TIP3    H136901   2.079   0.361   0.605 -0.5276  0.4390 -0.4110
 5114TIP3    H236902   1.956   0.277   0.631 -0.9138  0.9258 -0.6525
 5115TIP3   OH236903   4.967   5.281   6.575 -0.0092 -0.2416  0.2371
 5115TIP3    H136904   5.020   5.347   6.617  0.1077 -0.5474  0.5730
 5115TIP3    H236905   4.982   5.294   6.481 -1.0033  1.0560  0.2317
 5116TIP3   OH236906   2.516   2.264   8.197 -0.0453  0.5297  0.2120
 5116TIP3    H136907   2.564   2.182   8.202 -3.2404 -1.4868  1.1865
 5116TIP3    H236908   2.503   2.289   8.289 -1.0797  0.7874  0.0143
 5117TIP3   OH236909   1.587   4.951   0.964 -0.1283 -0.2957 -0.2119
 5117TIP3    H136910   1.558   4.997   1.043  0.3261  0.6444 -0.5818
 5117TIP3    H236911   1.575   5.014   0.893  0.0350 -0.9210 -0.8156
 5118TIP3   OH236912   1.885   1.372   8.419 -0.2224  0.2778  0.3339
 5118TIP3    H136913   1.976   1.390   8.394 -1.0336  0.3110 -3.0385
 5118TIP3    H236914   1.861   1.447   8.474  1.3097  1.0820 -0.0117
 5119TIP3   OH236915   5.583   1.112   6.625  0.3363  0.0353  0.1262
 5119TIP3    H136916   5.630   1.182   6.581 -1.0938  0.3901 -0.8966
 5119TIP3    H236917   5.578   1.140   6.717  0.3114  0.9706 -0.1542
 5120TIP3   OH236918   0.886   6.121   1.300  0.5806 -0.0265 -0.2356
 5120TIP3    H136919   0.924   6.202   1.267  0.5018 -0.3299 -1.1194
 5120TIP3    H236920   0.902   6.057   1.229  0.1669 -0.6402  0.2146
 5121TIP3   OH236921   5.417   2.398   7.461 -0.4580 -0.8320 -0.7052
 5121TIP3    H136922   5.400   2.406   7.555  2.0803 -1.3959 -0.1208
 5121TIP3    H236923   5.468   2.476   7.439  0.2830 -1.4399 -1.2323
 5122TIP3   OH236924   1.930   6.714   6.856  0.4796 -0.0101  0.6961
 5122TIP3    H136925   1.968   6.790   6.814 -1.8721  0.4167 -0.8644
 5122TIP3    H236926   1.842   6.742   6.881  0.1047 -1.7504  1.5065
 5123TIP3   OH236927   5.268   0.475   2.286 -0.0638 -0.1044 -0.0372
 5123TIP3    H136928   5.202   0.541   2.306  0.6423  1.1285 -1.5735
 5123TIP3    H236929   5.296   0.442   2.372 -2.0372 -0.0718  0.6696
 5124TIP3   OH236930   4.281   4.091   7.397  0.1202  0.2616 -0.2775
 5124TIP3    H136931   4.223   4.166   7.410 -1.1093 -0.8031  0.5977
 5124TIP3    H236932   4.225   4.024   7.358  0.8431 -0.6784  0.2495
 5125TIP3   OH236933   4.951   0.697   1.335 -0.0073 -0.1857 -0.1909
 5125TIP3    H136934   4.969   0.786   1.304 -0.1896  0.7442  2.0988
 5125TIP3    H236935   5.037   0.657   1.346  0.2843  0.8171  1.5792
 5126TIP3   OH236936   1.834   3.606   1.620  0.2492  0.4670  0.0023
 5126TIP3    H136937   1.845   3.615   1.526 -0.1174  0.2816 -0.0611
 5126TIP3    H236938   1.813   3.513   1.633  0.8811  0.3604  0.3243
 5127TIP3   OH236939   6.377   5.777   7.006 -0.3269 -0.1864  0.1290
 5127TIP3    H136940   6.286   5.757   6.984 -0.6835  0.2294  1.1973
 5127TIP3    H236941   6.428   5.716   6.953 -1.2456 -0.8321 -0.0327
 5128TIP3   OH236942   3.532   2.090   7.167  0.8429 -0.3108  0.5300
 5128TIP3    H136943   3.533   2.096   7.262 -2.3706 -0.7742  0.6937
 5128TIP3    H236944   3.487   2.008   7.148  0.9562  0.0236 -1.4080
 5129TIP3   OH236945   2.911   4.346   2.314 -0.1598 -0.0062  0.0236
 5129TIP3    H136946   2.927   4.285   2.386 -2.3142  1.4055  1.8079
 5129TIP3    H236947   2.829   4.317   2.275  0.8845 -0.6442 -1.8656
 5130TIP3   OH236948   3.444   0.279   6.900  0.6627  0.4752  0.6116
 5130TIP3    H136949   3.537   0.297   6.914  1.7765 -2.6870 -1.4835
 5130TIP3    H236950   3.415   0.349   6.842  2.5719  0.1029 -0.9245
 5131TIP3   OH236951   0.850   2.029   1.464  0.3253  0.0906  0.2592
 5131TIP3    H136952   0.797   1.952   1.485 -0.6210  0.3999 -0.9399
 5131TIP3    H236953   0.849   2.081   1.544 -0.5481 -0.2813  0.5021
 5132TIP3   OH236954   2.355   4.694   7.291 -0.2059  0.9258  0.3122
 5132TIP3    H136955   2.356   4.765   7.227 -0.8961 -1.2941 -2.3182
 5132TIP3    H236956   2.445   4.660   7.290 -0.5587 -0.0333 -0.6424
 5133TIP3   OH236957   0.485   1.560   8.607  0.4251  0.4848  0.3472
 5133TIP3    H136958   0.411   1.621   8.607  0.4621  0.5293  0.4871
 5133TIP3    H236959   0.502   1.544   8.514  0.6002  0.9122  0.3001
 5134TIP3   OH236960   4.457   1.772   7.287 -0.3456 -0.2047 -0.1299
 5134TIP3    H136961   4.392   1.794   7.220 -0.9640 -0.2019  0.4580
 5134TIP3    H236962   4.490   1.686   7.261  0.9126  0.6453 -1.5473
 5135TIP3   OH236963   3.824   4.653   0.582 -0.7099  0.1702 -0.1696
 5135TIP3    H136964   3.810   4.735   0.629  1.4631  0.5457 -0.0897
 5135TIP3    H236965   3.738   4.610   0.583 -1.3715  1.4143  1.7036
 5136TIP3   OH236966   5.011   0.640   0.987 -0.0164 -0.1316  0.3309
 5136TIP3    H136967   5.052   0.559   1.016  1.2167 -0.0428 -1.0642
 5136TIP3    H236968   5.079   0.707   0.997 -0.0576  0.1825 -1.1631
 5137TIP3   OH236969   3.165   5.631   2.197 -0.1534 -0.7134 -0.3904
 5137TIP3    H136970   3.241   5.621   2.255  0.9909  0.0361 -1.6904
 5137TIP3    H236971   3.110   5.555   2.215  0.1345 -0.4838  1.6832
 5138TIP3   OH236972   6.859   0.229   6.100  0.4662 -0.5495 -0.5365
 5138TIP3    H136973   6.936   0.286   6.094  1.4210 -1.7996 -0.6928
 5138TIP3    H236974   6.888   0.156   6.155 -1.2697 -0.0489  1.1367
 5139TIP3   OH236975   6.787   0.247   8.304  0.4835 -0.0017  0.2328
 5139TIP3    H136976   6.831   0.296   8.374  0.3386 -0.1714  0.4463
 5139TIP3    H236977   6.795   0.155   8.330  1.9751 -0.2068 -0.8751
 5140TIP3   OH236978   0.952   2.033   6.509 -0.0626 -0.9168  0.8222
 5140TIP3    H136979   1.041   1.997   6.513  0.7482  0.9692  1.0290
 5140TIP3    H236980   0.964   2.123   6.479 -2.1855 -1.4416 -2.0090
 5141TIP3   OH236981   6.195   4.596   0.245 -0.6073  0.0014 -0.8924
 5141TIP3    H136982   6.152   4.603   0.331  0.5570 -1.1277 -0.1799
 5141TIP3    H236983   6.218   4.686   0.223  0.3249  0.1825  0.6663
 5142TIP3   OH236984   4.395   0.377   8.472 -0.0315  0.4669 -0.7867
 5142TIP3    H136985   4.488   0.396   8.476  0.0923  0.8673 -3.4165
 5142TIP3    H236986   4.388   0.308   8.405 -1.6538  0.8264 -1.0342
 5143TIP3   OH236987   4.954   4.722   1.773 -0.0142 -0.7336  0.2618
 5143TIP3    H136988   4.914   4.644   1.811 -1.8400 -0.1816 -0.3871
 5143TIP3    H236989   5.040   4.694   1.742 -0.3821 -2.3092  0.6176
 5144TIP3   OH236990   4.428   5.778   7.559 -0.0066  0.3753 -0.7343
 5144TIP3    H136991   4.409   5.871   7.574  1.8904  0.5981  0.6714
 5144TIP3    H236992   4.429   5.740   7.647  0.9144 -0.6024 -1.1529
 5145TIP3   OH236993   6.022   3.824   0.755  0.0424 -0.5483  0.3220
 5145TIP3    H136994   5.975   3.819   0.838  0.0362 -0.4113  0.3260
 5145TIP3    H236995   5.968   3.878   0.698 -0.1309 -0.9412  0.1091
 5146TIP3   OH236996   0.085   6.737   0.081  0.1008  0.0601  0.7615
 5146TIP3    H136997   0.135   6.657   0.065  0.0345  0.5368 -2.4840
 5146TIP3    H236998   0.150   6.800   0.113  0.4734 -0.7924  1.7252
 5147TIP3   OH236999   0.771   5.137   0.118  0.6856  0.2483 -0.6815
 5147TIP3    H137000   0.833   5.135   0.045  1.2421  0.2663 -0.2240
 5147TIP3    H237001   0.792   5.058   0.168 -0.3594 -0.2983 -1.0696
 5148TIP3   OH237002   0.139   2.279   2.058 -0.7842 -0.4616 -0.5323
 5148TIP3    H137003   0.162   2.229   2.136 -0.5990  0.1563 -0.1878
 5148TIP3    H237004   0.199   2.246   1.991 -1.6750 -1.7749 -0.7215
 5149TIP3   OH237005   1.477   1.235   8.167 -0.4844  0.2620 -0.1324
 5149TIP3    H137006   1.561   1.238   8.212 -0.6371  0.9684  0.1082
 5149TIP3    H237007   1.494   1.273   8.081 -0.0674 -1.5709 -0.9140
 5150TIP3   OH237008   6.075   2.655   8.016  0.2082 -0.3842  0.0536
 5150TIP3    H137009   6.039   2.697   7.938  0.5116 -2.3817 -1.2180
 5150TIP3    H237010   6.068   2.722   8.084  0.1896  1.5302 -1.7274
 5151TIP3   OH237011   5.764   1.471   7.581  0.3370  0.2910 -0.0194
 5151TIP3    H137012   5.769   1.376   7.589 -1.3062  0.1530 -0.2654
 5151TIP3    H237013   5.784   1.504   7.668  1.2490 -0.2431 -0.0103
 5152TIP3   OH237014   3.986   1.832   8.482  0.3820 -0.5155 -0.0468
 5152TIP3    H137015   4.027   1.746   8.480 -0.2833 -0.8315 -1.2879
 5152TIP3    H237016   3.893   1.814   8.488  0.2790  0.1497  0.4936
 5153TIP3   OH237017   3.536   1.900   0.116 -0.3319  0.2554 -0.2639
 5153TIP3    H137018   3.522   1.868   0.205  0.2500  0.5349 -0.0688
 5153TIP3    H237019   3.599   1.839   0.078  1.0496  1.3126  0.2233
 5154TIP3   OH237020   5.198   2.374   7.145 -0.1194 -0.6411 -0.2628
 5154TIP3    H137021   5.124   2.427   7.115 -0.9965 -1.8536 -0.3269
 5154TIP3    H237022   5.228   2.328   7.067 -0.2542 -1.2753  0.0520
 5155TIP3   OH237023   6.472   0.580   8.095  0.8466  0.1697 -0.1672
 5155TIP3    H137024   6.479   0.504   8.153 -0.6322  0.8244  0.9229
 5155TIP3    H237025   6.473   0.656   8.154 -0.4937  0.8673 -1.0036
 5156TIP3   OH237026   4.438   6.781   2.157  0.0384 -0.1023  0.5033
 5156TIP3    H137027   4.528   6.770   2.124 -0.2721  0.0081 -0.3924
 5156TIP3    H237028   4.446   6.767   2.252  0.8955 -0.7305  0.3552
 5157TIP3   OH237029   0.332   0.847   7.065 -0.2987  0.4075  0.4630
 5157TIP3    H137030   0.332   0.793   6.986 -1.7421  0.1710  0.5944
 5157TIP3    H237031   0.423   0.848   7.094  0.2753  0.5671 -1.2367
 5158TIP3   OH237032   2.267   1.404   1.458 -0.0118  0.2422 -0.1181
 5158TIP3    H137033   2.296   1.452   1.536 -0.4462  0.2671  0.0317
 5158TIP3    H237034   2.283   1.312   1.479  0.6911  0.3043 -0.3501
 5159TIP3   OH237035   1.510   3.960   7.882  1.0334  0.5770  0.6349
 5159TIP3    H137036   1.530   4.053   7.872 -0.2653  0.7639 -0.7243
 5159TIP3    H237037   1.416   3.955   7.866  1.4324 -1.2338 -1.6104
 5160TIP3   OH237038   0.928   6.034   1.044 -0.4708 -0.2373 -0.1060
 5160TIP3    H137039   0.921   5.942   1.021  0.4740 -0.6335  1.0776
 5160TIP3    H237040   0.979   6.073   0.972  2.1681 -1.3851  1.0138
 5161TIP3   OH237041   2.753   4.619   8.050  0.3536  0.2741  0.0083
 5161TIP3    H137042   2.825   4.565   8.081 -1.1283 -0.4976  2.3689
 5161TIP3    H237043   2.743   4.595   7.957  0.9744 -2.1304  0.4865
 5162TIP3   OH237044   0.546   1.068   8.127 -0.4879 -0.6408  0.5133
 5162TIP3    H137045   0.548   0.997   8.062 -1.1365 -2.5281  2.4344
 5162TIP3    H237046   0.609   1.041   8.193 -0.1785  1.0076  0.9175
 5163TIP3   OH237047   1.756   5.287   7.947  0.6266  0.3062 -0.3918
 5163TIP3    H137048   1.708   5.282   7.865  0.3706 -0.0937 -0.2214
 5163TIP3    H237049   1.691   5.266   8.015  1.0375 -0.2692 -0.1649
 5164TIP3   OH237050   6.011   2.777   1.275  0.3685  0.5881  0.4628
 5164TIP3    H137051   6.089   2.726   1.251  1.0683  1.4183  0.9478
 5164TIP3    H237052   6.037   2.868   1.260  0.1655  1.0094  2.4780
 5165TIP3   OH237053   4.524   0.187   7.674 -0.4886  0.3390  0.1111
 5165TIP3    H137054   4.587   0.117   7.685  0.9821  1.8436  2.1570
 5165TIP3    H237055   4.439   0.143   7.671  0.3956 -1.5400  0.9456
 5166TIP3   OH237056   0.586   1.915   7.284  0.1399  0.3059  0.1354
 5166TIP3    H137057   0.573   2.001   7.322  0.9033  0.3466  0.3060
 5166TIP3    H237058   0.583   1.855   7.358 -0.3309  0.1827  0.0238
 5167TIP3   OH237059   4.200   3.446   0.108 -0.0748  0.3853  0.1460
 5167TIP3    H137060   4.197   3.516   0.174  2.5976 -1.3135  2.2599
 5167TIP3    H237061   4.193   3.365   0.158  2.8637 -1.0310 -1.4508
 5168TIP3   OH237062   1.783   2.901   0.096 -0.5110  0.1269 -0.2061
 5168TIP3    H137063   1.743   2.983   0.066 -0.1817 -0.1869 -1.5943
 5168TIP3    H237064   1.877   2.914   0.084 -0.4579 -0.4588 -0.4525
 5169TIP3   OH237065   2.576   1.353   8.295 -0.0485  0.1290 -0.1834
 5169TIP3    H137066   2.667   1.352   8.263 -0.1966 -2.3675 -0.7567
 5169TIP3    H237067   2.575   1.287   8.364 -1.4751 -0.0159 -0.3200
 5170TIP3   OH237068   2.072   2.756   8.335 -0.3803 -0.5351  0.5125
 5170TIP3    H137069   2.036   2.764   8.423  3.5075  0.7643  2.1604
 5170TIP3    H237070   2.141   2.690   8.342  0.7198  0.3326 -1.2820
 5171TIP3   OH237071   4.091   6.340   7.519  0.0611 -0.5269 -0.1558
 5171TIP3    H137072   4.007   6.313   7.480 -0.8908  3.3354 -1.2418
 5171TIP3    H237073   4.145   6.365   7.444  0.2571  1.7341  0.6614
 5172TIP3   OH237074   4.448   4.628   0.325 -0.0476 -0.6795  0.2227
 5172TIP3    H137075   4.485   4.558   0.271 -1.3357 -0.5763 -0.8399
 5172TIP3    H237076   4.389   4.675   0.266  0.0593  0.7147  1.1840
 5173TIP3   OH237077   1.318   2.480   7.873 -0.5410 -0.5814  0.3022
 5173TIP3    H137078   1.367   2.431   7.939  0.3338  0.3094  0.3346
 5173TIP3    H237079   1.274   2.549   7.923 -0.9494 -0.7084  0.1228
 5174TIP3   OH237080   5.240   0.800   1.505  0.9892  0.4576 -0.3071
 5174TIP3    H137081   5.237   0.729   1.441  3.1835  1.3903 -1.5501
 5174TIP3    H237082   5.293   0.764   1.577 -0.5314 -0.1950  0.5338
 5175TIP3   OH237083   1.027   2.874   2.136 -0.0559 -0.2300  0.0381
 5175TIP3    H137084   0.954   2.905   2.082 -0.1323 -0.6708 -0.1183
 5175TIP3    H237085   1.010   2.911   2.222  0.2510  0.7650 -0.3198
 5176TIP3   OH237086   1.412   6.488   0.720  1.0226  0.4162 -0.7094
 5176TIP3    H137087   1.389   6.581   0.727 -0.3549  0.0856 -0.4219
 5176TIP3    H237088   1.474   6.484   0.648  1.8964  1.6870 -0.0661
 5177TIP3   OH237089   5.587   3.846   7.603 -0.5308 -0.1229  0.3749
 5177TIP3    H137090   5.633   3.910   7.548 -0.4224  1.0716  1.7830
 5177TIP3    H237091   5.506   3.891   7.628 -0.9351 -0.9499  0.5770
 5178TIP3   OH237092   5.323   4.271   8.574 -0.3819  0.1484 -0.1540
 5178TIP3    H137093   5.386   4.201   8.593 -0.3134  0.5946  1.4698
 5178TIP3    H237094   5.253   4.229   8.525 -0.2144 -1.0215  0.5726
 5179TIP3   OH237095   6.720   1.044   0.750 -0.1118 -0.0431  0.7590
 5179TIP3    H137096   6.745   0.977   0.813 -2.3630 -1.3463  0.3557
 5179TIP3    H237097   6.753   1.012   0.666  3.2871  1.9046  1.1324
 5180TIP3   OH237098   4.687   5.586   2.074  0.6800  0.2488 -0.2199
 5180TIP3    H137099   4.689   5.603   2.168 -0.1022  1.3288 -0.3901
 5180TIP3    H237100   4.706   5.671   2.033  1.6797 -0.3401 -1.0458
 5181TIP3   OH237101   0.329   6.594   7.134  0.2697  0.0927  0.3453
 5181TIP3    H137102   0.334   6.626   7.224 -0.3226  0.1146  0.3714
 5181TIP3    H237103   0.330   6.674   7.081  0.2443  0.0948  0.3481
 5182TIP3   OH237104   2.337   1.384   7.676 -0.8298 -0.3318 -0.3093
 5182TIP3    H137105   2.393   1.393   7.753 -2.0155 -0.0411  0.5615
 5182TIP3    H237106   2.395   1.398   7.602  0.4930 -1.3014  0.5002
 5183TIP3   OH237107   6.300   6.813   1.031 -0.1053  0.3700  0.2165
 5183TIP3    H137108   6.377   6.766   0.999  1.2518  2.1425  0.7181
 5183TIP3    H237109   6.315   6.904   1.006 -1.6350  0.8905  1.0668
 5184TIP3   OH237110   6.533   4.833   8.214  0.4418 -0.7670  0.3308
 5184TIP3    H137111   6.476   4.784   8.155 -0.4895 -0.7656  1.2124
 5184TIP3    H237112   6.530   4.784   8.296  1.0094 -0.2779  0.6518
 5185TIP3   OH237113   6.654   4.888   1.157 -0.6375  0.6548  0.0963
 5185TIP3    H137114   6.606   4.813   1.192  1.7144  0.5234  3.5090
 5185TIP3    H237115   6.608   4.965   1.191  0.2982  0.5590  1.6851
 5186TIP3   OH237116   5.186   5.051   8.033 -0.0898 -0.2822  0.2481
 5186TIP3    H137117   5.159   5.141   8.054  0.4127  0.2423 -1.2144
 5186TIP3    H237118   5.225   5.018   8.115 -0.0322  0.9341  0.7334
 5187TIP3   OH237119   2.006   5.112   8.014 -0.4014  0.2086 -0.2456
 5187TIP3    H137120   2.066   5.185   8.030 -0.0417  0.2687 -1.6740
 5187TIP3    H237121   1.925   5.154   7.985 -0.9767  0.1069  1.1631
 5188TIP3   OH237122   2.937   2.569   0.457 -0.4399  0.0782 -0.1964
 5188TIP3    H137123   2.845   2.565   0.432 -0.9338 -0.6454  1.5591
 5188TIP3    H237124   2.983   2.522   0.387 -1.0922  2.2424 -2.1841
 5189TIP3   OH237125   3.394   5.419   7.693  1.0447  0.1382 -0.9221
 5189TIP3    H137126   3.367   5.375   7.612 -0.4935  0.0788 -0.4120
 5189TIP3    H237127   3.456   5.486   7.664  0.8155 -0.1339 -2.1027
 5190TIP3   OH237128   1.715   5.477   7.275 -0.5162 -0.5647 -0.1355
 5190TIP3    H137129   1.744   5.386   7.287 -1.4554 -0.7473  0.9435
 5190TIP3    H237130   1.704   5.486   7.181 -1.0457 -1.7942 -0.2217
 5191TIP3   OH237131   4.560   1.662   8.460 -0.1589  0.0863 -0.8444
 5191TIP3    H137132   4.567   1.722   8.534  0.7385  0.6947 -1.4068
 5191TIP3    H237133   4.649   1.627   8.449 -0.8610 -2.2074  0.1549
 5192TIP3   OH237134   0.187   4.505   0.613  0.3457  0.1303 -0.3244
 5192TIP3    H137135   0.095   4.481   0.626  0.2601  0.8693  0.4879
 5192TIP3    H237136   0.233   4.465   0.686  0.1409  2.6836  1.3175
 5193TIP3   OH237137   1.644   1.764   8.285 -0.3985 -0.8247  0.0189
 5193TIP3    H137138   1.726   1.811   8.267  0.2507 -2.0063 -0.2808
 5193TIP3    H237139   1.575   1.823   8.255  0.4433 -0.5826 -1.5858
 5194TIP3   OH237140   6.279   2.082   0.150 -0.7207 -0.7381 -0.0631
 5194TIP3    H137141   6.229   2.153   0.189  1.0462 -0.1818  1.3112
 5194TIP3    H237142   6.238   2.002   0.183 -2.9569 -0.4542 -1.9151
 5195TIP3   OH237143   5.243   0.133   6.391 -0.1298 -0.3582  0.2257
 5195TIP3    H137144   5.198   0.175   6.464 -2.2525 -1.7919 -0.1825
 5195TIP3    H237145   5.259   0.204   6.329 -2.1865  0.1855  0.2492
 5196TIP3   OH237146   4.167   0.208   6.404  0.1697  0.1626  0.0159
 5196TIP3    H137147   4.114   0.156   6.345  2.4416 -1.5260 -0.6663
 5196TIP3    H237148   4.196   0.282   6.351 -0.8821  0.7204  0.1920
 5197TIP3   OH237149   5.281   2.230   6.922 -0.1405 -0.0471  0.8340
 5197TIP3    H137150   5.317   2.255   6.836 -2.5706 -0.0687 -0.2814
 5197TIP3    H237151   5.307   2.138   6.932 -0.4026 -0.2647 -0.2485
 5198TIP3   OH237152   2.002   1.326   1.430  0.0632 -0.2551 -0.1709
 5198TIP3    H137153   2.090   1.361   1.419  0.1621 -0.1807  0.7514
 5198TIP3    H237154   1.957   1.391   1.484  0.0088 -1.1397  0.9016
 5199TIP3   OH237155   0.906   2.367   8.270  0.2132 -0.3781  0.9581
 5199TIP3    H137156   0.885   2.460   8.277 -0.3340 -0.6404  3.8509
 5199TIP3    H237157   0.997   2.366   8.239 -0.5430  0.9794 -1.6184
 5200TIP3   OH237158   4.707   3.230   0.366  0.1799  0.3330 -0.6836
 5200TIP3    H137159   4.799   3.250   0.385  0.2783 -0.0754 -0.7160
 5200TIP3    H237160   4.658   3.279   0.431  0.3683  1.3562 -1.2838
 5201TIP3   OH237161   0.322   4.852   8.276  0.3698 -0.7276  0.0588
 5201TIP3    H137162   0.299   4.839   8.368  0.8538 -0.4141  0.2246
 5201TIP3    H237163   0.297   4.770   8.234 -0.3659 -0.6753  0.3644
 5202TIP3   OH237164   1.248   5.081   6.988  0.4354 -0.3849 -0.5645
 5202TIP3    H137165   1.335   5.042   7.001  0.6076 -0.3489 -1.5157
 5202TIP3    H237166   1.257   5.133   6.908 -0.5277 -0.5932 -0.8248
 5203TIP3   OH237167   3.870   0.711   0.037  0.1641  0.2731 -0.2665
 5203TIP3    H137168   3.874   0.634   0.093 -0.0827 -0.0473 -0.6876
 5203TIP3    H237169   3.873   0.785   0.098 -0.6878 -0.0732  0.2157
 5204TIP3   OH237170   2.982   5.601   6.321  0.2885  0.2681 -0.7409
 5204TIP3    H137171   2.931   5.661   6.267 -1.7398 -0.8614 -0.2003
 5204TIP3    H237172   3.041   5.556   6.260 -0.5262  0.4415 -1.6684
 5205TIP3   OH237173   4.012   3.381   0.819 -0.2427  0.3626  0.2121
 5205TIP3    H137174   4.023   3.420   0.905  1.9714  0.3979 -0.0209
 5205TIP3    H237175   4.088   3.411   0.769  0.1730 -2.0889 -0.7770
 5206TIP3   OH237176   5.063   2.122   0.593  0.7932  0.2600 -0.5734
 5206TIP3    H137177   5.063   2.121   0.497  2.5498  0.5395 -0.6073
 5206TIP3    H237178   4.974   2.095   0.617  0.5999 -0.7346 -2.2535
 5207TIP3   OH237179   1.604   4.344   1.109 -0.7120  0.4774  0.0686
 5207TIP3    H137180   1.612   4.266   1.164  0.5844  1.6581  1.6640
 5207TIP3    H237181   1.556   4.406   1.163  1.4138  1.9980  0.3418
 5208TIP3   OH237182   3.814   2.662   2.040 -0.1789 -0.4463 -0.0847
 5208TIP3    H137183   3.806   2.754   2.016 -3.6006  0.2554  2.9902
 5208TIP3    H237184   3.731   2.622   2.012  0.1136 -1.9446  1.0378
 5209TIP3   OH237185   4.558   1.046   0.060 -0.9540  0.2314 -0.1263
 5209TIP3    H137186   4.610   1.112   0.015  0.0015 -0.6340 -0.3281
 5209TIP3    H237187   4.473   1.048   0.015 -1.1441  1.6747  0.2273
 5210TIP3   OH237188   3.251   2.750   7.251 -0.3216 -0.7642  0.0138
 5210TIP3    H137189   3.338   2.755   7.291 -1.7993 -1.2368  3.7583
 5210TIP3    H237190   3.239   2.656   7.233  0.2207 -0.5905 -1.3711
 5211TIP3   OH237191   2.024   2.923   1.135 -0.3215 -0.6031  0.4164
 5211TIP3    H137192   2.006   2.911   1.229  0.6366 -1.5275  0.5018
 5211TIP3    H237193   2.077   3.003   1.131 -3.0918  1.3861  0.2881
 5212TIP3   OH237194   5.284   3.222   8.174 -0.9808 -0.3076 -0.1593
 5212TIP3    H137195   5.323   3.168   8.243 -0.7487  0.8387  0.6352
 5212TIP3    H237196   5.197   3.184   8.160  0.4309 -3.1654 -2.2409
 5213TIP3   OH237197   3.528   5.126   8.310 -0.1083  0.0065 -0.0547
 5213TIP3    H137198   3.548   5.103   8.401 -1.1871  1.1643  0.4981
 5213TIP3    H237199   3.443   5.086   8.293 -0.9383  1.6385  0.1771
 5214TIP3   OH237200   5.505   4.402   7.800  0.0675 -0.4551 -0.1568
 5214TIP3    H137201   5.512   4.487   7.757 -1.9505 -0.5064 -0.6835
 5214TIP3    H237202   5.578   4.351   7.764 -0.6197  0.0176 -2.3786
 5215TIP3   OH237203   1.915   5.675   1.481 -0.3592  0.3104  0.1010
 5215TIP3    H137204   1.862   5.718   1.412  0.6677  0.0181 -0.8974
 5215TIP3    H237205   1.851   5.625   1.531 -1.1963  0.8324 -0.3979
 5216TIP3   OH237206   6.085   1.141   8.537  0.3388  0.1524  0.0046
 5216TIP3    H137207   6.152   1.085   8.576  0.9074 -0.3759 -1.6315
 5216TIP3    H237208   6.023   1.157   8.608 -0.2633 -3.1657  0.4301
 5217TIP3   OH237209   5.456   0.037   8.527 -0.2266 -0.6379  0.1033
 5217TIP3    H137210   5.407  -0.034   8.487 -1.3992  0.4179 -0.4009
 5217TIP3    H237211   5.489   0.089   8.454 -0.2130 -0.1221  0.4653
 5218TIP3   OH237212   1.664   2.828   7.143 -0.5191 -0.5415 -0.2041
 5218TIP3    H137213   1.581   2.781   7.134 -0.0702 -2.4065  3.4801
 5218TIP3    H237214   1.649   2.890   7.214  1.2750 -1.0965  0.7105
 5219TIP3   OH237215   2.692   6.609   0.933 -0.0424  0.4071  0.5537
 5219TIP3    H137216   2.783   6.596   0.961  0.2878  0.8353 -0.2853
 5219TIP3    H237217   2.642   6.611   1.015  0.9427  1.9227  1.1737
 5220TIP3   OH237218   5.554   2.979   8.027  0.2192  0.2610 -0.0975
 5220TIP3    H137219   5.465   2.990   7.994  0.0864 -0.9979 -0.2045
 5220TIP3    H237220   5.556   3.030   8.108 -1.0819 -0.9626  0.7398
 5221TIP3   OH237221   4.256   1.133   7.872  0.4864  0.5041 -0.2853
 5221TIP3    H137222   4.263   1.225   7.898  1.0063  0.2795  0.4183
 5221TIP3    H237223   4.346   1.104   7.862  0.3364 -0.0178 -0.1644
 5222TIP3   OH237224   1.242   0.108   7.138 -0.4548  0.0912  0.0925
 5222TIP3    H137225   1.218   0.101   7.046  0.2735 -0.1178 -0.0929
 5222TIP3    H237226   1.336   0.126   7.137 -0.2309 -0.9258  0.8177
 5223TIP3   OH237227   6.768   3.901   6.790  0.2642  0.3017 -0.1844
 5223TIP3    H137228   6.756   3.989   6.827 -2.9408  0.2104 -0.6925
 5223TIP3    H237229   6.736   3.908   6.700  0.6496 -1.2222 -0.4641
 5224TIP3   OH237230   3.883   6.726   8.161 -0.1873 -0.2061  0.5023
 5224TIP3    H137231   3.826   6.686   8.095  1.5922 -0.8391 -0.7468
 5224TIP3    H237232   3.946   6.657   8.183 -0.1140  0.3402  2.1312
 5225TIP3   OH237233   4.336   5.341   8.094  0.3663 -0.6717 -0.0505
 5225TIP3    H137234   4.274   5.342   8.021  0.7425  0.2703 -0.3728
 5225TIP3    H237235   4.288   5.378   8.168  0.1598 -1.0976  0.0278
 5226TIP3   OH237236   4.765   0.757   0.982 -0.5587 -0.4765 -0.2547
 5226TIP3    H137237   4.749   0.761   1.076 -0.7817  0.7211 -0.3201
 5226TIP3    H237238   4.854   0.724   0.973  0.1441  1.1198  0.4673
 5227TIP3   OH237239   4.137   0.287   8.120  0.1720  0.7454 -0.0020
 5227TIP3    H137240   4.183   0.368   8.096 -0.2236  1.0572  0.2758
 5227TIP3    H237241   4.170   0.222   8.058  1.1761  0.8977  0.3494
 5228TIP3   OH237242   1.276   2.171   7.625 -0.2574  0.2869 -0.4096
 5228TIP3    H137243   1.339   2.231   7.586  0.2375 -0.6186 -1.0383
 5228TIP3    H237244   1.322   2.087   7.629 -1.3936 -0.3751 -0.7998
 5229TIP3   OH237245   4.136   4.238   0.041  0.2292 -0.0744 -0.7881
 5229TIP3    H137246   4.141   4.334   0.043 -1.2511  0.0251  1.4290
 5229TIP3    H237247   4.099   4.218  -0.045 -2.8358  1.6387 -0.0139
 5230TIP3   OH237248   1.365   2.585   0.143 -0.2356 -0.4800 -0.4697
 5230TIP3    H137249   1.384   2.503   0.099 -0.0958 -1.2709  0.9919
 5230TIP3    H237250   1.288   2.566   0.197 -0.3166  0.4010 -0.2600
 5231TIP3   OH237251   2.923   6.313   6.656  0.2477  0.5622 -0.6530
 5231TIP3    H137252   2.970   6.236   6.625 -1.4904 -0.3746 -1.1050
 5231TIP3    H237253   2.991   6.379   6.671  1.8767 -1.2976  0.5588
 5232TIP3   OH237254   0.408   2.681   7.597  0.1064 -0.4385 -0.2245
 5232TIP3    H137255   0.341   2.690   7.665  0.5742 -0.5919  0.2663
 5232TIP3    H237256   0.384   2.745   7.531 -0.3474 -0.2739  0.0929
 5233TIP3   OH237257   5.701   5.931   7.845 -0.7690 -0.9635  0.3258
 5233TIP3    H137258   5.619   5.941   7.797 -1.9619 -3.0729  1.7505
 5233TIP3    H237259   5.754   6.007   7.819 -3.1889  0.5287 -0.5674
 5234TIP3   OH237260   2.119   4.097   6.948  0.2227  0.3227  0.3759
 5234TIP3    H137261   2.057   4.024   6.947 -0.0338  0.5339  0.6901
 5234TIP3    H237262   2.146   4.105   6.856  2.1182 -1.7058  0.6932
 5235TIP3   OH237263   1.344   3.766   1.961 -0.1198 -0.4455 -0.4804
 5235TIP3    H137264   1.253   3.758   1.933 -0.1365  1.0276 -0.9380
 5235TIP3    H237265   1.374   3.676   1.972 -1.8176 -0.9532  0.3129
 5236TIP3   OH237266   0.641   6.133   0.999 -0.0715  0.1790 -0.4073
 5236TIP3    H137267   0.716   6.073   1.008 -0.7129 -0.4903  0.8019
 5236TIP3    H237268   0.679   6.220   1.008  0.3914 -0.1958  2.1547
 5237TIP3   OH237269   4.770   4.198   1.518  0.2667 -0.1418  0.0029
 5237TIP3    H137270   4.784   4.155   1.603 -0.2909  0.4386  0.3983
 5237TIP3    H237271   4.676   4.213   1.514  0.3023 -0.0730 -0.6848
 5238TIP3   OH237272   1.951   1.154   7.525 -0.1919  0.3736  0.0846
 5238TIP3    H137273   1.861   1.127   7.507 -0.0240 -0.3867  0.3508
 5238TIP3    H237274   1.949   1.249   7.518 -0.6656  0.2686 -1.4750
 5239TIP3   OH237275   5.911   3.149   7.887  0.7926 -0.1663  0.3677
 5239TIP3    H137276   5.992   3.130   7.934  1.1265 -0.9066 -0.4859
 5239TIP3    H237277   5.939   3.178   7.800  0.1772  1.0544  0.5533
 5240TIP3   OH237278   4.531   2.803   8.501  0.2124  0.1878  0.0852
 5240TIP3    H137279   4.608   2.814   8.444 -0.1443  0.0958 -0.4220
 5240TIP3    H237280   4.566   2.808   8.590  0.9749 -0.9363 -0.1287
 5241TIP3   OH237281   2.653   5.582   1.503 -0.1767 -0.0129 -0.3341
 5241TIP3    H137282   2.692   5.669   1.496 -0.1220 -0.1198 -1.6253
 5241TIP3    H237283   2.629   5.573   1.595  1.5220  0.6229  0.1962
 5242TIP3   OH237284   4.254   6.409   7.327  0.1093  0.2428 -0.0410
 5242TIP3    H137285   4.287   6.492   7.362 -0.3324 -0.3726  1.9673
 5242TIP3    H237286   4.319   6.344   7.353 -0.6836 -0.3695  0.4538
 5243TIP3   OH237287   0.793   3.734   1.277 -0.0682  0.4550 -0.7567
 5243TIP3    H137288   0.810   3.785   1.357 -1.0637  1.2489 -1.0265
 5243TIP3    H237289   0.718   3.778   1.237  0.4280  0.0751 -2.1411
 5244TIP3   OH237290   1.032   0.588   7.446 -0.3636  0.1972 -0.6668
 5244TIP3    H137291   1.042   0.512   7.388  0.0136  0.7583 -1.3679
 5244TIP3    H237292   0.977   0.557   7.517  0.3629 -0.9395 -0.5627
 5245TIP3   OH237293   0.602   4.244   7.156  0.8284 -0.3818 -0.3011
 5245TIP3    H137294   0.569   4.201   7.076  1.7773  1.6531 -1.8795
 5245TIP3    H237295   0.684   4.198   7.176  0.5121 -0.9991 -0.4068
 5246TIP3   OH237296   1.291   4.571   7.405 -0.3527 -0.1392  0.0309
 5246TIP3    H137297   1.220   4.634   7.396 -0.6615 -0.3060  1.1886
 5246TIP3    H237298   1.316   4.575   7.497 -0.4640 -1.7890  0.1691
 5247TIP3   OH237299   4.850   5.617   7.306 -0.1778 -0.1532  0.7469
 5247TIP3    H137300   4.760   5.641   7.326  0.1512  0.4883  1.4938
 5247TIP3    H237301   4.881   5.685   7.246 -0.8312 -1.5090 -1.2387
 5248TIP3   OH237302   1.426   2.261   1.383  0.1836 -0.2254  0.0644
 5248TIP3    H137303   1.521   2.263   1.392  0.5188 -3.6209 -1.3197
 5248TIP3    H237304   1.394   2.233   1.468  0.3496  0.9969  0.5570
 5249TIP3   OH237305   2.169   6.823   7.012 -0.0973  0.1993 -0.1168
 5249TIP3    H137306   2.122   6.754   6.965 -0.1218  0.5042 -0.5492
 5249TIP3    H237307   2.229   6.860   6.946  0.0891  0.4267  0.1790
 5250TIP3   OH237308   6.866   2.179   7.172 -0.3248  0.0437  0.0690
 5250TIP3    H137309   6.800   2.136   7.118 -0.0271 -0.1256 -0.1609
 5250TIP3    H237310   6.950   2.152   7.134 -0.1304  0.7175  0.0068
 5251TIP3   OH237311   2.693   5.989   0.609  0.4531  0.0104 -0.0479
 5251TIP3    H137312   2.644   5.907   0.602  2.2255 -1.1154  0.0950
 5251TIP3    H237313   2.769   5.976   0.552  2.2227  0.4107  2.0907
 5252TIP3   OH237314   3.918   4.663   1.435  0.2730 -0.7527 -0.1530
 5252TIP3    H137315   3.964   4.616   1.365  0.1463 -2.5409  0.9132
 5252TIP3    H237316   3.828   4.632   1.428 -0.0780  0.2597 -0.1712
 5253TIP3   OH237317   5.018   3.108   8.269 -0.7095  0.8035 -0.2246
 5253TIP3    H137318   5.011   3.101   8.174 -0.5287  2.4006 -0.3816
 5253TIP3    H237319   5.070   3.031   8.295 -0.6374  0.4284 -1.4242
 5254TIP3   OH237320   1.051   6.222   6.884 -0.5289  0.1644 -0.2215
 5254TIP3    H137321   1.113   6.184   6.946 -0.1304 -2.5472 -2.1156
 5254TIP3    H237322   1.083   6.311   6.869 -0.5131  0.8529  3.1634
 5255TIP3   OH237323   0.971   0.783   8.394  0.1311 -0.7299 -0.2016
 5255TIP3    H137324   1.064   0.807   8.396  0.3932 -1.6003 -0.8874
 5255TIP3    H237325   0.968   0.696   8.433 -0.8046  0.3265  2.3053
 5256TIP3   OH237326   3.369   1.311   7.007  0.3386  0.1430  0.4450
 5256TIP3    H137327   3.325   1.283   6.927  0.5325 -1.7779  0.9512
 5256TIP3    H237328   3.423   1.385   6.981  0.2577 -0.3362 -1.1737
 5257TIP3   OH237329   4.367   1.829   2.382 -0.5385  0.2589  0.0809
 5257TIP3    H137330   4.327   1.745   2.363  2.8210 -1.7232  0.9439
 5257TIP3    H237331   4.456   1.822   2.347  1.2522  1.7618  3.7598
 5258TIP3   OH237332   6.042   2.600   0.332 -0.1210 -0.6171 -0.2402
 5258TIP3    H137333   6.070   2.611   0.423 -1.7609 -0.1522  0.2507
 5258TIP3    H237334   6.111   2.642   0.281  0.7636 -0.7637  0.8003
 5259TIP3   OH237335   0.482   2.996   1.069 -0.0874 -0.6322 -0.3404
 5259TIP3    H137336   0.450   3.086   1.078  3.3698  0.7709 -0.4002
 5259TIP3    H237337   0.454   2.970   0.981  0.5424  1.2133 -1.1493
 5260TIP3   OH237338   0.081   5.388   7.655  0.5175  0.1617  0.2419
 5260TIP3    H137339   0.121   5.365   7.571  0.4277  0.8787 -0.0021
 5260TIP3    H237340   0.131   5.463   7.686  0.5109 -0.0581  0.8096
 5261TIP3   OH237341   5.827   5.220   6.851  0.1885  0.1343 -0.0201
 5261TIP3    H137342   5.869   5.145   6.809  1.6827  1.3738 -0.8311
 5261TIP3    H237343   5.770   5.257   6.783  0.0951  0.2248  0.1061
 5262TIP3   OH237344   4.180   2.060   7.350  0.0457 -0.2728 -0.0169
 5262TIP3    H137345   4.159   2.007   7.273  1.1883 -0.7152 -0.0549
 5262TIP3    H237346   4.097   2.098   7.377 -0.5844 -1.0750 -0.7587
 5263TIP3   OH237347   2.248   5.031   7.691 -0.1976 -0.2296 -0.3478
 5263TIP3    H137348   2.285   5.027   7.780  1.1255 -2.3316 -0.9110
 5263TIP3    H237349   2.280   4.951   7.649 -1.5402  0.2764 -2.4503
 5264TIP3   OH237350   2.368   3.708   7.380  0.2680 -0.4676  0.1659
 5264TIP3    H137351   2.312   3.671   7.447  1.3587 -1.1088  0.7368
 5264TIP3    H237352   2.329   3.794   7.362 -0.3962 -0.5426  1.1553
 5265TIP3   OH237353   5.920   6.116   7.749  0.7137  0.4303 -0.0771
 5265TIP3    H137354   5.903   6.203   7.714  2.2714  0.1791 -1.6143
 5265TIP3    H237355   6.010   6.120   7.782  0.6887 -0.4989  0.1314
 5266TIP3   OH237356   4.952   4.749   7.439 -0.1527  0.5933 -0.4797
 5266TIP3    H137357   5.018   4.710   7.496 -0.2672 -1.4779 -1.6491
 5266TIP3    H237358   4.999   4.769   7.358 -0.0206  3.3632  0.1850
 5267TIP3   OH237359   3.521   0.838   0.936 -0.2068 -0.2232 -0.1885
 5267TIP3    H137360   3.543   0.921   0.894 -2.1568  0.0209 -0.8116
 5267TIP3    H237361   3.428   0.845   0.958 -0.6148 -2.4788 -0.8860
 5268TIP3   OH237362   0.392   1.401   2.353 -0.4974  0.4017 -0.9054
 5268TIP3    H137363   0.369   1.493   2.342 -2.1155 -0.0055 -1.1563
 5268TIP3    H237364   0.310   1.358   2.379  0.5250 -0.7474  0.6040
 5269TIP3   OH237365   1.730   1.841   1.323  0.4956 -0.7735 -0.0476
 5269TIP3    H137366   1.816   1.883   1.316  0.0640  0.3761  1.0823
 5269TIP3    H237367   1.684   1.892   1.390 -0.7850 -1.8588 -0.0564
 5270TIP3   OH237368   6.342   4.334   0.172  0.5266  0.4910 -0.4455
 5270TIP3    H137369   6.296   4.272   0.229 -0.3630  0.9017 -0.7027
 5270TIP3    H237370   6.286   4.411   0.171  2.4270  2.0197  1.2756
 5271TIP3   OH237371   6.834   5.166   6.952  0.0522  0.1032  0.4255
 5271TIP3    H137372   6.867   5.221   7.023  0.6626 -1.1489  1.1509
 5271TIP3    H237373   6.816   5.082   6.994 -1.4061 -0.0945 -0.5419
 5272TIP3   OH237374   2.351   0.056   6.824 -0.7057 -0.7895  0.1368
 5272TIP3    H137375   2.438   0.079   6.856  0.1328 -2.0327 -1.1510
 5272TIP3    H237376   2.364   0.032   6.732 -2.9681  2.4772 -1.2494
 5273TIP3   OH237377   6.236   4.096   6.201 -0.4189 -0.1316 -0.0751
 5273TIP3    H137378   6.228   4.172   6.144 -2.2476 -0.2534 -0.0329
 5273TIP3    H237379   6.171   4.111   6.270  0.0886 -1.1250  0.6365
 5274TIP3   OH237380   1.233   0.136   1.397 -0.2566  0.0790  0.3678
 5274TIP3    H137381   1.263   0.227   1.394  0.8077 -0.2641 -1.7742
 5274TIP3    H237382   1.290   0.094   1.462 -0.0242  0.7026  0.5767
 5275TIP3   OH237383   5.120   1.346   0.286  0.3351 -0.1923  0.2310
 5275TIP3    H137384   5.123   1.415   0.219  1.4246  0.1451  0.6023
 5275TIP3    H237385   5.168   1.383   0.360  0.4240 -1.1247  0.6520
 5276TIP3   OH237386   3.309   3.635   7.133  0.3183  0.3595 -0.0357
 5276TIP3    H137387   3.399   3.609   7.155  0.1585  0.6937  1.0805
 5276TIP3    H237388   3.267   3.553   7.105  0.3889 -0.2486  1.5134
 5277TIP3   OH237389   4.705   0.445   7.189 -0.2064 -0.3160 -0.5017
 5277TIP3    H137390   4.676   0.429   7.099 -0.5033  0.1733 -0.4960
 5277TIP3    H237391   4.668   0.531   7.211 -0.0445 -0.3859  0.0490
 5278TIP3   OH237392   3.928   5.876   8.093  1.0362  0.7164  0.1077
 5278TIP3    H137393   3.841   5.899   8.124  0.4576 -0.4758 -0.5552
 5278TIP3    H237394   3.987   5.936   8.138 -0.2877  2.8522 -0.8497
 5279TIP3   OH237395   6.239   0.781   2.514  0.2944 -0.3921  0.4062
 5279TIP3    H137396   6.217   0.865   2.554  0.7368  0.3906 -0.9325
 5279TIP3    H237397   6.180   0.718   2.555 -0.7315  0.7481  0.7164
 5280TIP3   OH237398   3.201   0.332   7.259 -0.1197  0.3022  0.3087
 5280TIP3    H137399   3.240   0.415   7.287 -1.0747  0.3636  1.5627
 5280TIP3    H237400   3.190   0.282   7.341 -1.2631 -0.3086 -0.1951
 5281TIP3   OH237401   0.970   6.421   1.454 -0.4811  0.1225  0.0224
 5281TIP3    H137402   1.046   6.473   1.427 -0.8639 -0.0137 -1.3721
 5281TIP3    H237403   0.909   6.426   1.381 -1.5038 -0.4131  0.8013
 5282TIP3   OH237404   5.192   2.776   0.301  0.0518  0.2540  0.5543
 5282TIP3    H137405   5.248   2.850   0.320  0.0522  1.0652 -2.1038
 5282TIP3    H237406   5.156   2.795   0.214 -1.0408 -2.2159  0.3671
 5283TIP3   OH237407   6.680   2.026   7.052  0.7878 -0.1561  0.5038
 5283TIP3    H137408   6.684   1.968   6.976  5.1524  0.7703 -0.2625
 5283TIP3    H237409   6.684   1.967   7.127 -1.6741 -0.9853  0.0994
 5284TIP3   OH237410   1.799   1.627   0.572 -0.1306 -0.1695  0.3077
 5284TIP3    H137411   1.764   1.556   0.625  0.0488  0.3321  1.1263
 5284TIP3    H237412   1.894   1.618   0.579 -0.1046 -0.2245 -0.1019
 5285TIP3   OH237413   2.079   6.769   7.404  0.2415 -0.6220 -0.7563
 5285TIP3    H137414   2.116   6.788   7.491  1.2448 -0.8642 -1.1200
 5285TIP3    H237415   2.001   6.825   7.399 -0.4783 -1.4101  0.7330
 5286TIP3   OH237416   4.205   4.815   7.768  0.4159 -0.3689 -0.2428
 5286TIP3    H137417   4.111   4.816   7.753 -0.0068 -2.1011  1.7600
 5286TIP3    H237418   4.220   4.886   7.830  0.5104  0.1218 -0.8152
 5287TIP3   OH237419   5.065   5.708   1.987 -0.3514  0.3049  0.0515
 5287TIP3    H137420   5.021   5.789   1.960 -0.2298  0.6191  0.7881
 5287TIP3    H237421   5.157   5.734   2.000 -0.1692 -0.1064 -0.3878
 5288TIP3   OH237422   3.096   2.819   8.443 -0.0627  1.0880  0.3252
 5288TIP3    H137423   3.150   2.794   8.367 -0.8115 -1.9118  0.6761
 5288TIP3    H237424   3.148   2.886   8.487  1.9565  0.5279 -1.0368
 5289TIP3   OH237425   2.271   4.155   2.126  0.0330 -0.2334  0.6820
 5289TIP3    H137426   2.312   4.186   2.045 -1.4139  0.7151  0.2790
 5289TIP3    H237427   2.313   4.207   2.195  1.3413 -1.1139  0.5825
 5290TIP3   OH237428   4.222   6.497   0.210 -0.8520 -0.1910 -0.0386
 5290TIP3    H137429   4.298   6.447   0.181  0.0761  1.2941 -0.2620
 5290TIP3    H237430   4.179   6.442   0.275  0.5636 -0.9395  0.2804
 5291TIP3   OH237431   1.547   1.627   7.605  0.3747  0.0321  0.4776
 5291TIP3    H137432   1.531   1.608   7.512  0.4817 -0.7299  0.6051
 5291TIP3    H237433   1.484   1.695   7.626  2.0090  2.0621 -0.7744
 5292TIP3   OH237434   1.042   5.958   0.618  0.3017  0.7312 -0.6155
 5292TIP3    H137435   1.097   5.983   0.692 -0.8768  0.7122  0.3068
 5292TIP3    H237436   1.010   5.870   0.640 -2.1410  1.7181  0.1927
 5293TIP3   OH237437   6.418   4.551   8.084 -0.2390  0.6632  0.5286
 5293TIP3    H137438   6.341   4.494   8.083 -0.9906  1.6423  1.1630
 5293TIP3    H237439   6.490   4.492   8.110 -0.7009 -0.3164 -0.3423
 5294TIP3   OH237440   5.908   3.077   0.219 -0.0671  0.3340  0.3177
 5294TIP3    H137441   5.923   3.017   0.145  0.1340  0.3247  0.3658
 5294TIP3    H237442   5.984   3.135   0.219 -1.3765  2.1692 -1.2246
 5295TIP3   OH237443   0.379   4.766   1.182 -0.0817 -0.5612 -0.2662
 5295TIP3    H137444   0.411   4.788   1.269  0.6917  2.2030 -1.1494
 5295TIP3    H237445   0.457   4.739   1.133 -0.3318 -0.9946 -0.4350
 5296TIP3   OH237446   4.458   6.479   1.928 -1.0725 -0.0286  0.1916
 5296TIP3    H137447   4.493   6.390   1.926  0.4979  0.5546  0.1229
 5296TIP3    H237448   4.533   6.534   1.905 -2.7805  1.1025 -3.3239
 5297TIP3   OH237449   3.622   1.090   0.221  0.2030  0.1780 -0.0304
 5297TIP3    H137450   3.613   1.150   0.147 -0.9868  1.1467  0.8719
 5297TIP3    H237451   3.559   1.020   0.202 -0.7452  0.8826  0.4932
 5298TIP3   OH237452   3.642   0.468   7.165 -0.4319 -0.3389 -0.2557
 5298TIP3    H137453   3.656   0.468   7.260  0.0435  0.6627 -0.3199
 5298TIP3    H237454   3.554   0.432   7.155 -0.5630 -0.2813  0.5799
 5299TIP3   OH237455   1.157   2.849   8.368 -0.2503 -0.2939 -0.4281
 5299TIP3    H137456   1.181   2.879   8.456  1.2200 -0.9092 -0.5941
 5299TIP3    H237457   1.206   2.905   8.309  2.3194 -2.6707 -0.7412
 5300TIP3   OH237458   0.368   5.775   7.064 -0.5968 -0.4364 -0.2616
 5300TIP3    H137459   0.287   5.799   7.109 -1.9152 -1.7509 -1.7892
 5300TIP3    H237460   0.381   5.845   7.000  0.5075  0.7086  1.1711
 5301TIP3   OH237461   1.008   0.143   0.948  0.4075 -0.3749 -0.0255
 5301TIP3    H137462   0.927   0.123   0.902 -0.6844 -1.6150  2.2504
 5301TIP3    H237463   1.022   0.236   0.933 -0.4245 -0.5173 -1.9475
 5302TIP3   OH237464   0.668   5.638   8.460  0.1315 -0.4669 -0.0431
 5302TIP3    H137465   0.703   5.562   8.507 -0.0585  0.0101  0.8964
 5302TIP3    H237466   0.637   5.697   8.529 -0.2227  0.2280 -0.7749
 5303TIP3   OH237467   1.549   1.925   1.525  0.3259  0.3961  1.1503
 5303TIP3    H137468   1.499   2.007   1.526  3.0326  2.2039  1.5078
 5303TIP3    H237469   1.599   1.928   1.607  2.6289 -0.1217 -0.1558
 5304TIP3   OH237470   4.224   6.700   7.264 -0.0232 -0.3781  0.0774
 5304TIP3    H137471   4.279   6.742   7.329 -0.6987  3.0692 -1.3717
 5304TIP3    H237472   4.137   6.697   7.305  0.1471 -1.0340  0.4132
 5305TIP3   OH237473   2.479   1.266   7.364  0.3918  0.7154  0.3186
 5305TIP3    H137474   2.423   1.209   7.311  1.0200  0.4964 -0.1251
 5305TIP3    H237475   2.498   1.340   7.306  1.4191  0.2780  0.0754
 5306TIP3   OH237476   0.351   5.086   1.346 -0.2513 -0.0300  0.2002
 5306TIP3    H137477   0.284   5.093   1.278 -0.5550 -1.1406  0.3722
 5306TIP3    H237478   0.322   5.148   1.414  0.0009  1.0101 -0.6168
 5307TIP3   OH237479   0.188   4.940   6.541  0.0340  0.2155 -0.3512
 5307TIP3    H137480   0.238   4.891   6.475 -0.1749  0.5098 -0.7370
 5307TIP3    H237481   0.115   4.978   6.492  1.2147  2.4991 -0.4920
 5308TIP3   OH237482   1.510   4.965   1.701 -0.6162  0.2300 -0.2915
 5308TIP3    H137483   1.529   5.016   1.622  0.5722 -1.7868 -1.3888
 5308TIP3    H237484   1.520   5.027   1.773  2.4032  1.2264 -1.4314
 5309TIP3   OH237485   1.180   3.439   0.774 -0.0578 -0.5024 -1.0652
 5309TIP3    H137486   1.267   3.403   0.756  1.7346  2.7135  0.2685
 5309TIP3    H237487   1.145   3.383   0.844  1.2933 -1.4068 -1.0771
 5310TIP3   OH237488   0.732   5.749   7.946 -0.0582 -0.1409  0.4690
 5310TIP3    H137489   0.721   5.788   8.033 -0.8823  1.5600 -0.3687
 5310TIP3    H237490   0.824   5.765   7.924 -0.6251  2.3986 -0.3115
 5311TIP3   OH237491   6.497   4.140   7.352 -0.3522  0.3862  0.1688
 5311TIP3    H137492   6.401   4.134   7.358 -0.4125  0.8724 -0.2759
 5311TIP3    H237493   6.516   4.133   7.259  0.1034 -0.4084  0.3139
 5312TIP3   OH237494   6.127   2.782   6.988 -0.2984  0.1580  0.4067
 5312TIP3    H137495   6.216   2.819   6.994 -0.5155  0.8838 -0.5595
 5312TIP3    H237496   6.138   2.689   7.008 -0.1277  1.0379  5.9741
 5313TIP3   OH237497   2.497   1.926   0.889 -0.1080  0.2099  0.3595
 5313TIP3    H137498   2.425   1.867   0.868  0.0872 -0.6859  2.0909
 5313TIP3    H237499   2.575   1.882   0.854 -0.1362  0.1046  0.4277
 5314TIP3   OH237500   5.856   1.862   0.986  0.2921  0.1902 -0.1702
 5314TIP3    H137501   5.782   1.815   0.949 -0.4329  1.1265  0.0674
 5314TIP3    H237502   5.829   1.884   1.076  0.4950  1.2772 -0.3568
 5315TIP3   OH237503   5.853   5.265   1.579  0.0116 -0.2080  0.1842
 5315TIP3    H137504   5.842   5.264   1.674 -0.9722 -0.6220  0.0839
 5315TIP3    H237505   5.786   5.327   1.548  0.3888 -0.0060 -0.2278
 5316TIP3   OH237506   6.323   4.317   7.724  0.3502 -0.1795  0.3616
 5316TIP3    H137507   6.398   4.295   7.779 -0.9998 -1.3554  1.7993
 5316TIP3    H237508   6.284   4.394   7.766  1.3019  1.1208 -0.9982
 5317TIP3   OH237509   2.927   6.519   1.029  0.0356 -0.0808  0.4684
 5317TIP3    H137510   2.957   6.477   0.949 -0.5807  0.4256 -0.0368
 5317TIP3    H237511   2.928   6.449   1.095 -0.5503 -0.7936 -0.2598
 5318TIP3   OH237512   5.227   1.506   0.512 -0.1318  0.4118 -0.2892
 5318TIP3    H137513   5.217   1.482   0.604  1.4542 -0.6883 -0.3665
 5318TIP3    H237514   5.153   1.563   0.494 -3.0344 -2.8050  0.4635
 5319TIP3   OH237515   3.374   5.546   7.984  0.2447  0.2250 -0.6744
 5319TIP3    H137516   3.294   5.571   7.937 -1.9806 -0.8089  2.1912
 5319TIP3    H237517   3.361   5.453   8.005  1.7938  0.2547  0.5910
 5320TIP3   OH237518   3.864   5.937   7.461  0.3255  0.5189  0.0319
 5320TIP3    H137519   3.780   5.963   7.499  0.2333 -1.1367  1.0451
 5320TIP3    H237520   3.846   5.927   7.368 -0.0438  2.2646 -0.1132
 5321TIP3   OH237521   6.524   1.462   6.723 -0.6861  0.2014  0.1133
 5321TIP3    H137522   6.518   1.496   6.634  0.2593  1.1862  0.3994
 5321TIP3    H237523   6.435   1.464   6.756 -1.7116 -3.3313 -1.8724
 5322TIP3   OH237524   4.045   2.425   6.520 -0.3670  0.4195  0.5518
 5322TIP3    H137525   3.977   2.491   6.534  0.6807  1.3814  1.2004
 5322TIP3    H237526   4.118   2.472   6.482  1.1539  0.1034  2.8296
 5323TIP3   OH237527   3.187   1.634   8.424 -0.3071 -0.2184  0.1597
 5323TIP3    H137528   3.257   1.593   8.372 -0.7997  0.2578 -0.9002
 5323TIP3    H237529   3.111   1.633   8.367 -0.2955  2.4030 -0.0212
 5324TIP3   OH237530   1.235   0.867   8.393  0.3804  0.1831  0.4215
 5324TIP3    H137531   1.206   0.957   8.405 -0.7667  0.1017 -1.4250
 5324TIP3    H237532   1.307   0.873   8.330  0.9773 -0.1202  1.0577
 5325TIP3   OH237533   2.067   5.847   7.255  0.0496 -0.2691  0.7492
 5325TIP3    H137534   2.117   5.809   7.184  0.8268  2.1720 -0.1125
 5325TIP3    H237535   2.019   5.774   7.293  1.7328 -2.1067 -0.5091
 5326TIP3   OH237536   5.378   2.423   0.330 -0.4356  0.5060  0.7822
 5326TIP3    H137537   5.287   2.397   0.318 -0.0292 -0.6849  0.0770
 5326TIP3    H237538   5.412   2.430   0.240  0.6913 -1.0967  1.0342
 5327TIP3   OH237539   6.323   3.174   7.042  0.7235 -0.1810 -0.0927
 5327TIP3    H137540   6.337   3.079   7.047  0.7887 -0.1733 -0.1304
 5327TIP3    H237541   6.326   3.203   7.133 -1.8114 -0.5709  0.1876
 5328TIP3   OH237542   1.920   3.681   0.523  0.0184 -0.1493 -0.0430
 5328TIP3    H137543   1.902   3.746   0.590  0.1680 -0.1611  0.0106
 5328TIP3    H237544   1.952   3.732   0.448  0.2654 -0.1709  0.0461
 5329TIP3   OH237545   2.968   2.095   1.543  0.1399 -0.3340 -0.3936
 5329TIP3    H137546   2.898   2.034   1.567  0.2317 -0.8341 -1.3097
 5329TIP3    H237547   2.975   2.086   1.448 -0.0019  1.2953 -0.5817
 5330TIP3   OH237548   1.024   3.544   6.958 -0.2037 -0.1480  0.4528
 5330TIP3    H137549   0.998   3.530   6.867 -3.4180 -0.7707  1.3685
 5330TIP3    H237550   1.053   3.459   6.988  2.3371  0.3529 -0.2924
 5331TIP3   OH237551   4.612   5.544   0.656  0.4751  0.6889  0.5629
 5331TIP3    H137552   4.690   5.572   0.608  0.9487 -0.0674  0.8701
 5331TIP3    H237553   4.541   5.598   0.621  1.2623  1.9446  0.8215
 5332TIP3   OH237554   0.672   0.804   0.006 -0.5851 -0.0054 -0.4548
 5332TIP3    H137555   0.633   0.841   0.085 -0.7428 -0.5935 -0.2495
 5332TIP3    H237556   0.758   0.845   0.000  0.8489 -2.3503  1.9022
 5333TIP3   OH237557   3.685   3.055   0.383 -0.1188  0.1373 -0.5943
 5333TIP3    H137558   3.598   3.078   0.352 -0.3161 -0.1270 -0.2302
 5333TIP3    H237559   3.744   3.090   0.316 -0.4726  0.8057 -0.5648
 5334TIP3   OH237560   3.008   0.726   7.027  0.1667  0.6007  0.3681
 5334TIP3    H137561   2.934   0.716   7.088 -1.2805 -0.4621 -1.4636
 5334TIP3    H237562   3.074   0.772   7.078 -1.6780  1.4632  2.1553
 5335TIP3   OH237563   6.798   3.841   7.522  0.0597 -0.0918 -0.2990
 5335TIP3    H137564   6.815   3.886   7.604 -0.3357 -2.7264  1.3238
 5335TIP3    H237565   6.715   3.879   7.491 -0.2734  0.2780  0.9903
 5336TIP3   OH237566   2.263   1.042   7.466 -0.1560  0.1426 -0.2972
 5336TIP3    H137567   2.223   1.062   7.382 -0.6922  0.7895  0.1037
 5336TIP3    H237568   2.324   0.970   7.447 -1.6571 -1.0384 -0.8812
 5337TIP3   OH237569   3.448   5.082   7.024  0.1620  0.1792 -0.2039
 5337TIP3    H137570   3.466   5.176   7.028  1.5640 -0.0087 -1.2164
 5337TIP3    H237571   3.427   5.065   6.932 -2.0070 -0.2199  0.3032
 5338TIP3   OH237572   1.724   0.390   8.392 -0.1366  0.1629  0.7714
 5338TIP3    H137573   1.753   0.407   8.482 -0.8753 -2.3830  1.5836
 5338TIP3    H237574   1.716   0.295   8.388  0.2681  0.1820 -2.1509
 5339TIP3   OH237575   1.972   5.201   1.837  0.3091 -0.6259 -0.1988
 5339TIP3    H137576   2.045   5.140   1.827 -0.4346 -1.7277  0.7761
 5339TIP3    H237577   1.928   5.201   1.752  3.0621  2.3211 -1.8051
 5340TIP3   OH237578   2.002   1.790   0.104  0.2413  0.5810  0.1956
 5340TIP3    H137579   1.957   1.719   0.149  1.1713 -0.7700 -0.9082
 5340TIP3    H237580   1.985   1.774   0.011  2.7340  0.1130 -0.2606
 5341TIP3   OH237581   4.489   2.335   0.181  0.9433  0.6208 -0.2060
 5341TIP3    H137582   4.542   2.354   0.103 -0.0179  1.9802 -0.5706
 5341TIP3    H237583   4.403   2.372   0.161 -0.1625 -1.4522  0.4060
 5342TIP3   OH237584   5.614   0.372   1.037  0.2814  0.2226  0.4450
 5342TIP3    H137585   5.696   0.372   1.086 -0.3462  0.1002  1.5405
 5342TIP3    H237586   5.614   0.288   0.990  0.7197  0.1613  0.5483
 5343TIP3   OH237587   5.374   4.964   6.638  0.6781 -0.3950 -0.4194
 5343TIP3    H137588   5.387   4.951   6.544 -0.4401 -1.6924 -0.4186
 5343TIP3    H237589   5.445   4.913   6.679 -0.0518 -1.5288 -0.5380
 5344TIP3   OH237590   5.644   0.356   0.607  0.0274  0.1464 -0.4110
 5344TIP3    H137591   5.721   0.384   0.559  0.3284 -1.6515 -1.0463
 5344TIP3    H237592   5.677   0.325   0.691  0.1680 -1.6404 -1.0946
 5345TIP3   OH237593   2.834   6.859   0.898  0.1630 -0.1042  0.3109
 5345TIP3    H137594   2.802   6.949   0.899 -2.2346 -0.8012 -2.1353
 5345TIP3    H237595   2.919   6.864   0.853 -0.0180  0.9303  0.0629
 5346TIP3   OH237596   0.816   5.956   1.588 -0.2273 -0.3494 -0.3683
 5346TIP3    H137597   0.799   5.878   1.641 -1.7416  1.8162  2.7273
 5346TIP3    H237598   0.743   5.960   1.526 -1.6180 -0.1358  1.2104
 5347TIP3   OH237599   4.694   2.218   8.009  0.2374  0.2314  0.0070
 5347TIP3    H137600   4.628   2.278   7.974 -0.4804 -0.5196  0.0518
 5347TIP3    H237601   4.750   2.197   7.933  0.7044  1.2150  0.0694
 5348TIP3   OH237602   0.414   3.704   0.164 -0.2683  0.1556 -0.1058
 5348TIP3    H137603   0.399   3.680   0.255  0.5661  0.2713  0.0726
 5348TIP3    H237604   0.509   3.711   0.157 -0.4045  1.7481 -0.5748
 5349TIP3   OH237605   4.376   4.699   8.352  0.3847 -0.0158  0.9757
 5349TIP3    H137606   4.326   4.761   8.407  3.2398  3.4961 -0.0327
 5349TIP3    H237607   4.352   4.722   8.262  0.8298 -1.0990  0.5601
 5350TIP3   OH237608   6.337   1.939   2.007 -0.9758  0.0709 -0.6481
 5350TIP3    H137609   6.422   1.980   2.023 -2.3162  3.6661 -1.6708
 5350TIP3    H237610   6.341   1.908   1.917 -0.2781 -1.2161 -0.1919
 5351TIP3   OH237611   0.918   1.254   8.540 -0.2827  0.2701 -0.4447
 5351TIP3    H137612   0.847   1.303   8.500  0.8976  0.9616 -1.8045
 5351TIP3    H237613   0.885   1.164   8.547 -1.4760  0.6933 -0.4833
 5352TIP3   OH237614   3.194   5.485   1.068 -0.0004 -0.1785  0.9570
 5352TIP3    H137615   3.103   5.502   1.092  0.4506  0.0310  2.6099
 5352TIP3    H237616   3.238   5.462   1.150  1.5116  0.0171  0.2506
 5353TIP3   OH237617   0.128   0.715   7.260  0.2586 -0.5051  0.2556
 5353TIP3    H137618   0.035   0.721   7.284  0.0116 -0.3036 -0.7063
 5353TIP3    H237619   0.156   0.806   7.248  0.5976 -0.5638  0.5717
 5354TIP3   OH237620   5.933   1.465   0.460 -0.1165 -0.3208  0.1915
 5354TIP3    H137621   5.939   1.373   0.488  3.3411 -1.1399 -2.5159
 5354TIP3    H237622   5.852   1.468   0.409  0.1816 -2.1868 -0.4932
 5355TIP3   OH237623   5.252   6.365   7.777 -0.1355  0.0297 -0.4807
 5355TIP3    H137624   5.226   6.298   7.714 -0.6853 -0.8456  0.6561
 5355TIP3    H237625   5.204   6.444   7.749 -0.9266 -0.5309 -0.7311
 5356TIP3   OH237626   0.290   0.497   8.044  0.1246 -0.5717 -0.8745
 5356TIP3    H137627   0.211   0.485   8.096 -0.0548 -0.7240 -1.1786
 5356TIP3    H237628   0.359   0.456   8.096  0.1109  0.0654 -0.3422
 5357TIP3   OH237629   2.667   4.114   0.642 -0.5882  0.0655 -0.8969
 5357TIP3    H137630   2.694   4.194   0.687 -0.8351  1.2135 -2.6735
 5357TIP3    H237631   2.580   4.135   0.607 -0.2086 -0.5674 -2.3027
 5358TIP3   OH237632   1.824   3.382   0.925  0.1893 -0.1257  0.5878
 5358TIP3    H137633   1.768   3.436   0.870  3.0390  1.1604 -1.2709
 5358TIP3    H237634   1.873   3.444   0.979  2.3167 -0.8519 -0.3791
 5359TIP3   OH237635   4.048   2.838   1.607  0.8849 -0.2899 -0.0701
 5359TIP3    H137636   3.959   2.812   1.584  0.7086  0.5757 -0.3694
 5359TIP3    H237637   4.041   2.928   1.638  1.7594  0.0810 -0.8647
 5360TIP3   OH237638   0.013   3.550   8.298 -0.3633  0.0418 -0.1562
 5360TIP3    H137639  -0.075   3.559   8.334 -0.8841  0.9017 -1.5347
 5360TIP3    H237640   0.008   3.592   8.212  1.1755 -0.6500 -0.6304
 5361TIP3   OH237641   6.234   3.900   8.128 -0.5933  0.1959  0.6124
 5361TIP3    H137642   6.244   3.905   8.033  1.3788 -0.6987  0.7236
 5361TIP3    H237643   6.199   3.812   8.144 -0.2539  0.0776  0.7291
 5362TIP3   OH237644   3.823   3.210   7.608 -0.2312 -0.4025  0.6272
 5362TIP3    H137645   3.799   3.291   7.564 -1.0478 -0.4552  0.9435
 5362TIP3    H237646   3.893   3.172   7.555 -0.9513 -0.2965 -0.4288
 5363TIP3   OH237647   5.659   0.796   6.891  0.4130  0.2463 -0.3788
 5363TIP3    H137648   5.589   0.790   6.956  0.6326  0.1308 -0.1572
 5363TIP3    H237649   5.735   0.829   6.938  1.5057 -2.7300  0.1527
 5364TIP3   OH237650   5.057   3.706   7.255  0.1627 -0.1510 -0.3420
 5364TIP3    H137651   5.059   3.800   7.241  0.1224 -0.1514 -0.3508
 5364TIP3    H237652   5.121   3.670   7.193 -1.0616 -0.2868 -1.5600
 5365TIP3   OH237653   3.242   6.302   8.248 -0.2797 -0.6151 -0.5716
 5365TIP3    H137654   3.280   6.387   8.270 -0.3447 -1.0629  1.3810
 5365TIP3    H237655   3.300   6.267   8.180  0.5458  0.3841 -0.4021
 5366TIP3   OH237656   0.441   1.939   8.485  0.0197 -0.0414  0.1073
 5366TIP3    H137657   0.441   2.035   8.482 -0.0354 -0.0623 -1.4847
 5366TIP3    H237658   0.438   1.913   8.393 -1.5894 -1.5840  0.5634
 5367TIP3   OH237659   4.064   6.533   1.557 -0.1035 -0.0396  0.1875
 5367TIP3    H137660   4.055   6.444   1.589 -2.2605 -0.3928 -1.1800
 5367TIP3    H237661   4.142   6.567   1.601 -0.2840 -1.9590  2.1611
 5368TIP3   OH237662   6.488   6.084   0.933 -0.5221 -0.1849  0.3956
 5368TIP3    H137663   6.555   6.052   0.873  0.2838  0.8184  0.7143
 5368TIP3    H237664   6.407   6.082   0.882  0.1614  0.7932 -0.8017
 5369TIP3   OH237665   4.839   2.529   7.692 -0.1060 -0.1297  0.8522
 5369TIP3    H137666   4.842   2.434   7.687 -1.4837 -0.1343 -1.6272
 5369TIP3    H237667   4.860   2.558   7.603 -3.0660  1.6878  0.5859
 5370TIP3   OH237668   1.560   3.127   1.429  0.2137 -0.0408 -0.0960
 5370TIP3    H137669   1.598   3.041   1.412  0.4480 -0.1037  0.7054
 5370TIP3    H237670   1.571   3.140   1.524  1.1355  1.3235 -0.3664
 5371TIP3   OH237671   4.585   5.175   1.235  0.2482 -0.0098 -0.6273
 5371TIP3    H137672   4.580   5.244   1.169 -2.0704 -1.5046 -2.1490
 5371TIP3    H237673   4.612   5.097   1.186  0.1059 -0.7926  0.4992
 5372TIP3   OH237674   2.069   0.253   7.047  0.6789  0.8669  0.3462
 5372TIP3    H137675   2.092   0.280   6.958  1.0448  1.6953  0.6781
 5372TIP3    H237676   2.112   0.168   7.058  0.9465  0.9334 -0.1404
 5373TIP3   OH237677   6.767   0.955   0.484 -0.3262 -0.2005  1.4023
 5373TIP3    H137678   6.761   0.969   0.390  1.6058  2.7858  1.6045
 5373TIP3    H237679   6.839   0.891   0.495  0.1921  0.2876  0.8765
 5374TIP3   OH237680   3.986   0.519   7.205 -0.3296  0.0710 -0.2888
 5374TIP3    H137681   4.001   0.589   7.141  1.0135  0.2094  0.1541
 5374TIP3    H237682   3.963   0.565   7.286  2.5119  0.1754  0.5606
 5375TIP3   OH237683   2.095   5.938   0.123  0.1364 -0.2082 -0.3208
 5375TIP3    H137684   2.076   6.018   0.171 -0.5858 -1.8337  2.2890
 5375TIP3    H237685   2.030   5.875   0.153  1.7230 -2.2829 -0.9452
 5376TIP3   OH237686   2.739   6.470   1.435 -0.8292 -0.0591 -0.0255
 5376TIP3    H137687   2.748   6.453   1.529 -0.9877 -1.0348 -0.1782
 5376TIP3    H237688   2.682   6.547   1.430 -2.8900 -1.4574  0.6471
 5377TIP3   OH237689   6.214   6.045   1.087  0.5181 -0.2496  0.2361
 5377TIP3    H137690   6.196   6.049   0.993 -2.0647 -1.7741  0.5926
 5377TIP3    H237691   6.277   5.973   1.096  0.6017 -0.2473 -0.2877
 5378TIP3   OH237692   1.200   2.397   1.158 -0.1542  0.2058 -0.6123
 5378TIP3    H137693   1.178   2.489   1.144 -0.3750  0.3752  0.6972
 5378TIP3    H237694   1.225   2.392   1.250  2.1284 -0.6052 -1.2038
 5379TIP3   OH237695   5.141   2.090   1.811 -0.2377  0.4704  0.0729
 5379TIP3    H137696   5.146   2.113   1.904 -2.6850  0.5680  0.2441
 5379TIP3    H237697   5.183   2.004   1.806 -0.0236  0.4895  1.2559
 5380TIP3   OH237698   5.153   6.629   6.974 -0.5229  0.5749 -0.0372
 5380TIP3    H137699   5.193   6.588   6.897 -1.1481 -0.9650  0.4142
 5380TIP3    H237700   5.227   6.666   7.022  0.0966 -0.0964 -0.4431
 5381TIP3   OH237701   5.920   3.236   8.618  0.3407  0.2806  0.5693
 5381TIP3    H137702   5.948   3.220   8.707 -1.7882 -0.2052  1.2121
 5381TIP3    H237703   5.975   3.308   8.588  2.5783 -0.9595  1.4715
 5382TIP3   OH237704   6.119   6.569   6.440  0.3396 -0.0352  0.1334
 5382TIP3    H137705   6.123   6.662   6.464  1.0582  0.0501 -0.2853
 5382TIP3    H237706   6.120   6.570   6.344 -0.2196 -0.4599  0.1188
 5383TIP3   OH237707   0.188   5.892   0.112  0.1589 -0.1761  0.1846
 5383TIP3    H137708   0.266   5.874   0.164  2.0085 -0.0486 -2.3528
 5383TIP3    H237709   0.221   5.924   0.029 -2.6975  2.8686  0.0055
 5384TIP3   OH237710   3.544   0.638   0.024  0.3247  0.0188  0.0442
 5384TIP3    H137711   3.598   0.632   0.103 -0.5562  0.1131  0.6733
 5384TIP3    H237712   3.494   0.556   0.023 -2.1399  1.3503  1.4791
 5385TIP3   OH237713   6.692   0.876   7.490  0.8171  0.1442  0.1554
 5385TIP3    H137714   6.739   0.955   7.515  1.1772 -0.5428  1.7494
 5385TIP3    H237715   6.606   0.885   7.531  0.2259  0.5000 -1.1260
 5386TIP3   OH237716   2.993   1.048   7.087 -0.0757 -0.2381  0.0958
 5386TIP3    H137717   2.983   0.991   7.011 -0.6175  1.9640 -1.5995
 5386TIP3    H237718   2.916   1.029   7.141 -0.6049 -0.6707 -0.7766
 5387TIP3   OH237719   0.003   3.057   8.382 -0.3645 -0.4586 -0.3170
 5387TIP3    H137720  -0.027   3.033   8.469 -0.4358  0.2804 -0.1325
 5387TIP3    H237721  -0.014   3.151   8.375 -2.3032 -0.8629 -1.9102
 5388TIP3   OH237722   1.805   5.789   0.512 -0.4239 -0.1398 -0.4564
 5388TIP3    H137723   1.778   5.840   0.589 -1.9388 -2.3480  0.5898
 5388TIP3    H237724   1.723   5.761   0.472  0.3592  0.3914 -2.5413
 5389TIP3   OH237725   4.263   5.970   0.559  0.2627  0.1209  0.1617
 5389TIP3    H137726   4.170   5.973   0.537  0.4904  1.7007 -0.7467
 5389TIP3    H237727   4.284   6.059   0.587  2.3617  1.0601 -3.6515
 5390TIP3   OH237728   4.438   1.477   1.650  0.4041  0.1344 -0.3840
 5390TIP3    H137729   4.514   1.421   1.634  0.5921 -0.3673  1.9291
 5390TIP3    H237730   4.386   1.429   1.714 -0.0590  2.0469  0.7538
 5391TIP3   OH237731   6.166   5.602   6.938 -0.4253 -0.1362  0.3822
 5391TIP3    H137732   6.182   5.587   6.845  2.2627  1.1058  0.5868
 5391TIP3    H237733   6.179   5.516   6.978 -1.6953 -0.7015 -0.3253
 5392TIP3   OH237734   0.421   2.015   1.607 -0.3135 -0.4345  0.2041
 5392TIP3    H137735   0.446   1.988   1.695 -0.7454  1.2656  0.8777
 5392TIP3    H237736   0.418   2.110   1.611 -1.4500 -0.3718 -1.3514
 5393TIP3   OH237737   4.325   6.521   1.665 -0.6048  0.0385  0.2802
 5393TIP3    H137738   4.351   6.522   1.757  0.2246 -2.2724  0.1416
 5393TIP3    H237739   4.408   6.516   1.617 -1.0195  1.4409 -0.6437
 5394TIP3   OH237740   6.055   6.734   6.882 -0.0225 -0.4211 -0.1801
 5394TIP3    H137741   6.067   6.739   6.976  0.7489  0.0523 -0.2967
 5394TIP3    H237742   6.024   6.644   6.866 -0.3755 -0.4292  0.5348
 5395TIP3   OH237743   3.249   4.930   7.860  0.1171  0.4811  0.1717
 5395TIP3    H137744   3.300   4.879   7.797 -0.2113 -0.1509  0.4001
 5395TIP3    H237745   3.277   5.020   7.847  1.8073  0.0821  0.7602
 5396TIP3   OH237746   2.944   3.270   7.732  0.0354  0.6899 -0.6871
 5396TIP3    H137747   2.869   3.230   7.777 -0.6550  2.5156 -0.1239
 5396TIP3    H237748   2.914   3.280   7.642  0.0865  0.2745 -0.7541
 5397TIP3   OH237749   1.468   2.020   1.192  0.0798 -0.2621 -0.2332
 5397TIP3    H137750   1.559   2.036   1.214 -0.5094 -0.6128  2.8964
 5397TIP3    H237751   1.422   2.099   1.220 -0.7577 -0.6445 -0.4859
 5398TIP3   OH237752   6.395   0.663   7.444 -0.1740  0.0692 -0.3070
 5398TIP3    H137753   6.401   0.668   7.348 -0.7536  0.2203 -0.3426
 5398TIP3    H237754   6.423   0.574   7.466 -2.2223 -0.7574 -0.8262
 5399TIP3   OH237755   2.265   0.915   1.676 -0.5423  0.5330  0.0761
 5399TIP3    H137756   2.348   0.942   1.636  0.4162 -1.6711  0.4690
 5399TIP3    H237757   2.267   0.955   1.763  1.8081 -2.2165  1.4361
 5400TIP3   OH237758   2.729   0.368   7.378  0.3565 -0.4117 -0.5365
 5400TIP3    H137759   2.689   0.453   7.396 -1.1178 -1.0248 -0.7730
 5400TIP3    H237760   2.817   0.375   7.413  0.3163  1.2653 -0.6883
 5401TIP3   OH237761   0.406   5.305   7.505  0.2883 -0.5143  0.0121
 5401TIP3    H137762   0.392   5.224   7.554 -0.4049 -0.2027  0.3397
 5401TIP3    H237763   0.462   5.358   7.562 -0.9015  0.0402  0.7107
 5402TIP3   OH237764   5.510   3.679   8.233 -0.0828 -0.1751 -0.5391
 5402TIP3    H137765   5.447   3.656   8.165 -1.1544  0.3912  0.2319
 5402TIP3    H237766   5.524   3.597   8.281 -1.2206 -0.0231  0.0703
 5403TIP3   OH237767   1.398   0.334   1.808 -0.2151 -0.1618  0.3005
 5403TIP3    H137768   1.330   0.384   1.764 -0.3125  0.7598  1.4615
 5403TIP3    H237769   1.451   0.399   1.854  1.4186 -0.8627 -0.4893
 5404TIP3   OH237770   3.570   1.854   6.517  0.5701 -0.1014  0.2991
 5404TIP3    H137771   3.628   1.908   6.571 -0.9771  1.9805 -0.0073
 5404TIP3    H237772   3.482   1.871   6.551 -0.4662  1.2826 -2.7607
 5405TIP3   OH237773   4.838   0.965   8.532 -0.1579 -0.6835 -0.5600
 5405TIP3    H137774   4.800   0.886   8.569 -0.7479  0.0971  0.5363
 5405TIP3    H237775   4.826   1.032   8.599  1.9929 -0.0830 -0.6893
 5406TIP3   OH237776   1.289   2.911   0.939  0.2114  0.1626 -0.1553
 5406TIP3    H137777   1.366   2.867   0.905  0.0548 -0.9415  0.8500
 5406TIP3    H237778   1.323   2.985   0.989  0.4932  1.0360 -1.5865
 5407TIP3   OH237779   0.042   5.163   1.571  0.4122 -0.0002 -0.2501
 5407TIP3    H137780   0.055   5.134   1.481  0.9161  0.2446 -0.2578
 5407TIP3    H237781   0.062   5.086   1.624  0.4154 -0.0559 -0.3323
 5408TIP3   OH237782   6.524   4.494   1.996 -0.7530 -0.2439  0.0860
 5408TIP3    H137783   6.511   4.550   2.073  0.9719  0.2721  0.0522
 5408TIP3    H237784   6.613   4.460   2.006 -0.4518 -0.0791 -1.7253
 5409TIP3   OH237785   5.995   0.700   1.102  0.0295  0.2294  0.7156
 5409TIP3    H137786   6.038   0.680   1.185 -0.4961  0.9436  1.1615
 5409TIP3    H237787   6.009   0.621   1.049 -0.6083 -0.6904  1.8710
 5410TIP3   OH237788   6.777   2.867   0.312  0.3477  0.4692 -0.3237
 5410TIP3    H137789   6.844   2.933   0.295  2.7967 -1.7729 -0.0062
 5410TIP3    H237790   6.787   2.803   0.241 -2.2408  0.5813 -0.8825
 5411TIP3   OH237791   4.189   6.544   0.931 -0.1420  0.0872 -0.0880
 5411TIP3    H137792   4.232   6.622   0.966 -0.9572  0.7345 -0.4996
 5411TIP3    H237793   4.258   6.478   0.930  1.2376  1.4329 -1.9621
 5412TIP3   OH237794   6.620   5.868   8.328 -0.0584  0.0952  0.1135
 5412TIP3    H137795   6.557   5.797   8.341  0.2103 -0.2315 -0.3474
 5412TIP3    H237796   6.687   5.831   8.270  0.5374  0.4491  0.5643
 5413TIP3   OH237797   1.671   4.807   7.920 -0.1268 -0.8509  0.2798
 5413TIP3    H137798   1.713   4.788   8.004 -1.7912 -4.0740  0.5310
 5413TIP3    H237799   1.721   4.757   7.856  0.9431  1.3447 -0.7181
 5414TIP3   OH237800   5.126   6.567   7.289  0.5594 -0.3370 -0.2647
 5414TIP3    H137801   5.100   6.656   7.314 -2.2383 -0.8095 -1.1157
 5414TIP3    H237802   5.155   6.575   7.199  1.8622 -0.0695  0.1614
 5415TIP3   OH237803   2.195   2.024   7.492  0.5579 -0.1838  0.0516
 5415TIP3    H137804   2.142   1.960   7.540  0.4408  0.6802  1.1186
 5415TIP3    H237805   2.269   1.974   7.459  0.7303 -0.7808  1.2937
 5416TIP3   OH237806   4.768   2.913   1.555  0.0503 -0.2310 -0.2916
 5416TIP3    H137807   4.836   2.868   1.606 -0.9581 -0.5433  0.8250
 5416TIP3    H237808   4.754   2.856   1.479 -1.0094 -1.7175  0.9525
 5417TIP3   OH237809   5.543   2.258   7.805  0.5679 -0.0838  0.2650
 5417TIP3    H137810   5.554   2.352   7.792 -0.2630  0.1036  0.8332
 5417TIP3    H237811   5.630   2.222   7.791  0.6723  0.6246 -1.0922
 5418TIP3   OH237812   4.863   2.246   7.627 -0.8361  0.1267 -0.7006
 5418TIP3    H137813   4.857   2.180   7.695 -1.5567 -0.7009 -1.5414
 5418TIP3    H237814   4.927   2.212   7.565 -0.2221  0.8508 -0.4800
 5419TIP3   OH237815   0.885   1.246   1.162 -0.2348 -0.3682  0.7375
 5419TIP3    H137816   0.871   1.153   1.147 -0.4887 -0.0410 -1.2200
 5419TIP3    H237817   0.801   1.287   1.144  0.4963  0.4896 -0.9137
 5420TIP3   OH237818   4.003   5.651   6.966 -0.3780  0.4257 -0.0272
 5420TIP3    H137819   4.001   5.600   7.047 -1.5248 -0.4924 -0.6052
 5420TIP3    H237820   4.094   5.647   6.937 -0.5954 -2.3477 -0.6643
 5421TIP3   OH237821   6.016   4.548   0.493  0.3025 -0.0090  0.0169
 5421TIP3    H137822   5.995   4.590   0.577  0.2353  0.0004 -0.0041
 5421TIP3    H237823   5.931   4.539   0.450  0.3969  0.4680 -0.2772
 5422TIP3   OH237824   3.670   1.936   0.520 -0.4584  0.5382  0.4568
 5422TIP3    H137825   3.609   1.931   0.593  0.6948  1.3083  1.5089
 5422TIP3    H237826   3.687   2.030   0.509  1.7571  0.2796  1.2642
 5423TIP3   OH237827   2.523   0.207   7.492 -0.0845 -0.2078  0.3799
 5423TIP3    H137828   2.587   0.272   7.461 -1.3479 -0.2770 -2.7591
 5423TIP3    H237829   2.439   0.237   7.455 -1.2455 -1.9853  1.4307
 5424TIP3   OH237830   2.217   0.660   1.600 -0.2962  0.4788 -0.6288
 5424TIP3    H137831   2.262   0.576   1.614  0.5444  0.3489 -3.5532
 5424TIP3    H237832   2.269   0.722   1.652 -0.9962 -0.7231  1.6819
 5425TIP3   OH237833   5.181   0.695   0.065 -0.6984  0.2446 -0.0635
 5425TIP3    H137834   5.276   0.689   0.074 -0.6869 -1.0413 -0.7120
 5425TIP3    H237835   5.155   0.763   0.126  0.3816 -1.1028  2.0213
 5426TIP3   OH237836   3.823   3.167   0.595  0.2171 -0.4953 -0.1950
 5426TIP3    H137837   3.881   3.092   0.612  0.8023 -0.0852 -0.3529
 5426TIP3    H237838   3.763   3.136   0.528  0.2888 -0.9071 -0.0727
 5427TIP3   OH237839   0.416   4.873   6.126  0.8162  0.2387 -0.5378
 5427TIP3    H137840   0.477   4.831   6.187  1.8258  1.8791 -0.3773
 5427TIP3    H237841   0.357   4.802   6.099  2.4955 -1.2898 -0.3454
 5428TIP3   OH237842   3.144   3.313   6.048 -0.4916  0.0847  0.1200
 5428TIP3    H137843   3.230   3.277   6.067 -0.4936 -1.0197 -1.7276
 5428TIP3    H237844   3.084   3.239   6.055 -0.8297  0.1661 -1.5058
 5429TIP3   OH237845   0.236   1.779   8.197  0.4340 -0.0677 -0.4403
 5429TIP3    H137846   0.324   1.817   8.196 -0.4530  2.2884  0.8134
 5429TIP3    H237847   0.207   1.782   8.106  2.1986 -2.5001 -1.1783
 5430TIP3   OH237848   6.453   3.026   8.301  0.0051 -0.2419  0.1091
 5430TIP3    H137849   6.476   3.018   8.208 -0.4786  0.6404 -0.0939
 5430TIP3    H237850   6.461   3.119   8.319 -2.4722 -0.0035  0.2700
 5431TIP3   OH237851   3.951   2.659   8.160 -0.4903  1.1379 -0.0974
 5431TIP3    H137852   3.872   2.704   8.133 -0.8581  0.4538 -0.2013
 5431TIP3    H237853   3.950   2.577   8.110  0.0859  0.9561  0.1785
 5432TIP3   OH237854   6.688   2.813   7.934  0.1167 -0.2302  0.0235
 5432TIP3    H137855   6.689   2.719   7.915 -1.3546  0.1377 -2.2654
 5432TIP3    H237856   6.740   2.821   8.014 -0.3553 -3.0576  0.7387
 5433TIP3   OH237857   6.532   6.592   2.565 -0.0414  0.4255  0.3721
 5433TIP3    H137858   6.603   6.533   2.589  1.9814  2.5340 -0.0978
 5433TIP3    H237859   6.463   6.534   2.533  1.8458 -1.6854 -0.1519
 5434TIP3   OH237860   0.323   0.389   8.321 -0.0334 -0.4297 -0.3369
 5434TIP3    H137861   0.317   0.300   8.286 -0.4965 -1.1299  1.3884
 5434TIP3    H237862   0.415   0.413   8.309  0.6042 -1.9677  0.9400
 5435TIP3   OH237863   1.581   6.571   7.453 -0.3729  0.0185 -0.5319
 5435TIP3    H137864   1.650   6.563   7.388 -0.4673 -0.7232 -0.5465
 5435TIP3    H237865   1.582   6.488   7.500  1.0931  1.2229  1.8170
 5436TIP3   OH237866   0.353   4.709   6.894 -0.5895 -0.4517  0.8863
 5436TIP3    H137867   0.318   4.677   6.811 -2.6175  0.8880  1.1481
 5436TIP3    H237868   0.421   4.647   6.917 -1.1937 -1.8621 -0.8955
 5437TIP3   OH237869   5.013   3.434   8.272  0.5684  0.3942 -0.8894
 5437TIP3    H137870   4.974   3.379   8.203  2.1119 -1.0359 -0.6869
 5437TIP3    H237871   5.107   3.432   8.253  1.0390 -0.0871  1.2771
 5438TIP3   OH237872   4.746   1.733   0.300  0.2679  0.1630  0.1446
 5438TIP3    H137873   4.692   1.710   0.376  0.6252  2.8738  1.3131
 5438TIP3    H237874   4.751   1.828   0.302  0.8995  0.2839 -2.9133
 5439TIP3   OH237875   4.623   5.760   0.977  0.2502  0.0322  0.3252
 5439TIP3    H137876   4.680   5.802   1.041 -0.9093  2.1298  0.0690
 5439TIP3    H237877   4.548   5.819   0.968 -1.3150 -1.9260 -0.3908
 5440TIP3   OH237878   0.473   0.163   0.195 -0.2166 -0.8672  0.0781
 5440TIP3    H137879   0.444   0.226   0.129 -1.2783 -0.3728  0.9819
 5440TIP3    H237880   0.522   0.215   0.259 -1.5043 -0.8282  1.0804
 5441TIP3   OH237881   2.937   4.218   1.295 -0.1450  0.0345 -0.8288
 5441TIP3    H137882   2.878   4.165   1.347  1.3575  0.5444  1.5685
 5441TIP3    H237883   2.880   4.278   1.248 -1.6065  0.9113  1.8253
 5442TIP3   OH237884   6.465   0.487   0.966  0.3308 -0.5018 -0.1976
 5442TIP3    H137885   6.487   0.466   1.057 -0.2755  1.9818  0.6208
 5442TIP3    H237886   6.541   0.535   0.934  0.2952 -0.8465 -0.7982
 5443TIP3   OH237887   3.487   3.993   6.090  0.1958 -0.3727 -0.0037
 5443TIP3    H137888   3.544   4.061   6.125  0.3348 -0.1767 -0.6012
 5443TIP3    H237889   3.453   4.030   6.008  0.7471 -1.2505 -0.6462
 5444TIP3   OH237890   6.438   5.096   8.318 -0.0113  0.7882  0.4617
 5444TIP3    H137891   6.493   5.018   8.330  0.9180  1.3701  0.0489
 5444TIP3    H237892   6.431   5.134   8.406 -1.0181 -0.1037  0.7896
 5445TIP3   OH237893   2.536   3.268   7.983  1.0535  0.1225 -0.2795
 5445TIP3    H137894   2.447   3.234   7.994  0.8142  1.2704  2.1642
 5445TIP3    H237895   2.586   3.195   7.947 -0.9490 -0.3838 -2.2237
 5446TIP3   OH237896   5.340   6.200   8.007  0.1256 -0.2856 -0.0379
 5446TIP3    H137897   5.299   6.257   7.942  1.1846 -0.2725 -0.7281
 5446TIP3    H237898   5.322   6.111   7.976  0.6752 -0.2789 -0.3970
 5447TIP3   OH237899   2.813   3.293   7.481  0.2760  0.5292  0.2233
 5447TIP3    H137900   2.722   3.267   7.465 -0.3603  1.2842  2.2758
 5447TIP3    H237901   2.836   3.346   7.405 -0.9777  0.2911 -0.3567
 5448TIP3   OH237902   1.820   3.560   1.997 -0.7330 -0.2948  0.2005
 5448TIP3    H137903   1.783   3.569   2.085  0.7958  0.0504  0.8387
 5448TIP3    H237904   1.825   3.466   1.982 -0.4573 -0.3615  0.7199
 5449TIP3   OH237905   2.952   0.368   7.503 -0.2712 -0.3279 -0.3945
 5449TIP3    H137906   3.034   0.321   7.488  0.6056  0.7770  0.7353
 5449TIP3    H237907   2.953   0.390   7.596 -2.4704 -1.3682 -0.0611
 5450TIP3   OH237908   3.740   5.179   2.275 -0.2879  0.1724  0.5777
 5450TIP3    H137909   3.690   5.254   2.307 -0.6272  1.0154 -1.6912
 5450TIP3    H237910   3.829   5.211   2.268 -0.5908  0.7699 -1.2981
 5451TIP3   OH237911   1.844   0.949   7.296 -0.8087  1.1430 -0.1767
 5451TIP3    H137912   1.791   0.936   7.217 -2.1213 -1.9742  1.0429
 5451TIP3    H237913   1.780   0.946   7.368  0.6509  0.8128  1.1513
 5452TIP3   OH237914   6.633   2.472   0.983  0.2697 -0.1829 -0.7840
 5452TIP3    H137915   6.658   2.385   1.013  1.0578  0.3378  0.1532
 5452TIP3    H237916   6.708   2.503   0.933  0.9368  0.7854  0.7310
 5453TIP3   OH237917   0.115   4.158   0.686 -0.3119  0.3885 -0.2325
 5453TIP3    H137918   0.074   4.144   0.771 -2.2136  0.8103 -1.0248
 5453TIP3    H237919   0.042   4.176   0.627  1.0863  1.9442 -1.6040
 5454TIP3   OH237920   3.109   3.301   0.506 -0.0117  0.1385  0.3376
 5454TIP3    H137921   3.056   3.230   0.471  1.1348 -0.4475 -0.2848
 5454TIP3    H237922   3.108   3.368   0.438 -0.1281  0.2248  0.4229
 5455TIP3   OH237923   2.813   6.106   7.249  0.2000  0.0511  0.3172
 5455TIP3    H137924   2.873   6.172   7.285  1.1076 -0.8905  0.5585
 5455TIP3    H237925   2.785   6.056   7.326  1.7112 -1.6158 -0.1510
 5456TIP3   OH237926   4.605   3.398   7.698  0.2633 -0.0717 -0.0680
 5456TIP3    H137927   4.619   3.313   7.656  1.3983  0.1175 -0.0795
 5456TIP3    H237928   4.687   3.417   7.743 -0.3389  0.5394  0.8059
 5457TIP3   OH237929   2.330   0.073   0.647  0.4724  0.3342  0.2030
 5457TIP3    H137930   2.355   0.151   0.697 -0.8212 -0.2651  1.8857
 5457TIP3    H237931   2.394   0.007   0.673  1.4661  0.7403 -1.0951
 5458TIP3   OH237932   5.839   0.908   7.054 -0.1293 -0.3168 -0.2355
 5458TIP3    H137933   5.886   0.989   7.073  0.3903 -0.7887  0.5140
 5458TIP3    H237934   5.769   0.904   7.119 -1.3119  0.4252 -1.3952
 5459TIP3   OH237935   5.277   1.136   8.416  0.1686  0.2100  0.3467
 5459TIP3    H137936   5.342   1.160   8.350  0.4572 -1.0116  0.1604
 5459TIP3    H237937   5.321   1.072   8.472 -0.3801  0.5238  1.1550
 5460TIP3   OH237938   5.874   3.719   8.105  0.6067  0.7019 -0.4097
 5460TIP3    H137939   5.802   3.774   8.135  1.0083  0.7192  0.5917
 5460TIP3    H237940   5.927   3.704   8.184  0.5491 -1.0700 -0.6533
 5461TIP3   OH237941   6.516   3.582   0.184  0.0475 -0.4942 -0.1693
 5461TIP3    H137942   6.558   3.638   0.118  0.9370 -1.2246 -0.2349
 5461TIP3    H237943   6.459   3.524   0.134  0.0949 -0.4958 -0.2217
 5462TIP3   OH237944   1.712   6.302   0.635 -0.0189 -0.0489  0.2986
 5462TIP3    H137945   1.655   6.238   0.593 -0.9892  0.9565  0.0303
 5462TIP3    H237946   1.767   6.250   0.694 -0.5173 -1.1624 -0.1879
 5463TIP3   OH237947   5.830   4.014   6.381  0.8264 -0.2994  0.0575
 5463TIP3    H137948   5.744   3.975   6.396  0.2250  1.5950  2.0858
 5463TIP3    H237949   5.877   3.950   6.327 -1.7909 -1.4357 -1.0331
 5464TIP3   OH237950   3.484   2.355   0.667 -0.2092  0.2604  0.3997
 5464TIP3    H137951   3.411   2.404   0.704 -0.1991 -0.3866  1.3018
 5464TIP3    H237952   3.455   2.333   0.578 -0.8035  0.6408  0.4953
 5465TIP3   OH237953   2.817   0.295   6.360  0.2302  0.1893  0.2026
 5465TIP3    H137954   2.804   0.250   6.443  1.1821 -1.0366 -0.2763
 5465TIP3    H237955   2.909   0.280   6.339 -0.2931 -0.6734 -1.6985
 5466TIP3   OH237956   4.357   1.996   8.103 -0.2616  0.1854 -0.2818
 5466TIP3    H137957   4.386   2.058   8.170  1.0341 -2.0881  1.3996
 5466TIP3    H237958   4.275   2.032   8.071 -0.9548  1.3706  2.5610
 5467TIP3   OH237959   4.550   2.608   2.351  0.0660  0.5282 -0.4236
 5467TIP3    H137960   4.591   2.695   2.352 -0.6772  0.9152  2.0719
 5467TIP3    H237961   4.525   2.592   2.442 -1.5295 -1.5014 -1.1448
 5468TIP3   OH237962   3.207   4.666   7.978 -0.2390 -0.0191  0.9859
 5468TIP3    H137963   3.225   4.709   8.061 -1.8429  0.3253  1.2011
 5468TIP3    H237964   3.203   4.737   7.914 -0.0760 -0.1591  0.8201
 5469TIP3   OH237965   5.906   2.502   0.125  0.1048 -0.6265 -0.0151
 5469TIP3    H137966   5.942   2.551   0.199  0.6486 -0.7809 -0.1782
 5469TIP3    H237967   5.863   2.569   0.071  0.8087 -0.3209 -0.2125
 5470TIP3   OH237968   0.348   3.222   1.131  0.5971 -0.1253 -0.6765
 5470TIP3    H137969   0.345   3.316   1.151 -1.4879 -0.3969  0.5621
 5470TIP3    H237970   0.257   3.197   1.118  1.2045 -1.7805 -2.1624
 5471TIP3   OH237971   1.490   2.319   0.293 -0.8311 -0.1455 -0.0114
 5471TIP3    H137972   1.542   2.385   0.340  2.0701 -2.9283  1.0065
 5471TIP3    H237973   1.485   2.245   0.353  0.5476 -2.8038 -2.9318
 5472TIP3   OH237974   1.415   2.559   6.257  0.6887  0.4003 -0.0122
 5472TIP3    H137975   1.501   2.568   6.297  0.4288  0.6115  0.5052
 5472TIP3    H237976   1.354   2.597   6.320  0.2632  0.6709 -0.5704
 5473TIP3   OH237977   3.100   6.581   8.017  0.1464 -0.6389  0.5120
 5473TIP3    H137978   3.008   6.594   8.038  0.0157 -0.4934 -0.1129
 5473TIP3    H237979   3.115   6.635   7.939  0.8920 -0.2476  0.9153
 5474TIP3   OH237980   0.724   0.038   0.842  0.2266 -0.8033  0.0556
 5474TIP3    H137981   0.691   0.039   0.752  2.1849 -0.1482 -0.6885
 5474TIP3    H237982   0.741  -0.055   0.860 -2.3987 -1.2424  0.6645
 5475TIP3   OH237983   5.848   3.118   8.194 -0.2874  0.5384 -0.6981
 5475TIP3    H137984   5.815   3.100   8.282  0.2809  0.1854 -0.5467
 5475TIP3    H237985   5.908   3.192   8.206 -0.8815  1.0616 -0.9383
 5476TIP3   OH237986   1.453   4.566   1.248 -0.1484 -0.4796  0.7326
 5476TIP3    H137987   1.369   4.523   1.264 -0.3778 -0.3141  0.0095
 5476TIP3    H237988   1.442   4.653   1.285 -0.5561 -0.2143  0.0170
 5477TIP3   OH237989   2.150   5.494   1.220 -0.7763 -0.1114 -0.4527
 5477TIP3    H137990   2.137   5.522   1.129 -1.4530  0.4098 -0.2047
 5477TIP3    H237991   2.233   5.533   1.246 -1.0242  0.4882 -0.5628
 5478TIP3   OH237992   4.841   1.093   2.315 -0.0251 -0.3843  0.4688
 5478TIP3    H137993   4.770   1.034   2.337 -0.1313 -0.0110  1.1519
 5478TIP3    H237994   4.919   1.038   2.314 -0.5611 -1.2881 -2.5368
 5479TIP3   OH237995   5.092   4.645   1.353  0.0446  0.5898 -0.0700
 5479TIP3    H137996   5.058   4.625   1.266 -0.1965  0.2417  0.0997
 5479TIP3    H237997   5.140   4.727   1.342  0.4910  0.2586 -0.6438
 5480TIP3   OH237998   2.672   6.375   7.496 -0.0899  0.2066 -0.4013
 5480TIP3    H137999   2.615   6.316   7.445  1.2706 -0.6126 -1.0308
 5480TIP3    H238000   2.702   6.440   7.432  1.2736 -0.5636 -0.5781
 5481TIP3   OH238001   4.897   3.053   1.958  0.0302 -0.3302 -0.0344
 5481TIP3    H138002   4.882   2.985   1.892 -2.0464  0.3237 -0.3279
 5481TIP3    H238003   4.987   3.081   1.944 -0.2618 -0.4073 -2.4634
 5482TIP3   OH238004   3.167   2.910   1.561  0.3641  0.0996  0.1981
 5482TIP3    H138005   3.131   2.823   1.577  0.4172  0.0505  0.0577
 5482TIP3    H238006   3.091   2.966   1.544  0.3997 -0.1868 -0.9642
 5483TIP3   OH238007   0.683   1.335   1.788  0.2371 -0.0551 -0.3715
 5483TIP3    H138008   0.635   1.311   1.708 -1.6878 -0.2911  0.7972
 5483TIP3    H238009   0.655   1.424   1.806 -0.8026 -0.6214  1.0086
 5484TIP3   OH238010   3.682   5.660   7.611 -0.0182  0.0545  0.0377
 5484TIP3    H138011   3.722   5.600   7.673 -0.4115 -0.2982 -0.0435
 5484TIP3    H238012   3.639   5.726   7.665  0.2103  0.1287  0.1296
 5485TIP3   OH238013   2.604   1.395   0.992  0.4692 -0.3317  0.0483
 5485TIP3    H138014   2.561   1.327   0.940 -0.9350  0.6645 -0.1547
 5485TIP3    H238015   2.640   1.455   0.927 -1.0610  0.7764  0.1880
 5486TIP3   OH238016   4.542   0.198   0.037  0.1468  0.4808  0.2382
 5486TIP3    H138017   4.548   0.269   0.101  0.1849  1.7935 -1.1919
 5486TIP3    H238018   4.575   0.235  -0.044  1.1203 -1.4736 -0.3353
 5487TIP3   OH238019   0.264   5.980   8.508  0.4099  0.5051 -0.1662
 5487TIP3    H138020   0.267   5.927   8.429  1.3079  0.0188  0.1700
 5487TIP3    H238021   0.186   6.034   8.499 -0.3612 -0.6597 -0.6615
 5488TIP3   OH238022   0.183   4.223   8.308  0.1915 -0.2132  0.5223
 5488TIP3    H138023   0.101   4.177   8.292  1.0577 -2.0353  1.0300
 5488TIP3    H238024   0.165   4.280   8.383 -0.8087  0.0181  0.1184
 5489TIP3   OH238025   5.266   3.590   2.253  0.5571  0.4479  0.4223
 5489TIP3    H138026   5.217   3.514   2.223 -0.1334  0.5752  1.1931
 5489TIP3    H238027   5.224   3.615   2.335  2.1378  0.3534  1.3009
 5490TIP3   OH238028   5.475   3.530   8.598  0.2622 -0.5674  0.3934
 5490TIP3    H138029   5.473   3.438   8.624  1.7198 -1.0665 -1.1030
 5490TIP3    H238030   5.568   3.551   8.592 -0.0067  0.2370 -1.7351
 5491TIP3   OH238031   4.714   0.855   0.557  0.4507  0.3422  0.4579
 5491TIP3    H138032   4.633   0.863   0.608 -2.6711  0.7133 -3.9636
 5491TIP3    H238033   4.739   0.946   0.538  0.2781  0.2302 -0.3601
 5492TIP3   OH238034   3.831   3.415   1.393 -0.0330 -0.1645 -0.2522
 5492TIP3    H138035   3.837   3.506   1.365  0.4671 -0.3550 -0.7911
 5492TIP3    H238036   3.862   3.365   1.318  0.2441 -0.7514  0.2456
 5493TIP3   OH238037   6.031   5.823   1.488  0.0116  0.9583  0.9719
 5493TIP3    H138038   6.115   5.854   1.455  0.9500 -1.0675  1.2909
 5493TIP3    H238039   5.984   5.794   1.410 -0.3408  1.9228  0.8124
 5494TIP3   OH238040   0.164   1.409   0.298 -0.2521  0.0408  0.7608
 5494TIP3    H138041   0.191   1.501   0.301 -0.1109 -0.0065  0.9616
 5494TIP3    H238042   0.097   1.402   0.366 -1.2811  0.3156 -0.1890
 5495TIP3   OH238043   4.369   0.057   1.943 -0.4376  0.3934 -0.9405
 5495TIP3    H138044   4.395   0.013   2.024 -0.5273 -0.2454 -1.2517
 5495TIP3    H238045   4.346   0.146   1.970 -1.3828 -0.0835 -0.1223
 5496TIP3   OH238046   1.819   3.869   0.088  0.3360 -0.3360  0.0341
 5496TIP3    H138047   1.761   3.800   0.119 -1.0786  0.4100 -0.8735
 5496TIP3    H238048   1.862   3.832   0.012  3.1967 -1.8728  2.2005
 5497TIP3   OH238049   6.080   3.615   1.376 -0.4041 -0.8674 -0.1381
 5497TIP3    H138050   6.136   3.537   1.381  1.4006  0.3533 -0.2050
 5497TIP3    H238051   6.081   3.651   1.465  0.2395  0.0236 -0.4908
 5498TIP3   OH238052   6.868   6.236   7.186 -0.1903 -0.1187 -0.0735
 5498TIP3    H138053   6.773   6.232   7.193 -0.0782  0.2025  2.3047
 5498TIP3    H238054   6.884   6.287   7.106 -1.9842 -0.1633 -0.5028
 5499TIP3   OH238055   5.469   6.025   1.290  0.4197  0.8910  0.0304
 5499TIP3    H138056   5.527   6.045   1.217  0.3985  0.0624 -0.2284
 5499TIP3    H238057   5.487   5.933   1.311 -2.2557 -0.0864 -1.4498
 5500TIP3   OH238058   0.083   1.575   5.947 -0.4445  0.1400 -0.3104
 5500TIP3    H138059   0.021   1.541   5.881 -0.2696  0.6242 -0.7357
 5500TIP3    H238060   0.070   1.519   6.023 -0.7941 -0.3112 -0.6920
 5501TIP3   OH238061   5.514   3.232   0.795 -0.0522  1.0168 -0.0885
 5501TIP3    H138062   5.497   3.152   0.747  1.2403  0.1828  0.7939
 5501TIP3    H238063   5.571   3.284   0.737 -0.3362  1.0106 -0.3760
 5502TIP3   OH238064   1.129   4.789   7.396 -0.4140 -0.2103  0.6556
 5502TIP3    H138065   1.065   4.842   7.350  1.0359  1.2999  0.2853
 5502TIP3    H238066   1.179   4.851   7.449  0.4207 -1.3929  1.3084
 5503TIP3   OH238067   4.761   6.081   6.986  0.3129  0.1415  0.0485
 5503TIP3    H138068   4.716   6.152   7.032 -0.2694 -0.3624  0.2579
 5503TIP3    H238069   4.846   6.074   7.031 -0.0626 -0.0325  0.7430
 5504TIP3   OH238070   0.019   5.192   8.041 -0.1158 -0.4721  0.2299
 5504TIP3    H138071   0.004   5.161   7.952 -0.5362  1.5213 -0.4328
 5504TIP3    H238072  -0.065   5.181   8.085 -0.7434  1.1527 -0.4860
 5505TIP3   OH238073   4.963   0.225   1.453  0.0658 -0.0247  0.1811
 5505TIP3    H138074   4.942   0.272   1.372 -0.1275  0.1002  0.3030
 5505TIP3    H238075   4.987   0.294   1.515  0.3052 -0.1268  0.2039
 5506TIP3   OH238076   4.693   3.911   7.187 -0.3840  0.0428 -0.2086
 5506TIP3    H138077   4.737   3.991   7.218 -0.4231 -0.0746  0.1518
 5506TIP3    H238078   4.608   3.942   7.155 -0.2665  0.1923 -0.3746
 5507TIP3   OH238079   0.222   3.707   7.876  0.4922 -0.6240  0.0775
 5507TIP3    H138080   0.308   3.691   7.914  0.1120 -0.1165  1.2069
 5507TIP3    H238081   0.196   3.792   7.911  0.5175  0.3553 -2.1212
 5508TIP3   OH238082   0.525   3.833   6.647 -0.7992  0.1031  0.2983
 5508TIP3    H138083   0.528   3.774   6.722  2.9455  0.5165  0.7079
 5508TIP3    H238084   0.583   3.792   6.582  0.3362  2.2733 -0.1584
 5509TIP3   OH238085   5.366   1.427   1.312 -0.0757  0.0698  0.4851
 5509TIP3    H138086   5.452   1.423   1.271  0.5914 -2.6981  1.8934
 5509TIP3    H238087   5.330   1.511   1.285  2.2539  0.4722 -1.7322
 5510TIP3   OH238088   1.811   2.918   8.219 -0.2346  0.3715 -0.1610
 5510TIP3    H138089   1.799   2.871   8.301 -0.9208 -0.2780 -0.6238
 5510TIP3    H238090   1.782   3.007   8.238 -1.4357 -0.0405  0.0113
 5511TIP3   OH238091   6.615   0.151   1.072  0.0076  0.1563  0.7171
 5511TIP3    H138092   6.681   0.081   1.065  0.1609  0.4352 -1.0485
 5511TIP3    H238093   6.625   0.185   1.161  0.9339 -1.0881  1.1097
 5512TIP3   OH238094   6.603   6.087   7.211  0.1257  0.3153 -0.4198
 5512TIP3    H138095   6.535   6.108   7.276 -0.2358 -1.2335 -0.2524
 5512TIP3    H238096   6.559   6.099   7.127  0.2507  1.2398 -0.3563
 5513TIP3   OH238097   5.156   5.959   7.266  0.1738  0.3718 -1.2237
 5513TIP3    H138098   5.241   6.000   7.251 -0.7147  2.3903 -1.1947
 5513TIP3    H238099   5.175   5.866   7.278  2.5920  0.9880  0.6602
 5514TIP3   OH238100   5.774   1.452   0.730 -0.1707  0.3042  0.5464
 5514TIP3    H138101   5.784   1.452   0.635 -0.6874 -0.2052  0.4904
 5514TIP3    H238102   5.697   1.399   0.747 -1.0439  1.6975  1.1617
 5515TIP3   OH238103   6.587   4.249   1.481  0.8702 -0.6721  0.8203
 5515TIP3    H138104   6.665   4.288   1.522 -0.8970  0.8062  3.0467
 5515TIP3    H238105   6.543   4.205   1.553 -1.4669  0.4498  0.1643
 5516TIP3   OH238106   3.514   5.763   1.174  0.7131 -0.1728  0.1936
 5516TIP3    H138107   3.594   5.750   1.226  0.2479 -1.0305  0.7151
 5516TIP3    H238108   3.484   5.674   1.154 -1.8993  0.0131  2.7684
 5517TIP3   OH238109   0.781   3.528   8.073 -0.7593 -0.3693  0.3005
 5517TIP3    H138110   0.719   3.473   8.024  0.3181 -0.3337 -1.1740
 5517TIP3    H238111   0.866   3.509   8.033  0.1070  0.0157  1.8910
 5518TIP3   OH238112   5.021   2.951   0.462  0.2400 -0.1675  0.2493
 5518TIP3    H138113   4.926   2.954   0.470  0.3257  1.9614  0.9620
 5518TIP3    H238114   5.038   2.872   0.411 -1.8785 -0.7370  0.3328
 5519TIP3   OH238115   2.514   5.242   0.157  0.0511 -0.5567 -0.5722
 5519TIP3    H138116   2.438   5.300   0.159  0.5269  0.0649  0.3098
 5519TIP3    H238117   2.494   5.175   0.223  0.2280 -0.4230 -0.3782
 5520TIP3   OH238118   3.476   4.187   8.498  0.1897 -0.1788  0.4033
 5520TIP3    H138119   3.537   4.146   8.559  1.3996  1.7552  0.5692
 5520TIP3    H238120   3.452   4.270   8.539  0.1320  0.6450 -1.2043
 5521TIP3   OH238121   4.421   4.877   7.448  0.3246 -0.5062 -0.1674
 5521TIP3    H138122   4.445   4.852   7.358 -2.0390 -1.1110 -0.6949
 5521TIP3    H238123   4.494   4.932   7.478  0.1490  1.7277 -3.3254
 5522TIP3   OH238124   2.784   4.026   1.039 -0.0418 -0.4807 -0.1377
 5522TIP3    H138125   2.690   4.016   1.054  0.1503  0.8382  2.4312
 5522TIP3    H238126   2.824   3.966   1.102  0.8786 -1.2733 -1.4410
 5523TIP3   OH238127   2.742   6.150   1.603  0.1579 -0.4857 -0.0750
 5523TIP3    H138128   2.790   6.229   1.630  0.6305 -1.4464  2.1101
 5523TIP3    H238129   2.659   6.155   1.651 -0.6080 -0.4556 -1.3430
 5524TIP3   OH238130   0.380   2.031   6.733  0.0552  0.1863 -0.4719
 5524TIP3    H138131   0.398   1.965   6.666 -2.2177 -0.3343 -0.6609
 5524TIP3    H238132   0.347   2.107   6.684 -2.3572 -0.4662  0.0118
 5525TIP3   OH238133   6.313   2.405   1.317  0.0118 -0.0949 -0.5386
 5525TIP3    H138134   6.402   2.421   1.286  0.3268  0.1439  0.4377
 5525TIP3    H238135   6.293   2.316   1.288  1.5901 -1.1896  1.4825
 5526TIP3   OH238136   2.427   0.284   0.813 -0.0445 -0.4848 -0.6798
 5526TIP3    H138137   2.417   0.357   0.875  0.8996 -0.6897 -0.2659
 5526TIP3    H238138   2.426   0.206   0.868 -0.5076 -0.7582 -1.0713
 5527TIP3   OH238139   6.176   0.131   8.043  0.2339  0.0771  0.1777
 5527TIP3    H138140   6.116   0.144   8.117  0.4238  2.3123  0.0005
 5527TIP3    H238141   6.142   0.188   7.975  0.8135 -0.9819 -1.0283
 5528TIP3   OH238142   5.428   1.685   7.630  0.0759 -0.4362  0.0396
 5528TIP3    H138143   5.494   1.699   7.699 -0.1038 -0.3434  0.1949
 5528TIP3    H238144   5.431   1.591   7.613 -1.5780 -0.9140  1.9144
 5529TIP3   OH238145   3.050   5.234   0.151 -0.0399 -0.5852 -0.7819
 5529TIP3    H138146   3.114   5.187   0.205  0.1678  1.4046  0.8040
 5529TIP3    H238147   2.965   5.212   0.190 -0.0765 -0.8222 -0.9909
 5530TIP3   OH238148   0.150   1.154   8.592 -0.6592 -0.0126 -0.0811
 5530TIP3    H138149   0.227   1.147   8.648 -1.3117  1.7972  1.1427
 5530TIP3    H238150   0.156   1.079   8.534  1.6795 -0.2760  0.3937
 5531TIP3   OH238151   3.423   2.863   8.277  0.0469  0.5839 -0.5899
 5531TIP3    H138152   3.417   2.843   8.371 -0.8126  1.5693 -0.4171
 5531TIP3    H238153   3.366   2.798   8.235 -0.9737  1.2325 -0.2461
 5532TIP3   OH238154   0.409   6.140   1.315 -0.2871  0.0462  0.1083
 5532TIP3    H138155   0.351   6.163   1.242 -1.9311  1.3327  1.7090
 5532TIP3    H238156   0.360   6.166   1.393  1.7413 -0.5169  1.6539
 5533TIP3   OH238157   6.372   5.087   1.623 -0.5496  0.6975  0.0165
 5533TIP3    H138158   6.393   5.173   1.585 -0.2877  0.3989 -0.5328
 5533TIP3    H238159   6.292   5.060   1.578 -0.5423  0.5862  0.0705
 5534TIP3   OH238160   2.420   2.601   8.191 -0.5805  0.1294  0.4296
 5534TIP3    H138161   2.477   2.545   8.138 -0.7642 -1.1422  1.5212
 5534TIP3    H238162   2.338   2.605   8.141 -0.2250  0.2743 -0.1518
 5535TIP3   OH238163   1.012   0.071   1.784  0.6583 -0.1838 -0.0958
 5535TIP3    H138164   1.014   0.042   1.693  2.6742 -2.6096  0.6045
 5535TIP3    H238165   0.930   0.036   1.818  0.9388 -1.1915 -0.4335
 5536TIP3   OH238166   0.869   5.333   7.460  0.0632  0.5742 -0.0797
 5536TIP3    H138167   0.907   5.340   7.372 -0.1335 -0.2015 -0.2370
 5536TIP3    H238168   0.775   5.327   7.445  0.0103  0.7257  0.1972
 5537TIP3   OH238169   5.390   5.851   6.128 -0.3144  0.0558  0.4023
 5537TIP3    H138170   5.465   5.834   6.185 -0.2499  2.2023  1.0397
 5537TIP3    H238171   5.428   5.862   6.041  0.2671  1.9472  0.8556
 5538TIP3   OH238172   4.703   5.076   2.174 -0.0396 -0.2221  0.0916
 5538TIP3    H138173   4.747   5.125   2.105 -0.9382  0.4256 -0.0314
 5538TIP3    H238174   4.612   5.105   2.170 -0.5862 -1.8823  0.0477
 5539TIP3   OH238175   1.999   3.658   7.285 -0.1836  0.0833 -0.0339
 5539TIP3    H138176   1.915   3.622   7.313  0.9989 -2.0918  0.9109
 5539TIP3    H238177   2.016   3.730   7.346 -0.8274 -0.2138  0.5055
 5540TIP3   OH238178   0.181   1.233   7.744  0.1737  0.1871 -0.5662
 5540TIP3    H138179   0.235   1.288   7.800  0.6708 -0.6722 -0.1827
 5540TIP3    H238180   0.232   1.153   7.731 -0.2451  0.0733 -1.6588
 5541TIP3   OH238181   3.747   3.237   8.247  0.7024 -0.4115 -0.3187
 5541TIP3    H138182   3.826   3.223   8.195  0.3254  0.8686 -1.3114
 5541TIP3    H238183   3.703   3.310   8.203 -0.7433 -0.7260  0.5440
 5542TIP3   OH238184   0.611   0.979   1.578  0.3740  0.6285 -0.9552
 5542TIP3    H138185   0.677   0.910   1.575 -0.8197 -0.5193 -2.0310
 5542TIP3    H238186   0.592   0.999   1.486 -1.6195  0.0688 -0.7148
 5543TIP3   OH238187   4.217   1.230   0.132 -0.6501  0.0883 -0.1582
 5543TIP3    H138188   4.284   1.203   0.069 -0.6802 -0.3941  0.0052
 5543TIP3    H238189   4.141   1.176   0.110 -1.3506  1.3906 -1.0214
 5544TIP3   OH238190   1.179   5.527   0.701  0.1375  0.5152  0.0546
 5544TIP3    H138191   1.173   5.533   0.606  1.5987 -0.5681 -0.1320
 5544TIP3    H238192   1.131   5.447   0.723  0.7798  0.1451  0.1118
 5545TIP3   OH238193   6.383   0.765   1.732  0.1131  0.4798 -0.0266
 5545TIP3    H138194   6.461   0.813   1.705  0.0775  2.2846  2.7535
 5545TIP3    H238195   6.316   0.832   1.744 -1.0172 -0.6954  0.5058
 5546TIP3   OH238196   4.818   5.657   0.481 -0.5667  0.3455 -0.1199
 5546TIP3    H138197   4.902   5.611   0.482 -0.2725  0.8765  0.5461
 5546TIP3    H238198   4.775   5.628   0.400 -0.4084 -1.1176  0.3080
 5547TIP3   OH238199   2.259   1.312   1.818  0.3017  0.1481 -0.4403
 5547TIP3    H138200   2.258   1.232   1.871  0.3490 -0.0513 -0.7396
 5547TIP3    H238201   2.166   1.329   1.799  0.0852  1.3471  1.3822
 5548TIP3   OH238202   4.756   2.226   1.447 -0.1804  0.5814 -0.0871
 5548TIP3    H138203   4.782   2.168   1.518 -0.8711  2.9802  2.3167
 5548TIP3    H238204   4.835   2.237   1.394  0.5073 -0.8945  0.5877
 5549TIP3   OH238205   3.734   6.089   1.395 -0.2217 -0.5621  0.4931
 5549TIP3    H138206   3.709   5.996   1.396  0.7870 -0.8542  1.5203
 5549TIP3    H238207   3.790   6.099   1.472 -1.2048  1.1662  1.0252
 5550TIP3   OH238208   0.998   3.076   8.088  0.3906  0.6486  0.1476
 5550TIP3    H138209   0.924   3.031   8.048 -0.0846  0.0928  1.5861
 5550TIP3    H238210   1.031   3.134   8.019 -0.6540  0.0608 -0.8824
 5551TIP3   OH238211   3.618   2.344   0.355  0.2271  0.5038  0.3784
 5551TIP3    H138212   3.647   2.304   0.273  0.5832 -0.9260  1.1494
 5551TIP3    H238213   3.523   2.334   0.355  0.3026 -0.3632  0.5277
 5552TIP3   OH238214   6.019   3.748   7.132 -0.4732  0.7350 -0.5022
 5552TIP3    H138215   6.018   3.766   7.038  0.5078  1.6687 -0.3506
 5552TIP3    H238216   5.987   3.829   7.172 -2.3545 -0.1596 -0.0674
 5553TIP3   OH238217   2.161   2.125   1.131 -0.7450 -0.1677  0.5282
 5553TIP3    H138218   2.183   2.210   1.168  1.6843 -0.3518 -0.3200
 5553TIP3    H238219   2.198   2.062   1.194  0.6149 -0.5125 -0.5760
 5554TIP3   OH238220   5.098   6.231   6.213  0.5622  0.1272  0.2634
 5554TIP3    H138221   5.184   6.189   6.208  0.8461  0.7710 -0.3847
 5554TIP3    H238222   5.080   6.236   6.307  1.1478 -0.1706  0.4019
 5555TIP3   OH238223   5.952   0.490   0.901  0.1341  0.2997 -0.0377
 5555TIP3    H138224   5.985   0.560   0.844 -1.3156 -0.3108 -1.7243
 5555TIP3    H238225   5.911   0.428   0.841  0.4527 -1.4956  1.5164
 5556TIP3   OH238226   3.876   1.187   7.195  0.1079 -0.6616 -0.3014
 5556TIP3    H138227   3.784   1.205   7.175 -0.1447 -2.5187 -1.0046
 5556TIP3    H238228   3.873   1.133   7.274  0.6079 -0.5432 -0.2026
 5557TIP3   OH238229   1.139   5.921   0.871  0.2887  0.6323 -0.1232
 5557TIP3    H138230   1.215   5.863   0.880 -1.0418 -1.1750  0.0067
 5557TIP3    H238231   1.067   5.874   0.914 -0.8635  2.4117  0.0174
 5558TIP3   OH238232   2.513   6.604   7.665 -0.3060 -0.8192  0.2901
 5558TIP3    H138233   2.601   6.632   7.691  0.3629 -1.0126 -1.6491
 5558TIP3    H238234   2.500   6.643   7.579 -1.4324 -2.1866 -0.1914
 5559TIP3   OH238235   4.673   2.316   0.632 -0.4968  0.4584 -0.1840
 5559TIP3    H138236   4.746   2.278   0.679 -0.4762 -1.0041 -1.3236
 5559TIP3    H238237   4.634   2.378   0.693  1.0166  0.4507  0.8258
 5560TIP3   OH238238   0.712   1.400   8.435  0.5706 -0.0923 -0.2362
 5560TIP3    H138239   0.733   1.459   8.508  1.8070 -0.4466 -0.2844
 5560TIP3    H238240   0.634   1.438   8.395  0.8940  1.0807  0.2126
 5561TIP3   OH238241   6.418   0.938   7.057  0.6474 -0.3030 -0.7761
 5561TIP3    H138242   6.324   0.944   7.037  0.7509  1.3501 -0.8753
 5561TIP3    H238243   6.430   0.848   7.087 -1.5376  0.2008  2.0414
 5562TIP3   OH238244   6.624   1.290   7.307 -0.8380  0.1295  0.2690
 5562TIP3    H138245   6.629   1.195   7.318  2.8639  0.1027 -0.1988
 5562TIP3    H238246   6.598   1.303   7.216  0.2982 -0.5278 -0.1683
 5563TIP3   OH238247   4.863   2.042   7.836 -0.1026  0.3746 -0.0255
 5563TIP3    H138248   4.952   2.049   7.872  0.4820 -0.3628 -1.2568
 5563TIP3    H238249   4.838   1.951   7.853  0.0930  0.0781 -1.2359
 5564TIP3   OH238250   1.839   0.316   7.375 -0.4201 -0.0091  0.1352
 5564TIP3    H138251   1.825   0.222   7.377  0.7928 -0.3953  5.2987
 5564TIP3    H238252   1.928   0.327   7.341 -0.8890 -0.5835 -1.3328
 5565TIP3   OH238253   0.943   3.000   2.376 -0.2772 -1.1169  0.0682
 5565TIP3    H138254   0.873   2.966   2.432 -1.5434 -0.0317 -0.8027
 5565TIP3    H238255   0.918   3.090   2.357  0.7935 -1.0423 -1.1863
 5566TIP3   OH238256   2.821   5.268   8.527 -0.2885 -0.1083  0.5950
 5566TIP3    H138257   2.849   5.177   8.536 -1.1995 -0.4593  0.0044
 5566TIP3    H238258   2.901   5.317   8.509  0.2763 -0.7129  1.3865
 5567TIP3   OH238259   0.581   5.537   7.575 -0.3394 -0.9460 -0.5475
 5567TIP3    H138260   0.577   5.621   7.620  1.8343 -0.0008 -1.9561
 5567TIP3    H238261   0.662   5.497   7.605 -0.8502 -2.1144 -0.6652
 5568TIP3   OH238262   1.753   1.517   8.164 -0.3715  0.3459 -0.0447
 5568TIP3    H138263   1.705   1.597   8.186  1.2814  0.9542  1.6135
 5568TIP3    H238264   1.753   1.465   8.244  1.7043  0.4044  0.0531
 5569TIP3   OH238265   3.605   0.607   7.416 -0.5271  0.3481 -0.3440
 5569TIP3    H138266   3.555   0.670   7.364 -0.6646 -1.5411 -2.6532
 5569TIP3    H238267   3.549   0.530   7.422  0.2982 -0.1847  0.9582
 5570TIP3   OH238268   2.209   5.076   6.285 -0.2411  0.0645  0.5860
 5570TIP3    H138269   2.187   5.063   6.193  0.0716  1.8234  0.2314
 5570TIP3    H238270   2.181   4.995   6.328  1.1992 -1.5168 -1.2930
 5571TIP3   OH238271   2.026   5.890   8.494  0.2361 -0.4197  0.3111
 5571TIP3    H138272   2.032   5.916   8.586  0.8079  1.0889 -0.1160
 5571TIP3    H238273   2.011   5.972   8.447 -1.3434 -1.3038 -0.8493
 5572TIP3   OH238274   3.579   2.957   1.524  0.2811 -0.5566  0.0080
 5572TIP3    H138275   3.591   2.883   1.584  0.8249  0.9522  1.8458
 5572TIP3    H238276   3.492   2.992   1.547  1.7496  1.9792  2.3146
 5573TIP3   OH238277   5.325   5.230   6.703  0.4205 -0.4282 -0.0658
 5573TIP3    H138278   5.343   5.137   6.685 -0.1712 -0.0167 -3.2625
 5573TIP3    H238279   5.375   5.277   6.637  0.5812  1.6035  1.4004
 5574TIP3   OH238280   2.911   3.238   8.413 -0.2748  0.3100  0.0397
 5574TIP3    H138281   2.973   3.229   8.486  0.9172 -1.5263 -1.1280
 5574TIP3    H238282   2.826   3.248   8.455  0.5334  0.7118  1.6727
 5575TIP3   OH238283   0.638   5.017   7.236  0.3963  0.8028 -0.7521
 5575TIP3    H138284   0.639   5.103   7.278 -0.2234  0.9703 -1.0635
 5575TIP3    H238285   0.616   5.035   7.145 -2.5696  0.1274 -0.2753
 5576TIP3   OH238286   0.954   2.544   7.692 -0.2769  0.1126 -0.4528
 5576TIP3    H138287   0.872   2.557   7.646 -0.6833 -1.9774 -0.4136
 5576TIP3    H238288   0.929   2.511   7.779  0.4870  3.4806  1.2338
 5577TIP3   OH238289   0.491   3.675   0.445  0.3713 -0.1722  0.2415
 5577TIP3    H138290   0.520   3.677   0.537 -2.4568 -0.9633  1.2287
 5577TIP3    H238291   0.541   3.603   0.406 -1.3081 -2.6161  2.3121
 5578TIP3   OH238292   5.818   4.789   1.377  0.6795  0.1919  0.5310
 5578TIP3    H138293   5.730   4.827   1.378  0.2935 -0.6721  2.0267
 5578TIP3    H238294   5.820   4.731   1.453  1.5666 -2.0869 -1.1160
 5579TIP3   OH238295   6.667   1.255   8.438 -0.4066  0.5900  0.6938
 5579TIP3    H138296   6.651   1.295   8.523  0.0002 -1.0118  1.5663
 5579TIP3    H238297   6.747   1.203   8.450 -0.0257  0.7758 -0.8294
 5580TIP3   OH238298   6.475   2.432   6.567  0.3451  0.0143  0.4030
 5580TIP3    H138299   6.449   2.443   6.659 -1.3264  1.0533 -0.1474
 5580TIP3    H238300   6.416   2.364   6.534 -0.8245  1.4094 -0.5095
 5581TIP3   OH238301   6.369   1.595   1.578 -0.1505 -0.0385  1.0768
 5581TIP3    H138302   6.339   1.608   1.668 -1.2672  0.7751  0.6058
 5581TIP3    H238303   6.374   1.683   1.541  1.0435 -0.3010  0.5640
 5582TIP3   OH238304   0.338   6.689   8.548  0.2181  0.7405 -0.7699
 5582TIP3    H138305   0.327   6.615   8.609  0.1630 -0.1996 -1.8788
 5582TIP3    H238306   0.301   6.657   8.465  2.0170  1.2613 -1.8233
 5583TIP3   OH238307   2.215   1.153   0.940 -0.0891 -0.0351  0.3480
 5583TIP3    H138308   2.240   1.061   0.932 -0.3083  0.0227 -1.4425
 5583TIP3    H238309   2.171   1.159   1.025  0.7411 -1.3690  0.9043
 5584TIP3   OH238310   6.675   0.530   0.201  0.4891 -0.0075 -0.2633
 5584TIP3    H138311   6.584   0.500   0.194  0.2603  0.2218  1.2225
 5584TIP3    H238312   6.719   0.491   0.126 -0.8429 -0.0977 -1.0290
 5585TIP3   OH238313   3.422   5.540   1.313 -0.0896  0.6854 -0.0002
 5585TIP3    H138314   3.346   5.532   1.372  0.2509  2.0313  0.6635
 5585TIP3    H238315   3.498   5.526   1.370  0.1951  0.3714 -0.4553
 5586TIP3   OH238316   5.810   3.218   0.922  0.0995 -0.0779 -0.0555
 5586TIP3    H138317   5.769   3.132   0.912 -1.9080  0.9554 -1.5117
 5586TIP3    H238318   5.770   3.271   0.853  2.8107  1.4944 -0.5481
 5587TIP3   OH238319   0.496   6.150   0.311 -0.1672  0.3882 -0.0407
 5587TIP3    H138320   0.468   6.128   0.399  1.7926 -0.7968  0.3596
 5587TIP3    H238321   0.533   6.239   0.319 -2.1454  1.2708 -0.2311
 5588TIP3   OH238322   1.805   4.126   7.962 -0.1166  0.0078 -0.1089
 5588TIP3    H138323   1.827   4.218   7.974 -0.2589 -0.1500  1.6313
 5588TIP3    H238324   1.820   4.109   7.869 -1.7364  2.2198 -0.8532
 5589TIP3   OH238325   6.221   4.589   8.402 -0.3114 -0.0533 -0.0417
 5589TIP3    H138326   6.194   4.582   8.493  1.3144  1.9540  0.6654
 5589TIP3    H238327   6.148   4.632   8.358 -0.4143  0.5047  0.6709
 5590TIP3   OH238328   2.107   3.599   0.019  0.7166 -0.0290  0.9295
 5590TIP3    H138329   2.070   3.572   0.103  1.3178  1.7920  1.8321
 5590TIP3    H238330   2.139   3.518  -0.021 -0.2762 -1.0292  2.0957
 5591TIP3   OH238331   1.915   6.207   8.555 -0.0068  0.3008  0.0698
 5591TIP3    H138332   1.993   6.187   8.607  0.5390  0.4198 -0.7054
 5591TIP3    H238333   1.842   6.181   8.612  0.5948  0.0548  0.7416
 5592TIP3   OH238334   3.620   3.056   8.428  0.0304 -0.0342 -0.4425
 5592TIP3    H138335   3.668   3.106   8.362  0.5212 -0.0744 -0.1210
 5592TIP3    H238336   3.656   2.968   8.422 -0.8538 -0.3751 -1.0311
 5593TIP3   OH238337   5.190   4.598   0.595  0.0924  0.1495 -0.0514
 5593TIP3    H138338   5.169   4.535   0.664  0.0989  0.7038  0.4662
 5593TIP3    H238339   5.107   4.617   0.553  0.4122 -2.1065 -1.9085
 5594TIP3   OH238340   2.107   2.113   8.110  0.2864  0.2610 -0.4638
 5594TIP3    H138341   2.034   2.073   8.062 -2.2313  0.7482  2.5953
 5594TIP3    H238342   2.072   2.198   8.139  0.9720 -0.5609  3.3141
 5595TIP3   OH238343   1.300   0.343   7.520  0.5765 -0.1422  1.2068
 5595TIP3    H138344   1.335   0.342   7.610  0.7943  0.6436  1.1394
 5595TIP3    H238345   1.218   0.295   7.526 -0.7003  2.0558  2.3948
 5596TIP3   OH238346   3.148   3.060   6.545  0.0950  0.4754 -0.4667
 5596TIP3    H138347   3.085   3.048   6.474  0.8966 -0.7549 -0.9917
 5596TIP3    H238348   3.107   3.124   6.603 -2.6821 -1.8216  0.3566
 5597TIP3   OH238349   4.574   0.744   2.339 -0.2815 -0.3055  0.0009
 5597TIP3    H138350   4.511   0.806   2.301 -2.6114 -1.1272  2.1840
 5597TIP3    H238351   4.643   0.736   2.274 -1.8263  1.6335 -2.0221
 5598TIP3   OH238352   3.933   0.939   6.297 -0.0599  0.6904 -0.3154
 5598TIP3    H138353   3.859   0.879   6.296  0.6102 -0.1454 -0.2920
 5598TIP3    H238354   3.978   0.924   6.214  1.1877 -0.2157  0.4959
 5599TIP3   OH238355   4.070   2.607   8.558  0.0466 -0.4301  1.0203
 5599TIP3    H138356   3.981   2.629   8.586  0.6786  0.4358  2.4844
 5599TIP3    H238357   4.085   2.660   8.480 -0.7277 -0.6139  0.7407
 5600TIP3   OH238358   4.320   1.407   2.181 -0.4565 -0.3727 -0.1138
 5600TIP3    H138359   4.275   1.352   2.116  0.9613 -0.3467 -1.1718
 5600TIP3    H238360   4.395   1.354   2.209 -0.9077 -0.2748  1.3372
 5601TIP3   OH238361   5.738   3.771   1.249 -0.0083 -0.5325 -0.2319
 5601TIP3    H138362   5.701   3.805   1.167  0.4528 -0.7920 -0.5490
 5601TIP3    H238363   5.806   3.834   1.273  1.0765 -1.3759 -0.9959
 5602TIP3   OH238364   5.069   3.326   8.579 -0.1694  0.0621  0.1031
 5602TIP3    H138365   5.068   3.411   8.536 -1.6034  0.4765  0.8779
 5602TIP3    H238366   4.998   3.277   8.538 -0.7559  0.0316  1.1052
 5603TIP3   OH238367   5.062   5.284   8.324  0.0210 -0.4501 -0.4017
 5603TIP3    H138368   4.997   5.244   8.266 -1.0269 -0.6232  0.8526
 5603TIP3    H238369   5.015   5.298   8.407  1.4037  0.0256  0.3273
 5604TIP3   OH238370   2.399   6.301   8.545  0.2899 -0.6036  0.2117
 5604TIP3    H138371   2.491   6.287   8.567 -0.1569  0.4227  3.1764
 5604TIP3    H238372   2.388   6.396   8.544 -0.3659 -0.6484 -2.1451
 5605TIP3   OH238373   0.500   0.531   0.353  0.3321  0.9229 -0.6309
 5605TIP3    H138374   0.569   0.595   0.333  2.1411 -0.3281  1.1361
 5605TIP3    H238375   0.548   0.449   0.368 -1.7395 -0.4191 -0.9865
 5606TIP3   OH238376   5.748   2.929   7.858  0.1286 -0.1339  0.1040
 5606TIP3    H138377   5.811   3.000   7.872 -0.7110  0.9129 -1.0958
 5606TIP3    H238378   5.686   2.938   7.931  1.2069 -1.0301  1.1637
 5607TIP3   OH238379   3.551   5.052   8.565  0.4361  0.2460  0.9575
 5607TIP3    H138380   3.458   5.028   8.568  0.5459 -0.1290  1.6750
 5607TIP3    H238381   3.560   5.122   8.628  0.3986  1.2290 -0.0960
 5608TIP3   OH238382   6.317   0.441   6.774 -0.2274  0.1552 -0.3187
 5608TIP3    H138383   6.346   0.394   6.853 -1.2760  0.8280  0.5020
 5608TIP3    H238384   6.281   0.372   6.718  1.3858 -0.4635 -0.6529
 5609TIP3   OH238385   2.777   3.975   6.373  0.4948 -0.4928 -0.0841
 5609TIP3    H138386   2.809   4.012   6.455 -0.0938 -1.3839  0.5765
 5609TIP3    H238387   2.831   4.015   6.305  2.2267 -1.1034  0.8765
 5610TIP3   OH238388   1.704   0.055   1.799 -0.3255  0.0342 -0.1381
 5610TIP3    H138389   1.673   0.080   1.885 -1.0861 -1.1615 -0.0348
 5610TIP3    H238390   1.772  -0.010   1.816 -1.0262 -0.7942 -0.4343
 5611TIP3   OH238391   6.712   4.092   6.306  0.0653  0.0071 -0.3805
 5611TIP3    H138392   6.621   4.073   6.328 -0.0112  0.0808 -0.6282
 5611TIP3    H238393   6.755   4.104   6.390  0.1423 -1.4101 -0.1869
 5612TIP3   OH238394   3.726   4.809   8.165 -1.1276 -0.1910  0.0661
 5612TIP3    H138395   3.736   4.902   8.147 -1.2475 -0.0389  0.7291
 5612TIP3    H238396   3.678   4.774   8.090  1.0289 -0.2053 -1.3760
 5613TIP3   OH238397   3.391   2.369   7.455 -0.1727  0.2134 -0.6433
 5613TIP3    H138398   3.415   2.414   7.537 -0.9708 -2.9907  1.5589
 5613TIP3    H238399   3.473   2.331   7.424 -0.1281  0.1113 -0.4079
 5614TIP3   OH238400   1.862   3.894   0.685 -0.3660 -0.1980  0.1164
 5614TIP3    H138401   1.848   3.965   0.623  1.4769  0.0420 -0.0669
 5614TIP3    H238402   1.918   3.932   0.753  0.0119 -1.2586  0.4134
 5615TIP3   OH238403   2.131   4.043   1.434 -0.3248  0.2456 -0.1220
 5615TIP3    H138404   2.188   4.003   1.500  1.2257  2.5345  0.0631
 5615TIP3    H238405   2.143   3.990   1.356  0.5805 -0.4448  0.4638
 5616TIP3   OH238406   0.887   4.442   0.595 -0.0574 -0.6097  0.0204
 5616TIP3    H138407   0.899   4.463   0.503 -0.5591 -0.0368  0.0756
 5616TIP3    H238408   0.918   4.352   0.604 -1.4420 -1.2287 -1.0363
 5617TIP3   OH238409   2.509   6.573   8.179 -0.5988 -0.0062 -0.5104
 5617TIP3    H138410   2.490   6.628   8.104 -0.7366  0.3316 -0.2307
 5617TIP3    H238411   2.547   6.494   8.142  0.0542  0.4768 -0.8790
 5618TIP3   OH238412   6.821   2.818   8.197 -0.3282 -0.1360  0.0065
 5618TIP3    H138413   6.806   2.748   8.261  2.3664  0.1068  1.0620
 5618TIP3    H238414   6.877   2.881   8.243  0.7880  0.6348 -2.2467
 5619TIP3   OH238415   1.330   5.272   0.239 -0.0882  0.2506 -0.1069
 5619TIP3    H138416   1.312   5.324   0.317 -1.9069 -1.3750  0.6559
 5619TIP3    H238417   1.399   5.210   0.267 -1.7663 -1.3234  0.7786
 5620TIP3   OH238418   2.480   0.792   7.701 -0.0287  0.0377 -0.2308
 5620TIP3    H138419   2.469   0.709   7.747  0.6667 -0.6761 -1.3088
 5620TIP3    H238420   2.411   0.791   7.634  0.3433  0.0581 -0.6174
 5621TIP3   OH238421   2.307   3.665   1.244  0.2445  0.2198 -0.6541
 5621TIP3    H138422   2.314   3.681   1.150  1.4161  2.2069 -0.2903
 5621TIP3    H238423   2.294   3.752   1.282 -0.9640 -0.6232  0.9865
 5622TIP3   OH238424   2.043   6.206   1.799 -0.6677  0.5016  0.5434
 5622TIP3    H138425   2.014   6.123   1.761 -0.3479  1.0722 -1.0386
 5622TIP3    H238426   2.138   6.199   1.802 -0.7063  0.3478  1.5529
 5623TIP3   OH238427   2.544   2.830   1.337 -0.2589 -0.4770  0.3799
 5623TIP3    H138428   2.621   2.887   1.336 -0.4443 -0.2195 -1.2326
 5623TIP3    H238429   2.470   2.890   1.337 -0.4576 -0.6873 -1.5956
 5624TIP3   OH238430   2.338   1.650   6.302  0.1463 -0.3566  0.2125
 5624TIP3    H138431   2.427   1.649   6.268  0.2016 -0.1807  0.3516
 5624TIP3    H238432   2.291   1.711   6.246  0.1465 -0.3475  0.2221
 5625TIP3   OH238433   1.629   0.998   7.467 -0.3109 -0.3915 -0.0278
 5625TIP3    H138434   1.569   1.062   7.507  0.1846 -1.2084  2.1605
 5625TIP3    H238435   1.625   0.922   7.525  3.0654 -0.3602  0.4169
 5626TIP3   OH238436   1.651   5.914   0.728 -0.1690  0.2889 -0.0034
 5626TIP3    H138437   1.703   5.857   0.785  2.1864  1.5265 -0.7697
 5626TIP3    H238438   1.568   5.867   0.716  0.7731 -1.8487  1.2352
 5627TIP3   OH238439   1.130   6.326   8.472  1.0091 -0.1810 -0.6238
 5627TIP3    H138440   1.160   6.357   8.387  0.1995  1.7911 -0.2327
 5627TIP3    H238441   1.180   6.377   8.535 -0.1969  0.1931  0.0583
 5628TIP3   OH238442   3.176   3.934   1.402  0.0218  0.2204  0.0443
 5628TIP3    H138443   3.138   4.008   1.450  0.1599 -0.8785  1.9147
 5628TIP3    H238444   3.260   3.918   1.445 -0.3907 -1.5688  0.2468
 5629TIP3   OH238445   6.075   6.670   7.403 -0.0327  0.3352 -0.4948
 5629TIP3    H138446   6.021   6.590   7.408 -0.1820  0.4885  2.1413
 5629TIP3    H238447   6.025   6.729   7.348 -1.4738 -0.3439  0.0206
 5630TIP3   OH238448   0.607   0.814   6.443  0.4012  0.1877  0.0569
 5630TIP3    H138449   0.621   0.719   6.447 -0.4908  0.0607  0.5475
 5630TIP3    H238450   0.656   0.842   6.367  1.0489 -0.6039  0.1592
 5631TIP3   OH238451   3.123   5.923   7.990 -0.0379  0.4317  0.3137
 5631TIP3    H138452   3.041   5.957   8.026 -0.0853  0.1461  0.4786
 5631TIP3    H238453   3.113   5.828   7.993 -0.5622  0.3818 -1.6195
 5632TIP3   OH238454   6.780   4.462   1.352  0.0423  0.2741 -0.2279
 5632TIP3    H138455   6.698   4.456   1.305 -0.5914  1.4004  0.6762
 5632TIP3    H238456   6.754   4.471   1.444  1.0952  2.3132 -0.0800
 5633TIP3   OH238457   2.290   3.336   6.213  0.0985 -0.0317  0.6109
 5633TIP3    H138458   2.233   3.394   6.162  1.0984  0.5426  0.1090
 5633TIP3    H238459   2.330   3.394   6.278 -0.1539 -0.5039  1.1938
 5634TIP3   OH238460   5.553   0.511   8.473  0.1976  0.2790 -0.3514
 5634TIP3    H138461   5.573   0.459   8.395  0.5795 -1.4225  0.8157
 5634TIP3    H238462   5.485   0.461   8.518  1.0939  0.3707  1.1907
 5635TIP3   OH238463   6.074   6.051   1.797 -0.0438 -0.5008  0.2531
 5635TIP3    H138464   6.147   6.025   1.741 -0.3922  0.2880 -0.5988
 5635TIP3    H238465   6.022   5.971   1.806  0.7252 -0.9746  0.5640
 5636TIP3   OH238466   5.056   3.414   1.721 -0.0148 -0.1066 -0.4596
 5636TIP3    H138467   5.100   3.417   1.637 -0.0048 -0.3936 -0.4639
 5636TIP3    H238468   5.082   3.330   1.760  0.9485  0.5391  0.3515
 5637TIP3   OH238469   2.061   0.633   6.863  0.2229  0.3206  0.0095
 5637TIP3    H138470   2.122   0.690   6.817  0.6875 -0.3563 -0.2195
 5637TIP3    H238471   1.984   0.688   6.877  0.9112  1.2211  0.4019
 5638TIP3   OH238472   5.809   1.045   8.145 -0.3998  0.5233 -0.1871
 5638TIP3    H138473   5.793   1.139   8.131 -0.3399  0.7347  1.0060
 5638TIP3    H238474   5.781   1.030   8.236  0.8231 -0.3243  0.0735
 5639TIP3   OH238475   4.557   4.137   1.158 -0.3652  0.5199  0.5257
 5639TIP3    H138476   4.589   4.047   1.143 -1.5361  0.1020  0.4084
 5639TIP3    H238477   4.550   4.144   1.253 -0.9402  0.2363  0.5076
 5640TIP3   OH238478   5.779   5.397   8.176  0.0510  0.2351 -0.6669
 5640TIP3    H138479   5.705   5.336   8.177  2.1225 -2.4899 -0.9987
 5640TIP3    H238480   5.790   5.420   8.084  0.2572 -0.2696 -0.7749
 5641TIP3   OH238481   4.777   5.306   7.458 -0.0261  0.1994  0.2899
 5641TIP3    H138482   4.683   5.300   7.440  0.0149  1.3414 -0.4241
 5641TIP3    H238483   4.808   5.374   7.398  1.3136 -0.3646  0.3128
 5642TIP3   OH238484   4.544   5.264   0.206  0.6789 -0.2961 -0.3482
 5642TIP3    H138485   4.537   5.220   0.121 -1.1699  1.0524 -0.9440
 5642TIP3    H238486   4.538   5.194   0.270  1.0297 -1.2254 -1.3026
 5643TIP3   OH238487   1.829   3.211   8.210 -0.3942  0.8691 -0.1905
 5643TIP3    H138488   1.862   3.301   8.209  0.1705  0.7078 -2.9853
 5643TIP3    H238489   1.737   3.219   8.234 -0.3419  2.1793 -0.3645
 5644TIP3   OH238490   5.145   0.026   6.102 -1.0887  0.4597 -0.7143
 5644TIP3    H138491   5.212   0.093   6.114 -1.7603  1.5863 -2.7285
 5644TIP3    H238492   5.161  -0.008   6.013 -0.1321 -2.8506  0.5652
 5645TIP3   OH238493   3.006   6.094   6.890 -0.0111 -0.5686 -0.5559
 5645TIP3    H138494   2.992   6.178   6.933  0.2131 -0.7013 -0.2203
 5645TIP3    H238495   3.094   6.099   6.852  0.3767 -0.9833  0.2567
 5646TIP3   OH238496   1.322   0.782   7.823 -0.0748  0.0242  0.0084
 5646TIP3    H138497   1.377   0.861   7.817 -1.9545  1.2762 -2.2934
 5646TIP3    H238498   1.385   0.710   7.833  1.7771  1.6499  0.7622
 5647TIP3   OH238499   6.510   6.219   8.170 -0.0300  0.6379  0.3749
 5647TIP3    H138500   6.499   6.188   8.081 -1.9819  0.1928  0.7126
 5647TIP3    H238501   6.483   6.311   8.167  1.0374  0.9670  0.3131
 5648TIP3   OH238502   2.092   5.571   0.355  0.3946  0.2962  0.3061
 5648TIP3    H138503   2.182   5.548   0.329  0.6513 -0.1541  1.5485
 5648TIP3    H238504   2.054   5.489   0.386 -0.4594  0.4863 -0.2016
 5649TIP3   OH238505   2.597   4.999   6.680 -0.1758  0.3839  0.2410
 5649TIP3    H138506   2.690   5.008   6.661  0.3292 -0.5464  2.0781
 5649TIP3    H238507   2.558   4.970   6.597  1.0529  1.3418 -0.7046
 5650TIP3   OH238508   5.007   3.719   1.312  0.7632  0.6383 -0.0009
 5650TIP3    H138509   4.979   3.629   1.297 -1.0101  1.2393 -0.5427
 5650TIP3    H238510   5.058   3.742   1.234 -1.2030  0.9691 -1.2872
 5651TIP3   OH238511   2.125   5.747   1.021 -0.4829  0.4316 -0.5858
 5651TIP3    H138512   2.201   5.789   1.060 -0.4877 -0.6808  0.6952
 5651TIP3    H238513   2.053   5.810   1.035 -0.7291 -0.3545  2.2812
 5652TIP3   OH238514   3.719   1.842   8.462 -0.4742  0.2702  0.1509
 5652TIP3    H138515   3.690   1.799   8.542 -1.5626  1.1597  0.2604
 5652TIP3    H238516   3.642   1.843   8.406 -0.2027  1.1816 -0.2279
 5653TIP3   OH238517   3.519   0.325   7.403 -0.2031  0.1426  0.5769
 5653TIP3    H138518   3.443   0.316   7.460  0.2187  1.8685  1.5094
 5653TIP3    H238519   3.502   0.268   7.329 -2.2591  0.2539  0.9198
 5654TIP3   OH238520   4.640   3.470   7.367 -0.5385 -0.7101  0.0649
 5654TIP3    H138521   4.681   3.549   7.332  0.5993  0.3084  3.2934
 5654TIP3    H238522   4.553   3.468   7.327 -0.5153  2.0781 -0.3128
 5655TIP3   OH238523   3.979   2.856   0.432  0.4160  0.3496  0.0611
 5655TIP3    H138524   3.977   2.803   0.353 -0.8166  0.0281  0.2790
 5655TIP3    H238525   4.028   2.934   0.408  1.1229 -0.3004 -0.6432
 5656TIP3   OH238526   4.510   4.873   7.184  0.0145  0.1800 -0.3267
 5656TIP3    H138527   4.587   4.920   7.218  0.0465 -0.1450  0.0649
 5656TIP3    H238528   4.468   4.935   7.125  0.0629  0.7029  0.1760
 5657TIP3   OH238529   3.563   6.508   0.777  0.1041 -0.2960  0.5643
 5657TIP3    H138530   3.590   6.584   0.828  2.2589 -0.9050  0.4184
 5657TIP3    H238531   3.467   6.509   0.782  0.1636  0.6812  3.0938
 5658TIP3   OH238532   0.022   5.644   1.365  0.6603 -0.3491  0.4123
 5658TIP3    H138533   0.008   5.737   1.380 -0.1075 -0.3823 -0.0314
 5658TIP3    H238534   0.111   5.638   1.329  0.8320  0.1712  0.7516
 5659TIP3   OH238535   4.932   6.223   7.511 -0.5529 -0.5614  0.1745
 5659TIP3    H138536   4.904   6.185   7.428  2.3728 -0.5155 -0.9661
 5659TIP3    H238537   5.017   6.262   7.491 -0.2814  0.4586  2.9571
 5660TIP3   OH238538   0.665   0.839   7.081  0.0680 -0.1418  0.7076
 5660TIP3    H138539   0.701   0.919   7.044 -0.1070 -0.0571  0.7202
 5660TIP3    H238540   0.656   0.858   7.175 -0.4226 -0.0059  0.6377
 5661TIP3   OH238541   1.448   3.867   2.266 -0.3484 -0.4253  0.0543
 5661TIP3    H138542   1.381   3.936   2.260  0.6440  0.4309 -3.7651
 5661TIP3    H238543   1.481   3.874   2.355 -0.5992  3.8314  0.0111
 5662TIP3   OH238544   2.125   2.374   1.567 -0.1000  0.8928 -0.0918
 5662TIP3    H138545   2.088   2.321   1.637 -0.9082  0.8994 -0.4897
 5662TIP3    H238546   2.075   2.456   1.571  1.0183  1.5618  0.4118
 5663TIP3   OH238547   2.675   3.909   1.301 -0.5513  0.4158 -0.2597
 5663TIP3    H138548   2.770   3.912   1.286 -0.3818  0.0779  0.6382
 5663TIP3    H238549   2.649   3.823   1.269 -0.1537 -0.3916  1.4205
 5664TIP3   OH238550   5.335   3.746   2.023 -0.2517  0.0875 -0.1738
 5664TIP3    H138551   5.267   3.730   1.957  1.1175 -2.4563 -1.1314
 5664TIP3    H238552   5.303   3.700   2.101 -0.4254  0.3735 -0.0773
 5665TIP3   OH238553   6.048   1.593   1.118  0.0153  0.1645  0.2626
 5665TIP3    H138554   5.966   1.550   1.095 -1.1881  1.0883  2.4917
 5665TIP3    H238555   6.081   1.542   1.193  1.8274 -0.5384 -0.9413
 5666TIP3   OH238556   0.874   5.607   0.007 -0.5168 -0.3212  0.1978
 5666TIP3    H138557   0.946   5.546  -0.009  0.3404  0.2431  1.7002
 5666TIP3    H238558   0.806   5.554   0.049  0.6068 -0.1257  2.4103
 5667TIP3   OH238559   3.462   3.068   7.236 -0.2087 -0.3243 -0.0953
 5667TIP3    H138560   3.516   3.117   7.297  0.0238 -0.3196 -0.3059
 5667TIP3    H238561   3.376   3.109   7.242  0.0123  0.1795 -0.3547
 5668TIP3   OH238562   2.499   5.403   6.831  0.1020 -0.3330 -0.0048
 5668TIP3    H138563   2.454   5.324   6.802  1.0673 -0.0587 -2.5102
 5668TIP3    H238564   2.553   5.375   6.904  0.2374 -1.9515 -0.6956
 5669TIP3   OH238565   1.876   0.940   0.630 -0.1185 -0.0883 -0.3035
 5669TIP3    H138566   1.920   0.969   0.550  0.2014 -0.8462 -0.4181
 5669TIP3    H238567   1.816   0.872   0.601 -0.8767  0.4610 -0.0500
 5670TIP3   OH238568   3.702   4.544   1.908  0.3459  0.4345 -0.5276
 5670TIP3    H138569   3.764   4.578   1.973  1.7920 -0.1943 -1.5448
 5670TIP3    H238570   3.681   4.619   1.854  1.1425  0.4085 -0.8872
 5671TIP3   OH238571   4.129   1.236   2.068  0.0999 -0.1412 -0.4321
 5671TIP3    H138572   4.119   1.161   2.010  0.8953 -0.0365 -0.7114
 5671TIP3    H238573   4.044   1.281   2.063 -0.5847 -1.3316  0.2051
 5672TIP3   OH238574   1.432   4.661   2.116 -0.3699  0.2681  0.3177
 5672TIP3    H138575   1.480   4.740   2.140  0.3971  0.5691 -2.0064
 5672TIP3    H238576   1.497   4.590   2.123 -0.8104 -0.0541  1.4716
 5673TIP3   OH238577   4.575   0.147   0.788 -0.0523  0.3363  0.4671
 5673TIP3    H138578   4.568   0.161   0.694  0.7689 -1.7280  0.0248
 5673TIP3    H238579   4.565   0.052   0.799 -0.1095  0.5221  2.4610
 5674TIP3   OH238580   3.017   5.702   0.054  0.5795 -0.0534 -0.4470
 5674TIP3    H138581   3.045   5.626   0.105 -3.3756 -1.9939 -0.8070
 5674TIP3    H238582   3.034   5.677  -0.037  2.4183  1.0292 -0.4414
 5675TIP3   OH238583   3.345   4.532   6.891 -0.2639  0.3381  0.0635
 5675TIP3    H138584   3.329   4.504   6.981  1.1390  0.0861  0.2465
 5675TIP3    H238585   3.313   4.622   6.888  1.2738  0.9662  1.3281
 5676TIP3   OH238586   5.457   4.235   7.324  0.1002  0.0436 -0.8623
 5676TIP3    H138587   5.435   4.224   7.416 -0.0833 -0.5041 -0.9696
 5676TIP3    H238588   5.416   4.161   7.280  0.2242  0.2745 -1.3812
 5677TIP3   OH238589   3.768   5.763   6.622 -0.2078 -0.2891 -0.3551
 5677TIP3    H138590   3.752   5.819   6.698  0.6296 -0.7526  0.1717
 5677TIP3    H238591   3.748   5.818   6.546  1.3373  0.9814  0.1191
 5678TIP3   OH238592   2.126   3.584   7.056  0.3438  0.0743  0.3889
 5678TIP3    H138593   2.085   3.587   7.142  0.4209  0.1828  0.4223
 5678TIP3    H238594   2.082   3.653   7.006 -2.8243 -2.6970 -1.0696
 5679TIP3   OH238595   0.671   0.701   7.864  0.3744 -0.0922  0.1291
 5679TIP3    H138596   0.651   0.612   7.835 -0.7828  0.1702  0.0905
 5679TIP3    H238597   0.711   0.689   7.950 -0.7732 -0.6130  0.6136
 5680TIP3   OH238598   6.354   5.893   0.510 -0.6496  0.4607 -0.2424
 5680TIP3    H138599   6.341   5.801   0.530 -1.0016  0.4044 -0.7109
 5680TIP3    H238600   6.266   5.926   0.490 -0.2318  0.2260 -2.8130
 5681TIP3   OH238601   5.051   6.868   6.693 -0.8858  0.1684  0.2612
 5681TIP3    H138602   5.051   6.830   6.605  0.7440 -1.4967  0.8971
 5681TIP3    H238603   5.035   6.793   6.750 -4.1591  1.5289  1.3932
 5682TIP3   OH238604   6.545   4.594   0.012  0.3510 -1.1081 -0.3311
 5682TIP3    H138605   6.551   4.515   0.064 -0.1833 -0.4062  0.8392
 5682TIP3    H238606   6.623   4.645   0.035  0.6920 -1.2761 -1.0736
 5683TIP3   OH238607   3.000   3.759   6.178 -0.2893 -0.3731 -0.1350
 5683TIP3    H138608   3.054   3.693   6.133 -0.4715 -0.4478 -0.2424
 5683TIP3    H238609   3.061   3.803   6.237 -0.2888 -1.0035  0.3298
 5684TIP3   OH238610   3.897   6.701   0.788 -0.0079  0.0081 -0.5222
 5684TIP3    H138611   3.936   6.614   0.774  0.0741  0.3981 -3.0480
 5684TIP3    H238612   3.819   6.701   0.733  0.9727  2.1549 -2.0152
 5685TIP3   OH238613   3.378   5.537   2.321 -0.7297  0.6639 -0.1617
 5685TIP3    H138614   3.327   5.465   2.358 -0.5323  1.2095  1.2331
 5685TIP3    H238615   3.466   5.524   2.357 -1.0094  2.3508  1.2251
 5686TIP3   OH238616   3.041   3.703   2.618  0.0777  0.3200  0.4509
 5686TIP3    H138617   2.983   3.643   2.571  0.1498 -0.1486  0.9528
 5686TIP3    H238618   3.120   3.707   2.564  0.9663 -1.7729  1.4593
 5687TIP3   OH238619   6.704   1.682   8.458  0.6087 -0.4950  0.4291
 5687TIP3    H138620   6.797   1.661   8.458  0.4957 -1.2878 -1.9651
 5687TIP3    H238621   6.680   1.685   8.366 -2.0497 -1.7801  0.9678
 5688TIP3   OH238622   5.537   6.624   0.229  0.2121  0.3688 -0.2368
 5688TIP3    H138623   5.514   6.701   0.177  0.9463  1.2401  0.6795
 5688TIP3    H238624   5.621   6.647   0.268  0.3596 -0.8502  0.1738
 5689TIP3   OH238625   1.460   4.750   1.467  0.6661  0.6690  0.1561
 5689TIP3    H138626   1.413   4.739   1.550 -0.8697 -0.1254 -0.7814
 5689TIP3    H238627   1.549   4.771   1.493 -0.0065  1.4321  2.0081
 5690TIP3   OH238628   0.565   6.059   8.579  0.6257 -0.3195 -0.0741
 5690TIP3    H138629   0.630   6.040   8.511 -1.1945  0.2735 -2.0772
 5690TIP3    H238630   0.572   5.984   8.639  1.8125 -1.2310 -1.2726
 5691TIP3   OH238631   1.350   0.033   7.695 -0.3432 -0.5223  0.0406
 5691TIP3    H138632   1.410   0.043   7.769 -0.3836 -1.1560  0.1653
 5691TIP3    H238633   1.407   0.033   7.618 -0.2935  0.0571  0.0798
 5692TIP3   OH238634   3.680   0.774   6.334 -0.8359 -0.2147  0.2525
 5692TIP3    H138635   3.600   0.827   6.343  0.6628  2.1216  0.5621
 5692TIP3    H238636   3.662   0.717   6.260 -2.6002  0.6264 -0.0343
 5693TIP3   OH238637   4.540   1.749   0.876 -0.0014 -0.3567 -0.3805
 5693TIP3    H138638   4.531   1.812   0.804  1.2309  0.5823  0.2259
 5693TIP3    H238639   4.617   1.780   0.924 -1.4095 -0.2905  1.9976
 5694TIP3   OH238640   0.822   4.820   7.359  0.7277  0.4091 -0.5672
 5694TIP3    H138641   0.798   4.899   7.312 -0.6235  0.5396  0.3048
 5694TIP3    H238642   0.815   4.750   7.293 -0.0248  0.7338 -0.8350
 5695TIP3   OH238643   1.965   4.937   0.923  0.1319  0.2406 -0.1279
 5695TIP3    H138644   1.968   5.014   0.979  0.6856  1.8248 -2.2117
 5695TIP3    H238645   2.018   4.960   0.847  0.2377 -2.1797 -0.8820
 5696TIP3   OH238646   0.109   5.990   6.715  0.1704 -0.1032  0.1250
 5696TIP3    H138647   0.137   6.061   6.773 -0.0958  1.3216 -1.4187
 5696TIP3    H238648   0.052   6.032   6.651  0.6933 -1.5296 -1.3535
 5697TIP3   OH238649   1.697   1.865   7.941 -0.2953 -0.0724 -0.8312
 5697TIP3    H138650   1.727   1.822   7.860 -0.1293 -0.6771 -0.4541
 5697TIP3    H238651   1.637   1.802   7.980  0.3213 -0.1735 -0.0224
 5698TIP3   OH238652   1.162   4.231   6.259  0.4823  0.0611 -0.1641
 5698TIP3    H138653   1.137   4.175   6.332  0.6505 -0.0364 -0.1809
 5698TIP3    H238654   1.127   4.188   6.181 -0.2976  0.5199 -0.0783
 5699TIP3   OH238655   0.706   2.918   0.727  0.1121  0.4965  0.3539
 5699TIP3    H138656   0.781   2.960   0.769  0.5576  1.1134 -0.9994
 5699TIP3    H238657   0.727   2.919   0.634 -1.2059 -0.0930  0.0261
 5700TIP3   OH238658   5.129   6.467   5.922 -0.2616  0.2932  0.0161
 5700TIP3    H138659   5.034   6.477   5.915 -0.1437  1.6726 -0.0126
 5700TIP3    H238660   5.150   6.391   5.868 -1.5360 -1.1961  1.5270
 5701TIP3   OH238661   1.413   6.797   6.959 -0.3211  0.1241  0.0752
 5701TIP3    H138662   1.494   6.747   6.959  0.6128  1.5861 -0.1859
 5701TIP3    H238663   1.368   6.770   6.879  0.8822  0.7755 -0.8581
 5702TIP3   OH238664   6.793   4.860   7.891 -0.1294 -0.4803 -0.3787
 5702TIP3    H138665   6.783   4.766   7.905 -1.4935 -0.3014  0.0078
 5702TIP3    H238666   6.788   4.898   7.978  0.3514 -0.0372 -0.5381
 5703TIP3   OH238667   4.005   2.504   0.647  0.0700 -0.0585 -0.3336
 5703TIP3    H138668   3.928   2.496   0.590 -0.1058  0.1205 -0.1227
 5703TIP3    H238669   3.970   2.501   0.736  0.2806  0.2866 -0.2361
 5704TIP3   OH238670   3.618   5.500   7.401 -0.3533 -0.0425  0.0039
 5704TIP3    H138671   3.654   5.563   7.463 -0.2170 -1.2871  1.2467
 5704TIP3    H238672   3.524   5.518   7.401 -0.3119  0.1824  0.3353
 5705TIP3   OH238673   4.672   0.968   0.843  0.2563 -0.4245  0.3511
 5705TIP3    H138674   4.735   1.027   0.802 -0.8474 -0.1653 -1.0933
 5705TIP3    H238675   4.725   0.901   0.885  1.5567 -1.3336 -2.4611
 5706TIP3   OH238676   1.295   3.170   1.690  0.7729  0.6413 -0.0605
 5706TIP3    H138677   1.390   3.154   1.694  0.9901  1.9703  0.5714
 5706TIP3    H238678   1.257   3.101   1.744  1.4673  0.6981  0.5190
 5707TIP3   OH238679   1.708   2.421   0.521  0.7939 -0.0301 -0.2622
 5707TIP3    H138680   1.765   2.398   0.595  0.9004  1.1418  0.0461
 5707TIP3    H238681   1.633   2.362   0.529  2.1775 -1.9887 -0.9903
 5708TIP3   OH238682   1.204   3.891   7.305 -0.2085 -0.1495 -0.0289
 5708TIP3    H138683   1.153   3.877   7.225  1.2351 -2.0004 -0.7053
 5708TIP3    H238684   1.225   3.803   7.335  0.5478  0.5389  1.5669
 5709TIP3   OH238685   3.164   1.606   0.914  0.0378 -0.6269  0.4086
 5709TIP3    H138686   3.108   1.536   0.949  0.0503 -0.0319  1.6871
 5709TIP3    H238687   3.188   1.576   0.827 -0.9281 -1.6650  0.4730
 5710TIP3   OH238688   6.456   2.408   7.148 -0.0588 -0.5300 -0.0739
 5710TIP3    H138689   6.496   2.325   7.175  0.2892 -0.4986 -0.4810
 5710TIP3    H238690   6.441   2.455   7.230  1.1426 -0.3628  0.0780
 5711TIP3   OH238691   6.421   2.101   6.960 -0.1747  0.2908 -0.5222
 5711TIP3    H138692   6.488   2.085   7.026 -0.6798 -2.0111 -0.5036
 5711TIP3    H238693   6.339   2.075   7.002 -0.8144  0.9797 -1.3021
 5712TIP3   OH238694   4.032   5.999   1.235 -0.2587 -0.2361 -0.0375
 5712TIP3    H138695   3.997   5.968   1.151 -0.5662 -1.7053  0.6175
 5712TIP3    H238696   4.002   6.090   1.240 -1.9023 -0.7034 -0.6434
 5713TIP3   OH238697   2.494   3.335   7.442  0.2636  0.2212  0.1807
 5713TIP3    H138698   2.471   3.293   7.525  1.5680 -0.2745  0.3058
 5713TIP3    H238699   2.425   3.308   7.382 -0.2801 -0.0407  0.9095
 5714TIP3   OH238700   1.348   1.723   1.558 -0.3652 -0.2255  0.0798
 5714TIP3    H138701   1.306   1.738   1.473 -1.3520 -3.7060 -0.1999
 5714TIP3    H238702   1.421   1.785   1.560 -0.4681  0.1780 -3.1795
 5715TIP3   OH238703   0.436   2.233   0.110 -0.7342  0.1123  0.0103
 5715TIP3    H138704   0.510   2.216   0.052 -0.4574  1.4828 -0.0713
 5715TIP3    H238705   0.409   2.322   0.088  1.1921  1.8773  3.9146
 5716TIP3   OH238706   3.478   0.795   7.280  0.1147  0.2155  0.0804
 5716TIP3    H138707   3.550   0.811   7.218 -0.2753 -1.6024 -0.9211
 5716TIP3    H238708   3.400   0.825   7.234  0.0667  1.0161  0.6623
 5717TIP3   OH238709   6.204   5.182   6.117 -0.4090  0.1433 -0.1390
 5717TIP3    H138710   6.128   5.124   6.108 -0.4682  0.2264 -0.1773
 5717TIP3    H238711   6.278   5.128   6.091 -0.3324 -0.2323  0.8209
 5718TIP3   OH238712   2.571   6.523   1.161 -0.3469  0.6121  0.2876
 5718TIP3    H138713   2.603   6.576   1.234  0.3166  0.1613  0.3288
 5718TIP3    H238714   2.555   6.437   1.199 -1.3652  0.7508  0.2079
 5719TIP3   OH238715   2.530   5.957   6.847 -0.2627  0.6928  0.7796
 5719TIP3    H138716   2.450   5.996   6.883 -0.2542  2.5056 -0.9790
 5719TIP3    H238717   2.511   5.945   6.755  0.9480 -0.4195  0.6531
 5720TIP3   OH238718   5.576   1.302   1.185  0.1173 -0.4589  0.6324
 5720TIP3    H138719   5.671   1.301   1.173  0.1412 -1.7767  0.7915
 5720TIP3    H238720   5.560   1.235   1.251 -0.9894 -0.8045  0.0330
 5721TIP3   OH238721   3.398   1.948   2.544  0.2070 -0.2486  0.0693
 5721TIP3    H138722   3.338   1.886   2.586  0.5864 -0.7521 -0.1201
 5721TIP3    H238723   3.393   1.926   2.451 -0.6788  0.9005 -0.1749
 5722TIP3   OH238724   0.009   4.227   6.491 -0.1049  0.5727  0.3137
 5722TIP3    H138725   0.087   4.277   6.515  0.6883 -0.6913  0.4633
 5722TIP3    H238726  -0.064   4.285   6.514  0.7120  0.9017  2.2894
 5723TIP3   OH238727   1.078   3.698   0.339  0.3263  0.5743  0.1033
 5723TIP3    H138728   1.092   3.633   0.270 -0.2348  0.7202 -0.1525
 5723TIP3    H238729   1.157   3.693   0.393  0.6247  0.2249 -0.3580
 5724TIP3   OH238730   2.653   4.119   0.267 -0.0830 -0.2596 -0.0483
 5724TIP3    H138731   2.661   4.179   0.341  0.1061 -0.7908  0.3734
 5724TIP3    H238732   2.620   4.038   0.306  1.0174 -0.8808 -0.3753
 5725TIP3   OH238733   2.877   3.048   1.107  0.4945  0.0532  0.7788
 5725TIP3    H138734   2.801   3.070   1.160  0.3990 -0.7813  1.0024
 5725TIP3    H238735   2.943   3.019   1.171  0.4155 -0.8552  0.4531
 5726TIP3   OH238736   1.692   5.260   1.284 -0.2619  0.4270 -0.5243
 5726TIP3    H138737   1.761   5.259   1.217  0.3444  1.2066  0.0723
 5726TIP3    H238738   1.714   5.334   1.340  0.5198 -1.4508  1.8548
 5727TIP3   OH238739   2.534   4.036   6.989  0.3222 -1.3691  0.4209
 5727TIP3    H138740   2.622   4.069   7.007 -0.1598  0.4593 -0.3759
 5727TIP3    H238741   2.497   4.016   7.075  0.0761  1.7848  1.1653
 5728TIP3   OH238742   3.947   2.352   1.398 -0.0869  0.1746  0.0961
 5728TIP3    H138743   3.930   2.408   1.323  0.9719 -1.9367 -1.8614
 5728TIP3    H238744   3.874   2.290   1.398 -1.3659  1.5661  2.3593
 5729TIP3   OH238745   1.612   4.101   8.622 -0.0175 -0.0410 -0.1027
 5729TIP3    H138746   1.577   4.189   8.628  1.2014  0.4829 -0.4041
 5729TIP3    H238747   1.673   4.104   8.548 -0.3105 -1.2563 -0.4218
 5730TIP3   OH238748   6.613   0.789   0.191 -0.5518 -0.4712  0.5201
 5730TIP3    H138749   6.526   0.786   0.151  1.0130 -0.4375 -3.3518
 5730TIP3    H238750   6.635   0.697   0.205 -1.7889 -0.4530  3.3383
 5731TIP3   OH238751   0.575   6.233   7.580 -0.5281  0.3763  0.0037
 5731TIP3    H138752   0.518   6.156   7.585 -0.6680  0.4614 -0.2600
 5731TIP3    H238753   0.517   6.305   7.556 -0.5021  0.6858  0.8249
 5732TIP3   OH238754   3.960   1.251   8.120  0.1513 -0.1223 -0.1831
 5732TIP3    H138755   3.884   1.193   8.122 -0.6110  0.8468  0.0224
 5732TIP3    H238756   3.927   1.332   8.081  1.5735 -0.3376 -1.9312
 5733TIP3   OH238757   1.917   4.279   7.055 -0.2146  0.1656 -0.2305
 5733TIP3    H138758   1.988   4.217   7.071 -0.5999 -0.3839 -0.6300
 5733TIP3    H238759   1.935   4.315   6.968  0.1767  0.8542  0.1248
 5734TIP3   OH238760   5.440   0.969   8.557  0.2792 -0.0620 -0.3271
 5734TIP3    H138761   5.527   0.982   8.518 -0.5754 -0.2750 -2.4313
 5734TIP3    H238762   5.443   0.881   8.594  0.5766 -0.5758 -1.5347
 5735TIP3   OH238763   2.401   2.786   6.712  0.6727  0.1941  0.0208
 5735TIP3    H138764   2.394   2.876   6.680  2.8397 -0.0516 -1.3652
 5735TIP3    H238765   2.482   2.785   6.763  0.2868 -0.8098  0.6354
 5736TIP3   OH238766   2.894   3.670   0.667 -0.3231  0.1657  0.2258
 5736TIP3    H138767   2.961   3.682   0.600 -0.8312 -1.0722 -0.5182
 5736TIP3    H238768   2.879   3.758   0.702  1.2243  0.5550 -0.0318
 5737TIP3   OH238769   4.569   2.818   7.269  0.1121 -0.3270  0.1016
 5737TIP3    H138770   4.591   2.776   7.352  0.6321  0.5911  0.4426
 5737TIP3    H238771   4.601   2.757   7.202 -0.2504 -1.0396  0.5687
 5738TIP3   OH238772   0.674   1.422   1.113 -0.4568 -0.4679 -0.3159
 5738TIP3    H138773   0.719   1.502   1.083 -0.8375 -0.3030 -0.4524
 5738TIP3    H238774   0.600   1.454   1.164 -0.5231 -0.7410 -0.2392
 5739TIP3   OH238775   6.078   6.777   7.858 -0.2592 -0.2132 -0.0696
 5739TIP3    H138776   6.025   6.717   7.911 -0.1935 -0.4085 -0.2239
 5739TIP3    H238777   6.126   6.829   7.922  0.8098 -1.3291  0.0590
 5740TIP3   OH238778   2.111   4.016   8.660  0.1598 -0.2360  0.4519
 5740TIP3    H138779   2.141   3.940   8.610  2.2599  0.6476  0.2387
 5740TIP3    H238780   2.067   4.071   8.597  1.7796  0.3338 -0.2392
 5741TIP3   OH238781   0.791   4.788   8.598  0.3041  0.9595  0.0408
 5741TIP3    H138782   0.713   4.778   8.543  0.7813  1.7994 -0.8189
 5741TIP3    H238783   0.824   4.875   8.576  1.9211  0.3081 -0.1911
 5742TIP3   OH238784   0.280   1.757   1.624  0.0181  0.4488 -0.4612
 5742TIP3    H138785   0.219   1.753   1.698 -2.7150 -0.5638 -2.5964
 5742TIP3    H238786   0.348   1.818   1.652 -1.6642  1.2088  2.3273
 5743TIP3   OH238787   2.920   6.839   0.294 -1.0117 -0.2126 -0.2275
 5743TIP3    H138788   3.010   6.812   0.312  1.3257  2.9911 -5.0158
 5743TIP3    H238789   2.896   6.893   0.369  2.3470  1.2644 -0.0254
 5744TIP3   OH238790   3.716   4.215   0.876 -0.3815  0.6254 -0.1672
 5744TIP3    H138791   3.684   4.305   0.866 -1.8667  0.1931  0.5492
 5744TIP3    H238792   3.639   4.164   0.898  0.4233 -0.8713 -0.6925
 5745TIP3   OH238793   5.556   6.562   6.400  0.2377 -0.4626  0.1539
 5745TIP3    H138794   5.638   6.595   6.437 -0.1415  0.7836 -0.0626
 5745TIP3    H238795   5.573   6.469   6.383  1.7331 -0.1352 -0.2693
 5746TIP3   OH238796   6.239   2.335   0.983  0.2805  0.5446 -0.1425
 5746TIP3    H138797   6.233   2.297   0.896 -1.6081  0.7636 -0.1537
 5746TIP3    H238798   6.197   2.271   1.040  2.1458  0.0614  0.7681
 5747TIP3   OH238799   0.530   2.161   1.306 -0.3556 -0.4716 -0.0453
 5747TIP3    H138800   0.516   2.066   1.296 -2.3752 -0.0600 -1.8687
 5747TIP3    H238801   0.522   2.196   1.218  2.2042  1.2580  0.3194
 5748TIP3   OH238802   6.135   1.851   0.124 -0.5547  0.3576  0.6379
 5748TIP3    H138803   6.185   1.818   0.049 -1.3764  1.6643 -0.5432
 5748TIP3    H238804   6.105   1.772   0.170  0.0339 -0.4774 -0.3627
 5749TIP3   OH238805   0.516   2.057   0.297 -0.5599  0.7003  0.2705
 5749TIP3    H138806   0.459   2.098   0.232 -0.0810  0.1025 -0.5384
 5749TIP3    H238807   0.487   1.966   0.300 -0.5483  0.7150  0.8667
 5750TIP3   OH238808   6.464   2.253   0.095  0.1429  0.7815  0.8314
 5750TIP3    H138809   6.403   2.179   0.103 -0.4187  1.1074 -0.2076
 5750TIP3    H238810   6.521   2.229   0.022  1.0712  0.6198  1.5992
 5751TIP3   OH238811   2.333   1.773   7.553  0.5672 -0.3695  0.9606
 5751TIP3    H138812   2.416   1.739   7.520 -0.7518 -1.4123 -1.6007
 5751TIP3    H238813   2.286   1.696   7.586 -0.4370 -0.2814 -0.1824
 5752TIP3   OH238814   6.221   3.951   7.620 -0.3132 -0.3097  0.2727
 5752TIP3    H138815   6.298   4.002   7.597  1.3143 -1.4779  2.6726
 5752TIP3    H238816   6.149   3.991   7.570  1.4860  1.9945 -0.6374
 5753TIP3   OH238817   6.180   3.510   7.708  0.5728  0.0443  0.0067
 5753TIP3    H138818   6.129   3.533   7.786  0.3687 -0.6595  0.0922
 5753TIP3    H238819   6.116   3.506   7.637  0.6107 -0.1873 -0.0172
 5754TIP3   OH238820   5.717   3.306   7.391 -0.4687  0.3618 -0.2687
 5754TIP3    H138821   5.674   3.352   7.320 -2.1269 -2.3997 -1.1900
 5754TIP3    H238822   5.744   3.222   7.354  0.8004 -0.2149  1.7463
 5755TIP3   OH238823   6.529   2.669   1.426 -0.2496  0.0791  0.3417
 5755TIP3    H138824   6.561   2.747   1.381 -1.4834  0.4837  0.1316
 5755TIP3    H238825   6.528   2.694   1.519  0.8716 -0.2437  0.4485
 5756TIP3   OH238826   4.749   0.702   2.133  0.0688  0.7625 -0.2236
 5756TIP3    H138827   4.720   0.674   2.046 -2.2446  3.2563 -0.3926
 5756TIP3    H238828   4.842   0.719   2.122  0.2442 -0.8154 -1.6503
 5757TIP3   OH238829   4.060   1.022   6.512  0.3904 -0.2270 -0.4400
 5757TIP3    H138830   4.018   0.981   6.437  0.0928 -0.9829  0.1281
 5757TIP3    H238831   4.038   1.115   6.504 -0.5171 -0.4558 -0.7148
 5758TIP3   OH238832   1.515   5.375   6.627  0.2636 -0.2453 -0.6924
 5758TIP3    H138833   1.485   5.285   6.615  0.9609 -0.4206 -1.1972
 5758TIP3    H238834   1.602   5.377   6.587  0.4435  0.5412 -0.2876
 5759TIP3   OH238835   1.453   6.333   1.048  0.7200  0.5489 -0.4877
 5759TIP3    H138836   1.490   6.246   1.032  1.5491  1.0180 -1.2654
 5759TIP3    H238837   1.528   6.392   1.044  0.0854  1.3706 -0.6098
 5760TIP3   OH238838   0.118   1.218   0.794  0.1954 -0.6136  0.1534
 5760TIP3    H138839   0.030   1.251   0.778  0.3759  0.0618  0.5130
 5760TIP3    H238840   0.147   1.186   0.709 -0.0156  0.1073 -0.2032
 5761TIP3   OH238841   2.643   4.694   7.168  0.5806  0.3920 -0.3687
 5761TIP3    H138842   2.721   4.673   7.117 -1.0224 -0.8124 -2.5309
 5761TIP3    H238843   2.628   4.618   7.223 -0.9928 -1.1149 -2.6614
 5762TIP3   OH238844   2.156   2.589   8.076 -0.5257  1.0539  0.0537
 5762TIP3    H138845   2.139   2.594   7.982  1.2112 -0.6646 -0.4087
 5762TIP3    H238846   2.113   2.509   8.104  0.0393  0.8785  0.4416
 5763TIP3   OH238847   6.409   6.753   0.666  0.0845  0.3141 -0.0873
 5763TIP3    H138848   6.483   6.714   0.711  0.1863  0.8836  0.2455
 5763TIP3    H238849   6.436   6.843   0.649 -0.9018  0.8214  0.9246
 5764TIP3   OH238850   6.035   3.000   7.630 -0.1775 -0.3456 -0.8546
 5764TIP3    H138851   6.066   2.977   7.542 -0.9951  0.5026 -1.3889
 5764TIP3    H238852   5.971   3.069   7.615  2.5344  2.7754  0.6768
 5765TIP3   OH238853   3.674   2.547   0.735  0.1923  0.2303 -0.3496
 5765TIP3    H138854   3.691   2.532   0.828  1.2735 -2.3469 -0.8733
 5765TIP3    H238855   3.612   2.478   0.710  1.6301 -0.5592 -1.9646
 5766TIP3   OH238856   1.165   0.643   7.066 -0.7788 -1.1070 -1.0773
 5766TIP3    H138857   1.076   0.658   7.036 -1.0947  0.6532  0.5491
 5766TIP3    H238858   1.160   0.562   7.117 -1.5201 -0.8691 -0.7600
 5767TIP3   OH238859   3.552   3.567   7.188 -0.0810  0.9947  0.6983
 5767TIP3    H138860   3.621   3.500   7.186 -0.1674  0.9152 -0.6719
 5767TIP3    H238861   3.567   3.619   7.109 -2.3050  0.2312 -0.2950
 5768TIP3   OH238862   6.584   2.439   1.282  0.7374 -0.0149  0.1728
 5768TIP3    H138863   6.654   2.462   1.221  0.5635  0.7149  0.2375
 5768TIP3    H238864   6.573   2.517   1.336  1.1634 -0.7993  1.4131
 5769TIP3   OH238865   3.908   1.625   7.013  0.2155 -0.0406 -0.0119
 5769TIP3    H138866   3.923   1.617   6.919 -0.5241 -0.6147 -0.0969
 5769TIP3    H238867   3.879   1.715   7.025  0.4283  0.0709 -0.3216
 5770TIP3   OH238868   5.536   6.371   8.058  0.4117 -0.0517  0.2788
 5770TIP3    H138869   5.501   6.445   8.010  0.6594 -0.3638 -0.3928
 5770TIP3    H238870   5.477   6.299   8.037  1.5672 -0.6596 -1.0959
 5771TIP3   OH238871   4.860   3.953   7.783 -0.2317 -0.0524 -0.2349
 5771TIP3    H138872   4.765   3.949   7.768 -0.6133 -0.0136  1.8698
 5771TIP3    H238873   4.878   3.883   7.846  0.9244  0.6588  0.2678
 5772TIP3   OH238874   3.119   0.411   6.024  0.7033 -0.1453  0.2530
 5772TIP3    H138875   3.174   0.386   6.098  0.2184 -2.8714 -0.2014
 5772TIP3    H238876   3.034   0.429   6.062  0.7839 -0.2437  0.4798
 5773TIP3   OH238877   2.772   5.455   8.208  0.6169 -0.2399 -0.1539
 5773TIP3    H138878   2.863   5.481   8.192 -0.1145  2.5875 -0.2179
 5773TIP3    H238879   2.720   5.526   8.171 -1.6108 -1.1288  1.0775
 5774TIP3   OH238880   5.690   5.935   1.516  0.0828 -0.1651  0.1615
 5774TIP3    H138881   5.740   5.870   1.467  0.1422  0.2959 -0.4037
 5774TIP3    H238882   5.615   5.887   1.551 -1.0707 -0.1462 -2.0719
 5775TIP3   OH238883   2.256   0.918   6.831 -0.1659 -0.6477 -0.2337
 5775TIP3    H138884   2.191   0.907   6.762 -0.5217 -1.3936  0.1970
 5775TIP3    H238885   2.333   0.954   6.787 -0.8644  0.2474 -0.7506
 5776TIP3   OH238886   0.152   3.052   0.293  0.0140 -0.0912  0.1352
 5776TIP3    H138887   0.153   3.035   0.199  0.6751  0.8506 -0.0439
 5776TIP3    H238888   0.233   3.013   0.326 -0.7878 -1.4701  0.5286
 5777TIP3   OH238889   1.370   4.480   8.469  0.1122 -0.2340 -0.2774
 5777TIP3    H138890   1.377   4.432   8.387  0.5133 -0.6002 -0.0342
 5777TIP3    H238891   1.318   4.557   8.448 -1.7206 -1.4470 -0.3868
 5778TIP3   OH238892   4.333   1.669   8.112  0.9736 -0.0288  0.0654
 5778TIP3    H138893   4.369   1.609   8.178 -0.0749  0.0535  0.7283
 5778TIP3    H238894   4.305   1.746   8.162  0.8415  0.3486 -0.5808
 5779TIP3   OH238895   4.973   3.671   8.405 -0.1730 -0.0406  0.4318
 5779TIP3    H138896   4.986   3.590   8.356  1.1006  1.1524 -1.3214
 5779TIP3    H238897   4.964   3.643   8.496 -1.5797 -2.2634 -0.3176
 5780TIP3   OH238898   6.279   5.949   1.367 -0.2016  0.4802  0.2555
 5780TIP3    H138899   6.315   5.873   1.321  1.5072  0.7236  1.1152
 5780TIP3    H238900   6.320   6.024   1.324 -1.7510  0.9682 -0.4816
 5781TIP3   OH238901   5.696   6.796   7.772 -0.1484 -0.7395 -0.7689
 5781TIP3    H138902   5.759   6.736   7.732 -0.8189 -2.0452  0.0247
 5781TIP3    H238903   5.742   6.832   7.848 -0.6172 -2.4544  0.3919
 5782TIP3   OH238904   2.715   6.502   7.259 -0.1111 -0.2521 -0.1167
 5782TIP3    H138905   2.754   6.448   7.191  0.0947 -1.3433  0.8529
 5782TIP3    H238906   2.785   6.561   7.287  1.0297 -2.3617  1.7919
 5783TIP3   OH238907   6.327   6.663   7.270 -0.0256  0.2965 -0.2902
 5783TIP3    H138908   6.346   6.741   7.217  0.1366  0.0129 -0.6507
 5783TIP3    H238909   6.251   6.687   7.321 -0.9152  0.1678 -1.5112
 5784TIP3   OH238910   6.487   1.823   6.628  0.2916 -0.3121 -0.2329
 5784TIP3    H138911   6.504   1.901   6.576  1.2926  0.4614  1.1928
 5784TIP3    H238912   6.407   1.786   6.591  0.7185  0.4421 -2.0097
 5785TIP3   OH238913   5.772   5.747   8.252  0.4416  0.5596 -0.1370
 5785TIP3    H138914   5.782   5.835   8.215 -0.7118  0.5852 -0.4124
 5785TIP3    H238915   5.739   5.694   8.180  1.1938 -0.1353  0.0086
 5786TIP3   OH238916   6.400   6.378   0.842 -0.0776  0.6616  0.5063
 5786TIP3    H138917   6.411   6.284   0.826  0.0723  0.5244  1.3626
 5786TIP3    H238918   6.357   6.411   0.763 -2.1199 -0.5250  1.0473
 5787TIP3   OH238919   5.588   2.604   7.513 -0.8632  0.2328  0.1685
 5787TIP3    H138920   5.677   2.581   7.538 -1.6015 -2.6405  0.5213
 5787TIP3    H238921   5.555   2.657   7.586  0.4867  1.2675  0.0563
 5788TIP3   OH238922   3.712   2.734   8.425 -0.7914  0.0848 -0.4179
 5788TIP3    H138923   3.766   2.734   8.345  2.9461  1.2931  1.8547
 5788TIP3    H238924   3.685   2.643   8.435  0.6734 -0.5664 -1.8691
 5789TIP3   OH238925   3.748   2.965   7.700 -0.2223  0.6401 -0.2142
 5789TIP3    H138926   3.750   3.047   7.651 -3.7982 -0.3802 -2.4557
 5789TIP3    H238927   3.815   2.911   7.657 -0.5804  1.0877 -1.3784
 5790TIP3   OH238928   2.658   1.956   7.906  0.2184  0.2609 -1.2386
 5790TIP3    H138929   2.569   1.976   7.937  0.8550  2.1161 -0.4548
 5790TIP3    H238930   2.652   1.964   7.811 -0.7216 -0.9223 -1.3096
 5791TIP3   OH238931   2.113   3.906   7.552 -0.1865 -0.1936 -0.4802
 5791TIP3    H138932   2.038   3.893   7.494  0.4049  0.2958 -1.3765
 5791TIP3    H238933   2.156   3.820   7.556  0.0558 -0.1067 -1.1755
 5792TIP3   OH238934   3.188   2.514   7.765 -0.3633 -0.0638  0.0376
 5792TIP3    H138935   3.145   2.571   7.701  1.2155  0.6041 -0.4693
 5792TIP3    H238936   3.151   2.427   7.748 -0.9237  0.3437 -0.9098
 5793TIP3   OH238937   2.582   6.800   0.729  0.1088  0.2159 -0.6928
 5793TIP3    H138938   2.553   6.716   0.695 -2.0119  0.2644  0.8272
 5793TIP3    H238939   2.672   6.785   0.757 -0.4595 -1.7972  0.2500
 5794TIP3   OH238940   2.650   5.595   0.815  0.3083 -0.0164 -0.5918
 5794TIP3    H138941   2.637   5.658   0.744 -0.4850 -1.4311 -1.7789
 5794TIP3    H238942   2.721   5.539   0.784  1.2260  0.4429  0.5874
 5795TIP3   OH238943   5.708   4.083   0.587 -0.2250  0.1176 -0.2835
 5795TIP3    H138944   5.781   4.036   0.547  1.1020  0.1206  1.9556
 5795TIP3    H238945   5.631   4.029   0.568  0.7041 -1.0792 -0.7896
 5796TIP3   OH238946   5.636   5.959   0.294 -0.1379  0.0850 -0.4723
 5796TIP3    H138947   5.673   5.970   0.382 -2.3991 -0.0931  0.5798
 5796TIP3    H238948   5.706   5.916   0.244  0.8720 -0.7326  1.5194
 5797TIP3   OH238949   3.832   3.877   7.622  0.2891 -0.2151 -0.1152
 5797TIP3    H138950   3.773   3.877   7.698  0.1777  0.3061 -0.1978
 5797TIP3    H238951   3.793   3.815   7.561 -1.4796  1.7566 -1.1544
 5798TIP3   OH238952   4.479   1.372   0.023 -0.1984  0.9512  0.3606
 5798TIP3    H138953   4.384   1.386   0.028 -0.1947  1.6278 -0.9073
 5798TIP3    H238954   4.515   1.460   0.012  0.5000  0.6276  0.0032
 5799TIP3   OH238955   0.355   3.478   1.316 -0.4795  0.4626  0.0369
 5799TIP3    H138956   0.287   3.543   1.298 -1.2797 -0.3333  0.1302
 5799TIP3    H238957   0.397   3.509   1.397 -0.4332  1.1905 -0.2600
 5800TIP3   OH238958   3.596   2.825   1.770 -0.3111 -0.0550  0.4843
 5800TIP3    H138959   3.567   2.909   1.806 -1.6917 -0.2817 -0.0746
 5800TIP3    H238960   3.610   2.770   1.847  1.7048  0.9847  0.9412
 5801TIP3   OH238961   3.704   2.466   8.512 -0.5572  0.3045 -0.2951
 5801TIP3    H138962   3.770   2.418   8.462 -0.5189 -0.4066  0.4194
 5801TIP3    H238963   3.620   2.431   8.482 -0.5180 -0.4754  0.4695
 5802TIP3   OH238964   4.686   5.868   7.779 -0.1916  0.9426 -0.3095
 5802TIP3    H138965   4.695   5.885   7.686  1.0185  0.5026 -0.2833
 5802TIP3    H238966   4.764   5.819   7.803 -0.1972  1.5473  1.0600
 5803TIP3   OH238967   2.708   6.665   0.322 -0.4124  0.3521  0.1792
 5803TIP3    H138968   2.742   6.587   0.365 -1.1446 -0.5221 -0.7768
 5803TIP3    H238969   2.784   6.722   0.312  0.1981 -0.3682  0.6082
 5804TIP3   OH238970   1.865   2.375   6.521 -0.2271 -0.1295  0.0652
 5804TIP3    H138971   1.823   2.300   6.565 -0.4835 -0.5806 -0.9239
 5804TIP3    H238972   1.928   2.335   6.461  2.0853  0.5488  1.9079
 5805TIP3   OH238973   4.324   3.515   0.778  0.4573 -0.7226 -0.0661
 5805TIP3    H138974   4.326   3.611   0.780  1.4312 -0.7497  0.8804
 5805TIP3    H238975   4.326   3.493   0.685  3.3751  0.1620 -0.2994
 5806TIP3   OH238976   5.625   0.110   0.899  0.7373  0.2027 -0.2584
 5806TIP3    H138977   5.666   0.080   0.980 -1.6567  0.6383  1.1956
 5806TIP3    H238978   5.566   0.039   0.874 -0.0345  0.8981 -0.4726
 5807TIP3   OH238979   5.416   2.175   0.938  0.3528  0.4868  0.4801
 5807TIP3    H138980   5.355   2.109   0.906 -0.7615  1.6365  0.1682
 5807TIP3    H238981   5.439   2.147   1.026 -0.1317 -0.2828  0.3655
 5808TIP3   OH238982   1.207   0.077   1.988  0.2664 -0.5119 -0.5043
 5808TIP3    H138983   1.185  -0.010   2.021 -1.4451  0.8474  2.3335
 5808TIP3    H238984   1.146   0.091   1.916  0.2242 -1.4552 -0.6714
 5809TIP3   OH238985   1.557   1.545   2.098  0.3558 -0.0220 -0.1684
 5809TIP3    H138986   1.642   1.586   2.084 -0.0044  0.8546  0.1905
 5809TIP3    H238987   1.578   1.453   2.117  1.1650 -0.0080 -0.9121
 5810TIP3   OH238988   0.193   6.382   6.776 -0.1184  0.2388  0.0316
 5810TIP3    H138989   0.235   6.468   6.785  0.3332 -0.1275  1.7638
 5810TIP3    H238990   0.208   6.357   6.685 -0.8595  2.2932 -0.7295
 5811TIP3   OH238991   6.116   0.299   1.584 -0.3116  0.3001 -0.1184
 5811TIP3    H138992   6.124   0.212   1.543  2.6480  0.1025  0.6775
 5811TIP3    H238993   6.173   0.355   1.533 -1.7506  1.7105 -0.2640
 5812TIP3   OH238994   6.810   5.897   7.268  0.3305 -0.1548 -0.1271
 5812TIP3    H138995   6.774   5.817   7.307  0.2795  1.1209  2.6545
 5812TIP3    H238996   6.734   5.941   7.229 -0.0052 -0.4653  0.1767
 5813TIP3   OH238997   4.620   3.134   7.256 -0.7437 -0.3041  0.0887
 5813TIP3    H138998   4.591   3.044   7.241  0.1361 -0.3843 -1.3337
 5813TIP3    H238999   4.659   3.133   7.343 -0.5720 -1.3450  0.0116
 5814TIP3   OH239000   0.678   2.049   6.325 -0.4950 -0.2254  0.8509
 5814TIP3    H139001   0.594   2.078   6.360 -0.8327 -0.8300  0.5735
 5814TIP3    H239002   0.744   2.097   6.375 -1.0226  1.2454  0.1948
 5815TIP3   OH239003   3.072   3.102   1.857 -0.3876  0.6474 -0.0973
 5815TIP3    H139004   3.157   3.137   1.886 -0.5531  0.0109  1.2395
 5815TIP3    H239005   3.030   3.071   1.937 -1.3000 -0.3203 -0.9145
 5816TIP3   OH239006   2.314   4.322   0.359 -0.4155 -0.5684  0.5346
 5816TIP3    H139007   2.267   4.253   0.313 -2.7862  1.7574 -0.8030
 5816TIP3    H239008   2.383   4.349   0.299  0.7057 -1.8717  1.1811
 5817TIP3   OH239009   4.179   1.622   8.472  0.2640 -0.1980  0.0348
 5817TIP3    H139010   4.196   1.618   8.566 -2.7159 -0.7999  0.6579
 5817TIP3    H239011   4.210   1.538   8.438 -1.1408 -1.1602  1.0336
 5818TIP3   OH239012   4.265   1.300   1.789 -1.2057  0.0846 -0.2913
 5818TIP3    H139013   4.226   1.334   1.870 -2.0799  0.4114 -0.8374
 5818TIP3    H239014   4.202   1.237   1.756 -0.7923 -0.1422 -0.6582
 5819TIP3   OH239015   3.791   3.776   8.163 -0.4127 -0.3006 -0.1102
 5819TIP3    H139016   3.803   3.867   8.189 -0.8092  0.0456 -1.0747
 5819TIP3    H239017   3.700   3.756   8.184 -1.1003  0.3578 -2.2006
 5820TIP3   OH239018   6.056   6.714   1.025 -0.4455 -0.3577  0.0135
 5820TIP3    H139019   6.063   6.619   1.010 -1.2432 -0.8636  2.4048
 5820TIP3    H239020   6.146   6.746   1.015  0.4975 -1.9631  2.3507
 5821TIP3   OH239021   4.210   4.938   0.356 -0.1387  0.2003 -0.7068
 5821TIP3    H139022   4.232   5.031   0.365  1.9095 -0.3170  0.4052
 5821TIP3    H239023   4.261   4.895   0.425 -1.2217 -1.7440 -1.0389
 5822TIP3   OH239024   4.646   2.857   2.290  0.6751 -0.1696  0.0440
 5822TIP3    H139025   4.590   2.902   2.226  1.2386  1.1959  0.4647
 5822TIP3    H239026   4.721   2.915   2.301  0.0810  0.2698  2.7764
 5823TIP3   OH239027   3.895   6.228   7.343 -0.5712  0.3225  0.1292
 5823TIP3    H139028   3.887   6.323   7.345  0.9807  0.5821 -2.1447
 5823TIP3    H239029   3.805   6.197   7.332 -0.9433  1.6584 -0.9129
 5824TIP3   OH239030   1.018   2.235   1.836  0.0620 -0.5590  0.2956
 5824TIP3    H139031   0.938   2.184   1.852 -1.9510  2.8559  2.3912
 5824TIP3    H239032   1.071   2.221   1.914 -0.2503  0.0455  0.6269
 5825TIP3   OH239033   5.315   5.585   6.586  0.4932 -0.6319  0.1199
 5825TIP3    H139034   5.223   5.598   6.565  0.6459  2.0319  0.6724
 5825TIP3    H239035   5.360   5.656   6.540  2.3297 -1.9943 -0.3129
 5826TIP3   OH239036   6.321   1.848   0.465  0.1187  0.0147  0.3464
 5826TIP3    H139037   6.307   1.802   0.548  0.4536 -0.7712 -0.0139
 5826TIP3    H239038   6.243   1.829   0.414  0.5857 -0.8139 -0.0854
 5827TIP3   OH239039   6.771   6.166   2.262  0.0874 -0.3109 -0.2018
 5827TIP3    H139040   6.683   6.134   2.241  0.5215 -0.7088 -1.5209
 5827TIP3    H239041   6.824   6.087   2.273  0.7666 -0.0894 -1.6698
 5828TIP3   OH239042   6.784   0.530   7.064 -0.2065  0.1640  0.4857
 5828TIP3    H139043   6.690   0.550   7.063 -0.4177 -0.7893  0.1856
 5828TIP3    H239044   6.821   0.590   7.128 -1.3837 -1.0120  2.3432
 5829TIP3   OH239045   1.274   2.391   0.581  0.3127  0.1740 -0.5362
 5829TIP3    H139046   1.345   2.373   0.642 -0.2924 -0.5533 -0.0276
 5829TIP3    H239047   1.206   2.327   0.604 -0.6093  1.0236 -0.8318
 5830TIP3   OH239048   4.679   1.362   1.602 -0.5679  0.1575  0.2670
 5830TIP3    H139049   4.710   1.452   1.611 -0.0192 -0.0712  0.7287
 5830TIP3    H239050   4.752   1.315   1.562 -1.3584  0.1970 -1.3226
 5831TIP3   OH239051   4.477   5.437   7.640 -0.1159  0.4467 -0.2216
 5831TIP3    H139052   4.507   5.456   7.730 -0.8713  0.7692 -0.0321
 5831TIP3    H239053   4.402   5.495   7.627  0.2314  0.6936 -1.2111
 5832TIP3   OH239054   6.617   0.154   0.071  0.2353 -0.0633 -0.6586
 5832TIP3    H139055   6.705   0.117   0.067  0.1013 -0.3570 -0.9374
 5832TIP3    H239056   6.563   0.085   0.110  0.0367 -0.0687 -0.9340
 5833TIP3   OH239057   5.714   0.084   7.439 -0.3450  0.5119 -0.5626
 5833TIP3    H139058   5.731   0.178   7.439  0.2794  0.4614  1.9364
 5833TIP3    H239059   5.632   0.074   7.487 -0.1584 -0.2601 -0.3828
 5834TIP3   OH239060   2.779   0.352   8.197 -0.2310  0.4052  0.1711
 5834TIP3    H139061   2.747   0.423   8.254  1.1779 -0.1900  1.7909
 5834TIP3    H239062   2.738   0.273   8.233 -0.2629  0.1538 -0.4091
 5835TIP3   OH239063   2.103   5.171   1.001 -0.1699 -0.2540 -0.1531
 5835TIP3    H139064   2.194   5.180   1.028 -0.1497  0.1810 -0.3548
 5835TIP3    H239065   2.108   5.144   0.910 -0.2410 -0.0020 -0.2327
 5836TIP3   OH239066   4.472   1.504   1.272 -0.1869 -0.0533 -0.8346
 5836TIP3    H139067   4.514   1.530   1.190 -0.8671 -0.3726 -1.2867
 5836TIP3    H239068   4.507   1.565   1.337 -0.0024  0.5061 -1.4476
 5837TIP3   OH239069   1.016   5.730   5.829  0.0492  0.1257  0.2859
 5837TIP3    H139070   1.020   5.661   5.763  0.9711  0.6505 -0.2275
 5837TIP3    H239071   0.965   5.692   5.900  1.2218 -1.3950  0.3686
 5838TIP3   OH239072   6.844   3.653   8.005  0.3769  0.1520 -0.4749
 5838TIP3    H139073   6.920   3.657   7.947  0.2881  0.2378 -0.5826
 5838TIP3    H239074   6.776   3.610   7.953  0.6175 -0.7147 -0.0931
 5839TIP3   OH239075   3.585   5.899   7.720 -0.5014 -0.3695 -0.7496
 5839TIP3    H139076   3.565   5.855   7.803 -0.8720  0.9835 -0.0988
 5839TIP3    H239077   3.634   5.977   7.746 -1.6100  0.6790 -1.7142
 5840TIP3   OH239078   2.719   5.251   7.265 -0.7176 -0.1297 -0.8043
 5840TIP3    H139079   2.793   5.258   7.325 -0.1661 -0.2460 -1.4534
 5840TIP3    H239080   2.717   5.158   7.241  0.6914  0.3146 -2.9265
 5841TIP3   OH239081   0.040   3.903   0.516  0.8806 -0.9956 -0.2209
 5841TIP3    H139082  -0.049   3.896   0.483  0.7042 -1.4574  0.3483
 5841TIP3    H239083   0.031   3.919   0.610  1.3938 -1.3176 -0.1119
 5842TIP3   OH239084   0.130   3.895   8.467  0.1324  0.0448 -0.0041
 5842TIP3    H139085   0.121   3.894   8.372  1.4012  0.3380 -0.1415
 5842TIP3    H239086   0.049   3.936   8.499 -1.0676 -1.5599 -0.8371
 5843TIP3   OH239087   1.150   5.434   0.442 -0.0127 -0.1439 -0.6504
 5843TIP3    H139088   1.189   5.473   0.364  1.0136  0.3268  0.0759
 5843TIP3    H239089   1.056   5.433   0.424  0.3195 -1.7090 -2.6161
 5844TIP3   OH239090   0.972   0.144   8.205 -0.2938  0.2382 -0.2529
 5844TIP3    H139091   0.915   0.156   8.129  0.7478 -0.7187 -1.2137
 5844TIP3    H239092   0.968   0.050   8.223  0.7487  0.2010 -0.1640
 5845TIP3   OH239093   0.321   2.982   6.792 -0.3970  0.5864 -0.1594
 5845TIP3    H139094   0.290   2.953   6.706 -3.4516  1.1307  0.6560
 5845TIP3    H239095   0.329   2.901   6.842  0.4225  0.3651 -0.6178
 5846TIP3   OH239096   6.462   3.360   6.329 -0.2687 -0.0545 -0.2037
 5846TIP3    H139097   6.491   3.358   6.238  1.0097 -1.5753  0.1961
 5846TIP3    H239098   6.542   3.374   6.380 -1.0414  1.4247  0.6867
 5847TIP3   OH239099   6.127   0.686   1.341 -0.6081 -0.4783 -0.6609
 5847TIP3    H139100   6.199   0.623   1.351  0.6467  0.8633 -0.8445
 5847TIP3    H239101   6.088   0.692   1.428  0.2185 -0.4342 -0.2783
 5848TIP3   OH239102   3.240   3.127   0.719  0.3196  0.4588  0.0460
 5848TIP3    H139103   3.229   3.207   0.667  1.6546  0.7259  0.1317
 5848TIP3    H239104   3.330   3.132   0.752  0.2498 -0.8263  0.4934
 5849TIP3   OH239105   1.695   2.222   1.346  0.2055  0.1338 -0.1227
 5849TIP3    H139106   1.757   2.210   1.418  1.8506  0.6943 -1.3719
 5849TIP3    H239107   1.735   2.174   1.273 -2.6128 -2.5346 -0.1025
 5850TIP3   OH239108   6.193   1.277   8.111 -0.0268  0.2400  0.1490
 5850TIP3    H139109   6.249   1.332   8.165  0.3433 -0.1212  0.1348
 5850TIP3    H239110   6.185   1.195   8.159 -1.1957  0.5645  0.5318
 5851TIP3   OH239111   4.676   0.612   0.744 -0.1475  0.3806 -0.1847
 5851TIP3    H139112   4.656   0.693   0.791  2.1169  0.5060  0.6683
 5851TIP3    H239113   4.607   0.551   0.771 -0.5163  1.3112  1.0715
 5852TIP3   OH239114   1.475   4.120   8.143  0.4865 -0.2856 -0.9605
 5852TIP3    H139115   1.558   4.138   8.189 -0.1790  2.0439 -0.5433
 5852TIP3    H239116   1.458   4.028   8.161  1.9028 -0.2798  0.7724
 5853TIP3   OH239117   6.281   3.658   8.589 -0.4586  0.2944 -0.1459
 5853TIP3    H139118   6.305   3.569   8.612  1.2774  0.1989 -2.0175
 5853TIP3    H239119   6.204   3.649   8.531 -0.3737  0.0196 -0.2143
 5854TIP3   OH239120   2.796   0.886   0.558 -0.5843 -0.0367 -0.5414
 5854TIP3    H139121   2.759   0.952   0.616 -0.0693  0.3744 -0.6738
 5854TIP3    H239122   2.847   0.936   0.494  1.0835 -0.6352  0.2756
 5855TIP3   OH239123   2.365   6.719   6.628 -0.2383 -0.2235  0.5905
 5855TIP3    H139124   2.309   6.680   6.695  0.3593  0.2433  1.3886
 5855TIP3    H239125   2.323   6.697   6.545 -1.7859  0.4075  1.1781
 5856TIP3   OH239126   1.949   2.228   0.556  0.4662  0.3325  0.3889
 5856TIP3    H139127   1.913   2.145   0.524  1.6660  0.2286 -0.7521
 5856TIP3    H239128   1.896   2.248   0.633 -0.9601 -0.6204 -0.2953
 5857TIP3   OH239129   6.240   0.621   8.347 -0.2422  0.3332  0.4114
 5857TIP3    H139130   6.288   0.637   8.428 -1.0949  1.3742  0.7434
 5857TIP3    H239131   6.236   0.706   8.304  0.2562 -0.2253 -0.7653
 5858TIP3   OH239132   2.084   0.721   1.255  0.1632  0.1526 -0.0921
 5858TIP3    H139133   2.064   0.689   1.167 -1.8836 -0.5524  0.5621
 5858TIP3    H239134   2.070   0.815   1.251  0.6622  0.2019 -0.6701
 5859TIP3   OH239135   0.135   3.492   1.677 -0.3708  0.0756 -0.4457
 5859TIP3    H139136   0.149   3.433   1.750 -0.4039  0.8498  0.2064
 5859TIP3    H239137   0.053   3.463   1.638 -0.6911  0.0534  0.2292
 5860TIP3   OH239138   6.013   1.968   2.225 -0.4494 -0.0119 -0.2318
 5860TIP3    H139139   5.947   1.912   2.185 -0.2523 -0.9726  0.7422
 5860TIP3    H239140   6.058   1.911   2.288  0.4435  0.9681  0.0488
 5861TIP3   OH239141   1.964   6.476   7.823 -0.1832 -0.1669 -0.2025
 5861TIP3    H139142   1.918   6.532   7.761 -2.5707 -0.3433  1.2585
 5861TIP3    H239143   2.039   6.528   7.852 -0.5837  1.0013 -1.2008
 5862TIP3   OH239144   1.627   0.602   6.107  0.7412  0.7196  0.1939
 5862TIP3    H139145   1.682   0.681   6.099  0.4694  0.9168  0.2508
 5862TIP3    H239146   1.565   0.609   6.035 -1.4115  2.2695  2.0640
 5863TIP3   OH239147   2.982   3.679   8.529 -0.3867  0.0941 -0.1352
 5863TIP3    H139148   3.071   3.661   8.559 -0.1536 -0.8999 -1.3195
 5863TIP3    H239149   2.993   3.710   8.439 -1.2065  0.3939 -0.1386
 5864TIP3   OH239150   4.371   5.709   0.571 -0.4568 -0.4172  0.2299
 5864TIP3    H139151   4.318   5.789   0.569 -0.9682 -0.7517  0.2841
 5864TIP3    H239152   4.309   5.639   0.552 -0.3904 -0.9899  1.9771
 5865TIP3   OH239153   4.092   5.320   7.446  0.2372 -0.3130 -0.7005
 5865TIP3    H139154   4.111   5.230   7.471 -3.0154 -0.8478  0.3400
 5865TIP3    H239155   4.082   5.317   7.351  0.9618 -0.8586 -0.7667
 5866TIP3   OH239156   6.424   5.519   7.317  0.5941  0.4085  0.4336
 5866TIP3    H139157   6.331   5.499   7.330  0.8461 -1.0274  0.2264
 5866TIP3    H239158   6.462   5.510   7.405  1.0938 -2.4771  0.0437
 5867TIP3   OH239159   3.627   6.801   6.923 -0.0859 -0.6412  0.1151
 5867TIP3    H139160   3.533   6.796   6.910 -0.1659 -0.9972  0.7627
 5867TIP3    H239161   3.647   6.894   6.929 -0.2074 -0.5088 -1.2692
 5868TIP3   OH239162   1.563   5.552   0.263 -0.2897 -0.1922  0.4023
 5868TIP3    H139163   1.553   5.638   0.304  1.5377 -0.3831  1.3318
 5868TIP3    H239164   1.565   5.490   0.336  0.1793 -0.8353 -0.1444
 5869TIP3   OH239165   0.177   0.571   1.295  0.3009  0.4872  0.6056
 5869TIP3    H139166   0.242   0.563   1.365 -0.5427 -2.7922  1.1991
 5869TIP3    H239167   0.093   0.564   1.340 -0.4514  2.3425 -0.3974
 5870TIP3   OH239168   4.303   0.634   6.987 -0.2849  0.1620 -0.0855
 5870TIP3    H139169   4.348   0.550   7.001 -1.1810 -0.6470 -1.7475
 5870TIP3    H239170   4.302   0.645   6.892 -0.8916  1.6775  0.0705
 5871TIP3   OH239171   4.360   2.964   0.142  0.3923  0.3218  0.5338
 5871TIP3    H139172   4.334   2.911   0.067 -0.7059 -1.0037  1.7933
 5871TIP3    H239173   4.434   2.918   0.180  0.9261  0.9721  0.2989
 5872TIP3   OH239174   4.113   5.655   1.126  0.3527  0.1426 -0.2453
 5872TIP3    H139175   4.087   5.565   1.146 -0.1934  0.2309 -0.5448
 5872TIP3    H239176   4.063   5.709   1.186  1.2553  0.2136  0.4644
 5873TIP3   OH239177   3.456   3.523   7.466  0.2552 -0.1870  0.7300
 5873TIP3    H139178   3.522   3.590   7.483 -1.5768  1.2974  2.4402
 5873TIP3    H239179   3.448   3.521   7.370  0.6809  1.7629  0.6054
 5874TIP3   OH239180   4.157   1.897   7.134  0.8734 -0.2074 -0.0269
 5874TIP3    H139181   4.229   1.878   7.074 -0.4932 -2.9264 -0.9452
 5874TIP3    H239182   4.132   1.812   7.170 -2.5413  0.4166 -0.5755
 5875TIP3   OH239183   1.328   3.966   0.561 -0.0518 -0.4697  0.9583
 5875TIP3    H139184   1.399   3.978   0.498 -0.9749 -0.6383 -0.1427
 5875TIP3    H239185   1.357   4.013   0.639  0.6200  0.7298  0.0139
 5876TIP3   OH239186   4.189   6.481   7.731  0.0953  0.0034 -0.0807
 5876TIP3    H139187   4.255   6.414   7.715  0.1558 -0.2252  1.0406
 5876TIP3    H239188   4.116   6.459   7.672 -0.0287 -1.2527  0.5232
 5877TIP3   OH239189   4.620   6.489   1.635 -0.0259 -0.5304 -0.2239
 5877TIP3    H139190   4.665   6.407   1.650  0.6630 -0.5163 -2.0145
 5877TIP3    H239191   4.643   6.544   1.710  0.6007 -1.4988  0.2996
 5878TIP3   OH239192   6.288   6.025   1.623  0.1223 -0.1144 -0.1222
 5878TIP3    H139193   6.364   6.077   1.648 -0.3971 -0.2935  1.9773
 5878TIP3    H239194   6.300   6.009   1.529  2.8044 -0.4002  0.2003
 5879TIP3   OH239195   4.362   1.232   0.911 -0.1362  0.1337  0.3070
 5879TIP3    H139196   4.357   1.136   0.908  0.1947  0.1127  0.4081
 5879TIP3    H239197   4.384   1.253   1.002 -1.6294  0.3782  0.6280
 5880TIP3   OH239198   2.772   1.407   8.636 -0.7874 -0.0233  0.2440
 5880TIP3    H139199   2.844   1.460   8.672  0.1041  1.0298 -2.7606
 5880TIP3    H239200   2.727   1.466   8.575 -0.0129 -2.4761 -2.9875
 5881TIP3   OH239201   6.321   1.835   1.461  0.5890 -0.6572  0.4885
 5881TIP3    H139202   6.233   1.863   1.485 -0.3106 -1.8868 -1.1926
 5881TIP3    H239203   6.367   1.916   1.439 -0.5443 -0.1054  0.0582
 5882TIP3   OH239204   6.379   1.154   7.874 -0.2067  0.0925 -0.4299
 5882TIP3    H139205   6.375   1.060   7.852  1.4381 -0.6238  1.9887
 5882TIP3    H239206   6.297   1.171   7.921  1.0184 -1.1187  2.3179
 5883TIP3   OH239207   3.582   6.736   6.576 -0.1663  0.4935 -0.4207
 5883TIP3    H139208   3.524   6.690   6.515  0.3786 -1.1220  0.2103
 5883TIP3    H239209   3.542   6.822   6.587 -0.2058  0.8767 -3.1085
 5884TIP3   OH239210   2.328   2.627   0.450  0.6108 -0.3639  0.4523
 5884TIP3    H139211   2.290   2.689   0.388 -0.5493 -2.1225 -0.6835
 5884TIP3    H239212   2.374   2.564   0.394  2.0628 -0.3714  1.5949
 5885TIP3   OH239213   1.341   6.199   0.723  0.3846  0.7220  0.2810
 5885TIP3    H139214   1.383   6.144   0.790  1.6111  0.8778 -0.3371
 5885TIP3    H239215   1.357   6.289   0.753  0.2837  0.7787  0.1657
 5886TIP3   OH239216   0.213   4.993   0.319 -0.3030 -0.1170 -0.2876
 5886TIP3    H139217   0.279   5.061   0.336 -0.6039 -0.1075  0.9738
 5886TIP3    H239218   0.205   4.946   0.402 -0.6404 -1.2310 -0.9292
 5887TIP3   OH239219   3.895   3.509   8.121 -0.5296  0.3985  0.0897
 5887TIP3    H139220   3.876   3.472   8.035  1.1901  0.8977 -0.5487
 5887TIP3    H239221   3.844   3.590   8.125 -0.3779  0.5299 -0.5948
 5888TIP3   OH239222   3.666   3.176   1.166  0.2485 -0.1731  0.5231
 5888TIP3    H139223   3.734   3.109   1.167 -0.5957 -1.0560  0.4845
 5888TIP3    H239224   3.693   3.237   1.098  1.0166 -0.4815  0.5398
 5889TIP3   OH239225   5.552   3.047   7.675 -0.0047  0.5585  0.4194
 5889TIP3    H139226   5.471   3.090   7.702 -0.0748  0.1735  0.8426
 5889TIP3    H239227   5.613   3.064   7.746  0.9209  2.5032 -0.7643
 5890TIP3   OH239228   0.929   0.267   6.885 -0.7028  0.1502 -0.1689
 5890TIP3    H139229   0.936   0.224   6.800 -1.8680  0.1618 -0.2858
 5890TIP3    H239230   1.017   0.299   6.903 -0.7550  1.5732 -2.1293
 5891TIP3   OH239231   6.662   1.203   1.516  0.4176 -0.2823 -0.0324
 5891TIP3    H139232   6.655   1.113   1.483  0.7343 -0.5660  0.6630
 5891TIP3    H239233   6.575   1.222   1.550  0.2730 -0.2270 -0.4321
 5892TIP3   OH239234   0.211   6.168   1.129 -0.5706 -0.4475 -0.1665
 5892TIP3    H139235   0.192   6.244   1.074 -0.8568 -1.1643 -1.0912
 5892TIP3    H239236   0.150   6.101   1.099  0.8385 -1.5997 -0.5742
 5893TIP3   OH239237   6.864   6.837   7.191  0.3477  0.1269  0.2540
 5893TIP3    H139238   6.900   6.896   7.256 -0.9213  0.5038  0.6296
 5893TIP3    H239239   6.824   6.767   7.242  0.7241 -0.4047 -0.1652
 5894TIP3   OH239240   6.781   6.772   0.264  0.1992 -0.5119 -0.0721
 5894TIP3    H139241   6.827   6.735   0.340  1.7794  0.2852 -0.5991
 5894TIP3    H239242   6.848   6.774   0.195 -0.8138  0.1338 -1.0518
 5895TIP3   OH239243   6.204   4.876   0.775 -0.3514 -0.4352 -0.1857
 5895TIP3    H139244   6.206   4.938   0.701 -1.3899 -0.0178  0.1209
 5895TIP3    H239245   6.136   4.813   0.751  0.5479 -1.3518 -0.3916
 5896TIP3   OH239246   1.199   3.467   1.336 -0.0220 -0.6642  0.1511
 5896TIP3    H139247   1.253   3.447   1.260 -0.6138  2.1981 -1.1711
 5896TIP3    H239248   1.259   3.463   1.410  2.0302  1.7939 -1.1786
 5897TIP3   OH239249   5.273   1.485   7.870 -0.3258  0.2150 -0.3152
 5897TIP3    H139250   5.343   1.485   7.804 -0.9434 -0.3443 -0.9952
 5897TIP3    H239251   5.214   1.415   7.841 -0.6107 -0.0322  0.8415
 5898TIP3   OH239252   0.129   5.849   7.650  0.3787 -0.0283 -0.3934
 5898TIP3    H139253   0.168   5.762   7.641  2.3490  0.5578  1.5807
 5898TIP3    H239254   0.127   5.865   7.745  0.6060  2.3048 -0.7177
 5899TIP3   OH239255   0.278   5.142   8.455 -0.4883 -0.4374 -0.4082
 5899TIP3    H139256   0.266   5.124   8.362 -1.5903 -0.5112 -0.2635
 5899TIP3    H239257   0.189   5.157   8.489 -0.1447 -0.7797  0.7001
 5900TIP3   OH239258   1.616   6.288   7.480 -0.3255  0.2356  0.1566
 5900TIP3    H139259   1.711   6.276   7.484 -0.2833 -0.6859 -2.2242
 5900TIP3    H239260   1.582   6.232   7.550  0.8961  2.1732  2.4761
 5901TIP3   OH239261   0.730   2.648   7.557  0.4783  0.3562  0.0610
 5901TIP3    H139262   0.687   2.733   7.542 -0.1323 -0.0186 -0.3719
 5901TIP3    H239263   0.664   2.583   7.532  2.4001 -0.2761 -4.1647
 5902TIP3   OH239264   5.415   2.598   6.809  0.1608 -0.1321  0.2394
 5902TIP3    H139265   5.435   2.582   6.902  0.7213  1.0847  0.3367
 5902TIP3    H239266   5.426   2.692   6.798  0.7160 -0.3532 -1.2265
 5903TIP3   OH239267   4.408   6.315   7.743 -0.0261  0.5851  0.1493
 5903TIP3    H139268   4.463   6.391   7.761 -1.6783  2.1749 -1.1009
 5903TIP3    H239269   4.467   6.252   7.701  1.4288  1.0566  1.3968
 5904TIP3   OH239270   6.664   5.058   6.672 -0.6279 -0.0503 -0.1496
 5904TIP3    H139271   6.676   5.100   6.757 -1.6975  1.6958 -0.8041
 5904TIP3    H239272   6.715   5.111   6.611  0.4724 -1.5233 -0.5780
 5905TIP3   OH239273   2.385   0.874   8.253  0.1411 -0.2256  0.4403
 5905TIP3    H139274   2.412   0.782   8.261  0.8047 -0.1559 -0.6826
 5905TIP3    H239275   2.467   0.922   8.246 -0.1976  0.5171  1.4967
 5906TIP3   OH239276   6.365   0.235   0.989  0.0064  0.2987  0.5091
 5906TIP3    H139277   6.377   0.329   0.979 -0.3854  0.2412 -0.6157
 5906TIP3    H239278   6.448   0.204   1.026  0.2065  1.0504  0.7006
 5907TIP3   OH239279   5.870   5.372   7.822  0.2046 -0.1417  0.8415
 5907TIP3    H139280   5.912   5.314   7.758 -0.6025 -0.0372  0.2022
 5907TIP3    H239281   5.889   5.460   7.789 -1.8147 -0.0992 -0.3552
 5908TIP3   OH239282   4.849   0.104   2.109  0.3909  0.0144  0.1449
 5908TIP3    H139283   4.765   0.140   2.138 -0.2070  0.2991 -1.8263
 5908TIP3    H239284   4.827   0.047   2.036  1.8642 -0.4394  0.0199
 5909TIP3   OH239285   3.758   6.091   7.114  0.0320 -0.0234 -0.1177
 5909TIP3    H139286   3.827   6.114   7.052  0.2295 -0.2846 -0.0012
 5909TIP3    H239287   3.753   5.996   7.110 -0.6743  0.0258 -0.4893
 5910TIP3   OH239288   5.656   4.136   1.275 -0.0578 -0.0232  0.1499
 5910TIP3    H139289   5.747   4.162   1.263  0.2729 -1.1500  0.1107
 5910TIP3    H239290   5.657   4.081   1.354 -0.3886 -1.5243 -0.8633
 5911TIP3   OH239291   3.777   5.094   8.171 -0.3157 -0.0612 -0.5153
 5911TIP3    H139292   3.798   5.133   8.086 -0.3802  3.5634  0.9685
 5911TIP3    H239293   3.700   5.140   8.201  1.0456  0.5041  2.5036
 5912TIP3   OH239294   1.424   4.819   8.514 -0.0846  0.3426  0.5703
 5912TIP3    H139295   1.436   4.906   8.476  4.7983 -0.1485  0.4043
 5912TIP3    H239296   1.465   4.824   8.600 -1.2895 -1.4296  1.3197
 5913TIP3   OH239297   4.809   0.530   0.120  0.1463 -0.4287  0.3086
 5913TIP3    H139298   4.883   0.470   0.110  0.3154 -0.4611  1.5970
 5913TIP3    H239299   4.833   0.586   0.194  0.4086  1.8986 -1.4134
 5914TIP3   OH239300   5.664   6.699   8.192  0.0373  0.3514  0.0932
 5914TIP3    H139301   5.667   6.739   8.279 -1.0533  1.6301 -0.4151
 5914TIP3    H239302   5.619   6.616   8.205 -0.7677  0.8595  0.6516
 5915TIP3   OH239303   5.808   5.753   0.210  0.8091 -0.3491 -0.0266
 5915TIP3    H139304   5.893   5.789   0.184  0.7247  0.2549  0.5182
 5915TIP3    H239305   5.789   5.687   0.143  1.0192  0.5397 -0.9924
 5916TIP3   OH239306   0.222   0.276   1.983  0.5683  0.7718  0.3068
 5916TIP3    H139307   0.163   0.237   2.048 -1.0210  0.5961 -1.1706
 5916TIP3    H239308   0.298   0.304   2.034  0.6470 -1.8721  1.8139
 5917TIP3   OH239309   0.420   2.876   7.844 -0.0922  0.2822 -0.2819
 5917TIP3    H139310   0.474   2.808   7.804 -0.1896 -0.9282  1.5606
 5917TIP3    H239311   0.331   2.842   7.838 -0.0482 -0.2106  1.4497
 5918TIP3   OH239312   5.693   0.572   0.779 -0.6448  0.0752  0.1330
 5918TIP3    H139313   5.671   0.517   0.855 -0.6750 -0.1880 -0.0632
 5918TIP3    H239314   5.609   0.588   0.736 -0.3662 -2.0209 -1.3583
 5919TIP3   OH239315   3.807   0.451   1.502 -0.1578  0.5335  0.1766
 5919TIP3    H139316   3.826   0.509   1.428 -1.0800 -0.1837 -0.6735
 5919TIP3    H239317   3.820   0.505   1.580  0.7917  1.3275 -0.5112
 5920TIP3   OH239318   2.123   4.842   6.378  0.1565  0.2147 -0.1147
 5920TIP3    H139319   2.041   4.889   6.362  0.2636  0.3009 -0.4133
 5920TIP3    H239320   2.115   4.811   6.468 -0.4320 -0.2461 -0.3180
 5921TIP3   OH239321   4.004   0.908   7.616 -0.0051  0.1663 -0.3059
 5921TIP3    H139322   4.094   0.940   7.609  0.3163 -0.6014  0.3010
 5921TIP3    H239323   3.999   0.868   7.702 -1.1426  0.8363 -0.0312
 5922TIP3   OH239324   4.555   1.706   0.549 -0.3195 -0.0739  0.4309
 5922TIP3    H139325   4.508   1.780   0.587 -1.5036 -0.1638 -0.7956
 5922TIP3    H239326   4.498   1.631   0.564 -0.9788 -0.0663 -1.6968
 5923TIP3   OH239327   2.816   6.524   8.022 -0.1767  0.3853  0.2236
 5923TIP3    H139328   2.788   6.440   7.985 -2.1048  2.2724 -3.1487
 5923TIP3    H239329   2.799   6.515   8.115 -1.1235 -2.6663 -0.1102
 5924TIP3   OH239330   2.943   6.350   7.013 -0.7213  0.3062  0.5251
 5924TIP3    H139331   2.860   6.393   6.991 -0.6276  0.1774 -0.0804
 5924TIP3    H239332   2.998   6.421   7.048 -0.3930  0.7914 -0.9285
 5925TIP3   OH239333   1.447   2.845   7.708 -0.3646  0.6584 -0.1053
 5925TIP3    H139334   1.502   2.842   7.630 -0.3945 -2.6185 -0.1490
 5925TIP3    H239335   1.359   2.825   7.675 -0.5152  0.0424  0.6304
 5926TIP3   OH239336   2.459   2.464   6.273  0.0339  0.3303  0.0761
 5926TIP3    H139337   2.412   2.418   6.204 -0.1679  0.9204 -0.1885
 5926TIP3    H239338   2.399   2.462   6.348  0.6156 -1.0783  0.5182
 5927TIP3   OH239339   3.053   5.203   8.183 -0.5605 -0.1459  0.9132
 5927TIP3    H139340   3.035   5.270   8.249 -1.0885  0.9112 -0.2840
 5927TIP3    H239341   2.980   5.208   8.122 -0.2235 -1.2976  0.3840
 5928TIP3   OH239342   6.048   2.118   0.699 -0.4531  0.4352  0.5774
 5928TIP3    H139343   6.037   2.209   0.727  1.3023  0.7549  0.3321
 5928TIP3    H239344   6.118   2.083   0.754 -1.9476 -1.1947  1.5322
 5929TIP3   OH239345   1.886   5.776   7.572 -0.0631  0.3523  0.2250
 5929TIP3    H139346   1.918   5.757   7.660  1.5709  1.0708 -0.1731
 5929TIP3    H239347   1.939   5.721   7.515  0.8431  1.8998 -0.4981
 5930TIP3   OH239348   5.908   5.196   8.343  0.3949  0.1890  0.6084
 5930TIP3    H139349   5.873   5.254   8.275  0.8585  0.1288  0.3136
 5930TIP3    H239350   5.993   5.168   8.309  0.9841  0.7641  1.5533
 5931TIP3   OH239351   2.500   1.399   0.568  0.3572 -0.3016  0.0970
 5931TIP3    H139352   2.448   1.373   0.644  0.0326 -0.0114 -0.0216
 5931TIP3    H239353   2.535   1.485   0.591 -1.4269  0.7360 -0.8798
 5932TIP3   OH239354   0.459   3.976   0.354  0.1349 -0.5152 -0.8295
 5932TIP3    H139355   0.491   3.887   0.371  0.8963 -0.6809 -2.8255
 5932TIP3    H239356   0.365   3.972   0.372  0.5672 -0.9916  1.6327
 5933TIP3   OH239357   3.788   2.714   1.580  0.6486  0.1841  0.4824
 5933TIP3    H139358   3.817   2.637   1.629  0.0643 -1.4345 -1.5916
 5933TIP3    H239359   3.717   2.751   1.634  1.0327 -0.6280  1.5843
 5934TIP3   OH239360   4.912   3.426   1.450  0.8693 -0.2964  0.4982
 5934TIP3    H139361   4.874   3.343   1.419  0.8901 -0.0386 -0.2307
 5934TIP3    H239362   5.006   3.411   1.449  0.8747 -0.2537  0.3329
 5935TIP3   OH239363   1.938   1.776   7.321 -0.9539  0.7448  0.1161
 5935TIP3    H139364   1.949   1.865   7.288  1.7432  0.3958 -0.1313
 5935TIP3    H239365   1.967   1.780   7.412 -1.2060  0.2031  0.2265
 5936TIP3   OH239366   3.348   6.357   8.539 -0.2799  0.1898 -0.1777
 5936TIP3    H139367   3.254   6.371   8.550 -0.2782 -0.0725  0.1926
 5936TIP3    H239368   3.388   6.423   8.596 -0.2758 -1.5413  1.9239
 5937TIP3   OH239369   4.418   6.232   0.664 -0.2143 -0.0281 -0.3559
 5937TIP3    H139370   4.368   6.298   0.617 -2.0286 -0.5417  0.7667
 5937TIP3    H239371   4.385   6.236   0.754  0.8767 -1.2753  0.1370
 5938TIP3   OH239372   2.116   4.193   1.773  0.6118 -0.4174 -0.4180
 5938TIP3    H139373   2.094   4.225   1.860  0.8919 -0.8244 -0.1937
 5938TIP3    H239374   2.033   4.194   1.725  0.9897  3.1426 -1.2698
 5939TIP3   OH239375   2.635   0.188   2.106 -0.1356  0.1805 -0.1825
 5939TIP3    H139376   2.691   0.128   2.156  2.2337  3.6880  1.8111
 5939TIP3    H239377   2.582   0.232   2.173 -0.4849  1.5676 -1.3341
 5940TIP3   OH239378   6.212   5.011   7.986  0.3576  0.1355 -0.1888
 5940TIP3    H139379   6.175   5.079   7.929 -0.6687 -1.3895 -1.4601
 5940TIP3    H239380   6.277   4.967   7.931  1.1510  0.1906  0.6805
 5941TIP3   OH239381   6.100   5.806   0.141 -0.2604 -0.4489 -0.0347
 5941TIP3    H139382   6.135   5.719   0.161  0.2108 -0.6821 -1.7477
 5941TIP3    H239383   6.177   5.859   0.122 -0.6077  0.0563 -0.0506
 5942TIP3   OH239384   3.982   2.196   7.513  0.0806 -0.1259  0.8927
 5942TIP3    H139385   4.056   2.203   7.573 -0.1962 -1.6050  1.4706
 5942TIP3    H239386   3.949   2.285   7.504  1.2041  0.3765  1.5588
 5943TIP3   OH239387   1.406   4.605   7.647  1.2785  0.3200  0.4523
 5943TIP3    H139388   1.475   4.561   7.697  1.2051  0.1611  0.4124
 5943TIP3    H239389   1.374   4.673   7.707  0.7441 -0.2932  0.8718
 5944TIP3   OH239390   0.277   3.332   8.614  0.5137  0.0037 -0.3727
 5944TIP3    H139391   0.253   3.404   8.671 -1.3993  0.5173 -1.7147
 5944TIP3    H239392   0.318   3.267   8.672 -1.0441  0.6105  1.5004
 5945TIP3   OH239393   5.409   1.154   7.691  0.1301 -0.2598  0.3138
 5945TIP3    H139394   5.402   1.184   7.781 -1.3397 -0.7041  0.3722
 5945TIP3    H239395   5.320   1.130   7.666  0.8262 -2.2142 -0.5406
 5946TIP3   OH239396   4.792   5.200   1.571 -0.0414 -0.2759  0.6237
 5946TIP3    H139397   4.851   5.188   1.497 -0.4155  3.4754 -0.4600
 5946TIP3    H239398   4.704   5.191   1.534 -0.2387  1.8956  0.4684
 5947TIP3   OH239399   5.823   4.370   6.494 -0.8024  1.0026 -0.0907
 5947TIP3    H139400   5.792   4.431   6.427 -3.0066  0.0674  0.0164
 5947TIP3    H239401   5.756   4.371   6.562 -0.2318 -0.5376  0.5468
 5948TIP3   OH239402   0.269   4.311   1.183  0.3263 -0.0911  0.6968
 5948TIP3    H139403   0.177   4.288   1.173  0.6948 -1.1732 -0.4900
 5948TIP3    H239404   0.312   4.270   1.108  1.7422  0.6023  1.0981
 5949TIP3   OH239405   2.819   2.412   7.919  0.9350 -0.1165  0.0987
 5949TIP3    H139406   2.909   2.415   7.951  1.4241 -1.0078 -1.1006
 5949TIP3    H239407   2.825   2.366   7.835 -0.4874  0.8298 -0.5600
 5950TIP3   OH239408   4.006   2.845   7.608  0.1065 -0.1356  0.1912
 5950TIP3    H139409   4.019   2.920   7.551  1.3774  0.9070  1.7590
 5950TIP3    H239410   3.989   2.772   7.549  0.2062  1.1093 -1.4379
 5951TIP3   OH239411   1.281   4.300   7.873  0.1217 -0.2181 -0.0874
 5951TIP3    H139412   1.256   4.388   7.901  0.4923 -0.4031  0.8402
 5951TIP3    H239413   1.376   4.299   7.878  0.2480 -0.1214 -1.8014
 5952TIP3   OH239414   5.573   3.514   2.188 -0.2928  0.0826  0.2530
 5952TIP3    H139415   5.587   3.429   2.229 -1.3052 -0.1539  0.1476
 5952TIP3    H239416   5.490   3.544   2.224 -1.3595 -0.2383 -1.7723
 5953TIP3   OH239417   0.982   2.020   7.228 -0.1954  0.2670  0.4468
 5953TIP3    H139418   1.037   1.951   7.267  0.2693 -0.4133 -1.3006
 5953TIP3    H239419   1.030   2.101   7.246 -1.3864  0.3807  3.6555
 5954TIP3   OH239420   5.254   2.192   6.502 -0.2763 -0.2528  0.0380
 5954TIP3    H139421   5.264   2.273   6.553  0.9173  0.0957 -0.6916
 5954TIP3    H239422   5.339   2.148   6.510 -0.6000 -0.9658 -0.3625
 5955TIP3   OH239423   6.476   0.164   8.482 -0.2200 -0.3994 -0.0560
 5955TIP3    H139424   6.520   0.177   8.566  0.5004  1.7058 -0.6677
 5955TIP3    H239425   6.467   0.070   8.473 -1.7975 -0.6581  3.0840
 5956TIP3   OH239426   1.375   2.651   8.531  0.5661  0.3119 -0.2352
 5956TIP3    H139427   1.371   2.640   8.626  0.2855  2.8164  0.1281
 5956TIP3    H239428   1.362   2.745   8.518  0.4433  0.0090 -2.7764
 5957TIP3   OH239429   2.395   1.094   5.849 -0.0226  0.1449  0.4084
 5957TIP3    H139430   2.474   1.067   5.802  0.0380  0.4706  0.3195
 5957TIP3    H239431   2.410   1.065   5.939  0.8458  1.4703  0.7236
 5958TIP3   OH239432   3.756   4.935   1.909  0.0990 -0.2896 -0.1294
 5958TIP3    H139433   3.756   4.870   1.839  1.7856 -0.4117 -0.0431
 5958TIP3    H239434   3.845   4.934   1.943  0.0057  1.6559  0.2810
 5959TIP3   OH239435   4.682   1.751   6.789  0.3476 -0.0019 -0.6903
 5959TIP3    H139436   4.637   1.807   6.726  0.5511  1.0717  0.0889
 5959TIP3    H239437   4.642   1.665   6.778 -0.8135  0.5673 -1.0896
 5960TIP3   OH239438   3.333   2.542   0.378  0.0784 -0.1047  0.0602
 5960TIP3    H139439   3.261   2.605   0.378 -0.3715 -0.3927  3.8451
 5960TIP3    H239440   3.391   2.572   0.448  1.2331 -2.4281  0.1958
 5961TIP3   OH239441   0.625   3.500   1.077  0.1554  0.1988  0.0128
 5961TIP3    H139442   0.588   3.450   1.005 -1.1764  2.8014 -1.2515
 5961TIP3    H239443   0.715   3.518   1.050 -0.1723  0.6925 -0.7960
 5962TIP3   OH239444   6.195   3.029   0.101  0.5424  0.0002 -0.1292
 5962TIP3    H139445   6.118   3.005   0.049  0.0415 -1.0478  1.0299
 5962TIP3    H239446   6.240   2.946   0.118  1.8421  0.5783 -0.6356
 5963TIP3   OH239447   6.523   2.342   0.751 -0.0241  0.7211  0.8165
 5963TIP3    H139448   6.533   2.268   0.810  1.8648  1.3563  1.3529
 5963TIP3    H239449   6.566   2.415   0.795  2.7451  0.9074 -1.8565
 5964TIP3   OH239450   0.184   0.765   1.065  0.7790  0.2005  0.3548
 5964TIP3    H139451   0.231   0.847   1.079 -0.4397  1.0888 -0.5617
 5964TIP3    H239452   0.167   0.731   1.153  0.6009  1.3312  0.7645
 5965TIP3   OH239453   5.405   0.068   1.544  0.0750 -0.2171  0.0037
 5965TIP3    H139454   5.325   0.097   1.500 -0.9669 -0.0251  1.8847
 5965TIP3    H239455   5.385  -0.021   1.574  0.9183 -0.5217 -0.3193
 5966TIP3   OH239456   3.855   6.853   7.212 -0.1867 -0.0678  0.1268
 5966TIP3    H139457   3.849   6.906   7.291  0.3090  0.8785 -0.4485
 5966TIP3    H239458   3.949   6.846   7.194 -0.2199 -1.3573  0.3149
 5967TIP3   OH239459   5.057   0.261   6.904  0.0930 -0.1220 -0.2318
 5967TIP3    H139460   5.129   0.313   6.939 -2.2509  2.2690  1.3845
 5967TIP3    H239461   5.038   0.195   6.971 -0.5169  0.5820  0.3000
 5968TIP3   OH239462   5.978   0.837   8.106  0.0150 -0.0174 -0.1595
 5968TIP3    H139463   6.023   0.874   8.031 -0.8368  0.9645 -0.2056
 5968TIP3    H239464   5.914   0.903   8.131 -0.3802 -0.7447  0.8264
 5969TIP3   OH239465   4.116   2.701   0.967 -0.1996  0.2706  0.6547
 5969TIP3    H139466   4.023   2.715   0.982 -0.4751 -0.9558  0.2525
 5969TIP3    H239467   4.120   2.614   0.926  1.0178  0.8371 -0.4775
 5970TIP3   OH239468   1.068   1.268   1.368  0.2294  0.3775  0.3450
 5970TIP3    H139469   1.075   1.362   1.385  1.6977  0.3877 -0.1598
 5970TIP3    H239470   0.988   1.259   1.315 -0.8738  1.1023  1.8088
 5971TIP3   OH239471   5.753   1.492   6.771 -0.3774  0.0988  0.2214
 5971TIP3    H139472   5.739   1.441   6.691  1.1387 -1.1537  0.6956
 5971TIP3    H239473   5.669   1.487   6.817 -0.5482 -1.1881 -0.1879
 5972TIP3   OH239474   3.472   2.784   1.250 -1.0801 -0.3012  0.2733
 5972TIP3    H139475   3.568   2.786   1.253 -1.1128  0.7006  2.6655
 5972TIP3    H239476   3.452   2.758   1.160  1.4281 -1.2942 -0.0905
 5973TIP3   OH239477   4.643   6.856   0.328 -0.5099 -0.2653  0.1490
 5973TIP3    H139478   4.562   6.813   0.301 -0.8284 -0.2017  0.9800
 5973TIP3    H239479   4.687   6.879   0.246 -0.1490 -2.4761 -0.3318
 5974TIP3   OH239480   1.936   1.794   6.906 -0.3595  0.3140  0.4172
 5974TIP3    H139481   1.911   1.771   6.817 -1.2872  0.0581  0.7341
 5974TIP3    H239482   1.942   1.711   6.952  0.3119  0.4307  0.5512
 5975TIP3   OH239483   4.468   6.733   7.002 -0.2266  0.0466 -0.1442
 5975TIP3    H139484   4.376   6.754   6.985 -0.6166 -0.4181  1.2738
 5975TIP3    H239485   4.471   6.638   7.007  0.0319  0.0989  1.2140
 5976TIP3   OH239486   2.686   0.566   6.073  0.0279  0.2851 -0.0411
 5976TIP3    H139487   2.743   0.491   6.091  1.3918  1.3776  0.3115
 5976TIP3    H239488   2.689   0.577   5.978  0.0628  0.0940 -0.0626
 5977TIP3   OH239489   4.793   5.719   1.388 -0.3096 -0.0473  0.6710
 5977TIP3    H139490   4.759   5.782   1.451 -1.0697 -0.7914  1.0235
 5977TIP3    H239491   4.716   5.669   1.360 -0.1686  0.8403 -1.5403
 5978TIP3   OH239492   2.438   0.273   6.550 -0.0568 -0.2178  0.2773
 5978TIP3    H139493   2.470   0.299   6.464  1.2530 -0.7708  0.5773
 5978TIP3    H239494   2.389   0.193   6.535  1.8850 -1.4645  0.2807
 5979TIP3   OH239495   2.372   5.142   1.082 -0.0636  0.0730  0.4750
 5979TIP3    H139496   2.365   5.233   1.053 -1.1581  0.0006  0.5060
 5979TIP3    H239497   2.463   5.119   1.063  0.8868  1.8375  2.4246
 5980TIP3   OH239498   1.025   4.014   6.119 -0.0923  0.0205  0.3403
 5980TIP3    H139499   0.949   4.022   6.062 -0.4135 -0.4415  0.6881
 5980TIP3    H239500   1.073   3.938   6.085 -1.0076 -1.1240  1.4637
 5981TIP3   OH239501   2.353   3.879   0.376  0.3029  0.0417 -0.1900
 5981TIP3    H139502   2.417   3.915   0.314 -1.5768  2.8158 -0.6947
 5981TIP3    H239503   2.319   3.800   0.333  0.0794  1.1085 -2.0724
 5982TIP3   OH239504   4.417   6.201   7.381 -0.8576  0.5083 -0.0431
 5982TIP3    H139505   4.435   6.171   7.470  2.0658  1.0255 -0.3673
 5982TIP3    H239506   4.487   6.163   7.328  1.2804  5.0909 -1.0344
 5983TIP3   OH239507   4.871   2.380   8.127  0.1535  0.0837  0.2307
 5983TIP3    H139508   4.795   2.320   8.126  0.8753 -0.8417 -0.3421
 5983TIP3    H239509   4.919   2.359   8.047  0.4180  1.4698  0.0102
 5984TIP3   OH239510   2.780   4.835   6.853  0.1759 -0.0371 -0.3176
 5984TIP3    H139511   2.718   4.763   6.848  0.3974 -0.2728  0.2400
 5984TIP3    H239512   2.848   4.813   6.789 -0.2233  0.1350 -0.8025
 5985TIP3   OH239513   1.218   4.399   6.534 -0.6048 -0.3519  0.1407
 5985TIP3    H139514   1.171   4.325   6.495  1.1968 -2.3009  1.4436
 5985TIP3    H239515   1.300   4.404   6.484 -0.0707 -0.2142  1.0057
 5986TIP3   OH239516   0.840   2.331   0.730 -0.1776 -0.2493  0.8233
 5986TIP3    H139517   0.793   2.352   0.811 -0.7501 -0.7279  0.6219
 5986TIP3    H239518   0.917   2.282   0.759  1.2720  2.1616  1.3181
 5987TIP3   OH239519   5.857   2.489   0.513 -0.2679 -0.1045  0.0422
 5987TIP3    H139520   5.820   2.413   0.468  1.7771 -0.1988 -1.6350
 5987TIP3    H239521   5.884   2.548   0.443  2.8842 -0.1642  1.0690
 5988TIP3   OH239522   1.639   2.808   8.471  0.0749  0.2075  0.0650
 5988TIP3    H139523   1.660   2.724   8.511  0.9970  0.3671 -0.0486
 5988TIP3    H239524   1.603   2.786   8.385 -0.0262 -0.0799  0.1804
 5989TIP3   OH239525   3.214   4.088   7.141  0.5394  0.5802  0.1913
 5989TIP3    H139526   3.144   4.076   7.205  1.0833 -0.2846  0.6339
 5989TIP3    H239527   3.171   4.077   7.056 -0.1332  1.4663  0.4000
 5990TIP3   OH239528   4.289   4.974   7.994  0.5176  0.2981 -0.7712
 5990TIP3    H139529   4.361   5.037   7.988  2.2139 -1.6227 -1.6408
 5990TIP3    H239530   4.236   5.006   8.067  3.6684  0.4289  1.6594
 5991TIP3   OH239531   5.443   2.153   1.204 -0.7911 -0.3237  0.2670
 5991TIP3    H139532   5.501   2.197   1.266  0.1936 -0.3582 -0.5914
 5991TIP3    H239533   5.368   2.126   1.256 -1.4563  2.3513  0.8491
 5992TIP3   OH239534   6.448   1.072   0.860 -0.3585 -0.1871  0.6193
 5992TIP3    H139535   6.543   1.060   0.849  0.0247  1.8802  1.3996
 5992TIP3    H239536   6.419   1.111   0.777  0.1574  2.5361  1.6226
 5993TIP3   OH239537   5.879   6.767   1.565  0.0281  0.1250  0.0685
 5993TIP3    H139538   5.841   6.687   1.528  0.5393  0.4312 -1.1975
 5993TIP3    H239539   5.809   6.831   1.562 -0.3324 -0.2247  0.9223
 5994TIP3   OH239540   4.719   0.591   7.655 -0.1057  0.2350 -0.0041
 5994TIP3    H139541   4.713   0.641   7.574 -1.2510 -0.6082 -0.4571
 5994TIP3    H239542   4.672   0.510   7.637 -0.4295  0.0530  1.5180
 5995TIP3   OH239543   0.785   2.542   0.164  0.3594 -0.0599 -0.4273
 5995TIP3    H139544   0.853   2.476   0.149  1.7411  1.4274 -0.9159
 5995TIP3    H239545   0.762   2.573   0.077 -0.2261  0.1732 -0.1913
 5996TIP3   OH239546   6.682   5.348   7.708  0.1058 -0.0589  0.7213
 5996TIP3    H139547   6.676   5.262   7.666  0.5671  0.0183  0.4950
 5996TIP3    H239548   6.764   5.385   7.674  0.4914 -0.0030  1.6847
 5997TIP3   OH239549   3.454   6.511   0.067  0.5987 -0.1327  0.3128
 5997TIP3    H139550   3.485   6.598   0.092  1.4856  0.0707 -1.3513
 5997TIP3    H239551   3.446   6.464   0.150 -0.8513  1.7997  1.3409
 5998TIP3   OH239552   2.559   5.899   8.204  0.4473 -0.3712 -0.0545
 5998TIP3    H139553   2.652   5.919   8.194  0.0632  1.0392 -1.2351
 5998TIP3    H239554   2.515   5.984   8.196 -0.9838 -1.1035 -0.3835
 5999TIP3   OH239555   5.122   6.440   6.507 -0.5030  0.2533 -0.7439
 5999TIP3    H139556   5.173   6.512   6.470 -0.7367  0.6980 -0.2205
 5999TIP3    H239557   5.052   6.483   6.556 -1.4744 -0.3500 -1.5663
 6000TIP3   OH239558   5.367   4.499   8.270  0.1952 -0.6334  0.7260
 6000TIP3    H139559   5.405   4.417   8.240 -0.6725 -1.1427  0.9787
 6000TIP3    H239560   5.436   4.540   8.322  0.2824 -1.7048  1.4862
 6001TIP3   OH239561   5.916   0.264   7.747  0.4189  0.3242  0.4519
 6001TIP3    H139562   5.876   0.193   7.796  0.2862 -1.4275 -2.0419
 6001TIP3    H239563   5.902   0.342   7.802 -0.5627 -1.3092  2.6645
 6002TIP3   OH239564   5.018   1.735   0.712 -0.1892 -0.3601  0.3219
 6002TIP3    H139565   4.949   1.668   0.715  0.6310 -1.1941  0.9423
 6002TIP3    H239566   4.981   1.804   0.657 -0.9466 -1.4392 -0.5656
 6003TIP3   OH239567   2.225   2.892   8.102 -0.9053 -0.5205 -0.0350
 6003TIP3    H139568   2.285   2.912   8.174 -0.1114 -0.5971 -0.6590
 6003TIP3    H239569   2.258   2.810   8.065 -1.0175 -0.2379 -0.7866
 6004TIP3   OH239570   1.140   6.166   0.113  0.0345 -0.1073  0.3666
 6004TIP3    H139571   1.061   6.191   0.064  0.0149  0.5375  0.7182
 6004TIP3    H239572   1.109   6.153   0.203 -0.2494 -2.8663 -0.0227
 6005TIP3   OH239573   2.354   5.858   1.111 -0.0917  0.8536  0.5508
 6005TIP3    H139574   2.399   5.860   1.196  1.1482 -3.2633  0.2391
 6005TIP3    H239575   2.418   5.893   1.049  1.2984 -1.2562  0.6749
 6006TIP3   OH239576   5.128   2.400   0.574 -0.4671  0.2096 -0.4106
 6006TIP3    H139577   5.125   2.304   0.574 -0.5315  0.1807 -2.0607
 6006TIP3    H239578   5.112   2.424   0.483  2.6758  1.6960 -0.6754
 6007TIP3   OH239579   6.559   6.370   6.761  0.5885  0.1204  0.5725
 6007TIP3    H139580   6.615   6.325   6.824  0.1766 -0.7994  0.3071
 6007TIP3    H239581   6.564   6.315   6.682 -1.4460 -0.5567  0.8444
 6008TIP3   OH239582   3.296   3.455   7.679  0.4860  0.6626 -0.2129
 6008TIP3    H139583   3.228   3.522   7.671  1.4127  1.4432 -2.5849
 6008TIP3    H239584   3.352   3.469   7.603  2.2639 -1.1288  0.6695
 6009TIP3   OH239585   3.720   5.685   0.917 -0.4506 -0.1102  0.5606
 6009TIP3    H139586   3.664   5.748   0.872  1.2246  2.2808  1.6194
 6009TIP3    H239587   3.745   5.728   0.998  1.7002 -1.6802  0.8388
 6010TIP3   OH239588   4.411   1.989   0.217  0.4065 -0.8572  0.2086
 6010TIP3    H139589   4.432   2.029   0.301  0.0155 -1.4188  0.5812
 6010TIP3    H239590   4.481   1.925   0.203  0.5135 -0.7112  0.0623
 6011TIP3   OH239591   0.447   5.953   1.060 -0.1971  0.3417  0.0597
 6011TIP3    H139592   0.431   5.974   1.152  3.6165  0.1276  0.9279
 6011TIP3    H239593   0.508   6.021   1.030 -0.1752 -0.4619 -1.8629
 6012TIP3   OH239594   6.525   5.565   6.859 -0.2117 -0.2498  0.6100
 6012TIP3    H139595   6.543   5.522   6.943 -1.0122  0.4830  1.1738
 6012TIP3    H239596   6.460   5.509   6.817 -1.9982  0.8149  1.7705
 6013TIP3   OH239597   3.273   5.819   0.526  0.0539  0.4932  0.3768
 6013TIP3    H139598   3.264   5.914   0.522 -0.1484  0.5214  1.3443
 6013TIP3    H239599   3.216   5.792   0.598 -0.9787 -0.5212 -0.7650
 6014TIP3   OH239600   0.529   4.556   1.353  0.1333  0.2235  1.5158
 6014TIP3    H139601   0.546   4.622   1.421 -1.5623 -0.6134  2.8378
 6014TIP3    H239602   0.581   4.480   1.380  0.3527  0.2696  1.2268
 6015TIP3   OH239603   1.831   3.776   7.848  1.1668 -0.3618 -0.0758
 6015TIP3    H139604   1.828   3.869   7.825  1.1079 -0.4188 -0.3017
 6015TIP3    H239605   1.919   3.762   7.884  0.9783 -0.0902  0.5131
 6016TIP3   OH239606   2.487   1.866   0.611 -0.4551 -0.1208  0.1529
 6016TIP3    H139607   2.580   1.863   0.633 -0.6388  3.0059  2.0954
 6016TIP3    H239608   2.484   1.912   0.527 -0.2155 -0.3225  0.0356
 6017TIP3   OH239609   5.764   1.797   6.538  0.0416  0.0774  0.1881
 6017TIP3    H139610   5.823   1.821   6.466  0.0830 -0.8606 -0.1059
 6017TIP3    H239611   5.691   1.752   6.496 -0.0199 -0.3291  0.7173
 6018TIP3   OH239612   3.226   3.270   7.330 -0.4262 -0.6987 -0.1831
 6018TIP3    H139613   3.199   3.345   7.383  2.4775 -0.0968  0.6619
 6018TIP3    H239614   3.156   3.206   7.340 -1.9549  1.0627  0.8829
 6019TIP3   OH239615   0.012   0.066   7.922  0.0689 -0.3470  0.4932
 6019TIP3    H139616  -0.002   0.069   8.016  1.5107 -1.0444  0.7565
 6019TIP3    H239617   0.104   0.089   7.910 -0.3391  0.7978 -0.8499
 6020TIP3   OH239618   0.051   6.542   7.251 -0.2495 -0.4501  0.4203
 6020TIP3    H139619  -0.035   6.553   7.209 -0.2738 -1.7717  0.0741
 6020TIP3    H239620   0.113   6.536   7.178 -0.1629 -1.7109  0.5693
 6021TIP3   OH239621   1.452   0.104   1.643  0.4505  0.4240  0.5471
 6021TIP3    H139622   1.401   0.161   1.702 -0.5190 -0.2901  0.4256
 6021TIP3    H239623   1.529   0.080   1.694 -0.7799 -0.8747  1.9096
 6022TIP3   OH239624   6.160   2.255   7.258  0.3793  0.1534 -0.5396
 6022TIP3    H139625   6.135   2.310   7.183 -1.3181  0.1085 -0.0570
 6022TIP3    H239626   6.172   2.168   7.220  0.8955  0.4077 -0.9704
 6023TIP3   OH239627   0.911   6.522   8.454 -0.2321  0.3575  0.3414
 6023TIP3    H139628   0.820   6.491   8.446 -1.5439  3.4026  1.9208
 6023TIP3    H239629   0.960   6.443   8.478 -2.5742 -1.2510  0.2577
 6024TIP3   OH239630   2.697   1.882   1.998  0.0898  0.1739  0.1259
 6024TIP3    H139631   2.657   1.900   1.913  1.4789 -1.3144 -0.9093
 6024TIP3    H239632   2.627   1.846   2.052 -0.1457 -1.8604 -1.4521
 6025TIP3   OH239633   2.611   0.223   6.801 -0.3701 -0.4078  0.1111
 6025TIP3    H139634   2.689   0.176   6.774 -0.9700 -2.1263  1.2382
 6025TIP3    H239635   2.566   0.244   6.719 -0.5224 -2.5999 -0.4135
 6026TIP3   OH239636   5.739   3.188   6.272  0.2137 -0.3098 -0.0887
 6026TIP3    H139637   5.833   3.192   6.251  0.5290  0.7705  1.3782
 6026TIP3    H239638   5.736   3.182   6.367 -1.2167 -0.7060 -0.1406
 6027TIP3   OH239639   4.946   4.844   8.386  0.2857  0.1639  0.1625
 6027TIP3    H139640   4.961   4.843   8.480  0.8005  2.8054  0.1787
 6027TIP3    H239641   5.033   4.860   8.348 -0.0185 -0.2300 -0.7395
 6028TIP3   OH239642   6.277   6.757   0.025 -0.2376  0.1786 -0.5960
 6028TIP3    H139643   6.357   6.766  -0.026 -0.9123  0.5422 -1.6169
 6028TIP3    H239644   6.250   6.847   0.044  0.0891  0.0536  0.5697
 6029TIP3   OH239645   2.241   3.083   8.513 -0.4793  0.5548  0.2521
 6029TIP3    H139646   2.246   2.988   8.507  0.2588  0.5030  1.3160
 6029TIP3    H239647   2.297   3.115   8.442  0.2760  0.1687  0.6614
 6030TIP3   OH239648   4.813   2.415   6.603  0.5098 -0.4851 -0.2035
 6030TIP3    H139649   4.820   2.334   6.552 -1.8677 -0.7483 -0.2303
 6030TIP3    H239650   4.747   2.467   6.557  2.3012  1.7333 -0.4531
 6031TIP3   OH239651   1.752   2.974   1.100  0.7842  0.3609  0.4904
 6031TIP3    H139652   1.719   3.047   1.047 -1.8448  1.2403  3.0921
 6031TIP3    H239653   1.847   2.988   1.104  0.6449  2.1224 -1.1942
 6032TIP3   OH239654   2.416   1.447   0.217 -0.2530  0.3152  0.0603
 6032TIP3    H139655   2.403   1.371   0.274 -0.9171  0.2566 -0.1628
 6032TIP3    H239656   2.457   1.411   0.138  0.0967  0.3044  0.2427
 6033TIP3   OH239657   6.788   6.374   0.510 -0.2521  0.1851 -0.7266
 6033TIP3    H139658   6.786   6.369   0.414 -2.0731 -0.2483 -0.7015
 6033TIP3    H239659   6.841   6.299   0.536  2.9184  2.0066 -1.4182
 6034TIP3   OH239660   2.891   4.055   7.222 -0.5067  0.4880 -0.6480
 6034TIP3    H139661   2.870   4.113   7.296 -0.4249  0.8406 -0.8997
 6034TIP3    H239662   2.858   3.969   7.249  0.2587  0.4351  0.1433
 6035TIP3   OH239663   0.186   3.702   7.218 -0.6697  0.5228  0.0010
 6035TIP3    H139664   0.129   3.710   7.141 -0.7226  0.0708 -0.0097
 6035TIP3    H239665   0.162   3.618   7.256  1.1812 -0.5173 -0.9669
 6036TIP3   OH239666   0.640   2.315   1.516 -0.3706  0.0597 -0.1787
 6036TIP3    H139667   0.630   2.244   1.453 -1.8668 -1.3133  1.4927
 6036TIP3    H239668   0.558   2.315   1.566 -0.0227  2.3434  0.5337
 6037TIP3   OH239669   6.171   0.123   8.386 -0.3320 -0.7892  0.7339
 6037TIP3    H139670   6.181   0.031   8.361 -0.2805 -0.6529  0.2470
 6037TIP3    H239671   6.150   0.120   8.480  1.2427 -1.2231  1.0985
 6038TIP3   OH239672   6.818   4.099   0.159 -0.3162 -0.2778 -0.0186
 6038TIP3    H139673   6.778   4.129   0.240  1.0566 -2.7882  1.7322
 6038TIP3    H239674   6.894   4.048   0.187  0.5690 -0.7765 -2.9340
 6039TIP3   OH239675   5.085   6.307   6.966 -0.4406  0.6935  0.5784
 6039TIP3    H139676   5.116   6.257   6.891 -0.1221 -0.1814  1.2765
 6039TIP3    H239677   5.159   6.364   6.988 -0.2885  0.4762  0.6354
 6040TIP3   OH239678   2.395   5.101   1.597 -0.6481 -0.2744 -0.3232
 6040TIP3    H139679   2.368   5.022   1.643 -2.8771  1.0749  0.8638
 6040TIP3    H239680   2.327   5.116   1.532 -0.5206  0.9293 -0.1971
 6041TIP3   OH239681   1.783   4.796   1.513 -0.2322 -0.1428  0.0957
 6041TIP3    H139682   1.840   4.720   1.501 -0.8167 -0.6093  0.2837
 6041TIP3    H239683   1.800   4.851   1.436  0.5978 -0.1962  0.2344
 6042TIP3   OH239684   1.794   2.455   1.183 -0.1472  0.3828  0.2305
 6042TIP3    H139685   1.871   2.500   1.218  3.3035 -1.4461 -3.9538
 6042TIP3    H239686   1.801   2.366   1.218  0.9597 -0.3183 -1.6051
 6043TIP3   OH239687   6.064   3.460   8.561  0.0024  0.4563 -0.1025
 6043TIP3    H139688   6.140   3.410   8.531  0.1490 -0.5825  1.7940
 6043TIP3    H239689   6.042   3.518   8.488  4.2784  2.8274  0.1772
 6044TIP3   OH239690   1.382   2.380   6.920 -0.1659  0.4062 -0.4873
 6044TIP3    H139691   1.435   2.329   6.860 -1.3568 -0.4298 -0.8656
 6044TIP3    H239692   1.306   2.407   6.868 -1.3954 -0.6170  0.6907
 6045TIP3   OH239693   4.313   5.628   1.330  0.0709 -0.8617  0.0958
 6045TIP3    H139694   4.249   5.579   1.382 -2.4197  3.0072  1.1197
 6045TIP3    H239695   4.273   5.635   1.243 -0.1620  0.1642  0.2685
 6046TIP3   OH239696   0.912   5.374   5.816 -0.6864 -0.3698  0.2651
 6046TIP3    H139697   0.993   5.363   5.866  0.0234 -1.0834 -0.9932
 6046TIP3    H239698   0.934   5.436   5.747 -1.3752 -0.1464  0.2373
 6047TIP3   OH239699   3.707   6.187   7.870 -0.0742  0.1913 -0.4030
 6047TIP3    H139700   3.724   6.187   7.964 -0.8154 -0.1309 -0.2645
 6047TIP3    H239701   3.619   6.223   7.861  0.3599  1.1150 -1.0540
 6048TIP3   OH239702   1.148   2.535   7.061  0.5651  0.5964  0.7229
 6048TIP3    H139703   1.067   2.553   7.109 -0.0072  0.7159 -0.2478
 6048TIP3    H239704   1.123   2.469   6.995  0.7896  1.9715 -0.8018
 6049TIP3   OH239705   5.274   0.754   8.445 -0.0016 -0.5836 -0.4577
 6049TIP3    H139706   5.272   0.766   8.539  0.4152  1.6572 -0.6860
 6049TIP3    H239707   5.186   0.777   8.416  0.6152  1.5316 -0.8373
 6050TIP3   OH239708   6.117   4.237   0.293  0.2427  0.2478  0.6855
 6050TIP3    H139709   6.023   4.226   0.282  0.3266  0.8493 -0.8441
 6050TIP3    H239710   6.126   4.280   0.378 -1.2385  4.0234 -0.8394
 6051TIP3   OH239711   4.871   3.502   0.358 -0.1680  0.2904 -0.0359
 6051TIP3    H139712   4.888   3.515   0.451  1.9484  0.6793 -0.4346
 6051TIP3    H239713   4.789   3.550   0.341 -0.2596  0.7040  1.4826
 6052TIP3   OH239714   0.671   6.272   0.070 -0.0379  0.2065 -0.5300
 6052TIP3    H139715   0.619   6.221   0.008  0.3818 -0.0847 -0.6447
 6052TIP3    H239716   0.751   6.222   0.082 -0.7307 -0.5323  1.4305
 6053TIP3   OH239717   5.841   1.748   0.053 -0.1128  0.4741  0.0497
 6053TIP3    H139718   5.888   1.715   0.130 -0.5493 -0.8521 -0.2231
 6053TIP3    H239719   5.778   1.810   0.089  0.2979  0.5505  0.6657
 6054TIP3   OH239720   6.302   3.798   0.161  1.1558  0.1981 -0.1663
 6054TIP3    H139721   6.297   3.760   0.073  3.2519  0.0851 -0.2860
 6054TIP3    H239722   6.357   3.875   0.151 -0.5044  1.5657  0.6679
 6055TIP3   OH239723   3.353   2.245   7.042  0.0809  0.0650  0.1866
 6055TIP3    H139724   3.431   2.208   7.082  0.6901  0.7255 -0.3633
 6055TIP3    H239725   3.382   2.276   6.956 -0.6036  1.0288  0.2870
 6056TIP3   OH239726   6.195   1.704   2.104  0.2202  0.5476  0.0958
 6056TIP3    H139727   6.267   1.763   2.081 -0.3206  2.2205  2.2912
 6056TIP3    H239728   6.116   1.752   2.081 -0.2200  0.1723  0.7806
 6057TIP3   OH239729   3.651   2.171   0.110  0.3648  0.5378 -0.5327
 6057TIP3    H139730   3.683   2.158   0.021 -0.6209  0.0627 -0.8231
 6057TIP3    H239731   3.646   2.083   0.148  1.0189  0.7539  0.0870
 6058TIP3   OH239732   3.201   6.619   2.617 -0.3678 -0.3025  0.1171
 6058TIP3    H139733   3.276   6.561   2.631  1.1428  1.6007  0.2090
 6058TIP3    H239734   3.198   6.631   2.522  0.6422  1.0891  0.2361
 6059TIP3   OH239735   5.269   5.086   8.323 -0.1817  0.1483 -0.2706
 6059TIP3    H139736   5.209   5.160   8.323  2.9984  3.0095  1.3397
 6059TIP3    H239737   5.312   5.089   8.409  0.6735 -3.1532 -0.4129
 6060TIP3   OH239738   4.882   3.872   1.496 -0.1854 -0.2331 -0.0385
 6060TIP3    H139739   4.933   3.881   1.577  0.5303 -0.2192 -0.4786
 6060TIP3    H239740   4.941   3.826   1.436 -1.5611 -2.5127  0.2088
 6061TIP3   OH239741   3.710   3.163   1.823  0.0516 -0.2321 -0.3162
 6061TIP3    H139742   3.638   3.110   1.856 -0.0693 -1.2345 -2.0717
 6061TIP3    H239743   3.680   3.193   1.737  0.6123  1.7107  0.1081
 6062TIP3   OH239744   0.913   5.751   1.009 -0.0596 -0.6279 -0.3005
 6062TIP3    H139745   0.887   5.659   1.004 -0.7860 -0.4272 -0.2636
 6062TIP3    H239746   0.929   5.767   1.103 -1.6947 -0.2471 -0.0669
 6063TIP3   OH239747   2.263   1.551   1.224  0.4160 -0.3966  0.4720
 6063TIP3    H139748   2.251   1.490   1.151 -1.2074 -1.1766  1.3325
 6063TIP3    H239749   2.266   1.494   1.302  0.4031  0.5161  1.1556
 6064TIP3   OH239750   0.446   4.376   8.279  0.2350  0.0603 -0.3433
 6064TIP3    H139751   0.486   4.311   8.221  1.4919 -0.7586  1.3587
 6064TIP3    H239752   0.377   4.329   8.325  0.1170  0.3657 -0.2025
 6065TIP3   OH239753   0.877   0.914   1.129 -0.6358 -0.6159  0.2172
 6065TIP3    H139754   0.844   0.824   1.138 -1.4383 -0.2183  1.4756
 6065TIP3    H239755   0.895   0.942   1.219 -0.2458  0.4317 -0.1782
 6066TIP3   OH239756   2.490   0.077   0.974  0.1234 -0.4049  0.5858
 6066TIP3    H139757   2.521   0.003   0.922 -2.2815 -1.8339  1.0532
 6066TIP3    H239758   2.482   0.043   1.063  0.1533  0.7807  1.0599
 6067TIP3   OH239759   6.468   2.932   8.053 -0.0310 -0.4977  0.1422
 6067TIP3    H139760   6.550   2.917   8.006 -0.0473 -0.3515  0.0685
 6067TIP3    H239761   6.424   2.846   8.052 -0.9576 -0.0651 -1.8805
 6068TIP3   OH239762   0.535   6.807   7.511  0.1689  0.4130 -0.3008
 6068TIP3    H139763   0.618   6.758   7.511  1.3160  2.1424  1.8820
 6068TIP3    H239764   0.525   6.836   7.421  2.3497  0.7064 -0.5166
 6069TIP3   OH239765   3.560   3.778   7.021 -0.3866 -0.1881 -0.3906
 6069TIP3    H139766   3.530   3.802   6.933 -0.1897 -0.7689 -0.6237
 6069TIP3    H239767   3.504   3.828   7.080  0.9299  1.9439 -0.8522
 6070TIP3   OH239768   2.574   3.163   8.324 -0.3808 -0.0645  0.5979
 6070TIP3    H139769   2.584   3.107   8.401  0.4229 -2.5851 -1.1873
 6070TIP3    H239770   2.643   3.135   8.264 -0.2627  2.5576 -0.6531
 6071TIP3   OH239771   0.843   5.615   6.000 -0.2937  0.1336  0.4612
 6071TIP3    H139772   0.760   5.651   6.030  0.2985  1.4270  0.6302
 6071TIP3    H239773   0.819   5.550   5.934 -1.4096  1.8651 -0.9457
 6072TIP3   OH239774   3.013   2.622   2.487  0.0036 -0.0277  0.2595
 6072TIP3    H139775   3.052   2.572   2.415  1.0585 -0.7947  1.3230
 6072TIP3    H239776   3.061   2.705   2.487 -0.2425  0.1206 -0.1242
 6073TIP3   OH239777   3.669   3.292   1.602 -0.5697  0.0344  0.1055
 6073TIP3    H139778   3.592   3.261   1.555 -0.4390 -1.8539  1.0455
 6073TIP3    H239779   3.733   3.311   1.533 -0.5145 -2.3171 -0.5798
 6074TIP3   OH239780   1.220   3.896   1.543 -0.3789  0.3753  0.2385
 6074TIP3    H139781   1.253   3.893   1.633 -0.1623  0.7999  0.1764
 6074TIP3    H239782   1.199   3.805   1.522 -1.8084  0.4284  1.2319
 6075TIP3   OH239783   5.837   1.661   7.406  0.4910  0.1561 -0.1421
 6075TIP3    H139784   5.820   1.580   7.454 -0.3750 -0.2408 -1.0673
 6075TIP3    H239785   5.773   1.723   7.441  0.2033  0.0165 -0.4144
 6076TIP3   OH239786   3.561   4.619   2.504 -0.4239  0.3142 -0.1134
 6076TIP3    H139787   3.604   4.694   2.463 -2.9987  1.5600 -0.7533
 6076TIP3    H239788   3.563   4.550   2.438 -0.9825  0.9808 -0.8487
 6077TIP3   OH239789   2.240   3.932   1.680 -0.3512 -0.1741  0.8746
 6077TIP3    H139790   2.289   3.903   1.757  0.7623  2.3219  1.2032
 6077TIP3    H239791   2.198   4.014   1.708  0.2382  0.8988 -1.1887
 6078TIP3   OH239792   1.423   5.979   0.233 -0.2831  0.0483 -0.1525
 6078TIP3    H139793   1.336   5.977   0.272 -0.8663 -1.2177 -1.4327
 6078TIP3    H239794   1.439   6.071   0.213 -1.3147  0.2887  0.1152
 6079TIP3   OH239795   0.764   5.976   8.407  0.1115 -0.1123  0.3341
 6079TIP3    H139796   0.812   5.917   8.466  0.5927 -1.3107 -1.2021
 6079TIP3    H239797   0.829   6.040   8.380  1.0033 -1.8113 -1.8489
 6080TIP3   OH239798   2.375   5.636   6.892  0.0227 -0.3962 -0.4351
 6080TIP3    H139799   2.407   5.549   6.871  2.3093  0.7512 -2.0641
 6080TIP3    H239800   2.324   5.663   6.816  2.7854  1.1894 -1.8890
 6081TIP3   OH239801   3.117   1.195   8.259 -0.3249  0.4605 -0.3961
 6081TIP3    H139802   3.198   1.144   8.250 -1.5537 -2.0342  1.4477
 6081TIP3    H239803   3.122   1.232   8.347 -1.1593  0.2797 -0.2634
 6082TIP3   OH239804   6.382   5.572   7.851 -0.2214  0.2869 -1.0556
 6082TIP3    H139805   6.384   5.664   7.824 -1.9614  1.1058  1.2309
 6082TIP3    H239806   6.465   5.558   7.896 -0.5595  1.2628 -0.0630
 6083TIP3   OH239807   2.175   4.973   6.806 -0.6890 -0.4808 -0.8376
 6083TIP3    H139808   2.263   4.938   6.820 -0.5700  0.2519  0.5050
 6083TIP3    H239809   2.123   4.935   6.877 -0.5208  1.9980  0.7541
 6084TIP3   OH239810   0.150   1.202   2.354 -0.1371  0.7001  0.1159
 6084TIP3    H139811   0.129   1.181   2.263  1.1979 -1.6230  0.2460
 6084TIP3    H239812   0.104   1.284   2.371  0.6452  1.9601 -3.0414
 6085TIP3   OH239813   0.505   1.465   7.613  0.0726 -0.3767 -0.4984
 6085TIP3    H139814   0.499   1.387   7.558 -0.1916 -0.1049 -0.8566
 6085TIP3    H239815   0.514   1.538   7.551  1.5982 -0.2302 -0.1482
 6086TIP3   OH239816   0.346   0.724   7.546 -0.0510 -0.4313  0.4861
 6086TIP3    H139817   0.353   0.819   7.543 -1.6299 -0.3003  0.0792
 6086TIP3    H239818   0.384   0.699   7.630  1.1108  0.4683  0.2455
 6087TIP3   OH239819   4.852   3.014   7.730 -0.8072  0.7337  0.0756
 6087TIP3    H139820   4.760   2.992   7.747 -0.5986 -0.0560  0.1988
 6087TIP3    H239821   4.864   2.995   7.637 -0.0923 -1.7017  0.5996
 6088TIP3   OH239822   4.191   6.743   1.120  0.3974 -0.0296  0.7152
 6088TIP3    H139823   4.235   6.689   1.186  0.2509 -0.8063  0.1858
 6088TIP3    H239824   4.099   6.716   1.125  0.2289  0.5361  0.7907
 6089TIP3   OH239825   1.127   4.058   7.518 -0.3495  0.6346  0.4119
 6089TIP3    H139826   1.161   3.993   7.456 -0.6669 -0.4068  1.3020
 6089TIP3    H239827   1.057   4.102   7.470 -2.2238 -1.7789  0.7559
 6090TIP3   OH239828   3.413   6.044   8.194  0.2974  0.2678 -0.2679
 6090TIP3    H139829   3.379   6.102   8.126  0.2985  0.8963  0.2654
 6090TIP3    H239830   3.427   6.100   8.270 -0.6996 -0.6042  0.6068
 6091TIP3   OH239831   2.868   0.142   7.226 -0.4817  0.1641  0.0002
 6091TIP3    H139832   2.807   0.188   7.283 -0.8321 -0.7070  0.3496
 6091TIP3    H239833   2.812   0.100   7.160 -0.2899 -0.7711  0.4174
 6092TIP3   OH239834   5.782   3.315   6.731 -0.4726 -0.4340 -0.3343
 6092TIP3    H139835   5.839   3.364   6.672  0.7035  0.4626  1.4177
 6092TIP3    H239836   5.694   3.331   6.699  0.0599  0.7570 -1.3052
 6093TIP3   OH239837   2.639   1.585   8.488  0.1520 -0.2691 -0.0766
 6093TIP3    H139838   2.639   1.586   8.392 -0.6984 -1.5373 -0.1082
 6093TIP3    H239839   2.551   1.615   8.512 -0.0964 -1.2611  0.2666
 6094TIP3   OH239840   6.505   1.387   0.376  0.0299  0.1068 -0.2069
 6094TIP3    H139841   6.543   1.470   0.404  1.4681 -0.0802 -1.4465
 6094TIP3    H239842   6.548   1.321   0.432 -2.8600  0.2808  2.4686
 6095TIP3   OH239843   5.942   1.209   7.253 -0.0591  0.1707  0.2153
 6095TIP3    H139844   5.884   1.286   7.255 -1.9371 -1.1400 -0.6202
 6095TIP3    H239845   5.976   1.208   7.164 -0.9656 -0.5761 -0.1397
 6096TIP3   OH239846   5.809   6.002   0.511 -0.0663  0.7326  0.1461
 6096TIP3    H139847   5.897   6.021   0.478 -0.2042  1.7234  0.3383
 6096TIP3    H239848   5.819   5.923   0.564  0.7225  0.8965  0.2409
 6097TIP3   OH239849   2.328   5.351   1.477 -0.6319 -0.0791  0.0722
 6097TIP3    H139850   2.291   5.276   1.432 -0.7440  0.3488 -0.5558
 6097TIP3    H239851   2.406   5.374   1.425  0.5249 -0.9461  1.3427
 6098TIP3   OH239852   4.239   4.407   8.191  0.1069  1.0370  0.2162
 6098TIP3    H139853   4.184   4.444   8.122  0.3604  1.8852  0.4516
 6098TIP3    H239854   4.328   4.436   8.169  0.9370 -2.3591 -1.5600
 6099TIP3   OH239855   5.286   3.928   7.539 -0.0326  0.2102 -0.1619
 6099TIP3    H139856   5.272   3.835   7.526 -1.4876  0.2319  1.0032
 6099TIP3    H239857   5.238   3.970   7.467 -0.5573  0.0846  0.1094
 6100TIP3   OH239858   2.419   2.076   7.264  0.0725  0.2455  0.0580
 6100TIP3    H139859   2.508   2.046   7.245  0.1261  0.9319 -0.8407
 6100TIP3    H239860   2.431   2.160   7.308 -0.0705 -1.0164  2.7014
 6101TIP3   OH239861   0.595   1.451   6.623 -0.1120  0.6631 -0.1669
 6101TIP3    H139862   0.636   1.447   6.536  1.9083  1.6168  0.6910
 6101TIP3    H239863   0.623   1.369   6.665  2.8094  2.1728  1.1334
 6102TIP3   OH239864   5.461   6.357   0.116  0.0934  0.7212  0.0671
 6102TIP3    H139865   5.499   6.434   0.158 -0.3546  0.1722  1.5298
 6102TIP3    H239866   5.436   6.387   0.029  0.5025  2.0573  0.3880
 6103TIP3   OH239867   2.082   4.420   7.752  0.6888 -0.7597  0.3908
 6103TIP3    H139868   2.099   4.505   7.711  0.4907 -0.8393  0.1394
 6103TIP3    H239869   2.034   4.371   7.685  1.8939 -1.5214  0.0475
 6104TIP3   OH239870   6.119   0.125   6.227 -0.3167  0.0481  0.2683
 6104TIP3    H139871   6.059   0.080   6.285 -1.6197  0.4911 -0.6905
 6104TIP3    H239872   6.075   0.208   6.206 -0.1199 -0.3057 -1.7210
 6105TIP3   OH239873   0.355   1.358   6.741 -0.7007  0.3039  0.3670
 6105TIP3    H139874   0.400   1.439   6.718  0.7785 -0.0318  1.8379
 6105TIP3    H239875   0.271   1.363   6.696 -0.5096  2.4902  0.1526
 6106TIP3   OH239876   6.406   3.388   0.026 -0.1969 -0.1568 -0.3199
 6106TIP3    H139877   6.379   3.364  -0.062 -0.1021 -1.8267  0.0733
 6106TIP3    H239878   6.434   3.306   0.066  0.1818  0.6364  1.1245
 6107TIP3   OH239879   1.788   6.573   1.672 -0.3352 -0.0745 -0.1483
 6107TIP3    H139880   1.773   6.617   1.756  0.5921 -1.4170  0.7535
 6107TIP3    H239881   1.734   6.494   1.677 -1.0646  0.3474 -1.2493
 6108TIP3   OH239882   5.952   2.805   6.186  0.2623 -0.4720  0.0287
 6108TIP3    H139883   5.940   2.710   6.184  0.2893 -0.4716 -0.7871
 6108TIP3    H239884   6.031   2.820   6.135  0.5511 -0.0466  0.5979
 6109TIP3   OH239885   4.125   6.030   8.220 -0.6943  0.1074  0.2064
 6109TIP3    H139886   4.166   6.037   8.134  2.0617 -1.1947  1.3187
 6109TIP3    H239887   4.168   6.096   8.273 -3.1002  1.6167  0.4123
 6110TIP3   OH239888   5.091   5.848   5.934 -0.0698  0.5070 -0.5807
 6110TIP3    H139889   5.131   5.793   6.002  0.9676  2.8920  0.8889
 6110TIP3    H239890   5.045   5.916   5.983  0.3988  2.1142 -2.2520
 6111TIP3   OH239891   0.890   0.534   8.493 -0.1474 -0.0316 -0.0704
 6111TIP3    H139892   0.807   0.557   8.534 -1.0097 -1.1747 -1.0963
 6111TIP3    H239893   0.887   0.438   8.485  1.1010 -0.0571 -0.4837
 6112TIP3   OH239894   2.198   4.947   1.192 -0.9205 -0.1894 -0.1163
 6112TIP3    H139895   2.178   4.886   1.121  0.3021  0.6378 -1.2313
 6112TIP3    H239896   2.228   5.027   1.147 -0.6815  0.5674  1.3217
 6113TIP3   OH239897   5.574   4.307   8.219  0.4328  0.1095  0.5724
 6113TIP3    H139898   5.533   4.261   8.146 -0.7791  1.3991  0.4015
 6113TIP3    H239899   5.668   4.299   8.204  0.2832 -2.1017  0.4428
 6114TIP3   OH239900   1.709   0.271   0.464  0.0422 -0.2513  0.4325
 6114TIP3    H139901   1.722   0.365   0.449  1.7064 -0.5768 -0.5029
 6114TIP3    H239902   1.617   0.255   0.443  0.2446  0.8236 -1.4847
 6115TIP3   OH239903   0.066   3.005   1.600 -0.1507  0.1948  0.3284
 6115TIP3    H139904  -0.002   3.059   1.641 -0.4056 -0.0157  0.1868
 6115TIP3    H239905   0.035   2.993   1.510 -2.1990 -3.5808  1.3463
 6116TIP3   OH239906   4.072   4.857   1.141 -0.0968 -0.5408  0.1492
 6116TIP3    H139907   4.115   4.909   1.209  0.7569 -0.7493 -0.2254
 6116TIP3    H239908   4.064   4.769   1.180  2.1347 -1.1709 -0.6923
 6117TIP3   OH239909   5.785   6.498   1.598 -0.2758 -0.2051 -0.1583
 6117TIP3    H139910   5.842   6.443   1.653  0.6265 -0.0528 -0.9202
 6117TIP3    H239911   5.702   6.451   1.596 -0.2989 -0.2741  1.2336
 6118TIP3   OH239912   1.659   5.446   8.285  0.2558  0.1742 -0.4270
 6118TIP3    H139913   1.622   5.533   8.299 -1.1832 -0.5258  0.3666
 6118TIP3    H239914   1.591   5.398   8.237  0.6472 -0.7604 -0.0818
 6119TIP3   OH239915   6.137   0.919   6.955  0.4966  0.3651  0.0841
 6119TIP3    H139916   6.101   1.005   6.978 -2.1177 -0.1559 -1.6152
 6119TIP3    H239917   6.070   0.857   6.985  1.3461 -0.9278 -0.6321
 6120TIP3   OH239918   0.885   1.152   7.856 -0.1708  0.4486  0.0947
 6120TIP3    H139919   0.880   1.189   7.944  0.1590  0.2666  0.1890
 6120TIP3    H239920   0.880   1.058   7.869  1.0390  0.3595  0.0126
 6121TIP3   OH239921   6.786   5.136   0.422 -0.5913 -0.1068 -0.1431
 6121TIP3    H139922   6.867   5.090   0.402  0.0417  0.8677  0.1363
 6121TIP3    H239923   6.802   5.177   0.507 -1.1896  0.5402 -0.3360
 6122TIP3   OH239924   0.597   1.397   6.351  0.5869 -0.2002  0.1176
 6122TIP3    H139925   0.540   1.322   6.370 -2.0039  1.1412 -1.6729
 6122TIP3    H239926   0.657   1.365   6.283 -0.1935 -0.8087 -0.3007
 6123TIP3   OH239927   3.371   2.690   0.650  0.3097 -0.6801  0.1724
 6123TIP3    H139928   3.431   2.753   0.610  2.9658 -1.5373  2.5633
 6123TIP3    H239929   3.290   2.741   0.664  2.1486  2.1427  1.5254
 6124TIP3   OH239930   1.137   2.244   1.577  0.0722  0.7765 -0.2810
 6124TIP3    H139931   1.091   2.327   1.560 -1.0404  0.0909 -0.7635
 6124TIP3    H239932   1.092   2.208   1.654 -2.2187 -1.2329 -2.3496
 6125TIP3   OH239933   0.126   3.480   7.366  0.4974 -0.0657  0.7412
 6125TIP3    H139934   0.128   3.388   7.343  0.2652 -0.3716  1.9032
 6125TIP3    H239935   0.114   3.482   7.461 -1.2175  1.1509  0.5604
 6126TIP3   OH239936   6.364   1.207   7.588 -0.0486 -0.0024  0.1683
 6126TIP3    H139937   6.278   1.223   7.548  0.0846  2.7691  0.7767
 6126TIP3    H239938   6.350   1.222   7.681  1.0355  0.2982  0.2956
 6127TIP3   OH239939   6.019   4.937   1.582 -0.0771 -0.1117 -0.0679
 6127TIP3    H139940   5.993   4.947   1.674  0.2315  0.4643 -0.0346
 6127TIP3    H239941   5.943   4.899   1.539 -1.0757  1.7225 -0.0254
 6128TIP3   OH239942   5.208   0.044   0.460 -0.3653 -0.1726  0.8848
 6128TIP3    H139943   5.129   0.076   0.415  0.1740 -1.1879 -0.8916
 6128TIP3    H239944   5.255   0.123   0.484 -0.4142  0.4590 -0.9099
 6129TIP3   OH239945   2.681   1.620   8.224  0.4444 -0.2405  0.5483
 6129TIP3    H139946   2.698   1.586   8.137  2.8744 -0.7632  1.1480
 6129TIP3    H239947   2.599   1.669   8.215 -0.0356 -1.3224 -1.6962
 6130TIP3   OH239948   0.546   4.107   6.934  0.1088 -0.8380 -0.6119
 6130TIP3    H139949   0.516   4.016   6.939 -0.9519 -0.5503 -1.2490
 6130TIP3    H239950   0.604   4.108   6.858 -1.0862 -0.6937 -1.5581
 6131TIP3   OH239951   3.016   5.537   8.130  0.0902 -0.2931  0.0320
 6131TIP3    H139952   3.094   5.528   8.185  0.2866  0.4234 -0.1139
 6131TIP3    H239953   3.052   5.548   8.041 -0.2146 -1.2543 -0.2166
 6132TIP3   OH239954   4.119   5.830   1.829  0.2825  0.0735  0.6229
 6132TIP3    H139955   4.152   5.771   1.762 -1.7934 -0.5091  0.0516
 6132TIP3    H239956   4.092   5.908   1.781  0.3057  0.3145  0.9993
 6133TIP3   OH239957   5.426   1.244   0.128  0.0111  0.6147  0.3427
 6133TIP3    H139958   5.496   1.190   0.164  0.5049  0.7646 -0.3561
 6133TIP3    H239959   5.412   1.312   0.194 -1.9831 -1.4118  2.1591
 6134TIP3   OH239960   6.417   0.828   0.997  0.0021 -0.4295 -0.2060
 6134TIP3    H139961   6.360   0.780   0.938 -0.2708 -1.9987  1.2467
 6134TIP3    H239962   6.451   0.900   0.945 -1.3947 -0.8729 -1.8031
 6135TIP3   OH239963   2.845   0.461   1.029 -0.8531  0.1440 -0.2313
 6135TIP3    H139964   2.826   0.540   0.977  1.4409 -0.2716 -1.8550
 6135TIP3    H239965   2.912   0.490   1.091  0.0372 -0.5095 -0.8707
 6136TIP3   OH239966   3.662   2.671   7.196  0.7101 -0.2982 -0.3189
 6136TIP3    H139967   3.686   2.752   7.152  0.1225  0.1044  0.0984
 6136TIP3    H239968   3.631   2.698   7.282 -1.4605 -0.7642 -0.8912
 6137TIP3   OH239969   1.402   3.730   8.045 -0.2588  0.0204  0.3843
 6137TIP3    H139970   1.454   3.705   8.121  1.7768  0.4438 -0.7885
 6137TIP3    H239971   1.314   3.744   8.079  0.6389  0.4557  2.6976
 6138TIP3   OH239972   5.276   5.086   0.313  0.6664  0.1166  0.6999
 6138TIP3    H139973   5.362   5.127   0.321  0.6313  0.0582  1.4299
 6138TIP3    H239974   5.243   5.081   0.403 -1.0682  2.2266  0.2832
 6139TIP3   OH239975   2.660   2.465   1.394 -0.0864  0.5290 -0.1920
 6139TIP3    H139976   2.621   2.380   1.415  0.8848 -0.0801 -0.7768
 6139TIP3    H239977   2.628   2.524   1.463  0.3862 -0.6375  1.0793
 6140TIP3   OH239978   4.644   2.579   7.892  0.2702 -0.4135  0.2512
 6140TIP3    H139979   4.690   2.572   7.808  0.1095  0.5945  0.0609
 6140TIP3    H239980   4.634   2.673   7.906 -0.9414 -0.5950  0.7294
 6141TIP3   OH239981   4.202   4.314   6.434  0.2267  0.1384  0.2310
 6141TIP3    H139982   4.295   4.324   6.457  0.1941  2.9936 -0.4325
 6141TIP3    H239983   4.183   4.390   6.380 -2.6233 -0.1296  0.7054
 6142TIP3   OH239984   1.837   2.724   1.833 -0.5860  0.6806 -0.4069
 6142TIP3    H139985   1.774   2.674   1.886 -0.3660  1.8489  1.0127
 6142TIP3    H239986   1.787   2.799   1.801 -0.0386  1.4426  0.4640
 6143TIP3   OH239987   3.825   3.585   7.735 -0.3935  0.4358  0.0261
 6143TIP3    H139988   3.785   3.513   7.783 -0.6089  0.4608 -0.1136
 6143TIP3    H239989   3.864   3.640   7.803  0.0331  0.0366  0.1106
 6144TIP3   OH239990   5.199   4.833   6.861 -0.0051 -0.3498  0.2297
 6144TIP3    H139991   5.226   4.901   6.799  1.2011  0.0358  1.1384
 6144TIP3    H239992   5.127   4.788   6.817 -1.0057  1.6394 -0.3205
 6145TIP3   OH239993   6.289   3.349   8.428  0.3133  0.3352  0.0994
 6145TIP3    H139994   6.227   3.287   8.391  0.3672 -0.3395  1.0965
 6145TIP3    H239995   6.360   3.353   8.364  1.4918 -2.5392  1.0700
 6146TIP3   OH239996   3.215   1.329   7.286  0.2593  0.9189 -0.3961
 6146TIP3    H139997   3.286   1.319   7.221 -0.2962  1.8178 -1.1669
 6146TIP3    H239998   3.250   1.392   7.349  0.6210  0.3961 -0.0595
 6147TIP3   OH239999   5.782   3.461   8.192  0.1266  0.0160 -0.1425
 6147TIP3    H140000   5.785   3.550   8.156  0.8061 -0.0880 -0.3534
 6147TIP3    H240001   5.783   3.404   8.115  0.3130 -0.1830  0.0064
 6148TIP3   OH240002   0.519   5.540   2.375  0.1239  0.0900  0.5233
 6148TIP3    H140003   0.562   5.469   2.328 -0.0659  0.3851 -0.0993
 6148TIP3    H240004   0.454   5.495   2.431 -0.1601 -0.2168 -0.0416
 6149TIP3   OH240005   1.849   0.308   1.717 -0.4482 -0.7404  0.2160
 6149TIP3    H140006   1.799   0.226   1.721 -1.9793  0.1399 -0.1355
 6149TIP3    H240007   1.853   0.338   1.808 -0.7174 -0.7276  0.2241
 6150TIP3   OH240008   5.111   0.377   1.146  0.3880  0.3167 -0.2839
 6150TIP3    H140009   5.188   0.349   1.195  0.9526  1.6068 -0.4231
 6150TIP3    H240010   5.106   0.315   1.073  0.8957 -0.1841  0.0971
 6151TIP3   OH240011   4.920   5.678   6.335  0.2377 -0.0360 -0.0324
 6151TIP3    H140012   4.993   5.722   6.291  0.4514  0.1769  0.5225
 6151TIP3    H240013   4.889   5.614   6.271  2.8586 -2.2966  0.7769
 6152TIP3   OH240014   6.479   5.074   0.144  0.4193 -0.5831  0.0747
 6152TIP3    H140015   6.500   4.992   0.190  1.4707 -0.6257 -0.4316
 6152TIP3    H240016   6.521   5.142   0.197  1.9474 -0.6663 -0.9624
 6153TIP3   OH240017   3.997   6.719   7.445 -0.1655  0.2055 -0.3385
 6153TIP3    H140018   3.996   6.698   7.538 -0.4195  0.5506 -0.2610
 6153TIP3    H240019   4.028   6.810   7.441 -2.8905  1.2247 -0.3661
 6154TIP3   OH240020   3.474   2.346   8.506 -0.1716 -0.4763  0.0896
 6154TIP3    H140021   3.460   2.280   8.574 -0.2167 -1.3883 -0.7863
 6154TIP3    H240022   3.423   2.315   8.432  2.6796 -1.4272 -1.6164
 6155TIP3   OH240023   1.497   2.915   0.148 -0.7080 -0.1550 -0.0134
 6155TIP3    H140024   1.503   2.972   0.225  0.4021 -0.6120  0.2617
 6155TIP3    H240025   1.587   2.884   0.134 -1.3363 -2.2203  0.1405
 6156TIP3   OH240026   4.043   3.101   7.026  0.1025 -0.0594  0.1220
 6156TIP3    H140027   3.987   3.169   7.062 -0.8460 -1.0499  0.5884
 6156TIP3    H240028   4.116   3.095   7.088  0.7676  1.2541 -0.5032
 6157TIP3   OH240029   3.791   4.584   0.229 -0.2109 -0.0740 -0.1889
 6157TIP3    H140030   3.810   4.551   0.316  0.7825  1.3192  0.1539
 6157TIP3    H240031   3.803   4.679   0.236 -0.7572  0.1268 -1.6710
 6158TIP3   OH240032   1.126   2.184   0.656 -0.3353  0.0885 -0.9278
 6158TIP3    H140033   1.060   2.120   0.629  0.0075 -0.5559 -0.2859
 6158TIP3    H240034   1.142   2.164   0.748  2.2209 -1.0794 -1.5652
 6159TIP3   OH240035   1.086   1.014   2.381 -0.1686  0.4173 -0.8770
 6159TIP3    H140036   1.015   0.966   2.424 -0.9975  2.4944  0.2524
 6159TIP3    H240037   1.124   0.951   2.320 -0.9483 -1.7375  0.7134
 6160TIP3   OH240038   6.160   0.314   0.818  0.0130  0.1034  0.1120
 6160TIP3    H140039   6.213   0.312   0.898 -0.9582 -1.1132  0.7773
 6160TIP3    H240040   6.075   0.280   0.846  0.0015 -1.4846 -1.6897
 6161TIP3   OH240041   0.052   0.787   1.985 -0.8077 -0.0266 -0.4977
 6161TIP3    H140042  -0.004   0.740   2.047  0.1945  0.3416  0.7275
 6161TIP3    H240043  -0.003   0.859   1.953 -1.3657 -0.2628 -0.0887
 6162TIP3   OH240044   1.585   4.074   0.746 -0.3991  0.3947 -0.5172
 6162TIP3    H140045   1.612   4.060   0.655  1.1063 -0.0080 -0.0297
 6162TIP3    H240046   1.581   4.170   0.754  3.3877  0.6619 -0.0002
 6163TIP3   OH240047   0.043   1.717   0.855  0.1787  0.4035 -0.0416
 6163TIP3    H140048  -0.029   1.777   0.875 -0.5949 -0.0382 -1.3493
 6163TIP3    H240049   0.025   1.640   0.909 -0.0880  0.4619 -0.0460
 6164TIP3   OH240050   4.012   5.626   0.768  0.3312 -0.1298 -0.6094
 6164TIP3    H140051   3.949   5.581   0.824 -0.9353  1.9829 -0.2365
 6164TIP3    H240052   4.051   5.556   0.715 -1.2879 -1.6744  0.1273
 6165TIP3   OH240053   1.987   5.673   8.336  0.3255 -0.4450  1.0255
 6165TIP3    H140054   1.970   5.747   8.395  1.6963  0.9374 -0.2460
 6165TIP3    H240055   1.900   5.645   8.308 -0.2206  1.0106  1.1674
 6166TIP3   OH240056   0.806   2.150   7.396 -0.1190 -0.8813 -0.3887
 6166TIP3    H140057   0.881   2.118   7.346  0.6524  2.5866 -1.6848
 6166TIP3    H240058   0.793   2.240   7.366 -1.4841  0.4583  3.5856
 6167TIP3   OH240059   2.426   1.674   7.854  0.1516 -0.0813 -0.1684
 6167TIP3    H140060   2.490   1.661   7.785  0.9353  0.0274  0.5282
 6167TIP3    H240061   2.370   1.744   7.821  0.2483 -0.3213 -0.8718
 6168TIP3   OH240062   1.848   5.103   6.917  0.7437 -0.1455  0.1605
 6168TIP3    H140063   1.883   5.102   6.828  1.4577 -0.5683  0.4413
 6168TIP3    H240064   1.885   5.026   6.959 -0.4694 -0.5677  0.5008
 6169TIP3   OH240065   1.416   1.873   1.799 -0.2233  0.0034 -0.3914
 6169TIP3    H140066   1.489   1.814   1.818 -0.3959  0.2168  0.9796
 6169TIP3    H240067   1.448   1.960   1.820 -0.5115  0.2320 -0.8673
 6170TIP3   OH240068   1.411   5.088   8.410 -0.3047  0.2543 -0.7454
 6170TIP3    H140069   1.503   5.065   8.412 -0.2645  0.4843  1.0767
 6170TIP3    H240070   1.404   5.153   8.339  1.3480  1.9144  0.5182
 6171TIP3   OH240071   0.737   3.845   8.157 -0.1682 -0.6125 -0.8964
 6171TIP3    H140072   0.744   3.919   8.098  0.6983 -1.4090 -1.8282
 6171TIP3    H240073   0.773   3.771   8.108 -0.5630 -1.5565  0.1763
 6172TIP3   OH240074   4.650   3.587   0.689  0.1123  0.5834  0.2832
 6172TIP3    H140075   4.732   3.549   0.721  0.2580  1.0292  0.4475
 6172TIP3    H240076   4.582   3.529   0.723  0.2420  1.1900  1.6393
 6173TIP3   OH240077   1.280   4.924   1.319 -0.5370  0.0448 -0.1978
 6173TIP3    H140078   1.351   4.890   1.373  0.0455  1.5438  0.0099
 6173TIP3    H240079   1.311   5.008   1.288 -0.7545 -0.8645 -3.1335
 6174TIP3   OH240080   5.067   5.432   7.766  0.0976  0.0695  0.3686
 6174TIP3    H140081   5.036   5.378   7.838 -0.3461  0.1193  0.2242
 6174TIP3    H240082   5.082   5.519   7.805 -0.0940  0.0839  0.4135
 6175TIP3   OH240083   5.456   6.789   0.774 -0.1023 -0.2877 -0.1306
 6175TIP3    H140084   5.390   6.720   0.779 -0.2621 -0.2875 -1.7126
 6175TIP3    H240085   5.474   6.799   0.681  1.1391  0.6688  0.1749
 6176TIP3   OH240086   3.648   6.677   0.980  0.2762  0.0999  0.6678
 6176TIP3    H140087   3.642   6.671   1.076 -1.0467  0.4766  0.6196
 6176TIP3    H240088   3.643   6.770   0.961 -1.9694 -0.0959  0.1037
 6177TIP3   OH240089   0.686   6.646   7.240  0.2811 -0.1561 -0.4159
 6177TIP3    H140090   0.658   6.738   7.233  0.4473  0.0344  1.0817
 6177TIP3    H240091   0.714   6.637   7.331  0.7980 -1.5558 -0.7002
 6178TIP3   OH240092   0.507   3.227   0.124  0.6516 -0.1296 -0.2245
 6178TIP3    H140093   0.546   3.161   0.181  1.0967 -0.1382 -0.5337
 6178TIP3    H240094   0.567   3.234   0.050  0.6039  0.6005 -0.2078
 6179TIP3   OH240095   0.183   2.726   0.722  0.0117  0.5759  0.1034
 6179TIP3    H140096   0.263   2.697   0.766 -0.1832 -1.1764 -0.6359
 6179TIP3    H240097   0.115   2.720   0.789 -0.1394 -1.3551 -0.1801
 6180TIP3   OH240098   2.864   4.353   8.513 -0.0889  0.4600 -0.1339
 6180TIP3    H140099   2.957   4.334   8.497 -0.9443 -1.0844 -4.6912
 6180TIP3    H240100   2.839   4.292   8.583  1.0958 -3.8319 -3.0485
 6181TIP3   OH240101   2.113   1.612   0.522 -0.0982 -0.1244  0.4001
 6181TIP3    H140102   2.192   1.586   0.569 -0.5812  0.6577  1.6934
 6181TIP3    H240103   2.118   1.708   0.517 -1.2147 -0.0145  1.0017
 6182TIP3   OH240104   0.940   6.452   7.753  0.7131  0.1617  0.3559
 6182TIP3    H140105   0.923   6.534   7.800 -0.7446 -0.5234  1.0661
 6182TIP3    H240106   0.865   6.397   7.772  1.6174 -1.3235 -0.2107
 6183TIP3   OH240107   1.218   6.679   7.823  0.1069 -0.1611 -0.0786
 6183TIP3    H140108   1.131   6.714   7.843  0.2691 -0.3735  1.0848
 6183TIP3    H240109   1.230   6.696   7.730  0.0624  2.6048  0.3421
 6184TIP3   OH240110   3.837   6.232   8.334 -0.2603  0.4455  0.4177
 6184TIP3    H140111   3.884   6.246   8.251  0.7626  1.7759  1.1813
 6184TIP3    H240112   3.748   6.263   8.317 -1.0575 -2.3507 -1.1337
 6185TIP3   OH240113   2.422   4.518   0.562  0.1647  0.3373  0.1320
 6185TIP3    H140114   2.434   4.612   0.546 -1.1894  0.7958  1.5437
 6185TIP3    H240115   2.386   4.484   0.480  0.5973  1.0622 -0.3689
 6186TIP3   OH240116   0.867   6.192   0.250  0.5823 -0.6357 -0.1335
 6186TIP3    H140117   0.886   6.101   0.272 -2.4104 -1.2028  0.4195
 6186TIP3    H240118   0.780   6.208   0.285  1.1034  2.5473 -0.0375
 6187TIP3   OH240119   1.513   4.614   0.658  0.0836 -0.0067 -0.0450
 6187TIP3    H140120   1.543   4.537   0.609  1.0450  1.2767 -1.5683
 6187TIP3    H240121   1.586   4.635   0.716 -0.2275 -0.3050  0.4589
 6188TIP3   OH240122   2.125   2.676   1.035 -0.0859  0.3995 -0.1825
 6188TIP3    H140123   2.070   2.744   1.073 -1.3584  0.8214 -2.5885
 6188TIP3    H240124   2.209   2.719   1.020  0.1324  0.4887  1.2299
 6189TIP3   OH240125   6.477   4.536   0.549  0.0584  0.0176 -0.3731
 6189TIP3    H140126   6.514   4.622   0.563  0.9558 -0.0336 -2.1771
 6189TIP3    H240127   6.474   4.496   0.636  1.7141  1.0299  0.1818
 6190TIP3   OH240128   3.938   4.544   7.398  0.1708  0.3575  0.2225
 6190TIP3    H140129   3.944   4.462   7.349 -0.5728  1.0588 -1.0969
 6190TIP3    H240130   3.859   4.535   7.452  0.7811 -0.2671  1.0305
 6191TIP3   OH240131   0.695   4.130   0.570  0.7156  0.1669 -0.2403
 6191TIP3    H140132   0.751   4.196   0.611 -0.2491  1.3995 -0.8520
 6191TIP3    H240133   0.678   4.067   0.641  0.2723  1.4733  0.8554
 6192TIP3   OH240134   0.820   1.977   0.685  0.0236  0.3298  0.7289
 6192TIP3    H140135   0.766   2.007   0.758 -1.3680 -0.1698 -0.0720
 6192TIP3    H240136   0.883   1.916   0.725  0.9856  1.9855  1.8994
 6193TIP3   OH240137   3.586   4.697   0.783  0.5645 -0.5940 -0.4175
 6193TIP3    H140138   3.494   4.676   0.767  0.1729  1.5063 -1.3418
 6193TIP3    H240139   3.583   4.767   0.849  1.5402 -0.9359  0.0009
 6194TIP3   OH240140   4.728   6.688   7.501  0.3105  0.2795 -0.0512
 6194TIP3    H140141   4.734   6.702   7.595 -1.9747 -2.7067  0.6917
 6194TIP3    H240142   4.709   6.774   7.465  0.7314  1.4092  2.2601
 6195TIP3   OH240143   2.244   5.278   0.526  0.2086 -1.0370 -0.0942
 6195TIP3    H140144   2.154   5.293   0.497  1.1547 -0.2417 -2.8626
 6195TIP3    H240145   2.279   5.366   0.540  0.7171 -1.3377  0.5751
 6196TIP3   OH240146   2.011   2.498   0.510  0.1289  0.1235 -0.3489
 6196TIP3    H140147   2.088   2.507   0.567 -0.0663  0.2052 -0.0987
 6196TIP3    H240148   1.984   2.407   0.521 -0.2414  0.2863  0.1171
 6197TIP3   OH240149   4.940   2.961   8.546  0.0301  0.3278 -0.7714
 6197TIP3    H140150   4.880   3.033   8.563  0.0468  0.3327 -0.7337
 6197TIP3    H240151   4.933   2.946   8.451 -0.3116  0.0810 -0.7083
 6198TIP3   OH240152   0.027   1.163   8.253  0.2686  0.0031  0.4641
 6198TIP3    H140153  -0.035   1.163   8.180  0.1517 -0.4780  0.5596
 6198TIP3    H240154   0.087   1.091   8.233 -1.1633 -1.7287  2.0178
 6199TIP3   OH240155   2.343   5.279   6.418 -0.1796 -0.5579  0.3144
 6199TIP3    H140156   2.410   5.307   6.355 -0.9435 -0.2707 -0.3920
 6199TIP3    H240157   2.304   5.201   6.377  1.0414 -1.9270  1.6490
 6200TIP3   OH240158   5.335   6.221   0.960  0.0587 -0.2048  0.6857
 6200TIP3    H140159   5.343   6.126   0.955  1.1342 -0.0781 -0.1871
 6200TIP3    H240160   5.316   6.238   1.053  1.0011 -1.1893  1.0816
 6201TIP3   OH240161   0.880   4.329   8.058  0.3220  0.5079 -0.1682
 6201TIP3    H140162   0.864   4.257   7.996  0.6601  1.0433 -0.9002
 6201TIP3    H240163   0.972   4.322   8.081  0.0641 -0.0258  0.7225
 6202TIP3   OH240164   1.565   4.409   8.644  0.3968  0.4000 -0.1434
 6202TIP3    H140165   1.600   4.491   8.677  0.1931  0.1316  0.7650
 6202TIP3    H240166   1.520   4.433   8.563  0.0302  1.2431  0.2991
 6203TIP3   OH240167   0.543   5.827   2.443  0.0746 -0.9272 -0.5163
 6203TIP3    H140168   0.575   5.743   2.410 -2.2083 -1.5172 -1.3674
 6203TIP3    H240169   0.455   5.809   2.475 -0.3232  1.0859 -0.3589
 6204TIP3   OH240170   1.426   5.320   0.865 -0.7890 -0.6627 -0.0583
 6204TIP3    H140171   1.340   5.360   0.847 -0.6833  0.0542  0.9253
 6204TIP3    H240172   1.416   5.281   0.952 -0.3534 -1.2710 -0.2786
 6205TIP3   OH240173   5.529   2.634   0.465  0.1780 -0.0769 -0.5617
 6205TIP3    H140174   5.465   2.657   0.531  1.9310 -0.7580  1.4872
 6205TIP3    H240175   5.503   2.547   0.435  0.5462 -0.7061  0.8582
 6206TIP3   OH240176   6.833   1.403   7.721  0.9706  0.4690 -0.3743
 6206TIP3    H140177   6.851   1.495   7.743  3.7198  0.5709 -2.5286
 6206TIP3    H240178   6.899   1.353   7.769 -0.9758 -0.5711  1.3882
 6207TIP3   OH240179   2.056   0.275   7.697  0.0884  0.3119 -0.3427
 6207TIP3    H140180   2.055   0.365   7.664 -0.2914  0.2641 -0.4605
 6207TIP3    H240181   1.996   0.276   7.772 -0.4848 -0.0113 -0.7925
 6208TIP3   OH240182   2.167   0.766   8.424 -0.1249 -0.2736  0.1592
 6208TIP3    H140183   2.220   0.844   8.407 -0.8242  0.2367  0.2694
 6208TIP3    H240184   2.092   0.776   8.366  0.1107 -1.2204 -0.3368
 6209TIP3   OH240185   3.057   4.221   8.210  0.7960  0.1396  0.1649
 6209TIP3    H140186   3.037   4.159   8.140  0.8108  0.1838  0.1206
 6209TIP3    H240187   3.150   4.208   8.228  0.6011 -0.4627  0.7646
 6210TIP3   OH240188   3.393   0.447   2.048  0.5339 -0.1940  0.5211
 6210TIP3    H140189   3.302   0.429   2.024  1.3018 -1.5751 -1.6258
 6210TIP3    H240190   3.408   0.395   2.127 -0.1398 -1.1636  0.0286
 6211TIP3   OH240191   4.876   1.315   7.635 -0.1340  0.2636  0.3135
 6211TIP3    H140192   4.793   1.305   7.587 -0.6026  0.4988  1.0590
 6211TIP3    H240193   4.938   1.348   7.570 -0.3489 -0.8836 -0.5173
 6212TIP3   OH240194   2.520   0.270   2.387  0.1445 -0.2011  0.1333
 6212TIP3    H140195   2.442   0.215   2.400  0.0825 -0.1975 -0.2048
 6212TIP3    H240196   2.564   0.270   2.472 -0.0570 -0.4647  0.2394
 6213TIP3   OH240197   5.495   4.495   7.470  1.1301 -0.1533  0.2514
 6213TIP3    H140198   5.555   4.531   7.535  2.2999 -0.5801 -0.5581
 6213TIP3    H240199   5.552   4.458   7.403 -0.0332  0.3331 -1.0620
 6214TIP3   OH240200   4.302   1.013   8.622 -0.4727 -0.5864  0.0685
 6214TIP3    H140201   4.215   0.990   8.656 -0.3179 -1.3514 -0.0412
 6214TIP3    H240202   4.300   0.986   8.531  0.2981 -1.7565  0.3867
 6215TIP3   OH240203   2.712   5.227   0.499  0.0762  0.0987  0.3340
 6215TIP3    H140204   2.783   5.195   0.443  0.5511 -1.5350  1.7923
 6215TIP3    H240205   2.632   5.191   0.460  0.1051  1.0506 -0.6845
 6216TIP3   OH240206   1.266   2.953   7.057 -0.0741 -0.6978 -0.0844
 6216TIP3    H140207   1.279   2.861   7.080 -0.6063 -0.5156  1.0058
 6216TIP3    H240208   1.182   2.955   7.011 -1.7942 -0.3630  2.8077
 6217TIP3   OH240209   4.101   2.851   1.941  0.4766  0.2740  0.1017
 6217TIP3    H140210   4.120   2.830   1.850 -1.9330  2.2269 -0.9698
 6217TIP3    H240211   4.175   2.904   1.970  1.8126 -1.3072 -0.2870
 6218TIP3   OH240212   6.184   4.842   1.073 -0.9199 -0.5877  0.1276
 6218TIP3    H140213   6.164   4.926   1.113  2.8829  0.6766 -0.1957
 6218TIP3    H240214   6.188   4.861   0.979  0.5830 -0.9092  0.1031
 6219TIP3   OH240215   1.389   0.217   8.520 -0.1719 -0.2148  0.1893
 6219TIP3    H140216   1.439   0.175   8.450 -0.5167 -1.2720  0.5567
 6219TIP3    H240217   1.403   0.310   8.506  1.4624 -0.4643 -0.0345
 6220TIP3   OH240218   3.136   0.993   1.217  0.6250  0.5009  0.4264
 6220TIP3    H140219   3.070   0.924   1.218  2.0201 -0.8863  0.6326
 6220TIP3    H240220   3.104   1.058   1.279  0.0792 -0.7663  1.5189
 6221TIP3   OH240221   1.555   5.136   0.730 -0.8779 -0.0975 -0.0532
 6221TIP3    H140222   1.478   5.091   0.695 -0.2126 -1.6490  0.4263
 6221TIP3    H240223   1.519   5.201   0.790 -1.8322 -0.4909 -0.1843
 6222TIP3   OH240224   0.179   3.890   1.548  0.1477 -0.0484 -0.0333
 6222TIP3    H140225   0.160   3.906   1.455  0.0979 -1.4518 -0.2852
 6222TIP3    H240226   0.099   3.915   1.593  0.1081  0.4745 -0.3816
 6223TIP3   OH240227   4.218   3.837   1.341 -0.1775 -0.0565  0.4121
 6223TIP3    H140228   4.266   3.799   1.414 -1.7905  0.2388  1.6794
 6223TIP3    H240229   4.231   3.931   1.350 -1.0944  0.0372  0.8672
 6224TIP3   OH240230   3.744   2.206   0.805  0.0373  0.2950  0.1611
 6224TIP3    H140231   3.743   2.246   0.718 -1.2000 -0.0508 -0.0080
 6224TIP3    H240232   3.655   2.173   0.817  0.3044 -0.0364  1.3920
 6225TIP3   OH240233   4.304   0.913   1.987  0.7066 -0.3198  0.8036
 6225TIP3    H140234   4.226   0.968   1.976 -0.0756 -1.5552  0.0091
 6225TIP3    H240235   4.281   0.853   2.058  0.8152 -0.8944  0.3549
 6226TIP3   OH240236   3.740   2.684   7.546 -0.2569 -0.4145 -0.0756
 6226TIP3    H140237   3.816   2.663   7.492 -0.3676  0.1291 -0.4508
 6226TIP3    H240238   3.689   2.604   7.550  0.6408 -0.9789  0.6896
 6227TIP3   OH240239   1.907   3.451   8.155 -0.3147 -0.0136  0.0400
 6227TIP3    H140240   1.947   3.447   8.068  1.1558 -0.6616  0.6913
 6227TIP3    H240241   1.953   3.522   8.199 -0.0559 -0.5781  0.7122
 6228TIP3   OH240242   0.065   1.233   6.807 -0.8779 -0.0835 -0.0807
 6228TIP3    H140243   0.055   1.268   6.895  1.3802  0.1707  0.1393
 6228TIP3    H240244   0.080   1.310   6.752  0.9972 -0.4279 -0.1081
 6229TIP3   OH240245   5.595   0.305   7.850  0.0808 -0.1162 -0.1071
 6229TIP3    H140246   5.508   0.334   7.877  0.5093  1.1910 -0.0866
 6229TIP3    H240247   5.619   0.238   7.914 -0.6136  0.0202  0.3012
 6230TIP3   OH240248   1.135   5.927   7.837 -0.2151  0.2774 -0.0801
 6230TIP3    H140249   1.219   5.950   7.876 -0.0283 -1.6352  0.7663
 6230TIP3    H240250   1.082   5.896   7.911 -1.0427 -0.2207 -0.8518
 6231TIP3   OH240251   4.339   1.799   6.947 -0.0670  0.2059  0.1109
 6231TIP3    H140252   4.330   1.705   6.931 -1.7082  0.4442 -0.6219
 6231TIP3    H240253   4.409   1.827   6.888 -0.7294 -0.2919 -0.9479
 6232TIP3   OH240254   6.234   0.015   7.637  0.3602  0.4551  0.1245
 6232TIP3    H140255   6.257   0.101   7.673  0.1643  0.8504 -0.6607
 6232TIP3    H240256   6.234   0.029   7.542 -0.6784 -0.1558  0.0233
 6233TIP3   OH240257   3.852   6.012   0.236 -0.0572 -0.2865 -0.1867
 6233TIP3    H140258   3.835   6.105   0.252  2.1901  0.0998  0.2026
 6233TIP3    H240259   3.923   5.990   0.296 -0.5984 -2.2991 -0.2235
 6234TIP3   OH240260   2.644   5.011   2.280  0.3576  0.0579  0.2369
 6234TIP3    H140261   2.619   4.955   2.353 -1.1415 -0.5006 -0.6650
 6234TIP3    H240262   2.720   4.968   2.241  0.4402 -0.2571  0.7413
 6235TIP3   OH240263   2.705   5.221   8.278  0.3077  0.2428 -0.1595
 6235TIP3    H140264   2.732   5.232   8.369  1.5837 -0.5405 -0.4205
 6235TIP3    H240265   2.722   5.306   8.237  3.3783 -0.4325 -0.5254
 6236TIP3   OH240266   3.149   3.661   8.017 -0.0567 -0.5956 -0.0155
 6236TIP3    H140267   3.173   3.577   7.979  0.6956  0.3217 -1.7151
 6236TIP3    H240268   3.192   3.726   7.960 -1.7352  0.9725  0.4007
 6237TIP3   OH240269   5.155   1.653   1.845 -0.4024 -0.0320 -0.1551
 6237TIP3    H140270   5.197   1.612   1.770  1.4153  2.0310 -0.3697
 6237TIP3    H240271   5.152   1.584   1.912 -1.6901 -1.7837 -1.9089
 6238TIP3   OH240272   6.044   5.153   7.325  0.1597 -0.0264 -0.1339
 6238TIP3    H140273   6.084   5.146   7.239 -0.4913 -1.4718 -0.3469
 6238TIP3    H240274   5.950   5.161   7.308 -0.0078 -0.6396  0.4184
 6239TIP3   OH240275   6.296   1.119   7.242  0.1749  0.5622 -0.5398
 6239TIP3    H140276   6.377   1.091   7.201  0.8009  1.0009  0.3507
 6239TIP3    H240277   6.303   1.215   7.248  0.1430  0.5151  0.6048
 6240TIP3   OH240278   2.946   0.779   1.204  0.4860  0.1096  0.1059
 6240TIP3    H140279   2.988   0.719   1.142  0.8529 -0.4056  0.8282
 6240TIP3    H240280   2.889   0.722   1.256 -2.4771  1.0067 -1.9126
 6241TIP3   OH240281   6.178   1.523   1.335 -0.3074  0.3005 -0.3096
 6241TIP3    H140282   6.258   1.489   1.295 -0.1444 -1.6296  1.4461
 6241TIP3    H240283   6.188   1.504   1.429 -2.4042  0.8872  0.1003
 6242TIP3   OH240284   5.514   6.867   0.130 -0.4739 -0.0144  0.2150
 6242TIP3    H140285   5.516   6.950   0.178  0.0626 -0.2960  0.6942
 6242TIP3    H240286   5.468   6.887   0.049  0.5485  1.0174 -0.1409
 6243TIP3   OH240287   1.244   0.890   7.187  0.8506 -0.3190 -0.6368
 6243TIP3    H140288   1.318   0.862   7.240 -1.6474 -0.9341  2.8578
 6243TIP3    H240289   1.200   0.809   7.161 -0.8362  0.0045  0.9695
 6244TIP3   OH240290   6.124   4.930   7.582  0.0621 -0.8120 -0.3186
 6244TIP3    H140291   6.039   4.961   7.612  1.8133  2.4381  1.9116
 6244TIP3    H240292   6.149   4.991   7.512  0.6502 -1.6509 -0.8724
 6245TIP3   OH240293   5.504   2.070   6.550 -0.0688 -0.3966  0.4283
 6245TIP3    H140294   5.536   2.031   6.469 -0.5677 -1.3088  0.6588
 6245TIP3    H240295   5.563   2.144   6.566  0.9974 -1.1455  0.0710
 6246TIP3   OH240296   5.113   0.010   8.659 -0.1347 -0.3279  0.0906
 6246TIP3    H140297   5.161   0.054   8.588 -1.1071 -1.7801 -1.5332
 6246TIP3    H240298   5.144  -0.080   8.657 -2.3708 -1.1630 -0.6025
 6247TIP3   OH240299   4.307   3.859   8.636  0.1533 -0.1408 -0.1058
 6247TIP3    H140300   4.387   3.911   8.635  0.0726 -0.0065 -1.0290
 6247TIP3    H240301   4.320   3.793   8.568 -0.0908 -0.7919  0.4731
 6248TIP3   OH240302   1.343   4.309   1.493 -0.1319  0.0234  0.3235
 6248TIP3    H140303   1.278   4.239   1.488 -2.4896  2.0513  0.5928
 6248TIP3    H240304   1.326   4.363   1.416  2.3530 -0.2001 -0.4639
 6249TIP3   OH240305   0.530   1.495   2.049  0.1106  0.4493  0.5923
 6249TIP3    H140306   0.472   1.477   1.974  0.7766 -1.4793  0.4785
 6249TIP3    H240307   0.473   1.538   2.113 -0.5885  1.7030 -0.8040
 6250TIP3   OH240308   6.332   5.193   7.209  0.2093  0.3544  0.0348
 6250TIP3    H140309   6.349   5.187   7.303 -1.2908  0.9122  0.3678
 6250TIP3    H240310   6.416   5.220   7.172  1.3788 -1.8523  0.9324
 6251TIP3   OH240311   0.571   2.883   0.013 -0.4012  0.5356  0.1407
 6251TIP3    H140312   0.611   2.841  -0.063 -0.9708  0.9818 -0.4241
 6251TIP3    H240313   0.483   2.907  -0.017 -0.7086  0.5320  1.0105
 6252TIP3   OH240314   5.104   2.493   0.318 -0.9218 -0.2970  0.3969
 6252TIP3    H140315   5.143   2.575   0.288 -0.7942  0.3004  2.0910
 6252TIP3    H240316   5.010   2.511   0.320 -0.8826 -0.1246  0.9094
 6253TIP3   OH240317   4.247   1.696   0.688  0.0295 -0.0306  0.1709
 6253TIP3    H140318   4.221   1.773   0.738 -1.5311 -0.8441  0.6723
 6253TIP3    H240319   4.208   1.622   0.735 -1.2810 -0.8678 -2.0419
 6254TIP3   OH240320   4.062   5.061   8.144 -0.2459  0.2472  0.0798
 6254TIP3    H140321   3.975   5.034   8.171  1.0179 -0.9019  3.6125
 6254TIP3    H240322   4.087   5.128   8.207  2.0267 -0.7145  0.3070
 6255TIP3   OH240323   5.027   2.007   6.851 -0.2226 -0.2364 -0.2009
 6255TIP3    H140324   4.976   2.072   6.803  1.5722  1.2501 -0.1853
 6255TIP3    H240325   5.104   1.992   6.796  1.3146  0.6409  1.5991
 6256TIP3   OH240326   1.510   5.269   7.132 -0.8504  0.3183 -0.0499
 6256TIP3    H140327   1.572   5.279   7.204 -0.8438  1.3489 -0.1883
 6256TIP3    H240328   1.505   5.174   7.118 -2.1772 -0.0652  2.4311
 6257TIP3   OH240329   4.630   4.412   8.104 -0.7094 -0.1368  0.3114
 6257TIP3    H140330   4.614   4.409   8.198  0.9006  1.8460  0.7244
 6257TIP3    H240331   4.666   4.326   8.082 -0.8018 -0.5106  1.5637
 6258TIP3   OH240332   1.113   2.100   1.339 -0.3836 -0.2063 -0.8463
 6258TIP3    H140333   1.025   2.118   1.371 -0.0797 -0.4556  0.1717
 6258TIP3    H240334   1.170   2.155   1.392  0.4357 -2.8962  1.3323
 6259TIP3   OH240335   4.725   6.350   0.909  0.0639  0.2220  0.0367
 6259TIP3    H140336   4.800   6.381   0.959  2.5699  0.6386 -3.6061
 6259TIP3    H240337   4.705   6.422   0.849 -1.3113 -1.0148 -1.0728
 6260TIP3   OH240338   2.886   0.537   8.586 -0.0841 -0.1055 -0.6179
 6260TIP3    H140339   2.955   0.600   8.606  0.3935 -0.2784 -1.6674
 6260TIP3    H240340   2.870   0.492   8.669  2.3261 -1.2988 -0.7054
 6261TIP3   OH240341   5.659   4.049   7.425  0.1688  0.1058  0.2329
 6261TIP3    H140342   5.615   4.000   7.356  1.1119  0.0701 -0.3517
 6261TIP3    H240343   5.635   4.140   7.408 -1.3002 -0.0665  1.1178
 6262TIP3   OH240344   0.854   4.066   7.117  0.5264 -0.2735 -0.2239
 6262TIP3    H140345   0.782   4.019   7.159  1.0277 -1.0299 -0.1843
 6262TIP3    H240346   0.892   4.003   7.057  1.9768 -0.3410  0.7059
 6263TIP3   OH240347   2.767   6.749   7.440 -0.0380 -0.7109  0.1573
 6263TIP3    H140348   2.800   6.751   7.350  0.3383  0.8103  0.3067
 6263TIP3    H240349   2.673   6.759   7.431  0.1299  0.9424 -0.0311
 6264TIP3   OH240350   0.108   4.017   7.040  0.1502  0.2647 -0.0801
 6264TIP3    H140351   0.180   4.075   7.016  0.5892  1.1732  2.9712
 6264TIP3    H240352   0.143   3.965   7.113 -1.2838 -1.5827 -0.6468
 6265TIP3   OH240353   4.090   4.540   7.619  0.0445 -0.1963  0.0506
 6265TIP3    H140354   4.176   4.582   7.614  0.3375 -0.3367  2.7260
 6265TIP3    H240355   4.049   4.560   7.534  1.9063  1.6071 -0.5129
 6266TIP3   OH240356   4.245   1.435   1.435  0.2914 -0.3066 -0.0417
 6266TIP3    H140357   4.331   1.441   1.395  0.5115 -0.0522  0.4595
 6266TIP3    H240358   4.261   1.446   1.529 -0.2306 -0.7443  0.1028
 6267TIP3   OH240359   4.246   4.231   1.093 -0.4713  0.3707  0.0766
 6267TIP3    H140360   4.154   4.224   1.067 -0.7667  0.6351  0.9807
 6267TIP3    H240361   4.277   4.310   1.049 -1.1036  1.0986  0.8957
 6268TIP3   OH240362   5.951   2.864   8.173  0.0238  0.2719 -0.3996
 6268TIP3    H140363   5.922   2.952   8.198  1.6391 -0.0562  3.2935
 6268TIP3    H240364   6.046   2.871   8.166  0.1303 -1.0945 -0.6242
 6269TIP3   OH240365   6.453   4.065   1.122 -0.1041 -0.0986  0.0812
 6269TIP3    H140366   6.396   4.036   1.193 -1.6670 -0.8453 -1.4116
 6269TIP3    H240367   6.487   3.984   1.083  0.9261  0.3057  0.1037
 6270TIP3   OH240368   2.087   3.617   2.675  0.0827  0.2330  0.1346
 6270TIP3    H140369   2.164   3.643   2.624 -0.6418 -1.7698 -2.1947
 6270TIP3    H240370   2.064   3.531   2.640 -2.0082 -0.1233  2.2013
 6271TIP3   OH240371   5.928   0.620   6.243  0.0070  0.7936 -0.9809
 6271TIP3    H140372   5.950   0.695   6.187 -0.2340 -0.6709 -3.1421
 6271TIP3    H240373   6.007   0.567   6.243 -0.0161  0.7501  0.0732
 6272TIP3   OH240374   3.400   1.073   1.234  0.1071  0.3889 -0.4918
 6272TIP3    H140375   3.419   1.112   1.319  2.4060  1.9399 -1.6055
 6272TIP3    H240376   3.308   1.049   1.239  0.1959  0.3019  2.4519
 6273TIP3   OH240377   6.719   1.076   1.184 -0.3413 -0.2026  0.8208
 6273TIP3    H140378   6.744   1.166   1.163 -1.9920  0.1693  0.3197
 6273TIP3    H240379   6.724   1.029   1.101  1.3778 -0.8262  1.2374
 6274TIP3   OH240380   4.052   0.999   7.093  0.0263  0.5271  0.4136
 6274TIP3    H140381   3.973   1.050   7.112  0.2062  0.6239  0.9299
 6274TIP3    H240382   4.097   0.993   7.177 -0.2584 -0.9599  0.4807
 6275TIP3   OH240383   6.175   6.081   7.897  0.0862 -0.1916 -0.7587
 6275TIP3    H140384   6.259   6.053   7.862  2.5001  0.5138  3.7391
 6275TIP3    H240385   6.140   6.003   7.940 -1.2918 -0.2781 -1.9666
 6276TIP3   OH240386   3.385   3.277   1.492  0.2902  0.3956 -0.6493
 6276TIP3    H140387   3.362   3.218   1.563  0.9297 -0.2584 -0.9720
 6276TIP3    H240388   3.385   3.222   1.414 -0.7258  1.1682 -1.2254
 6277TIP3   OH240389   6.492   1.854   1.758  0.0959  0.4427  0.2128
 6277TIP3    H140390   6.585   1.873   1.762  0.5982 -0.8829 -2.7632
 6277TIP3    H240391   6.463   1.890   1.675 -1.9241  0.2774  0.7882
 6278TIP3   OH240392   0.383   5.637   1.935 -0.2492  0.0101  0.0283
 6278TIP3    H140393   0.305   5.692   1.940 -2.5732 -3.0031 -0.7538
 6278TIP3    H240394   0.399   5.626   1.842 -0.4787 -1.4595  0.1460
 6279TIP3   OH240395   1.679   1.936   1.755  0.1075 -0.4382 -0.2661
 6279TIP3    H140396   1.627   2.001   1.802  1.8784  0.4669  0.5767
 6279TIP3    H240397   1.715   1.879   1.824  2.9923  1.0902 -0.3232
 6280TIP3   OH240398   2.350   5.616   8.651  1.0147  0.1587  0.3663
 6280TIP3    H140399   2.324   5.707   8.637  1.2555  0.3208  0.9291
 6280TIP3    H240400   2.435   5.622   8.695  1.5163 -0.3495 -0.5018
 6281TIP3   OH240401   4.004   1.493   7.746 -0.0954 -0.4488 -0.2333
 6281TIP3    H140402   4.027   1.505   7.653  2.0020  0.7969  0.3852
 6281TIP3    H240403   4.028   1.402   7.765  0.9602 -0.2542 -0.5525
 6282TIP3   OH240404   2.107   0.139   0.190 -0.2142  0.1158  0.6415
 6282TIP3    H140405   2.165   0.120   0.116  1.0853  0.1807  1.6076
 6282TIP3    H240406   2.086   0.054   0.227 -0.1712  0.1373  0.7148
 6283TIP3   OH240407   3.590   1.499   7.822  0.1290  0.0477 -0.0866
 6283TIP3    H140408   3.565   1.462   7.907  0.1692 -0.4649 -0.2958
 6283TIP3    H240409   3.668   1.551   7.841  1.3199 -1.6383 -0.1365
 6284TIP3   OH240410   6.035   0.021   1.237  0.7144  0.2048  0.0140
 6284TIP3    H140411   6.020  -0.048   1.173 -0.9232  0.5834 -0.0500
 6284TIP3    H240412   6.122   0.003   1.272  0.6729 -1.3648 -0.6271
 6285TIP3   OH240413   1.338   2.950   8.589 -0.3503  0.1203  0.4883
 6285TIP3    H140414   1.393   2.923   8.663 -1.0198 -2.5946  0.0920
 6285TIP3    H240415   1.266   2.999   8.629  0.6472  0.9188  1.3434
 6286TIP3   OH240416   6.126   1.243   0.501  0.2151 -0.2286  0.2937
 6286TIP3    H140417   6.074   1.164   0.486  1.5525 -0.7635 -2.0571
 6286TIP3    H240418   6.150   1.273   0.413 -2.1260  4.2023  0.8777
 6287TIP3   OH240419   1.818   2.764   7.351 -0.0810 -0.4481 -0.5941
 6287TIP3    H140420   1.777   2.754   7.265 -0.0953  0.3091 -0.6865
 6287TIP3    H240421   1.798   2.683   7.397  0.7373 -1.2698 -1.6334
 6288TIP3   OH240422   4.422   6.472   8.521  0.2801 -0.1183 -0.1092
 6288TIP3    H140423   4.412   6.558   8.563 -0.5924  0.0700 -0.6637
 6288TIP3    H240424   4.341   6.461   8.470  1.2074 -0.4073 -1.5955
 6289TIP3   OH240425   0.445   6.372   6.314  0.5593 -0.7791  0.1221
 6289TIP3    H140426   0.450   6.465   6.337 -0.7397 -0.4012 -0.9740
 6289TIP3    H240427   0.459   6.369   6.219 -0.8003 -1.5191 -0.0847
 6290TIP3   OH240428   2.829   0.352   6.106  0.5344  0.4870  0.5144
 6290TIP3    H140429   2.809   0.328   6.197  0.2205 -1.1499  0.0408
 6290TIP3    H240430   2.894   0.287   6.078 -1.4637 -0.8412 -1.3075
 6291TIP3   OH240431   1.491   4.653   8.127  0.7009 -0.2171  0.3019
 6291TIP3    H140432   1.537   4.736   8.141  0.1941  0.5321 -2.0304
 6291TIP3    H240433   1.560   4.592   8.100  1.0049 -0.4638  1.5745
 6292TIP3   OH240434   0.032   4.717   2.049  0.2265  0.1138 -0.7759
 6292TIP3    H140435  -0.019   4.683   1.975  0.8464 -0.5859 -0.8876
 6292TIP3    H240436  -0.035   4.740   2.115 -0.4515  2.1875 -2.0859
 6293TIP3   OH240437   3.232   4.925   0.508 -0.1929 -0.5948 -0.4011
 6293TIP3    H140438   3.292   4.850   0.506  0.6859  0.0556  0.5157
 6293TIP3    H240439   3.195   4.923   0.596  0.8259  0.7811  0.0831
 6294TIP3   OH240440   4.729   2.577   1.816  0.7121  0.0072  0.1184
 6294TIP3    H140441   4.716   2.626   1.896 -1.1039  1.4186 -0.9545
 6294TIP3    H240442   4.658   2.513   1.815  0.6684  0.0592 -0.4063
 6295TIP3   OH240443   5.395   2.603   0.955 -0.0792  0.0996  0.0833
 6295TIP3    H140444   5.486   2.573   0.953  0.4076  1.4911 -2.2535
 6295TIP3    H240445   5.352   2.553   0.886 -0.6718  0.6702  0.0329
 6296TIP3   OH240446   5.868   3.270   1.518  0.4616  0.7344  0.7326
 6296TIP3    H140447   5.900   3.342   1.465 -1.0515  0.4734 -0.6108
 6296TIP3    H240448   5.946   3.237   1.563  1.8369  0.9763 -1.3205
 6297TIP3   OH240449   1.599   3.975   0.460  0.3213 -0.0275 -0.1558
 6297TIP3    H140450   1.636   4.047   0.408 -0.8182  0.9729  0.3722
 6297TIP3    H240451   1.599   3.900   0.400  0.2263  0.7718 -1.1845
 6298TIP3   OH240452   0.119   3.417   0.816 -0.0093 -0.4136  0.1945
 6298TIP3    H140453   0.039   3.466   0.798  0.7853  0.9745  0.3004
 6298TIP3    H240454   0.185   3.457   0.759  0.6250 -1.5156  0.1231
 6299TIP3   OH240455   6.618   5.480   7.129 -0.0249  0.0219  0.0027
 6299TIP3    H140456   6.557   5.490   7.202  0.3726 -0.2960  0.3921
 6299TIP3    H240457   6.677   5.410   7.157  0.7726  0.5995 -0.1887
 6300TIP3   OH240458   5.950   1.213   0.893  0.3540 -0.1117  0.0851
 6300TIP3    H140459   5.945   1.254   0.979  0.4368 -1.4206  0.7530
 6300TIP3    H240460   5.976   1.122   0.912 -0.7605 -0.7326 -1.2334
 6301TIP3   OH240461   6.506   2.175   1.008 -0.2687 -0.2452  0.4025
 6301TIP3    H140462   6.481   2.084   1.023 -0.3269 -0.4198 -0.6847
 6301TIP3    H240463   6.423   2.221   0.995 -0.2151 -0.1327  0.4562
 6302TIP3   OH240464   6.133   4.149   7.880  0.0336  0.2434  0.7298
 6302TIP3    H140465   6.191   4.191   7.943  1.2845  0.6482 -0.6413
 6302TIP3    H240466   6.168   4.174   7.795 -1.7238 -0.1352 -0.1447
 6303TIP3   OH240467   0.890   3.913   6.908 -0.4533  0.0219  0.1089
 6303TIP3    H140468   0.896   3.890   6.815  0.1391  1.4423 -0.2224
 6303TIP3    H240469   0.958   3.859   6.950 -0.9315 -0.8573 -0.2195
 6304TIP3   OH240470   0.775   2.854   0.463 -0.4943 -0.0100  0.3431
 6304TIP3    H140471   0.697   2.860   0.408 -0.9842 -2.5049  0.6621
 6304TIP3    H240472   0.848   2.844   0.401 -0.7377 -0.2230  0.0887
 6305TIP3   OH240473   5.371   3.219   1.238  0.2166  0.3152  0.5566
 6305TIP3    H140474   5.434   3.277   1.280  0.1691 -0.0922  1.2014
 6305TIP3    H240475   5.424   3.165   1.179  0.2379  1.1153 -0.1745
 6306TIP3   OH240476   4.888   0.160   6.478  0.4225  0.3693 -0.1659
 6306TIP3    H140477   4.830   0.092   6.512  0.8373 -0.5274 -1.1882
 6306TIP3    H240478   4.884   0.150   6.383  1.7516  0.7037 -0.2749
 6307TIP3   OH240479   5.829   2.206   8.461  0.1840 -0.0300 -0.4196
 6307TIP3    H140480   5.884   2.147   8.513  0.9405 -1.0782 -2.2619
 6307TIP3    H240481   5.821   2.161   8.376  0.2445  2.2268 -1.6987
 6308TIP3   OH240482   0.632   5.273   6.911  0.5902 -0.0681 -0.3047
 6308TIP3    H140483   0.590   5.195   6.946  2.2058 -1.9840 -2.3456
 6308TIP3    H240484   0.572   5.305   6.843 -0.5011  1.0894  1.1402
 6309TIP3   OH240485   1.760   3.893   1.235  0.0960 -0.4886 -0.3430
 6309TIP3    H140486   1.832   3.849   1.280  0.6928 -1.8720 -2.4734
 6309TIP3    H240487   1.685   3.836   1.247 -0.0771 -0.1981 -0.0261
 6310TIP3   OH240488   2.799   4.940   8.229 -0.0308  0.0065 -0.4686
 6310TIP3    H140489   2.776   5.032   8.238  1.4650  0.4014 -0.5259
 6310TIP3    H240490   2.868   4.938   8.163 -0.8482 -1.3029 -1.3318
 6311TIP3   OH240491   0.113   3.019   1.312 -0.1275  0.0227 -0.1179
 6311TIP3    H140492   0.169   2.943   1.329 -2.6287 -1.9294 -0.0193
 6311TIP3    H240493   0.120   3.035   1.218 -2.2594 -2.7765 -0.8985
 6312TIP3   OH240494   0.069   1.773   7.205 -0.6548 -0.1689 -0.2677
 6312TIP3    H140495   0.163   1.789   7.207 -0.9093  1.5412 -0.4712
 6312TIP3    H240496   0.054   1.725   7.123  0.3962 -3.4810  1.3085
 6313TIP3   OH240497   2.795   5.433   7.848  0.2928  0.4190 -0.3687
 6313TIP3    H140498   2.796   5.482   7.766 -1.9220 -0.1068 -0.7748
 6313TIP3    H240499   2.718   5.465   7.894 -0.4356 -1.6376 -0.0401
 6314TIP3   OH240500   3.335   5.921   7.489  0.0268  0.0744 -0.1771
 6314TIP3    H140501   3.352   5.960   7.574 -0.1995 -2.1627  0.9690
 6314TIP3    H240502   3.416   5.936   7.439 -0.7513  3.7331 -0.6338
 6315TIP3   OH240503   2.752   3.102   8.147 -0.0277 -0.0730  0.4273
 6315TIP3    H140504   2.816   3.037   8.176 -0.3225 -0.1228  0.9774
 6315TIP3    H240505   2.739   3.083   8.054 -0.1455 -0.8318  0.5951
 6316TIP3   OH240506   5.314   5.777   7.683  0.4542 -0.2921 -0.2757
 6316TIP3    H140507   5.355   5.864   7.682  3.1179 -1.4296  0.1368
 6316TIP3    H240508   5.310   5.752   7.591  1.1192 -0.3092 -0.3101
 6317TIP3   OH240509   1.556   4.664   0.962 -0.1694  0.1096  0.7369
 6317TIP3    H140510   1.464   4.684   0.949  0.2736  1.1789 -1.0411
 6317TIP3    H240511   1.557   4.600   1.034 -2.2780  0.0030  0.7192
 6318TIP3   OH240512   2.463   4.824   0.537  0.4813 -0.2950 -0.2738
 6318TIP3    H140513   2.485   4.818   0.630 -1.7090 -0.9360  0.2687
 6318TIP3    H240514   2.380   4.872   0.535 -0.0701 -1.2205 -1.7889
 6319TIP3   OH240515   3.201   5.004   0.756  0.1511 -0.4028  0.0074
 6319TIP3    H140516   3.156   5.071   0.807  1.1200 -0.9504  1.6645
 6319TIP3    H240517   3.289   5.040   0.743  0.7945 -1.4417  1.2255
 6320TIP3   OH240518   2.566   2.188   1.410 -0.4690  0.2987  0.6370
 6320TIP3    H140519   2.649   2.160   1.371 -0.6290  0.2404  0.3326
 6320TIP3    H240520   2.566   2.150   1.497 -1.2732 -1.8118 -0.2175
 6321TIP3   OH240521   4.730   3.962   8.626  0.4147  0.2639  0.5365
 6321TIP3    H140522   4.819   3.975   8.594  0.8602 -1.3330  1.0514
 6321TIP3    H240523   4.679   3.945   8.547  0.6376  0.7389  0.2825
 6322TIP3   OH240524   2.082   2.535   0.786 -0.4112 -0.3506 -0.1174
 6322TIP3    H140525   2.099   2.565   0.876 -0.8559  0.4939 -0.3044
 6322TIP3    H240526   1.994   2.565   0.768 -1.1993 -2.4780 -0.0578
 6323TIP3   OH240527   0.914   4.166   7.407 -0.4406  0.7152 -0.7641
 6323TIP3    H140528   0.937   4.145   7.316  1.1572  0.5802 -0.3563
 6323TIP3    H240529   0.836   4.114   7.425  0.2385 -0.6131 -1.5171
 6324TIP3   OH240530   5.696   2.179   1.395  0.2134  0.3618  0.1434
 6324TIP3    H140531   5.636   2.147   1.462 -1.1405 -0.0822 -1.2348
 6324TIP3    H240532   5.781   2.186   1.440 -0.3776 -1.1127  1.5618
 6325TIP3   OH240533   5.513   5.908   5.872 -0.1689  0.7625 -0.0491
 6325TIP3    H140534   5.583   5.894   5.936  0.6412  4.4602  0.1139
 6325TIP3    H240535   5.549   5.873   5.790  0.6138 -0.0548  0.6213
 6326TIP3   OH240536   1.549   4.281   7.923 -0.1116 -0.3496 -0.1969
 6326TIP3    H140537   1.598   4.332   7.988 -1.6930  1.6108 -0.4401
 6326TIP3    H240538   1.513   4.208   7.972  1.6790 -0.9529  0.3150
 6327TIP3   OH240539   0.511   4.586   0.394  0.5925  1.0235 -0.1922
 6327TIP3    H140540   0.538   4.623   0.310  0.2345  0.0918 -0.7335
 6327TIP3    H240541   0.505   4.661   0.452  1.3190  1.6252 -0.8695
 6328TIP3   OH240542   5.681   5.000   0.048 -0.3549  0.0134 -0.6913
 6328TIP3    H140543   5.714   4.993   0.138  0.6657  0.3806 -1.0251
 6328TIP3    H240544   5.694   5.092   0.025 -0.8390 -0.0241 -1.1397
 6329TIP3   OH240545   4.971   6.844   7.659 -0.2156  0.4569  0.0340
 6329TIP3    H140546   5.061   6.843   7.690 -0.7546  0.0420  1.6842
 6329TIP3    H240547   4.921   6.884   7.730 -1.7207 -1.7006  0.3029
 6330TIP3   OH240548   1.527   3.014   7.298  0.3313 -0.0405 -0.9420
 6330TIP3    H140549   1.444   3.061   7.298 -0.2641 -1.0584 -0.0377
 6330TIP3    H240550   1.512   2.937   7.353  1.9130 -0.1635 -0.6184
 6331TIP3   OH240551   4.057   4.009   2.373  0.2102  0.4389  0.0719
 6331TIP3    H140552   4.082   3.974   2.288  0.2775  1.6217 -0.4054
 6331TIP3    H240553   4.021   4.096   2.354  0.4649  0.8259  1.2669
 6332TIP3   OH240554   3.072   0.110   0.088 -0.0172 -0.0427  0.2350
 6332TIP3    H140555   3.004   0.048   0.116 -0.2649  0.4451  0.7359
 6332TIP3    H240556   3.083   0.169   0.162  1.1576 -0.2686  0.2615
 6333TIP3   OH240557   5.723   1.787   8.093  0.3313 -0.0894 -0.2660
 6333TIP3    H140558   5.779   1.750   8.025 -1.4564 -0.0657 -1.8333
 6333TIP3    H240559   5.755   1.748   8.174  1.0299 -2.0345 -1.3943
 6334TIP3   OH240560   1.584   4.422   0.346 -0.0092 -0.4062 -0.5871
 6334TIP3    H140561   1.571   4.497   0.289 -0.8032 -2.0717 -2.7512
 6334TIP3    H240562   1.595   4.348   0.286  0.5683 -2.0618  1.4307
 6335TIP3   OH240563   5.093   1.556   6.205  0.3462  0.3583  0.3208
 6335TIP3    H140564   5.136   1.540   6.289  1.8734  2.4699  0.0128
 6335TIP3    H240565   5.147   1.510   6.141 -0.6338 -0.9755  0.3998
 6336TIP3   OH240566   5.260   3.965   1.554 -0.1561  0.1550  0.5651
 6336TIP3    H140567   5.337   3.955   1.610  0.4198 -0.0938 -0.2613
 6336TIP3    H240568   5.226   3.875   1.546  0.0894  0.1081  0.0560
 6337TIP3   OH240569   6.125   6.197   8.382  0.6403  0.4334 -0.3095
 6337TIP3    H140570   6.185   6.190   8.456 -1.0913 -0.7506  1.0476
 6337TIP3    H240571   6.167   6.147   8.312  0.3443 -2.1996  1.2634
 6338TIP3   OH240572   5.635   3.119   0.273 -0.0449  0.1565  0.0922
 6338TIP3    H140573   5.724   3.089   0.254 -0.8826 -0.8027 -2.8684
 6338TIP3    H240574   5.639   3.214   0.262  0.2131 -0.0783 -2.1623
 6339TIP3   OH240575   1.927   4.995   2.156  0.6817  0.0727  0.1237
 6339TIP3    H140576   2.018   4.986   2.181  0.7876 -0.5789 -0.4626
 6339TIP3    H240577   1.899   4.906   2.133  0.0325  0.3307 -0.1274
 6340TIP3   OH240578   0.011   0.490   1.786 -0.6683 -0.1297 -0.2621
 6340TIP3    H140579   0.070   0.561   1.761 -1.0181  0.7721  1.3146
 6340TIP3    H240580  -0.075   0.532   1.796 -0.2303  0.2563  4.4775
 6341TIP3   OH240581   1.843   1.215   1.931  0.0968 -0.0777  0.3847
 6341TIP3    H140582   1.910   1.171   1.983  0.3929  1.5095  1.4064
 6341TIP3    H240583   1.892   1.262   1.864 -0.2809 -2.0720 -1.3883
 6342TIP3   OH240584   6.539   3.964   2.189 -0.1169  0.2291  0.3527
 6342TIP3    H140585   6.560   4.057   2.197  0.5793  0.0674  0.4533
 6342TIP3    H240586   6.592   3.921   2.256 -1.4636 -0.1118  1.2456
 6343TIP3   OH240587   0.200   4.025   1.884 -0.0244  0.3341 -0.6436
 6343TIP3    H140588   0.184   4.014   1.978  1.6918  2.0628 -0.1059
 6343TIP3    H240589   0.151   3.953   1.844  0.6570 -1.5665  1.6845
 6344TIP3   OH240590   2.626   5.059   1.863  0.2049 -0.3702 -0.1088
 6344TIP3    H140591   2.577   4.977   1.858 -1.4054  0.6075 -1.2987
 6344TIP3    H240592   2.688   5.054   1.790 -0.3763 -0.2253 -0.6126
 6345TIP3   OH240593   6.704   6.786   0.775 -0.5601 -0.3589 -0.1553
 6345TIP3    H140594   6.744   6.873   0.782  0.5981 -0.7511 -1.3653
 6345TIP3    H240595   6.765   6.737   0.720 -0.2382 -2.5264  1.9943
 6346TIP3   OH240596   1.647   1.301   2.141 -0.2174  0.4071 -0.4492
 6346TIP3    H140597   1.717   1.286   2.077  0.4157 -0.6740  0.4558
 6346TIP3    H240598   1.642   1.219   2.190 -0.8079  1.1459  0.7562
 6347TIP3   OH240599   3.494   3.675   8.413 -0.1465  0.1347  0.0771
 6347TIP3    H140600   3.400   3.678   8.429 -0.3789 -0.5663 -1.0796
 6347TIP3    H240601   3.522   3.766   8.415 -1.0172  0.4269 -0.5181
 6348TIP3   OH240602   0.331   1.467   6.072  0.1784 -0.1344  0.1033
 6348TIP3    H140603   0.281   1.509   6.002 -1.5222 -1.7910  0.2368
 6348TIP3    H240604   0.422   1.479   6.047 -0.3386  0.9352 -1.4157
 6349TIP3   OH240605   5.860   1.029   7.448 -0.0981 -0.2216 -0.0877
 6349TIP3    H140606   5.880   1.085   7.372  1.2022 -0.4336  0.0695
 6349TIP3    H240607   5.767   1.012   7.441 -0.0663  0.0388 -1.4639
 6350TIP3   OH240608   1.675   0.910   1.348 -0.4303  0.4166  0.2658
 6350TIP3    H140609   1.588   0.947   1.356 -0.5872 -0.1841  1.5383
 6350TIP3    H240610   1.661   0.823   1.311 -0.1654  1.0869 -1.5294
 6351TIP3   OH240611   0.676   1.374   2.369  0.1399 -0.6494 -0.0696
 6351TIP3    H140612   0.583   1.398   2.372 -0.5827 -2.9700 -1.6967
 6351TIP3    H240613   0.691   1.328   2.452 -0.6420 -1.7832 -0.5421
 6352TIP3   OH240614   0.648   6.210   6.904  0.2864  0.0710  0.0171
 6352TIP3    H140615   0.731   6.178   6.938 -0.5986 -0.6860  1.5768
 6352TIP3    H240616   0.589   6.207   6.979 -1.1592  0.5587 -1.0620
 6353TIP3   OH240617   4.703   1.368   7.397  0.0538 -0.5792  0.6015
 6353TIP3    H140618   4.718   1.293   7.339 -1.7570 -1.3554  1.0709
 6353TIP3    H240619   4.608   1.382   7.395  0.4027  2.2642 -0.1103
 6354TIP3   OH240620   6.787   4.682   1.795 -0.8479 -0.0588 -0.2001
 6354TIP3    H140621   6.703   4.728   1.802 -1.2151 -0.6782 -0.4114
 6354TIP3    H240622   6.851   4.751   1.781 -0.9551  0.6960  2.4558
 6355TIP3   OH240623   6.217   1.679   7.999 -0.3222 -0.0163 -0.4224
 6355TIP3    H140624   6.280   1.750   8.004 -0.8217  0.5071 -1.3481
 6355TIP3    H240625   6.270   1.600   7.992  0.2267  0.3369 -0.2846
 6356TIP3   OH240626   1.503   3.407   7.547 -0.3503  0.0889  0.2356
 6356TIP3    H140627   1.418   3.420   7.504 -0.7694 -0.1544  0.9667
 6356TIP3    H240628   1.498   3.318   7.582  0.0404  0.2285  0.6477
 6357TIP3   OH240629   6.286   1.622   0.624 -0.8520 -0.1941 -0.5369
 6357TIP3    H140630   6.206   1.576   0.648 -1.2022  0.2933 -0.7413
 6357TIP3    H240631   6.339   1.557   0.579 -0.7181 -0.7808  0.4446
 6358TIP3   OH240632   6.245   0.934   1.215  0.0508  0.1258  0.4599
 6358TIP3    H140633   6.229   0.862   1.276 -0.6769  0.1712  0.3322
 6358TIP3    H240634   6.266   0.892   1.132 -1.3572  0.0421  0.1297
 6359TIP3   OH240635   0.852   1.582   8.562 -0.0922 -0.0318  0.3256
 6359TIP3    H140636   0.808   1.621   8.638 -1.3089 -0.8095  0.0542
 6359TIP3    H240637   0.865   1.654   8.501 -0.0127  0.4114  0.8615
 6360TIP3   OH240638   5.007   4.863   1.542 -0.0508 -0.4410 -0.2491
 6360TIP3    H140639   5.093   4.822   1.545  0.0965 -0.1412 -0.3703
 6360TIP3    H240640   4.954   4.813   1.605  0.6774  0.4366  1.1022
 6361TIP3   OH240641   2.664   6.473   1.698  0.6115 -0.1484 -0.2484
 6361TIP3    H140642   2.690   6.524   1.774  0.4670  0.0722 -0.3445
 6361TIP3    H240643   2.582   6.432   1.723  0.4616  0.0824 -0.3517
 6362TIP3   OH240644   6.849   4.527   7.560 -0.1794 -0.7957  0.0745
 6362TIP3    H140645   6.910   4.490   7.497 -0.2513  0.3422 -0.7097
 6362TIP3    H240646   6.875   4.490   7.644  1.3260 -0.6594 -0.3028
 6363TIP3   OH240647   3.237   5.556   6.852  0.4171  0.1443 -0.0480
 6363TIP3    H140648   3.288   5.504   6.914  0.9441 -0.5140 -0.9956
 6363TIP3    H240649   3.229   5.642   6.892  0.8339 -0.2335  0.8716
 6364TIP3   OH240650   4.317   1.730   7.542 -0.0372  0.3355  0.0832
 6364TIP3    H140651   4.356   1.670   7.606  2.5579  2.8517  1.0709
 6364TIP3    H240652   4.385   1.744   7.477 -0.9960  1.2743 -0.7576
 6365TIP3   OH240653   6.592   3.460   7.916 -0.1980 -0.3759 -0.0043
 6365TIP3    H140654   6.644   3.386   7.947  3.3389  1.7733 -0.2231
 6365TIP3    H240655   6.576   3.440   7.824  0.4791 -1.0336  0.0076
 6366TIP3   OH240656   2.727   2.149   7.518  0.0781 -0.2638  0.3270
 6366TIP3    H140657   2.643   2.184   7.546 -0.8550 -1.2747 -1.1009
 6366TIP3    H240658   2.714   2.124   7.427  2.3630  0.9131 -0.3918
 6367TIP3   OH240659   1.357   6.769   6.477  0.0282 -0.0124  0.0755
 6367TIP3    H140660   1.312   6.789   6.395  0.8467 -0.1975 -0.4388
 6367TIP3    H240661   1.449   6.760   6.451  0.7271  2.4042  1.3746
 6368TIP3   OH240662   6.152   3.355   6.577  0.2706 -0.0718  0.4661
 6368TIP3    H140663   6.144   3.349   6.672  1.5427 -0.1348  0.5749
 6368TIP3    H240664   6.105   3.436   6.555  0.4543  0.2459  1.2090
 6369TIP3   OH240665   6.708   5.757   6.795  0.1586 -0.3622 -0.1013
 6369TIP3    H140666   6.653   5.684   6.826 -0.1264  0.4172  1.3642
 6369TIP3    H240667   6.745   5.794   6.876 -0.2158  1.5010 -0.7446
 6370TIP3   OH240668   0.958   1.515   8.129  0.2367 -0.3354  0.1808
 6370TIP3    H140669   0.990   1.536   8.042 -1.0829 -1.7011 -0.6799
 6370TIP3    H240670   1.030   1.540   8.188  1.3904  0.0445 -1.3293
 6371TIP3   OH240671   4.212   5.413   6.878 -0.0328 -0.0091 -0.5207
 6371TIP3    H140672   4.258   5.387   6.798 -0.6812  2.0339 -1.6333
 6371TIP3    H240673   4.245   5.501   6.897 -0.2699 -0.2622  1.1815
 6372TIP3   OH240674   6.539   0.746   1.232 -0.0258 -0.8866  0.9162
 6372TIP3    H140675   6.543   0.650   1.225 -2.9712 -1.0488 -0.0279
 6372TIP3    H240676   6.508   0.774   1.146  0.7817  0.9422  1.1873
 6373TIP3   OH240677   1.160   6.131   7.401 -0.3175 -0.9123 -0.3351
 6373TIP3    H140678   1.177   6.056   7.458  0.4590 -1.5208 -1.3282
 6373TIP3    H240679   1.244   6.147   7.357 -0.9546 -0.6626 -1.5181
 6374TIP3   OH240680   4.074   1.080   1.693 -0.1286  0.2163 -0.0972
 6374TIP3    H140681   4.065   0.998   1.644 -0.1037  0.3351 -0.2971
 6374TIP3    H240682   3.997   1.082   1.750 -1.0380  0.9112 -1.3312
 6375TIP3   OH240683   2.656   6.240   7.055  0.1960 -0.1745 -0.5619
 6375TIP3    H140684   2.637   6.229   6.962 -4.1813 -4.3648  0.4358
 6375TIP3    H240685   2.716   6.169   7.076 -0.1895 -0.3093  0.0972
 6376TIP3   OH240686   2.914   4.090   6.160 -0.1186 -0.6001 -0.2638
 6376TIP3    H140687   2.909   4.073   6.066  0.3999 -0.4104 -0.3284
 6376TIP3    H240688   2.998   4.053   6.187  0.5156  0.8314 -0.2016
 6377TIP3   OH240689   2.440   0.865   6.305 -0.3409 -0.2081 -0.5231
 6377TIP3    H140690   2.369   0.923   6.278 -0.6956 -0.5897 -0.4267
 6377TIP3    H240691   2.397   0.781   6.322  0.0186 -0.2450  0.2487
 6378TIP3   OH240692   1.037   6.730   8.572  0.6211  0.1856  0.7368
 6378TIP3    H140693   0.998   6.657   8.523  2.5533  0.5746 -1.5990
 6378TIP3    H240694   1.079   6.688   8.647 -0.0092 -0.8334  0.5430
 6379TIP3   OH240695   5.478   0.785   1.630  0.4525 -0.6757 -0.4715
 6379TIP3    H140696   5.490   0.769   1.536  0.4872 -3.3763 -0.0883
 6379TIP3    H240697   5.548   0.846   1.653  1.5442 -1.3460 -1.8713
 6380TIP3   OH240698   3.697   1.925   2.228  0.2045  0.6011 -0.0579
 6380TIP3    H140699   3.630   1.857   2.238 -0.3213  0.8966 -1.3791
 6380TIP3    H240700   3.775   1.887   2.268 -1.0222  0.7767  2.7414
 6381TIP3   OH240701   0.358   0.836   1.487  0.4523 -0.2491  0.6902
 6381TIP3    H140702   0.431   0.864   1.543  0.0334  1.5815  0.3902
 6381TIP3    H240703   0.398   0.776   1.424  1.3290 -0.7009  1.6425
 6382TIP3   OH240704   6.853   0.703   8.233 -0.7001  0.2622  0.2669
 6382TIP3    H140705   6.859   0.757   8.154  0.6506  0.6405  0.6192
 6382TIP3    H240706   6.759   0.700   8.251 -0.9766  0.7583 -0.9463
 6383TIP3   OH240707   2.148   2.054   1.393 -0.7002 -0.2383  0.2098
 6383TIP3    H140708   2.129   2.138   1.435  1.2418 -0.0195  0.7407
 6383TIP3    H240709   2.177   1.997   1.465  0.8683 -0.4312 -0.5441
 6384TIP3   OH240710   4.284   1.164   6.901  0.2972  0.0747 -0.2868
 6384TIP3    H140711   4.241   1.082   6.875  0.2130 -0.4270  1.3351
 6384TIP3    H240712   4.276   1.220   6.823  0.2327 -1.3836 -1.3839
 6385TIP3   OH240713   1.040   2.882   1.298 -0.4391  0.0081  0.3362
 6385TIP3    H140714   1.111   2.942   1.321  0.3499 -0.4811 -0.7308
 6385TIP3    H240715   0.990   2.872   1.379  0.5866  0.5091  1.0600
 6386TIP3   OH240716   0.629   0.993   0.226 -0.5285 -0.3687 -0.0052
 6386TIP3    H140717   0.539   0.986   0.259 -0.9592 -1.3495 -1.2785
 6386TIP3    H240718   0.619   1.037   0.141  0.4303  1.2178  0.6673
 6387TIP3   OH240719   5.327   2.623   8.406 -0.4741  0.1187 -0.8907
 6387TIP3    H140720   5.256   2.648   8.466 -0.1287 -0.4780 -0.2204
 6387TIP3    H240721   5.342   2.530   8.424  1.3742  0.5470 -0.0694
 6388TIP3   OH240722   5.591   6.510   6.790  0.2169  0.1232  0.1207
 6388TIP3    H140723   5.635   6.595   6.784 -0.5019  0.5726  1.0670
 6388TIP3    H240724   5.663   6.446   6.795  0.7608  0.6629 -0.6577
 6389TIP3   OH240725   3.659   1.676   1.570 -0.9141 -0.7085  0.5028
 6389TIP3    H140726   3.580   1.691   1.621 -0.3650  2.9024  0.4982
 6389TIP3    H240727   3.729   1.715   1.621  0.2202 -0.2290 -1.3475
 6390TIP3   OH240728   0.495   5.620   1.549 -0.2610  0.0960  0.5781
 6390TIP3    H140729   0.522   5.562   1.621  0.4394  0.2249  0.4318
 6390TIP3    H240730   0.484   5.706   1.590  1.1919  0.4113  0.3661
 6391TIP3   OH240731   3.968   1.586   2.423  0.1332  0.4802 -0.1864
 6391TIP3    H140732   3.891   1.543   2.459 -0.1049  0.6545 -0.4849
 6391TIP3    H240733   3.978   1.548   2.336  0.7954 -0.0510  0.1090
 6392TIP3   OH240734   2.076   2.464   1.234 -0.0505  0.2429  0.2641
 6392TIP3    H140735   2.098   2.503   1.150 -0.1921  0.4723  0.3326
 6392TIP3    H240736   2.127   2.514   1.298 -0.4265  0.4873  0.3787
 6393TIP3   OH240737   3.976   3.041   6.362  0.0579 -0.1965  0.3057
 6393TIP3    H140738   3.935   2.977   6.421  0.1805  1.4711  2.3256
 6393TIP3    H240739   3.985   3.120   6.416 -1.2233  1.9545 -2.3889
 6394TIP3   OH240740   0.693   1.793   0.518  0.1604  0.2071 -0.2831
 6394TIP3    H140741   0.756   1.853   0.557 -1.4362  1.4758  0.5059
 6394TIP3    H240742   0.736   1.759   0.441  0.9865  2.8016 -1.0675
 6395TIP3   OH240743   5.991   3.484   7.501 -0.2639 -0.4300 -0.3159
 6395TIP3    H140744   5.911   3.531   7.523 -0.0336 -0.1429 -0.0931
 6395TIP3    H240745   5.983   3.466   7.407  0.3501  1.4257 -0.7605
 6396TIP3   OH240746   3.387   4.277   6.110  0.1708 -0.0009  0.0424
 6396TIP3    H140747   3.327   4.267   6.183 -0.2667  1.1593 -0.1322
 6396TIP3    H240748   3.474   4.267   6.148 -0.0328  1.0766  0.8283
 6397TIP3   OH240749   2.894   1.119   0.429  0.0753 -0.0257  0.2786
 6397TIP3    H140750   2.911   1.185   0.495 -0.1885  0.5821 -0.2479
 6397TIP3    H240751   2.849   1.166   0.359 -0.9005 -0.9447  0.2668
 6398TIP3   OH240752   2.485   0.502   8.595 -1.2344  0.6348  0.1924
 6398TIP3    H140753   2.401   0.511   8.640 -0.3682 -1.5474  2.5178
 6398TIP3    H240754   2.516   0.414   8.620  1.2790  0.9678 -1.3777
 6399TIP3   OH240755   5.748   2.124   0.704  0.6252  0.5126  0.1883
 6399TIP3    H140756   5.710   2.179   0.635 -1.1204 -1.1529 -0.2566
 6399TIP3    H240757   5.838   2.156   0.712  0.1572  2.3808 -1.1123
 6400TIP3   OH240758   3.934   3.846   6.954 -0.2700  0.5409  0.5398
 6400TIP3    H140759   3.850   3.866   6.914  0.6694  0.1851 -1.7731
 6400TIP3    H240760   3.996   3.844   6.881  1.3952 -1.2294  1.8823
 6401TIP3   OH240761   0.460   1.485   8.342  0.2316 -0.2340 -0.1268
 6401TIP3    H140762   0.508   1.444   8.270  0.3494  0.9173 -0.7200
 6401TIP3    H240763   0.370   1.493   8.309 -0.2702 -1.8291  0.7518
 6402TIP3   OH240764   0.848   6.152   6.590  0.3980 -0.7586 -0.4697
 6402TIP3    H140765   0.889   6.145   6.503  2.4215  0.1015  0.3540
 6402TIP3    H240766   0.897   6.091   6.644  0.0551 -0.2980  0.3758
 6403TIP3   OH240767   4.178   2.725   0.608 -0.4397  0.2685 -0.0319
 6403TIP3    H140768   4.131   2.642   0.618 -0.2846  0.2541  0.6537
 6403TIP3    H240769   4.114   2.785   0.572 -0.8157  0.0912  0.3301
 6404TIP3   OH240770   3.559   3.788   2.083 -0.1301  0.0104 -0.5214
 6404TIP3    H140771   3.560   3.716   2.147  0.3817 -0.3746 -0.9457
 6404TIP3    H240772   3.547   3.867   2.135  1.1130 -0.2137  0.1494
 6405TIP3   OH240773   2.401   5.378   0.906  0.5571 -0.1424  0.2139
 6405TIP3    H140774   2.492   5.397   0.929  0.3545  2.1685 -0.6621
 6405TIP3    H240775   2.400   5.381   0.810 -0.4876  0.0411  0.2209
 6406TIP3   OH240776   4.229   1.473   0.841 -0.0756 -0.3331 -0.3532
 6406TIP3    H140777   4.231   1.493   0.935  0.3404 -0.5132 -0.3218
 6406TIP3    H240778   4.257   1.382   0.835  0.3243 -0.1908 -0.6867
 6407TIP3   OH240779   2.200   6.521   6.795  0.4168 -0.3489  0.4436
 6407TIP3    H140780   2.177   6.495   6.884  0.7747  0.4914  0.7909
 6407TIP3    H240781   2.130   6.581   6.769 -1.4612 -2.9830 -1.0610
 6408TIP3   OH240782   3.559   2.444   7.033 -0.3200  0.3106  0.5730
 6408TIP3    H140783   3.588   2.464   7.122  0.3988  2.0352 -0.0108
 6408TIP3    H240784   3.489   2.507   7.016 -0.1303  0.3080 -0.2583
 6409TIP3   OH240785   0.839   2.160   8.457 -0.5161 -0.9288 -0.6166
 6409TIP3    H140786   0.915   2.103   8.468  0.1833  0.2635  1.5286
 6409TIP3    H240787   0.871   2.232   8.403  0.3140  0.1468  1.2032
 6410TIP3   OH240788   4.506   3.314   7.086 -0.3246  0.4030 -0.2490
 6410TIP3    H140789   4.550   3.258   7.149 -1.1854 -0.0770 -0.0681
 6410TIP3    H240790   4.430   3.263   7.056  0.6256  0.1610 -2.4658
 6411TIP3   OH240791   5.752   0.704   8.422 -0.2871  0.1616  0.1378
 6411TIP3    H140792   5.682   0.640   8.437 -0.4532  0.3885  0.3518
 6411TIP3    H240793   5.789   0.680   8.337 -0.3550 -0.2103  0.2127
 6412TIP3   OH240794   5.169   5.607   0.262  0.2497  0.4516 -0.2823
 6412TIP3    H140795   5.246   5.663   0.274 -0.6266  1.5423  0.3748
 6412TIP3    H240796   5.200   5.536   0.205  2.0257  0.2840  0.8200
 6413TIP3   OH240797   1.236   2.055   0.876  0.2313 -0.6035  0.2433
 6413TIP3    H140798   1.302   1.990   0.851 -1.0979 -1.4254 -1.2684
 6413TIP3    H240799   1.208   2.027   0.963  0.4377 -1.4517  0.0540
 6414TIP3   OH240800   4.367   5.625   7.244  0.3071 -0.2986  0.3108
 6414TIP3    H140801   4.432   5.644   7.312  0.7141  0.2679 -0.2286
 6414TIP3    H240802   4.290   5.595   7.293  0.9788 -1.0304  0.9515
 6415TIP3   OH240803   3.506   0.769   6.736 -0.6782  1.5686  0.1843
 6415TIP3    H140804   3.575   0.743   6.796 -1.0454  1.3873  0.5365
 6415TIP3    H240805   3.448   0.824   6.789 -1.2024  1.1052  0.1013
 6416TIP3   OH240806   0.288   1.664   1.923  0.5437 -0.2475  0.2411
 6416TIP3    H140807   0.207   1.679   1.875 -0.3015 -2.7916  0.7152
 6416TIP3    H240808   0.261   1.614   2.000  2.1783  1.5944  2.1347
 6417TIP3   OH240809   4.507   6.160   1.065  0.1798  0.0714  0.2384
 6417TIP3    H140810   4.497   6.253   1.085  0.0830  0.4814 -1.5562
 6417TIP3    H240811   4.419   6.125   1.070  0.4196 -0.3603  2.6700
 6418TIP3   OH240812   5.151   1.174   6.198 -0.0148 -0.0275 -0.1129
 6418TIP3    H140813   5.157   1.259   6.153  1.0205  0.1979  0.4118
 6418TIP3    H240814   5.211   1.182   6.272  0.6023 -1.4365 -0.4225
 6419TIP3   OH240815   3.786   0.975   0.592 -0.1637  0.4957 -0.6264
 6419TIP3    H140816   3.715   0.913   0.576 -0.4862  0.5598  0.4465
 6419TIP3    H240817   3.754   1.030   0.665  0.6988  0.9772 -0.5945
 6420TIP3   OH240818   3.554   5.678   8.648  0.2606  0.0500 -0.0640
 6420TIP3    H140819   3.617   5.742   8.680  0.5816  0.1270 -0.8248
 6420TIP3    H240820   3.470   5.722   8.652  0.2293 -0.0930  1.0750
 6421TIP3   OH240821   6.553   4.253   0.930  0.1857  0.3510  0.4596
 6421TIP3    H140822   6.643   4.242   0.961 -0.2246  0.9593  1.9674
 6421TIP3    H240823   6.503   4.187   0.976 -0.2080  0.2391 -0.1159
 6422TIP3   OH240824   1.987   5.710   7.831  0.0059  0.3728 -0.3598
 6422TIP3    H140825   2.082   5.719   7.827  0.3473 -2.3253 -0.0117
 6422TIP3    H240826   1.967   5.700   7.924 -0.8282  2.2414 -0.2869
 6423TIP3   OH240827   3.803   1.952   1.117  0.2024  0.3087 -0.7065
 6423TIP3    H140828   3.776   2.041   1.095  1.6567  0.9616 -0.0086
 6423TIP3    H240829   3.881   1.964   1.171  1.0425 -1.4375 -1.4856
 6424TIP3   OH240830   5.301   0.649   1.067 -0.9732 -0.2578 -0.4766
 6424TIP3    H140831   5.327   0.569   1.022 -0.2594 -0.0526 -0.4383
 6424TIP3    H240832   5.376   0.707   1.058 -1.2523  0.1855  0.0230
 6425TIP3   OH240833   5.203   4.845   0.188 -0.1364  0.4578  0.0219
 6425TIP3    H140834   5.223   4.931   0.226  1.3661 -0.1130  0.6020
 6425TIP3    H240835   5.282   4.821   0.139 -0.2964 -0.8448  0.3627
 6426TIP3   OH240836   3.497   4.255   1.616 -0.6201 -0.2188  0.0410
 6426TIP3    H140837   3.510   4.269   1.710  1.3281 -0.7138 -0.1093
 6426TIP3    H240838   3.548   4.176   1.597  1.8375  1.7193 -2.0278
 6427TIP3   OH240839   3.597   1.209   2.010 -0.4337  0.9597  0.2358
 6427TIP3    H140840   3.550   1.257   1.942  0.7765  1.0804 -0.5398
 6427TIP3    H240841   3.536   1.141   2.038 -1.0677  1.1072 -0.7561
 6428TIP3   OH240842   3.090   3.485   7.433  0.7120 -0.0631 -0.4546
 6428TIP3    H140843   3.002   3.497   7.396  0.2219 -0.6681  0.4771
 6428TIP3    H240844   3.081   3.511   7.525  1.3260 -0.8406 -0.1642
 6429TIP3   OH240845   2.417   1.778   1.323  0.1907  0.5635 -0.4888
 6429TIP3    H140846   2.340   1.723   1.314  1.6172 -1.6229 -0.1840
 6429TIP3    H240847   2.386   1.857   1.366 -1.4454 -1.3781  2.1917
 6430TIP3   OH240848   4.737   4.927   7.491  0.0096 -0.4360  0.1399
 6430TIP3    H140849   4.816   4.877   7.512  0.6574  0.5083 -0.0306
 6430TIP3    H240850   4.731   4.993   7.560  0.5539  0.8430 -1.0048
 6431TIP3   OH240851   1.512   1.678   7.971  0.0031 -0.0560  0.3397
 6431TIP3    H140852   1.466   1.621   8.034  1.1597 -0.8920  0.4476
 6431TIP3    H240853   1.540   1.619   7.901 -1.3244  0.8763 -1.0416
 6432TIP3   OH240854   6.469   1.708   1.248  0.2638  0.3017 -0.2891
 6432TIP3    H140855   6.419   1.740   1.323  0.4017 -0.2354  0.0387
 6432TIP3    H240856   6.436   1.619   1.234  0.2682  0.3837 -0.8430
 6433TIP3   OH240857   1.079   3.914   0.645  0.0117 -0.2435  0.3225
 6433TIP3    H140858   1.162   3.933   0.601 -0.7444 -0.0958 -1.0890
 6433TIP3    H240859   1.096   3.935   0.737  1.3544  0.3496 -0.0279
 6434TIP3   OH240860   2.107   2.770   1.715 -0.4374 -0.9767 -0.1096
 6434TIP3    H140861   2.024   2.765   1.763 -1.1225 -1.6711 -1.3320
 6434TIP3    H240862   2.149   2.686   1.729  0.7972 -0.1235  1.7177
 6435TIP3   OH240863   4.122   0.820   0.063 -0.0417 -0.4634  0.0984
 6435TIP3    H140864   4.033   0.787   0.052  0.2392 -1.2452  0.1113
 6435TIP3    H240865   4.178   0.753   0.024  0.4914  0.5215 -0.8973
 6436TIP3   OH240866   3.838   1.579   8.383 -0.5634  0.0048  0.1924
 6436TIP3    H140867   3.826   1.622   8.299 -1.3280 -0.7971 -0.1191
 6436TIP3    H240868   3.755   1.590   8.428 -0.8948 -1.4115 -0.0277
 6437TIP3   OH240869   5.156   0.861   0.485  0.5063 -0.4794 -0.2395
 6437TIP3    H140870   5.246   0.830   0.475  0.4004 -0.8072 -0.1826
 6437TIP3    H240871   5.127   0.878   0.395  0.9160  0.4656 -0.1974
 6438TIP3   OH240872   0.439   1.108   1.803 -0.2130  0.0485 -0.4649
 6438TIP3    H140873   0.486   1.055   1.738 -0.1979 -2.1111  1.1921
 6438TIP3    H240874   0.376   1.047   1.842 -0.6923  1.4635  1.0785
 6439TIP3   OH240875   1.651   5.425   7.685  0.0367 -0.2989  0.5343
 6439TIP3    H140876   1.595   5.496   7.653  0.7529 -0.1211 -0.4001
 6439TIP3    H240877   1.740   5.457   7.670  0.4107 -2.0631 -1.6193
 6440TIP3   OH240878   6.285   5.770   1.099  0.6777  0.0814  0.5179
 6440TIP3    H140879   6.281   5.731   1.012  0.5204  2.5960 -0.7186
 6440TIP3    H240880   6.246   5.705   1.157 -1.4693 -0.7600 -1.6804
 6441TIP3   OH240881   3.490   3.678   7.823 -0.5203 -0.2360 -0.0400
 6441TIP3    H140882   3.403   3.639   7.818 -0.5646 -0.0744 -0.5814
 6441TIP3    H240883   3.491   3.744   7.754 -0.3012  0.4483  0.6109
 6442TIP3   OH240884   4.400   2.178   0.401 -0.0005 -0.0121 -0.4111
 6442TIP3    H140885   4.369   2.225   0.479 -0.2686 -0.7963 -0.0290
 6442TIP3    H240886   4.428   2.247   0.341  2.0515  0.6132  1.1105
 6443TIP3   OH240887   4.023   1.074   0.024 -0.2859  0.0661  0.1147
 6443TIP3    H140888   3.987   1.073  -0.064  2.1506 -0.1466 -0.9606
 6443TIP3    H240889   3.992   0.993   0.064  0.0566 -0.7557 -1.2153
 6444TIP3   OH240890   5.935   5.142   0.171 -0.0976  0.1649  0.4631
 6444TIP3    H140891   5.875   5.122   0.099 -0.2180 -1.8017  1.0516
 6444TIP3    H240892   5.948   5.237   0.166 -0.1035  0.0964 -2.1253
 6445TIP3   OH240893   2.564   0.376   6.311  0.0865  0.4279 -0.2382
 6445TIP3    H140894   2.658   0.358   6.318  0.1061 -0.6677 -2.2985
 6445TIP3    H240895   2.539   0.337   6.227 -2.0634  1.3898 -0.1093
 6446TIP3   OH240896   0.713   3.198   6.536  0.3314 -0.0479  0.3949
 6446TIP3    H140897   0.683   3.112   6.565 -0.0581 -0.1507 -0.2985
 6446TIP3    H240898   0.806   3.185   6.515  0.0559 -0.5260 -0.5725
 6447TIP3   OH240899   5.942   1.026   2.223 -0.6028 -0.3371 -0.3036
 6447TIP3    H140900   5.870   0.979   2.265 -1.0732  0.3177 -0.3576
 6447TIP3    H240901   5.947   1.110   2.269  0.5139 -0.6021  0.0821
 6448TIP3   OH240902   3.308   3.369   2.240  0.0483 -0.1065  0.0932
 6448TIP3    H140903   3.380   3.326   2.195  0.8739  0.3019  0.9929
 6448TIP3    H240904   3.344   3.393   2.325 -1.2865 -0.3019  0.7388
 6449TIP3   OH240905   6.531   3.539   1.606 -0.3036 -0.4612 -0.0009
 6449TIP3    H140906   6.607   3.550   1.662  0.3754  0.1022 -1.0097
 6449TIP3    H240907   6.486   3.623   1.610 -0.8623 -0.7728  0.5447
 6450TIP3   OH240908   3.971   1.627   6.189  0.1499  0.2209 -0.7136
 6450TIP3    H140909   3.980   1.540   6.227  2.3949  1.7291  2.6934
 6450TIP3    H240910   3.968   1.612   6.095  2.8282 -3.4150 -0.4040
 6451TIP3   OH240911   6.491   6.027   6.943 -0.0782  1.0098 -0.0652
 6451TIP3    H140912   6.441   5.954   6.980  2.4465 -1.3076 -0.8436
 6451TIP3    H240913   6.449   6.046   6.860 -0.2012 -0.2613 -0.3084
 6452TIP3   OH240914   2.329   6.470   7.419 -0.4593  0.1400 -0.1616
 6452TIP3    H140915   2.302   6.380   7.441 -0.9228 -0.0528 -1.4267
 6452TIP3    H240916   2.386   6.496   7.492  0.6868 -1.6324 -0.3439
 6453TIP3   OH240917   6.145   1.182   1.280 -0.4525 -0.0486  0.0472
 6453TIP3    H140918   6.227   1.226   1.304 -0.1479 -0.3116 -0.5151
 6453TIP3    H240919   6.171   1.110   1.223 -1.0463 -0.3519  0.1482
 6454TIP3   OH240920   3.418   2.825   8.556  0.0536  0.4744 -0.4919
 6454TIP3    H140921   3.381   2.901   8.601  0.1342  0.0672  0.2709
 6454TIP3    H240922   3.453   2.770   8.626  0.2416 -0.1396 -1.0566
 6455TIP3   OH240923   5.076   0.313   0.056  0.2702  0.3675  0.0057
 6455TIP3    H140924   5.066   0.218   0.052 -0.1551  0.3850  0.5453
 6455TIP3    H240925   5.122   0.330   0.138  0.3545  0.6293 -0.0924
 6456TIP3   OH240926   2.979   1.615   8.250 -0.1873  0.0953  0.4406
 6456TIP3    H140927   2.883   1.622   8.250 -0.3715 -1.4352 -1.2420
 6456TIP3    H240928   3.005   1.647   8.163  0.8227  0.3187  0.8111
 6457TIP3   OH240929   2.503   5.973   0.905  0.1615 -0.1892 -1.4263
 6457TIP3    H140930   2.527   5.928   0.825  0.1609  1.7430 -2.5918
 6457TIP3    H240931   2.584   6.016   0.934 -0.1896  0.4186 -1.3115
 6458TIP3   OH240932   6.831   3.435   1.227 -0.0384 -0.4119  0.0570
 6458TIP3    H140933   6.737   3.421   1.234  0.1380 -2.5925 -1.0818
 6458TIP3    H240934   6.844   3.462   1.136  0.4499 -0.2750  0.1678
 6459TIP3   OH240935   0.105   4.894   1.863 -0.7236 -0.5437  0.0012
 6459TIP3    H140936   0.073   4.979   1.891  1.0140 -0.0100  0.4761
 6459TIP3    H240937   0.091   4.837   1.939  0.1635 -0.1166  0.4986
 6460TIP3   OH240938   2.931   3.580   1.689 -0.1332 -0.0164 -0.7318
 6460TIP3    H140939   3.001   3.541   1.741 -0.3211  2.9669  2.0791
 6460TIP3    H240940   2.966   3.583   1.600  1.7305 -2.0063 -0.1437
 6461TIP3   OH240941   5.504   2.482   0.073 -1.2092  0.1931 -0.5967
 6461TIP3    H140942   5.547   2.567   0.088 -0.1170 -0.4877  0.3867
 6461TIP3    H240943   5.576   2.419   0.074 -2.3028 -1.3066  3.4652
 6462TIP3   OH240944   0.445   2.619   8.053 -0.3858 -0.0483  0.8648
 6462TIP3    H140945   0.350   2.621   8.069 -0.5945  0.9607 -0.3536
 6462TIP3    H240946   0.476   2.705   8.081 -0.3110  0.6769 -1.2155
 6463TIP3   OH240947   5.154   1.405   6.892  0.1616 -0.6098  0.3181
 6463TIP3    H140948   5.166   1.316   6.926  1.7425 -0.1077  1.1459
 6463TIP3    H240949   5.194   1.403   6.805 -0.3960 -0.8642  0.0603
 6464TIP3   OH240950   3.889   0.522   8.106  0.2683 -0.5015  0.5839
 6464TIP3    H140951   3.803   0.481   8.097  1.0948 -2.0622 -0.8022
 6464TIP3    H240952   3.929   0.512   8.019  1.8392  0.1909  1.1956
 6465TIP3   OH240953   4.927   2.964   7.482  0.3537 -0.4798  0.0941
 6465TIP3    H140954   4.963   3.042   7.441  0.0339  0.0178  0.7500
 6465TIP3    H240955   4.918   2.901   7.410 -0.2156  0.3810 -0.6069
 6466TIP3   OH240956   0.056   3.855   8.184 -0.1247  0.0694  0.7773
 6466TIP3    H140957  -0.023   3.909   8.178  0.6548  1.1726  0.2764
 6466TIP3    H240958   0.047   3.791   8.113 -2.5166 -2.5545  3.1640
 6467TIP3   OH240959   5.710   6.453   2.345 -0.3750  0.0886 -0.1763
 6467TIP3    H140960   5.641   6.448   2.412  0.1668  0.4489  0.4157
 6467TIP3    H240961   5.662   6.446   2.262 -1.1179  0.2093  0.2282
 6468TIP3   OH240962   4.471   1.905   1.989 -0.2976  0.6760 -0.2123
 6468TIP3    H140963   4.376   1.906   1.995 -0.2807 -0.2875  0.6428
 6468TIP3    H240964   4.494   1.987   1.945 -1.5104  0.9443 -0.3731
 6469TIP3   OH240965   5.829   0.618   8.140 -0.5104 -0.0895  0.0888
 6469TIP3    H140966   5.898   0.678   8.112 -0.1357  0.3627  1.8270
 6469TIP3    H240967   5.836   0.544   8.080  1.5461 -0.0887  0.2570
 6470TIP3   OH240968   0.943   2.466   7.991 -0.1144  0.0990  0.0861
 6470TIP3    H140969   1.002   2.395   8.016  0.6968  0.8907  0.5178
 6470TIP3    H240970   0.859   2.444   8.031  0.3481 -0.2191  0.8965
 6471TIP3   OH240971   5.622   0.418   8.239 -0.4271  0.0762  0.3338
 6471TIP3    H140972   5.717   0.419   8.224 -0.0026  1.8602  2.6718
 6471TIP3    H240973   5.586   0.471   8.168  0.2377 -0.9485 -0.8112
 6472TIP3   OH240974   4.276   3.100   1.065  0.0850 -0.1135  0.2031
 6472TIP3    H140975   4.320   3.181   1.037  0.0181 -0.3367 -0.5640
 6472TIP3    H240976   4.228   3.071   0.988  1.2560 -1.6749  0.0088
 6473TIP3   OH240977   1.547   1.410   7.855  0.2807 -0.0722  0.3917
 6473TIP3    H140978   1.554   1.435   7.763  1.7643  1.6366  0.8997
 6473TIP3    H240979   1.636   1.384   7.880 -0.1096 -0.5822  1.3287
 6474TIP3   OH240980   1.657   0.407   0.137  0.4637  0.1480 -0.6158
 6474TIP3    H140981   1.672   0.325   0.184  1.7066  1.0212  0.5584
 6474TIP3    H240982   1.715   0.403   0.061  0.9840  0.2181 -0.2188
 6475TIP3   OH240983   4.102   5.135   0.863  0.0990 -0.2128  0.2652
 6475TIP3    H140984   4.135   5.055   0.903  0.8544  0.6560  1.4489
 6475TIP3    H240985   4.018   5.151   0.906  1.0785  0.9182  1.8581
 6476TIP3   OH240986   1.514   0.781   8.488  0.3973 -0.3821  0.1741
 6476TIP3    H140987   1.492   0.839   8.415 -1.2094  1.5482  2.0429
 6476TIP3    H240988   1.593   0.818   8.526 -1.2095  1.4029  2.0159
 6477TIP3   OH240989   4.013   0.733   7.038 -0.1830 -0.3542  0.0380
 6477TIP3    H140990   4.050   0.819   7.057 -2.2487  0.2414  1.5862
 6477TIP3    H240991   3.988   0.738   6.946 -0.1205  0.6416  0.0641
 6478TIP3   OH240992   2.627   5.316   7.561  0.7584 -0.4070  0.0546
 6478TIP3    H140993   2.639   5.411   7.557  0.9598 -0.4346 -3.0914
 6478TIP3    H240994   2.665   5.290   7.644  1.4468  2.1774  0.6444
 6479TIP3   OH240995   4.024   3.278   8.571 -0.3918  0.7664 -0.3152
 6479TIP3    H140996   4.088   3.347   8.588  1.2737 -0.9658  0.7663
 6479TIP3    H240997   3.967   3.280   8.648  0.1738  0.3890  0.1178
 6480TIP3   OH240998   1.284   2.623   7.387  0.4987 -0.1615 -0.1250
 6480TIP3    H140999   1.190   2.635   7.377  0.8102  1.9335 -1.0546
 6480TIP3    H241000   1.292   2.549   7.446 -1.7494  0.4798  1.1163
 6481TIP3   OH241001   0.891   5.030   1.127 -0.0613 -0.1231 -0.2912
 6481TIP3    H141002   0.915   4.950   1.175  1.2951  0.8123  0.6810
 6481TIP3    H241003   0.847   4.998   1.049 -1.3753 -1.7533  1.0187
 6482TIP3   OH241004   2.557   6.401   0.811 -0.3062  0.8730  0.4909
 6482TIP3    H141005   2.617   6.336   0.774 -1.7332 -1.3660  1.8454
 6482TIP3    H241006   2.614   6.472   0.842  1.4982 -0.4259  0.2971
 6483TIP3   OH241007   1.102   1.066   7.618  0.1361  0.0484 -0.0880
 6483TIP3    H141008   1.123   1.039   7.707 -1.3748 -0.7069  0.0730
 6483TIP3    H241009   1.064   0.988   7.578 -0.9089  0.8998 -0.7998
 6484TIP3   OH241010   3.565   3.426   1.238  0.4867  0.1284  0.3975
 6484TIP3    H141011   3.641   3.368   1.235  1.2602  1.1636 -1.0469
 6484TIP3    H241012   3.501   3.379   1.292  1.3895 -1.6725 -0.0321
 6485TIP3   OH241013   0.474   3.070   1.515  0.1643 -0.1567  0.4398
 6485TIP3    H141014   0.406   3.117   1.563  0.7083 -1.4626  2.6051
 6485TIP3    H241015   0.426   3.020   1.449 -0.6049  1.6264 -0.4314
 6486TIP3   OH241016   6.807   3.172   7.782 -0.2179  0.0647  0.0125
 6486TIP3    H141017   6.828   3.087   7.745  0.1262 -1.1167  2.7100
 6486TIP3    H241018   6.718   3.163   7.816 -0.1641  0.7529  0.3706
 6487TIP3   OH241019   5.261   5.528   1.594  0.0729  0.6961 -0.3087
 6487TIP3    H141020   5.176   5.517   1.551 -0.8509  3.1625  0.7079
 6487TIP3    H241021   5.267   5.454   1.654 -0.9275 -0.0108 -1.0288
 6488TIP3   OH241022   6.765   5.900   1.385 -0.1333  0.2872 -0.3483
 6488TIP3    H141023   6.685   5.847   1.379 -0.0358  0.2778 -2.0080
 6488TIP3    H241024   6.734   5.991   1.376  0.0682  0.2544 -1.5236
 6489TIP3   OH241025   6.041   4.757   7.981 -0.0604  0.1587 -0.0249
 6489TIP3    H141026   6.085   4.841   7.995 -1.1738  0.9942 -1.2047
 6489TIP3    H241027   6.105   4.702   7.936  0.2051  0.9072 -0.5775
 6490TIP3   OH241028   6.354   3.717   7.585  0.0796  0.0595 -0.0725
 6490TIP3    H141029   6.286   3.654   7.609 -0.9664  0.8625 -0.8278
 6490TIP3    H241030   6.313   3.802   7.597  0.2013  0.5371 -2.6140
 6491TIP3   OH241031   2.039   1.344   0.500 -0.5377  0.3089 -0.3913
 6491TIP3    H141032   1.988   1.349   0.581  2.0935  0.7182  1.3526
 6491TIP3    H241033   2.076   1.431   0.490  0.3161 -0.1374 -1.2480
 6492TIP3   OH241034   5.330   6.814   7.185 -0.1058  0.7614 -0.1996
 6492TIP3    H141035   5.405   6.755   7.185  0.5214  1.4403 -2.3726
 6492TIP3    H241036   5.348   6.876   7.256  0.4691 -0.1604  0.4715
 6493TIP3   OH241037   5.697   1.098   8.634  0.0437  0.7738  0.6797
 6493TIP3    H141038   5.620   1.135   8.676  0.2041  1.0947  0.6913
 6493TIP3    H241039   5.767   1.110   8.698  0.6997  2.8927 -0.3457
 6494TIP3   OH241040   4.643   5.953   1.184  0.2602 -0.2772 -0.4662
 6494TIP3    H141041   4.584   6.015   1.142  0.2411 -0.8191 -1.2657
 6494TIP3    H241042   4.590   5.910   1.251  0.6553  1.5718  1.1468
 6495TIP3   OH241043   2.787   3.796   7.270  0.3260 -0.0017 -0.3071
 6495TIP3    H141044   2.734   3.721   7.296 -1.7668  1.2107 -0.8400
 6495TIP3    H241045   2.821   3.772   7.183  0.0092 -0.4781 -0.3038
 6496TIP3   OH241046   2.858   0.211   6.640 -0.5162  0.4845 -0.2129
 6496TIP3    H141047   2.935   0.154   6.645 -1.3123 -0.5609  0.5890
 6496TIP3    H241048   2.892   0.299   6.656  0.4993  0.0215  0.2553
 6497TIP3   OH241049   5.640   5.441   2.241  0.0981  0.2656 -0.2372
 6497TIP3    H141050   5.618   5.379   2.311  0.4599 -0.2778 -0.6028
 6497TIP3    H241051   5.594   5.522   2.266  1.2886  0.5089  1.3388
 6498TIP3   OH241052   1.103   6.866   0.442  0.1273 -0.4707  0.0290
 6498TIP3    H141053   1.041   6.797   0.418  0.9135 -0.8720 -0.9042
 6498TIP3    H241054   1.071   6.943   0.396 -0.2646 -0.4123  0.3888
 6499TIP3   OH241055   1.888   2.543   1.618  0.0344 -0.1484  0.2148
 6499TIP3    H141056   1.863   2.598   1.692  1.0014  0.1269  0.3477
 6499TIP3    H241057   1.819   2.477   1.612 -1.5376  1.4346 -0.3408
 6500TIP3   OH241058   2.190   2.171   0.672  0.0774  0.1583 -0.5456
 6500TIP3    H141059   2.141   2.215   0.603  3.6816  1.8293 -2.2725
 6500TIP3    H241060   2.261   2.231   0.694  1.1151 -1.8539  2.1697
 6501TIP3   OH241061   3.734   1.459   7.150 -0.0723 -0.4188  0.4924
 6501TIP3    H141062   3.793   1.518   7.102 -1.1065  0.8456  0.7221
 6501TIP3    H241063   3.774   1.452   7.237  1.0103 -1.5379 -0.0491
 6502TIP3   OH241064   6.567   6.084   1.915 -0.0602 -0.5094  0.2535
 6502TIP3    H141065   6.587   6.150   1.982 -1.7492  0.0762  0.2443
 6502TIP3    H241066   6.486   6.116   1.874  0.6007 -1.1810 -1.6540
 6503TIP3   OH241067   5.249   1.703   8.600  0.7454  0.0157  0.1984
 6503TIP3    H141068   5.325   1.646   8.594  2.4149  1.9623  1.5261
 6503TIP3    H241069   5.285   1.791   8.609 -1.6906  1.1757 -0.4640
 6504TIP3   OH241070   4.164   4.179   6.125  0.1332  0.2130 -0.1760
 6504TIP3    H141071   4.182   4.272   6.137 -0.7156  0.1513  2.0356
 6504TIP3    H241072   4.224   4.135   6.184  0.1500 -0.6319 -0.8005
 6505TIP3   OH241073   2.921   3.386   6.374  1.0072 -0.5890  0.3582
 6505TIP3    H141074   2.873   3.467   6.357 -0.7520 -1.4642  0.9215
 6505TIP3    H241075   2.866   3.318   6.335  2.4219 -1.5414 -0.0485
 6506TIP3   OH241076   2.735   4.834   8.492 -0.0510 -0.0954  0.4055
 6506TIP3    H141077   2.646   4.802   8.509  1.0490 -2.5684  2.0198
 6506TIP3    H241078   2.741   4.836   8.397 -2.0049  0.7608  0.2407
 6507TIP3   OH241079   4.644   0.759   8.327 -0.2187  0.2864 -0.1635
 6507TIP3    H141080   4.605   0.737   8.411  0.9798  0.4645  0.4628
 6507TIP3    H241081   4.633   0.853   8.319 -0.6746  0.2186 -0.4019
 6508TIP3   OH241082   0.378   1.459   1.018 -0.0470  0.1739  0.4379
 6508TIP3    H141083   0.394   1.481   1.110  0.7359  1.7785 -0.0525
 6508TIP3    H241084   0.366   1.364   1.018 -0.4177  0.1867  2.2411
 6509TIP3   OH241085   1.521   4.172   6.721 -0.3970 -0.2215  0.6579
 6509TIP3    H141086   1.606   4.127   6.714 -0.1822 -0.2294  2.7273
 6509TIP3    H241087   1.467   4.131   6.654  1.1010 -0.5143 -0.4192
 6510TIP3   OH241088   0.803   3.215   6.229 -0.5305 -0.3152 -0.5961
 6510TIP3    H141089   0.898   3.220   6.224 -0.4709 -0.9777 -0.2333
 6510TIP3    H241090   0.775   3.307   6.236  0.3069 -0.1698  2.6206
 6511TIP3   OH241091   6.460   4.762   1.338  0.3608  0.4429 -0.5824
 6511TIP3    H141092   6.431   4.853   1.331 -0.2645  0.2085 -1.1249
 6511TIP3    H241093   6.386   4.716   1.379  1.3924  0.5166  1.5221
 6512TIP3   OH241094   5.816   6.254   0.867  0.0679  0.3815  0.3559
 6512TIP3    H141095   5.848   6.168   0.897 -1.5965 -0.0602  0.9860
 6512TIP3    H241096   5.748   6.234   0.803 -1.0403  1.1846  1.2397
 6513TIP3   OH241097   4.244   0.262   0.149  0.6679  0.5264 -0.0484
 6513TIP3    H141098   4.262   0.213   0.230  1.9528  0.6298 -0.2527
 6513TIP3    H241099   4.312   0.329   0.146  0.8064  0.3543 -1.3550
 6514TIP3   OH241100   4.317   5.683   7.815  0.2842 -0.1906  0.3452
 6514TIP3    H141101   4.241   5.694   7.872  0.3864  2.5413  0.0858
 6514TIP3    H241102   4.286   5.627   7.743 -0.5062 -1.7338  1.8186
 6515TIP3   OH241103   4.974   4.549   8.091  0.3023  0.0966 -0.0743
 6515TIP3    H141104   5.068   4.544   8.108 -0.0272  0.3556  2.0695
 6515TIP3    H241105   4.938   4.467   8.123 -0.2472  0.1104 -0.6249
 6516TIP3   OH241106   6.134   6.862   1.528 -0.3857  0.2586 -0.3298
 6516TIP3    H141107   6.044   6.828   1.526 -0.7709  1.2614 -0.9092
 6516TIP3    H241108   6.184   6.798   1.477 -1.1627  0.7019 -1.7220
 6517TIP3   OH241109   3.229   0.527   0.021 -0.2193 -0.1125  0.2649
 6517TIP3    H141110   3.214   0.574   0.103  0.7118 -0.5548  0.7063
 6517TIP3    H241111   3.245   0.596  -0.043 -0.1176  0.2151  0.6339
 6518TIP3   OH241112   6.594   3.423   2.012  0.4944 -0.0511 -0.3209
 6518TIP3    H141113   6.523   3.386   1.960 -0.1191  1.2048 -0.4047
 6518TIP3    H241114   6.655   3.350   2.024 -0.2690 -0.8578 -1.1795
 6519TIP3   OH241115   1.893   4.010   7.724 -0.1995 -0.4845  0.5759
 6519TIP3    H141116   1.968   3.979   7.673 -0.2736  0.0773  0.1055
 6519TIP3    H241117   1.846   4.067   7.663 -0.1423  0.4131  1.3609
 6520TIP3   OH241118   2.156   0.882   0.897 -0.1110 -0.0456  0.2314
 6520TIP3    H141119   2.079   0.895   0.841 -0.4651 -1.4691  0.3361
 6520TIP3    H241120   2.143   0.795   0.935  0.9653  0.1929  1.2013
 6521TIP3   OH241121   5.382   0.763   6.511  0.0123  0.8095 -0.5156
 6521TIP3    H141122   5.330   0.683   6.512  0.8220  0.2629  0.3251
 6521TIP3    H241123   5.319   0.833   6.493 -1.2282  0.3090  1.5648
 6522TIP3   OH241124   6.760   2.669   6.943 -0.0725 -0.2438 -0.2987
 6522TIP3    H141125   6.800   2.676   6.856 -0.1168 -1.9500 -0.4807
 6522TIP3    H241126   6.666   2.659   6.926 -0.2490  0.7479  0.0166
 6523TIP3   OH241127   4.117   3.780   7.639 -0.4723  0.2445  0.2347
 6523TIP3    H141128   4.136   3.695   7.679  0.4207  1.7836  3.4189
 6523TIP3    H241129   4.037   3.810   7.682 -0.3204  1.3485 -0.2063
 6524TIP3   OH241130   3.516   4.797   7.978 -0.1798 -0.4234 -0.4181
 6524TIP3    H141131   3.461   4.848   8.038 -0.2928 -0.4467 -0.5017
 6524TIP3    H241132   3.500   4.706   8.003 -1.0092 -0.4910 -1.1479
 6525TIP3   OH241133   5.506   3.912   0.531  0.0901 -0.0177  0.2377
 6525TIP3    H141134   5.511   3.846   0.599 -1.0704  0.4831  0.8264
 6525TIP3    H241135   5.501   3.863   0.449 -0.6690 -0.6565  0.6621
 6526TIP3   OH241136   2.409   0.595   8.307  0.0662  0.1489  0.2124
 6526TIP3    H141137   2.480   0.617   8.367  0.1319 -0.5505  0.4048
 6526TIP3    H241138   2.346   0.547   8.360  0.5648 -1.3077 -0.4456
 6527TIP3   OH241139   3.595   4.667   7.733 -0.2628 -0.1911  0.3134
 6527TIP3    H141140   3.551   4.700   7.655  1.5485  0.4735 -0.4926
 6527TIP3    H241141   3.593   4.740   7.795  1.2151  0.5111 -0.4025
 6528TIP3   OH241142   3.137   0.601   1.088 -0.3439 -0.6370 -0.5222
 6528TIP3    H141143   3.177   0.528   1.041  0.8927 -0.6520  0.5097
 6528TIP3    H241144   3.185   0.606   1.171 -1.2849  0.5129 -0.0154
 6529TIP3   OH241145   6.749   4.814   0.724  0.0021  0.0264  0.6275
 6529TIP3    H141146   6.801   4.888   0.757  1.5505 -0.4585 -0.5695
 6529TIP3    H241147   6.663   4.825   0.763  0.2022  2.4443  0.5201
 6530TIP3   OH241148   6.232   6.497   1.036 -0.6777 -0.0785  0.2275
 6530TIP3    H141149   6.318   6.469   1.006 -1.1133 -0.2815 -0.8731
 6530TIP3    H241150   6.248   6.538   1.121  0.4210 -0.6139  0.2901
 6531TIP3   OH241151   2.851   2.831   7.322 -0.1162  0.4137 -0.0902
 6531TIP3    H141152   2.885   2.760   7.269 -0.8065 -0.4375  0.5760
 6531TIP3    H241153   2.758   2.813   7.330 -0.0817  0.6907  1.1348
 6532TIP3   OH241154   4.895   0.013   1.257  0.0940 -0.1831  0.9671
 6532TIP3    H141155   4.955  -0.024   1.192 -0.8130 -0.0378  0.0209
 6532TIP3    H241156   4.876   0.101   1.225 -0.7882 -0.3032  1.1259
 6533TIP3   OH241157   0.770   1.755   2.078 -0.1530 -0.3978 -0.5186
 6533TIP3    H141158   0.764   1.687   2.145  1.6566 -0.2680 -0.1579
 6533TIP3    H241159   0.864   1.760   2.058 -0.0730  2.5693  0.1007
 6534TIP3   OH241160   2.357   1.720   7.054 -0.0891 -0.0818 -0.0947
 6534TIP3    H141161   2.317   1.699   7.139 -0.0257  0.5236  0.0949
 6534TIP3    H241162   2.451   1.710   7.069 -0.0378  0.5638  0.0786
 6535TIP3   OH241163   4.242   0.143   7.929  0.6723  0.0718  0.3810
 6535TIP3    H141164   4.162   0.093   7.948  1.5268 -0.7081  2.2272
 6535TIP3    H241165   4.258   0.129   7.836 -2.0933  1.4338 -0.4027
 6536TIP3   OH241166   2.342   1.042   1.927 -0.4290  0.0201  0.3210
 6536TIP3    H141167   2.427   1.001   1.944 -0.3688  0.0183  0.0173
 6536TIP3    H241168   2.282   0.998   1.987 -0.1799  0.1576  0.6773
 6537TIP3   OH241169   2.850   3.428   7.253 -0.1608  0.1320 -0.5529
 6537TIP3    H141170   2.886   3.408   7.167 -0.6313  1.1916 -1.0068
 6537TIP3    H241171   2.779   3.489   7.236  0.4239  1.2017  0.6731
 6538TIP3   OH241172   1.890   5.276   6.006  0.5778 -0.3776  0.2861
 6538TIP3    H141173   1.976   5.254   5.971  0.2433  2.2995 -2.6493
 6538TIP3    H241174   1.828   5.228   5.951  0.1295 -0.0646  0.5109
 6539TIP3   OH241175   3.658   1.481   1.013 -0.4579 -0.2103 -0.2021
 6539TIP3    H141176   3.742   1.496   1.057 -0.2367 -1.1249 -0.2882
 6539TIP3    H241177   3.612   1.419   1.070 -0.7957 -0.2348 -0.4988
 6540TIP3   OH241178   5.374   0.612   0.270  0.3405  0.5274  0.0461
 6540TIP3    H141179   5.382   0.666   0.348  0.9221  2.1780 -1.1125
 6540TIP3    H241180   5.464   0.598   0.241  0.1712 -0.6756  0.0377
 6541TIP3   OH241181   5.267   2.746   7.906 -0.1596 -0.7571 -0.0254
 6541TIP3    H141182   5.182   2.707   7.888 -0.8321 -0.3763  2.0596
 6541TIP3    H241183   5.283   2.728   7.999  2.0218 -0.7777 -0.3438
 6542TIP3   OH241184   0.245   6.666   6.182 -0.3777  0.4197 -0.4817
 6542TIP3    H141185   0.176   6.691   6.243 -0.1797 -1.9537  0.8366
 6542TIP3    H241186   0.200   6.636   6.104 -0.7412  0.9323 -0.4698
 6543TIP3   OH241187   5.629   0.318   1.396 -0.1435 -0.1806 -0.2268
 6543TIP3    H141188   5.722   0.297   1.384 -0.3862 -0.3770 -2.0212
 6543TIP3    H241189   5.590   0.238   1.431 -0.0105 -0.8689 -1.5797
 6544TIP3   OH241190   6.517   0.330   8.249 -0.0215 -0.4943  0.3199
 6544TIP3    H141191   6.481   0.267   8.312 -0.6030  0.4553  0.9495
 6544TIP3    H241192   6.612   0.319   8.257 -0.1113 -1.6168  0.0750
 6545TIP3   OH241193   3.764   2.040   7.437 -0.1877 -0.3033 -0.0949
 6545TIP3    H141194   3.828   2.087   7.491  0.0188 -2.1745  1.3960
 6545TIP3    H241195   3.813   1.966   7.402 -1.1360 -0.8806 -0.2320
 6546TIP3   OH241196   6.778   4.052   8.523 -0.3480  0.2304 -0.2549
 6546TIP3    H141197   6.697   4.002   8.522  0.3289 -0.8984 -0.4477
 6546TIP3    H241198   6.791   4.075   8.615 -1.0403  0.7059 -0.2682
 6547TIP3   OH241199   6.812   6.225   8.074 -0.3752  0.5387 -0.3275
 6547TIP3    H141200   6.795   6.196   7.985  1.3385  2.0791 -1.2197
 6547TIP3    H241201   6.728   6.218   8.119 -1.2592 -0.2722 -2.0485
 6548TIP3   OH241202   6.152   4.221   1.016  0.1722 -0.1685 -0.2711
 6548TIP3    H141203   6.108   4.141   1.044  0.0177  0.1025  0.2579
 6548TIP3    H241204   6.223   4.190   0.959  0.5516 -0.7317  0.4923
 6549TIP3   OH241205   4.804   4.520   7.417  0.6844  0.1511 -0.3389
 6549TIP3    H141206   4.844   4.599   7.451  0.6903  0.2086 -0.4784
 6549TIP3    H241207   4.741   4.551   7.351  1.9278 -0.0409 -1.6667
 6550TIP3   OH241208   6.026   0.107   2.095  0.4858  0.3402 -0.3314
 6550TIP3    H141209   6.045   0.189   2.142  1.8552 -0.8074  1.2475
 6550TIP3    H241210   5.932   0.112   2.075 -0.3208  0.8119  2.9092
 6551TIP3   OH241211   6.836   0.680   2.240  0.3487 -0.5140  0.1883
 6551TIP3    H141212   6.887   0.757   2.267  0.4207 -0.7268  0.6731
 6551TIP3    H241213   6.865   0.610   2.300 -2.3411 -0.0428  2.2170
 6552TIP3   OH241214   4.909   0.890   8.164 -0.3292  0.5482 -0.0126
 6552TIP3    H141215   4.814   0.888   8.177 -0.5436 -2.6691 -1.3332
 6552TIP3    H241216   4.944   0.836   8.235  0.6306  2.0614  0.7252
 6553TIP3   OH241217   4.676   5.278   0.556  0.2534 -0.9764 -0.6206
 6553TIP3    H141218   4.713   5.226   0.627 -1.9810 -2.4517 -0.4584
 6553TIP3    H241219   4.652   5.361   0.597  0.2789 -1.2799  0.0185
 6554TIP3   OH241220   5.598   5.310   6.631 -0.2630 -0.2647  0.5114
 6554TIP3    H141221   5.630   5.238   6.576  2.6923  0.9744  0.4367
 6554TIP3    H241222   5.604   5.388   6.575  2.6073  0.9982  2.3408
 6555TIP3   OH241223   4.387   3.759   7.264  0.2986 -0.6136 -0.2540
 6555TIP3    H141224   4.368   3.684   7.320 -0.2767  0.1608  0.6324
 6555TIP3    H241225   4.446   3.813   7.317 -2.3473  1.4564  0.8165
 6556TIP3   OH241226   6.296   3.580   7.195  0.5119  0.2400  1.1110
 6556TIP3    H141227   6.262   3.659   7.238  0.8341  0.6047  0.7114
 6556TIP3    H241228   6.358   3.614   7.130 -0.0185 -0.2883  0.3152
 6557TIP3   OH241229   2.742   0.870   7.808 -0.4647 -0.2585  0.0751
 6557TIP3    H141230   2.662   0.841   7.764  0.5367 -0.8458 -1.4514
 6557TIP3    H241231   2.801   0.795   7.802  0.9713  0.8960 -0.8232
 6558TIP3   OH241232   4.062   0.185   1.827 -0.4892 -0.0639  0.1152
 6558TIP3    H141233   4.152   0.218   1.834 -0.5393  0.3422 -0.8761
 6558TIP3    H241234   4.071   0.090   1.829 -0.0433 -0.0268  0.1157
 6559TIP3   OH241235   1.939   4.006   7.211  0.0454  0.2758  0.3000
 6559TIP3    H141236   1.904   4.095   7.216  0.6769  0.9867 -4.2417
 6559TIP3    H241237   1.883   3.962   7.147  0.1418 -2.5144  1.9833
 6560TIP3   OH241238   0.506   1.741   0.687  0.2896 -0.4302  0.4273
 6560TIP3    H141239   0.556   1.770   0.610 -1.2621  0.0281 -0.4514
 6560TIP3    H241240   0.452   1.817   0.710 -0.8157 -1.2596  0.6499
 6561TIP3   OH241241   3.648   4.931   2.156 -0.3778  0.3897 -0.0179
 6561TIP3    H141242   3.688   5.011   2.190 -1.0171  0.8996 -0.4685
 6561TIP3    H241243   3.693   4.914   2.073  0.9632 -0.6844  0.8693
 6562TIP3   OH241244   4.034   4.553   0.879  0.1312 -0.2863 -0.1596
 6562TIP3    H141245   4.063   4.606   0.804 -0.6773  1.3266  0.6361
 6562TIP3    H241246   4.112   4.546   0.935  0.3104 -0.1763 -0.3907
 6563TIP3   OH241247   2.383   1.180   1.574 -0.7651  0.1669  0.7056
 6563TIP3    H141248   2.469   1.138   1.582 -0.7122  0.2942  0.8203
 6563TIP3    H241249   2.353   1.190   1.664 -0.8562  0.2139  0.6703
 6564TIP3   OH241250   3.043   3.053   6.076  0.0144 -0.1354 -0.5227
 6564TIP3    H141251   3.112   2.990   6.095 -0.3036 -0.1020  0.8994
 6564TIP3    H241252   2.988   3.052   6.155  0.1245  2.0842 -0.3590
 6565TIP3   OH241253   5.092   3.940   6.293  0.2791 -0.6146  0.0180
 6565TIP3    H141254   5.078   4.034   6.279 -0.1361 -0.7420 -0.4655
 6565TIP3    H241255   5.081   3.901   6.206  1.1678 -1.0287  0.0834
 6566TIP3   OH241256   1.326   1.010   0.654 -0.5759  0.7453  0.3189
 6566TIP3    H141257   1.325   1.008   0.750  0.0480  0.3951  0.3238
 6566TIP3    H241258   1.316   1.102   0.631 -0.7284  0.8307  0.7204
 6567TIP3   OH241259   6.604   6.436   1.649 -0.3951 -0.4269 -0.0977
 6567TIP3    H141260   6.545   6.494   1.600 -1.4793  0.1328  1.7574
 6567TIP3    H241261   6.573   6.442   1.739  3.1478  0.7685  1.2384
 6568TIP3   OH241262   4.748   3.792   1.090  0.5218 -0.2699  0.0425
 6568TIP3    H141263   4.743   3.698   1.109  2.6945 -0.5458 -0.4738
 6568TIP3    H241264   4.779   3.796   1.000 -0.1101  0.9782 -0.1375
 6569TIP3   OH241265   0.241   0.709   0.795 -0.7922  0.1541 -0.2466
 6569TIP3    H141266   0.235   0.615   0.775 -0.2281  0.4292 -1.9012
 6569TIP3    H241267   0.176   0.723   0.864  0.6443 -1.8370  1.6716
 6570TIP3   OH241268   1.662   2.527   6.381  0.0025 -0.6754 -0.1896
 6570TIP3    H141269   1.737   2.468   6.387  0.2813 -0.4630 -1.3108
 6570TIP3    H241270   1.609   2.508   6.459  1.0626 -1.0334  0.4612
 6571TIP3   OH241271   5.855   0.549   7.846  0.3061  0.1041 -0.0655
 6571TIP3    H141272   5.761   0.536   7.836  0.4388 -2.1536  0.9788
 6571TIP3    H241273   5.874   0.627   7.795 -2.0729  0.4273 -0.5730
 6572TIP3   OH241274   5.157   1.732   8.037 -0.4515  0.6803 -0.4329
 6572TIP3    H141275   5.221   1.688   7.982 -1.2869 -1.2508  0.0302
 6572TIP3    H241276   5.145   1.818   7.997 -0.1453 -0.2016 -2.5464
 6573TIP3   OH241277   3.870   6.413   0.015  0.3168  0.3317  0.0779
 6573TIP3    H141278   3.930   6.338   0.008  0.6151  0.7254 -2.9854
 6573TIP3    H241279   3.916   6.475   0.072  1.2658 -0.7340  0.5207
 6574TIP3   OH241280   4.841   5.191   6.845  0.1883  0.6736  0.0528
 6574TIP3    H141281   4.856   5.282   6.820 -1.0380  0.9106  0.1191
 6574TIP3    H241282   4.748   5.186   6.864  0.4710 -0.2958  1.3570
 6575TIP3   OH241283   1.688   4.461   6.899 -0.3272  0.5784 -0.0518
 6575TIP3    H141284   1.781   4.439   6.897 -1.0202 -2.8192 -1.2033
 6575TIP3    H241285   1.669   4.475   6.992  0.8026 -1.7229  0.6010
 6576TIP3   OH241286   0.012   6.485   1.615 -0.0650 -0.2145  0.5003
 6576TIP3    H141287  -0.081   6.506   1.622 -0.6309 -2.0783 -0.6852
 6576TIP3    H241288   0.030   6.428   1.691 -0.9029 -2.9209 -1.1831
 6577TIP3   OH241289   0.723   1.908   8.620 -0.3373  0.2655  0.0000
 6577TIP3    H141290   0.631   1.894   8.598 -0.3279  0.6405 -0.2843
 6577TIP3    H241291   0.771   1.878   8.543 -0.2153 -0.0465  0.1970
 6578TIP3   OH241292   1.999   5.256   1.305 -0.4610  0.3604  0.2377
 6578TIP3    H141293   2.054   5.324   1.267  1.1607 -1.0851 -0.1341
 6578TIP3    H241294   1.973   5.291   1.390  3.4195  0.1038  1.7365
 6579TIP3   OH241295   0.418   4.255   0.916  0.6515  0.4574  0.1743
 6579TIP3    H141296   0.442   4.163   0.910 -2.3700 -0.5705  1.8617
 6579TIP3    H241297   0.395   4.279   0.826  2.9765  0.1217 -0.5767
 6580TIP3   OH241298   5.799   0.497   1.566 -0.2336 -0.5226  0.3122
 6580TIP3    H141299   5.730   0.519   1.628 -1.5131 -1.0090 -0.8923
 6580TIP3    H241300   5.754   0.453   1.494  1.6059 -2.8763  0.4885
 6581TIP3   OH241301   4.358   3.423   0.528 -0.2903 -0.2577 -0.0986
 6581TIP3    H141302   4.275   3.374   0.525 -0.4664  0.0859 -1.3311
 6581TIP3    H241303   4.407   3.391   0.453 -0.7728  2.0611 -1.4992
 6582TIP3   OH241304   5.959   3.700   7.825 -0.4351 -0.3708 -0.2660
 6582TIP3    H141305   5.920   3.739   7.904 -2.4152  0.9375 -1.7906
 6582TIP3    H241306   6.049   3.733   7.823 -0.7178  0.5150  0.8176
 6583TIP3   OH241307   0.186   1.471   1.293  0.1130 -0.2894  0.1713
 6583TIP3    H141308   0.143   1.551   1.321 -0.6833 -0.2599 -1.0855
 6583TIP3    H241309   0.130   1.401   1.325  1.0553 -0.4091  1.6915
 6584TIP3   OH241310   1.823   1.249   0.986 -0.6366 -0.0103 -0.0461
 6584TIP3    H141311   1.891   1.220   1.047 -0.2703  1.2852  0.1882
 6584TIP3    H241312   1.796   1.335   1.019 -0.2473  0.8561 -1.8219
 6585TIP3   OH241313   0.242   0.354   1.096 -0.2139  0.1976  0.3886
 6585TIP3    H141314   0.198   0.278   1.133 -0.4678 -0.3049 -0.8828
 6585TIP3    H241315   0.223   0.425   1.157  0.7817 -0.9266  2.0914
 6586TIP3   OH241316   4.662   4.334   0.978  0.2964  0.3938 -0.5267
 6586TIP3    H141317   4.607   4.278   1.033  1.2293  0.3583  0.4157
 6586TIP3    H241318   4.682   4.279   0.901 -0.1236  0.0358 -0.3863
 6587TIP3   OH241319   2.287   6.334   0.819 -0.0031 -0.6058  0.1081
 6587TIP3    H141320   2.249   6.422   0.818 -2.4848 -1.5902 -1.7384
 6587TIP3    H241321   2.382   6.349   0.819 -0.3540  2.0802 -0.5401
 6588TIP3   OH241322   2.630   4.575   8.318 -0.0590 -0.0218 -0.1044
 6588TIP3    H141323   2.634   4.481   8.302 -1.0753  0.1774 -1.8615
 6588TIP3    H241324   2.671   4.614   8.240 -0.9154  1.0061 -0.0599
 6589TIP3   OH241325   1.611   0.365   2.274 -0.2325 -0.1585  0.2243
 6589TIP3    H141326   1.693   0.413   2.260 -0.8503  0.6514 -0.8327
 6589TIP3    H241327   1.545   0.434   2.286 -0.9665 -0.7579 -0.2701
 6590TIP3   OH241328   5.089   2.689   8.539 -0.0424  0.0653  0.2736
 6590TIP3    H141329   5.014   2.732   8.580  1.0600 -0.2854  2.8573
 6590TIP3    H241330   5.084   2.598   8.570  0.6552 -0.3064 -0.6790
 6591TIP3   OH241331   3.020   5.140   2.476 -0.5059 -0.1156 -1.4076
 6591TIP3    H141332   3.062   5.153   2.391  2.6392 -1.1790 -0.1711
 6591TIP3    H241333   3.086   5.167   2.540 -1.8468 -1.5578  0.7374
 6592TIP3   OH241334   3.499   4.539   8.189 -0.2447  0.1450 -0.1544
 6592TIP3    H141335   3.560   4.516   8.259  0.7994  1.4513 -0.5850
 6592TIP3    H241336   3.500   4.464   8.130 -1.0265 -0.9073  1.1268
 6593TIP3   OH241337   2.940   5.740   0.813 -0.0198 -0.0344 -0.2780
 6593TIP3    H141338   3.027   5.709   0.788 -0.1555 -0.3194 -0.3994
 6593TIP3    H241339   2.881   5.701   0.748 -0.5870 -2.0701  1.3427
 6594TIP3   OH241340   6.222   6.728   8.343 -0.5581 -0.2680  0.5064
 6594TIP3    H141341   6.227   6.646   8.391  0.5214 -0.0324  0.8279
 6594TIP3    H241342   6.262   6.709   8.258  0.2280  0.0533  0.7908
 6595TIP3   OH241343   1.222   2.846   0.257  0.3784 -0.4088 -0.5524
 6595TIP3    H141344   1.296   2.799   0.219  0.7199  0.3806 -0.8941
 6595TIP3    H241345   1.218   2.815   0.348  1.2683 -0.3001 -0.4652
 6596TIP3   OH241346   0.500   6.549   6.126  0.2780  0.5041 -0.2440
 6596TIP3    H141347   0.428   6.609   6.144  0.4216  1.0514 -1.3851
 6596TIP3    H241348   0.514   6.555   6.031 -0.0380 -1.7219 -0.4904
 6597TIP3   OH241349   5.003   4.237   7.331 -0.2887  0.2383 -0.1423
 6597TIP3    H141350   4.973   4.241   7.422  0.0607  1.9750 -0.0591
 6597TIP3    H241351   4.922   4.231   7.280 -0.5260 -0.0040  0.2569
 6598TIP3   OH241352   0.892   6.043   7.279 -0.4910 -0.3405 -0.0128
 6598TIP3    H141353   0.899   6.029   7.185 -0.2508  1.0206 -0.2145
 6598TIP3    H241354   0.980   6.066   7.307 -0.5971 -0.5563  0.5269
 6599TIP3   OH241355   0.570   6.455   1.561  0.2027 -0.4679 -0.2711
 6599TIP3    H141356   0.608   6.381   1.513 -0.6748 -0.0009 -1.7781
 6599TIP3    H241357   0.554   6.522   1.494 -1.3795  0.1108  0.6087
 6600TIP3   OH241358   5.867   2.857   6.983 -0.1806  0.4581 -0.2155
 6600TIP3    H141359   5.961   2.843   6.973  0.0461  0.1847  1.8898
 6600TIP3    H241360   5.829   2.769   6.981  0.0033  0.2775  2.0308
 6601TIP3   OH241361   5.315   5.618   0.959 -0.1234  0.8834 -0.7409
 6601TIP3    H141362   5.279   5.530   0.952  0.1062  0.8155 -1.0455
 6601TIP3    H241363   5.238   5.675   0.959 -0.2512  0.7131 -1.0000
 6602TIP3   OH241364   2.572   1.567   1.455 -0.4142 -0.4636 -0.4962
 6602TIP3    H141365   2.529   1.642   1.413  0.9222  0.4802 -0.2279
 6602TIP3    H241366   2.508   1.535   1.519 -1.3795 -0.1890 -1.2938
 6603TIP3   OH241367   5.432   5.323   0.888 -0.0289  0.4816 -0.3381
 6603TIP3    H141368   5.507   5.366   0.929  0.3951 -0.7760  0.2755
 6603TIP3    H241369   5.431   5.357   0.799  0.9147  0.9699 -0.1809
 6604TIP3   OH241370   0.959   1.326   7.002 -0.8546 -0.2103  0.9816
 6604TIP3    H141371   0.942   1.280   6.920 -0.6513  0.8437  0.3368
 6604TIP3    H241372   1.043   1.291   7.032 -0.3949  0.1903  0.1744
 6605TIP3   OH241373   0.661   0.412   1.013  0.2951 -0.1288  0.0432
 6605TIP3    H141374   0.629   0.335   1.059  1.5236 -1.7239 -1.6399
 6605TIP3    H241375   0.605   0.419   0.936  1.4983 -0.6295 -0.9004
 6606TIP3   OH241376   0.224   5.498   8.468 -0.7573 -0.7233 -0.4279
 6606TIP3    H141377   0.193   5.409   8.452  1.2673 -1.8843  1.5814
 6606TIP3    H241378   0.297   5.488   8.529  0.8775  2.1406 -1.6893
 6607TIP3   OH241379   6.311   6.222   8.601  0.2496 -0.0946 -0.1904
 6607TIP3    H141380   6.398   6.224   8.561  1.5803 -0.2756  2.4722
 6607TIP3    H241381   6.312   6.294   8.664 -0.4874 -1.6791  1.7674
 6608TIP3   OH241382   3.065   5.323   1.227  0.1540 -0.0765 -0.0847
 6608TIP3    H141383   3.013   5.366   1.295 -0.1451  2.0799 -1.5820
 6608TIP3    H241384   3.004   5.313   1.153  1.7917  2.8388 -2.0152
 6609TIP3   OH241385   3.086   3.352   7.943  0.2326  0.4314  0.3745
 6609TIP3    H141386   3.035   3.315   7.871  1.1954  1.6030 -0.9683
 6609TIP3    H241387   3.023   3.361   8.015 -0.4701 -1.8736  0.1311
 6610TIP3   OH241388   1.950   4.349   8.005  0.2407 -0.3597 -0.4886
 6610TIP3    H141389   2.015   4.351   8.075 -0.0352  0.3244 -0.2478
 6610TIP3    H241390   2.000   4.363   7.925  0.5812 -1.3150 -0.4569
 6611TIP3   OH241391   2.074   6.105   8.246  0.1389 -0.1334 -0.2303
 6611TIP3    H141392   2.040   6.164   8.178  2.3869 -0.5745 -1.8570
 6611TIP3    H241393   2.127   6.161   8.302 -0.7155  0.0134  0.4407
 6612TIP3   OH241394   4.968   5.867   8.372  0.1939  0.1988  0.1441
 6612TIP3    H141395   4.970   5.837   8.463 -1.1581 -0.4384 -0.0091
 6612TIP3    H241396   5.058   5.894   8.354  0.6747 -0.4632  1.4035
 6613TIP3   OH241397   6.299   2.853   0.986 -0.4754 -0.0720 -0.0926
 6613TIP3    H141398   6.340   2.768   1.003  0.1269  0.0055 -1.1084
 6613TIP3    H241399   6.205   2.834   0.985 -0.3511 -0.7271 -0.2909
 6614TIP3   OH241400   2.394   5.174   6.717 -0.5532 -0.8180 -0.3876
 6614TIP3    H141401   2.468   5.113   6.710  2.5748  2.6764 -0.4056
 6614TIP3    H241402   2.357   5.177   6.629  0.3962 -1.2912 -0.8128
 6615TIP3   OH241403   6.461   4.831   0.708 -0.3537  0.6636  0.2915
 6615TIP3    H141404   6.366   4.837   0.695 -0.1044  0.6623 -1.9132
 6615TIP3    H241405   6.497   4.895   0.646  1.1597 -1.2666 -0.9405
 6616TIP3   OH241406   0.344   5.186   0.088 -0.4866  0.4580  0.5506
 6616TIP3    H141407   0.385   5.168   0.172  0.2786 -0.6158 -0.0328
 6616TIP3    H241408   0.377   5.118   0.029  0.8832  2.5360 -1.2345
 6617TIP3   OH241409   0.761   0.129   1.332 -0.2795 -0.1257  0.0089
 6617TIP3    H141410   0.687   0.130   1.393 -0.1213  1.7093  0.2192
 6617TIP3    H241411   0.723   0.152   1.248 -0.3359 -1.7000 -0.4194
 6618TIP3   OH241412   2.163   2.522   7.788  0.3391  0.0762 -0.2880
 6618TIP3    H141413   2.072   2.509   7.764 -0.2193  1.5531  0.9008
 6618TIP3    H241414   2.193   2.594   7.732  1.1608 -1.1218 -1.4771
 6619TIP3   OH241415   0.736   3.972   8.408 -0.1502  1.0586 -0.1635
 6619TIP3    H141416   0.750   3.955   8.315 -0.1187 -0.7527  0.1387
 6619TIP3    H241417   0.651   3.933   8.427 -0.3153  1.7317  0.4984
 6620TIP3   OH241418   6.521   6.166   1.621  0.1834  0.3432  0.1124
 6620TIP3    H141419   6.574   6.141   1.545  0.7076  0.5471  0.4056
 6620TIP3    H241420   6.570   6.238   1.662 -0.4966  0.7697  0.1913
 6621TIP3   OH241421   0.674   3.465   6.236  0.0985 -0.3180 -0.4666
 6621TIP3    H141422   0.599   3.522   6.252  0.1146 -0.9766  2.5373
 6621TIP3    H241423   0.736   3.487   6.306  1.0235 -2.4587 -0.5372
 6622TIP3   OH241424   4.629   0.388   6.918  0.5128  0.2052  0.5953
 6622TIP3    H141425   4.627   0.293   6.908 -0.6760  0.2502  0.2112
 6622TIP3    H241426   4.669   0.419   6.837 -1.8115  0.1451 -0.6719
 6623TIP3   OH241427   4.933   6.496   1.043 -0.0035  0.2369  0.4684
 6623TIP3    H141428   4.934   6.566   0.978 -1.6638 -0.6766 -0.6190
 6623TIP3    H241429   5.024   6.488   1.072  0.2946  2.5368  0.3312
 6624TIP3   OH241430   3.301   4.421   7.128  0.6469  0.4973  0.3601
 6624TIP3    H141431   3.247   4.492   7.164 -0.2481  0.1842 -0.3301
 6624TIP3    H241432   3.265   4.342   7.167  2.0279  0.4403  1.5940
 6625TIP3   OH241433   5.137   6.849   1.471 -0.2030 -0.3945 -0.8514
 6625TIP3    H141434   5.078   6.924   1.472  0.7990  0.4282 -1.5236
 6625TIP3    H241435   5.177   6.849   1.558 -0.2846 -0.2210 -0.8134
 6626TIP3   OH241436   0.808   4.248   8.344  0.0636 -0.3694 -0.1352
 6626TIP3    H141437   0.778   4.175   8.399 -0.0056 -1.9619 -2.1855
 6626TIP3    H241438   0.900   4.229   8.328  0.2266  0.3947 -0.1119
 6627TIP3   OH241439   5.160   4.154   1.760 -0.0031  0.0134  0.0041
 6627TIP3    H141440   5.108   4.078   1.735 -0.3099  0.4030 -0.5525
 6627TIP3    H241441   5.225   4.119   1.822 -1.1618 -0.4028  1.0261
 6628TIP3   OH241442   5.315   5.999   2.450  0.0495 -0.0926 -0.3020
 6628TIP3    H141443   5.241   6.058   2.461 -0.5320 -0.7500 -0.6372
 6628TIP3    H241444   5.306   5.937   2.522  0.1386 -0.3176 -0.4854
 6629TIP3   OH241445   3.476   5.001   1.639 -0.0719  0.3634 -0.3665
 6629TIP3    H141446   3.461   4.999   1.734 -2.2640  0.9435 -0.6461
 6629TIP3    H241447   3.426   4.926   1.607  0.8428  0.0411 -1.0687
 6630TIP3   OH241448   4.983   4.777   1.111 -0.7470  0.9210 -0.0965
 6630TIP3    H141449   4.921   4.806   1.178 -1.0691  2.2669 -0.9421
 6630TIP3    H241450   5.054   4.840   1.114  1.0475 -1.0586  1.4035
 6631TIP3   OH241451   5.950   4.453   1.412  0.8661 -0.4736  0.4677
 6631TIP3    H141452   5.898   4.510   1.468  1.6346 -0.0008  0.7164
 6631TIP3    H241453   5.981   4.511   1.342 -2.2415 -1.5316 -2.0502
 6632TIP3   OH241454   6.248   6.443   2.770 -0.6446  0.0497  0.1868
 6632TIP3    H141455   6.190   6.441   2.846  1.1296 -2.0333  1.5962
 6632TIP3    H241456   6.191   6.420   2.696 -1.9709  0.0003  1.1896
 6633TIP3   OH241457   4.905   4.281   8.208  0.4433  0.1256  0.6215
 6633TIP3    H141458   4.830   4.316   8.257  0.9284 -1.3318  2.5586
 6633TIP3    H241459   4.870   4.205   8.162  0.4262  0.2808  0.3791
 6634TIP3   OH241460   2.180   2.507   7.400  0.4998 -0.3491 -0.2401
 6634TIP3    H141461   2.167   2.529   7.308  2.2124 -0.7425 -0.6221
 6634TIP3    H241462   2.104   2.454   7.424  0.1718 -0.4722 -1.5122
 6635TIP3   OH241463   5.587   4.097   6.641 -0.1478 -0.6732 -0.3430
 6635TIP3    H141464   5.608   4.188   6.663  0.1212 -0.7665 -0.2093
 6635TIP3    H241465   5.635   4.045   6.706 -1.5795 -0.8689  0.5948
 6636TIP3   OH241466   3.648   4.567   7.365  0.2345 -0.4914  0.3606
 6636TIP3    H141467   3.561   4.602   7.388  0.6954  0.7550  0.2779
 6636TIP3    H241468   3.636   4.529   7.279  0.1154  1.1390 -0.3832
 6637TIP3   OH241469   1.627   5.793   7.013 -0.3996  0.2998 -0.3992
 6637TIP3    H141470   1.689   5.842   6.959 -0.6258 -0.1829 -1.1175
 6637TIP3    H241471   1.650   5.701   6.996  0.4107  0.1347  1.3723
 6638TIP3   OH241472   5.589   5.469   0.145  0.1492 -0.1740  0.3117
 6638TIP3    H141473   5.548   5.553   0.164  0.0546  0.0529 -0.7925
 6638TIP3    H241474   5.548   5.440   0.063  1.0808 -0.6797 -0.0003
 6639TIP3   OH241475   2.434   3.593   0.056  0.4274 -0.2261  0.2011
 6639TIP3    H141476   2.476   3.560  -0.024 -0.0814 -0.4707  0.0235
 6639TIP3    H241477   2.467   3.537   0.126 -0.0988 -0.8478 -0.0356
 6640TIP3   OH241478   3.702   6.193   8.653 -0.2309 -0.4538  0.3453
 6640TIP3    H141479   3.762   6.122   8.631 -0.4953 -1.5035  2.6965
 6640TIP3    H241480   3.759   6.266   8.677  0.0412 -0.0453 -1.3989
 6641TIP3   OH241481   0.400   2.218   8.317 -0.2201  0.2222  0.3050
 6641TIP3    H141482   0.327   2.279   8.313 -0.7127 -0.4030 -1.8486
 6641TIP3    H241483   0.428   2.207   8.226 -0.0510 -2.5886  0.5788
 6642TIP3   OH241484   6.746   5.958   7.593  0.0273  0.0693  0.1679
 6642TIP3    H141485   6.828   5.909   7.596  0.3805  0.6605  0.3570
 6642TIP3    H241486   6.743   5.993   7.505  0.5135  0.9319  0.4823
 6643TIP3   OH241487   2.844   5.682   0.576  0.6057  0.1712  0.0665
 6643TIP3    H141488   2.829   5.626   0.500 -0.6109  2.6975 -1.6934
 6643TIP3    H241489   2.908   5.746   0.545 -1.2432  2.3334  0.5135
 6644TIP3   OH241490   4.444   3.756   0.994  0.3223  0.1866  0.2833
 6644TIP3    H141491   4.455   3.851   0.994  0.6811  0.1535 -0.5024
 6644TIP3    H241492   4.528   3.723   0.961 -0.4148 -0.3215 -1.1556
 6645TIP3   OH241493   0.727   2.248   1.017  0.1465  0.0385 -0.5367
 6645TIP3    H141494   0.696   2.177   0.962  0.3670  0.5681 -1.3504
 6645TIP3    H241495   0.813   2.219   1.048 -1.3820 -1.8193  2.4179
 6646TIP3   OH241496   2.145   1.716   8.036 -0.4624  0.0611 -0.0660
 6646TIP3    H141497   2.142   1.621   8.023 -1.2032  0.0075  0.4310
 6646TIP3    H241498   2.175   1.751   7.952  0.4096 -0.6473 -0.0681
 6647TIP3   OH241499   4.222   6.726   7.836  0.0396 -0.2403  0.6646
 6647TIP3    H141500   4.167   6.744   7.912 -1.3196  1.0229 -0.5640
 6647TIP3    H241501   4.186   6.646   7.798 -0.6199  0.2672  0.1932
 6648TIP3   OH241502   2.566   0.309   1.876 -0.1616  0.6082 -0.1789
 6648TIP3    H141503   2.585   0.236   1.934  2.1207  1.6807  0.5619
 6648TIP3    H241504   2.529   0.377   1.933 -1.1905  0.4606 -0.6485
 6649TIP3   OH241505   2.423   4.205   1.866  0.1954  0.7295 -0.4637
 6649TIP3    H141506   2.480   4.282   1.859 -0.4166  1.1096 -1.4173
 6649TIP3    H241507   2.350   4.223   1.807  0.7465 -1.1957 -1.8420
 6650TIP3   OH241508   3.764   5.279   0.008  0.1219  0.4769  0.3607
 6650TIP3    H141509   3.777   5.211  -0.058  1.4171 -0.1007  1.1745
 6650TIP3    H241510   3.827   5.347  -0.015  0.4038  0.3849  0.8604
 6651TIP3   OH241511   2.102   2.956   1.495  0.1763 -0.2537  0.7011
 6651TIP3    H141512   2.098   2.872   1.540  0.6726 -1.4763 -1.3877
 6651TIP3    H241513   2.021   3.001   1.520  0.4973 -0.7715  2.8463
 6652TIP3   OH241514   3.120   0.276   8.545 -0.0239 -0.2179  0.1737
 6652TIP3    H141515   3.113   0.204   8.608  0.6936 -0.3678  0.0809
 6652TIP3    H241516   3.085   0.352   8.592  3.1302  0.3463  1.8422
 6653TIP3   OH241517   4.024   4.283   2.282 -0.3732  0.3020  0.6105
 6653TIP3    H141518   3.978   4.312   2.361 -0.3326  0.6760  0.4998
 6653TIP3    H241519   4.068   4.362   2.250 -0.6295  0.2184  0.0510
 6654TIP3   OH241520   1.736   5.151   0.476  0.1397  0.2214 -0.0625
 6654TIP3    H141521   1.708   5.127   0.564  0.8466  2.3659  0.8079
 6654TIP3    H241522   1.693   5.087   0.419 -0.9980 -0.7132  1.7453
 6655TIP3   OH241523   5.301   3.761   0.016  0.2774  0.3113  0.0864
 6655TIP3    H141524   5.215   3.752  -0.026  0.4523 -0.0395 -0.1995
 6655TIP3    H241525   5.349   3.684  -0.011 -0.4833 -1.3712  3.0617
 6656TIP3   OH241526   3.393   0.224   1.340 -0.2369 -0.1076 -0.4008
 6656TIP3    H141527   3.413   0.130   1.349  2.0550  0.2705 -1.0122
 6656TIP3    H241528   3.462   0.268   1.390 -0.6458  1.2882 -1.0298
 6657TIP3   OH241529   6.671   2.490   6.378  0.4339 -0.6521  0.3309
 6657TIP3    H141530   6.671   2.405   6.334  3.0355 -1.4546  1.6431
 6657TIP3    H241531   6.598   2.485   6.439 -0.4253 -1.2871 -0.7068
 6658TIP3   OH241532   6.574   1.524   8.625  0.0867  0.6485  0.2503
 6658TIP3    H141533   6.602   1.585   8.556  0.6214  1.0581  0.8222
 6658TIP3    H241534   6.626   1.549   8.701 -0.0532 -0.2053  0.6310
 6659TIP3   OH241535   2.019   2.369   8.202 -0.7744 -0.6699  1.0823
 6659TIP3    H141536   2.032   2.405   8.290 -0.2751 -0.4829  0.9317
 6659TIP3    H241537   1.926   2.383   8.184 -0.3948  1.5235  0.6039
 6660TIP3   OH241538   2.926   1.896   8.305 -0.4184  0.0927 -0.7664
 6660TIP3    H141539   2.936   1.949   8.226  0.1832 -1.3084 -1.6696
 6660TIP3    H241540   2.960   1.810   8.280 -1.5415 -0.7786  0.5837
 6661TIP3   OH241541   6.443   1.982   7.251  0.3991 -0.0417  0.3725
 6661TIP3    H141542   6.456   2.074   7.272 -3.1920  0.6740 -0.0651
 6661TIP3    H241543   6.528   1.941   7.271  2.6283  3.5206 -0.9054
 6662TIP3   OH241544   5.812   3.537   1.340  0.3601 -0.3166 -0.6630
 6662TIP3    H141545   5.755   3.608   1.311 -0.6742  0.1323  2.2134
 6662TIP3    H241546   5.901   3.570   1.326 -0.0916  1.6797  0.7579
 6663TIP3   OH241547   1.789   2.715   6.168  0.0960  0.4007 -0.6968
 6663TIP3    H141548   1.856   2.648   6.157  1.2280  1.2423  0.6589
 6663TIP3    H241549   1.732   2.682   6.237  1.0430  1.0645  0.4492
 6664TIP3   OH241550   2.206   1.952   6.944 -0.1712  1.1481  0.0161
 6664TIP3    H141551   2.116   1.963   6.913  0.1003 -0.0227 -1.3196
 6664TIP3    H241552   2.215   1.858   6.958  0.4996  1.3886  1.3106
 6665TIP3   OH241553   1.355   0.118   8.197  1.0470 -0.0744 -0.3459
 6665TIP3    H141554   1.293   0.062   8.242 -0.5183  0.3353 -1.8858
 6665TIP3    H241555   1.432   0.063   8.183  0.6472 -0.9218  0.6757
 6666TIP3   OH241556   3.032   4.466   8.068  0.2374 -0.2599 -0.1491
 6666TIP3    H141557   3.035   4.409   8.145  0.0592  0.9245  0.7697
 6666TIP3    H241558   3.124   4.480   8.046  0.3904  0.8753  1.0293
 6667TIP3   OH241559   3.827   1.225   1.578  0.2217  0.3157  0.1044
 6667TIP3    H141560   3.781   1.165   1.637 -0.8720 -0.0940 -1.1102
 6667TIP3    H241561   3.899   1.260   1.630 -1.9836  1.7277  2.4320
 6668TIP3   OH241562   3.836   0.938   0.188 -0.3822  0.9267 -0.3898
 6668TIP3    H141563   3.765   1.002   0.184  0.9211  2.4878  0.1259
 6668TIP3    H241564   3.894   0.971   0.257  0.6165 -0.5382 -0.4761
 6669TIP3   OH241565   1.377   4.010   0.223 -0.3191 -0.3648 -0.1091
 6669TIP3    H141566   1.389   3.934   0.165  3.2297 -0.9697  1.1385
 6669TIP3    H241567   1.441   4.074   0.191 -0.7649  0.6787  1.0152
 6670TIP3   OH241568   0.228   4.491   0.325  0.6164  0.4779 -0.2004
 6670TIP3    H141569   0.197   4.451   0.406  1.5361 -1.2524 -0.6558
 6670TIP3    H241570   0.312   4.530   0.348 -0.6777  3.1521  0.4720
 6671TIP3   OH241571   1.637   3.684   2.168  0.1176 -0.4012 -0.0863
 6671TIP3    H141572   1.593   3.644   2.092  0.7005 -0.6178 -0.3138
 6671TIP3    H241573   1.570   3.741   2.207  0.2838  0.9620 -1.6855
 6672TIP3   OH241574   5.832   5.192   1.204 -0.7394 -0.3594  0.1457
 6672TIP3    H141575   5.818   5.208   1.110  0.2547  3.5170  0.4629
 6672TIP3    H241576   5.926   5.177   1.211 -0.9120 -1.3159  0.4767
 6673TIP3   OH241577   3.651   4.723   8.656  0.0217 -0.2408 -0.4759
 6673TIP3    H141578   3.634   4.812   8.686  1.1118 -0.3090  0.4256
 6673TIP3    H241579   3.662   4.673   8.737 -2.5611 -1.6502 -0.9019
 6674TIP3   OH241580   2.321   1.387   0.784 -0.1039 -0.0110 -0.6247
 6674TIP3    H141581   2.332   1.475   0.820 -0.7659  0.0217 -0.4874
 6674TIP3    H241582   2.242   1.353   0.827  0.1729 -0.6898 -0.6418
 6675TIP3   OH241583   1.616   2.611   1.947  0.2203  0.2563 -0.1794
 6675TIP3    H141584   1.593   2.518   1.938  0.0295  0.3712 -0.8936
 6675TIP3    H241585   1.607   2.629   2.041  0.6679 -0.5544  0.0332
 6676TIP3   OH241586   2.148   4.029   8.084 -0.1648  0.0254  0.0948
 6676TIP3    H141587   2.154   4.031   7.988  1.4632  1.9100  0.1488
 6676TIP3    H241588   2.173   3.940   8.108  0.3339 -0.2149 -1.2039
 6677TIP3   OH241589   6.156   4.540   8.648  0.9020  0.1703 -0.1493
 6677TIP3    H141590   6.172   4.580   8.734 -1.5717  2.3024 -0.5765
 6677TIP3    H241591   6.089   4.473   8.665  1.6433 -0.6077 -0.1983
 6678TIP3   OH241592   1.030   1.091   0.609 -0.0370 -0.3454 -0.1791
 6678TIP3    H141593   1.017   1.042   0.690 -1.5068  0.6604  0.2192
 6678TIP3    H241594   1.123   1.115   0.611  0.2935 -1.5667  0.4769
 6679TIP3   OH241595   6.412   4.115   1.634  0.6387 -0.8298  0.1228
 6679TIP3    H141596   6.424   4.094   1.727 -3.2358  0.3342  1.0827
 6679TIP3    H241597   6.323   4.086   1.615 -0.1315  2.4926 -2.0729
 6680TIP3   OH241598   2.551   0.914   6.051 -0.2488  0.8469  0.2095
 6680TIP3    H141599   2.537   0.889   6.142  0.4611 -2.8858 -0.5350
 6680TIP3    H241600   2.644   0.935   6.046  0.3858 -1.6537 -0.0444
 6681TIP3   OH241601   4.084   0.641   0.745  0.2835  0.2404  0.1973
 6681TIP3    H141602   4.119   0.688   0.821  0.8489 -0.9279  0.6709
 6681TIP3    H241603   4.104   0.698   0.671 -1.2897  1.9533  1.0024
 6682TIP3   OH241604   0.366   0.479   1.475 -0.1451  0.1263 -0.0965
 6682TIP3    H141605   0.316   0.443   1.548  0.7813  0.2424  0.6273
 6682TIP3    H241606   0.420   0.405   1.445  0.6098  0.4794  0.3640
 6683TIP3   OH241607   2.948   5.428   1.839  0.0064 -0.2873  0.3749
 6683TIP3    H141608   2.925   5.521   1.833 -3.1316 -0.9633 -0.2710
 6683TIP3    H241609   2.945   5.409   1.933 -2.8636 -0.3633  0.3579
 6684TIP3   OH241610   4.248   2.434   1.733 -0.2021 -0.5037  0.0365
 6684TIP3    H141611   4.294   2.392   1.805 -2.0155 -2.5656  0.1022
 6684TIP3    H241612   4.199   2.506   1.774 -0.2806 -0.9086  0.6652
 6685TIP3   OH241613   5.376   6.085   7.207 -0.6458 -0.0615 -0.6012
 6685TIP3    H141614   5.427   6.008   7.181 -0.6832 -0.3342  0.1257
 6685TIP3    H241615   5.434   6.160   7.189  0.2361 -0.3992  0.7515
 6686TIP3   OH241616   1.142   5.469   7.479 -0.4709  0.0360 -0.0505
 6686TIP3    H141617   1.154   5.553   7.436  1.5745 -0.2017 -0.0280
 6686TIP3    H241618   1.096   5.415   7.414  0.8107  0.2909 -1.2163
 6687TIP3   OH241619   6.217   3.407   0.520 -0.4988 -0.6881 -0.1558
 6687TIP3    H141620   6.173   3.370   0.597  1.8124  1.1240  2.2223
 6687TIP3    H241621   6.163   3.482   0.495 -0.8329 -0.7958  0.2321
 6688TIP3   OH241622   1.902   0.886   8.044  0.5276  0.7081  0.3834
 6688TIP3    H141623   1.916   0.855   8.133  0.9497  0.1530  0.1297
 6688TIP3    H241624   1.935   0.816   7.988 -1.6202  0.1258 -0.2515
 6689TIP3   OH241625   5.096   0.906   0.214 -0.0892 -0.7941  0.0827
 6689TIP3    H141626   5.012   0.950   0.199 -0.5222 -2.4516 -3.2356
 6689TIP3    H241627   5.158   0.954   0.159  1.3651  0.6461  2.7808
 6690TIP3   OH241628   6.789   2.986   6.622  0.2706  0.2948 -0.2336
 6690TIP3    H141629   6.739   2.973   6.542  0.2625  0.6523 -0.2899
 6690TIP3    H241630   6.871   2.938   6.607  0.9122  1.5811 -1.0808
 6691TIP3   OH241631   4.153   4.440   8.482 -0.4731  0.1292 -0.0003
 6691TIP3    H141632   4.166   4.464   8.390 -0.7402 -0.2547 -0.1396
 6691TIP3    H241633   4.238   4.405   8.509 -0.1360  1.0435  0.1531
 6692TIP3   OH241634   4.994   6.201   6.487 -0.4123 -0.2533 -0.2863
 6692TIP3    H141635   4.978   6.173   6.577  0.4271 -2.3219 -0.7223
 6692TIP3    H241636   5.069   6.260   6.493  0.1868 -1.0450  0.3159
 6693TIP3   OH241637   3.652   3.264   8.640  0.2134  0.1419  0.7367
 6693TIP3    H141638   3.634   3.203   8.569 -1.0320  0.3593  0.8394
 6693TIP3    H241639   3.687   3.342   8.596  0.2730 -0.0405  0.4565
 6694TIP3   OH241640   5.259   3.083   7.089 -0.0406 -0.3057 -0.5975
 6694TIP3    H141641   5.261   3.100   6.995 -0.5971  0.6880 -0.4491
 6694TIP3    H241642   5.173   3.113   7.117  0.6477  0.8054  0.4602
 6695TIP3   OH241643   4.465   4.983   0.217 -0.0679 -0.6029  0.0521
 6695TIP3    H141644   4.491   4.906   0.267 -0.3434 -0.5807  0.2299
 6695TIP3    H241645   4.401   4.950   0.154  1.9060 -1.0776 -1.8460
 6696TIP3   OH241646   5.104   4.636   7.658 -0.0137 -0.1327 -0.1462
 6696TIP3    H141647   5.163   4.561   7.672 -0.7384 -1.1697 -2.1756
 6696TIP3    H241648   5.020   4.607   7.694  0.4270  1.0106  1.9571
 6697TIP3   OH241649   1.900   4.601   1.353  0.4345  0.0248  0.1009
 6697TIP3    H141650   1.840   4.542   1.398  0.3107  1.9259  2.6283
 6697TIP3    H241651   1.987   4.567   1.372  0.3273  0.0153  0.5745
 6698TIP3   OH241652   4.993   2.547   7.047  0.2508  0.1329 -0.9025
 6698TIP3    H141653   4.967   2.555   6.955  0.1886 -0.9827 -0.9955
 6698TIP3    H241654   4.942   2.614   7.092 -2.0161 -1.2608 -1.2420
 6699TIP3   OH241655   4.448   2.980   0.656 -0.0408 -0.0583 -0.6745
 6699TIP3    H141656   4.398   2.932   0.722 -1.4187  0.9447 -0.9390
 6699TIP3    H241657   4.439   3.072   0.683  0.8376  0.2187 -1.3041
 6700TIP3   OH241658   4.291   4.753   0.165  0.3552  0.1439 -0.1899
 6700TIP3    H141659   4.256   4.807   0.236  0.5779  1.5604 -1.1290
 6700TIP3    H241660   4.275   4.803   0.086  0.1241 -1.4121 -1.1703
 6701TIP3   OH241661   2.260   1.171   0.366  0.7339  0.0900  0.0099
 6701TIP3    H141662   2.226   1.250   0.409  0.4337  0.5025 -0.9719
 6701TIP3    H241663   2.353   1.169   0.389  1.0854  1.5385 -1.1400
 6702TIP3   OH241664   3.601   5.214   1.496  0.0195 -0.1661 -0.2872
 6702TIP3    H141665   3.519   5.258   1.517  0.0886 -0.6066  1.0041
 6702TIP3    H241666   3.596   5.131   1.543  0.6597 -0.7641 -1.2317
 6703TIP3   OH241667   6.222   1.525   7.188 -0.0658 -0.7961 -0.0509
 6703TIP3    H141668   6.157   1.591   7.209 -0.4359 -0.6209 -1.6850
 6703TIP3    H241669   6.284   1.569   7.130  1.4558 -0.9973  1.3408
 6704TIP3   OH241670   1.991   2.261   7.194  0.3717  0.5313 -0.0170
 6704TIP3    H141671   2.007   2.278   7.101  0.9785 -0.9363 -0.2121
 6704TIP3    H241672   2.006   2.167   7.204 -0.1680  0.5737  1.4767
 6705TIP3   OH241673   3.562   4.340   8.040 -0.2901  0.3894 -0.5058
 6705TIP3    H141674   3.508   4.369   7.966  1.2400  1.5875 -1.2099
 6705TIP3    H241675   3.648   4.323   8.002  0.3395  0.3190  0.8865
 6706TIP3   OH241676   0.512   5.735   0.838  0.5230  0.5502 -0.2360
 6706TIP3    H141677   0.469   5.813   0.873 -0.7841 -0.2641  0.0383
 6706TIP3    H241678   0.500   5.741   0.744 -0.8606 -0.0104 -0.1238
 6707TIP3   OH241679   0.665   1.613   1.699  0.0576  0.1544 -0.6582
 6707TIP3    H141680   0.760   1.627   1.702 -0.1072  2.0758 -2.4843
 6707TIP3    H241681   0.629   1.677   1.760 -0.0792 -1.1593  0.7053
 6708TIP3   OH241682   3.753   2.303   6.583 -0.1489 -0.0641  0.3701
 6708TIP3    H141683   3.843   2.303   6.552  0.0556 -0.9067  0.9230
 6708TIP3    H241684   3.704   2.252   6.519 -0.4501  1.2201 -0.4645
 6709TIP3   OH241685   2.597   2.625   0.588  0.2845  0.4138 -0.4936
 6709TIP3    H141686   2.508   2.657   0.570 -0.0024 -0.8158 -1.4684
 6709TIP3    H241687   2.600   2.614   0.683 -0.8812 -0.2347 -0.5044
 6710TIP3   OH241688   4.938   0.579   0.693 -0.0939 -0.4740 -0.0079
 6710TIP3    H141689   4.842   0.584   0.690 -0.0984 -1.1084 -1.2823
 6710TIP3    H241690   4.960   0.612   0.780 -1.4179  0.4610  0.0054
 6711TIP3   OH241691   2.609   3.581   7.319  0.2247 -0.1663  0.3969
 6711TIP3    H141692   2.529   3.619   7.355 -0.0280 -0.8695  0.5847
 6711TIP3    H241693   2.597   3.487   7.327  0.0753 -0.3687 -1.6836
 6712TIP3   OH241694   2.933   6.136   0.283 -0.0436  0.2409  0.7020
 6712TIP3    H141695   2.984   6.079   0.226 -0.8299 -0.5599  0.7760
 6712TIP3    H241696   2.905   6.208   0.226 -2.5889 -1.5994 -0.5409
 6713TIP3   OH241697   2.326   0.388   1.344  0.4332 -0.3939 -0.8309
 6713TIP3    H141698   2.376   0.393   1.425  0.9339 -1.4196 -1.0612
 6713TIP3    H241699   2.316   0.479   1.316 -0.9850  0.1035  1.1046
 6714TIP3   OH241700   2.626   4.355   0.433  0.3275  0.0864 -0.3343
 6714TIP3    H141701   2.683   4.412   0.382 -0.0736  0.0865 -0.7861
 6714TIP3    H241702   2.569   4.415   0.482 -0.2612  0.0849 -0.9978
 6715TIP3   OH241703   1.222   6.296   6.138 -0.4316 -0.0555  0.0137
 6715TIP3    H141704   1.195   6.383   6.108 -0.1546 -0.4733 -1.4885
 6715TIP3    H241705   1.140   6.246   6.140 -0.4064 -0.1159 -0.3729
 6716TIP3   OH241706   5.313   1.134   1.107 -0.7128  0.0379  0.3196
 6716TIP3    H141707   5.229   1.110   1.069 -0.7819 -0.3332  0.7009
 6716TIP3    H241708   5.292   1.163   1.195 -0.3255 -1.0970  0.7987
 6717TIP3   OH241709   5.738   1.389   5.981 -0.6995 -0.0466  0.4098
 6717TIP3    H141710   5.779   1.341   6.052  2.8405  1.7079 -0.2205
 6717TIP3    H241711   5.790   1.368   5.903 -1.8507  1.2666 -0.7888
 6718TIP3   OH241712   5.178   0.178   8.442  0.2473 -0.1297 -0.1514
 6718TIP3    H141713   5.112   0.181   8.372  0.3999 -1.4111 -0.3748
 6718TIP3    H241714   5.254   0.136   8.401  0.6113 -0.1639  0.5593
 6719TIP3   OH241715   0.507   2.003   7.838 -0.2165 -0.1618  0.1780
 6719TIP3    H141716   0.571   1.933   7.845  0.7373  0.7735  1.1285
 6719TIP3    H241717   0.543   2.075   7.890 -2.2372  0.2632  1.1118
 6720TIP3   OH241718   3.075   6.316   7.512  0.0248  0.9738  0.1346
 6720TIP3    H141719   3.072   6.266   7.431 -0.3766  1.0847  0.0804
 6720TIP3    H241720   3.030   6.398   7.491 -0.3232  0.8898  0.5489
 6721TIP3   OH241721   1.164   0.521   8.461  0.1286 -0.1976 -0.4796
 6721TIP3    H141722   1.068   0.521   8.460 -0.0599 -0.2935  2.9478
 6721TIP3    H241723   1.190   0.461   8.391 -2.2928 -0.2200 -1.4454
 6722TIP3   OH241724   5.860   6.009   8.469  0.1705  0.5818  0.8460
 6722TIP3    H141725   5.907   5.927   8.460  1.4551  1.5159 -2.0991
 6722TIP3    H241726   5.928   6.074   8.488 -0.1980  1.5513 -0.9160
 6723TIP3   OH241727   0.979   6.041   1.988  0.0634  0.5263  0.1575
 6723TIP3    H141728   1.044   6.087   1.935 -0.5462 -0.7601 -1.8162
 6723TIP3    H241729   1.019   5.956   2.006 -0.6930  0.0467 -0.3505
 6724TIP3   OH241730   6.094   4.574   6.630 -0.0980 -0.3930  0.2040
 6724TIP3    H141731   6.187   4.576   6.606  0.4981  0.2712  2.3104
 6724TIP3    H241732   6.072   4.665   6.647 -1.3656 -0.4555 -0.9429
 6725TIP3   OH241733   1.271   4.874   7.748  0.0310  0.2697  0.7439
 6725TIP3    H141734   1.344   4.913   7.796  1.3622  0.2280 -1.1287
 6725TIP3    H241735   1.251   4.938   7.680 -1.1612 -0.0841  0.7502
 6726TIP3   OH241736   4.114   5.328   7.911  0.0469  0.1674 -0.2682
 6726TIP3    H141737   4.122   5.393   7.841  1.1936 -0.0398 -0.3500
 6726TIP3    H241738   4.129   5.244   7.867 -0.5100 -0.0752 -0.0003
 6727TIP3   OH241739   0.766   2.051   2.070 -0.1086 -0.8620  0.2891
 6727TIP3    H141740   0.760   1.976   2.129 -1.6566 -0.2135  0.9950
 6727TIP3    H241741   0.695   2.109   2.097 -0.7299 -0.4235 -2.0580
 6728TIP3   OH241742   0.895   0.905   7.966 -0.2773 -0.2157  0.0274
 6728TIP3    H141743   0.942   0.864   7.893 -1.4556 -2.6956  0.5285
 6728TIP3    H241744   0.963   0.934   8.026  0.6624 -0.1438 -1.0559
 6729TIP3   OH241745   2.364   0.301   7.232  0.5510 -0.1394 -0.2965
 6729TIP3    H141746   2.411   0.339   7.157 -3.3151  2.3877 -1.7362
 6729TIP3    H241747   2.344   0.212   7.204  1.1004  0.0330 -1.3141
 6730TIP3   OH241748   2.384   5.517   0.612  0.1372  0.3747  0.0452
 6730TIP3    H141749   2.442   5.576   0.660  1.7542 -1.5801  0.6419
 6730TIP3    H241750   2.405   5.532   0.520  0.2466  0.9952  0.1702
 6731TIP3   OH241751   0.242   2.956   7.098 -0.4936 -0.1083  0.1110
 6731TIP3    H141752   0.266   2.866   7.075 -0.4056 -0.4898  1.5366
 6731TIP3    H241753   0.255   3.006   7.018  0.4000 -1.1901 -0.4542
 6732TIP3   OH241754   3.774   2.930   1.987  0.0253  0.1857 -0.6729
 6732TIP3    H141755   3.818   2.982   2.055 -1.9203 -0.2998  1.0695
 6732TIP3    H241756   3.771   2.987   1.911  1.3568  1.1552 -0.0418
 6733TIP3   OH241757   4.450   2.882   1.830 -0.0236 -0.4189 -0.1350
 6733TIP3    H141758   4.396   2.947   1.875  1.4490  0.4823  0.4082
 6733TIP3    H241759   4.527   2.872   1.886  1.4245 -0.0044 -1.9568
 6734TIP3   OH241760   6.535   2.009   1.487  0.4666 -0.7230  0.2562
 6734TIP3    H141761   6.538   2.057   1.404  0.9573 -1.5728 -0.2306
 6734TIP3    H241762   6.624   1.977   1.500  0.7084  0.4314  1.7599
 6735TIP3   OH241763   0.314   0.419   7.791  0.4217 -0.3008  0.0799
 6735TIP3    H141764   0.318   0.457   7.879 -2.5645  0.4077  0.0025
 6735TIP3    H241765   0.272   0.334   7.804  0.2344 -0.3161 -0.6276
 6736TIP3   OH241766   4.950   0.809   1.622  0.1285  0.2222  0.9361
 6736TIP3    H141767   4.965   0.766   1.706 -0.0480  1.9086  1.8816
 6736TIP3    H241768   5.031   0.794   1.573 -0.4247 -2.2626  0.6763
 6737TIP3   OH241769   1.581   5.412   1.806 -0.1539  0.2459 -0.0874
 6737TIP3    H141770   1.617   5.352   1.871 -1.4683 -0.4149  0.0795
 6737TIP3    H241771   1.503   5.367   1.773 -1.1247  1.7998 -0.0263
 6738TIP3   OH241772   2.746   1.797   0.846 -0.6889  0.6432  0.2524
 6738TIP3    H141773   2.802   1.871   0.822 -1.5285  1.0636 -0.4128
 6738TIP3    H241774   2.798   1.749   0.911 -0.4460  2.2361  1.2891
 6739TIP3   OH241775   1.576   3.886   7.303 -0.5169 -0.3995 -0.1381
 6739TIP3    H141776   1.508   3.946   7.273  0.0509 -0.3719 -1.4562
 6739TIP3    H241777   1.555   3.803   7.260 -0.9162 -0.9817  1.1450
 6740TIP3   OH241778   5.822   6.179   1.280  0.3910  0.2980  0.1961
 6740TIP3    H141779   5.889   6.240   1.250  1.3494 -0.0019  1.6544
 6740TIP3    H241780   5.802   6.125   1.203  1.2577  0.8831 -0.4554
 6741TIP3   OH241781   2.294   2.743   0.699  0.1386  0.3768 -0.0945
 6741TIP3    H141782   2.307   2.708   0.611  1.7614 -0.0969  0.3082
 6741TIP3    H241783   2.216   2.799   0.691  0.8330  1.1489 -2.0520
 6742TIP3   OH241784   0.602   2.044   0.891 -0.1995 -0.1660 -0.4445
 6742TIP3    H141785   0.551   2.043   0.810 -0.3972 -0.9138 -0.3206
 6742TIP3    H241786   0.564   1.973   0.943  0.5681 -0.3250 -0.0965
 6743TIP3   OH241787   5.129   2.105   7.900 -0.1047  0.3414 -0.4350
 6743TIP3    H141788   5.185   2.117   7.977  0.1401 -0.6136 -0.4513
 6743TIP3    H241789   5.178   2.045   7.845 -0.9800 -0.2103 -0.6243
 6744TIP3   OH241790   5.564   0.781   7.867  0.1374 -0.0459 -0.0956
 6744TIP3    H141791   5.547   0.701   7.816  1.2612  0.1455 -0.8032
 6744TIP3    H241792   5.569   0.850   7.801  0.2303  0.4403  0.4179
 6745TIP3   OH241793   0.570   1.301   1.555  0.7083  0.3503  0.4402
 6745TIP3    H141794   0.499   1.360   1.581  1.9054  1.6766  0.8525
 6745TIP3    H241795   0.526   1.226   1.517 -0.9928  0.4002  2.1286
 6746TIP3   OH241796   3.572   1.153   7.493 -0.3384  0.3559 -0.6490
 6746TIP3    H141797   3.552   1.148   7.399 -1.1944  0.9538 -0.5077
 6746TIP3    H241798   3.565   1.246   7.515 -1.9729  0.0365  0.3727
 6747TIP3   OH241799   0.569   3.266   8.452 -0.5707  0.1472  0.0576
 6747TIP3    H141800   0.478   3.241   8.439 -1.4818  1.2767  3.2182
 6747TIP3    H241801   0.573   3.358   8.427  0.5253 -0.6019 -2.8761
 6748TIP3   OH241802   2.124   0.245   6.794  0.0981  0.0537  0.2113
 6748TIP3    H141803   2.094   0.163   6.754  0.8891 -1.4014  2.4518
 6748TIP3    H241804   2.218   0.248   6.776  0.3637 -0.3546  1.4480
 6749TIP3   OH241805   6.502   2.916   6.561  0.1159 -0.0015  0.0830
 6749TIP3    H141806   6.463   2.857   6.625  0.2991  0.0958  0.2843
 6749TIP3    H241807   6.547   2.859   6.499  2.3621 -0.0028  1.5986
 6750TIP3   OH241808   4.959   1.561   8.095  0.5421 -0.5172  0.2010
 6750TIP3    H141809   5.039   1.607   8.067  1.1601 -0.7736  1.4641
 6750TIP3    H241810   4.948   1.491   8.031 -0.2249  1.1446 -1.5684
 6751TIP3   OH241811   0.535   6.657   0.915  0.1352 -0.1162  1.0183
 6751TIP3    H141812   0.527   6.573   0.961  0.7077 -1.1543 -0.7051
 6751TIP3    H241813   0.624   6.656   0.879  0.0048  1.0623  0.6211
 6752TIP3   OH241814   5.646   4.050   1.543 -0.0452 -0.0430 -0.3432
 6752TIP3    H141815   5.719   4.001   1.504  0.8972 -0.0928  1.3908
 6752TIP3    H241816   5.595   3.983   1.590  0.5640  0.4027  1.0190
 6753TIP3   OH241817   4.041   2.244   0.447 -0.1967  0.0683 -0.9470
 6753TIP3    H141818   4.016   2.333   0.421 -0.9431  0.3036  0.4966
 6753TIP3    H241819   4.113   2.256   0.509 -0.3850 -0.3178 -0.6502
 6754TIP3   OH241820   1.790   5.473   8.535 -0.2074 -0.2109 -0.3417
 6754TIP3    H141821   1.752   5.461   8.448  0.2449 -0.7858 -0.4645
 6754TIP3    H241822   1.775   5.565   8.555 -4.2739 -0.9067  0.8364
 6755TIP3   OH241823   0.683   3.616   1.517 -0.1220 -0.2149  0.0020
 6755TIP3    H141824   0.651   3.623   1.427 -1.5665  0.7686  0.5748
 6755TIP3    H241825   0.608   3.587   1.568  0.4798 -0.0143  1.0376
 6756TIP3   OH241826   2.007   4.857   6.970 -0.3456  0.1023  0.1603
 6756TIP3    H141827   2.004   4.858   7.066  1.3193  0.1010  0.2461
 6756TIP3    H241828   2.020   4.765   6.948 -1.4725 -0.0073 -0.1339
 6757TIP3   OH241829   3.867   5.859   0.760  0.6163 -0.2080 -0.1630
 6757TIP3    H141830   3.842   5.864   0.852  0.2424 -0.3704 -0.2542
 6757TIP3    H241831   3.899   5.770   0.748  0.0718 -0.3911 -0.3304
 6758TIP3   OH241832   6.155   4.419   0.812 -0.0735  0.4102  0.4126
 6758TIP3    H141833   6.147   4.380   0.900 -0.3431 -1.6823 -0.4859
 6758TIP3    H241834   6.247   4.407   0.789 -0.0485  0.7660  0.3273
 6759TIP3   OH241835   6.838   2.343   8.591  0.8128  0.7987 -0.2788
 6759TIP3    H141836   6.830   2.356   8.686  0.0201  1.9402 -0.4844
 6759TIP3    H241837   6.754   2.306   8.565  1.9191 -2.0323 -0.1928
 6760TIP3   OH241838   2.905   4.134   6.572  0.1655 -0.0314  0.4316
 6760TIP3    H141839   2.940   4.223   6.582 -0.0407 -0.0664  1.5619
 6760TIP3    H241840   2.833   4.129   6.633 -0.6311 -0.5925 -0.5174
 6761TIP3   OH241841   2.723   2.536   8.393  0.0982  0.1380  0.1983
 6761TIP3    H141842   2.766   2.457   8.360 -0.3265  0.8396 -2.2813
 6761TIP3    H241843   2.640   2.505   8.429 -0.1791 -0.5581 -0.9825
 6762TIP3   OH241844   3.235   4.479   8.292  0.5020  0.0015 -0.1347
 6762TIP3    H141845   3.225   4.570   8.265  1.4687  0.1856  0.0709
 6762TIP3    H241846   3.325   4.456   8.267 -0.3900 -1.5978 -2.1778
 6763TIP3   OH241847   5.071   0.948   1.337 -0.1596  0.1803  0.2095
 6763TIP3    H141848   5.137   0.906   1.391  0.0083 -0.1796 -0.2657
 6763TIP3    H241849   5.082   1.042   1.354  1.0413  0.1910 -0.4934
 6764TIP3   OH241850   3.668   6.125   6.496 -0.2357  0.3136 -0.1375
 6764TIP3    H141851   3.730   6.191   6.465  0.6563  0.0016  0.9033
 6764TIP3    H241852   3.680   6.051   6.436 -0.6685  0.7925 -0.8246
 6765TIP3   OH241853   1.214   4.316   7.071  0.4091 -0.1852  0.2559
 6765TIP3    H141854   1.207   4.402   7.028  0.0591 -0.2301  0.2168
 6765TIP3    H241855   1.228   4.255   7.000  2.3846  0.0246  0.4193
 6766TIP3   OH241856   0.127   1.685   8.431 -0.1426  0.0087  0.2767
 6766TIP3    H141857   0.131   1.590   8.447 -0.3948  0.0470  0.5826
 6766TIP3    H241858   0.151   1.695   8.339  1.1796 -0.2413  0.5788
 6767TIP3   OH241859   3.895   5.524   0.384  0.2247  0.2946  0.9324
 6767TIP3    H141860   3.861   5.435   0.385  1.0436 -0.1447 -1.8425
 6767TIP3    H241861   3.820   5.579   0.405 -0.8210 -0.9363  0.5187
 6768TIP3   OH241862   1.167   1.924   7.403  0.5027 -0.4615 -0.0832
 6768TIP3    H141863   1.253   1.955   7.377  0.2658 -1.3911 -2.2009
 6768TIP3    H241864   1.178   1.893   7.493  1.6575  1.9863  0.6960
 6769TIP3   OH241865   1.582   3.337   0.133  0.4911  0.1380  1.1555
 6769TIP3    H141866   1.567   3.415   0.079  0.3787  0.5201  1.7341
 6769TIP3    H241867   1.495   3.300   0.147  0.6063 -0.4863  0.3143
 6770TIP3   OH241868   1.339   6.548   8.054 -0.3457  0.0837 -0.1798
 6770TIP3    H141869   1.291   6.585   7.979  1.3734  1.4408 -0.6945
 6770TIP3    H241870   1.431   6.565   8.033  0.1634  0.9801  2.4733
 6771TIP3   OH241871   3.150   4.371   5.992  0.0934  0.5016 -0.4851
 6771TIP3    H141872   3.154   4.285   5.949  0.5607 -0.3366  1.1235
 6771TIP3    H241873   3.237   4.383   6.029  0.0363  1.6990 -0.7114
 6772TIP3   OH241874   6.714   1.704   1.116 -0.6077 -0.0074 -0.1651
 6772TIP3    H141875   6.639   1.717   1.175  1.0936  2.5097  1.6186
 6772TIP3    H241876   6.689   1.749   1.035 -1.4434 -0.1362  0.0121
 6773TIP3   OH241877   4.381   3.798   0.421  0.1766 -0.1936  0.1734
 6773TIP3    H141878   4.412   3.849   0.346 -0.5532  0.4803  0.3147
 6773TIP3    H241879   4.381   3.860   0.494  1.0687 -0.8949  0.7902
 6774TIP3   OH241880   5.564   0.369   6.943  0.2778  0.7405  0.3550
 6774TIP3    H141881   5.548   0.457   6.909  0.1908  1.3702  1.9043
 6774TIP3    H241882   5.492   0.355   7.005  0.2882 -0.4365  0.1150
 6775TIP3   OH241883   5.762   4.400   0.936 -0.0206 -0.2171 -0.4847
 6775TIP3    H141884   5.806   4.365   0.859 -0.2770  1.5182 -1.4641
 6775TIP3    H241885   5.761   4.495   0.923 -3.1305 -0.0660 -0.0264
 6776TIP3   OH241886   6.359   1.122   6.848 -0.1150 -0.0243 -0.4953
 6776TIP3    H141887   6.415   1.049   6.819 -1.2976 -1.8113  1.4985
 6776TIP3    H241888   6.408   1.162   6.920  1.0357  1.9665 -2.2617
 6777TIP3   OH241889   3.761   6.436   0.604  0.1974  0.1695 -0.1676
 6777TIP3    H141890   3.681   6.482   0.626  0.9042  0.8669  1.0761
 6777TIP3    H241891   3.793   6.402   0.688  1.0590 -0.3194 -0.6762
 6778TIP3   OH241892   2.418   4.903   6.444 -0.0544 -0.6084  0.3252
 6778TIP3    H141893   2.414   4.911   6.349  1.5143 -0.2188  0.2665
 6778TIP3    H241894   2.477   4.829   6.460  0.0253 -0.4145  0.9917
 6779TIP3   OH241895   1.755   1.559   8.587  0.1438  0.7402  0.1231
 6779TIP3    H141896   1.699   1.557   8.665  0.4924  1.7017  0.4222
 6779TIP3    H241897   1.843   1.546   8.622  0.0725 -1.8935 -0.4566
 6780TIP3   OH241898   0.979   4.984   7.871  0.2649 -0.0051  0.0967
 6780TIP3    H141899   0.982   4.933   7.790  1.5986 -0.2065  0.2542
 6780TIP3    H241900   1.046   5.052   7.859  0.4646 -0.0305  1.0158
 6781TIP3   OH241901   3.736   4.223   7.070  0.1038 -0.1337  0.0990
 6781TIP3    H141902   3.685   4.296   7.104  0.5089 -0.0941  0.6477
 6781TIP3    H241903   3.698   4.145   7.111  0.4125 -0.1127  0.4366
 6782TIP3   OH241904   5.522   3.079   1.053  0.4135  0.0388  0.6228
 6782TIP3    H141905   5.539   3.128   0.973 -0.7426 -0.8317 -0.1938
 6782TIP3    H241906   5.587   3.008   1.052  0.7727  0.3615  0.7658
 6783TIP3   OH241907   0.507   5.663   8.252 -0.2611  0.1170  0.0700
 6783TIP3    H141908   0.537   5.592   8.195 -1.2305 -0.6638  0.5213
 6783TIP3    H241909   0.552   5.648   8.335  1.9761  1.8489 -0.7126
 6784TIP3   OH241910   2.138   2.034   7.202  0.0610  0.0486  0.6852
 6784TIP3    H141911   2.159   2.015   7.111 -0.4898  3.4165 -0.3086
 6784TIP3    H241912   2.221   2.024   7.248  0.7990  0.1202 -0.5704
 6785TIP3   OH241913   3.848   0.583   0.857  0.0183 -0.0578 -0.0240
 6785TIP3    H141914   3.921   0.620   0.808  0.2712  0.4521  0.7257
 6785TIP3    H241915   3.883   0.502   0.895  0.3351  0.4216  0.7132
 6786TIP3   OH241916   1.068   2.328   6.849  0.6308 -0.5106  0.0664
 6786TIP3    H141917   1.106   2.277   6.777 -0.1298 -1.6810  0.4632
 6786TIP3    H241918   1.005   2.386   6.806 -0.3569 -1.7113 -0.1882
 6787TIP3   OH241919   6.102   1.412   0.729  0.2358  0.3589  0.4496
 6787TIP3    H141920   6.011   1.409   0.759  0.3808  0.4993  0.9008
 6787TIP3    H241921   6.106   1.345   0.661 -0.7046  1.7005 -0.9935
 6788TIP3   OH241922   1.328   1.383   6.822  0.2325 -0.2913  0.2018
 6788TIP3    H141923   1.383   1.320   6.869  0.6812 -0.2861 -0.3009
 6788TIP3    H241924   1.296   1.335   6.746  0.8460  0.1724 -0.3618
 6789TIP3   OH241925   6.040   4.659   0.741 -0.0700 -0.1333  0.3092
 6789TIP3    H141926   6.084   4.578   0.765  1.8827  0.8354  0.2119
 6789TIP3    H241927   5.966   4.665   0.802  0.8408 -1.0533  1.5646
 6790TIP3   OH241928   2.555   3.449   8.499  0.2500 -0.0518  0.2597
 6790TIP3    H141929   2.647   3.437   8.521  0.1154  1.0595  1.4803
 6790TIP3    H241930   2.554   3.453   8.403  1.4727  0.0005  0.2329
 6791TIP3   OH241931   5.252   5.879   1.145  0.0738  0.2515 -0.0423
 6791TIP3    H141932   5.339   5.905   1.174  0.2584 -0.7318  0.3280
 6791TIP3    H241933   5.194   5.948   1.178  0.6291  0.5786  0.2672
 6792TIP3   OH241934   1.435   4.357   7.275 -0.1205 -0.4354 -0.2833
 6792TIP3    H141935   1.378   4.359   7.198  0.3115 -0.6960 -0.6101
 6792TIP3    H241936   1.399   4.425   7.332 -1.7771 -1.6689  0.2405
 6793TIP3   OH241937   6.237   4.579   7.807  0.3992  0.0249  0.0897
 6793TIP3    H141938   6.332   4.588   7.819  0.4749 -0.4322 -0.1422
 6793TIP3    H241939   6.220   4.613   7.720  0.6206 -1.5442 -0.6002
 6794TIP3   OH241940   6.755   6.440   0.800 -0.0495  0.5514  0.4799
 6794TIP3    H141941   6.663   6.420   0.818 -0.0816  0.2176 -0.0428
 6794TIP3    H241942   6.768   6.414   0.709  0.6704  0.2306  0.6671
 6795TIP3   OH241943   5.484   0.302   6.001  0.0866 -0.1647  0.1946
 6795TIP3    H141944   5.556   0.343   5.954 -1.0281  0.6394 -0.8766
 6795TIP3    H241945   5.492   0.209   5.981  0.4084  0.0081 -0.5023
 6796TIP3   OH241946   6.323   0.854   8.181  0.5730  0.0821  1.4638
 6796TIP3    H141947   6.244   0.858   8.127  0.0502  1.0501  2.2552
 6796TIP3    H241948   6.335   0.945   8.210  1.9194 -0.0796  1.4485
 6797TIP3   OH241949   3.602   1.410   1.588  0.3979 -0.1505 -0.0788
 6797TIP3    H141950   3.611   1.500   1.555  0.1119 -0.2962 -0.5688
 6797TIP3    H241951   3.691   1.375   1.587  0.4772  0.0498 -0.1106
 6798TIP3   OH241952   6.447   2.914   7.498 -0.1780  0.3561  0.6478
 6798TIP3    H141953   6.428   2.900   7.591 -0.8116 -0.0336  0.4684
 6798TIP3    H241954   6.393   2.989   7.474  1.3166  1.6129  0.9996
 6799TIP3   OH241955   0.893   0.964   8.587 -0.4145 -0.7948  0.3563
 6799TIP3    H141956   0.906   0.918   8.503 -0.7593 -1.1684  0.5029
 6799TIP3    H241957   0.981   0.973   8.623 -0.3713 -1.7224  0.5178
 6800TIP3   OH241958   0.609   1.843   7.574 -0.5667  0.6141  0.3425
 6800TIP3    H141959   0.634   1.931   7.601 -0.8339  1.5495 -2.1725
 6800TIP3    H241960   0.690   1.792   7.576 -0.0786  1.3762  0.2154
 6801TIP3   OH241961   5.367   2.080   0.519  0.9828 -0.0156  0.4998
 6801TIP3    H141962   5.433   2.149   0.523 -0.2841  1.2142  1.0406
 6801TIP3    H241963   5.285   2.126   0.501  0.0874 -1.3866  0.8958
 6802TIP3   OH241964   0.305   5.932   0.807 -0.8977  0.5111  0.3201
 6802TIP3    H141965   0.257   5.851   0.823 -0.0871 -0.0256  0.1311
 6802TIP3    H241966   0.343   5.954   0.892 -1.3372  0.8449  0.4325
 6803TIP3   OH241967   0.525   2.490   7.444 -0.6193 -0.1633 -0.2129
 6803TIP3    H141968   0.470   2.546   7.499  0.4626  0.8797 -0.1453
 6803TIP3    H241969   0.531   2.407   7.493 -0.3533  0.4630  0.8612
 6804TIP3   OH241970   2.269   5.938   7.705  0.1586  0.5132 -0.1049
 6804TIP3    H141971   2.270   5.897   7.791  0.4233  0.2088 -0.2486
 6804TIP3    H241972   2.244   5.867   7.645  1.1992  0.3992 -0.4292
 6805TIP3   OH241973   5.350   2.097   7.690  0.8674  0.2932  0.3797
 6805TIP3    H141974   5.336   2.023   7.748  0.0364  0.6957  0.7197
 6805TIP3    H241975   5.435   2.133   7.716  0.2706  0.7962  1.7316
 6806TIP3   OH241976   2.246   2.564   1.772 -0.3122  0.3913  0.2850
 6806TIP3    H141977   2.333   2.554   1.810 -0.4170 -0.9845  0.2037
 6806TIP3    H241978   2.195   2.492   1.809 -1.6180  1.5618  0.8499
 6807TIP3   OH241979   0.668   5.420   8.659  0.4646  0.0133  0.2161
 6807TIP3    H141980   0.575   5.443   8.660  0.3791 -0.3428  1.2880
 6807TIP3    H241981   0.670   5.329   8.689  1.1080 -0.1973 -0.4426
 6808TIP3   OH241982   4.831   3.033   0.828 -0.1679  0.1275 -0.5226
 6808TIP3    H141983   4.895   3.078   0.773  0.0856 -1.7656 -1.8860
 6808TIP3    H241984   4.857   2.941   0.824 -0.7570 -0.2276  1.9951
 6809TIP3   OH241985   3.174   2.904   7.512  0.1281 -0.0617 -0.3820
 6809TIP3    H141986   3.265   2.879   7.528  0.3501 -0.4750 -2.1047
 6809TIP3    H241987   3.155   2.870   7.425 -1.5469  0.4155 -0.2294
 6810TIP3   OH241988   3.234   0.838   0.950 -0.2184 -0.2587  0.0047
 6810TIP3    H141989   3.192   0.776   1.009 -1.3279  0.6949  0.2680
 6810TIP3    H241990   3.191   0.922   0.969  1.7061  0.7405  0.1592
 6811TIP3   OH241991   2.506   0.377   1.590  0.0034 -0.3072  0.9248
 6811TIP3    H141992   2.565   0.372   1.665  0.1509 -1.9272  0.7318
 6811TIP3    H241993   2.560   0.352   1.515 -0.6150 -0.5949  0.5675
 6812TIP3   OH241994   1.165   3.791   1.122  0.5017 -0.1247  0.4020
 6812TIP3    H141995   1.095   3.726   1.123 -0.9046  1.3108 -0.5762
 6812TIP3    H241996   1.150   3.844   1.200  0.3019  0.3682  0.0356
 6813TIP3   OH241997   3.563   3.297   2.117  0.0262 -0.0172  0.3089
 6813TIP3    H141998   3.578   3.290   2.023 -0.9693  0.2784  0.1144
 6813TIP3    H241999   3.617   3.372   2.144 -0.1541  0.2713 -0.1321
 6814TIP3   OH242000   6.773   4.523   0.653  0.3536  0.2180  0.4014
 6814TIP3    H142001   6.714   4.448   0.651  0.9785 -0.3286 -2.0736
 6814TIP3    H242002   6.716   4.599   0.642 -0.0296 -0.2103 -0.7666
 6815TIP3   OH242003   5.915   5.302   0.636 -0.0875 -0.2293  0.6286
 6815TIP3    H142004   5.904   5.296   0.731 -1.3003  0.8760  0.5789
 6815TIP3    H242005   6.010   5.296   0.623  0.0491 -1.0437  1.8516
 6816TIP3   OH242006   3.455   1.374   1.165  0.1162 -0.1777  0.6607
 6816TIP3    H142007   3.411   1.387   1.081 -1.8468 -0.2795  1.6202
 6816TIP3    H242008   3.392   1.324   1.218  1.1481  0.1967  2.3100
 6817TIP3   OH242009   1.785   2.038   7.643  0.2410  0.6008 -0.0385
 6817TIP3    H142010   1.744   2.011   7.560 -0.8179 -0.0564  0.6721
 6817TIP3    H242011   1.871   1.997   7.641  0.0628  0.2277 -0.6337
 6818TIP3   OH242012   2.242   1.307   6.373  0.3563  0.3380  0.0706
 6818TIP3    H142013   2.195   1.285   6.293 -0.1927  1.1155  0.1767
 6818TIP3    H242014   2.273   1.222   6.406 -1.1679 -0.2213  0.1315
 6819TIP3   OH242015   4.839   3.333   7.859 -0.4388  0.6760  0.5809
 6819TIP3    H142016   4.879   3.251   7.887 -2.2594 -0.8478 -1.0043
 6819TIP3    H242017   4.782   3.358   7.931  1.1262  1.3335  1.6399
 6820TIP3   OH242018   4.121   6.842   0.866  0.3326 -0.0988 -0.2635
 6820TIP3    H142019   4.040   6.797   0.842 -0.3787  1.1010 -0.2159
 6820TIP3    H242020   4.140   6.811   0.955 -0.7629  0.5087  0.2053
 6821TIP3   OH242021   2.746   3.060   7.810 -0.5074  0.1879  0.5484
 6821TIP3    H142022   2.678   3.035   7.748  0.1255 -0.6623  0.1810
 6821TIP3    H242023   2.812   2.991   7.803  0.4800  1.0841  0.7684
 6822TIP3   OH242024   6.062   3.699   1.107 -0.0724  0.1948  0.7191
 6822TIP3    H142025   6.047   3.690   1.201 -1.0731 -0.7928  0.4843
 6822TIP3    H242026   6.003   3.636   1.066  1.4241 -0.4746 -0.5182
 6823TIP3   OH242027   5.882   6.483   6.563  0.7506  1.4207 -0.1624
 6823TIP3    H142028   5.832   6.546   6.511 -0.2563 -0.3892 -1.4889
 6823TIP3    H242029   5.972   6.495   6.535  0.1273 -0.2112 -3.2293
 6824TIP3   OH242030   1.967   4.206   8.493 -0.8655  0.2014 -0.3515
 6824TIP3    H142031   2.030   4.268   8.530 -1.2313  0.6981 -0.5582
 6824TIP3    H242032   2.010   4.173   8.414 -0.1664 -0.7145  0.3857
 6825TIP3   OH242033   0.963   4.203   0.660 -0.0617  0.2468 -0.3567
 6825TIP3    H142034   0.951   4.109   0.648 -1.0770  0.1336  1.2631
 6825TIP3    H242035   1.049   4.212   0.701 -0.6269 -0.1200  0.9353
 6826TIP3   OH242036   3.435   6.198   0.099 -0.0044  0.4018  0.4673
 6826TIP3    H142037   3.529   6.216   0.094 -0.0136  0.4960  0.6001
 6826TIP3    H242038   3.401   6.223   0.013  0.5180 -2.2815 -0.5948
 6827TIP3   OH242039   2.102   0.235   1.339  0.6506  0.2920  0.0834
 6827TIP3    H142040   2.056   0.282   1.408 -1.4829 -0.6358 -0.5978
 6827TIP3    H242041   2.182   0.285   1.324  0.4111  1.3766  2.1091
 6828TIP3   OH242042   5.924   3.231   7.579  0.1537 -0.0356  0.0684
 6828TIP3    H142043   5.828   3.235   7.570  0.1597  0.3273  0.1768
 6828TIP3    H242044   5.956   3.306   7.529  0.3860 -0.1950 -0.0203
 6829TIP3   OH242045   5.985   5.275   7.592 -0.6029  0.4507 -0.7143
 6829TIP3    H142046   5.898   5.313   7.576 -0.2348  1.4047 -0.5399
 6829TIP3    H242047   6.016   5.248   7.506 -1.2743 -0.3550 -0.7113
 6830TIP3   OH242048   4.324   6.513   1.322  0.4481  0.8178 -0.0852
 6830TIP3    H142049   4.260   6.471   1.379 -0.0916  0.8096 -0.6837
 6830TIP3    H242050   4.377   6.440   1.288  1.7055  0.9481  1.4958
 6831TIP3   OH242051   5.130   6.675   8.025 -0.0472  0.0938  0.6667
 6831TIP3    H142052   5.159   6.708   7.941  1.8918 -2.4171  0.2086
 6831TIP3    H242053   5.060   6.613   8.004  0.8302 -0.9772  0.7520
 6832TIP3   OH242054   1.444   1.993   8.139 -0.6271  0.6081 -0.3311
 6832TIP3    H142055   1.399   2.066   8.182  1.3119  2.1892 -0.8438
 6832TIP3    H242056   1.533   2.025   8.125  0.6236 -2.2663  0.3874
 6833TIP3   OH242057   6.382   1.508   7.438  0.2451  0.3911  0.1293
 6833TIP3    H142058   6.420   1.423   7.413  0.2180  0.7648 -1.2717
 6833TIP3    H242059   6.322   1.529   7.367 -0.2257  1.2918  0.7823
 6834TIP3   OH242060   2.607   3.898   0.494 -0.4115 -0.0598 -0.3046
 6834TIP3    H142061   2.629   3.960   0.563 -2.4117  1.6357 -1.0827
 6834TIP3    H242062   2.512   3.905   0.485 -0.3259 -0.9904 -2.4976
 6835TIP3   OH242063   6.701   1.884   7.851 -0.3930  0.3847  0.2784
 6835TIP3    H142064   6.764   1.828   7.807  0.8648  0.2132  2.1470
 6835TIP3    H242065   6.633   1.825   7.882 -1.4647  0.5520 -1.6290
 6836TIP3   OH242066   6.161   2.181   2.079  0.2106  0.3406  0.5842
 6836TIP3    H142067   6.216   2.119   2.031  0.9714  0.5875  1.1195
 6836TIP3    H242068   6.115   2.127   2.143 -0.2784  0.1171  0.0613
 6837TIP3   OH242069   1.020   1.968   0.054 -0.3226  0.0301 -0.4717
 6837TIP3    H142070   1.093   2.022   0.082 -0.6842  1.0398 -1.4048
 6837TIP3    H242071   0.942   2.013   0.087 -0.6483  0.3032 -1.5490
 6838TIP3   OH242072   3.168   2.475   6.568 -0.0053 -0.4906  0.6450
 6838TIP3    H142073   3.257   2.442   6.557 -0.7068 -1.9986 -1.3430
 6838TIP3    H242074   3.158   2.541   6.499 -0.5695 -0.7582  0.4569
 6839TIP3   OH242075   0.401   2.950   0.782 -0.2089 -0.0451 -0.3376
 6839TIP3    H142076   0.481   2.985   0.742  1.4090  0.4196  3.0071
 6839TIP3    H242077   0.412   2.855   0.779  0.7552  0.0192  0.5111
 6840TIP3   OH242078   0.021   1.698   6.928  0.3919 -0.1648  0.1810
 6840TIP3    H142079  -0.056   1.741   6.892  0.1929 -0.0066  0.7965
 6840TIP3    H242080   0.094   1.736   6.878  0.1188  0.0477 -0.0629
 6841TIP3   OH242081   2.980   5.283   6.395 -0.0625 -0.4589 -0.3164
 6841TIP3    H142082   2.962   5.306   6.486 -1.6286  4.1786 -1.4991
 6841TIP3    H242083   3.072   5.304   6.383 -1.0609  5.0097 -0.9230
 6842TIP3   OH242084   3.962   2.914   0.788  0.0396  0.2084  0.1108
 6842TIP3    H142085   3.942   2.870   0.705 -0.7467 -0.4305  0.6183
 6842TIP3    H242086   3.942   2.848   0.855  0.6558  0.7213  0.8110
 6843TIP3   OH242087   0.348   6.623   6.451 -0.2076 -0.0163  0.0167
 6843TIP3    H142088   0.267   6.604   6.404  0.6843 -0.3967 -1.4403
 6843TIP3    H242089   0.380   6.704   6.412  1.0690 -0.8767 -0.8055
 6844TIP3   OH242090   6.457   0.377   0.701 -0.3090 -0.0117 -0.7005
 6844TIP3    H142091   6.372   0.400   0.665 -1.1497 -1.2853  0.3578
 6844TIP3    H242092   6.453   0.405   0.792  0.3699 -0.1448 -0.6256
 6845TIP3   OH242093   6.806   4.364   2.113  0.0075 -0.8412 -0.7177
 6845TIP3    H142094   6.860   4.422   2.166 -1.8798  1.2182 -0.9061
 6845TIP3    H242095   6.860   4.345   2.036  0.6867  0.6340 -0.6326
 6846TIP3   OH242096   6.546   1.539   0.803  0.6833 -0.3459 -0.1014
 6846TIP3    H142097   6.464   1.495   0.826  1.7594 -2.0352  0.7039
 6846TIP3    H242098   6.552   1.613   0.863 -0.1523 -0.3207 -0.0375
 6847TIP3   OH242099   4.607   5.779   8.047 -0.3267  0.1713  0.1439
 6847TIP3    H142100   4.525   5.818   8.075 -0.3986  1.1012 -1.2475
 6847TIP3    H242101   4.605   5.786   7.951  0.4159 -1.7474 -0.0648
 6848TIP3   OH242102   5.279   4.848   7.103 -0.4455  0.6814 -0.8035
 6848TIP3    H142103   5.221   4.834   7.028  0.1940  1.3294 -1.4456
 6848TIP3    H242104   5.362   4.808   7.077 -0.8231 -1.0291  0.4656
 6849TIP3   OH242105   5.611   6.459   1.264  0.0640  0.1760  1.4724
 6849TIP3    H142106   5.683   6.462   1.200  0.9812 -3.2637  2.1544
 6849TIP3    H242107   5.540   6.416   1.218  0.6870 -2.2163  2.5950
 6850TIP3   OH242108   4.577   2.637   1.563  0.1524 -0.3809 -0.1824
 6850TIP3    H142109   4.488   2.674   1.562 -0.0898 -0.9584 -0.8242
 6850TIP3    H242110   4.618   2.677   1.640 -1.1790 -1.3205  1.0664
 6851TIP3   OH242111   6.302   3.803   1.739  0.0388  0.3298 -0.6452
 6851TIP3    H142112   6.374   3.779   1.796 -0.1613  0.6715 -0.2393
 6851TIP3    H242113   6.242   3.853   1.795  0.4426  1.7671 -1.4385
 6852TIP3   OH242114   1.157   6.139   1.794  0.0984  0.3195 -0.2046
 6852TIP3    H142115   1.245   6.178   1.788 -0.5529  1.7009 -1.4217
 6852TIP3    H242116   1.154   6.076   1.721 -0.0685  0.6088 -0.4501
 6853TIP3   OH242117   1.589   0.106   1.394  0.2390 -0.2968  0.0444
 6853TIP3    H142118   1.562   0.023   1.353  1.0330 -1.1138  1.1078
 6853TIP3    H242119   1.525   0.121   1.463  1.7700 -1.7313  1.9280
 6854TIP3   OH242120   2.432   4.381   2.214  0.3234 -0.3186  0.0416
 6854TIP3    H142121   2.340   4.409   2.219 -0.4052 -2.3441 -0.8880
 6854TIP3    H242122   2.482   4.458   2.241 -1.6253  0.9703  0.1879
 6855TIP3   OH242123   0.523   5.035   7.659 -0.3268  0.3032 -0.5457
 6855TIP3    H142124   0.613   5.007   7.640 -0.6040 -1.9831  1.0404
 6855TIP3    H242125   0.495   4.977   7.730 -3.1701  0.7510 -1.1855
 6856TIP3   OH242126   0.950   4.715   6.931 -0.6587  0.0697  0.1019
 6856TIP3    H142127   0.953   4.794   6.985 -1.9938 -1.2894  2.3285
 6856TIP3    H242128   1.007   4.652   6.976  0.5450 -0.2569 -1.7367
 6857TIP3   OH242129   4.503   2.490   7.150  0.2718  0.2840 -0.2489
 6857TIP3    H142130   4.415   2.527   7.150  0.0132 -0.2707 -1.1549
 6857TIP3    H242131   4.506   2.438   7.069  0.9377 -0.8702  0.5000
 6858TIP3   OH242132   4.639   4.748   8.353 -0.6644 -0.3451  0.6686
 6858TIP3    H142133   4.650   4.770   8.446 -0.9291  0.2199  0.5710
 6858TIP3    H242134   4.551   4.711   8.348  0.2440 -2.7337  1.0596
 6859TIP3   OH242135   2.445   5.114   0.399 -0.1268  0.3122 -0.5283
 6859TIP3    H142136   2.375   5.161   0.445  0.0036 -1.5334  1.7609
 6859TIP3    H242137   2.400   5.048   0.348 -0.1381  0.2876 -0.4870
 6860TIP3   OH242138   0.863   2.020   1.758  0.2115  0.0812  0.4784
 6860TIP3    H142139   0.801   1.996   1.827 -0.6575  0.4821 -0.1489
 6860TIP3    H242140   0.929   1.951   1.760  0.0900 -0.0269  1.5697
 6861TIP3   OH242141   4.925   1.147   6.380  0.1016  0.3071  0.3116
 6861TIP3    H142142   4.870   1.074   6.351  0.8243  0.0233 -0.4003
 6861TIP3    H242143   4.990   1.156   6.310  1.0842  0.4936  1.2348
 6862TIP3   OH242144   1.685   2.350   1.656 -0.0469 -0.1254 -0.3153
 6862TIP3    H142145   1.734   2.273   1.627  0.7889 -0.4963  1.8923
 6862TIP3    H242146   1.593   2.323   1.653  0.2259 -1.1421  0.1989
 6863TIP3   OH242147   5.092   4.107   0.797  0.8357 -0.0671 -0.0247
 6863TIP3    H142148   5.126   4.019   0.781  0.0849 -0.3026 -0.3517
 6863TIP3    H242149   5.158   4.148   0.853 -0.2424 -1.8552  2.7666
 6864TIP3   OH242150   1.846   5.201   0.213  0.0023 -0.0621 -0.1422
 6864TIP3    H142151   1.866   5.108   0.224  0.1234  0.0731  0.9022
 6864TIP3    H242152   1.791   5.222   0.288  1.2243  1.0607  0.4834
 6865TIP3   OH242153   0.953   0.871   7.466 -0.5505  0.4773 -0.1778
 6865TIP3    H142154   0.991   0.790   7.431 -1.3028 -0.1952  0.5140
 6865TIP3    H242155   0.863   0.847   7.489 -0.2577  1.0130  1.7052
 6866TIP3   OH242156   5.223   4.222   6.316  0.1900 -0.2586  0.0732
 6866TIP3    H142157   5.252   4.296   6.263  0.8976 -0.8916 -0.4360
 6866TIP3    H242158   5.303   4.177   6.341 -0.2424 -0.9626  0.2129
 6867TIP3   OH242159   0.056   6.625   0.878  0.1862 -0.2303  0.2861
 6867TIP3    H142160  -0.017   6.564   0.871 -0.7409  0.8193  0.4971
 6867TIP3    H242161   0.070   6.657   0.789 -0.8195  0.8956  0.4997
 6868TIP3   OH242162   5.227   4.783   8.298 -0.1353  0.9142  0.5725
 6868TIP3    H142163   5.314   4.812   8.270 -0.4037 -2.0604 -4.5175
 6868TIP3    H242164   5.232   4.688   8.301 -2.7913  0.7088  1.9442
 6869TIP3   OH242165   2.929   6.084   7.595  0.1376 -0.9294 -0.4830
 6869TIP3    H142166   3.015   6.046   7.574  0.4712  0.3381 -1.5700
 6869TIP3    H242167   2.944   6.179   7.593 -0.9994 -0.7058  0.6640
 6870TIP3   OH242168   2.703   1.673   0.165  0.2900  0.2012  0.3303
 6870TIP3    H142169   2.760   1.674   0.242  0.0456 -2.5498  0.6428
 6870TIP3    H242170   2.618   1.646   0.199 -0.5773  1.7662 -0.5170
 6871TIP3   OH242171   6.788   4.590   6.986 -0.1485  0.2090 -0.4668
 6871TIP3    H142172   6.730   4.625   7.054 -0.2479 -1.6422  0.4600
 6871TIP3    H242173   6.872   4.635   7.001 -0.4311  0.5007  0.2840
 6872TIP3   OH242174   4.514   0.544   8.165  0.4319  0.0358 -0.5206
 6872TIP3    H142175   4.530   0.579   8.077  3.4986 -0.8760 -0.4203
 6872TIP3    H242176   4.542   0.614   8.224  0.3611 -0.1463 -0.2690
 6873TIP3   OH242177   5.883   3.488   1.042  0.1633 -0.5379 -0.5726
 6873TIP3    H142178   5.826   3.564   1.047  2.8586  1.6007  0.0453
 6873TIP3    H242179   5.864   3.448   0.957 -2.2089  0.0126 -0.3594
 6874TIP3   OH242180   0.568   5.804   0.047 -0.2136  0.2947 -0.3520
 6874TIP3    H142181   0.628   5.788   0.120 -1.6575  1.6915  1.2559
 6874TIP3    H242182   0.484   5.824   0.089 -1.4609 -0.1518 -2.4630
 6875TIP3   OH242183   6.062   6.252   6.681  0.0304  0.3054  0.0028
 6875TIP3    H142184   5.975   6.230   6.648  0.2047 -1.6412  0.6835
 6875TIP3    H242185   6.122   6.226   6.611  0.1222  0.6938 -0.0640
 6876TIP3   OH242186   6.299   3.714   0.983 -0.1517 -0.1472 -0.5655
 6876TIP3    H142187   6.356   3.700   1.059 -0.1451 -0.1189 -0.5652
 6876TIP3    H242188   6.210   3.706   1.017 -0.1765  1.1458 -0.3069
 6877TIP3   OH242189   6.360   1.510   1.943  0.4378 -0.1189  0.6323
 6877TIP3    H142190   6.452   1.535   1.941  0.3386  0.2074 -0.3756
 6877TIP3    H242191   6.347   1.470   2.029  1.5660 -0.3428  0.7032
 6878TIP3   OH242192   3.930   4.983   6.968 -0.0474  0.3003  0.0709
 6878TIP3    H142193   3.902   4.919   6.902 -0.0399 -0.3549  0.6848
 6878TIP3    H242194   3.950   5.062   6.918 -1.1304  0.1799 -0.5925
 6879TIP3   OH242195   1.095   2.726   1.899 -0.3741  0.2295  0.5018
 6879TIP3    H142196   1.066   2.773   1.977 -0.1735  0.1093  0.6480
 6879TIP3    H242197   1.048   2.643   1.903  2.2353 -1.2963  2.3777
 6880TIP3   OH242198   5.925   6.869   0.213  0.5046 -0.2708 -0.2755
 6880TIP3    H142199   5.905   6.921   0.291 -0.5007 -1.2522  0.1470
 6880TIP3    H242200   6.014   6.836   0.229  0.4728 -0.1163  0.2630
 6881TIP3   OH242201   5.478   6.022   7.696  0.1698  0.0971 -0.4083
 6881TIP3    H142202   5.391   6.060   7.682 -0.5357 -1.6983 -1.1911
 6881TIP3    H242203   5.536   6.074   7.640 -0.0997  2.1468  1.0783
 6882TIP3   OH242204   5.688   5.677   7.533 -0.0523 -0.1567  0.0344
 6882TIP3    H142205   5.718   5.758   7.574 -1.1027 -0.5746  1.7406
 6882TIP3    H242206   5.637   5.634   7.601 -1.6272 -1.0700 -1.6599
 6883TIP3   OH242207   4.266   2.828   8.554 -1.2517 -0.3875  0.5229
 6883TIP3    H142208   4.355   2.800   8.532 -0.8790  1.4304 -0.5040
 6883TIP3    H242209   4.212   2.792   8.484 -1.2584 -1.0518  0.8607
 6884TIP3   OH242210   1.519   6.632   7.730  0.5796 -0.0816 -0.3947
 6884TIP3    H142211   1.511   6.621   7.636  0.2613  1.4195 -0.5691
 6884TIP3    H242212   1.453   6.697   7.753  2.5995  1.8637  0.3651
 6885TIP3   OH242213   6.707   0.624   0.897  0.6611  0.3137  0.3390
 6885TIP3    H142214   6.758   0.597   0.821 -0.8461 -0.9009 -0.2920
 6885TIP3    H242215   6.735   0.565   0.967 -0.1289 -0.6395 -0.1205
 6886TIP3   OH242216   0.793   6.790   0.047  0.4031  0.1117  0.4427
 6886TIP3    H142217   0.722   6.827  -0.006 -1.2010 -1.5113  1.3590
 6886TIP3    H242218   0.863   6.771  -0.016  0.1699  1.9991 -0.4394
 6887TIP3   OH242219   4.483   0.453   7.826  0.0583  0.4910 -0.2912
 6887TIP3    H142220   4.414   0.421   7.769 -0.5258 -0.6504  0.9794
 6887TIP3    H242221   4.539   0.377   7.841  0.9949  1.1322 -0.4489
 6888TIP3   OH242222   1.220   4.208   0.751  0.4960 -0.4823  0.5885
 6888TIP3    H142223   1.258   4.252   0.827 -1.3240 -0.7455  1.7158
 6888TIP3    H242224   1.266   4.246   0.676  3.4031 -1.2417  1.8264
 6889TIP3   OH242225   0.379   1.131   7.475 -0.6556  0.4378 -0.1402
 6889TIP3    H142226   0.461   1.175   7.453 -0.5578 -0.5918 -2.1136
 6889TIP3    H242227   0.398   1.083   7.555  1.1141 -0.7727 -1.2055
 6890TIP3   OH242228   4.010   4.898   2.048  0.9123  0.2597 -0.3151
 6890TIP3    H142229   4.006   4.987   2.011  0.2638  0.7777  0.9233
 6890TIP3    H242230   4.103   4.876   2.047  1.1330  1.1251 -0.2610
 6891TIP3   OH242231   5.293   6.178   1.970  0.2694  0.2458 -0.2793
 6891TIP3    H142232   5.255   6.120   2.035  0.6586 -0.9561 -1.0907
 6891TIP3    H242233   5.286   6.265   2.008  0.3529 -0.4131  1.2978
 6892TIP3   OH242234   3.759   4.234   7.451  0.0663  0.1386  0.3084
 6892TIP3    H142235   3.707   4.311   7.427 -1.2251 -0.8037  0.0097
 6892TIP3    H242236   3.742   4.220   7.544  1.4874  1.0696  0.7480
 6893TIP3   OH242237   6.121   5.646   2.328 -0.0823  0.2061 -0.2462
 6893TIP3    H142238   6.124   5.559   2.286 -0.1335  0.0347  0.0994
 6893TIP3    H242239   6.039   5.684   2.297  0.0222  0.2058 -0.5360
 6894TIP3   OH242240   0.130   3.921   7.348 -0.1396  0.9296  0.4169
 6894TIP3    H142241   0.159   3.841   7.305  1.0977  1.2096  0.6776
 6894TIP3    H242242   0.066   3.892   7.413 -1.4695  0.4254 -1.0448
 6895TIP3   OH242243   4.036   0.315   6.620 -0.2790 -0.0568 -0.4602
 6895TIP3    H142244   4.058   0.279   6.534 -1.0616  1.0132 -1.1329
 6895TIP3    H242245   4.050   0.410   6.611  0.5820 -0.0264  0.9017
 6896TIP3   OH242246   2.271   3.186   7.984 -0.2944  0.5045  0.3258
 6896TIP3    H142247   2.259   3.097   7.950 -1.9386  0.9505 -0.3348
 6896TIP3    H242248   2.257   3.178   8.078  1.2027 -0.1939  0.5255
 6897TIP3   OH242249   0.966   3.818   6.655 -0.4300 -0.1839 -0.4538
 6897TIP3    H142250   1.055   3.811   6.622 -0.4974 -2.4424 -0.2939
 6897TIP3    H242251   0.918   3.864   6.586  0.8760  1.2441 -0.4432
 6898TIP3   OH242252   4.351   1.789   8.361  0.8302  0.0843  0.1365
 6898TIP3    H142253   4.297   1.718   8.395  0.5744  0.2237  0.0257
 6898TIP3    H242254   4.439   1.770   8.393  0.3962  0.8238  1.8602
 6899TIP3   OH242255   5.925   0.535   7.263 -0.5765  0.3183  0.7597
 6899TIP3    H142256   5.949   0.611   7.316 -1.7812  0.6106  0.9094
 6899TIP3    H242257   5.987   0.467   7.288  0.7330  1.3291  0.3987
 6900TIP3   OH242258   5.893   4.087   6.636 -0.0084  0.0331  0.2863
 6900TIP3    H142259   5.897   4.084   6.541  0.9320  1.3070  0.2587
 6900TIP3    H242260   5.826   4.022   6.659 -1.0108  0.4513 -1.2844
 6901TIP3   OH242261   5.961   1.986   7.767  0.1956  0.4790 -0.0875
 6901TIP3    H142262   6.049   2.025   7.774  0.3256 -0.0688  2.0835
 6901TIP3    H242263   5.955   1.957   7.676  2.1778  0.7388 -0.3481
 6902TIP3   OH242264   4.898   1.753   1.821 -0.2206  0.2307  0.0884
 6902TIP3    H142265   4.984   1.715   1.803 -0.5577 -0.6694  0.3053
 6902TIP3    H242266   4.904   1.782   1.912 -0.0260  0.5048 -0.0120
 6903TIP3   OH242267   0.645   5.399   6.048 -0.4127 -0.0964 -0.0087
 6903TIP3    H142268   0.630   5.486   6.086  0.5143 -0.2351  0.7223
 6903TIP3    H242269   0.569   5.348   6.075  0.6721 -0.4855  2.6585
 6904TIP3   OH242270   0.630   1.517   6.061 -0.7503  0.4887  0.2320
 6904TIP3    H142271   0.660   1.587   6.118  0.3265 -0.6993  1.1968
 6904TIP3    H242272   0.673   1.438   6.095 -2.2707 -0.7282 -0.5131
 6905TIP3   OH242273   2.340   5.872   0.354  0.7481  0.3630  0.0173
 6905TIP3    H142274   2.294   5.844   0.275 -0.2024  0.0516  0.6497
 6905TIP3    H242275   2.296   5.825   0.425  2.0225  0.1187  0.6700
 6906TIP3   OH242276   4.945   2.237   7.097 -0.0572  0.1391 -0.5990
 6906TIP3    H142277   4.978   2.187   7.023  1.0667 -0.3892  0.2217
 6906TIP3    H242278   4.976   2.326   7.082  0.8906 -0.1410 -0.3623
 6907TIP3   OH242279   1.148   5.750   8.391  0.0071 -0.0835 -0.2257
 6907TIP3    H142280   1.117   5.811   8.457 -0.2721  0.7127 -1.0843
 6907TIP3    H242281   1.229   5.713   8.429  1.7527  2.8250 -0.7908
 6908TIP3   OH242282   3.851   2.021   8.204 -0.0504  0.4879  0.2512
 6908TIP3    H142283   3.891   1.934   8.194  1.1873  1.0117  0.4840
 6908TIP3    H242284   3.887   2.055   8.286 -0.9421  1.0165  0.4376
 6909TIP3   OH242285   6.378   5.213   8.550  0.4230  0.0669  0.7077
 6909TIP3    H142286   6.380   5.184   8.642 -0.2194 -0.1275  0.6652
 6909TIP3    H242287   6.314   5.285   8.549  1.6869  1.2382  0.7318
 6910TIP3   OH242288   0.152   2.274   7.400  0.4194  0.1266 -0.4533
 6910TIP3    H142289   0.142   2.369   7.404  2.5074  0.3641  0.7524
 6910TIP3    H242290   0.094   2.246   7.329  0.2670  2.3719 -1.2798
 6911TIP3   OH242291   1.322   2.192   7.937 -0.5501 -0.4588 -0.8594
 6911TIP3    H142292   1.263   2.195   7.863 -1.1942 -0.1104 -0.3414
 6911TIP3    H242293   1.401   2.149   7.903 -0.5897  0.2632 -1.8961
 6912TIP3   OH242294   2.242   2.981   7.778 -0.0145  0.1466 -0.0233
 6912TIP3    H142295   2.217   3.054   7.721  0.3651  0.5560  0.3305
 6912TIP3    H242296   2.325   2.950   7.741  0.3482  0.5612  0.4483
 6913TIP3   OH242297   1.635   0.523   0.853  0.4579 -0.2116 -0.3186
 6913TIP3    H142298   1.698   0.541   0.783  0.8587  0.0479  0.1033
 6913TIP3    H242299   1.559   0.486   0.808 -0.1302  1.8538 -1.1633
 6914TIP3   OH242300   2.996   4.835   7.163 -0.1465  0.2088 -0.2040
 6914TIP3    H142301   2.936   4.784   7.110  2.4310 -2.1810 -1.0495
 6914TIP3    H242302   3.058   4.872   7.100  1.2630 -0.2572  0.8573
 6915TIP3   OH242303   0.608   3.028   6.304 -0.6405  0.2078 -0.5727
 6915TIP3    H142304   0.564   3.036   6.219 -2.5090  1.0640  0.4032
 6915TIP3    H242305   0.692   3.072   6.293 -0.6107 -0.1801 -2.1080
 6916TIP3   OH242306   0.063   0.792   6.918  0.5225 -0.2409  0.5241
 6916TIP3    H142307  -0.019   0.836   6.940  0.6438  0.5523 -0.5434
 6916TIP3    H242308   0.125   0.820   6.986  0.6945  1.5526 -0.3247
 6917TIP3   OH242309   1.857   5.524   8.037 -0.1591  0.1802 -0.1723
 6917TIP3    H142310   1.832   5.435   8.012 -1.7301  0.8031 -0.9839
 6917TIP3    H242311   1.786   5.579   8.003  0.4712  1.6834  0.8427
 6918TIP3   OH242312   4.461   2.700   6.898  0.4270 -0.0895  0.2336
 6918TIP3    H142313   4.471   2.628   6.836 -1.6663  1.2319 -1.8465
 6918TIP3    H242314   4.547   2.741   6.902  1.6845 -2.6818  1.5542
 6919TIP3   OH242315   6.374   2.873   7.010  0.3218  0.2311  0.1667
 6919TIP3    H142316   6.431   2.811   7.057  0.2514 -0.7554 -0.9941
 6919TIP3    H242317   6.411   2.877   6.922  0.7713  2.4681  0.4004
 6920TIP3   OH242318   6.354   5.812   0.006 -0.1662  0.0238 -0.4305
 6920TIP3    H142319   6.442   5.804  -0.031  0.4028 -2.2796  1.2119
 6920TIP3    H242320   6.303   5.745  -0.039 -0.3383 -0.4888  0.4999
 6921TIP3   OH242321   3.036   3.641   7.656 -0.5453  0.5075  0.2520
 6921TIP3    H142322   2.945   3.611   7.652 -0.0547 -1.0754  0.2429
 6921TIP3    H242323   3.032   3.726   7.700 -2.0330  0.5323  0.1061
 6922TIP3   OH242324   3.358   3.832   1.227  0.3301 -0.2666  0.2958
 6922TIP3    H142325   3.396   3.917   1.203  1.0334 -1.2265 -2.3279
 6922TIP3    H242326   3.303   3.851   1.303  1.2966  2.3230  0.4458
 6923TIP3   OH242327   4.431   4.064   0.903 -0.1902  0.3353  0.0232
 6923TIP3    H142328   4.437   4.097   0.992  1.5534  0.9257 -0.2794
 6923TIP3    H242329   4.340   4.078   0.878 -0.4895  0.9699  1.3998
 6924TIP3   OH242330   6.458   3.746   0.788  0.2065  0.3902 -0.4383
 6924TIP3    H142331   6.395   3.747   0.860  0.6202 -1.1959 -0.0190
 6924TIP3    H242332   6.486   3.655   0.782  1.6637  0.8697 -1.3236
 6925TIP3   OH242333   3.863   6.011   8.511 -0.9371 -0.0296 -0.2901
 6925TIP3    H142334   3.851   6.079   8.444 -0.7277  0.6703  0.3649
 6925TIP3    H242335   3.958   6.010   8.527 -1.0433  0.2299  0.4113
 6926TIP3   OH242336   6.211   5.278   7.884 -0.7333  0.1866  0.1269
 6926TIP3    H142337   6.205   5.315   7.972  0.2595  0.7196 -0.0083
 6926TIP3    H242338   6.304   5.258   7.874 -0.5379  1.6662 -1.4067
 6927TIP3   OH242339   6.269   3.996   0.902 -0.4376 -0.2027 -0.2067
 6927TIP3    H142340   6.310   3.929   0.958 -1.1931 -0.2018  0.3548
 6927TIP3    H242341   6.191   3.953   0.867 -0.4474  0.0989 -0.5614
 6928TIP3   OH242342   3.108   0.091   6.666  0.0291 -0.1140 -0.3231
 6928TIP3    H142343   3.152   0.010   6.692  1.2571  0.8492  0.7783
 6928TIP3    H242344   3.165   0.129   6.599  0.3545  0.6258  0.3509
 6929TIP3   OH242345   3.272   3.150   6.285 -0.3885 -0.3319  0.8093
 6929TIP3    H142346   3.265   3.098   6.364 -0.1041  0.8591  1.6502
 6929TIP3    H242347   3.228   3.233   6.307 -0.8366 -0.2000 -0.4783
 6930TIP3   OH242348   6.017   6.106   0.193  0.2024 -0.1356  0.7400
 6930TIP3    H142349   6.054   6.023   0.162 -1.8556  0.3193 -3.7781
 6930TIP3    H242350   6.081   6.172   0.166  0.7919 -0.0127  2.3334
 6931TIP3   OH242351   5.853   5.803   2.004  0.4712  0.2223  0.2305
 6931TIP3    H142352   5.763   5.779   1.983  0.8735 -0.9653 -0.2286
 6931TIP3    H242353   5.903   5.779   1.926  1.3387 -0.1800  0.8933
 6932TIP3   OH242354   2.393   4.617   1.879  0.3080 -0.2024 -0.1172
 6932TIP3    H142355   2.397   4.676   1.955  1.5330  1.0913 -1.1224
 6932TIP3    H242356   2.300   4.602   1.865 -0.1566  2.7395 -0.7117
 6933TIP3   OH242357   0.712   4.117   6.391 -0.3936 -0.1296 -0.2037
 6933TIP3    H142358   0.735   4.181   6.324 -0.4904  0.1192  0.0028
 6933TIP3    H242359   0.656   4.054   6.346 -1.5561  0.7616 -0.0370
 6934TIP3   OH242360   4.137   6.796   8.077  0.3574 -0.6174 -0.1171
 6934TIP3    H142361   4.049   6.788   8.113  0.6533 -1.8081  0.3827
 6934TIP3    H242362   4.194   6.756   8.143  1.4083  1.0001  0.0332
 6935TIP3   OH242363   2.861   3.408   1.323 -0.0553 -0.5559  0.3619
 6935TIP3    H142364   2.870   3.353   1.246 -0.9962 -0.6494  0.3058
 6935TIP3    H242365   2.936   3.386   1.378 -0.7176 -2.3444  0.6128
 6936TIP3   OH242366   2.475   5.121   8.580  0.6019 -0.3149 -0.0109
 6936TIP3    H142367   2.502   5.029   8.578 -4.3335 -2.1609  2.2151
 6936TIP3    H242368   2.518   5.157   8.658  1.9404 -0.9036 -0.4420
 6937TIP3   OH242369   2.915   0.343   1.861 -0.2677  0.4380 -0.4151
 6937TIP3    H142370   2.859   0.402   1.911  1.0788  1.6706 -0.2956
 6937TIP3    H242371   2.856   0.298   1.801 -1.3377  1.9203 -0.5219
 6938TIP3   OH242372   1.494   5.974   7.708 -0.3486  0.6552  0.3826
 6938TIP3    H142373   1.572   6.019   7.676  0.6900 -0.9545  0.5306
 6938TIP3    H242374   1.528   5.909   7.770 -1.6551 -0.9009 -0.4397
 6939TIP3   OH242375   3.976   2.040   7.794 -0.7168  0.4585 -0.6442
 6939TIP3    H142376   3.994   2.032   7.700  1.0670 -1.1655 -0.2319
 6939TIP3    H242377   4.045   1.988   7.836 -2.6795 -0.6168  1.4742
 6940TIP3   OH242378   1.529   0.500   6.335  0.1796 -0.0193 -0.1804
 6940TIP3    H142379   1.571   0.576   6.376  1.3781 -1.1563  0.8038
 6940TIP3    H242380   1.561   0.500   6.245 -0.5499  1.1399 -0.4507
 6941TIP3   OH242381   3.071   6.582   0.230  0.2654 -0.0999 -0.0714
 6941TIP3    H142382   3.155   6.546   0.260  1.3406  2.0458 -0.3025
 6941TIP3    H242383   3.025   6.606   0.310  0.2947 -0.3964  0.0336
 6942TIP3   OH242384   2.380   4.070   8.476 -0.2587  0.5329  0.5490
 6942TIP3    H142385   2.373   4.110   8.562  0.8232  0.0835  0.8544
 6942TIP3    H242386   2.324   3.993   8.480 -1.4089  1.3328  0.3414
 6943TIP3   OH242387   5.234   5.954   8.367 -0.0603 -0.5004  0.0623
 6943TIP3    H142388   5.284   6.034   8.352  0.0149 -0.1930  1.7044
 6943TIP3    H242389   5.290   5.901   8.424 -1.3334 -0.3795  1.5011
 6944TIP3   OH242390   0.308   6.367   0.490  0.8451 -0.2077 -0.2349
 6944TIP3    H142391   0.258   6.306   0.544 -2.3119 -0.5729 -3.2426
 6944TIP3    H242392   0.318   6.445   0.544 -0.0741 -1.3290  1.6390
 6945TIP3   OH242393   2.275   6.200   7.890  0.8268 -0.4652 -0.1446
 6945TIP3    H142394   2.338   6.149   7.839 -0.5524 -0.5926 -1.8261
 6945TIP3    H242395   2.194   6.149   7.886 -0.2228  1.1788 -0.7241
 6946TIP3   OH242396   0.526   6.142   7.123  0.3965  0.3270  0.6136
 6946TIP3    H142397   0.470   6.206   7.166 -1.7147 -0.7431 -0.3583
 6946TIP3    H242398   0.524   6.066   7.181 -1.4634 -0.6829 -0.6853
 6947TIP3   OH242399   6.487   1.181   2.337  0.3826  0.2124 -0.4707
 6947TIP3    H142400   6.394   1.204   2.337 -0.1497 -1.7614 -0.4780
 6947TIP3    H242401   6.528   1.248   2.282 -1.3722 -0.1390 -2.3343
 6948TIP3   OH242402   5.376   5.394   0.589  0.7130  0.6282 -0.3482
 6948TIP3    H142403   5.413   5.343   0.517 -0.5347 -0.0322 -0.5456
 6948TIP3    H242404   5.419   5.479   0.583  1.8751  0.0347 -0.8138
 6949TIP3   OH242405   0.227   1.203   1.066 -0.2469  0.0780 -0.1080
 6949TIP3    H142406   0.169   1.245   1.129 -0.0997  0.2764 -0.1058
 6949TIP3    H242407   0.176   1.200   0.985  0.0716  1.0757 -0.3537
 6950TIP3   OH242408   6.113   0.359   7.428 -0.5843 -0.3317 -0.4000
 6950TIP3    H142409   6.146   0.358   7.518 -1.6642 -1.2368  0.0232
 6950TIP3    H242410   6.190   0.342   7.374  0.1184  0.4215  0.3335
 6951TIP3   OH242411   1.712   4.496   8.067  0.0354 -0.1773 -0.0521
 6951TIP3    H142412   1.719   4.456   8.154  0.0658 -0.4174 -0.1657
 6951TIP3    H242413   1.802   4.519   8.044  0.0029  0.0741  0.0672
 6952TIP3   OH242414   3.725   3.946   6.799  0.0982  0.1498 -0.2183
 6952TIP3    H142415   3.743   3.860   6.760  0.0681 -0.2314  0.5853
 6952TIP3    H242416   3.633   3.941   6.824  0.2251  0.2438  0.2630
 6953TIP3   OH242417   2.234   3.775   8.079  0.1015  0.0153  0.0019
 6953TIP3    H142418   2.317   3.804   8.041  0.4453 -1.2713 -0.2818
 6953TIP3    H242419   2.260   3.717   8.151 -0.5538  0.5999  0.7257
 6954TIP3   OH242420   2.324   3.044   6.943  0.1319 -0.0849 -0.4250
 6954TIP3    H142421   2.310   3.109   6.874  1.2894 -0.7015 -1.2600
 6954TIP3    H242422   2.414   3.058   6.972  0.5647 -1.6294 -0.9588
 6955TIP3   OH242423   3.063   1.846   0.817  0.2700  0.2980 -0.5855
 6955TIP3    H142424   3.138   1.906   0.805  0.0438  0.3066 -2.1466
 6955TIP3    H242425   3.101   1.769   0.860  0.7108  1.2089  0.7573
 6956TIP3   OH242426   1.051   0.981   1.899  0.8894 -0.0670 -0.2325
 6956TIP3    H142427   1.023   0.909   1.842 -1.9650  0.7366  0.0275
 6956TIP3    H242428   1.018   0.957   1.985  2.0054  0.4558  0.3482
 6957TIP3   OH242429   4.308   6.746   0.661 -0.0481  0.4691  0.4734
 6957TIP3    H142430   4.246   6.748   0.735 -0.4671  2.3667  0.1317
 6957TIP3    H242431   4.393   6.767   0.701 -0.1174  0.5962  0.5584
 6958TIP3   OH242432   2.590   0.608   8.066  0.7191  0.4767 -0.4654
 6958TIP3    H142433   2.514   0.632   8.118 -0.0738 -0.3090 -1.2284
 6958TIP3    H242434   2.570   0.521   8.032  1.3636  0.7992 -1.7581
 6959TIP3   OH242435   3.143   0.266   0.725 -0.2201  0.2619 -0.6154
 6959TIP3    H142436   3.193   0.298   0.800 -1.2127 -1.3929  0.8609
 6959TIP3    H242437   3.052   0.286   0.747 -0.4812  0.3456 -1.7185
 6960TIP3   OH242438   2.577   5.975   6.314 -0.4140  0.2599  0.0747
 6960TIP3    H142439   2.670   5.993   6.300 -0.2981 -0.0932  0.3702
 6960TIP3    H242440   2.558   5.900   6.259  0.0911 -1.2589  1.8534
 6961TIP3   OH242441   4.792   6.125   6.311  0.2193  0.1136  0.3617
 6961TIP3    H142442   4.759   6.042   6.346  0.1501  0.3028  0.7507
 6961TIP3    H242443   4.874   6.140   6.359  0.5972 -0.0807 -0.2097
 6962TIP3   OH242444   2.265   1.078   8.493  0.1891  0.3801  0.3932
 6962TIP3    H142445   2.216   1.091   8.574 -1.3600  0.1292 -0.4525
 6962TIP3    H242446   2.234   1.148   8.436 -0.4512 -0.7664 -0.7203
 6963TIP3   OH242447   3.794   2.538   0.469 -0.0130 -0.0804  0.3456
 6963TIP3    H142448   3.725   2.574   0.525 -0.4676  0.2759 -0.4347
 6963TIP3    H242449   3.753   2.464   0.425 -0.2800  0.8526 -1.0201
 6964TIP3   OH242450   4.718   5.982   8.255  0.1609 -0.4872  0.4548
 6964TIP3    H142451   4.703   5.915   8.188  0.0400 -0.1210  0.1116
 6964TIP3    H242452   4.811   5.972   8.278  0.4110 -0.0926 -0.3516
 6965TIP3   OH242453   2.546   6.128   6.602 -0.1988  0.1783  0.1602
 6965TIP3    H142454   2.453   6.134   6.623 -0.1069  1.5547  0.2814
 6965TIP3    H242455   2.553   6.051   6.546 -1.2400 -0.5615  1.0047
 6966TIP3   OH242456   0.977   6.776   6.876  0.3430  0.5513  0.3644
 6966TIP3    H142457   0.978   6.739   6.964  2.0367  0.5346  0.3693
 6966TIP3    H242458   0.897   6.742   6.837  0.5639 -1.0680  1.2350
 6967TIP3   OH242459   1.808   6.661   7.675  0.1197  0.3090 -0.0326
 6967TIP3    H142460   1.717   6.671   7.703  0.0664  1.8596 -0.6739
 6967TIP3    H242461   1.844   6.750   7.678  1.2196 -0.0689 -1.1163
 6968TIP3   OH242462   6.023   0.249   1.107 -1.0848 -0.3422 -0.0962
 6968TIP3    H142463   5.960   0.265   1.037  0.5431 -1.3649 -1.9261
 6968TIP3    H242464   6.001   0.161   1.139 -0.6405 -0.6983 -0.7327
 6969TIP3   OH242465   4.480   4.236   1.485  0.5967  0.1679 -0.1585
 6969TIP3    H142466   4.426   4.193   1.551 -0.1120  0.2546 -0.6576
 6969TIP3    H242467   4.474   4.330   1.506  1.8965  0.0610  0.7519
 6970TIP3   OH242468   3.382   3.658   1.748 -0.0900 -0.2801 -0.3998
 6970TIP3    H142469   3.473   3.629   1.742 -0.2714 -0.9659  0.0023
 6970TIP3    H242470   3.331   3.577   1.739 -0.6544  0.0788 -0.4559
 6971TIP3   OH242471   5.276   5.170   1.511  0.1529 -0.1075 -0.2410
 6971TIP3    H142472   5.277   5.204   1.600 -1.5243 -2.0176  0.6010
 6971TIP3    H242473   5.351   5.111   1.507  0.0090 -0.3109  0.0323
 6972TIP3   OH242474   0.770   4.411   7.463 -0.3122  0.7869  0.3309
 6972TIP3    H142475   0.819   4.329   7.460  0.4653  1.2490  0.3244
 6972TIP3    H242476   0.785   4.444   7.552 -1.4563  0.4311  0.6810
 6973TIP3   OH242477   5.050   1.316   1.066  0.1388 -0.1559  0.6603
 6973TIP3    H142478   5.039   1.351   0.978  1.0167 -1.1407  0.1331
 6973TIP3    H242479   4.961   1.313   1.102 -0.2596 -0.0045 -0.2951
 6974TIP3   OH242480   6.157   0.647   7.174  0.1178  0.0309  0.2626
 6974TIP3    H142481   6.184   0.718   7.232  0.1783  0.4218 -0.2377
 6974TIP3    H242482   6.236   0.595   7.160  0.2289  0.2474  0.0935
 6975TIP3   OH242483   0.934   4.342   2.535 -0.4555  0.1758  0.1820
 6975TIP3    H142484   0.988   4.373   2.608  1.8290  0.1202 -1.4055
 6975TIP3    H242485   0.870   4.283   2.577 -0.6270  1.7926  2.3731
 6976TIP3   OH242486   3.053   2.431   1.657 -0.0335  0.4050  0.0602
 6976TIP3    H142487   2.971   2.389   1.632 -0.3161  1.9501 -1.7727
 6976TIP3    H242488   3.033   2.524   1.663  1.2073  0.6334  1.3122
 6977TIP3   OH242489   6.180   1.992   7.177  0.1412  0.1659  0.0905
 6977TIP3    H142490   6.133   1.939   7.242  0.0365  1.3694  1.0158
 6977TIP3    H242491   6.268   2.001   7.212  0.1562  0.6080 -0.0544
 6978TIP3   OH242492   0.722   0.296   0.632 -0.1135 -0.4689 -0.2168
 6978TIP3    H142493   0.687   0.207   0.639  1.0336 -0.8019  1.9428
 6978TIP3    H242494   0.685   0.342   0.708 -0.2494  0.7542 -1.0022
 6979TIP3   OH242495   3.751   4.852   7.405  0.5329 -0.1636 -0.0156
 6979TIP3    H142496   3.708   4.778   7.363  0.9313 -0.2907 -0.2053
 6979TIP3    H242497   3.835   4.860   7.359  0.2202  0.8126 -0.4533
 6980TIP3   OH242498   4.990   3.224   0.407  0.8449 -0.2189 -0.1927
 6980TIP3    H142499   5.030   3.267   0.331 -0.5736 -1.4185 -1.6953
 6980TIP3    H242500   5.014   3.132   0.398  3.7275  0.0385  2.9027
 6981TIP3   OH242501   4.799   5.311   7.140 -0.0884 -0.1879 -0.2330
 6981TIP3    H142502   4.882   5.283   7.179  0.5114  0.9278 -0.6765
 6981TIP3    H242503   4.823   5.352   7.057 -1.1974 -0.9335 -0.9466
 6982TIP3   OH242504   3.453   3.217   7.497  0.3243 -0.0221 -0.0007
 6982TIP3    H142505   3.377   3.257   7.454  0.5399  0.2855 -0.0967
 6982TIP3    H242506   3.501   3.291   7.534  0.8027 -0.1765 -0.3049
 6983TIP3   OH242507   0.390   5.880   6.576  0.3264  0.2761 -0.2395
 6983TIP3    H142508   0.331   5.943   6.617 -2.2958 -2.6047  0.8397
 6983TIP3    H242509   0.344   5.854   6.496  0.9675 -0.7407 -0.2966
 6984TIP3   OH242510   6.681   6.159   1.388 -0.5865  0.0025 -0.0536
 6984TIP3    H142511   6.632   6.187   1.310  0.3804 -2.1517 -1.5488
 6984TIP3    H242512   6.750   6.225   1.397  0.3372 -0.5977 -2.1421
 6985TIP3   OH242513   5.619   5.829   2.367 -0.1387 -0.1184  0.5067
 6985TIP3    H142514   5.583   5.769   2.302 -0.9034  1.2223 -0.3669
 6985TIP3    H242515   5.547   5.846   2.427  0.2592 -0.5403  1.1161
 6986TIP3   OH242516   5.794   6.211   6.645  0.2376  0.0900  0.1120
 6986TIP3    H142517   5.786   6.267   6.568  0.9920 -0.3378 -0.2866
 6986TIP3    H242518   5.704   6.190   6.669 -0.0889  1.6740  0.4276
 6987TIP3   OH242519   2.734   0.562   6.931  0.1627  0.3573 -0.3897
 6987TIP3    H142520   2.733   0.651   6.965  0.6338 -0.3440  1.5401
 6987TIP3    H242521   2.694   0.509   6.999  3.9883 -1.5943  0.6303
 6988TIP3   OH242522   5.674   4.603   7.722  0.0186  0.5774  0.1655
 6988TIP3    H142523   5.696   4.651   7.802  1.4277 -0.9778  0.7811
 6988TIP3    H242524   5.758   4.594   7.676 -0.7936  1.6352 -1.6530
 6989TIP3   OH242525   2.377   4.228   7.667 -0.5320 -0.3081  0.7542
 6989TIP3    H142526   2.399   4.208   7.758 -0.1680 -1.9459  0.3397
 6989TIP3    H242527   2.315   4.301   7.672  0.0095  0.0840  2.2640
 6990TIP3   OH242528   0.497   2.274   7.605 -0.3241  0.7875  0.2512
 6990TIP3    H142529   0.493   2.340   7.674  1.7532  0.7313  0.4906
 6990TIP3    H242530   0.543   2.200   7.645  0.2953  0.4746 -0.9930
 6991TIP3   OH242531   0.310   1.372   1.869 -0.0256  0.3573  0.7332
 6991TIP3    H142532   0.367   1.302   1.837  0.6501 -0.6694  3.7928
 6991TIP3    H242533   0.302   1.432   1.796  0.4537 -2.2344 -1.6248
 6992TIP3   OH242534   4.149   2.197   6.384 -0.0571 -0.0285 -0.4217
 6992TIP3    H142535   4.127   2.213   6.292 -1.0843 -0.8990 -0.3461
 6992TIP3    H242536   4.098   2.261   6.433 -1.6202 -1.3143 -0.3152
 6993TIP3   OH242537   0.455   5.421   0.780 -0.1188  0.0247 -0.5224
 6993TIP3    H142538   0.457   5.381   0.693  1.9500 -1.8711  0.2950
 6993TIP3    H242539   0.495   5.507   0.767 -0.2951 -0.0295 -1.5246
 6994TIP3   OH242540   5.686   5.058   1.583  0.3066 -0.6099 -0.5157
 6994TIP3    H142541   5.756   5.123   1.577 -1.3170  1.6184  1.9118
 6994TIP3    H242542   5.709   5.005   1.660 -1.2203  1.1008  1.2445
 6995TIP3   OH242543   6.053   0.130   8.644 -0.1142 -0.5184 -0.4108
 6995TIP3    H142544   5.992   0.180   8.591  0.4622 -0.6260 -1.1972
 6995TIP3    H242545   6.001   0.099   8.718 -0.2187  2.3297  0.8462
 6996TIP3   OH242546   5.214   6.450   8.254  0.7417 -0.1266  0.1098
 6996TIP3    H142547   5.174   6.501   8.183  0.0617 -0.8241 -0.0262
 6996TIP3    H242548   5.141   6.399   8.290  0.5547  1.8692  2.8209
 6997TIP3   OH242549   2.571   6.257   0.226  0.0677 -0.2804  0.3397
 6997TIP3    H142550   2.499   6.320   0.223 -0.5660 -1.0197 -1.5331
 6997TIP3    H242551   2.624   6.284   0.302 -1.1682  1.3755  0.6658
 6998TIP3   OH242552   2.785   1.941   1.665 -0.2222 -0.4081 -0.0520
 6998TIP3    H142553   2.696   1.960   1.693 -0.5246 -1.8502  0.0582
 6998TIP3    H242554   2.780   1.853   1.627  0.9638 -0.1115 -0.9613
 6999TIP3   OH242555   4.562   2.496   0.834  0.0862 -0.6280  0.6700
 6999TIP3    H142556   4.506   2.492   0.911  0.3385  0.6891  0.9524
 6999TIP3    H242557   4.611   2.578   0.844 -0.2330 -0.1678 -1.1327
 7000TIP3   OH242558   4.157   6.341   0.439  0.0340  0.4208 -0.3943
 7000TIP3    H142559   4.234   6.379   0.483 -0.0086  0.4070 -0.3082
 7000TIP3    H242560   4.084   6.396   0.468  0.0627  0.6472 -0.7483
 7001TIP3   OH242561   5.013   1.783   0.982  0.6274  0.0250  0.0410
 7001TIP3    H142562   5.023   1.782   0.887 -0.0261  1.5259 -0.0652
 7001TIP3    H242563   5.094   1.821   1.014  1.3347 -1.5376  0.1884
 7002TIP3   OH242564   2.124   3.175   8.237 -0.2015 -0.0408 -0.0366
 7002TIP3    H142565   2.030   3.172   8.220  0.1254  0.5369 -2.3460
 7002TIP3    H242566   2.148   3.084   8.257 -1.0831 -0.4069 -0.5842
 7003TIP3   OH242567   4.684   4.681   8.055  0.0307 -0.3397 -0.0155
 7003TIP3    H142568   4.638   4.731   7.987 -0.1728  1.3197  1.2869
 7003TIP3    H242569   4.641   4.596   8.055 -1.7795  0.5269 -0.1462
 7004TIP3   OH242570   6.150   5.323   0.524  0.2278  0.3933  0.1736
 7004TIP3    H142571   6.141   5.300   0.431 -0.0469  1.4779 -0.0860
 7004TIP3    H242572   6.187   5.411   0.524  2.4614 -0.4787  1.1544
 7005TIP3   OH242573   3.832   3.683   7.338 -0.8812 -0.6083  0.1354
 7005TIP3    H142574   3.906   3.667   7.279 -1.6661 -1.9378 -0.5460
 7005TIP3    H242575   3.776   3.744   7.290  0.1985  1.1556  1.0525
 7006TIP3   OH242576   0.088   2.002   8.645  0.8175  0.4930  0.1635
 7006TIP3    H142577  -0.007   1.990   8.649  0.5674  1.9041 -0.7756
 7006TIP3    H242578   0.111   1.979   8.555  1.2156  1.0763  0.1123
 7007TIP3   OH242579   5.353   3.343   7.725 -0.1358  0.1690  0.1575
 7007TIP3    H142580   5.377   3.354   7.818 -0.1681 -1.6625  0.4196
 7007TIP3    H242581   5.429   3.374   7.677  1.3296 -2.0167  0.9104
 7008TIP3   OH242582   0.836   1.716   0.311  0.4668  0.0887 -0.3784
 7008TIP3    H142583   0.776   1.716   0.236 -0.2103 -0.5764  0.1569
 7008TIP3    H242584   0.922   1.704   0.272  0.2003  0.4392 -1.1062
 7009TIP3   OH242585   3.900   1.857   2.429  0.0553 -0.3439  0.0193
 7009TIP3    H142586   3.947   1.779   2.462  1.1562  1.2425  2.5569
 7009TIP3    H242587   3.955   1.930   2.455 -3.2880  1.6224  2.3386
 7010TIP3   OH242588   0.337   1.363   0.091 -0.0789  0.1084  0.2977
 7010TIP3    H142589   0.378   1.429   0.036 -1.5708 -0.8899 -2.1573
 7010TIP3    H242590   0.276   1.411   0.146 -0.7808  0.8572 -1.0989
 7011TIP3   OH242591   0.122   0.847   7.776 -0.4507  0.4149  0.1636
 7011TIP3    H142592   0.110   0.765   7.727  0.4436  0.0165  0.5982
 7011TIP3    H242593   0.040   0.859   7.823 -0.4587 -0.4186  0.3719
 7012TIP3   OH242594   5.042   0.940   1.065 -0.4837  0.5649  0.1397
 7012TIP3    H142595   5.095   0.936   1.145  1.0535  1.0161 -0.8108
 7012TIP3    H242596   4.972   1.001   1.086 -0.3175  0.3968  1.2567
 7013TIP3   OH242597   2.273   5.698   6.631 -0.0260 -0.4686 -0.6438
 7013TIP3    H142598   2.216   5.771   6.608  0.4855 -0.6658 -2.7432
 7013TIP3    H242599   2.362   5.732   6.617  0.2326 -1.3338 -1.1643
 7014TIP3   OH242600   2.714   4.358   0.793 -0.6929  0.3303 -0.2673
 7014TIP3    H142601   2.749   4.333   0.879 -3.2541 -1.9056  0.2575
 7014TIP3    H242602   2.661   4.435   0.809 -1.0860 -0.0260  0.1571
 7015TIP3   OH242603   1.461   3.531   2.028  0.4218  0.5174 -0.1712
 7015TIP3    H142604   1.450   3.487   2.112  0.9467 -1.1479 -0.9337
 7015TIP3    H242605   1.488   3.462   1.968  0.2050  1.6978 -1.6903
 7016TIP3   OH242606   3.856   1.488   0.508  0.6733  0.2087 -0.6269
 7016TIP3    H142607   3.873   1.563   0.564  1.7557  0.0108 -0.6623
 7016TIP3    H242608   3.940   1.442   0.504  0.1708 -0.6912 -1.0581
 7017TIP3   OH242609   6.114   1.267   7.465 -0.0895 -0.4400 -0.2406
 7017TIP3    H142610   6.084   1.356   7.484  0.3627 -0.2764 -0.2728
 7017TIP3    H242611   6.066   1.243   7.385 -0.9695 -0.6176  0.3259
 7018TIP3   OH242612   5.938   1.540   6.566 -0.0085  0.1506  0.7041
 7018TIP3    H142613   5.908   1.544   6.657 -0.6695  1.5170  0.4464
 7018TIP3    H242614   5.925   1.628   6.532 -2.1437 -0.8773 -1.4609
 7019TIP3   OH242615   3.044   4.785   0.351  0.4772 -0.1401 -0.1032
 7019TIP3    H142616   2.953   4.806   0.374  0.2284 -0.9786 -0.2555
 7019TIP3    H242617   3.097   4.845   0.403 -0.1311 -0.4806  0.9533
 7020TIP3   OH242618   0.640   6.556   6.553  0.4028  0.5582  0.1228
 7020TIP3    H142619   0.609   6.512   6.632 -3.4517  1.2057 -0.8652
 7020TIP3    H242620   0.605   6.645   6.559 -0.1217  0.5822 -2.3384
 7021TIP3   OH242621   0.074   1.793   7.511  0.4459  0.3587  0.3756
 7021TIP3    H142622   0.163   1.789   7.546  0.4782 -1.9653  0.1564
 7021TIP3    H242623   0.079   1.747   7.427 -0.8529  0.6493  0.1275
 7022TIP3   OH242624   1.064   2.862   0.768 -0.1975  0.7599  0.4000
 7022TIP3    H142625   1.141   2.860   0.825  0.0138  0.8751  0.1216
 7022TIP3    H242626   1.008   2.791   0.801 -1.2782  2.4339  2.3974
 7023TIP3   OH242627   0.513   5.350   2.049  0.1053 -0.0452 -0.3358
 7023TIP3    H142628   0.556   5.342   2.134 -0.0062  0.0721 -0.2685
 7023TIP3    H242629   0.563   5.417   2.003 -0.0607  0.1569 -0.2228
 7024TIP3   OH242630   1.626   6.023   1.174 -0.2371 -0.3375 -0.0528
 7024TIP3    H142631   1.663   5.978   1.250  1.0783  0.2106 -0.3353
 7024TIP3    H242632   1.670   6.108   1.172 -1.0928  0.1070 -0.7674
 7025TIP3   OH242633   3.231   4.083   6.538  0.4491  0.0881  0.5245
 7025TIP3    H142634   3.321   4.104   6.513  0.0605  2.3878  0.7871
 7025TIP3    H242635   3.240   4.013   6.602  1.8920 -1.0564 -0.8460
 7026TIP3   OH242636   1.724   5.590   1.653 -0.2092  0.6094  0.1212
 7026TIP3    H142637   1.780   5.635   1.716  1.5307 -2.8314  1.2513
 7026TIP3    H242638   1.661   5.542   1.706  0.3581 -1.2096 -0.7759
 7027TIP3   OH242639   2.285   3.801   8.565 -0.1367 -0.2391 -0.2452
 7027TIP3    H142640   2.272   3.723   8.619 -0.8335 -0.5775 -0.8810
 7027TIP3    H242641   2.338   3.771   8.491 -1.8104 -0.5483 -1.3854
 7028TIP3   OH242642   4.337   0.865   1.701 -0.6018  0.0018  0.5548
 7028TIP3    H142643   4.321   0.864   1.795 -0.8944 -1.7381  0.5246
 7028TIP3    H242644   4.390   0.787   1.685  0.2656  0.8018 -0.6023
 7029TIP3   OH242645   3.319   0.542   5.852  0.0748  0.9288 -0.4530
 7029TIP3    H142646   3.254   0.524   5.921  0.2193  0.6947 -0.3802
 7029TIP3    H242647   3.375   0.465   5.851 -0.3409  0.6315 -1.3059
 7030TIP3   OH242648   3.688   0.611   0.268  0.1915 -0.2249  0.9848
 7030TIP3    H142649   3.717   0.556   0.341 -2.4007 -1.7663  0.9733
 7030TIP3    H242650   3.611   0.658   0.302  0.0144  0.3971 -0.2239
 7031TIP3   OH242651   4.271   2.035   1.593  0.3494  0.1226 -0.1229
 7031TIP3    H142652   4.200   2.069   1.646  0.0527 -0.3515 -0.2082
 7031TIP3    H242653   4.266   1.940   1.604  1.0684  0.0913 -0.0026
 7032TIP3   OH242654   2.650   3.194   0.193 -0.2647 -0.8420  0.1605
 7032TIP3    H142655   2.690   3.149   0.119 -2.3756 -1.9124 -0.4024
 7032TIP3    H242656   2.645   3.128   0.262  0.2681 -0.2850  0.7539
 7033TIP3   OH242657   0.437   6.671   2.395  0.4468 -0.4222 -0.4774
 7033TIP3    H142658   0.459   6.760   2.423  1.0214  0.1405 -2.5358
 7033TIP3    H242659   0.521   6.626   2.388  0.5266 -0.0519 -2.6801
 7034TIP3   OH242660   0.822   3.276   8.551 -0.4707 -0.2651  0.3362
 7034TIP3    H142661   0.733   3.264   8.519 -1.4155  2.9573  1.3571
 7034TIP3    H242662   0.878   3.242   8.481 -2.4723 -1.4316 -0.7684
 7035TIP3   OH242663   1.524   2.443   8.390  0.3612 -0.2403 -0.1003
 7035TIP3    H142664   1.562   2.381   8.452 -0.0479 -0.0923  0.3025
 7035TIP3    H242665   1.490   2.514   8.444 -0.3075 -0.2697 -0.4642
 7036TIP3   OH242666   6.828   3.158   7.464 -0.1990 -0.2692 -0.5438
 7036TIP3    H142667   6.863   3.237   7.506 -0.9035  1.4931 -3.0245
 7036TIP3    H242668   6.901   3.122   7.414 -0.4469  0.1620 -1.2331
 7037TIP3   OH242669   1.699   0.026   6.851 -0.1026 -0.2581  0.7412
 7037TIP3    H142670   1.613   0.003   6.814  0.5875 -2.0403  0.1362
 7037TIP3    H242671   1.743   0.072   6.780 -0.5808  0.7452  1.0849
 7038TIP3   OH242672   0.822   5.005   0.862  0.2958  0.2933  0.0816
 7038TIP3    H142673   0.872   4.958   0.795  0.4889  1.6723 -0.7874
 7038TIP3    H242674   0.741   5.029   0.817 -0.0348  0.3146  0.6837
 7039TIP3   OH242675   4.127   1.645   7.181 -0.3398  0.6576 -0.2201
 7039TIP3    H142676   4.162   1.557   7.198 -1.5559  0.4891  1.7477
 7039TIP3    H242677   4.077   1.635   7.099  2.9916  0.6266 -2.4305
 7040TIP3   OH242678   1.356   4.313   0.982 -0.1445 -0.0768 -0.2632
 7040TIP3    H142679   1.344   4.408   0.981 -1.5328 -0.1378  2.2825
 7040TIP3    H242680   1.451   4.301   0.975  0.1560  1.5696  0.5422
 7041TIP3   OH242681   1.937   6.281   8.064 -0.3747 -0.7703  0.0314
 7041TIP3    H142682   1.945   6.341   7.990 -1.6617  0.0446  0.5149
 7041TIP3    H242683   1.896   6.333   8.133  0.5302 -1.5980  1.2299
 7042TIP3   OH242684   1.286   1.677   2.049  0.0564  0.1103 -0.1427
 7042TIP3    H142685   1.278   1.734   2.126 -0.8975  0.0067 -0.1431
 7042TIP3    H242686   1.375   1.642   2.053  1.0084  2.3230 -0.6595
 7043TIP3   OH242687   0.852   5.288   1.352  0.1826  0.3442  0.3403
 7043TIP3    H142688   0.888   5.216   1.300 -0.5093 -1.0919  1.7890
 7043TIP3    H242689   0.795   5.334   1.291 -0.1022 -0.8998 -0.3698
 7044TIP3   OH242690   3.577   6.817   0.151  0.2458 -0.1223 -0.0524
 7044TIP3    H142691   3.670   6.808   0.133 -0.2190 -2.7168 -1.6210
 7044TIP3    H242692   3.572   6.887   0.216  3.0861  1.3855 -1.3093
 7045TIP3   OH242693   2.048   4.360   0.662  0.0345  0.1011  0.2826
 7045TIP3    H142694   2.092   4.444   0.667 -0.5582  0.5177 -0.9662
 7045TIP3    H242695   1.960   4.381   0.629 -0.5363 -0.8809  1.1053
 7046TIP3   OH242696   5.506   4.766   0.343 -0.1200  0.1993  0.1832
 7046TIP3    H142697   5.469   4.787   0.257  1.1912 -1.5964 -0.8948
 7046TIP3    H242698   5.600   4.778   0.331 -0.0480  1.8918  2.0103
 7047TIP3   OH242699   6.802   2.732   0.822  0.0937  0.3811  0.2427
 7047TIP3    H142700   6.738   2.748   0.752  1.3757  3.1903 -0.4277
 7047TIP3    H242701   6.762   2.770   0.900 -0.8113 -1.6951  0.8786
 7048TIP3   OH242702   3.060   0.010   7.393  0.2653  0.5417  0.4129
 7048TIP3    H142703   2.981   0.033   7.343 -0.1929 -2.6502 -0.5206
 7048TIP3    H242704   3.040   0.039   7.482 -0.0341  3.8360 -0.5752
 7049TIP3   OH242705   6.479   6.129   0.519  0.4851 -0.8678  0.0387
 7049TIP3    H142706   6.441   6.042   0.524 -1.3014 -0.2222 -1.1094
 7049TIP3    H242707   6.470   6.154   0.427  0.3644  0.7434  0.4560
 7050TIP3   OH242708   3.109   3.835   0.994  0.5398 -0.3875 -0.2477
 7050TIP3    H142709   3.162   3.872   0.923  1.1650 -0.7847 -0.0029
 7050TIP3    H242710   3.156   3.755   1.018 -0.2330 -0.7961 -0.0849
 7051TIP3   OH242711   2.370   2.539   6.910 -0.9330 -0.2561  0.4470
 7051TIP3    H142712   2.366   2.500   6.822 -1.2205  0.4364  0.1454
 7051TIP3    H242713   2.302   2.495   6.960  1.5999 -3.4191  1.5011
 7052TIP3   OH242714   4.231   3.983   7.866 -0.2485 -0.2029  0.2097
 7052TIP3    H142715   4.283   4.059   7.892 -0.6810  0.1542  0.0396
 7052TIP3    H242716   4.275   3.909   7.907  0.1696  0.1414  0.3898
 7053TIP3   OH242717   0.583   2.570   6.994  0.0666 -1.1694  0.3441
 7053TIP3    H142718   0.671   2.576   6.957  0.2382  0.7966  0.9844
 7053TIP3    H242719   0.575   2.646   7.051 -1.9810 -1.4129  0.4644
 7054TIP3   OH242720   1.910   5.265   2.090 -0.6908 -0.2811 -0.4738
 7054TIP3    H142721   1.933   5.246   1.999  1.1819  0.2596 -0.1501
 7054TIP3    H242722   1.922   5.182   2.136 -3.5935 -1.1030 -0.9938
 7055TIP3   OH242723   2.919   4.567   2.130 -0.4445  0.0398 -0.3635
 7055TIP3    H142724   2.927   4.513   2.209 -0.3394  0.0292 -0.3807
 7055TIP3    H242725   2.995   4.624   2.133  0.4629 -1.0653 -1.2997
 7056TIP3   OH242726   5.132   0.966   7.862 -0.4247  0.1022  0.4565
 7056TIP3    H142727   5.163   0.888   7.908  1.6615  0.7226  0.1950
 7056TIP3    H242728   5.081   1.013   7.928  1.7742  0.5276  1.9738
 7057TIP3   OH242729   5.019   4.436   0.709  0.4607  0.7785 -0.2258
 7057TIP3    H142730   5.026   4.340   0.712  2.5479  0.9084  1.4788
 7057TIP3    H242731   4.996   4.462   0.798 -0.3426  1.8774 -0.7330
 7058TIP3   OH242732   3.810   6.238   0.375  0.3416 -0.0567  0.1935
 7058TIP3    H142733   3.840   6.305   0.436 -0.5921 -1.2689  2.0568
 7058TIP3    H242734   3.717   6.254   0.364  0.5737  0.4640 -1.4118
 7059TIP3   OH242735   0.286   4.995   7.482  0.0572 -0.1483 -0.3377
 7059TIP3    H142736   0.268   4.903   7.501 -0.3521  0.1970  1.0783
 7059TIP3    H242737   0.367   5.014   7.530 -0.7903  0.6516  0.8427
 7060TIP3   OH242738   1.091   4.195   6.821 -0.3396  0.3878  0.1110
 7060TIP3    H142739   1.071   4.197   6.727 -0.4654  2.4994  0.1460
 7060TIP3    H242740   1.006   4.208   6.863 -0.3913 -1.2294  0.5776
 7061TIP3   OH242741   4.608   3.637   0.406 -0.4928  0.0998  0.0979
 7061TIP3    H142742   4.626   3.636   0.500 -2.1532 -0.4926  0.4453
 7061TIP3    H242743   4.521   3.676   0.399 -0.3407  0.2321 -1.2124
 7062TIP3   OH242744   2.460   2.253   7.549 -0.4304  0.0463  0.3681
 7062TIP3    H142745   2.463   2.317   7.619  0.0555  1.4191 -0.8635
 7062TIP3    H242746   2.433   2.302   7.472  0.5210 -1.0959 -0.7446
 7063TIP3   OH242747   1.189   0.632   0.495  0.1100 -0.2803  0.0093
 7063TIP3    H142748   1.115   0.583   0.458  1.9480 -2.8876 -0.5498
 7063TIP3    H242749   1.247   0.648   0.420  0.7303  0.5459  0.6476
 7064TIP3   OH242750   1.965   5.322   0.742 -0.0799 -0.0140  0.2197
 7064TIP3    H142751   1.993   5.383   0.811 -0.4119  0.3742  0.0141
 7064TIP3    H242752   2.026   5.248   0.749 -0.2822 -0.1135  1.1178
 7065TIP3   OH242753   5.210   2.040   0.816  0.1660  0.1757 -0.2529
 7065TIP3    H142754   5.191   2.070   0.728 -0.8971  0.7166  0.1412
 7065TIP3    H242755   5.126   2.045   0.862  0.7812  0.2879  0.9044
 7066TIP3   OH242756   5.501   4.196   7.991  0.3995  0.1876 -0.0305
 7066TIP3    H142757   5.417   4.152   7.976  0.2230  0.6327 -0.3767
 7066TIP3    H242758   5.497   4.274   7.935  1.1163  0.1164 -0.1852
 7067TIP3   OH242759   6.413   1.929   1.091 -0.1305 -0.3396  0.1969
 7067TIP3    H142760   6.433   1.840   1.120 -1.9138 -0.8843 -0.1458
 7067TIP3    H242761   6.318   1.933   1.090 -0.0799  1.3054 -0.6417
 7068TIP3   OH242762   3.379   2.101   8.621  0.8419 -0.4528  0.5168
 7068TIP3    H142763   3.376   2.135   8.710 -2.0991 -0.5556  0.5607
 7068TIP3    H242764   3.414   2.012   8.630  1.9418  0.0459  1.3405
 7069TIP3   OH242765   3.175   4.752   0.082  0.3762 -0.0196  0.8348
 7069TIP3    H142766   3.093   4.759   0.034  0.9040  1.5294  0.0724
 7069TIP3    H242767   3.149   4.724   0.170 -1.0273  0.8895  0.7497
 7070TIP3   OH242768   4.343   5.943   1.069 -0.1255  0.1204 -0.0999
 7070TIP3    H142769   4.300   5.892   1.001  1.2079 -0.9922 -0.1548
 7070TIP3    H242770   4.272   5.989   1.114 -1.4464 -2.0055  0.1463
 7071TIP3   OH242771   6.594   1.006   7.257  0.6174 -0.1591 -0.2052
 7071TIP3    H142772   6.558   0.939   7.316  0.0192 -0.3013 -0.7223
 7071TIP3    H242773   6.542   0.999   7.177 -0.2286  1.6772  0.1262
 7072LIG      O42774   6.339   5.823   1.918 -0.7342  0.2435  0.4104
 7072LIG     C142775   6.239   5.726   1.893  0.0599 -0.3783 -0.1526
 7072LIG     C242776   6.302   5.614   1.813 -0.1645  0.3992  0.0749
 7072LIG     C342777   6.194   5.664   2.032 -0.3247 -0.4909 -0.3724
 7072LIG     H142778   6.156   5.765   1.830 -0.6880  0.2207  1.1604
 7072LIG     H242779   6.342   5.654   1.717 -1.4508 -0.1035 -0.7030
 7072LIG     H342780   6.217   5.543   1.801 -1.5260  1.5845  2.1435
 7072LIG     H442781   6.389   5.574   1.869  1.9929  0.3207 -3.0395
 7072LIG     H542782   6.154   5.751   2.090  0.1564  0.1393 -0.9671
 7072LIG     H642783   6.280   5.621   2.087  0.0714  2.0863  1.2222
 7072LIG     H742784   6.110   5.592   2.022  1.0959 -2.3996  0.7401
 7072LIG     H842785   6.377   5.845   1.833  0.4709  0.4431  0.9785
   6.87137   6.87137   8.66203
