Title
42788
    1SAPS     N    1   6.240   4.450   6.741  0.3630 -0.0571 -0.2953
    1SAPS   HN1    2   6.171   4.507   6.688 -1.4204 -2.9481 -1.3095
    1SAPS   HN2    3   6.330   4.447   6.690 -0.0241  0.5153 -1.0215
    1SAPS   HN3    4   6.202   4.353   6.744 -2.5659  1.0194  1.1094
    1SAPS   C12    5   6.253   4.516   6.877 -0.1604  0.6686 -0.0630
    1SAPS  H12A    6   6.153   4.523   6.917 -0.8478  2.0078 -1.8423
    1SAPS   C13    7   6.340   4.421   6.971 -0.0540 -0.1921 -0.6873
    1SAPS  O13A    8   6.375   4.308   6.934  0.1420  0.2909 -0.2195
    1SAPS  O13B    9   6.360   4.464   7.090 -0.3479  1.0352  0.9098
    1SAPS   C11   10   6.319   4.653   6.870 -0.1565  0.2928  0.0781
    1SAPS  H11A   11   6.417   4.647   6.819 -0.1291  1.1267  0.0307
    1SAPS  H11B   12   6.331   4.695   6.972 -3.4102 -1.9702  1.5831
    1SAPS     P   13   6.139   4.843   6.834 -0.2886 -0.5995  0.2194
    1SAPS   O13   14   6.010   4.773   6.867 -0.8659 -0.4644 -0.0469
    1SAPS   O14   15   6.199   4.928   6.946 -0.1566 -0.3406 -0.3616
    1SAPS   O12   16   6.247   4.742   6.791  0.3175  0.1890 -0.0167
    1SAPS   O11   17   6.121   4.931   6.707  0.0589 -0.7012  0.4002
    1SAPS    C1   18   6.189   4.909   6.586 -0.9290 -0.3387 -0.4463
    1SAPS    HA   19   6.197   4.999   6.522 -0.7536  0.0987  0.1910
    1SAPS    HB   20   6.292   4.869   6.594 -1.4561 -1.9271 -1.1108
    1SAPS    C2   21   6.116   4.808   6.494 -0.1464 -0.6932  0.2049
    1SAPS    HS   22   6.101   4.721   6.561  0.7763 -2.2800 -1.5544
    1SAPS   O21   23   6.204   4.776   6.381 -0.2585 -0.1635 -0.2773
    1SAPS   C21   24   6.256   4.659   6.387 -0.3334 -0.1014  0.6430
    1SAPS   O22   25   6.264   4.585   6.486 -0.3968  0.2585 -0.0167
    1SAPS   C22   26   6.333   4.625   6.254  0.4543  0.3208 -0.5143
    1SAPS   H2R   27   6.427   4.683   6.245  0.4753  0.6380  1.3409
    1SAPS   H2S   28   6.352   4.515   6.256 -1.3469 -0.0192 -0.2745
    1SAPS    C3   29   5.970   4.842   6.448  0.4292 -0.5919 -0.8387
    1SAPS    HX   30   5.984   4.932   6.384 -1.2731 -0.1143 -0.5964
    1SAPS    HY   31   5.917   4.863   6.544  1.6181  0.2062 -0.3342
    1SAPS   O31   32   5.918   4.734   6.374  0.1819  0.1641 -0.3245
    1SAPS   C31   33   5.798   4.752   6.325 -0.2351 -0.6671 -0.3935
    1SAPS   O32   34   5.739   4.858   6.330 -0.4346 -0.0248 -0.7976
    1SAPS   C32   35   5.746   4.630   6.251 -0.4373 -0.7618 -0.1644
    1SAPS   H2X   36   5.649   4.663   6.207  1.4004  2.6070 -2.0790
    1SAPS   H2Y   37   5.743   4.548   6.325 -0.7568  0.1665  0.8870
    1SAPS   C23   38   6.245   4.658   6.132 -0.1216  1.3323  0.0934
    1SAPS   H3R   39   6.212   4.764   6.133 -0.4000  1.2584 -0.5817
    1SAPS   H3S   40   6.161   4.587   6.140  1.8364 -0.9250  2.3222
    1SAPS   C24   41   6.300   4.619   5.995 -0.0462  0.2571  0.0138
    1SAPS   H4R   42   6.215   4.600   5.926  0.1220 -1.7988  0.2926
    1SAPS   H4S   43   6.343   4.517   6.009 -0.1238 -0.0068 -1.4233
    1SAPS   C25   44   6.404   4.709   5.952 -0.4471  0.0518  0.4932
    1SAPS   H5R   45   6.501   4.704   6.003  0.8029 -1.9147 -1.8657
    1SAPS   C26   46   6.391   4.789   5.849  0.0961 -0.6544 -0.3605
    1SAPS   H6R   47   6.481   4.850   5.834 -0.1557 -0.0547  0.4961
    1SAPS   C27   48   6.267   4.807   5.762 -0.1698  0.7368 -0.0814
    1SAPS   H7R   49   6.184   4.850   5.822  0.5898  0.6427  1.0578
    1SAPS   H7S   50   6.229   4.705   5.737  1.1646  0.4101 -0.8489
    1SAPS   C28   51   6.292   4.894   5.644 -0.1924  0.2614 -0.5551
    1SAPS   H8R   52   6.280   5.000   5.667  0.4451  0.2256 -0.0515
    1SAPS   C29   53   6.298   4.865   5.513 -0.0523 -0.1734  0.3739
    1SAPS   H9R   54   6.317   4.953   5.450 -0.5836 -0.2717  0.0681
    1SAPS  C210   55   6.306   4.728   5.448 -0.1521 -0.3991 -0.1609
    1SAPS  H10R   56   6.203   4.713   5.409 -0.4024  0.2674  0.2201
    1SAPS  H10S   57   6.328   4.641   5.514  1.3946  0.6037  0.6921
    1SAPS  C211   58   6.416   4.717   5.345  0.2634  0.2431 -0.1521
    1SAPS  H11R   59   6.514   4.703   5.393  0.7597  0.9584 -0.9334
    1SAPS  C212   60   6.408   4.720   5.210  1.2517 -0.5126  0.6033
    1SAPS  H12R   61   6.494   4.694   5.146 -0.4208 -3.7173 -0.5907
    1SAPS  C213   62   6.287   4.756   5.127 -0.0077 -0.3028  0.2787
    1SAPS  H13R   63   6.199   4.759   5.195 -0.7146  0.1498 -0.6283
    1SAPS  H13S   64   6.272   4.683   5.045  5.1953  0.8366 -2.1505
    1SAPS  C214   65   6.288   4.894   5.072 -0.2322  0.2684 -0.0197
    1SAPS  H14R   66   6.244   4.966   5.143 -0.2714  0.2844 -0.0597
    1SAPS  C215   67   6.334   4.927   4.950 -0.3038  0.5613 -0.2619
    1SAPS  H15R   68   6.342   5.029   4.907  1.1198 -0.0940 -1.6567
    1SAPS  C216   69   6.394   4.829   4.861  0.0841  0.7335  0.2655
    1SAPS  H16R   70   6.314   4.803   4.789 -0.9714  1.3303  1.1810
    1SAPS  H16S   71   6.427   4.737   4.915 -0.6119  0.4096  0.1537
    1SAPS  C217   72   6.515   4.886   4.782 -0.0618 -0.1867 -0.4716
    1SAPS  H17R   73   6.540   4.803   4.713 -2.2132 -1.0394 -0.3161
    1SAPS  H17S   74   6.601   4.907   4.850 -0.2119  1.3506 -0.7196
    1SAPS  C218   75   6.488   5.006   4.682 -0.1472  0.3275  0.1576
    1SAPS  H18R   76   6.425   5.087   4.727 -0.1030  0.7217 -0.4773
    1SAPS  H18S   77   6.431   4.959   4.599  0.3167 -1.7586  0.9731
    1SAPS  C219   78   6.617   5.070   4.622  0.5912 -0.0184 -0.5677
    1SAPS  H19R   79   6.673   5.113   4.708  0.8740 -1.8702  0.2349
    1SAPS  H19S   80   6.586   5.159   4.563 -1.2610  0.1122  0.5205
    1SAPS  C220   81   6.690   4.967   4.541  0.5137  0.1399 -0.5446
    1SAPS  H20R   82   6.728   4.889   4.611 -1.2488  0.2313  0.5648
    1SAPS  H20S   83   6.771   5.026   4.492 -0.3198  1.8937  0.0815
    1SAPS  H20T   84   6.624   4.924   4.463 -0.0309  1.1265 -0.6384
    1SAPS   C33   85   5.844   4.606   6.138 -0.7090 -0.1063 -0.4751
    1SAPS   H3X   86   5.812   4.509   6.094  2.6305 -1.7635  0.4389
    1SAPS   H3Y   87   5.950   4.591   6.166 -0.9274 -0.8604 -0.0379
    1SAPS   C34   88   5.829   4.711   6.022  0.6450 -0.0090  0.1783
    1SAPS   H4X   89   5.870   4.807   6.058  1.0924 -0.4327  0.8162
    1SAPS   H4Y   90   5.720   4.719   6.002  0.5727 -0.1867  0.4948
    1SAPS   C35   91   5.901   4.677   5.894  0.5177  0.3836 -0.4627
    1SAPS   H5X   92   5.872   4.573   5.866  0.6853  0.4678 -0.9535
    1SAPS   H5Y   93   6.010   4.688   5.913  0.3585 -1.4391  2.1227
    1SAPS   C36   94   5.861   4.769   5.783 -0.1374 -0.1053 -0.2088
    1SAPS   H6X   95   5.905   4.870   5.798  0.4803 -0.1190 -1.7063
    1SAPS   H6Y   96   5.751   4.772   5.768 -0.1282  0.2390 -0.2080
    1SAPS   C37   97   5.911   4.716   5.646 -0.2090 -0.5242  0.4671
    1SAPS   H7X   98   5.886   4.608   5.634  0.9459 -0.9632  1.6942
    1SAPS   H7Y   99   6.021   4.725   5.657 -0.1763  1.3188 -0.8500
    1SAPS   C38  100   5.860   4.809   5.531 -0.4553 -0.5341  0.4472
    1SAPS   H8X  101   5.862   4.915   5.566 -0.4683 -0.3755 -0.0226
    1SAPS   H8Y  102   5.751   4.793   5.517 -0.4296  0.0077 -0.4543
    1SAPS   C39  103   5.935   4.787   5.397 -0.3360  0.1007 -0.0090
    1SAPS   H9X  104   5.952   4.678   5.382 -1.1017 -0.0352  0.0938
    1SAPS   H9Y  105   6.029   4.847   5.398 -0.1507 -0.1431 -1.4411
    1SAPS  C310  106   5.837   4.815   5.281 -0.6883  0.5406 -1.3214
    1SAPS  H10X  107   5.798   4.918   5.293 -0.3099  0.7311 -1.6999
    1SAPS  H10Y  108   5.753   4.743   5.277 -0.0517 -0.3131 -0.0625
    1SAPS  C311  109   5.897   4.797   5.143  0.2581  0.2854 -0.6492
    1SAPS  H11X  110   5.937   4.697   5.117  0.0681 -0.0797  0.3856
    1SAPS  H11Y  111   5.985   4.864   5.133  0.6341 -0.3710 -1.9382
    1SAPS  C312  112   5.795   4.860   5.037  0.1023 -0.1866 -0.5742
    1SAPS  H12X  113   5.791   4.970   5.055 -0.6638  0.2922 -3.2414
    1SAPS  H12Y  114   5.694   4.817   5.056  0.5033 -0.0260  2.3829
    1SAPS  C313  115   5.845   4.842   4.896  0.8769  0.4432 -0.2118
    1SAPS  H13X  116   5.854   4.736   4.864 -1.7523 -0.0084  0.2544
    1SAPS  H13Y  117   5.949   4.881   4.892  1.1104  0.0909  1.7967
    1SAPS  C314  118   5.774   4.929   4.785 -0.1990 -0.0462  0.5035
    1SAPS  H14X  119   5.773   5.037   4.813  0.0418 -0.4725  2.2848
    1SAPS  H14Y  120   5.667   4.901   4.789  0.0467 -0.9104  1.6981
    1SAPS  C315  121   5.843   4.901   4.652  0.1619 -0.4149  0.1941
    1SAPS  H15X  122   5.781   4.951   4.575 -0.2702 -3.2969 -1.4993
    1SAPS  H15Y  123   5.825   4.794   4.626  1.1687 -1.2615  2.6550
    1SAPS  C316  124   5.992   4.936   4.645 -0.7934 -0.6742  0.4409
    1SAPS  H16X  125   6.051   4.875   4.717 -0.9467  0.9780  2.0468
    1SAPS  H16Y  126   6.008   5.044   4.666 -0.1527 -0.6518 -0.1140
    1SAPS  C317  127   6.040   4.916   4.500 -0.1054 -0.3363  0.1098
    1SAPS  H17X  128   5.984   4.990   4.439  1.3234  0.2612 -0.5205
    1SAPS  H17Y  129   6.004   4.816   4.469 -0.7026 -0.2455  0.4909
    1SAPS  C318  130   6.187   4.938   4.488 -0.5289 -0.2595  0.6581
    1SAPS  H18X  131   6.220   5.035   4.533  1.1995 -1.8207  2.9714
    1SAPS  H18Y  132   6.214   4.936   4.381 -1.8556  0.3818  0.2823
    1SAPS  H18Z  133   6.240   4.853   4.535 -1.7377 -1.5996 -0.3158
    2SAPS     N  134   6.108   6.145   6.822 -0.0868  0.0825 -0.2885
    2SAPS   HN1  135   6.141   6.139   6.920 -0.9142 -0.1990 -0.0171
    2SAPS   HN2  136   6.078   6.049   6.795  0.5086 -1.1574  3.0145
    2SAPS   HN3  137   6.186   6.175   6.761 -0.1052 -0.6658 -0.6992
    2SAPS   C12  138   5.990   6.231   6.822  0.0539 -0.5187 -0.5973
    2SAPS  H12A  139   5.981   6.270   6.722  0.1347  0.2598 -0.3063
    2SAPS   C13  140   5.849   6.168   6.853 -0.1513  0.4741 -0.3315
    2SAPS  O13A  141   5.834   6.039   6.853 -0.0142 -0.5147  0.3553
    2SAPS  O13B  142   5.752   6.242   6.848  0.4408 -0.1895  0.3836
    2SAPS   C11  143   6.010   6.348   6.925 -0.3573  0.8401 -0.3985
    2SAPS  H11A  144   6.016   6.305   7.027  2.7704  1.6092 -0.1733
    2SAPS  H11B  145   5.920   6.412   6.938 -1.1889 -0.3225 -0.1502
    2SAPS     P  146   6.155   6.524   6.786 -0.0541  0.0133 -0.3112
    2SAPS   O13  147   6.027   6.573   6.734  0.7210  0.1678  0.1481
    2SAPS   O14  148   6.263   6.628   6.818  0.1621  0.4442  1.1450
    2SAPS   O12  149   6.130   6.427   6.909  0.1692 -0.4012 -0.0807
    2SAPS   O11  150   6.201   6.425   6.672  0.3095 -0.1085 -0.0395
    2SAPS    C1  151   6.307   6.481   6.579  0.5739 -0.6816  0.0466
    2SAPS    HA  152   6.283   6.587   6.554  0.2206 -0.8115 -0.1721
    2SAPS    HB  153   6.402   6.479   6.637 -0.4403 -0.6058  1.7713
    2SAPS    C2  154   6.325   6.393   6.443  0.1250  0.3380  0.0473
    2SAPS    HS  155   6.404   6.319   6.467  0.4244 -0.0262 -1.9275
    2SAPS   O21  156   6.351   6.478   6.329 -0.1828  0.8211 -0.2230
    2SAPS   C21  157   6.464   6.542   6.334 -0.1100 -0.2168  0.3853
    2SAPS   O22  158   6.551   6.518   6.414  0.1161  0.9467  0.0982
    2SAPS   C22  159   6.476   6.645   6.228  0.9109  0.4455  0.3220
    2SAPS   H2R  160   6.533   6.602   6.143  0.3087 -0.2352  0.2495
    2SAPS   H2S  161   6.378   6.666   6.179  0.5972 -0.4124  0.5522
    2SAPS    C3  162   6.185   6.326   6.411  0.2437  0.3072  0.7772
    2SAPS    HX  163   6.100   6.396   6.401 -1.9260 -2.3040 -0.6360
    2SAPS    HY  164   6.155   6.262   6.497 -2.7885 -1.2880 -1.3074
    2SAPS   O31  165   6.193   6.242   6.295  0.0926  0.4159  0.5108
    2SAPS   C31  166   6.076   6.239   6.226  0.0687  0.1112  0.2605
    2SAPS   O32  167   5.976   6.303   6.258 -0.0771  0.1076 -0.2346
    2SAPS   C32  168   6.091   6.162   6.099 -0.1890 -0.2470 -0.3172
    2SAPS   H2X  169   6.157   6.077   6.126  0.8218  1.1510  1.8349
    2SAPS   H2Y  170   6.141   6.229   6.025 -3.0957  3.3191  0.6915
    2SAPS   C23  171   6.552   6.767   6.282  0.3067 -1.1982  0.2652
    2SAPS   H3R  172   6.653   6.741   6.320  3.2505  1.7061 -4.4987
    2SAPS   H3S  173   6.493   6.819   6.361  0.2542  1.7357 -1.5439
    2SAPS   C24  174   6.581   6.876   6.169  0.3792  0.2829 -0.2065
    2SAPS   H4R  175   6.621   6.819   6.082 -1.1771 -0.9212 -0.1731
    2SAPS   H4S  176   6.672   6.929   6.205  1.4547 -1.5350 -0.1129
    2SAPS   C25  177   6.458   6.962   6.137 -0.2635  0.4171  0.3228
    2SAPS   H5R  178   6.421   7.022   6.221 -0.1320 -1.1430  1.5403
    2SAPS   C26  179   6.403   6.968   6.009 -0.0205 -0.1692 -0.4342
    2SAPS   H6R  180   6.319   7.037   5.995  0.9649  0.7535 -1.9690
    2SAPS   C27  181   6.446   6.895   5.884 -0.2966  0.0672  1.3682
    2SAPS   H7R  182   6.557   6.895   5.884 -0.2890 -0.6165  1.3126
    2SAPS   H7S  183   6.420   6.956   5.795 -0.3348  0.1452  1.4321
    2SAPS   C28  184   6.383   6.761   5.873 -0.2899 -0.2644  0.2056
    2SAPS   H8R  185   6.387   6.697   5.962  0.2881 -2.8417 -1.5378
    2SAPS   C29  186   6.314   6.712   5.768  0.3514 -0.2723  0.1851
    2SAPS   H9R  187   6.275   6.609   5.780  1.0228 -0.6954 -1.0211
    2SAPS  C210  188   6.289   6.765   5.629  0.2049 -0.5210  0.7932
    2SAPS  H10R  189   6.320   6.871   5.618  1.8928 -1.1266 -0.9885
    2SAPS  H10S  190   6.181   6.761   5.607  0.0254  2.5469  0.6580
    2SAPS  C211  191   6.378   6.691   5.529 -1.2394  0.3776  0.2764
    2SAPS  H11R  192   6.465   6.654   5.584 -0.6456 -0.8811 -1.4415
    2SAPS  C212  193   6.366   6.678   5.395 -0.1154 -0.0897 -0.8670
    2SAPS  H12R  194   6.431   6.604   5.345  1.3232  0.4916  0.0706
    2SAPS  C213  195   6.241   6.732   5.326 -0.0406  0.4275  0.5774
    2SAPS  H13R  196   6.151   6.740   5.390 -0.2276 -1.4573  0.5818
    2SAPS  H13S  197   6.211   6.658   5.248  1.4366 -0.3414  0.7152
    2SAPS  C214  198   6.272   6.864   5.257 -0.2154  0.1355  0.6928
    2SAPS  H14R  199   6.284   6.946   5.330 -1.9906 -0.2668  1.4711
    2SAPS  C215  200   6.302   6.883   5.126 -0.0484  0.7215  0.5580
    2SAPS  H15R  201   6.346   6.978   5.091 -0.8029  0.2663 -1.7824
    2SAPS  C216  202   6.297   6.768   5.023 -0.3867 -0.4525 -0.7228
    2SAPS  H16R  203   6.213   6.703   5.054  0.9402 -1.8194  0.1488
    2SAPS  H16S  204   6.389   6.706   5.027  0.4500  0.7704 -0.2455
    2SAPS  C217  205   6.273   6.821   4.880 -0.4376  0.2860  0.9576
    2SAPS  H17R  206   6.349   6.894   4.847 -0.0370 -0.8827 -0.8464
    2SAPS  H17S  207   6.169   6.861   4.880 -0.4314  0.3414 -0.1881
    2SAPS  C218  208   6.269   6.713   4.774 -0.1113  0.4360  0.8846
    2SAPS  H18R  209   6.214   6.625   4.815  0.7533 -0.2685  0.5765
    2SAPS  H18S  210   6.376   6.687   4.755 -0.1449 -0.5129  1.8746
    2SAPS  C219  211   6.206   6.761   4.648  0.1604  0.4713 -0.0507
    2SAPS  H19R  212   6.233   6.681   4.575  0.3314 -1.4899  2.0555
    2SAPS  H19S  213   6.259   6.855   4.623 -1.7190  1.3437 -0.9835
    2SAPS  C220  214   6.057   6.804   4.647 -0.1864 -0.1534 -0.2801
    2SAPS  H20R  215   6.007   6.706   4.661  0.9208 -0.5758  0.8430
    2SAPS  H20S  216   6.033   6.853   4.550 -1.7651 -1.9342 -0.8531
    2SAPS  H20T  217   6.041   6.869   4.735  0.6853 -0.8191  0.3887
    2SAPS   C33  218   5.962   6.119   6.025 -0.0582 -0.5474 -0.4157
    2SAPS   H3X  219   5.893   6.205   6.013 -1.4307 -1.6918 -1.0431
    2SAPS   H3Y  220   5.920   6.042   6.092 -0.4050  0.5251  0.6210
    2SAPS   C34  221   5.987   6.052   5.886  0.1923  0.7233 -0.1081
    2SAPS   H4X  222   5.909   5.979   5.855  0.2130 -0.1463  1.7725
    2SAPS   H4Y  223   6.085   6.000   5.877  1.3304  2.6765  0.3827
    2SAPS   C35  224   5.992   6.154   5.777  0.0096  0.1628  0.0658
    2SAPS   H5X  225   6.057   6.239   5.808  1.3383 -0.6761 -0.3230
    2SAPS   H5Y  226   5.893   6.200   5.758 -0.0062 -1.1554 -4.0464
    2SAPS   C36  227   6.053   6.102   5.649 -0.6889  0.1120  0.1752
    2SAPS   H6X  228   6.157   6.066   5.658 -1.1544 -1.3264 -0.0139
    2SAPS   H6Y  229   6.037   6.169   5.561 -0.7508 -0.4631 -0.2542
    2SAPS   C37  230   5.985   5.978   5.597  0.9554  0.0227 -0.3836
    2SAPS   H7X  231   5.876   6.003   5.594  1.0633  0.4043 -2.4633
    2SAPS   H7Y  232   6.010   5.894   5.665  0.2743  0.8220  0.9079
    2SAPS   C38  233   6.013   5.941   5.451  0.4382  0.7345  0.8865
    2SAPS   H8X  234   6.120   5.964   5.432  0.6314 -1.1248 -0.5678
    2SAPS   H8Y  235   5.943   6.007   5.396 -0.8055 -0.1784  1.3475
    2SAPS   C39  236   5.983   5.788   5.415  0.3758 -0.2760 -0.2811
    2SAPS   H9X  237   5.872   5.788   5.419  0.3576  2.1676  0.8275
    2SAPS   H9Y  238   6.024   5.716   5.489  0.2235  0.2288  0.2938
    2SAPS  C310  239   6.027   5.742   5.276 -0.0868  0.1437  0.0442
    2SAPS  H10X  240   6.014   5.635   5.249  0.4616 -0.0101  0.3575
    2SAPS  H10Y  241   6.138   5.747   5.272 -0.1782  1.4748 -1.6934
    2SAPS  C311  242   5.965   5.831   5.165 -0.1344 -0.2760 -0.6955
    2SAPS  H11X  243   5.977   5.937   5.193 -0.4468 -1.0309  2.6493
    2SAPS  H11Y  244   5.858   5.801   5.161  0.2040 -1.7434  0.2312
    2SAPS  C312  245   6.034   5.819   5.032 -0.2837  0.3228  0.7150
    2SAPS  H12X  246   6.012   5.721   4.983 -0.2599 -0.6363  2.5439
    2SAPS  H12Y  247   6.140   5.834   5.060  0.0549 -0.2404 -0.2253
    2SAPS  C313  248   5.994   5.924   4.925  0.1143 -0.1833  0.4796
    2SAPS  H13X  249   5.981   6.024   4.971 -1.3904 -1.1404  2.2938
    2SAPS  H13Y  250   5.896   5.908   4.876 -0.6039  0.6734  1.5938
    2SAPS  C314  251   6.102   5.944   4.809  0.5578  0.1461  0.7029
    2SAPS  H14X  252   6.106   5.851   4.749 -0.3785  1.2285 -1.0915
    2SAPS  H14Y  253   6.201   5.963   4.858  0.4601  0.6856  0.6901
    2SAPS  C315  254   6.068   6.062   4.708  0.2287 -0.6778  0.3020
    2SAPS  H15X  255   6.167   6.073   4.659  0.4996 -1.2569  0.6983
    2SAPS  H15Y  256   6.043   6.160   4.754 -1.3015  0.1039 -2.0406
    2SAPS  C316  257   5.949   6.035   4.607 -0.9678  0.0426 -0.0735
    2SAPS  H16X  258   5.973   6.081   4.509  0.4631 -0.1911  0.1510
    2SAPS  H16Y  259   5.860   6.093   4.639 -0.6379  0.4958  0.0365
    2SAPS  C317  260   5.908   5.889   4.581  0.4990  0.7694 -0.1692
    2SAPS  H17X  261   5.880   5.839   4.676 -3.1168  2.2695 -0.2888
    2SAPS  H17Y  262   5.993   5.833   4.537  0.7527  1.8358 -1.0720
    2SAPS  C318  263   5.775   5.873   4.515 -0.0026  0.0640 -0.1968
    2SAPS  H18X  264   5.774   5.896   4.406 -2.5642 -3.3590 -1.0871
    2SAPS  H18Y  265   5.705   5.934   4.575  0.9297 -1.5019  2.6766
    2SAPS  H18Z  266   5.747   5.765   4.518  0.3435 -0.0397 -0.5656
    3SAPS     N  267   4.975   6.132   6.879 -0.2542 -0.0142 -0.1745
    3SAPS   HN1  268   5.038   6.215   6.880  0.8906 -0.8595  0.4937
    3SAPS   HN2  269   4.918   6.127   6.793  2.0654 -0.7833 -1.7602
    3SAPS   HN3  270   4.912   6.134   6.962  0.0675  0.8954  0.0583
    3SAPS   C12  271   5.057   6.007   6.868  0.1781 -0.0353 -0.2820
    3SAPS  H12A  272   5.130   6.027   6.945  1.2252 -1.9467 -0.7253
    3SAPS   C13  273   4.974   5.878   6.904  0.1008 -0.5451  0.0216
    3SAPS  O13A  274   4.856   5.896   6.932  0.5662  0.0604 -0.2887
    3SAPS  O13B  275   5.046   5.780   6.937 -0.2347 -0.7224 -0.0646
    3SAPS   C11  276   5.131   5.997   6.731 -0.2604  0.3261 -0.8875
    3SAPS  H11A  277   5.056   5.962   6.658  0.5179 -1.8618 -0.7239
    3SAPS  H11B  278   5.208   5.917   6.738 -0.6011  0.0161 -0.6927
    3SAPS     P  279   5.323   6.133   6.632  0.1679 -0.0038 -0.0085
    3SAPS   O13  280   5.319   6.259   6.552  0.2414  0.5108 -0.1064
    3SAPS   O14  281   5.432   6.128   6.732 -0.1206 -0.2576  0.3160
    3SAPS   O12  282   5.186   6.122   6.699  0.0491  0.1377 -0.0336
    3SAPS   O11  283   5.334   6.010   6.543 -0.0128 -0.3515 -0.2593
    3SAPS    C1  284   5.262   5.989   6.421 -1.2890  0.9005  0.2732
    3SAPS    HA  285   5.187   5.911   6.445 -0.1835 -1.0953 -2.2819
    3SAPS    HB  286   5.213   6.080   6.379  1.5965  1.9875 -1.0496
    3SAPS    C2  287   5.353   5.936   6.305 -0.4603 -0.0060 -0.3723
    3SAPS    HS  288   5.292   5.881   6.230  0.7802 -0.2463 -1.2327
    3SAPS   O21  289   5.451   5.846   6.351  0.2453 -0.8328  0.2935
    3SAPS   C21  290   5.406   5.734   6.407  0.5573  0.6586 -0.2050
    3SAPS   O22  291   5.292   5.697   6.416  0.0208  0.6342 -0.2206
    3SAPS   C22  292   5.527   5.658   6.473  0.1605  0.0779 -0.7266
    3SAPS   H2R  293   5.615   5.656   6.407  1.5710 -0.1351  1.0724
    3SAPS   H2S  294   5.548   5.722   6.562 -2.6500 -0.0734  0.1488
    3SAPS    C3  295   5.427   6.046   6.224 -0.3426 -0.3247  1.0514
    3SAPS    HX  296   5.481   5.990   6.144 -0.1655 -0.3371  1.1773
    3SAPS    HY  297   5.503   6.089   6.294  0.1601 -1.0568  0.9715
    3SAPS   O31  298   5.338   6.140   6.170  0.1000 -0.1036  0.2546
    3SAPS   C31  299   5.403   6.241   6.128 -0.3860 -0.2147  0.2577
    3SAPS   O32  300   5.522   6.259   6.120  0.1423 -0.5940  0.3156
    3SAPS   C32  301   5.305   6.354   6.098  0.2872  0.0315  0.4818
    3SAPS   H2X  302   5.250   6.386   6.189 -0.9046  1.3992 -0.6822
    3SAPS   H2Y  303   5.241   6.302   6.024  1.3182 -1.1070  0.3445
    3SAPS   C23  304   5.494   5.520   6.525 -0.0004 -0.1376  0.8640
    3SAPS   H3R  305   5.392   5.512   6.569 -0.6027 -1.1140 -0.6220
    3SAPS   H3S  306   5.575   5.505   6.599 -0.5999  0.5855  1.6751
    3SAPS   C24  307   5.504   5.409   6.407  0.0597  0.1661 -0.3247
    3SAPS   H4R  308   5.484   5.455   6.309 -1.3775 -1.6300 -0.9279
    3SAPS   H4S  309   5.430   5.329   6.428 -1.2448  1.4605  0.2080
    3SAPS   C25  310   5.649   5.353   6.418  0.6184 -0.3209  0.1131
    3SAPS   H5R  311   5.665   5.284   6.502 -3.4763 -0.0972  1.2891
    3SAPS   C26  312   5.750   5.381   6.339  0.2551 -0.0372  0.2726
    3SAPS   H6R  313   5.847   5.337   6.365  0.9401  1.1780 -0.1377
    3SAPS   C27  314   5.766   5.478   6.222 -0.2398  0.1475 -0.6353
    3SAPS   H7R  315   5.663   5.506   6.189 -1.4035 -1.5310  1.3226
    3SAPS   H7S  316   5.825   5.428   6.142  1.1222  1.2267 -0.3195
    3SAPS   C28  317   5.848   5.597   6.260  0.4495  0.3120 -1.1893
    3SAPS   H8R  318   5.911   5.571   6.346 -0.7286  0.2450 -0.3199
    3SAPS   C29  319   5.858   5.720   6.201  0.9899 -0.0690  0.2519
    3SAPS   H9R  320   5.911   5.803   6.251  2.7156 -1.3132  0.5589
    3SAPS  C210  321   5.793   5.757   6.066  0.4020  0.1154  0.0729
    3SAPS  H10R  322   5.821   5.679   5.992  1.7018 -0.7723  1.4710
    3SAPS  H10S  323   5.832   5.855   6.030 -0.6120 -1.0491 -5.0626
    3SAPS  C211  324   5.639   5.764   6.055 -0.7755  0.0322  0.4443
    3SAPS  H11R  325   5.589   5.725   6.145 -0.4550 -2.6188 -0.4544
    3SAPS  C212  326   5.565   5.827   5.962 -0.2561 -0.3708 -0.7928
    3SAPS  H12R  327   5.456   5.822   5.976 -0.3094 -0.2477 -1.1534
    3SAPS  C213  328   5.612   5.893   5.839  0.4116  0.9859  0.0872
    3SAPS  H13R  329   5.535   5.862   5.765 -0.2768  0.9508  0.8117
    3SAPS  H13S  330   5.715   5.859   5.816  0.2445 -0.2038  1.0232
    3SAPS  C214  331   5.607   6.042   5.838 -0.5482 -0.4679  0.4536
    3SAPS  H14R  332   5.631   6.098   5.929 -1.6169 -1.1314  1.1697
    3SAPS  C215  333   5.576   6.108   5.726  0.5086  0.5525 -0.0912
    3SAPS  H15R  334   5.583   6.218   5.729  0.7063  0.5796 -1.1712
    3SAPS  C216  335   5.536   6.054   5.584  0.6378 -0.2345 -0.2970
    3SAPS  H16R  336   5.429   6.074   5.564  0.7521  1.4022  0.5977
    3SAPS  H16S  337   5.545   5.943   5.584 -0.8411 -0.4072  1.6344
    3SAPS  C217  338   5.613   6.121   5.468 -0.5358 -0.6532  0.3265
    3SAPS  H17R  339   5.722   6.107   5.481 -0.4531 -0.5979 -0.2955
    3SAPS  H17S  340   5.599   6.231   5.456  0.7056 -0.2630  2.1417
    3SAPS  C218  341   5.576   6.063   5.327 -0.5383 -0.3652 -0.4136
    3SAPS  H18R  342   5.465   6.064   5.324 -0.5925  2.3344 -0.1647
    3SAPS  H18S  343   5.616   5.960   5.321 -0.5114 -0.3724 -0.1356
    3SAPS  C219  344   5.637   6.133   5.206 -0.4054 -0.3341 -0.2663
    3SAPS  H19R  345   5.581   6.228   5.192 -1.7275 -0.7971  1.5259
    3SAPS  H19S  346   5.743   6.150   5.235 -0.0746  0.2946 -1.7231
    3SAPS  C220  347   5.641   6.049   5.082  0.4854 -0.0143  0.1854
    3SAPS  H20R  348   5.676   6.116   5.000 -1.2243  2.1320  1.0926
    3SAPS  H20S  349   5.546   6.001   5.050  0.5249  1.2717 -2.0793
    3SAPS  H20T  350   5.721   5.975   5.099  1.9784  1.5808  0.3627
    3SAPS   C33  351   5.387   6.474   6.033  0.6304 -0.0625 -0.3436
    3SAPS   H3X  352   5.419   6.424   5.939 -0.7164  2.0194 -1.9949
    3SAPS   H3Y  353   5.479   6.497   6.090  1.4919  0.5981 -1.9403
    3SAPS   C34  354   5.306   6.597   6.005  0.9127  0.1259 -0.1007
    3SAPS   H4X  355   5.287   6.655   6.098  2.0986  0.5443 -0.1031
    3SAPS   H4Y  356   5.203   6.572   5.973  0.1211  0.1634  2.2203
    3SAPS   C35  357   5.381   6.688   5.903  0.3035  0.0688 -0.2918
    3SAPS   H5X  358   5.465   6.742   5.952 -0.2808 -0.2022  1.0627
    3SAPS   H5Y  359   5.429   6.621   5.828  0.1035  0.6165 -0.9135
    3SAPS   C36  360   5.288   6.786   5.832 -0.5332  0.0526 -0.5683
    3SAPS   H6X  361   5.262   6.865   5.906  2.1536  1.5482 -1.1021
    3SAPS   H6Y  362   5.193   6.733   5.806 -1.3781  0.3255  1.6732
    3SAPS   C37  363   5.351   6.870   5.717  0.3302 -0.1430 -0.2214
    3SAPS   H7X  364   5.430   6.936   5.757  1.0226 -1.1360  0.1028
    3SAPS   H7Y  365   5.276   6.941   5.676 -0.6326 -0.9255  0.1531
    3SAPS   C38  366   5.399   6.798   5.590  0.3289 -0.0099  0.8284
    3SAPS   H8X  367   5.326   6.726   5.549  1.5835 -0.6856 -0.2929
    3SAPS   H8Y  368   5.482   6.733   5.625  0.0745  0.9157  3.3740
    3SAPS   C39  369   5.443   6.894   5.480  0.1743 -0.1225 -0.5070
    3SAPS   H9X  370   5.473   6.987   5.533 -1.5048  0.1047  0.0989
    3SAPS   H9Y  371   5.348   6.929   5.434  1.5348  2.1476 -1.8294
    3SAPS  C310  372   5.542   6.852   5.380 -0.3199 -0.3025  0.1123
    3SAPS  H10X  373   5.533   6.914   5.288 -0.9053 -1.2442 -0.4811
    3SAPS  H10Y  374   5.542   6.746   5.347  2.8321  0.0972 -1.5903
    3SAPS  C311  375   5.690   6.869   5.430  0.0302  0.8555  0.1435
    3SAPS  H11X  376   5.693   6.835   5.535  0.0610 -0.8244 -0.3849
    3SAPS  H11Y  377   5.706   6.979   5.439  1.6775  0.6218  0.3269
    3SAPS  C312  378   5.800   6.803   5.348  0.0643  0.0395  0.3652
    3SAPS  H12X  379   5.787   6.693   5.355  1.5615 -0.1048  1.3655
    3SAPS  H12Y  380   5.897   6.826   5.397  0.3687 -0.1541 -0.1409
    3SAPS  C313  381   5.815   6.842   5.202  0.0904 -0.1367  0.6295
    3SAPS  H13X  382   5.918   6.879   5.179 -0.0917 -1.9840 -4.3939
    3SAPS  H13Y  383   5.740   6.923   5.190 -0.9009 -1.1198  0.1424
    3SAPS  C314  384   5.790   6.735   5.095  0.3957 -0.4597  0.4509
    3SAPS  H14X  385   5.689   6.692   5.111  0.1198  0.6844  2.0326
    3SAPS  H14Y  386   5.862   6.651   5.101 -0.2285 -0.9224  1.5701
    3SAPS  C315  387   5.796   6.793   4.951 -0.4230  0.0814  0.1842
    3SAPS  H15X  388   5.745   6.730   4.875 -1.0345  1.6402 -0.7327
    3SAPS  H15Y  389   5.904   6.796   4.924 -1.0144  0.1195 -2.4428
    3SAPS  C316  390   5.741   6.927   4.941 -0.0440  0.0814  0.4689
    3SAPS  H16X  391   5.810   6.997   4.994 -1.2961 -0.5518  3.1139
    3SAPS  H16Y  392   5.643   6.931   4.994  0.5323  0.1536  1.5538
    3SAPS  C317  393   5.714   6.977   4.795  0.1195  0.5294  0.2910
    3SAPS  H17X  394   5.653   6.909   4.732 -0.0255 -0.8735  1.8626
    3SAPS  H17Y  395   5.807   6.980   4.735 -0.0342  1.2413  0.0764
    3SAPS  C318  396   5.652   7.120   4.798  0.6691 -0.2042  0.4191
    3SAPS  H18X  397   5.704   7.188   4.868  1.1053 -1.0748  0.9640
    3SAPS  H18Y  398   5.545   7.116   4.826  0.2181 -4.1392 -1.1874
    3SAPS  H18Z  399   5.664   7.160   4.695 -3.1951  1.7587  0.5723
    4SAPS     N  400   4.426   4.334   6.781  0.0027  0.5145  0.2689
    4SAPS   HN1  401   4.399   4.383   6.868 -3.3507 -0.7735  0.0899
    4SAPS   HN2  402   4.514   4.281   6.796  1.8163  3.3977  0.6311
    4SAPS   HN3  403   4.447   4.403   6.706  1.9752 -0.9801 -0.6499
    4SAPS   C12  404   4.305   4.249   6.741 -0.1544 -0.0812  0.3132
    4SAPS  H12A  405   4.287   4.184   6.826  1.2918 -0.6850  0.1973
    4SAPS   C13  406   4.183   4.333   6.706 -0.3679  0.1227  0.4724
    4SAPS  O13A  407   4.187   4.457   6.730  0.8853 -0.1119 -0.4171
    4SAPS  O13B  408   4.076   4.271   6.679 -0.1825 -0.0736  0.8102
    4SAPS   C11  409   4.354   4.164   6.618 -0.0908  0.2658 -0.3558
    4SAPS  H11A  410   4.395   4.232   6.541  1.2617 -0.8979 -0.7025
    4SAPS  H11B  411   4.260   4.126   6.573  0.5565  0.9829 -2.4226
    4SAPS     P  412   4.543   3.995   6.547 -0.3222  0.0143 -0.4203
    4SAPS   O13  413   4.629   4.111   6.508 -0.5526  0.5131  0.1381
    4SAPS   O14  414   4.602   3.871   6.612 -0.3410 -0.6231  0.3698
    4SAPS   O12  415   4.438   4.060   6.644  0.2701  0.7710  0.2450
    4SAPS   O11  416   4.462   3.949   6.421  0.1669  0.6879  0.3805
    4SAPS    C1  417   4.355   3.850   6.429 -0.4514 -0.3202 -0.5734
    4SAPS    HA  418   4.330   3.827   6.535 -0.7408 -0.2630 -0.6293
    4SAPS    HB  419   4.261   3.882   6.380 -2.1854 -2.2355  1.3266
    4SAPS    C2  420   4.392   3.720   6.355  0.0921  0.4948 -0.1022
    4SAPS    HS  421   4.495   3.681   6.375 -0.5058 -1.9364 -1.4102
    4SAPS   O21  422   4.387   3.744   6.211 -0.2056  0.2718 -0.3530
    4SAPS   C21  423   4.417   3.645   6.129  0.0101 -0.2463 -0.3195
    4SAPS   O22  424   4.454   3.534   6.165  0.7613 -0.1045  0.2217
    4SAPS   C22  425   4.380   3.681   5.984 -0.2189  0.4335  0.3694
    4SAPS   H2R  426   4.277   3.724   5.984 -0.9633 -1.1845 -1.7891
    4SAPS   H2S  427   4.452   3.759   5.951  0.1729  0.3582  1.0215
    4SAPS    C3  428   4.301   3.604   6.410  0.3689  0.2129 -0.3372
    4SAPS    HX  429   4.309   3.616   6.520  1.1390 -0.4408 -0.3096
    4SAPS    HY  430   4.334   3.502   6.380  1.4898 -0.6881  3.3463
    4SAPS   O31  431   4.157   3.630   6.382  0.6517 -0.4557  0.2150
    4SAPS   C31  432   4.074   3.516   6.404  0.1747  0.1927 -0.0836
    4SAPS   O32  433   4.115   3.413   6.457 -0.1395 -0.7000  0.4533
    4SAPS   C32  434   3.944   3.539   6.324 -0.4123 -0.3407  0.2825
    4SAPS   H2X  435   3.958   3.631   6.263 -0.5560  0.5395  1.5381
    4SAPS   H2Y  436   3.863   3.565   6.395 -0.6110  2.7048 -0.9169
    4SAPS   C23  437   4.377   3.557   5.894  0.2518 -0.5174  0.7458
    4SAPS   H3R  438   4.319   3.483   5.952  0.7644  0.0906  2.0881
    4SAPS   H3S  439   4.480   3.521   5.872 -0.3137 -1.0505 -1.2445
    4SAPS   C24  440   4.296   3.593   5.770  0.3445  0.2762  0.6587
    4SAPS   H4R  441   4.212   3.664   5.784  0.8188  0.9576  0.1296
    4SAPS   H4S  442   4.255   3.498   5.730  2.1025 -0.3726  0.2872
    4SAPS   C25  443   4.383   3.655   5.667 -0.4163  0.4643  0.1265
    4SAPS   H5R  444   4.376   3.765   5.668 -0.2525  0.5010 -1.0486
    4SAPS   C26  445   4.466   3.603   5.573  0.4094 -0.6108  0.4152
    4SAPS   H6R  446   4.532   3.674   5.520  1.5759 -0.6557  1.7259
    4SAPS   C27  447   4.499   3.465   5.557 -0.6723 -0.9091 -0.0281
    4SAPS   H7R  448   4.520   3.424   5.658 -2.6482  0.6951  1.1029
    4SAPS   H7S  449   4.601   3.468   5.512 -1.1312  1.6266 -1.0527
    4SAPS   C28  450   4.408   3.367   5.482  0.1599  0.5880  0.0860
    4SAPS   H8R  451   4.365   3.288   5.545  0.7557 -0.2698 -0.5547
    4SAPS   C29  452   4.375   3.367   5.354 -0.4945 -0.6073  0.1002
    4SAPS   H9R  453   4.329   3.280   5.305 -0.9327  0.2131 -0.9901
    4SAPS  C210  454   4.437   3.454   5.247  0.0604 -0.0642  0.2231
    4SAPS  H10R  455   4.431   3.560   5.283  1.0104  0.3880 -0.8899
    4SAPS  H10S  456   4.366   3.454   5.162 -1.4317  0.0269  1.4131
    4SAPS  C211  457   4.578   3.423   5.210  0.3604 -0.4910  0.5060
    4SAPS  H11R  458   4.647   3.386   5.288  0.3188  1.0443  1.3305
    4SAPS  C212  459   4.628   3.433   5.091 -0.2898 -0.4783  1.4239
    4SAPS  H12R  460   4.733   3.401   5.088 -0.2399 -0.2779  1.0113
    4SAPS  C213  461   4.554   3.463   4.962 -0.3356 -0.0183 -0.4006
    4SAPS  H13R  462   4.483   3.549   4.963 -0.6926 -0.3157  0.1797
    4SAPS  H13S  463   4.479   3.381   4.957 -1.1740  0.6765  0.3110
    4SAPS  C214  464   4.635   3.493   4.831  0.1943  0.0191 -0.2254
    4SAPS  H14R  465   4.714   3.569   4.835  0.5541 -0.4063  1.3614
    4SAPS  C215  466   4.611   3.425   4.717  0.6058 -0.3283  0.6783
    4SAPS  H15R  467   4.667   3.446   4.625 -0.0656 -0.8346  0.1425
    4SAPS  C216  468   4.508   3.315   4.706 -0.5365 -0.0209  0.6062
    4SAPS  H16R  469   4.412   3.371   4.701  0.7793  2.2627 -0.9028
    4SAPS  H16S  470   4.518   3.248   4.794 -1.8016 -0.3941  0.4876
    4SAPS  C217  471   4.514   3.244   4.572  0.4386 -0.8843 -0.6460
    4SAPS  H17R  472   4.521   3.318   4.489 -0.6921 -0.2868 -0.2336
    4SAPS  H17S  473   4.424   3.180   4.565  0.1728 -0.6801  0.6563
    4SAPS  C218  474   4.634   3.152   4.570 -0.6145 -0.5820  0.1933
    4SAPS  H18R  475   4.611   3.051   4.530  1.3436 -0.8678 -0.3673
    4SAPS  H18S  476   4.669   3.133   4.674  1.7662  0.2819 -0.3669
    4SAPS  C219  477   4.751   3.200   4.480 -0.2192  0.0122 -0.7292
    4SAPS  H19R  478   4.794   3.294   4.520  1.4405 -0.6045 -0.9820
    4SAPS  H19S  479   4.692   3.222   4.389 -2.5947 -2.0256  0.1967
    4SAPS  C220  480   4.866   3.097   4.459 -0.0401  0.2263  1.0111
    4SAPS  H20R  481   4.836   3.026   4.379 -1.4126  1.8119  0.0394
    4SAPS  H20S  482   4.894   3.050   4.555 -0.7100 -3.3690 -0.3728
    4SAPS  H20T  483   4.960   3.144   4.426  0.5266 -0.6864  1.2869
    4SAPS   C33  484   3.903   3.422   6.236  0.3211 -0.3754  0.3310
    4SAPS   H3X  485   3.793   3.427   6.222 -0.1116  0.4903  3.3407
    4SAPS   H3Y  486   3.930   3.324   6.279  1.8025  0.0142  0.3552
    4SAPS   C34  487   3.973   3.445   6.106  0.2719 -0.4244 -0.0001
    4SAPS   H4X  488   4.080   3.469   6.124 -0.1234  1.3345  0.1540
    4SAPS   H4Y  489   3.930   3.539   6.066 -0.2259 -0.9148 -0.6349
    4SAPS   C35  490   3.955   3.325   6.012  0.5822 -0.7535  0.3496
    4SAPS   H5X  491   3.849   3.302   5.989  0.6012  0.1431 -0.7424
    4SAPS   H5Y  492   3.984   3.225   6.050  1.8242 -1.0827 -1.3417
    4SAPS   C36  493   4.023   3.354   5.873 -0.0550 -0.1714 -0.0038
    4SAPS   H6X  494   4.130   3.378   5.890  0.1310 -0.0242 -1.3044
    4SAPS   H6Y  495   3.976   3.448   5.839  3.0480  0.7404 -2.2299
    4SAPS   C37  496   4.007   3.246   5.756 -0.2496  0.0238  0.6215
    4SAPS   H7X  497   3.910   3.200   5.785 -1.8756  2.9487  0.1960
    4SAPS   H7Y  498   4.089   3.174   5.777  0.9279  1.2815  0.4534
    4SAPS   C38  499   4.008   3.299   5.612  0.6860 -0.0201  1.0652
    4SAPS   H8X  500   4.098   3.363   5.602 -1.1568  2.4451 -1.5881
    4SAPS   H8Y  501   3.938   3.383   5.591  1.9358  0.3098 -2.3367
    4SAPS   C39  502   4.006   3.198   5.499 -0.1175  0.4945 -0.1223
    4SAPS   H9X  503   3.916   3.134   5.503  0.1255  0.0633 -1.4285
    4SAPS   H9Y  504   4.098   3.136   5.503 -0.8244 -0.6219 -0.7155
    4SAPS  C310  505   4.005   3.273   5.367 -1.1431 -0.1209  0.3834
    4SAPS  H10X  506   4.097   3.334   5.359 -0.7771  0.0927  4.3138
    4SAPS  H10Y  507   3.913   3.336   5.360 -1.6807 -1.0087 -1.0691
    4SAPS  C311  508   3.997   3.174   5.249  0.6324  0.5629  0.4241
    4SAPS  H11X  509   3.903   3.115   5.248  0.2077  1.1128  2.6230
    4SAPS  H11Y  510   4.084   3.106   5.240  1.6521  1.9493 -0.6211
    4SAPS  C312  511   4.000   3.247   5.109 -0.2070 -0.4138 -0.0630
    4SAPS  H12X  512   3.932   3.335   5.110  1.5341  1.0007 -0.4781
    4SAPS  H12Y  513   3.954   3.184   5.031 -2.3876  0.1301  0.7135
    4SAPS  C313  514   4.146   3.283   5.054  0.0641  0.0490  0.4371
    4SAPS  H13X  515   4.206   3.189   5.054  0.5517  0.2687  3.5082
    4SAPS  H13Y  516   4.189   3.347   5.133 -0.1766  0.6924  0.0533
    4SAPS  C314  517   4.132   3.335   4.911 -0.2428 -0.1889 -0.2524
    4SAPS  H14X  518   4.231   3.369   4.874  0.1990  2.1497  2.6423
    4SAPS  H14Y  519   4.073   3.429   4.909  1.3303  0.8067 -1.8273
    4SAPS  C315  520   4.099   3.221   4.813 -0.5492  0.4636 -0.2674
    4SAPS  H15X  521   3.994   3.192   4.834 -0.3233  0.2339  0.5604
    4SAPS  H15Y  522   4.162   3.130   4.824 -2.3586 -1.1594 -2.2766
    4SAPS  C316  523   4.122   3.256   4.662 -0.0838  0.1703  0.4980
    4SAPS  H16X  524   4.218   3.309   4.648 -0.7938  2.4694  3.2964
    4SAPS  H16Y  525   4.041   3.320   4.619 -0.1177 -1.0721 -1.4206
    4SAPS  C317  526   4.112   3.130   4.571  0.3879 -0.2964 -0.0769
    4SAPS  H17X  527   4.010   3.087   4.580  0.4844 -0.9336 -1.8107
    4SAPS  H17Y  528   4.191   3.060   4.605  0.8112  0.5876  0.8419
    4SAPS  C318  529   4.131   3.166   4.425 -0.3792 -0.0991 -0.3868
    4SAPS  H18X  530   4.227   3.221   4.412 -0.7610  0.4283 -1.0986
    4SAPS  H18Y  531   4.051   3.237   4.394 -0.4723  1.5154  3.0480
    4SAPS  H18Z  532   4.130   3.073   4.364  4.4378 -0.8610  0.3013
    5SAPS     N  533   6.576   5.561   7.060 -0.3564 -0.6131  0.3194
    5SAPS   HN1  534   6.541   5.575   7.157  0.7463 -1.0757  0.7948
    5SAPS   HN2  535   6.632   5.645   7.036 -0.4618  0.0539  2.2625
    5SAPS   HN3  536   6.493   5.549   6.999  0.7864 -1.8643 -1.0560
    5SAPS   C12  537   6.665   5.441   7.070  0.7592  0.9994 -0.1910
    5SAPS  H12A  538   6.747   5.441   7.141  0.1380 -2.8418  0.7743
    5SAPS   C13  539   6.588   5.323   7.131  0.7004 -0.2911  0.8807
    5SAPS  O13A  540   6.461   5.329   7.155 -0.4648  0.1534  0.1257
    5SAPS  O13B  541   6.660   5.227   7.168  0.3373 -0.1046  0.1746
    5SAPS   C11  542   6.722   5.406   6.924  0.2862  0.1118  0.4991
    5SAPS  H11A  543   6.635   5.389   6.858 -0.0780 -1.7655  1.3816
    5SAPS  H11B  544   6.780   5.311   6.926  1.9181  1.0370 -0.6056
    5SAPS     P  545   6.955   5.502   6.916  0.0261  0.1045 -0.5520
    5SAPS   O13  546   7.031   5.623   6.904  0.1504  0.0015 -0.3963
    5SAPS   O14  547   6.971   5.437   7.052  0.1046 -0.4820 -0.3394
    5SAPS   O12  548   6.805   5.515   6.883  0.2092 -0.4385 -0.9133
    5SAPS   O11  549   7.006   5.395   6.811  0.6273 -0.3877  0.0638
    5SAPS    C1  550   7.048   5.432   6.679 -0.4551  0.0225  0.3587
    5SAPS    HA  551   7.131   5.506   6.691  0.9943 -1.3289 -0.8285
    5SAPS    HB  552   7.100   5.345   6.633 -2.2679 -0.6406 -0.4884
    5SAPS    C2  553   6.944   5.485   6.582 -1.1679 -0.3673  0.6766
    5SAPS    HS  554   6.904   5.580   6.624  0.4920  0.5951  0.1483
    5SAPS   O21  555   6.844   5.378   6.572  0.3255 -0.0804 -0.5096
    5SAPS   C21  556   6.717   5.427   6.552 -0.0254  0.0742  0.0355
    5SAPS   O22  557   6.696   5.547   6.538  0.5431 -0.0367  0.2988
    5SAPS   C22  558   6.617   5.317   6.557 -0.4292  0.6162 -0.1003
    5SAPS   H2R  559   6.637   5.263   6.462 -2.7353  0.3764 -0.5205
    5SAPS   H2S  560   6.638   5.240   6.633 -2.4131  0.0851 -0.0325
    5SAPS    C3  561   7.001   5.505   6.443  0.1397  0.2372  0.0489
    5SAPS    HX  562   7.039   5.410   6.399  0.5664 -0.1625  1.2592
    5SAPS    HY  563   7.090   5.569   6.462  1.0220 -0.8234 -0.3746
    5SAPS   O31  564   6.903   5.568   6.354  0.1607  0.4280 -0.3621
    5SAPS   C31  565   6.843   5.481   6.271  0.0762 -0.2366 -0.1432
    5SAPS   O32  566   6.886   5.374   6.243 -0.0416 -0.2698 -0.2790
    5SAPS   C32  567   6.718   5.556   6.220 -0.1340  0.7048  0.2102
    5SAPS   H2X  568   6.678   5.621   6.300 -1.6637 -0.8951  0.8269
    5SAPS   H2Y  569   6.630   5.489   6.211 -2.1261  3.0089  1.4031
    5SAPS   C23  570   6.472   5.373   6.545  0.6848  0.2616 -0.2761
    5SAPS   H3R  571   6.459   5.437   6.455  0.2063  1.2693  0.4890
    5SAPS   H3S  572   6.456   5.443   6.630 -2.9590 -1.3079  0.5153
    5SAPS   C24  573   6.356   5.273   6.548  0.1423  0.5061 -0.7258
    5SAPS   H4R  574   6.368   5.209   6.638 -0.5738 -0.3301 -1.2051
    5SAPS   H4S  575   6.355   5.211   6.456  0.8777  1.2098 -1.2150
    5SAPS   C25  576   6.223   5.338   6.544  0.2306 -0.1932 -0.3405
    5SAPS   H5R  577   6.194   5.383   6.640 -0.4583 -1.7813  0.2268
    5SAPS   C26  578   6.139   5.360   6.439 -0.1181 -0.4147 -0.0107
    5SAPS   H6R  579   6.053   5.426   6.459  1.0099  0.7958  1.0494
    5SAPS   C27  580   6.174   5.304   6.301  0.0969  0.5847 -1.2755
    5SAPS   H7R  581   6.284   5.300   6.288  0.5145 -1.7571  1.9282
    5SAPS   H7S  582   6.141   5.379   6.226  1.5653  0.9608 -1.5637
    5SAPS   C28  583   6.126   5.158   6.282 -0.2116  0.0138  0.2442
    5SAPS   H8R  584   6.190   5.084   6.333 -1.5268 -0.6054  1.0796
    5SAPS   C29  585   6.043   5.105   6.192  0.1405  0.2288 -0.4079
    5SAPS   H9R  586   6.045   4.996   6.196  3.4433  0.2218  2.4458
    5SAPS  C210  587   5.959   5.173   6.088  0.1977 -0.4701  0.1155
    5SAPS  H10R  588   5.964   5.283   6.101  1.9264 -0.3933 -0.8993
    5SAPS  H10S  589   5.852   5.145   6.088 -0.5034  1.9130 -1.4756
    5SAPS  C211  590   6.000   5.126   5.953  0.4032  0.4027 -0.4431
    5SAPS  H11R  591   6.021   5.020   5.932 -2.4765 -0.5086  0.7232
    5SAPS  C212  592   6.000   5.206   5.846  0.5523  0.3981  0.8445
    5SAPS  H12R  593   6.020   5.157   5.750  2.3082 -2.9206  2.7023
    5SAPS  C213  594   5.966   5.353   5.831 -0.6446 -0.4968 -0.4760
    5SAPS  H13R  595   5.998   5.400   5.926  3.3925 -2.6415 -0.5407
    5SAPS  H13S  596   5.856   5.361   5.818 -0.6037 -1.9521 -2.0914
    5SAPS  C214  597   6.038   5.428   5.722  0.7329  0.5568  1.0694
    5SAPS  H14R  598   6.123   5.492   5.751  1.9715  0.0225 -1.1873
    5SAPS  C215  599   6.008   5.410   5.589  0.3521  0.0593  0.4750
    5SAPS  H15R  600   6.053   5.466   5.505 -1.2934  0.2729 -0.3170
    5SAPS  C216  601   5.907   5.302   5.543 -0.6347 -0.0080 -0.0773
    5SAPS  H16R  602   5.845   5.360   5.472 -2.3452 -2.6997 -0.9308
    5SAPS  H16S  603   5.843   5.269   5.628 -0.3856  3.0116  1.4062
    5SAPS  C217  604   5.967   5.186   5.469 -0.2804  0.1024  0.2189
    5SAPS  H17R  605   5.888   5.112   5.443 -2.0577  1.4860  1.4122
    5SAPS  H17S  606   6.035   5.134   5.540  0.2596  1.1379  0.4675
    5SAPS  C218  607   6.046   5.219   5.343 -0.0632 -0.1693  0.6398
    5SAPS  H18R  608   6.115   5.132   5.328 -1.4494 -1.1121 -0.5356
    5SAPS  H18S  609   6.108   5.311   5.345 -0.0419 -0.1706  2.8789
    5SAPS  C219  610   5.945   5.213   5.224  0.7986 -0.5931 -0.3403
    5SAPS  H19R  611   5.891   5.310   5.235 -0.1292 -1.3497  2.4883
    5SAPS  H19S  612   5.869   5.134   5.237 -2.2347  2.1697  0.2165
    5SAPS  C220  613   6.019   5.203   5.089  0.1839 -0.3514  0.0034
    5SAPS  H20R  614   5.941   5.192   5.011  0.1180  1.3665 -0.2209
    5SAPS  H20S  615   6.083   5.113   5.086 -0.8305 -1.1345  1.0873
    5SAPS  H20T  616   6.074   5.296   5.061 -2.1519  1.2237  0.3798
    5SAPS   C33  617   6.743   5.629   6.091 -0.5383 -0.1990  0.2931
    5SAPS   H3X  618   6.841   5.680   6.091 -1.7074  2.2905  2.2370
    5SAPS   H3Y  619   6.661   5.704   6.088 -1.4328 -1.0733  1.4985
    5SAPS   C34  620   6.727   5.536   5.963 -0.0821 -0.0692 -0.4141
    5SAPS   H4X  621   6.620   5.506   5.964 -0.8867  2.2338  3.4962
    5SAPS   H4Y  622   6.780   5.441   5.984 -1.1952 -0.7453 -0.5857
    5SAPS   C35  623   6.761   5.613   5.832  0.5365 -0.7711 -0.3722
    5SAPS   H5X  624   6.718   5.715   5.835 -1.1570 -1.4468  2.5476
    5SAPS   H5Y  625   6.711   5.554   5.751 -0.2795 -0.7741  0.1314
    5SAPS   C36  626   6.913   5.606   5.813 -0.3367  0.3273  0.6385
    5SAPS   H6X  627   6.950   5.503   5.834  1.0049  0.5380 -0.5356
    5SAPS   H6Y  628   6.967   5.674   5.882  0.6739  0.1415  0.0486
    5SAPS   C37  629   6.960   5.638   5.671 -0.7404 -0.5858  0.7053
    5SAPS   H7X  630   7.071   5.647   5.672 -0.8933  1.9669  0.6299
    5SAPS   H7Y  631   6.918   5.735   5.638  1.0702 -0.5091 -1.7485
    5SAPS   C38  632   6.908   5.552   5.560 -0.6584  0.0874 -0.3556
    5SAPS   H8X  633   6.806   5.511   5.575 -0.5474 -0.1351 -0.1989
    5SAPS   H8Y  634   6.984   5.470   5.559  0.9929  1.5468 -2.0048
    5SAPS   C39  635   6.922   5.611   5.420  0.6380 -0.1661 -0.0228
    5SAPS   H9X  636   7.023   5.655   5.405  0.7178 -1.4264 -4.6787
    5SAPS   H9Y  637   6.851   5.694   5.401  0.0103 -1.1959 -2.6132
    5SAPS  C310  638   6.904   5.520   5.300  0.0679 -0.6641  0.0361
    5SAPS  H10X  639   6.855   5.587   5.226 -1.5798 -1.9371 -0.0883
    5SAPS  H10Y  640   6.833   5.438   5.323 -0.5781 -1.0727 -3.0168
    5SAPS  C311  641   7.037   5.460   5.244 -0.3413  0.0982 -0.1606
    5SAPS  H11X  642   7.084   5.420   5.336 -0.2030  1.0900  0.2089
    5SAPS  H11Y  643   7.104   5.541   5.207  1.6692 -1.6388 -0.5166
    5SAPS  C312  644   7.011   5.349   5.134  0.3081 -0.1620  0.0670
    5SAPS  H12X  645   6.965   5.262   5.185  0.8484  0.3527  1.4797
    5SAPS  H12Y  646   7.108   5.318   5.089  0.7397 -0.0653  0.9006
    5SAPS  C313  647   6.905   5.371   5.018  0.2632 -0.6219 -0.9166
    5SAPS  H13X  648   6.810   5.410   5.061  0.3179 -1.6520  0.1851
    5SAPS  H13Y  649   6.876   5.275   4.971 -1.0034 -0.4131 -0.5993
    5SAPS  C314  650   6.963   5.466   4.916  0.3140 -0.4053  0.3705
    5SAPS  H14X  651   7.066   5.432   4.895 -0.2560 -1.6170 -0.5622
    5SAPS  H14Y  652   6.970   5.568   4.960 -1.9429 -0.4644  1.0277
    5SAPS  C315  653   6.888   5.463   4.779  0.6172 -0.0119 -0.1810
    5SAPS  H15X  654   6.779   5.443   4.794  0.9633 -0.9558  1.2717
    5SAPS  H15Y  655   6.924   5.373   4.725  1.7033  0.1849  0.2025
    5SAPS  C316  656   6.912   5.587   4.693 -0.2938  0.1195 -0.4742
    5SAPS  H16X  657   6.903   5.684   4.746 -0.7600  0.4896 -1.2240
    5SAPS  H16Y  658   6.829   5.588   4.619 -0.3766 -0.4934 -0.4007
    5SAPS  C317  659   7.028   5.574   4.587  0.3467 -0.1685  0.0543
    5SAPS  H17X  660   7.037   5.477   4.535  0.1176 -0.8791  1.3069
    5SAPS  H17Y  661   7.120   5.577   4.650 -0.0118  1.0873  0.5633
    5SAPS  C318  662   7.035   5.686   4.480  0.5313 -0.4645  0.8358
    5SAPS  H18X  663   7.003   5.784   4.522  1.9985  0.7485 -0.7541
    5SAPS  H18Y  664   6.969   5.667   4.393 -1.3033  3.0283  1.2927
    5SAPS  H18Z  665   7.133   5.701   4.430 -0.5673  1.8098 -0.8162
    6SAPS     N  666   2.822   5.356   6.977  0.1713  0.6675 -0.5851
    6SAPS   HN1  667   2.878   5.441   6.957 -1.8137  2.1551 -0.0406
    6SAPS   HN2  668   2.842   5.325   7.074  0.1965  3.1486  0.2539
    6SAPS   HN3  669   2.836   5.273   6.915 -1.5702  0.0384 -0.1790
    6SAPS   C12  670   2.677   5.375   6.963 -0.0059 -0.0311 -0.7407
    6SAPS  H12A  671   2.630   5.291   7.012  0.9573 -0.6930 -0.9054
    6SAPS   C13  672   2.627   5.497   7.050  0.1453  0.8277 -0.1435
    6SAPS  O13A  673   2.698   5.576   7.114  0.3036 -0.0947 -0.2026
    6SAPS  O13B  674   2.504   5.514   7.043  0.6917 -0.2523  0.1335
    6SAPS   C11  675   2.644   5.398   6.816 -0.1179 -0.4549  0.7580
    6SAPS  H11A  676   2.690   5.487   6.768 -0.0485 -1.5098 -1.2390
    6SAPS  H11B  677   2.538   5.431   6.810 -0.8241 -2.3665  1.8461
    6SAPS     P  678   2.557   5.168   6.720  0.1210 -0.3228 -0.2746
    6SAPS   O13  679   2.632   5.050   6.667  0.5808  0.4923  0.5022
    6SAPS   O14  680   2.490   5.149   6.851  0.0648 -0.4245  0.0013
    6SAPS   O12  681   2.670   5.279   6.738 -1.0014 -0.4729 -0.2029
    6SAPS   O11  682   2.465   5.222   6.616 -0.5618  0.7499 -0.2066
    6SAPS    C1  683   2.513   5.278   6.490  0.4075 -0.0835 -0.5299
    6SAPS    HA  684   2.445   5.362   6.464  1.3098  1.1531  0.9061
    6SAPS    HB  685   2.607   5.337   6.499  0.5541 -0.4188  0.2338
    6SAPS    C2  686   2.522   5.178   6.373  1.3813 -0.1089 -0.1310
    6SAPS    HS  687   2.612   5.115   6.384 -0.2009 -2.4890 -0.1148
    6SAPS   O21  688   2.517   5.248   6.254 -0.1027 -0.1819  1.0198
    6SAPS   C21  689   2.630   5.288   6.199  0.9775  0.9138 -0.8256
    6SAPS   O22  690   2.732   5.288   6.263 -0.2096 -0.1957  0.8428
    6SAPS   C22  691   2.617   5.326   6.053 -0.3071  0.0847  0.1490
    6SAPS   H2R  692   2.572   5.237   6.004 -1.3895 -0.9507  2.8582
    6SAPS   H2S  693   2.543   5.409   6.045 -1.3558 -0.8408 -0.1112
    6SAPS    C3  694   2.407   5.077   6.365 -0.1652  0.8870  0.0411
    6SAPS    HX  695   2.314   5.131   6.394  0.6283  1.1540  2.2724
    6SAPS    HY  696   2.407   5.005   6.450 -3.7980 -0.8379 -1.2218
    6SAPS   O31  697   2.398   5.015   6.236 -0.2190  0.9253  0.3555
    6SAPS   C31  698   2.493   4.925   6.212  0.1693  0.3400  0.0644
    6SAPS   O32  699   2.582   4.894   6.284  0.1002  0.3930 -0.1681
    6SAPS   C32  700   2.450   4.842   6.088 -0.0396 -0.2723  0.3455
    6SAPS   H2X  701   2.342   4.817   6.104 -0.1053 -0.6818 -0.7032
    6SAPS   H2Y  702   2.511   4.749   6.092  1.7853  0.9165  1.3252
    6SAPS   C23  703   2.751   5.379   5.993  0.8080 -0.0829 -0.3669
    6SAPS   H3R  704   2.815   5.290   5.982  1.7399  0.5568 -0.2244
    6SAPS   H3S  705   2.797   5.442   6.072 -1.3151 -0.1158  0.9770
    6SAPS   C24  706   2.743   5.457   5.865 -0.0930  0.6768 -0.5130
    6SAPS   H4R  707   2.702   5.558   5.885 -1.5458 -0.1826  1.1325
    6SAPS   H4S  708   2.674   5.405   5.795 -1.4599  1.7089  0.0369
    6SAPS   C25  709   2.877   5.483   5.809 -0.0775 -0.1730 -0.9380
    6SAPS   H5R  710   2.942   5.551   5.865 -0.0335  0.5662 -1.8692
    6SAPS   C26  711   2.915   5.436   5.693 -0.1040  0.0061  0.4635
    6SAPS   H6R  712   3.021   5.447   5.666 -0.0332  1.0483  1.0790
    6SAPS   C27  713   2.831   5.347   5.602 -0.1670  0.3983  0.1378
    6SAPS   H7R  714   2.767   5.271   5.651 -1.1216  1.1262  0.0684
    6SAPS   H7S  715   2.908   5.291   5.545  0.2619  0.7224  0.3987
    6SAPS   C28  716   2.745   5.419   5.506 -0.4359  0.0780 -0.2643
    6SAPS   H8R  717   2.649   5.449   5.551  0.4556  0.7828  1.2268
    6SAPS   C29  718   2.782   5.461   5.381  0.3541  0.0050 -0.4780
    6SAPS   H9R  719   2.721   5.537   5.329 -1.0458  1.3951  2.8601
    6SAPS  C210  720   2.919   5.445   5.320  0.8861 -0.5427 -0.1974
    6SAPS  H10R  721   2.986   5.393   5.392  1.1221  1.2435  0.9243
    6SAPS  H10S  722   2.972   5.542   5.310  0.2860 -0.0315  1.3155
    6SAPS  C211  723   2.902   5.350   5.199  0.0970 -0.6350 -0.0201
    6SAPS  H11R  724   2.905   5.243   5.223 -1.0382 -0.1400  2.6161
    6SAPS  C212  725   2.873   5.393   5.076 -0.4484  0.7376 -0.0577
    6SAPS  H12R  726   2.863   5.324   4.992  1.6408  0.3363 -0.0288
    6SAPS  C213  727   2.865   5.540   5.032  0.1891 -0.5503 -0.0994
    6SAPS  H13R  728   2.963   5.588   5.049 -0.3021  0.3753  0.2086
    6SAPS  H13S  729   2.786   5.593   5.090  0.1545 -1.9435  1.2012
    6SAPS  C214  730   2.844   5.577   4.886  0.4875 -0.0295  0.4767
    6SAPS  H14R  731   2.743   5.614   4.863  0.5767  0.3578  0.6919
    6SAPS  C215  732   2.943   5.599   4.794  0.2116  0.6520  0.3232
    6SAPS  H15R  733   2.913   5.617   4.690 -1.4989 -0.4102  0.6014
    6SAPS  C216  734   3.088   5.569   4.809 -0.3421 -0.1465  0.4290
    6SAPS  H16R  735   3.108   5.483   4.741 -0.3441 -0.6199  1.0237
    6SAPS  H16S  736   3.106   5.540   4.914 -0.4675  1.9257  1.0655
    6SAPS  C217  737   3.169   5.692   4.762 -0.4049 -0.1859 -0.7074
    6SAPS  H17R  738   3.132   5.716   4.660  1.2385  2.0939 -0.8557
    6SAPS  H17S  739   3.279   5.675   4.760 -0.2557  0.5955  0.2287
    6SAPS  C218  740   3.155   5.813   4.856 -0.4182  0.5392 -0.4175
    6SAPS  H18R  741   3.181   5.780   4.959  1.6951  0.7293 -0.8311
    6SAPS  H18S  742   3.052   5.853   4.851 -0.4401  0.3625 -1.4267
    6SAPS  C219  743   3.246   5.933   4.816 -0.3035 -0.6669 -0.3206
    6SAPS  H19R  744   3.351   5.907   4.839 -0.1821  1.4108  1.9636
    6SAPS  H19S  745   3.227   6.019   4.884  0.2442 -0.2695 -0.6623
    6SAPS  C220  746   3.228   5.986   4.670 -0.0201  0.3414 -0.3274
    6SAPS  H20R  747   3.276   6.085   4.651  1.2840  0.2994  2.2386
    6SAPS  H20S  748   3.120   5.987   4.645 -0.5329 -1.0054  1.5683
    6SAPS  H20T  749   3.275   5.909   4.606 -0.7331 -0.4097  0.0331
    6SAPS   C33  750   2.474   4.921   5.953 -0.4758  0.0513 -0.0436
    6SAPS   H3X  751   2.420   5.017   5.940  2.1715  1.4931 -1.1223
    6SAPS   H3Y  752   2.428   4.852   5.880  0.7759 -1.0886  0.2052
    6SAPS   C34  753   2.623   4.932   5.912  1.1321 -0.0448 -0.8295
    6SAPS   H4X  754   2.669   4.831   5.895 -0.1542 -0.6637 -0.7303
    6SAPS   H4Y  755   2.673   4.978   5.999 -2.0356  0.8006  0.6327
    6SAPS   C35  756   2.645   5.021   5.783  0.6656  0.1754  0.1767
    6SAPS   H5X  757   2.754   5.027   5.761  1.2157  0.8003  2.7177
    6SAPS   H5Y  758   2.600   5.119   5.807  0.1926  1.2299 -4.2106
    6SAPS   C36  759   2.569   4.976   5.658 -0.2008  0.2889 -0.2347
    6SAPS   H6X  760   2.459   4.989   5.660 -0.2405  0.1898 -1.4154
    6SAPS   H6Y  761   2.595   4.869   5.643  0.6983  0.5891 -0.9215
    6SAPS   C37  762   2.621   5.046   5.534 -0.4046  0.0647 -0.5900
    6SAPS   H7X  763   2.732   5.049   5.534 -0.3857 -0.3298  0.2474
    6SAPS   H7Y  764   2.591   5.152   5.549  0.8404  0.2458  0.8962
    6SAPS   C38  765   2.570   4.986   5.407  0.2611 -0.7559  0.1252
    6SAPS   H8X  766   2.459   4.992   5.395  0.1702  1.4947  1.5368
    6SAPS   H8Y  767   2.602   4.879   5.411  0.9217 -0.5446  2.6874
    6SAPS   C39  768   2.630   5.059   5.289 -0.5204 -0.2568  0.1284
    6SAPS   H9X  769   2.735   5.086   5.313 -0.5181  0.1359 -0.3118
    6SAPS   H9Y  770   2.592   5.163   5.278  2.3288  0.7505 -0.9882
    6SAPS  C310  771   2.613   4.982   5.159 -1.1327 -0.0999 -0.4152
    6SAPS  H10X  772   2.506   4.977   5.128 -0.6640  0.8982 -2.3491
    6SAPS  H10Y  773   2.652   4.879   5.174  2.5104  1.1272 -0.5640
    6SAPS  C311  774   2.679   5.050   5.037 -0.3383 -0.3464 -0.3819
    6SAPS  H11X  775   2.787   5.061   5.061 -0.5700  2.7026 -0.3990
    6SAPS  H11Y  776   2.629   5.149   5.030  0.9501  0.2635 -1.4663
    6SAPS  C312  777   2.669   4.968   4.910 -0.4250 -0.3032 -0.0865
    6SAPS  H12X  778   2.572   4.929   4.872 -0.2391  0.3639 -1.2817
    6SAPS  H12Y  779   2.725   4.877   4.939  5.7819  2.2134 -2.4257
    6SAPS  C313  780   2.754   5.031   4.800 -0.1876 -0.2107 -0.1937
    6SAPS  H13X  781   2.767   4.968   4.709 -0.7397  0.4048 -0.7097
    6SAPS  H13Y  782   2.852   5.041   4.850 -1.2792 -0.4012  2.1200
    6SAPS  C314  783   2.704   5.168   4.752  0.2287 -0.4805  0.6496
    6SAPS  H14X  784   2.684   5.245   4.829  3.1006  0.1570  0.8513
    6SAPS  H14Y  785   2.607   5.151   4.700  0.9766 -1.9202 -0.3590
    6SAPS  C315  786   2.812   5.216   4.650  0.9075  0.6851  0.3942
    6SAPS  H15X  787   2.841   5.134   4.580  4.0620  1.6518  0.4052
    6SAPS  H15Y  788   2.912   5.236   4.695  1.9767  1.1106 -2.0031
    6SAPS  C316  789   2.761   5.338   4.566  0.7548 -1.0449  0.4277
    6SAPS  H16X  790   2.743   5.425   4.631  1.4356  0.5257 -1.3970
    6SAPS  H16Y  791   2.672   5.318   4.503 -0.3256  1.9285  0.8625
    6SAPS  C317  792   2.876   5.381   4.469  0.3946 -0.4195 -0.0071
    6SAPS  H17X  793   2.967   5.416   4.523 -0.5027  2.5996 -0.2961
    6SAPS  H17Y  794   2.841   5.463   4.403 -0.1752 -1.4033 -0.9664
    6SAPS  C318  795   2.917   5.273   4.369  0.2742  0.0633 -0.0455
    6SAPS  H18X  796   2.978   5.314   4.287  0.8884 -0.7681 -0.0178
    6SAPS  H18Y  797   2.829   5.222   4.323  0.5584  1.2713 -2.0319
    6SAPS  H18Z  798   2.971   5.188   4.417  0.4591 -0.2260 -0.7528
    7SAPS     N  799   5.581   0.300   6.881  0.1133  1.0320  0.3406
    7SAPS   HN1  800   5.651   0.374   6.860  1.1404  0.1199  0.4743
    7SAPS   HN2  801   5.560   0.304   6.983  1.1319  1.5924  0.5359
    7SAPS   HN3  802   5.629   0.208   6.885 -0.1779  0.7491 -1.7553
    7SAPS   C12  803   5.459   0.306   6.801  0.0506 -0.3334 -0.3782
    7SAPS  H12A  804   5.398   0.230   6.847  0.9337 -0.7550  0.1323
    7SAPS   C13  805   5.384   0.437   6.816 -1.3505  0.3169  0.3436
    7SAPS  O13A  806   5.416   0.530   6.894 -0.3459  0.3269  0.7954
    7SAPS  O13B  807   5.271   0.429   6.762  0.0576 -1.0869 -0.3882
    7SAPS   C11  808   5.491   0.274   6.645  0.3331  0.5732 -0.1306
    7SAPS  H11A  809   5.570   0.345   6.612 -1.0517  1.7018 -1.1178
    7SAPS  H11B  810   5.405   0.291   6.577 -0.6081  0.1619  0.9211
    7SAPS     P  811   5.460   0.010   6.638 -0.2196 -0.3479 -0.3754
    7SAPS   O13  812   5.544  -0.108   6.598 -0.4350  0.0601  0.1433
    7SAPS   O14  813   5.400   0.005   6.772 -0.2288  0.0834  0.8268
    7SAPS   O12  814   5.545   0.145   6.628 -1.0457 -0.0965  0.0832
    7SAPS   O11  815   5.345   0.048   6.533 -0.3946  0.1031 -0.3435
    7SAPS    C1  816   5.377   0.041   6.394 -0.4020  0.5470 -0.3146
    7SAPS    HA  817   5.471   0.100   6.384  0.7429 -0.9487  0.9963
    7SAPS    HB  818   5.394  -0.064   6.361  2.9916  0.9974 -0.3972
    7SAPS    C2  819   5.268   0.114   6.307  1.0339  0.2596 -0.3230
    7SAPS    HS  820   5.235   0.197   6.374 -3.0068 -0.3089 -1.3324
    7SAPS   O21  821   5.157   0.032   6.301  0.0201  0.0457  0.4470
    7SAPS   C21  822   5.047   0.095   6.273  0.3053  0.3005 -0.5158
    7SAPS   O22  823   5.028   0.216   6.277 -0.2878  0.4285 -0.8553
    7SAPS   C22  824   4.933  -0.001   6.253 -0.2580  0.2346 -1.3101
    7SAPS   H2R  825   4.903  -0.047   6.350  1.2835  0.8378 -0.5228
    7SAPS   H2S  826   4.846   0.064   6.231 -0.9537 -0.5898 -1.0825
    7SAPS    C3  827   5.332   0.154   6.173  0.3437 -0.0116  0.2762
    7SAPS    HX  828   5.250   0.207   6.120  2.1160  1.7291 -0.8489
    7SAPS    HY  829   5.352   0.068   6.104  0.1110  0.9902 -1.0817
    7SAPS   O31  830   5.438   0.251   6.181  0.4844 -0.0784 -0.1356
    7SAPS   C31  831   5.562   0.205   6.165  0.3952  0.3271 -0.4779
    7SAPS   O32  832   5.593   0.086   6.161  0.5541 -0.1107  0.3403
    7SAPS   C32  833   5.661   0.319   6.148 -0.5033 -0.4581  0.4590
    7SAPS   H2X  834   5.674   0.371   6.246 -0.5265  0.2424  0.0990
    7SAPS   H2Y  835   5.626   0.390   6.069 -1.3531 -1.8519 -0.4604
    7SAPS   C23  836   4.957  -0.110   6.151  0.4827 -1.4243 -0.1994
    7SAPS   H3R  837   4.879  -0.189   6.161  0.7285 -1.5729  0.6316
    7SAPS   H3S  838   5.050  -0.166   6.178 -0.2182 -1.3130  2.8299
    7SAPS   C24  839   4.975  -0.055   6.007  0.8471 -0.0568 -0.4797
    7SAPS   H4R  840   4.999  -0.135   5.934 -1.0097 -0.5352 -0.6175
    7SAPS   H4S  841   5.063   0.011   6.021 -0.4234  1.9338 -1.3465
    7SAPS   C25  842   4.854   0.016   5.958  0.0565  0.4308 -0.8533
    7SAPS   H5R  843   4.761  -0.022   6.003 -0.3937  1.5540 -0.8229
    7SAPS   C26  844   4.847   0.119   5.869  0.4129 -0.0004 -0.1662
    7SAPS   H6R  845   4.749   0.164   5.852 -0.3193 -1.0306  1.1055
    7SAPS   C27  846   4.955   0.203   5.817 -0.5583  0.4365 -0.5632
    7SAPS   H7R  847   4.946   0.218   5.707  4.3273 -1.4101 -1.4675
    7SAPS   H7S  848   5.056   0.157   5.814 -0.6142  0.3389 -3.7698
    7SAPS   C28  849   4.971   0.330   5.890  0.2171 -1.0269 -0.4398
    7SAPS   H8R  850   5.040   0.331   5.975 -0.5876  1.2051  0.2347
    7SAPS   C29  851   4.935   0.452   5.844  0.1500  0.2378 -0.7059
    7SAPS   H9R  852   4.967   0.542   5.899 -0.7249 -0.5398  1.1792
    7SAPS  C210  853   4.854   0.487   5.726  0.7068  0.6314 -0.5955
    7SAPS  H10R  854   4.809   0.401   5.672  0.1001  0.6224 -0.0846
    7SAPS  H10S  855   4.915   0.523   5.641  0.8701  0.1726 -0.6758
    7SAPS  C211  856   4.748   0.588   5.758  0.2288  0.8169 -0.1502
    7SAPS  H11R  857   4.739   0.623   5.862  1.4757  1.5900 -0.2912
    7SAPS  C212  858   4.673   0.645   5.661  0.7700 -0.0863 -0.2179
    7SAPS  H12R  859   4.592   0.717   5.680  1.6350  0.5894  1.0351
    7SAPS  C213  860   4.698   0.621   5.517 -0.3458 -0.5569  0.0189
    7SAPS  H13R  861   4.605   0.648   5.464  0.6530 -0.3625 -1.6780
    7SAPS  H13S  862   4.714   0.513   5.495 -0.8962 -0.6948  0.2844
    7SAPS  C214  863   4.808   0.696   5.444 -0.1128  0.4013  0.5860
    7SAPS  H14R  864   4.887   0.730   5.512  0.1486  0.8036  0.0833
    7SAPS  C215  865   4.834   0.708   5.309  0.4330 -0.7959  0.2424
    7SAPS  H15R  866   4.910   0.780   5.275 -2.0271  1.9664  0.1731
    7SAPS  C216  867   4.751   0.648   5.199  0.0257  0.0509  0.0152
    7SAPS  H16R  868   4.669   0.584   5.239 -1.1023  1.6285  0.3289
    7SAPS  H16S  869   4.826   0.592   5.139  1.6047 -0.9219  2.6927
    7SAPS  C217  870   4.667   0.739   5.100 -0.7487 -0.2998 -0.6972
    7SAPS  H17R  871   4.741   0.811   5.058 -0.4967  0.1294  0.4188
    7SAPS  H17S  872   4.603   0.811   5.155  1.3898 -0.0060  1.6354
    7SAPS  C218  873   4.583   0.657   5.005  0.0915 -0.0776 -0.0412
    7SAPS  H18R  874   4.492   0.625   5.059  0.0071  0.9115  0.4156
    7SAPS  H18S  875   4.638   0.562   4.985  0.5305 -0.2223  1.7258
    7SAPS  C219  876   4.545   0.731   4.882  0.3461  0.5781 -0.1235
    7SAPS  H19R  877   4.634   0.751   4.819 -1.0111  1.6637 -1.7956
    7SAPS  H19S  878   4.494   0.824   4.918 -1.2436 -0.0614 -0.6176
    7SAPS  C220  879   4.448   0.661   4.787 -0.3268  0.3306  0.1632
    7SAPS  H20R  880   4.423   0.720   4.697  1.2427 -1.5218 -1.5947
    7SAPS  H20S  881   4.353   0.625   4.833 -0.5324  0.4975 -0.1328
    7SAPS  H20T  882   4.493   0.566   4.750 -1.0354  0.0893 -0.1017
    7SAPS   C33  883   5.791   0.266   6.077 -0.1727  0.7254 -0.4306
    7SAPS   H3X  884   5.762   0.211   5.985  0.9282  2.3627 -1.8464
    7SAPS   H3Y  885   5.834   0.202   6.156 -0.1869  1.4754  0.1952
    7SAPS   C34  886   5.888   0.374   6.034 -0.2404  0.5922 -0.3823
    7SAPS   H4X  887   5.906   0.443   6.120 -0.9290 -0.3678  0.5709
    7SAPS   H4Y  888   5.835   0.442   5.964 -0.6474  0.1215 -0.5377
    7SAPS   C35  889   6.018   0.315   5.978  1.4142 -0.9349  0.5971
    7SAPS   H5X  890   6.064   0.235   6.040  0.5938 -2.0829 -0.2289
    7SAPS   H5Y  891   6.094   0.395   5.966  1.4930 -1.1712 -0.6439
    7SAPS   C36  892   6.004   0.259   5.836  0.0073  0.2031  1.0092
    7SAPS   H6X  893   5.930   0.177   5.822 -0.8451  1.3118 -1.5667
    7SAPS   H6Y  894   6.105   0.215   5.828  0.6600  1.7936 -0.0395
    7SAPS   C37  895   5.975   0.369   5.728 -0.5108 -0.7374 -0.1784
    7SAPS   H7X  896   6.046   0.453   5.741 -1.4366  0.3287 -1.7289
    7SAPS   H7Y  897   5.871   0.408   5.729 -0.9259 -1.6771 -2.2045
    7SAPS   C38  898   5.984   0.312   5.580  0.0285  0.0261 -0.7381
    7SAPS   H8X  899   5.917   0.225   5.562 -1.6279  0.9914  0.5856
    7SAPS   H8Y  900   6.086   0.268   5.573 -0.9242 -2.2441 -1.5050
    7SAPS   C39  901   5.969   0.424   5.470 -0.7680 -0.4658 -0.0389
    7SAPS   H9X  902   6.048   0.494   5.504 -2.1849  1.0528  0.3212
    7SAPS   H9Y  903   5.868   0.468   5.485 -1.2338 -0.6343 -2.2435
    7SAPS  C310  904   5.985   0.365   5.330 -0.1348  0.2200 -0.6022
    7SAPS  H10X  905   5.897   0.302   5.304 -1.5533  1.4823  0.9972
    7SAPS  H10Y  906   6.074   0.298   5.325  0.5908  1.0147  0.9640
    7SAPS  C311  907   6.003   0.474   5.217 -0.2346 -0.4005 -0.1545
    7SAPS  H11X  908   6.104   0.520   5.231 -0.5722  0.9666 -1.8056
    7SAPS  H11Y  909   5.936   0.558   5.246  1.8522  0.8152  1.4582
    7SAPS  C312  910   5.991   0.412   5.074 -0.0033 -0.0821  0.4841
    7SAPS  H12X  911   5.888   0.371   5.064  0.4539 -1.5277  1.4119
    7SAPS  H12Y  912   6.062   0.328   5.060 -0.0451  0.2121 -1.9521
    7SAPS  C313  913   6.023   0.516   4.968  0.5670  0.1146  0.1181
    7SAPS  H13X  914   6.122   0.562   4.986  0.1417  0.7819  0.8258
    7SAPS  H13Y  915   5.955   0.604   4.964  1.4699  0.7850 -0.8441
    7SAPS  C314  916   6.027   0.454   4.827 -0.4897 -0.1667 -0.0387
    7SAPS  H14X  917   5.944   0.379   4.831 -1.5559  0.9424 -0.7141
    7SAPS  H14Y  918   6.122   0.396   4.831 -0.4194 -0.0373  0.2087
    7SAPS  C315  919   6.022   0.550   4.702 -0.1504  0.4026 -0.4956
    7SAPS  H15X  920   6.100   0.628   4.718  0.5815 -0.2879 -0.6794
    7SAPS  H15Y  921   5.926   0.607   4.698  0.0638  0.9558  1.1845
    7SAPS  C316  922   6.062   0.482   4.575  0.8506  0.2021 -0.4828
    7SAPS  H16X  923   5.992   0.399   4.550  1.2725 -1.2833  2.7240
    7SAPS  H16Y  924   6.159   0.432   4.599  0.0768 -0.5656  1.2084
    7SAPS  C317  925   6.080   0.577   4.457 -0.3438  0.9017 -0.4576
    7SAPS  H17X  926   6.175   0.633   4.467 -0.0370  0.1270  1.2332
    7SAPS  H17Y  927   5.997   0.650   4.469 -0.9573  0.0776  0.4061
    7SAPS  C318  928   6.107   0.496   4.328 -0.5139  0.5073  0.0819
    7SAPS  H18X  929   6.212   0.464   4.317 -1.0763 -0.5059 -4.2277
    7SAPS  H18Y  930   6.074   0.546   4.234  1.1484  0.8867 -0.3206
    7SAPS  H18Z  931   6.041   0.408   4.318 -1.5717  1.4263 -1.4808
    8SAPS     N  932   2.670   0.464   6.966  1.0286 -1.0254 -0.4620
    8SAPS   HN1  933   2.633   0.388   7.026 -0.1815 -0.6666 -0.7322
    8SAPS   HN2  934   2.676   0.431   6.867 -1.1160 -1.7083 -0.4103
    8SAPS   HN3  935   2.763   0.496   7.001  0.0676  1.3217  0.1288
    8SAPS   C12  936   2.578   0.586   6.981 -0.1256  0.3297  0.8509
    8SAPS  H12A  937   2.583   0.602   7.088  0.8031 -0.8323  1.0041
    8SAPS   C13  938   2.622   0.719   6.913 -0.4441  0.0426  0.5710
    8SAPS  O13A  939   2.717   0.721   6.832 -0.3375  0.1791  0.1142
    8SAPS  O13B  940   2.541   0.814   6.914  0.4781  0.2897 -0.1703
    8SAPS   C11  941   2.431   0.542   6.940 -0.2160 -0.1239  0.5464
    8SAPS  H11A  942   2.354   0.613   6.976  0.0762  0.7090 -0.4171
    8SAPS  H11B  943   2.417   0.447   6.996 -0.3201  1.2933  3.0429
    8SAPS     P  944   2.287   0.508   6.724 -0.2823  0.1847 -0.4978
    8SAPS   O13  945   2.176   0.497   6.817  0.2122 -0.4724 -0.3842
    8SAPS   O14  946   2.275   0.616   6.626 -0.1991 -0.4470 -0.5538
    8SAPS   O12  947   2.419   0.511   6.803 -0.4717  0.6439 -0.0632
    8SAPS   O11  948   2.294   0.364   6.655 -0.1175  0.1621  0.4779
    8SAPS    C1  949   2.424   0.327   6.598  0.0788 -0.1419 -0.2171
    8SAPS    HA  950   2.499   0.408   6.593  1.6741 -1.5507 -0.0983
    8SAPS    HB  951   2.476   0.249   6.658  0.8325  0.5407  0.0309
    8SAPS    C2  952   2.416   0.283   6.447 -0.0293  0.0440 -0.7796
    8SAPS    HS  953   2.519   0.299   6.408  0.8643 -0.6246  1.1500
    8SAPS   O21  954   2.312   0.344   6.369  0.3586 -0.2400  0.0889
    8SAPS   C21  955   2.330   0.467   6.339 -0.1003  0.0972  0.3512
    8SAPS   O22  956   2.433   0.532   6.362  1.2186  0.5641  0.2501
    8SAPS   C22  957   2.214   0.518   6.255 -0.0988  0.8730  0.7610
    8SAPS   H2R  958   2.198   0.447   6.170  0.2998  0.5744  0.9339
    8SAPS   H2S  959   2.124   0.522   6.320 -1.0108 -0.2887 -0.3431
    8SAPS    C3  960   2.392   0.130   6.436  0.2374 -0.1654 -0.4611
    8SAPS    HX  961   2.289   0.108   6.470 -0.3123  3.3909  0.5424
    8SAPS    HY  962   2.456   0.086   6.515  0.0802  1.1266  0.4072
    8SAPS   O31  963   2.434   0.071   6.304 -0.0520  0.1476  0.1548
    8SAPS   C31  964   2.411  -0.059   6.303 -0.3610  0.2017  0.4416
    8SAPS   O32  965   2.373  -0.135   6.393 -0.2008 -0.1958 -0.1478
    8SAPS   C32  966   2.436  -0.098   6.158 -0.2015 -0.2995 -0.2637
    8SAPS   H2X  967   2.545  -0.091   6.135 -0.1852  0.9821  0.1407
    8SAPS   H2Y  968   2.388  -0.023   6.093 -1.3987 -0.5220  0.3485
    8SAPS   C23  969   2.242   0.661   6.202  0.4134 -0.2557  0.2670
    8SAPS   H3R  970   2.287   0.728   6.278  1.1991  0.9543 -1.2097
    8SAPS   H3S  971   2.150   0.710   6.164  0.8114 -1.5143 -2.5675
    8SAPS   C24  972   2.335   0.659   6.085  0.3198 -0.4887 -0.2683
    8SAPS   H4R  973   2.423   0.593   6.103 -0.2270 -1.1016  0.2188
    8SAPS   H4S  974   2.384   0.758   6.079 -4.4311  2.3348  2.1467
    8SAPS   C25  975   2.258   0.629   5.953 -0.5729 -0.6383  0.1878
    8SAPS   H5R  976   2.154   0.663   5.941 -1.8584 -4.1086  0.5298
    8SAPS   C26  977   2.314   0.577   5.841  0.1977  0.0089  0.1457
    8SAPS   H6R  978   2.251   0.557   5.753 -2.4328  1.8063  1.4896
    8SAPS   C27  979   2.453   0.509   5.832 -0.7057  0.1748  1.0430
    8SAPS   H7R  980   2.452   0.430   5.909  0.8601  0.5023  1.4442
    8SAPS   H7S  981   2.538   0.570   5.870 -1.6151  0.5276  2.6124
    8SAPS   C28  982   2.487   0.430   5.705 -0.4180 -0.5441 -0.3724
    8SAPS   H8R  983   2.511   0.324   5.718  2.3506 -0.2339 -2.0231
    8SAPS   C29  984   2.476   0.477   5.582 -0.3544 -0.7552  0.0956
    8SAPS   H9R  985   2.472   0.411   5.494  0.2095  2.3697 -2.4722
    8SAPS  C210  986   2.445   0.621   5.549 -0.1154 -0.1977 -0.2723
    8SAPS  H10R  987   2.462   0.694   5.632  1.0396  1.9867 -2.3248
    8SAPS  H10S  988   2.337   0.625   5.524  0.1577  1.1788 -1.3685
    8SAPS  C211  989   2.538   0.667   5.437 -0.9986  0.9304 -0.0296
    8SAPS  H11R  990   2.639   0.694   5.470 -1.3013  0.2999  1.4920
    8SAPS  C212  991   2.515   0.665   5.307  0.6048  0.3452  0.3178
    8SAPS  H12R  992   2.594   0.708   5.244  0.2849 -0.2230 -0.4859
    8SAPS  C213  993   2.392   0.631   5.228 -0.2686 -0.6985 -0.5619
    8SAPS  H13R  994   2.355   0.729   5.191  0.0409 -0.6857 -0.8391
    8SAPS  H13S  995   2.319   0.589   5.300 -0.4765 -0.1122 -0.4259
    8SAPS  C214  996   2.411   0.531   5.117  0.3223  0.0341  0.2526
    8SAPS  H14R  997   2.380   0.428   5.140 -1.4962  0.1131 -1.5521
    8SAPS  C215  998   2.466   0.560   4.995 -0.8145 -0.2263  1.1219
    8SAPS  H15R  999   2.454   0.478   4.922  0.2577  0.7048 -0.1420
    8SAPS  C216 1000   2.521   0.687   4.935 -0.3896 -0.1544 -0.6898
    8SAPS  H16R 1001   2.558   0.755   5.015 -0.0516 -0.8453 -0.2506
    8SAPS  H16S 1002   2.446   0.750   4.882  1.7841  3.7956  0.5137
    8SAPS  C217 1003   2.654   0.669   4.856 -0.1877  0.5278  0.3799
    8SAPS  H17R 1004   2.720   0.586   4.889 -1.4506 -0.9605 -0.6703
    8SAPS  H17S 1005   2.713   0.763   4.862 -0.9086  1.2756 -2.5554
    8SAPS  C218 1006   2.627   0.635   4.713 -0.4753  0.0054 -0.6349
    8SAPS  H18R 1007   2.544   0.703   4.685  0.1657  1.4442  0.7735
    8SAPS  H18S 1008   2.595   0.528   4.712  3.2910 -1.2733 -0.5072
    8SAPS  C219 1009   2.747   0.652   4.624 -0.4618  0.4582  0.4182
    8SAPS  H19R 1010   2.839   0.630   4.682  0.0339 -2.2196 -1.2369
    8SAPS  H19S 1011   2.749   0.752   4.576  1.0200  0.3525  0.2206
    8SAPS  C220 1012   2.754   0.538   4.517  0.3710  0.0011  0.5008
    8SAPS  H20R 1013   2.835   0.547   4.442 -0.6599  2.6099 -0.4149
    8SAPS  H20S 1014   2.661   0.532   4.456  2.1735 -0.7956 -2.3580
    8SAPS  H20T 1015   2.764   0.438   4.564  2.7017  0.0715  0.2421
    8SAPS   C33 1016   2.379  -0.241   6.128  0.0516 -0.2898 -0.1878
    8SAPS   H3X 1017   2.268  -0.243   6.137  0.1298 -0.0624  1.0580
    8SAPS   H3Y 1018   2.415  -0.316   6.202  0.7125 -0.3813 -0.5893
    8SAPS   C34 1019   2.434  -0.305   6.004 -0.2323 -0.3335  0.3104
    8SAPS   H4X 1020   2.396  -0.407   5.983  1.1195 -0.6721 -0.6109
    8SAPS   H4Y 1021   2.542  -0.328   6.015 -0.4373 -1.7948 -0.4686
    8SAPS   C35 1022   2.403  -0.215   5.884  0.5700  0.1075  0.1739
    8SAPS   H5X 1023   2.418  -0.106   5.894 -1.6193  0.5548 -0.8980
    8SAPS   H5Y 1024   2.296  -0.236   5.865  0.7175  1.0863 -2.0634
    8SAPS   C36 1025   2.472  -0.247   5.753  0.3792 -0.2893  0.6122
    8SAPS   H6X 1026   2.472  -0.358   5.747 -0.8962 -0.2479 -0.8230
    8SAPS   H6Y 1027   2.572  -0.197   5.752  0.0582  0.3613 -0.0640
    8SAPS   C37 1028   2.394  -0.181   5.636 -0.4458  0.3991 -0.1782
    8SAPS   H7X 1029   2.380  -0.074   5.660  1.4749  0.9205 -1.1645
    8SAPS   H7Y 1030   2.301  -0.242   5.631 -1.2924  1.7435 -1.9280
    8SAPS   C38 1031   2.471  -0.179   5.501 -0.1668 -0.2248 -0.3179
    8SAPS   H8X 1032   2.513  -0.280   5.483  1.9387  0.6743 -0.7543
    8SAPS   H8Y 1033   2.559  -0.114   5.519 -0.1653 -0.4755  0.6220
    8SAPS   C39 1034   2.387  -0.124   5.390 -0.0512 -0.1247  0.1726
    8SAPS   H9X 1035   2.358  -0.019   5.410 -0.7654  0.0045 -1.3858
    8SAPS   H9Y 1036   2.294  -0.185   5.390 -1.7598  2.2691  2.4117
    8SAPS  C310 1037   2.467  -0.119   5.257  0.1372 -0.7539  0.0552
    8SAPS  H10X 1038   2.498  -0.222   5.227  0.6830 -0.4133 -0.5760
    8SAPS  H10Y 1039   2.556  -0.055   5.274  1.2259 -1.9149 -1.0270
    8SAPS  C311 1040   2.381  -0.051   5.149  0.3148  0.8274  0.4379
    8SAPS  H11X 1041   2.341   0.041   5.197 -2.2134  0.9380 -1.6831
    8SAPS  H11Y 1042   2.297  -0.121   5.130  1.4981 -0.1621 -1.3255
    8SAPS  C312 1043   2.449  -0.023   5.010 -0.1052  0.4468  0.2743
    8SAPS  H12X 1044   2.430  -0.111   4.945 -0.5842  0.7395  0.0091
    8SAPS  H12Y 1045   2.560  -0.025   5.015  0.0365  0.6935 -1.7534
    8SAPS  C313 1046   2.403   0.110   4.957 -0.2919  0.3667 -0.2722
    8SAPS  H13X 1047   2.395   0.176   5.046  0.5004 -0.4068  0.3953
    8SAPS  H13Y 1048   2.306   0.115   4.904 -0.4659 -2.1288 -0.2956
    8SAPS  C314 1049   2.495   0.175   4.858 -0.7469  0.0487  0.0683
    8SAPS  H14X 1050   2.603   0.176   4.883 -1.0179 -2.0148  1.5548
    8SAPS  H14Y 1051   2.461   0.280   4.841 -1.3315 -0.1695 -0.1226
    8SAPS  C315 1052   2.477   0.121   4.711 -0.5245 -0.1251  0.0333
    8SAPS  H15X 1053   2.376   0.147   4.672 -1.0338 -1.1540  0.6589
    8SAPS  H15Y 1054   2.478   0.011   4.723 -4.3577 -0.3895 -0.7320
    8SAPS  C316 1055   2.583   0.173   4.617 -0.3588 -0.0533  0.1518
    8SAPS  H16X 1056   2.681   0.131   4.647  0.1026  0.3067 -0.8402
    8SAPS  H16Y 1057   2.589   0.284   4.626 -1.1392  0.1160 -1.1922
    8SAPS  C317 1058   2.552   0.127   4.472 -0.2292  0.8174 -0.4115
    8SAPS  H17X 1059   2.448   0.154   4.442 -0.4610  0.4933  0.0920
    8SAPS  H17Y 1060   2.554   0.017   4.490 -0.5365  1.3148  3.6312
    8SAPS  C318 1061   2.640   0.173   4.359  0.3490  0.0435  0.4079
    8SAPS  H18X 1062   2.583   0.166   4.264  1.4335  0.3043 -0.2804
    8SAPS  H18Y 1063   2.735   0.117   4.349  1.0775  1.2259  0.5319
    8SAPS  H18Z 1064   2.658   0.282   4.367  0.5743  0.3486 -2.8135
    9SAPS     N 1065   2.330   5.203   7.049 -0.3858  0.2023 -0.0688
    9SAPS   HN1 1066   2.355   5.167   7.143  4.9327  1.9961 -0.4719
    9SAPS   HN2 1067   2.391   5.160   6.977 -1.1408 -1.3447  0.1871
    9SAPS   HN3 1068   2.338   5.306   7.061  1.6446  0.4592 -2.7033
    9SAPS   C12 1069   2.188   5.183   7.002 -0.5124 -0.0955  0.1093
    9SAPS  H12A 1070   2.209   5.177   6.896  3.9547  0.2039  0.7629
    9SAPS   C13 1071   2.131   5.048   7.051  0.7496 -0.4168  0.2425
    9SAPS  O13A 1072   2.202   4.967   7.120 -0.0256 -0.2511 -0.2499
    9SAPS  O13B 1073   2.005   5.027   7.045  0.2079 -0.0382 -0.4276
    9SAPS   C11 1074   2.090   5.300   7.019 -0.3793 -0.0018 -0.1478
    9SAPS  H11A 1075   2.059   5.287   7.125  3.1761  1.1070  1.1941
    9SAPS  H11B 1076   2.001   5.272   6.959 -1.6505 -1.4875  2.2831
    9SAPS     P 1077   2.093   5.528   6.899  0.2157  0.1001  0.1562
    9SAPS   O13 1078   1.982   5.595   6.970  1.1015  0.4344 -0.0533
    9SAPS   O14 1079   2.200   5.616   6.850 -0.2478 -0.7213 -0.1507
    9SAPS   O12 1080   2.157   5.426   6.999  0.3928 -0.3496  0.1469
    9SAPS   O11 1081   2.034   5.433   6.785  0.0684  0.2730  0.3198
    9SAPS    C1 1082   2.109   5.423   6.664 -0.1952  0.2661 -0.1031
    9SAPS    HA 1083   2.220   5.428   6.676  0.1602 -0.2765 -2.6172
    9SAPS    HB 1084   2.085   5.322   6.625 -0.0207 -0.1879  0.9468
    9SAPS    C2 1085   2.072   5.536   6.557  0.1185  0.0256 -0.8722
    9SAPS    HS 1086   2.089   5.637   6.598 -0.2339 -0.5846  0.8698
    9SAPS   O21 1087   1.938   5.515   6.516 -0.3095 -0.2573 -0.4716
    9SAPS   C21 1088   1.878   5.620   6.460 -0.9131  0.8821 -0.4289
    9SAPS   O22 1089   1.935   5.723   6.437  0.7263  0.4127  0.6654
    9SAPS   C22 1090   1.735   5.586   6.434 -0.5228  0.9205  0.1255
    9SAPS   H2R 1091   1.728   5.559   6.327 -1.3341  0.8585  0.1890
    9SAPS   H2S 1092   1.710   5.498   6.498  0.5174 -0.1289 -0.8501
    9SAPS    C3 1093   2.172   5.528   6.440 -0.2822 -0.5516  0.2643
    9SAPS    HX 1094   2.277   5.547   6.469 -0.2040  1.0857 -0.8822
    9SAPS    HY 1095   2.144   5.607   6.367  2.2572  1.8895  1.7523
    9SAPS   O31 1096   2.171   5.409   6.367 -0.4267  0.2804 -0.3727
    9SAPS   C31 1097   2.097   5.393   6.261 -0.4141 -0.4646  0.2701
    9SAPS   O32 1098   2.016   5.477   6.224  0.0624 -0.2894 -0.0418
    9SAPS   C32 1099   2.132   5.264   6.198 -0.2651 -0.3195  0.0466
    9SAPS   H2X 1100   2.034   5.238   6.152  0.0949  1.6115 -1.9745
    9SAPS   H2Y 1101   2.158   5.202   6.286  0.8014  3.1463  2.3944
    9SAPS   C23 1102   1.639   5.708   6.457  0.4239 -0.0242  0.2774
    9SAPS   H3R 1103   1.657   5.764   6.551  1.1417  0.1167  0.0642
    9SAPS   H3S 1104   1.538   5.661   6.460  0.9005 -1.3391 -1.9477
    9SAPS   C24 1105   1.640   5.824   6.352  0.1690 -0.1216 -1.1967
    9SAPS   H4R 1106   1.742   5.867   6.352  0.9950 -1.9280  0.3682
    9SAPS   H4S 1107   1.569   5.897   6.397  0.9353 -0.3369  0.4429
    9SAPS   C25 1108   1.585   5.784   6.217 -0.4797  0.6928 -0.3261
    9SAPS   H5R 1109   1.477   5.760   6.216 -0.5506  1.0173 -0.5373
    9SAPS   C26 1110   1.639   5.782   6.099 -0.9331  0.0398  0.6277
    9SAPS   H6R 1111   1.590   5.730   6.015  2.9984 -1.7720 -0.8062
    9SAPS   C27 1112   1.774   5.838   6.065 -0.7422 -0.4599 -0.4891
    9SAPS   H7R 1113   1.831   5.749   6.033 -0.7396 -0.0959 -1.5459
    9SAPS   H7S 1114   1.837   5.889   6.141  1.5057 -0.8483 -2.0002
    9SAPS   C28 1115   1.756   5.931   5.940 -1.3398 -0.4574 -0.4457
    9SAPS   H8R 1116   1.771   6.034   5.972 -0.2062 -0.9801  0.7768
    9SAPS   C29 1117   1.737   5.905   5.811  0.0737  0.8869  0.5460
    9SAPS   H9R 1118   1.761   5.983   5.738 -0.8382 -0.6049 -1.4422
    9SAPS  C210 1119   1.737   5.770   5.750  0.8306 -0.1716  0.0653
    9SAPS  H10R 1120   1.646   5.712   5.776 -0.7383  1.3981 -1.6512
    9SAPS  H10S 1121   1.826   5.706   5.769 -0.0950 -1.2982  0.7614
    9SAPS  C211 1122   1.713   5.776   5.597  0.0726 -0.1392  0.4258
    9SAPS  H11R 1123   1.614   5.755   5.556  0.3015 -0.2393 -0.0780
    9SAPS  C212 1124   1.806   5.802   5.509  1.6300  0.4293  0.7351
    9SAPS  H12R 1125   1.771   5.808   5.405 -4.5630 -2.2993  2.2234
    9SAPS  C213 1126   1.953   5.823   5.540 -0.3562  0.1889 -0.0494
    9SAPS  H13R 1127   1.987   5.835   5.645 -1.1070 -1.4275  0.4010
    9SAPS  H13S 1128   1.981   5.922   5.496  0.2347  1.2517  2.5418
    9SAPS  C214 1129   2.046   5.720   5.479 -0.0838 -0.6251  0.0139
    9SAPS  H14R 1130   2.062   5.632   5.543  0.0306 -0.8473 -0.3178
    9SAPS  C215 1131   2.097   5.717   5.355 -0.1951 -0.5126  0.1262
    9SAPS  H15R 1132   2.164   5.633   5.335  0.7116  0.1016  0.5241
    9SAPS  C216 1133   2.089   5.815   5.243 -0.3685 -0.2523  0.6943
    9SAPS  H16R 1134   2.042   5.913   5.271  0.4516  0.8434 -1.5225
    9SAPS  H16S 1135   2.023   5.785   5.159 -0.1758  1.6841 -0.2145
    9SAPS  C217 1136   2.221   5.868   5.179 -0.8772  0.2484  0.5203
    9SAPS  H17R 1137   2.285   5.926   5.249  0.1942  0.1382 -0.3312
    9SAPS  H17S 1138   2.180   5.933   5.099 -1.7585 -0.2318  0.5711
    9SAPS  C218 1139   2.307   5.754   5.127  0.0640 -0.4028  0.2091
    9SAPS  H18R 1140   2.254   5.694   5.049 -0.2595  0.1342  0.0103
    9SAPS  H18S 1141   2.332   5.678   5.204 -1.0056 -0.9564  0.0395
    9SAPS  C219 1142   2.429   5.813   5.062  0.1328  0.5951  0.0314
    9SAPS  H19R 1143   2.506   5.733   5.061  1.3149  1.6872 -1.1780
    9SAPS  H19S 1144   2.470   5.898   5.120 -0.6734 -0.0650  1.6063
    9SAPS  C220 1145   2.403   5.868   4.917  0.5579  0.0763 -0.3267
    9SAPS  H20R 1146   2.501   5.889   4.868  1.0142  0.2861  0.6513
    9SAPS  H20S 1147   2.339   5.958   4.927  1.1744  0.7505 -1.9766
    9SAPS  H20T 1148   2.334   5.798   4.865 -0.4354  1.5687 -1.0823
    9SAPS   C33 1149   2.239   5.270   6.088 -0.4174 -0.3557 -0.0873
    9SAPS   H3X 1150   2.275   5.167   6.068  0.8916  0.0639  0.0197
    9SAPS   H3Y 1151   2.320   5.341   6.115 -2.2165  1.1451  1.6673
    9SAPS   C34 1152   2.189   5.318   5.953  0.5363 -0.7403  0.0207
    9SAPS   H4X 1153   2.178   5.427   5.969  0.7386 -0.3844 -1.9801
    9SAPS   H4Y 1154   2.092   5.266   5.940 -0.7123  1.0254  1.7259
    9SAPS   C35 1155   2.292   5.308   5.842  0.0804  0.1217  0.3358
    9SAPS   H5X 1156   2.338   5.208   5.828  0.5352  0.1537  1.4828
    9SAPS   H5Y 1157   2.365   5.389   5.865 -0.0390  0.3288 -0.0127
    9SAPS   C36 1158   2.219   5.347   5.710 -0.4428  0.2244 -0.4284
    9SAPS   H6X 1159   2.178   5.449   5.730  0.6240  0.0918  3.1674
    9SAPS   H6Y 1160   2.143   5.267   5.693  1.7435 -1.8139 -1.0702
    9SAPS   C37 1161   2.318   5.336   5.597 -0.2362 -0.1307  0.7451
    9SAPS   H7X 1162   2.379   5.243   5.603  0.1838  0.1747  1.3237
    9SAPS   H7Y 1163   2.388   5.422   5.610  0.7547 -1.0364  1.6865
    9SAPS   C38 1164   2.258   5.344   5.449  0.4243 -0.4379  0.1150
    9SAPS   H8X 1165   2.210   5.444   5.443 -0.2021 -0.7925 -1.2457
    9SAPS   H8Y 1166   2.176   5.274   5.425  0.1425  0.2950 -1.1574
    9SAPS   C39 1167   2.366   5.318   5.342 -0.0123 -0.0016 -0.3107
    9SAPS   H9X 1168   2.407   5.215   5.350 -0.9277 -0.3634 -0.1881
    9SAPS   H9Y 1169   2.448   5.387   5.372  0.5180 -0.4523 -0.7008
    9SAPS  C310 1170   2.309   5.328   5.204  0.4184 -0.8386  0.4380
    9SAPS  H10X 1171   2.269   5.426   5.173  1.4824 -0.2798  0.7662
    9SAPS  H10Y 1172   2.227   5.253   5.205  0.9186 -1.4021  1.3408
    9SAPS  C311 1173   2.414   5.288   5.099  0.1148 -0.6369  0.4947
    9SAPS  H11X 1174   2.439   5.180   5.110 -2.4686 -1.4595 -0.8037
    9SAPS  H11Y 1175   2.499   5.356   5.115 -1.4921  1.8029 -0.7467
    9SAPS  C312 1176   2.370   5.315   4.945 -0.0872  0.1302  0.3922
    9SAPS  H12X 1177   2.269   5.273   4.925 -0.8704  2.2110 -0.2646
    9SAPS  H12Y 1178   2.447   5.266   4.881 -0.9112  1.3042 -1.5854
    9SAPS  C313 1179   2.388   5.466   4.907  0.4625 -0.4510 -0.7514
    9SAPS  H13X 1180   2.496   5.489   4.898  0.1530  1.2717 -0.4245
    9SAPS  H13Y 1181   2.326   5.529   4.975 -1.2132 -0.7388 -1.9696
    9SAPS  C314 1182   2.339   5.499   4.768 -0.0959 -0.3029 -0.4964
    9SAPS  H14X 1183   2.390   5.444   4.687  1.6629 -0.5412  0.7247
    9SAPS  H14Y 1184   2.355   5.607   4.746 -2.5810  0.5778  1.5176
    9SAPS  C315 1185   2.191   5.471   4.754 -0.0225 -0.0097 -0.4063
    9SAPS  H15X 1186   2.138   5.518   4.839 -1.2670 -2.6902  0.4095
    9SAPS  H15Y 1187   2.176   5.361   4.753  0.5106 -0.1378  1.4470
    9SAPS  C316 1188   2.136   5.528   4.622  0.2779 -0.6515 -0.6081
    9SAPS  H16X 1189   2.056   5.461   4.585 -0.6370  1.4098 -2.6010
    9SAPS  H16Y 1190   2.220   5.515   4.551  1.2979 -3.0385  0.9050
    9SAPS  C317 1191   2.100   5.682   4.642 -0.3492  0.0768  0.1750
    9SAPS  H17X 1192   2.191   5.728   4.686  0.8290 -0.6172 -1.4484
    9SAPS  H17Y 1193   2.029   5.694   4.727  1.4825 -2.5731  2.2742
    9SAPS  C318 1194   2.093   5.766   4.514 -0.6649 -0.5357  0.0620
    9SAPS  H18X 1195   2.036   5.711   4.437 -0.0235 -1.3078  0.1262
    9SAPS  H18Y 1196   2.190   5.783   4.463 -1.3628  1.6559 -0.6381
    9SAPS  H18Z 1197   2.043   5.863   4.534 -0.3352 -0.3634  0.0656
   10SAPS     N 1198   2.419   4.172   6.884  0.2729 -0.2682 -0.1022
   10SAPS   HN1 1199   2.381   4.173   6.981  0.2452 -1.3683 -0.0993
   10SAPS   HN2 1200   2.522   4.166   6.875  0.2403 -0.1962 -0.5979
   10SAPS   HN3 1201   2.390   4.260   6.835 -0.0251 -0.3143 -0.0078
   10SAPS   C12 1202   2.367   4.054   6.810 -0.4108 -0.3850  0.1422
   10SAPS  H12A 1203   2.430   3.971   6.840  0.5657 -0.0542 -0.9049
   10SAPS   C13 1204   2.226   4.012   6.842  1.0567 -0.2252  0.9582
   10SAPS  O13A 1205   2.159   4.089   6.916 -0.0422 -0.1881 -0.3591
   10SAPS  O13B 1206   2.170   3.915   6.777  0.5002 -0.5921  0.4072
   10SAPS   C11 1207   2.386   4.069   6.660 -0.0735 -0.2044 -0.4503
   10SAPS  H11A 1208   2.311   4.145   6.629  0.4508  1.0027  1.1398
   10SAPS  H11B 1209   2.357   3.974   6.609  0.1760  0.2136 -1.4059
   10SAPS     P 1210   2.555   4.166   6.482  0.3028 -0.3546 -0.1201
   10SAPS   O13 1211   2.560   4.314   6.464 -0.0513 -0.2765 -0.5580
   10SAPS   O14 1212   2.688   4.095   6.462 -0.3093  0.5481 -0.3141
   10SAPS   O12 1213   2.510   4.125   6.626 -0.3757  0.7505  0.0543
   10SAPS   O11 1214   2.454   4.100   6.379  0.7976  0.4179 -0.3044
   10SAPS    C1 1215   2.324   4.161   6.355  0.5396  0.3262 -0.2038
   10SAPS    HA 1216   2.260   4.080   6.315 -2.6617  2.1187  0.9221
   10SAPS    HB 1217   2.272   4.188   6.449 -0.7939  0.6996 -1.0283
   10SAPS    C2 1218   2.308   4.261   6.238  0.9711 -0.1476  0.2168
   10SAPS    HS 1219   2.345   4.358   6.278  1.3176 -0.7346  1.3633
   10SAPS   O21 1220   2.172   4.275   6.202  0.0399  0.3842 -0.0679
   10SAPS   C21 1221   2.104   4.374   6.245 -0.3047 -0.1814  0.2025
   10SAPS   O22 1222   2.142   4.469   6.309  0.0823  0.2525  0.6690
   10SAPS   C22 1223   1.963   4.356   6.196  0.2200  0.4842 -0.8069
   10SAPS   H2R 1224   1.973   4.329   6.088 -1.3652  1.8078 -1.3161
   10SAPS   H2S 1225   1.918   4.272   6.253  3.4067 -0.1788  0.9809
   10SAPS    C3 1226   2.391   4.217   6.109 -0.0090 -0.2159  0.1401
   10SAPS    HX 1227   2.338   4.120   6.099  0.3058 -0.4753  0.8576
   10SAPS    HY 1228   2.499   4.213   6.133 -0.0346  1.4224  0.6323
   10SAPS   O31 1229   2.360   4.300   5.999 -0.8616 -0.7904  0.3530
   10SAPS   C31 1230   2.424   4.419   5.996 -0.2429 -0.2405 -0.0420
   10SAPS   O32 1231   2.509   4.460   6.077  1.0327  0.3560  0.1621
   10SAPS   C32 1232   2.385   4.491   5.868  0.1467  0.5475  0.5362
   10SAPS   H2X 1233   2.324   4.577   5.904  0.4145 -0.4246  3.6699
   10SAPS   H2Y 1234   2.316   4.432   5.805 -0.4282  3.3544 -1.6442
   10SAPS   C23 1235   1.884   4.479   6.218 -0.4381 -0.4651 -0.4253
   10SAPS   H3R 1236   1.943   4.561   6.171 -1.5494 -0.6677 -2.2357
   10SAPS   H3S 1237   1.876   4.494   6.328  1.5610  0.5178 -0.3636
   10SAPS   C24 1238   1.738   4.496   6.164 -0.6044 -0.0593  0.6984
   10SAPS   H4R 1239   1.736   4.494   6.053  0.1822  0.7492  0.6522
   10SAPS   H4S 1240   1.685   4.588   6.196 -0.1137 -0.2869  2.2407
   10SAPS   C25 1241   1.668   4.374   6.212  0.0507  0.1060 -0.5798
   10SAPS   H5R 1242   1.698   4.333   6.310 -1.9007  0.3109  0.1469
   10SAPS   C26 1243   1.585   4.291   6.151  0.1782 -0.2975  0.6313
   10SAPS   H6R 1244   1.538   4.209   6.206  3.6014 -1.7614  1.6410
   10SAPS   C27 1245   1.541   4.300   6.008  0.6030  0.3259 -0.2842
   10SAPS   H7R 1246   1.575   4.397   5.965  1.6477  0.1711  0.1625
   10SAPS   H7S 1247   1.430   4.308   6.014  0.6128  2.2883 -1.7659
   10SAPS   C28 1248   1.572   4.174   5.931  0.1336 -0.2004 -0.2065
   10SAPS   H8R 1249   1.565   4.080   5.987 -0.6394 -0.1778 -0.2623
   10SAPS   C29 1250   1.607   4.171   5.807 -1.0525  0.2219 -0.9767
   10SAPS   H9R 1251   1.628   4.069   5.773 -0.4167  0.6197 -1.8117
   10SAPS  C210 1252   1.634   4.286   5.718  0.1578 -0.7495  0.3926
   10SAPS  H10R 1253   1.540   4.347   5.720  0.2467 -0.6039  0.0568
   10SAPS  H10S 1254   1.639   4.250   5.614  0.9487 -1.3889  0.6474
   10SAPS  C211 1255   1.757   4.373   5.743 -0.0194  0.5591 -0.0850
   10SAPS  H11R 1256   1.790   4.388   5.846 -1.2023 -0.4424  0.4705
   10SAPS  C212 1257   1.823   4.443   5.648  0.3436  0.7658  0.3331
   10SAPS  H12R 1258   1.917   4.488   5.685 -0.1962 -0.1342  2.9945
   10SAPS  C213 1259   1.795   4.444   5.496 -0.3883  0.0656 -0.0070
   10SAPS  H13R 1260   1.851   4.533   5.462 -0.4200  0.0495 -0.1013
   10SAPS  H13S 1261   1.686   4.446   5.478 -0.1053  0.3261 -1.9087
   10SAPS  C214 1262   1.831   4.315   5.420  0.2554 -0.1749  0.2399
   10SAPS  H14R 1263   1.773   4.226   5.447 -1.6151  0.1695 -2.3114
   10SAPS  C215 1264   1.921   4.305   5.326 -1.0033 -0.6449  0.2318
   10SAPS  H15R 1265   1.934   4.205   5.281 -2.4670 -0.3729 -0.8504
   10SAPS  C216 1266   2.027   4.403   5.281 -0.5390 -0.7960  0.2594
   10SAPS  H16R 1267   2.120   4.344   5.266  2.2658  3.5159 -1.3472
   10SAPS  H16S 1268   2.070   4.472   5.356 -1.5389 -0.2132  0.3153
   10SAPS  C217 1269   1.986   4.461   5.143 -0.8310  0.0692 -0.5570
   10SAPS  H17R 1270   1.942   4.561   5.161 -0.0556 -0.0013  2.1899
   10SAPS  H17S 1271   1.907   4.406   5.088 -1.9750  0.8697  0.2393
   10SAPS  C218 1272   2.101   4.477   5.040  0.3103 -0.0170 -0.0875
   10SAPS  H18R 1273   2.191   4.431   5.085  0.1234 -0.2931  0.0060
   10SAPS  H18S 1274   2.117   4.586   5.031  2.5026 -0.4435 -2.5679
   10SAPS  C219 1275   2.066   4.405   4.911 -0.1849 -0.6202 -0.3663
   10SAPS  H19R 1276   1.959   4.418   4.882 -0.4199 -0.1642  0.6397
   10SAPS  H19S 1277   2.092   4.298   4.925 -0.0299 -0.4432  0.8207
   10SAPS  C220 1278   2.153   4.451   4.783 -0.0959 -0.5928 -0.6192
   10SAPS  H20R 1279   2.136   4.555   4.749 -0.2193 -0.9984 -1.8243
   10SAPS  H20S 1280   2.122   4.388   4.697 -0.8551  1.3407 -1.8233
   10SAPS  H20T 1281   2.257   4.433   4.817 -0.5188 -0.5591  0.7750
   10SAPS   C33 1282   2.500   4.531   5.773  0.4623  0.6757 -0.1022
   10SAPS   H3X 1283   2.540   4.433   5.739 -0.1563  0.5019 -0.3649
   10SAPS   H3Y 1284   2.563   4.611   5.817 -1.5542  2.4622 -0.2525
   10SAPS   C34 1285   2.445   4.596   5.640  0.2949  0.3664  0.1362
   10SAPS   H4X 1286   2.420   4.704   5.646 -0.6580  0.3824 -2.7061
   10SAPS   H4Y 1287   2.351   4.545   5.609  0.3522  0.0651  0.4579
   10SAPS   C35 1288   2.551   4.584   5.529 -0.2059 -0.2016 -0.0516
   10SAPS   H5X 1289   2.567   4.476   5.512  1.6953  0.0348 -0.0660
   10SAPS   H5Y 1290   2.642   4.644   5.552  0.2704 -0.3741 -1.3849
   10SAPS   C36 1291   2.491   4.632   5.404  0.0881  0.0175  1.0768
   10SAPS   H6X 1292   2.459   4.738   5.403  1.6756  0.5499 -0.8960
   10SAPS   H6Y 1293   2.408   4.568   5.368  0.2959 -0.2201  1.0091
   10SAPS   C37 1294   2.599   4.630   5.288 -0.1415  0.5875 -0.8372
   10SAPS   H7X 1295   2.655   4.534   5.294 -0.1037  0.5869 -1.1680
   10SAPS   H7Y 1296   2.674   4.711   5.299  0.0416  0.5313 -1.6047
   10SAPS   C38 1297   2.544   4.634   5.149  0.3574 -0.0939 -0.3650
   10SAPS   H8X 1298   2.610   4.690   5.079 -0.8768  1.4825 -0.3332
   10SAPS   H8Y 1299   2.450   4.691   5.134  1.5566  1.9905 -0.2814
   10SAPS   C39 1300   2.520   4.488   5.101  0.8022  0.6126 -0.6962
   10SAPS   H9X 1301   2.423   4.440   5.126 -0.1312  1.3135 -2.7304
   10SAPS   H9Y 1302   2.606   4.422   5.126 -0.9138 -1.9861 -1.1440
   10SAPS  C310 1303   2.529   4.475   4.947 -0.2118  0.3376 -0.0429
   10SAPS  H10X 1304   2.467   4.554   4.899  2.3437  1.4340 -1.6911
   10SAPS  H10Y 1305   2.477   4.380   4.921 -1.6663  0.9725  0.4297
   10SAPS  C311 1306   2.670   4.456   4.894 -0.7080 -0.0344  0.4193
   10SAPS  H11X 1307   2.721   4.389   4.967 -0.2348 -0.1492 -0.0140
   10SAPS  H11Y 1308   2.722   4.554   4.894 -1.1869  0.2233  0.0888
   10SAPS  C312 1309   2.671   4.399   4.751  0.1899 -0.8231  0.4841
   10SAPS  H12X 1310   2.593   4.321   4.742 -1.3462  0.6780  0.2356
   10SAPS  H12Y 1311   2.762   4.345   4.719 -0.0675 -0.9018 -0.1334
   10SAPS  C313 1312   2.618   4.500   4.635  0.4228 -0.3277 -1.0909
   10SAPS  H13X 1313   2.509   4.520   4.638 -0.0626 -2.7969  0.5384
   10SAPS  H13Y 1314   2.647   4.453   4.538  3.2646 -1.3591  0.1530
   10SAPS  C314 1315   2.694   4.632   4.636 -0.7108  0.1306  0.0668
   10SAPS  H14X 1316   2.702   4.682   4.735  2.6411  0.0275 -0.0462
   10SAPS  H14Y 1317   2.634   4.699   4.571 -0.1334  0.6105  0.0229
   10SAPS  C315 1318   2.838   4.611   4.593  0.6578 -0.9247  0.0513
   10SAPS  H15X 1319   2.843   4.577   4.487 -0.8576  2.5230 -1.2861
   10SAPS  H15Y 1320   2.899   4.547   4.660  1.2181 -0.4193  0.0397
   10SAPS  C316 1321   2.910   4.747   4.578  0.2643  0.3445 -0.3601
   10SAPS  H16X 1322   2.920   4.793   4.679 -0.0500 -0.0711 -0.1381
   10SAPS  H16Y 1323   2.834   4.813   4.531 -1.2248  0.4656  2.0417
   10SAPS  C317 1324   3.037   4.743   4.497 -0.2899 -0.1939 -0.1783
   10SAPS  H17X 1325   3.012   4.720   4.391  2.3386  0.0849 -0.9328
   10SAPS  H17Y 1326   3.094   4.664   4.550 -1.7011 -0.2782  1.2862
   10SAPS  C318 1327   3.109   4.878   4.502 -0.8798 -0.0367 -0.3921
   10SAPS  H18X 1328   3.128   4.893   4.611 -0.9612 -0.9482 -0.2457
   10SAPS  H18Y 1329   3.052   4.970   4.474 -0.1192  1.0244  1.3357
   10SAPS  H18Z 1330   3.203   4.873   4.444 -0.8178 -2.1258 -0.1748
   11SAPS     N 1331   4.630   3.821   1.637  0.8077 -0.3815  0.2167
   11SAPS   HN1 1332   4.581   3.886   1.701  1.1697  1.4222 -1.2627
   11SAPS   HN2 1333   4.605   3.722   1.658  0.0442 -0.3012 -0.3052
   11SAPS   HN3 1334   4.731   3.833   1.660  1.0958 -0.3146 -1.0495
   11SAPS   C12 1335   4.584   3.849   1.495  0.4949  0.0114  0.1923
   11SAPS  H12A 1336   4.599   3.954   1.473 -0.5751  0.2180  0.3903
   11SAPS   C13 1337   4.670   3.758   1.401  0.1634  0.2685 -0.3050
   11SAPS  O13A 1338   4.758   3.676   1.450 -0.1277 -0.1591 -0.6921
   11SAPS  O13B 1339   4.644   3.754   1.279  0.6115  0.0619 -0.4742
   11SAPS   C11 1340   4.432   3.805   1.473  0.6201  0.2964  0.0827
   11SAPS  H11A 1341   4.430   3.698   1.501  0.4468  0.2378 -0.1525
   11SAPS  H11B 1342   4.398   3.810   1.367 -0.1065  2.4285  0.3594
   11SAPS     P 1343   4.202   3.875   1.582 -0.0183 -0.1892  0.1101
   11SAPS   O13 1344   4.144   4.008   1.559 -0.3267  0.8637 -0.3169
   11SAPS   O14 1345   4.143   3.767   1.499  0.4853 -0.2911 -0.0650
   11SAPS   O12 1346   4.348   3.891   1.550 -0.3887 -0.4874 -0.1884
   11SAPS   O11 1347   4.202   3.827   1.734 -0.6419 -0.0395 -0.6148
   11SAPS    C1 1348   4.250   3.698   1.772 -0.4539  0.3372  0.6640
   11SAPS    HA 1349   4.197   3.621   1.713 -0.5769  1.4559 -0.7335
   11SAPS    HB 1350   4.360   3.701   1.761 -0.6044  0.8985 -0.9058
   11SAPS    C2 1351   4.221   3.682   1.931  0.1590  0.6906  0.9329
   11SAPS    HS 1352   4.246   3.578   1.963  3.2326  1.3227  0.9181
   11SAPS   O21 1353   4.090   3.735   1.959 -0.2106  0.8616  0.3323
   11SAPS   C21 1354   3.998   3.640   1.981 -0.1355 -0.0651  0.1806
   11SAPS   O22 1355   4.006   3.523   1.951  0.7147  0.3687  0.0494
   11SAPS   C22 1356   3.876   3.709   2.042 -0.4838 -0.5490  0.1665
   11SAPS   H2R 1357   3.911   3.807   2.081  2.3273 -0.4673 -2.1535
   11SAPS   H2S 1358   3.812   3.726   1.953 -3.3372 -1.2118  1.9549
   11SAPS    C3 1359   4.328   3.770   2.006 -0.0642 -0.4590  0.1340
   11SAPS    HX 1360   4.330   3.873   1.962 -1.0851 -0.7678 -0.6856
   11SAPS    HY 1361   4.422   3.720   1.975  0.3527 -0.6398  1.6222
   11SAPS   O31 1362   4.319   3.749   2.148 -0.4841 -0.2575  0.3457
   11SAPS   C31 1363   4.244   3.836   2.226 -0.1173  0.4755  0.2578
   11SAPS   O32 1364   4.199   3.940   2.184  0.3754  0.6950  0.4882
   11SAPS   C32 1365   4.222   3.785   2.370 -0.4346 -0.0325  0.0313
   11SAPS   H2X 1366   4.122   3.814   2.409 -0.3845 -0.2538  0.3304
   11SAPS   H2Y 1367   4.296   3.834   2.437  0.5673 -3.8823  2.0488
   11SAPS   C23 1368   3.800   3.621   2.144 -0.7261  0.1863 -0.1410
   11SAPS   H3R 1369   3.798   3.513   2.118  2.6973  0.2518 -1.1665
   11SAPS   H3S 1370   3.696   3.661   2.148 -0.8548  0.4756 -3.6915
   11SAPS   C24 1371   3.872   3.637   2.279 -0.6831 -0.7971 -0.6728
   11SAPS   H4R 1372   3.914   3.737   2.305  2.9379 -1.2292 -3.8573
   11SAPS   H4S 1373   3.963   3.575   2.263 -0.4611 -0.7441  0.3142
   11SAPS   C25 1374   3.797   3.574   2.393 -0.2551  0.0469 -0.8913
   11SAPS   H5R 1375   3.792   3.464   2.387  0.9930  0.0450 -3.5825
   11SAPS   C26 1376   3.733   3.632   2.491  0.5332 -0.4513 -0.3275
   11SAPS   H6R 1377   3.699   3.574   2.577 -0.4392  1.1022  0.3919
   11SAPS   C27 1378   3.716   3.783   2.509  0.4734 -0.3967  0.7019
   11SAPS   H7R 1379   3.676   3.825   2.414  1.3081  0.2259  0.6117
   11SAPS   H7S 1380   3.816   3.831   2.509  0.3484 -0.0801 -0.7555
   11SAPS   C28 1381   3.636   3.824   2.625 -0.5286 -0.0248  0.0938
   11SAPS   H8R 1382   3.533   3.856   2.601 -0.5548 -0.0709  0.1438
   11SAPS   C29 1383   3.678   3.821   2.748  0.0352 -0.0285 -0.3756
   11SAPS   H9R 1384   3.607   3.828   2.832  0.3040 -1.2943 -0.0209
   11SAPS  C210 1385   3.822   3.783   2.788 -0.4053  0.1544  1.0269
   11SAPS  H10R 1386   3.883   3.870   2.821  0.7222 -0.6676  1.1660
   11SAPS  H10S 1387   3.879   3.759   2.695 -1.8376 -1.1777  0.4623
   11SAPS  C211 1388   3.845   3.669   2.881 -0.0502 -0.5122  0.5352
   11SAPS  H11R 1389   3.887   3.583   2.828 -1.0452 -0.5947 -0.1537
   11SAPS  C212 1390   3.795   3.660   3.012 -0.4559  0.8821 -0.0334
   11SAPS  H12R 1391   3.806   3.563   3.063 -0.1635  0.4884 -0.8188
   11SAPS  C213 1392   3.725   3.777   3.079 -0.6038  0.1079 -0.0964
   11SAPS  H13R 1393   3.624   3.793   3.035 -0.8221  0.3468  0.4877
   11SAPS  H13S 1394   3.780   3.871   3.059 -1.2928  0.0568 -2.5760
   11SAPS  C214 1395   3.699   3.763   3.224 -0.4122  0.4803  0.6727
   11SAPS  H14R 1396   3.717   3.664   3.268 -0.9315  0.3136  0.5148
   11SAPS  C215 1397   3.646   3.862   3.299 -0.4985  0.7447  0.6696
   11SAPS  H15R 1398   3.644   3.845   3.408 -1.2135 -0.9264  0.4270
   11SAPS  C216 1399   3.612   3.999   3.246  0.1519 -0.2100  0.4231
   11SAPS  H16R 1400   3.501   4.009   3.255 -0.2232 -0.8427 -2.6152
   11SAPS  H16S 1401   3.627   4.019   3.138 -2.1648  1.4838  0.3202
   11SAPS  C217 1402   3.671   4.111   3.328 -0.0603  0.3025  0.2201
   11SAPS  H17R 1403   3.770   4.124   3.278 -0.0207  2.2309  0.7384
   11SAPS  H17S 1404   3.688   4.081   3.434  0.6635  0.3540  0.1227
   11SAPS  C218 1405   3.597   4.246   3.323  0.4998 -0.7524  0.4041
   11SAPS  H18R 1406   3.649   4.308   3.399  1.1349  0.3648 -0.8914
   11SAPS  H18S 1407   3.501   4.229   3.376  0.3372  0.5770  0.5802
   11SAPS  C219 1408   3.594   4.317   3.190  0.1151 -0.2955  0.4763
   11SAPS  H19R 1409   3.514   4.266   3.133  0.4780 -3.7115  2.7125
   11SAPS  H19S 1410   3.693   4.306   3.140 -0.1888  0.3002 -0.2805
   11SAPS  C220 1411   3.555   4.462   3.199 -0.2498 -0.4116 -0.7512
   11SAPS  H20R 1412   3.457   4.482   3.246 -0.8382  0.5201 -2.2828
   11SAPS  H20S 1413   3.558   4.514   3.101  1.3281 -1.2758 -1.2076
   11SAPS  H20T 1414   3.635   4.512   3.259 -0.5507 -0.5720 -0.2150
   11SAPS   C33 1415   4.223   3.635   2.389  0.2976  0.1013  0.3560
   11SAPS   H3X 1416   4.327   3.595   2.387  0.8587  1.5236 -0.1612
   11SAPS   H3Y 1417   4.173   3.587   2.302  1.1250  0.7720 -0.5141
   11SAPS   C34 1418   4.165   3.586   2.529  0.0287 -0.4101 -0.3334
   11SAPS   H4X 1419   4.182   3.476   2.529  5.7125  0.1358 -2.1665
   11SAPS   H4Y 1420   4.055   3.600   2.527  0.1622  0.8107 -1.9316
   11SAPS   C35 1421   4.237   3.645   2.648 -0.8578 -0.4674 -0.2174
   11SAPS   H5X 1422   4.176   3.602   2.731 -1.8034 -0.4457 -0.8888
   11SAPS   H5Y 1423   4.239   3.756   2.655  1.4441 -0.3328 -2.1240
   11SAPS   C36 1424   4.393   3.609   2.653  0.4545 -0.5659  0.2502
   11SAPS   H6X 1425   4.444   3.652   2.565 -0.4259 -0.3339 -0.1543
   11SAPS   H6Y 1426   4.402   3.498   2.657  1.6224 -0.4786  0.4034
   11SAPS   C37 1427   4.456   3.652   2.786  0.4739  0.8544 -0.3671
   11SAPS   H7X 1428   4.494   3.756   2.781  1.1322  0.7066  1.2042
   11SAPS   H7Y 1429   4.552   3.596   2.796 -0.3069 -0.6440 -0.9932
   11SAPS   C38 1430   4.377   3.655   2.918  0.1400  0.6544  1.0831
   11SAPS   H8X 1431   4.334   3.554   2.938  0.6417 -0.4275 -2.5751
   11SAPS   H8Y 1432   4.302   3.736   2.903  0.5840  0.8370 -0.2554
   11SAPS   C39 1433   4.478   3.671   3.038  0.5750 -0.2263  0.5243
   11SAPS   H9X 1434   4.517   3.775   3.031  0.1296 -0.0893  0.0341
   11SAPS   H9Y 1435   4.558   3.596   3.023 -0.5439 -1.1760 -0.9541
   11SAPS  C310 1436   4.410   3.655   3.178 -0.5698  0.8238  0.7372
   11SAPS  H10X 1437   4.370   3.551   3.177 -0.2268  0.6838 -0.5353
   11SAPS  H10Y 1438   4.330   3.730   3.193  0.3070  1.4254  2.7087
   11SAPS  C311 1439   4.507   3.661   3.301  0.2973 -0.8235  0.1590
   11SAPS  H11X 1440   4.555   3.561   3.305 -0.6789 -1.3210 -0.1068
   11SAPS  H11Y 1441   4.435   3.668   3.386 -0.0447 -0.0474 -0.1820
   11SAPS  C312 1442   4.592   3.790   3.309  0.7556 -0.8381 -0.0858
   11SAPS  H12X 1443   4.530   3.877   3.279  0.8934 -0.7216 -0.0295
   11SAPS  H12Y 1444   4.676   3.779   3.238  1.6229 -0.5716  0.8816
   11SAPS  C313 1445   4.648   3.806   3.454 -0.3410 -0.1196  0.1431
   11SAPS  H13X 1446   4.568   3.775   3.525  1.4443 -2.3617  1.3256
   11SAPS  H13Y 1447   4.664   3.915   3.467 -3.9126  1.2224 -4.3244
   11SAPS  C314 1448   4.776   3.732   3.479 -0.8025  0.4167 -0.4910
   11SAPS  H14X 1449   4.865   3.778   3.431  0.3716 -0.5753  0.6539
   11SAPS  H14Y 1450   4.770   3.628   3.438  0.0889  1.7596 -4.5298
   11SAPS  C315 1451   4.809   3.723   3.629 -0.4055  0.0061 -0.1780
   11SAPS  H15X 1452   4.737   3.652   3.675 -0.6324  2.3875  3.5150
   11SAPS  H15Y 1453   4.775   3.816   3.679 -2.5527  0.4767 -2.3391
   11SAPS  C316 1454   4.956   3.684   3.657 -0.1738 -0.4838  0.4044
   11SAPS  H16X 1455   5.038   3.753   3.629 -0.7011 -0.1738 -0.4146
   11SAPS  H16Y 1456   4.976   3.583   3.615  1.8096 -0.2922  0.7893
   11SAPS  C317 1457   4.983   3.663   3.808 -0.1831 -0.7239  0.5682
   11SAPS  H17X 1458   4.968   3.761   3.859  0.8394 -0.6635  0.7633
   11SAPS  H17Y 1459   5.088   3.639   3.834  0.0507  1.3706  1.8417
   11SAPS  C318 1460   4.898   3.549   3.872  0.3841  0.0990 -0.0734
   11SAPS  H18X 1461   4.787   3.555   3.863 -0.0316  0.3697  3.5792
   11SAPS  H18Y 1462   4.915   3.556   3.982  0.7158  2.4396 -0.2171
   11SAPS  H18Z 1463   4.934   3.448   3.845 -0.5392 -0.4234  0.6018
   12SAPS     N 1464   4.274   1.886   1.947 -0.1812 -0.2911  1.0298
   12SAPS   HN1 1465   4.363   1.835   1.930  0.1528  0.9245 -1.1581
   12SAPS   HN2 1466   4.280   1.968   2.010  1.6863  0.3569  0.0883
   12SAPS   HN3 1467   4.205   1.817   1.984  0.1541 -0.8562  0.6091
   12SAPS   C12 1468   4.221   1.935   1.816  0.2621 -0.1393  0.9010
   12SAPS  H12A 1469   4.292   1.995   1.762 -1.2776  0.8641 -0.0949
   12SAPS   C13 1470   4.181   1.819   1.717 -0.6182  0.2055 -0.0179
   12SAPS  O13A 1471   4.201   1.697   1.746  0.6146  0.1851  0.2915
   12SAPS  O13B 1472   4.106   1.849   1.619 -0.1749  0.3811  0.5543
   12SAPS   C11 1473   4.096   2.019   1.840  0.1050 -0.0176 -0.4531
   12SAPS  H11A 1474   4.016   1.953   1.882 -0.5624  1.8991  1.4769
   12SAPS  H11B 1475   4.055   2.059   1.745 -0.6400 -0.8750 -0.5128
   12SAPS     P 1476   4.084   2.143   2.075  0.0684 -0.7727 -0.2442
   12SAPS   O13 1477   4.211   2.093   2.138  0.2463  0.2324  0.7256
   12SAPS   O14 1478   4.025   2.272   2.108  0.2222 -0.4040  0.0180
   12SAPS   O12 1479   4.118   2.132   1.921 -0.1778  0.4229 -0.0564
   12SAPS   O11 1480   3.981   2.025   2.085 -0.3244  0.0738 -0.5089
   12SAPS    C1 1481   3.871   2.037   2.171 -0.1115 -0.0899 -0.3342
   12SAPS    HA 1482   3.810   2.128   2.150  1.0509  1.7557  3.4395
   12SAPS    HB 1483   3.809   1.945   2.171  2.6206 -2.0524  0.9696
   12SAPS    C2 1484   3.917   2.045   2.325  0.6835  0.2550 -0.2586
   12SAPS    HS 1485   3.962   2.143   2.349  0.1748  0.3390  0.3646
   12SAPS   O21 1486   4.013   1.935   2.347  0.5483 -0.3864 -0.0976
   12SAPS   C21 1487   4.122   1.962   2.418  0.4851 -0.0375 -0.2376
   12SAPS   O22 1488   4.132   2.055   2.494 -0.2880  0.3140 -0.0715
   12SAPS   C22 1489   4.226   1.850   2.421 -0.2953 -0.5118  0.1889
   12SAPS   H2R 1490   4.177   1.758   2.458 -1.0232 -0.1738  0.0782
   12SAPS   H2S 1491   4.250   1.827   2.315  0.8925  0.3653  0.2340
   12SAPS    C3 1492   3.793   2.034   2.417  0.2178  0.2020 -0.0184
   12SAPS    HX 1493   3.735   1.952   2.371  1.5114 -0.1785 -1.0464
   12SAPS    HY 1494   3.726   2.122   2.409 -1.5245 -1.0314  0.4925
   12SAPS   O31 1495   3.812   2.001   2.556 -0.4583  0.1626  0.5891
   12SAPS   C31 1496   3.805   2.099   2.648  0.7697  0.0046  0.2210
   12SAPS   O32 1497   3.811   2.217   2.611  0.4207  0.0119 -0.3400
   12SAPS   C32 1498   3.772   2.048   2.781 -0.3243  0.7979 -1.0664
   12SAPS   H2X 1499   3.805   1.942   2.785 -1.5567  0.3928 -1.3223
   12SAPS   H2Y 1500   3.662   2.045   2.791 -0.4610  0.7422 -2.3866
   12SAPS   C23 1501   4.345   1.898   2.501  0.3777 -0.7221  0.4553
   12SAPS   H3R 1502   4.366   2.002   2.466 -2.3053  0.2563  1.4926
   12SAPS   H3S 1503   4.431   1.839   2.462 -1.1947 -2.2094 -0.9143
   12SAPS   C24 1504   4.335   1.905   2.652  0.4928  0.0388 -0.6253
   12SAPS   H4R 1505   4.249   1.968   2.682 -0.4922 -2.5137  2.4859
   12SAPS   H4S 1506   4.432   1.944   2.690  0.2533 -0.6957  0.7927
   12SAPS   C25 1507   4.323   1.768   2.717 -0.3667 -0.4222  0.6645
   12SAPS   H5R 1508   4.388   1.687   2.679 -0.1129  0.4537 -0.8857
   12SAPS   C26 1509   4.241   1.745   2.823 -0.1536 -0.3401 -0.7646
   12SAPS   H6R 1510   4.247   1.651   2.879 -0.4521  0.4063  0.5649
   12SAPS   C27 1511   4.150   1.843   2.894  0.1082  0.3606 -0.8857
   12SAPS   H7R 1512   4.086   1.882   2.811 -1.8544 -1.0333 -0.1012
   12SAPS   H7S 1513   4.207   1.930   2.934  0.2041  1.4953 -3.2922
   12SAPS   C28 1514   4.069   1.791   3.013  0.1437 -0.6504  1.0092
   12SAPS   H8R 1515   4.006   1.709   2.976 -0.2429  0.6032 -1.2412
   12SAPS   C29 1516   4.073   1.817   3.141 -0.1014 -0.5305 -0.0561
   12SAPS   H9R 1517   4.007   1.764   3.211  0.5125 -1.0414  0.1418
   12SAPS  C210 1518   4.157   1.926   3.203 -0.4472 -1.1139 -0.4018
   12SAPS  H10R 1519   4.123   1.957   3.304  1.0531  0.3902 -0.3276
   12SAPS  H10S 1520   4.155   2.020   3.144  1.6627 -0.2410  0.8114
   12SAPS  C211 1521   4.297   1.879   3.210  0.1617 -0.8303  0.3035
   12SAPS  H11R 1522   4.342   1.869   3.110  0.5518 -0.2631  0.4181
   12SAPS  C212 1523   4.373   1.849   3.319  0.3187  0.0295  0.4765
   12SAPS  H12R 1524   4.477   1.821   3.295  0.1454  1.5626 -2.4891
   12SAPS  C213 1525   4.348   1.864   3.463 -0.0449  0.1146 -0.3830
   12SAPS  H13R 1526   4.377   1.768   3.511  2.3242  1.4082  1.0053
   12SAPS  H13S 1527   4.238   1.872   3.470  0.1137  1.8767  0.7701
   12SAPS  C214 1528   4.416   1.982   3.527  0.1180 -0.2464  0.2722
   12SAPS  H14R 1529   4.478   2.039   3.456 -0.9001  2.1363  1.1782
   12SAPS  C215 1530   4.404   2.033   3.653  0.6509 -0.4623  0.1313
   12SAPS  H15R 1531   4.465   2.115   3.693  1.5763 -1.9721  1.9758
   12SAPS  C216 1532   4.305   1.978   3.760  0.2217  0.2018 -0.5745
   12SAPS  H16R 1533   4.211   1.940   3.714  1.5532 -3.0889 -0.8319
   12SAPS  H16S 1534   4.273   2.062   3.825 -0.9205 -0.9819  0.4536
   12SAPS  C217 1535   4.363   1.870   3.846 -0.1194  0.7416 -0.6334
   12SAPS  H17R 1536   4.453   1.908   3.899 -0.5263 -1.5156  1.9081
   12SAPS  H17S 1537   4.394   1.780   3.789 -0.7307 -2.3512  3.3966
   12SAPS  C218 1538   4.285   1.803   3.960 -0.2403  0.1236  0.1111
   12SAPS  H18R 1539   4.196   1.750   3.921  0.4453 -2.1903  1.5316
   12SAPS  H18S 1540   4.242   1.874   4.034  2.9896  2.3151  0.0972
   12SAPS  C219 1541   4.371   1.708   4.041 -0.0149 -0.0466  0.0274
   12SAPS  H19R 1542   4.460   1.758   4.085 -0.5194 -0.6543  1.8319
   12SAPS  H19S 1543   4.407   1.634   3.967 -0.9031 -1.5335  1.0279
   12SAPS  C220 1544   4.298   1.626   4.148 -0.3978 -0.0621 -0.5965
   12SAPS  H20R 1545   4.232   1.548   4.105  0.4197 -1.2936  0.3028
   12SAPS  H20S 1546   4.236   1.691   4.213 -1.1972 -0.6483 -0.7446
   12SAPS  H20T 1547   4.368   1.573   4.216  1.1449  2.9962  0.3342
   12SAPS   C33 1548   3.829   2.142   2.895 -0.4463 -0.4033 -0.7118
   12SAPS   H3X 1549   3.782   2.243   2.897  0.4616  0.1013 -2.6550
   12SAPS   H3Y 1550   3.936   2.157   2.873  0.1102  0.4872  2.1770
   12SAPS   C34 1551   3.813   2.069   3.033  0.6679  0.4280 -0.2759
   12SAPS   H4X 1552   3.857   1.967   3.025  0.5526  0.4797 -1.9292
   12SAPS   H4Y 1553   3.705   2.045   3.050  0.3045  1.3672 -1.1682
   12SAPS   C35 1554   3.866   2.134   3.164 -0.2796 -0.7673  0.3570
   12SAPS   H5X 1555   3.831   2.238   3.179  0.1315 -0.5656 -0.0653
   12SAPS   H5Y 1556   3.977   2.123   3.164 -0.0012  1.2022 -2.1586
   12SAPS   C36 1557   3.794   2.066   3.285 -1.0506 -0.9061 -0.0037
   12SAPS   H6X 1558   3.800   1.957   3.263  0.6968 -1.1156  1.3143
   12SAPS   H6Y 1559   3.689   2.104   3.291 -0.4410  1.4957 -2.5842
   12SAPS   C37 1560   3.880   2.079   3.416 -0.1485 -0.1051 -0.0816
   12SAPS   H7X 1561   3.984   2.061   3.383 -0.5354 -2.9647 -0.0621
   12SAPS   H7Y 1562   3.855   1.996   3.486  1.1116  0.3471  0.9327
   12SAPS   C38 1563   3.852   2.220   3.469 -0.3019  0.2323  0.6857
   12SAPS   H8X 1564   3.745   2.247   3.477  0.1030  2.1279  0.3369
   12SAPS   H8Y 1565   3.886   2.287   3.387 -0.8244  3.6624  3.0531
   12SAPS   C39 1566   3.932   2.262   3.597  0.4484 -0.5891  0.4196
   12SAPS   H9X 1567   3.946   2.373   3.595  0.7355 -0.6250  0.3901
   12SAPS   H9Y 1568   4.037   2.228   3.599  1.8898  3.3564  0.1432
   12SAPS  C310 1569   3.866   2.222   3.728  0.0537  0.0366 -0.4996
   12SAPS  H10X 1570   3.758   2.249   3.722 -0.5657 -1.8675  1.0032
   12SAPS  H10Y 1571   3.908   2.290   3.806  1.7989 -1.1058 -0.4007
   12SAPS  C311 1572   3.891   2.077   3.774 -0.9190  0.5575 -0.6564
   12SAPS  H11X 1573   3.997   2.061   3.801 -1.3422 -1.6114 -0.0441
   12SAPS  H11Y 1574   3.874   2.001   3.695 -0.7542  1.5882 -1.7035
   12SAPS  C312 1575   3.821   2.043   3.908  0.0608  0.8869 -0.1369
   12SAPS  H12X 1576   3.719   2.005   3.886  1.6725 -3.1794 -1.4402
   12SAPS  H12Y 1577   3.823   2.134   3.973  0.0117  0.5341  0.3657
   12SAPS  C313 1578   3.884   1.930   4.001  0.5033 -0.2529  0.3582
   12SAPS  H13X 1579   3.993   1.948   4.003  0.4102  0.2773  0.7196
   12SAPS  H13Y 1580   3.870   1.839   3.939  2.2650  0.9932 -2.0432
   12SAPS  C314 1581   3.829   1.924   4.139  0.1778  1.1045  0.3533
   12SAPS  H14X 1582   3.717   1.925   4.138  0.1631  1.1830  1.4178
   12SAPS  H14Y 1583   3.857   2.022   4.184 -0.1297  1.9659 -1.2537
   12SAPS  C315 1584   3.880   1.804   4.221  0.4100 -0.6145 -0.1364
   12SAPS  H15X 1585   3.991   1.797   4.208  0.2074 -0.3280 -2.4869
   12SAPS  H15Y 1586   3.843   1.703   4.191  0.6701 -0.8490  0.3248
   12SAPS  C316 1587   3.870   1.834   4.379  0.2385 -0.0608  0.0704
   12SAPS  H16X 1588   3.764   1.858   4.405  0.1248  0.9485 -1.2296
   12SAPS  H16Y 1589   3.920   1.932   4.398 -0.6002  0.3351  0.3184
   12SAPS  C317 1590   3.924   1.723   4.465 -0.2416  0.0632 -0.5308
   12SAPS  H17X 1591   3.893   1.622   4.431  0.7293 -0.4608  0.0636
   12SAPS  H17Y 1592   3.882   1.733   4.567 -1.6372 -1.2789 -0.9319
   12SAPS  C318 1593   4.077   1.727   4.462  0.1306 -0.0447  1.4082
   12SAPS  H18X 1594   4.121   1.726   4.360 -1.0868 -0.0327  0.8754
   12SAPS  H18Y 1595   4.109   1.638   4.520  1.3631 -1.2374 -0.9803
   12SAPS  H18Z 1596   4.118   1.818   4.512  1.5614 -0.1394  0.4547
   13SAPS     N 1597   5.817   2.767   2.305 -0.5571 -0.5468  0.3396
   13SAPS   HN1 1598   5.782   2.844   2.244  0.5023 -2.1996 -2.5967
   13SAPS   HN2 1599   5.792   2.783   2.404 -2.0649  0.0931 -0.1195
   13SAPS   HN3 1600   5.918   2.773   2.277 -0.9421  0.0671 -1.0224
   13SAPS   C12 1601   5.769   2.633   2.258 -0.6827  0.4829  0.4920
   13SAPS  H12A 1602   5.662   2.636   2.273 -0.6705 -0.5401  0.8458
   13SAPS   C13 1603   5.798   2.612   2.107  0.6054  0.1441  0.9417
   13SAPS  O13A 1604   5.770   2.499   2.061 -0.2992  0.5348  0.2485
   13SAPS  O13B 1605   5.836   2.703   2.035 -0.0473  0.2438 -0.3263
   13SAPS   C11 1606   5.830   2.514   2.343  0.1283  0.1577 -0.3629
   13SAPS  H11A 1607   5.940   2.519   2.328  0.4311 -0.7730  1.2615
   13SAPS  H11B 1608   5.797   2.415   2.305  0.7171  0.9656 -3.2549
   13SAPS     P 1609   5.675   2.485   2.558 -0.2428  0.0656  0.4560
   13SAPS   O13 1610   5.599   2.598   2.619  0.6542  0.5391 -0.1121
   13SAPS   O14 1611   5.598   2.395   2.468  0.0690 -0.0961 -0.2467
   13SAPS   O12 1612   5.810   2.534   2.486  0.0098 -0.4035 -0.1047
   13SAPS   O11 1613   5.732   2.388   2.668  0.4774 -0.5133 -0.7221
   13SAPS    C1 1614   5.870   2.376   2.706 -0.4010  0.0325  0.2424
   13SAPS    HA 1615   5.889   2.293   2.778  1.3109  3.8932  4.7803
   13SAPS    HB 1616   5.931   2.341   2.621 -0.0292 -1.6897  1.1595
   13SAPS    C2 1617   5.932   2.499   2.763  0.8880  0.2519 -0.0114
   13SAPS    HS 1618   5.931   2.577   2.684 -3.1466 -2.2819 -2.8537
   13SAPS   O21 1619   6.059   2.460   2.807 -0.3330  0.3138 -0.3959
   13SAPS   C21 1620   6.158   2.551   2.799  0.1502 -0.7067  0.2040
   13SAPS   O22 1621   6.140   2.663   2.743 -0.0180  0.1141  0.2832
   13SAPS   C22 1622   6.285   2.511   2.869  0.5398  0.0524 -0.9238
   13SAPS   H2R 1623   6.255   2.472   2.969  0.7876 -0.3940 -1.0206
   13SAPS   H2S 1624   6.334   2.426   2.818  0.2535 -0.3520 -0.5386
   13SAPS    C3 1625   5.859   2.540   2.890  0.2146 -0.4936 -0.1739
   13SAPS    HX 1626   5.751   2.561   2.871  0.2279  0.3621  0.6185
   13SAPS    HY 1627   5.906   2.635   2.922 -2.0446  0.4695  0.4747
   13SAPS   O31 1628   5.869   2.456   3.009 -0.4026  0.2357 -0.5355
   13SAPS   C31 1629   5.964   2.481   3.096  0.2448  0.1444 -0.0192
   13SAPS   O32 1630   6.052   2.564   3.093 -0.3395 -0.6905 -0.2153
   13SAPS   C32 1631   5.940   2.394   3.219  0.1344  0.7432  0.0190
   13SAPS   H2X 1632   6.010   2.308   3.208 -1.4081 -0.5672  0.2060
   13SAPS   H2Y 1633   5.838   2.352   3.226  0.0152  0.6309 -1.8302
   13SAPS   C23 1634   6.394   2.620   2.878  0.0749  0.3992 -0.2837
   13SAPS   H3R 1635   6.347   2.707   2.927 -1.0076 -0.9202  1.1367
   13SAPS   H3S 1636   6.433   2.652   2.780  0.6984  3.4587  0.8510
   13SAPS   C24 1637   6.510   2.589   2.975 -0.5009  0.0275  0.7018
   13SAPS   H4R 1638   6.459   2.559   3.069 -0.4310 -3.7488 -0.3082
   13SAPS   H4S 1639   6.576   2.679   2.971  0.0195 -0.3266  1.2333
   13SAPS   C25 1640   6.592   2.475   2.933 -0.0544  0.0732  0.0367
   13SAPS   H5R 1641   6.573   2.448   2.828 -1.1363  1.1757 -0.0735
   13SAPS   C26 1642   6.676   2.392   2.996 -0.2469 -0.8417 -0.6995
   13SAPS   H6R 1643   6.733   2.319   2.936  2.0154  0.7041 -0.5571
   13SAPS   C27 1644   6.721   2.397   3.145  0.2598  0.0909 -0.7085
   13SAPS   H7R 1645   6.719   2.289   3.172  1.2878 -0.5683 -2.9964
   13SAPS   H7S 1646   6.656   2.454   3.215  2.1180  0.0272  1.1688
   13SAPS   C28 1647   6.855   2.448   3.163 -0.3835 -0.4395 -0.2665
   13SAPS   H8R 1648   6.914   2.483   3.077  0.0583 -0.1592  0.1437
   13SAPS   C29 1649   6.918   2.461   3.285 -0.1137  1.0912  1.0512
   13SAPS   H9R 1650   7.021   2.499   3.277  0.1644  0.0587 -0.8898
   13SAPS  C210 1651   6.853   2.427   3.417 -0.5270 -0.4487 -0.8159
   13SAPS  H10R 1652   6.933   2.380   3.478 -1.3853 -1.3435 -0.3354
   13SAPS  H10S 1653   6.784   2.341   3.404 -0.5204 -0.4242 -1.0077
   13SAPS  C211 1654   6.805   2.538   3.502  0.8364 -0.0320 -0.5827
   13SAPS  H11R 1655   6.788   2.638   3.458 -2.9109 -0.7008 -1.0465
   13SAPS  C212 1656   6.755   2.530   3.627  0.4230 -0.4800 -0.2036
   13SAPS  H12R 1657   6.720   2.621   3.676 -0.9141 -0.4250 -1.2274
   13SAPS  C213 1658   6.751   2.402   3.706  0.7873  0.1417 -0.1056
   13SAPS  H13R 1659   6.765   2.312   3.642  0.4017 -0.0123  0.0210
   13SAPS  H13S 1660   6.649   2.389   3.749  0.5908  1.0026 -0.2891
   13SAPS  C214 1661   6.851   2.412   3.820 -0.8462  0.0767 -0.2047
   13SAPS  H14R 1662   6.950   2.369   3.795 -2.4741 -3.5012 -1.1478
   13SAPS  C215 1663   6.846   2.477   3.936  0.7321  0.9126 -0.6541
   13SAPS  H15R 1664   6.934   2.481   4.001  1.8972  0.2528 -2.1232
   13SAPS  C216 1665   6.731   2.557   3.988  0.1443  1.1368  0.8792
   13SAPS  H16R 1666   6.640   2.560   3.924 -0.4319  2.0594  1.7048
   13SAPS  H16S 1667   6.759   2.663   4.007 -1.6710  1.9437 -0.5624
   13SAPS  C217 1668   6.676   2.503   4.121 -0.2292  1.0579 -0.7216
   13SAPS  H17R 1669   6.764   2.488   4.187  0.5367  2.2820 -1.4502
   13SAPS  H17S 1670   6.627   2.403   4.120  0.1890  0.8354  0.1752
   13SAPS  C218 1671   6.576   2.608   4.189 -0.5148  0.1248 -0.1574
   13SAPS  H18R 1672   6.479   2.598   4.135  0.8556 -2.6432 -2.3876
   13SAPS  H18S 1673   6.626   2.705   4.172 -3.5068  1.8603  0.1460
   13SAPS  C219 1674   6.551   2.595   4.343  0.0641  0.1894 -0.0828
   13SAPS  H19R 1675   6.650   2.586   4.394  0.5210  0.7303 -0.8441
   13SAPS  H19S 1676   6.497   2.498   4.349 -3.8104  2.1826  0.3978
   13SAPS  C220 1677   6.474   2.713   4.408 -1.0437 -0.0430 -0.0150
   13SAPS  H20R 1678   6.423   2.671   4.497  0.6803  1.2421  1.6751
   13SAPS  H20S 1679   6.397   2.758   4.342  0.0981 -1.1516 -2.2139
   13SAPS  H20T 1680   6.547   2.788   4.447  0.6955 -1.8874  0.4805
   13SAPS   C33 1681   5.965   2.468   3.343 -0.5364  0.1813 -0.3819
   13SAPS   H3X 1682   5.931   2.574   3.342  3.0793  1.5477  1.7443
   13SAPS   H3Y 1683   6.075   2.484   3.345 -0.6690  1.1729 -0.3016
   13SAPS   C34 1684   5.920   2.391   3.462 -0.3726 -1.1995  0.6373
   13SAPS   H4X 1685   5.812   2.366   3.453 -0.7409  0.8651 -2.3397
   13SAPS   H4Y 1686   5.929   2.455   3.552 -1.1194  0.1684 -0.2359
   13SAPS   C35 1687   5.996   2.259   3.494 -0.6499  0.3141  0.4788
   13SAPS   H5X 1688   6.097   2.275   3.450 -1.6191  2.0663 -1.2944
   13SAPS   H5Y 1689   5.945   2.174   3.444  0.7997 -0.1808 -0.2259
   13SAPS   C36 1690   6.011   2.238   3.645 -0.6834 -0.1373 -0.0928
   13SAPS   H6X 1691   6.056   2.332   3.685 -0.8212  0.1430 -0.5793
   13SAPS   H6Y 1692   6.080   2.153   3.662  0.4641  0.8090  0.1116
   13SAPS   C37 1693   5.880   2.211   3.729 -0.3556 -0.4582 -0.6795
   13SAPS   H7X 1694   5.847   2.107   3.707  0.2040 -0.6844 -0.4781
   13SAPS   H7Y 1695   5.798   2.284   3.710 -0.9313 -0.6217  1.0290
   13SAPS   C38 1696   5.919   2.213   3.881 -0.3602 -0.1647 -0.1538
   13SAPS   H8X 1697   5.922   2.318   3.916  0.4890 -0.6585  1.3260
   13SAPS   H8Y 1698   6.026   2.182   3.881 -0.4353 -0.4618  0.9021
   13SAPS   C39 1699   5.824   2.124   3.957 -0.3118 -0.0656 -0.3941
   13SAPS   H9X 1700   5.848   2.016   3.943 -0.5443 -0.3096  0.9450
   13SAPS   H9Y 1701   5.722   2.143   3.918 -2.1264 -2.6739  2.5749
   13SAPS  C310 1702   5.837   2.152   4.104 -0.2007  0.1450  0.3793
   13SAPS  H10X 1703   5.802   2.255   4.126 -0.0985  0.1220  0.6470
   13SAPS  H10Y 1704   5.937   2.134   4.149 -0.3058  0.0750  0.5843
   13SAPS  C311 1705   5.739   2.061   4.175  0.3802 -0.7553 -0.3548
   13SAPS  H11X 1706   5.737   1.954   4.144 -3.3972 -0.8801 -0.1631
   13SAPS  H11Y 1707   5.634   2.092   4.156  0.5223  0.6345  0.9133
   13SAPS  C312 1708   5.770   2.063   4.324  0.0971 -0.1494  0.5925
   13SAPS  H12X 1709   5.769   2.170   4.353 -1.7073 -0.0185  0.1860
   13SAPS  H12Y 1710   5.869   2.019   4.348  0.8377  1.8411  1.4629
   13SAPS  C313 1711   5.655   2.006   4.406 -0.1897 -0.0679 -0.0891
   13SAPS  H13X 1712   5.657   1.899   4.378  0.7244 -0.6917  2.1358
   13SAPS  H13Y 1713   5.568   2.061   4.364  0.0150 -0.9714 -1.7998
   13SAPS  C314 1714   5.669   2.026   4.557 -0.4748 -0.8014 -0.9048
   13SAPS  H14X 1715   5.645   2.134   4.566  0.3815 -0.6771  0.0458
   13SAPS  H14Y 1716   5.773   2.022   4.595 -1.0450 -0.2815  0.7679
   13SAPS  C315 1717   5.575   1.956   4.649  0.0638  0.3060 -0.4657
   13SAPS  H15X 1718   5.633   1.921   4.737  1.6115 -1.0462 -1.9491
   13SAPS  H15Y 1719   5.540   1.862   4.602 -2.3273 -0.3222  2.3340
   13SAPS  C316 1720   5.456   2.043   4.696 -0.1767 -0.1399  0.7705
   13SAPS  H16X 1721   5.380   2.061   4.616  1.0054  1.4885 -0.0678
   13SAPS  H16Y 1722   5.493   2.146   4.717 -0.3203 -0.1021  0.8389
   13SAPS  C317 1723   5.378   1.990   4.817  0.6939 -0.4968 -0.5209
   13SAPS  H17X 1724   5.367   1.882   4.797  1.0306 -0.8658  1.1369
   13SAPS  H17Y 1725   5.273   2.027   4.828  1.2067  1.1501 -0.8108
   13SAPS  C318 1726   5.440   1.999   4.953 -0.4732 -0.0385 -0.2426
   13SAPS  H18X 1727   5.387   1.926   5.018  0.1040  0.4761  0.8406
   13SAPS  H18Y 1728   5.437   2.096   5.007 -0.7569 -0.0888 -0.1666
   13SAPS  H18Z 1729   5.546   1.968   4.942 -0.0295  1.0281  0.8394
   14SAPS     N 1730   6.240   3.015   1.701  0.0077 -0.2184 -0.0494
   14SAPS   HN1 1731   6.176   2.957   1.759  2.2418 -1.5526  1.1958
   14SAPS   HN2 1732   6.212   3.020   1.601 -1.1713  2.8222  0.3001
   14SAPS   HN3 1733   6.334   2.971   1.706  0.0577 -0.0086  1.1361
   14SAPS   C12 1734   6.250   3.147   1.774  0.0674  0.1098 -0.1949
   14SAPS  H12A 1735   6.321   3.132   1.854 -0.9725 -2.4940  0.3299
   14SAPS   C13 1736   6.299   3.257   1.679 -0.1145  0.0709  0.6855
   14SAPS  O13A 1737   6.323   3.227   1.558 -0.0690 -0.3654 -0.2180
   14SAPS  O13B 1738   6.335   3.366   1.723 -0.5082  0.3309 -0.1133
   14SAPS   C11 1739   6.099   3.182   1.820  0.2106 -0.5607  0.3712
   14SAPS  H11A 1740   6.031   3.201   1.735 -0.9207 -1.5044  1.0329
   14SAPS  H11B 1741   6.099   3.280   1.873  1.1036 -1.3540  1.9154
   14SAPS     P 1742   6.045   3.077   2.059  0.1169  0.1478  0.3481
   14SAPS   O13 1743   5.928   2.998   2.108  0.2096 -0.4542 -0.4928
   14SAPS   O14 1744   6.180   3.023   2.099 -0.2183  0.1686  0.0283
   14SAPS   O12 1745   6.046   3.077   1.902 -0.0718 -0.2262  0.4587
   14SAPS   O11 1746   6.038   3.227   2.100  0.4106  0.0590  0.2750
   14SAPS    C1 1747   6.131   3.273   2.185 -0.5284 -0.2115 -0.1280
   14SAPS    HA 1748   6.231   3.240   2.150 -1.1437 -0.1843 -2.0372
   14SAPS    HB 1749   6.135   3.384   2.180  1.6249 -0.2974 -1.8431
   14SAPS    C2 1750   6.122   3.233   2.331  0.3059 -0.3576 -0.4743
   14SAPS    HS 1751   6.170   3.133   2.325  3.6979  1.0926  0.0103
   14SAPS   O21 1752   5.983   3.239   2.377 -0.0270 -0.1741 -0.3013
   14SAPS   C21 1753   5.958   3.158   2.479 -0.7570 -0.7111  0.6894
   14SAPS   O22 1754   6.038   3.084   2.534  0.1018 -0.7230  0.1085
   14SAPS   C22 1755   5.810   3.170   2.518 -0.0534 -0.5152 -0.5551
   14SAPS   H2R 1756   5.791   3.280   2.519  0.2262 -0.4599  0.6527
   14SAPS   H2S 1757   5.746   3.143   2.432  0.1495  1.0526 -1.2419
   14SAPS    C3 1758   6.221   3.329   2.414  0.3794 -0.1391 -0.0612
   14SAPS    HX 1759   6.176   3.430   2.420 -1.1182 -0.7013 -1.1256
   14SAPS    HY 1760   6.316   3.350   2.361 -0.5362  0.8993 -1.3282
   14SAPS   O31 1761   6.242   3.286   2.551  0.3690  0.0720  0.1072
   14SAPS   C31 1762   6.316   3.177   2.573  0.6196 -0.1312  0.1458
   14SAPS   O32 1763   6.370   3.118   2.485  0.2737 -0.7167  0.3091
   14SAPS   C32 1764   6.323   3.148   2.727  0.1686  0.4502 -0.0289
   14SAPS   H2X 1765   6.228   3.104   2.762  0.1523 -0.4881 -1.2019
   14SAPS   H2Y 1766   6.335   3.245   2.780  0.3557  0.3983  0.0253
   14SAPS   C23 1767   5.768   3.124   2.661  0.0795  0.1518  1.1217
   14SAPS   H3R 1768   5.837   3.049   2.705  0.1620 -0.5894 -0.2155
   14SAPS   H3S 1769   5.666   3.078   2.661  0.9414 -1.8690  1.7568
   14SAPS   C24 1770   5.754   3.240   2.762 -0.7298 -0.7975 -0.1063
   14SAPS   H4R 1771   5.693   3.203   2.847 -2.3483 -0.7138 -1.1849
   14SAPS   H4S 1772   5.688   3.317   2.718 -2.6673 -1.9726  0.6373
   14SAPS   C25 1773   5.882   3.298   2.808 -0.0728 -0.5781 -0.2278
   14SAPS   H5R 1774   5.923   3.380   2.748 -0.5873  0.5362  0.9135
   14SAPS   C26 1775   5.952   3.265   2.925  0.6965 -0.1390  0.0023
   14SAPS   H6R 1776   6.046   3.313   2.954 -1.5840  3.1010  2.8329
   14SAPS   C27 1777   5.909   3.159   3.020 -1.0455  0.1858  0.9428
   14SAPS   H7R 1778   5.800   3.177   3.034 -0.9312  2.0144 -0.1978
   14SAPS   H7S 1779   5.949   3.195   3.117 -0.2291  1.5380  0.1391
   14SAPS   C28 1780   5.941   3.012   3.008  0.5928 -1.2791 -0.3978
   14SAPS   H8R 1781   5.948   2.966   2.909 -3.3163 -2.5202 -0.2973
   14SAPS   C29 1782   5.951   2.920   3.106 -0.0706 -0.0168 -0.1866
   14SAPS   H9R 1783   5.984   2.819   3.077  1.4447  0.4891 -0.2885
   14SAPS  C210 1784   5.939   2.961   3.251  0.8444  0.0026  0.2441
   14SAPS  H10R 1785   5.881   3.055   3.267 -1.0185 -1.3170  1.7626
   14SAPS  H10S 1786   6.041   2.969   3.293  0.8108  0.6646  0.2146
   14SAPS  C211 1787   5.863   2.857   3.324  0.0834  0.4351  0.7161
   14SAPS  H11R 1788   5.799   2.794   3.260 -1.0928  0.4658  1.8350
   14SAPS  C212 1789   5.861   2.847   3.457  0.9587 -0.6188  0.0873
   14SAPS  H12R 1790   5.794   2.781   3.514 -0.3237  1.8068  1.5162
   14SAPS  C213 1791   5.939   2.927   3.558 -0.2605 -0.4326 -0.2075
   14SAPS  H13R 1792   5.865   2.994   3.608  1.4032 -0.4336  2.4229
   14SAPS  H13S 1793   6.001   3.000   3.502 -2.2025  1.4072 -0.1078
   14SAPS  C214 1794   6.023   2.843   3.650  0.2140  0.5712 -0.4505
   14SAPS  H14R 1795   6.130   2.834   3.625 -0.1926  1.4679 -2.7713
   14SAPS  C215 1796   5.972   2.784   3.760 -0.2132 -0.1442 -0.0936
   14SAPS  H15R 1797   6.034   2.705   3.807 -1.0705 -0.0249  1.2947
   14SAPS  C216 1798   5.827   2.771   3.804 -0.1632  0.0302 -0.8430
   14SAPS  H16R 1799   5.751   2.817   3.737  1.3690  0.1098 -2.6099
   14SAPS  H16S 1800   5.825   2.828   3.899  0.7352  0.3172 -0.9885
   14SAPS  C217 1801   5.793   2.622   3.844  0.8105 -0.1444  0.3780
   14SAPS  H17R 1802   5.872   2.581   3.910  2.0841 -0.5156 -1.2863
   14SAPS  H17S 1803   5.793   2.560   3.752  0.4062  0.0883  0.2182
   14SAPS  C218 1804   5.653   2.605   3.913  0.1298 -0.1104 -0.0716
   14SAPS  H18R 1805   5.570   2.640   3.849 -0.3617 -0.2841  0.4578
   14SAPS  H18S 1806   5.645   2.671   4.003 -2.8034  2.3491 -1.9514
   14SAPS  C219 1807   5.632   2.456   3.956 -0.5040 -0.1273 -0.0272
   14SAPS  H19R 1808   5.719   2.418   4.013  0.6967 -1.5343 -2.6209
   14SAPS  H19S 1809   5.628   2.392   3.865 -0.6842 -2.1713  1.3571
   14SAPS  C220 1810   5.506   2.426   4.041  0.5884 -0.2276 -0.0452
   14SAPS  H20R 1811   5.503   2.515   4.108  2.2669  1.7256 -2.3972
   14SAPS  H20S 1812   5.511   2.331   4.098 -0.2422  0.2103  0.7911
   14SAPS  H20T 1813   5.419   2.425   3.972 -0.6505 -0.5881  1.4438
   14SAPS   C33 1814   6.448   3.075   2.778  0.0416 -0.6741 -0.2268
   14SAPS   H3X 1815   6.540   3.117   2.732  0.1576 -1.6604 -0.9421
   14SAPS   H3Y 1816   6.434   2.970   2.743  0.1622 -0.7814  0.0480
   14SAPS   C34 1817   6.465   3.085   2.935  0.7600  0.5721  0.6647
   14SAPS   H4X 1818   6.494   3.186   2.970  1.3438  1.2329 -1.5821
   14SAPS   H4Y 1819   6.556   3.025   2.961 -0.5624 -2.8218 -1.7940
   14SAPS   C35 1820   6.345   3.030   3.020 -0.2075 -0.1914  0.4521
   14SAPS   H5X 1821   6.315   2.931   2.979  1.3352  0.1973 -1.8284
   14SAPS   H5Y 1822   6.260   3.095   2.994 -1.6958 -1.8258  1.0193
   14SAPS   C36 1823   6.352   3.040   3.173 -1.3558  0.1327  0.0883
   14SAPS   H6X 1824   6.251   3.070   3.206 -1.2545  1.3829 -0.6859
   14SAPS   H6Y 1825   6.421   3.120   3.206 -0.4044 -0.5140 -0.2765
   14SAPS   C37 1826   6.393   2.908   3.245 -0.3136  0.2416 -0.1144
   14SAPS   H7X 1827   6.407   2.931   3.353 -0.3469 -1.1921  0.2173
   14SAPS   H7Y 1828   6.482   2.865   3.195 -1.2817 -1.7181 -0.2644
   14SAPS   C38 1829   6.289   2.798   3.243  0.1509 -0.3339 -0.1606
   14SAPS   H8X 1830   6.261   2.781   3.137 -0.5371 -0.3615  0.0233
   14SAPS   H8Y 1831   6.204   2.840   3.301  1.0179  0.3469  0.6594
   14SAPS   C39 1832   6.339   2.677   3.321 -0.6815 -0.9208 -0.5106
   14SAPS   H9X 1833   6.439   2.642   3.288 -0.7925 -1.5252 -0.2344
   14SAPS   H9Y 1834   6.260   2.601   3.300 -2.3822  0.3342  1.0601
   14SAPS  C310 1835   6.328   2.699   3.470  0.2613 -0.4419  0.7944
   14SAPS  H10X 1836   6.220   2.700   3.497  0.3314 -0.7211  1.0937
   14SAPS  H10Y 1837   6.379   2.790   3.507  2.9680 -1.5804  0.0576
   14SAPS  C311 1838   6.392   2.587   3.549  0.3728  0.4217  0.5721
   14SAPS  H11X 1839   6.492   2.562   3.507  1.1537  1.6181  1.6562
   14SAPS  H11Y 1840   6.320   2.502   3.547  0.4031  0.4101 -0.4695
   14SAPS  C312 1841   6.404   2.626   3.696  0.0759  0.3931 -0.2312
   14SAPS  H12X 1842   6.428   2.735   3.700  3.2272 -0.2129 -0.6558
   14SAPS  H12Y 1843   6.481   2.568   3.752 -1.1555 -1.6072 -0.5167
   14SAPS  C313 1844   6.274   2.594   3.778 -0.4866  0.0132 -0.7811
   14SAPS  H13X 1845   6.191   2.567   3.709 -1.7065  0.3663  0.5264
   14SAPS  H13Y 1846   6.251   2.687   3.834  1.8781 -0.1861  0.6350
   14SAPS  C314 1847   6.287   2.481   3.882  0.3604  0.3962 -0.7362
   14SAPS  H14X 1848   6.395   2.487   3.910  0.0720  0.6789  0.3504
   14SAPS  H14Y 1849   6.281   2.382   3.832  1.2699 -0.4366  0.7233
   14SAPS  C315 1850   6.201   2.488   4.016 -0.1730 -0.0642  0.0604
   14SAPS  H15X 1851   6.092   2.505   4.001 -0.2549  1.2975  1.8609
   14SAPS  H15Y 1852   6.246   2.561   4.086  1.1246 -0.6611 -0.1207
   14SAPS  C316 1853   6.205   2.351   4.093 -0.2392 -0.6964  0.2404
   14SAPS  H16X 1854   6.159   2.274   4.028 -0.3322 -0.3944 -0.0553
   14SAPS  H16Y 1855   6.131   2.362   4.174 -0.9832  0.3285 -0.5429
   14SAPS  C317 1856   6.339   2.300   4.129  0.6338  0.7889  0.0270
   14SAPS  H17X 1857   6.381   2.350   4.220 -0.3172  1.2440  0.2314
   14SAPS  H17Y 1858   6.419   2.314   4.053  1.6590  0.0651  0.9292
   14SAPS  C318 1859   6.338   2.155   4.165 -0.1157 -0.4647  0.3715
   14SAPS  H18X 1860   6.439   2.115   4.190 -0.0673  0.4160  1.6753
   14SAPS  H18Y 1861   6.292   2.083   4.094 -2.2895  1.0253  0.1852
   14SAPS  H18Z 1862   6.284   2.138   4.261 -0.6785 -1.3293 -0.0874
   15SAPS     N 1863   4.105   3.073   1.603 -0.4420  0.1585 -0.3228
   15SAPS   HN1 1864   4.205   3.101   1.591 -0.2215 -1.6181 -3.7851
   15SAPS   HN2 1865   4.092   3.048   1.703  0.1421  2.0797  0.2705
   15SAPS   HN3 1866   4.099   2.991   1.540  0.3370 -0.1984  0.0488
   15SAPS   C12 1867   4.026   3.196   1.575 -0.7556 -0.6196 -0.2644
   15SAPS  H12A 1868   4.018   3.206   1.468  0.7645  4.3677 -0.1800
   15SAPS   C13 1869   3.877   3.195   1.620  0.0823 -0.3025  0.1960
   15SAPS  O13A 1870   3.824   3.079   1.642 -0.1034 -0.5301  0.5814
   15SAPS  O13B 1871   3.808   3.302   1.618  0.0130 -0.0877  0.2484
   15SAPS   C11 1872   4.116   3.315   1.627 -0.1495  0.1176 -0.6714
   15SAPS  H11A 1873   4.121   3.326   1.737 -2.2495  1.7827 -0.6792
   15SAPS  H11B 1874   4.064   3.410   1.603  1.0728  0.9863  0.0179
   15SAPS     P 1875   4.374   3.280   1.664  0.0277  0.0077 -0.2469
   15SAPS   O13 1876   4.379   3.138   1.666 -0.0782 -0.0804  0.0890
   15SAPS   O14 1877   4.491   3.355   1.611  0.0606  0.1715  0.0916
   15SAPS   O12 1878   4.253   3.323   1.578  0.3857  0.0401  0.1108
   15SAPS   O11 1879   4.343   3.339   1.808  0.0869 -0.3624 -0.1632
   15SAPS    C1 1880   4.412   3.285   1.922  0.7682  0.1767  0.2022
   15SAPS    HA 1881   4.519   3.259   1.909  1.2250  1.1685  1.7340
   15SAPS    HB 1882   4.404   3.359   2.004  0.0887  0.3683 -0.0339
   15SAPS    C2 1883   4.340   3.162   1.984 -0.5078  0.3658  0.1981
   15SAPS    HS 1884   4.332   3.086   1.904 -4.0503  3.3039 -2.6131
   15SAPS   O21 1885   4.212   3.199   2.048 -0.1210  0.1646  0.3071
   15SAPS   C21 1886   4.104   3.156   1.978 -0.3421  0.0568  0.4587
   15SAPS   O22 1887   4.097   3.091   1.875  0.7962 -0.2511  0.4274
   15SAPS   C22 1888   3.977   3.203   2.050  0.3300  0.9656 -0.2143
   15SAPS   H2R 1889   3.982   3.310   2.081 -0.5724  0.2145  2.8174
   15SAPS   H2S 1890   3.896   3.186   1.975  1.0155  3.4659 -1.6211
   15SAPS    C3 1891   4.407   3.105   2.107 -0.0627  0.0611  0.0821
   15SAPS    HX 1892   4.404   3.182   2.187 -1.3878 -1.7317  1.8494
   15SAPS    HY 1893   4.513   3.079   2.084 -0.9897 -3.7259 -0.6569
   15SAPS   O31 1894   4.333   2.993   2.155 -0.2249 -0.6662 -0.2668
   15SAPS   C31 1895   4.389   2.928   2.257  0.0414  0.2569  0.0648
   15SAPS   O32 1896   4.480   2.965   2.322 -0.5804 -0.5863 -0.2039
   15SAPS   C32 1897   4.307   2.797   2.293  0.2134 -0.1164 -0.1672
   15SAPS   H2X 1898   4.389   2.722   2.292 -0.0419 -0.4254 -2.3101
   15SAPS   H2Y 1899   4.231   2.781   2.213  0.0191 -0.5092  0.0932
   15SAPS   C23 1900   3.946   3.114   2.171 -0.1067  0.1760  0.2164
   15SAPS   H3R 1901   3.971   3.008   2.147 -1.0456 -0.6042  2.4129
   15SAPS   H3S 1902   3.836   3.109   2.184 -0.5069 -1.5986 -2.8342
   15SAPS   C24 1903   4.008   3.156   2.310 -0.2066  0.1223 -0.4038
   15SAPS   H4R 1904   4.004   3.267   2.309  1.8234  0.3381  2.9064
   15SAPS   H4S 1905   4.115   3.128   2.311 -0.1129  0.0600 -3.3554
   15SAPS   C25 1906   3.940   3.084   2.425 -0.2104  0.2026  0.0618
   15SAPS   H5R 1907   3.846   3.034   2.396 -0.4142  0.6232 -0.0089
   15SAPS   C26 1908   3.978   3.092   2.553  0.6657 -0.6109 -0.0086
   15SAPS   H6R 1909   3.925   3.028   2.624 -0.2710 -0.0654 -0.2036
   15SAPS   C27 1910   4.097   3.171   2.610  0.1358 -0.1613  0.6935
   15SAPS   H7R 1911   4.145   3.238   2.535 -0.7634 -1.4476 -1.0938
   15SAPS   H7S 1912   4.173   3.094   2.636  0.2626 -0.1930  0.2440
   15SAPS   C28 1913   4.039   3.258   2.715  0.0502  0.1109  0.1067
   15SAPS   H8R 1914   3.944   3.308   2.692 -0.2317 -0.8478 -0.8776
   15SAPS   C29 1915   4.084   3.270   2.836  0.4059  0.7610  0.6359
   15SAPS   H9R 1916   4.033   3.341   2.902 -0.0222  0.4097  0.6854
   15SAPS  C210 1917   4.210   3.207   2.891 -0.1393 -0.8488  0.8256
   15SAPS  H10R 1918   4.283   3.193   2.808 -2.7459  1.6038 -2.1647
   15SAPS  H10S 1919   4.185   3.104   2.923 -0.8939 -0.6376  0.9157
   15SAPS  C211 1920   4.283   3.280   3.001  0.4065  0.2529  0.6044
   15SAPS  H11R 1921   4.379   3.315   2.960  0.4433 -1.5821 -1.0167
   15SAPS  C212 1922   4.249   3.310   3.124  0.7659  0.7136 -0.0054
   15SAPS  H12R 1923   4.317   3.374   3.182  0.0973  2.5266 -1.1516
   15SAPS  C213 1924   4.124   3.274   3.193  0.2056  0.3759 -0.4761
   15SAPS  H13R 1925   4.101   3.169   3.165  1.9497 -0.7713  1.9997
   15SAPS  H13S 1926   4.036   3.334   3.162  0.4047  1.0774  0.2966
   15SAPS  C214 1927   4.148   3.267   3.340  0.1665 -0.3555  0.7930
   15SAPS  H14R 1928   4.152   3.166   3.386 -0.5134 -0.8629 -0.2268
   15SAPS  C215 1929   4.170   3.367   3.427 -0.0448 -0.5427 -0.6248
   15SAPS  H15R 1930   4.176   3.349   3.535  0.9621  2.0373 -0.1766
   15SAPS  C216 1931   4.169   3.519   3.400  0.4104  0.3026  0.0366
   15SAPS  H16R 1932   4.133   3.542   3.298 -1.3600 -0.2308  0.5091
   15SAPS  H16S 1933   4.272   3.560   3.411 -0.3563  2.5814 -0.6827
   15SAPS  C217 1934   4.070   3.594   3.495  0.1014  0.4884 -0.4762
   15SAPS  H17R 1935   4.108   3.697   3.509  1.2650  0.1063 -0.6697
   15SAPS  H17S 1936   4.090   3.558   3.598  2.3696  3.8055  0.4229
   15SAPS  C218 1937   3.923   3.598   3.465  0.0304 -0.0804 -0.6538
   15SAPS  H18R 1938   3.881   3.496   3.450  2.0263 -0.6019 -3.5993
   15SAPS  H18S 1939   3.898   3.663   3.378  2.2622 -0.6010 -1.7609
   15SAPS  C219 1940   3.840   3.655   3.586  0.1152 -1.2785 -0.0007
   15SAPS  H19R 1941   3.862   3.600   3.680  1.0698  1.2128  1.3479
   15SAPS  H19S 1942   3.732   3.644   3.561  0.5465 -2.3007 -1.5033
   15SAPS  C220 1943   3.863   3.806   3.607  0.3499  0.3390  0.5849
   15SAPS  H20R 1944   3.890   3.855   3.511 -1.5326  0.6621  0.1722
   15SAPS  H20S 1945   3.944   3.821   3.681  0.0098 -0.0047  1.0365
   15SAPS  H20T 1946   3.764   3.855   3.625 -1.1025 -1.0586 -2.7421
   15SAPS   C33 1947   4.234   2.802   2.427 -0.4607 -0.1688  0.4039
   15SAPS   H3X 1948   4.170   2.711   2.434 -1.7097  0.7749  2.1415
   15SAPS   H3Y 1949   4.181   2.900   2.418  6.5739  4.1889 -1.0248
   15SAPS   C34 1950   4.334   2.788   2.549 -0.2698  0.0612 -0.0453
   15SAPS   H4X 1951   4.397   2.879   2.545  1.1648 -0.9151 -1.5003
   15SAPS   H4Y 1952   4.406   2.706   2.526  0.8910  0.2503  2.5950
   15SAPS   C35 1953   4.266   2.782   2.684 -0.0731  0.3097 -0.0542
   15SAPS   H5X 1954   4.201   2.693   2.695 -1.2926  1.1730 -0.0824
   15SAPS   H5Y 1955   4.202   2.872   2.698 -0.5265  0.3304 -2.0221
   15SAPS   C36 1956   4.377   2.782   2.785  0.4110  0.0690  0.2854
   15SAPS   H6X 1957   4.452   2.864   2.778 -0.6469  1.0501  0.2278
   15SAPS   H6Y 1958   4.441   2.692   2.777  0.3819  0.1844 -1.7670
   15SAPS   C37 1959   4.314   2.798   2.925 -0.0855 -0.4648  0.1672
   15SAPS   H7X 1960   4.283   2.692   2.925  1.9257 -1.1110 -0.9736
   15SAPS   H7Y 1961   4.225   2.864   2.927  1.4508  1.6874  1.0659
   15SAPS   C38 1962   4.412   2.830   3.041 -0.0489  0.5948 -0.1281
   15SAPS   H8X 1963   4.484   2.905   3.003  0.4647  0.5866  0.7964
   15SAPS   H8Y 1964   4.461   2.737   3.077 -1.4195  0.2935  1.0667
   15SAPS   C39 1965   4.347   2.870   3.170 -0.0957 -0.2200  0.1561
   15SAPS   H9X 1966   4.289   2.782   3.206 -0.9187  0.3330  0.2090
   15SAPS   H9Y 1967   4.275   2.954   3.156 -0.9138 -0.8636  0.3634
   15SAPS  C310 1968   4.443   2.921   3.287 -0.0684 -0.6294  0.4181
   15SAPS  H10X 1969   4.486   3.020   3.261  2.6908 -1.5353  1.1967
   15SAPS  H10Y 1970   4.523   2.845   3.294  0.9889  0.2347 -1.5326
   15SAPS  C311 1971   4.375   2.952   3.418  0.0091  0.0038 -0.5465
   15SAPS  H11X 1972   4.326   2.855   3.441 -1.9703  1.2277  0.8179
   15SAPS  H11Y 1973   4.296   3.030   3.408 -1.2910 -0.8460  2.1297
   15SAPS  C312 1974   4.465   2.981   3.540 -0.1558 -0.1673 -0.2732
   15SAPS  H12X 1975   4.511   3.081   3.526 -0.3070 -0.2136 -1.1730
   15SAPS  H12Y 1976   4.547   2.906   3.532  0.0622 -0.5991  3.8880
   15SAPS  C313 1977   4.388   2.974   3.672 -0.6820 -0.2507  0.5911
   15SAPS  H13X 1978   4.332   2.878   3.680 -0.8570 -0.0923  1.3258
   15SAPS  H13Y 1979   4.326   3.064   3.656 -0.3062 -0.2828 -1.4385
   15SAPS  C314 1980   4.463   2.987   3.807 -0.4057  0.3499 -0.2574
   15SAPS  H14X 1981   4.507   3.087   3.828 -2.4824  1.2945 -0.1292
   15SAPS  H14Y 1982   4.539   2.907   3.809 -0.1610  0.5085 -1.9015
   15SAPS  C315 1983   4.370   2.969   3.927  0.0636 -0.9139 -0.4123
   15SAPS  H15X 1984   4.327   2.867   3.919  1.8495 -1.5502 -3.1327
   15SAPS  H15Y 1985   4.287   3.043   3.929  0.2356 -0.7312  0.7616
   15SAPS  C316 1986   4.440   2.961   4.065  0.1668 -0.5049 -0.3138
   15SAPS  H16X 1987   4.514   3.043   4.065 -1.2433  0.8128  0.3353
   15SAPS  H16Y 1988   4.491   2.863   4.077  1.4281  0.1880  0.0491
   15SAPS  C317 1989   4.352   2.986   4.182 -0.2349 -0.0991 -0.7829
   15SAPS  H17X 1990   4.257   2.929   4.173 -0.5553  0.6551 -2.6503
   15SAPS  H17Y 1991   4.321   3.092   4.181  0.1815  0.0799  1.1096
   15SAPS  C318 1992   4.414   2.965   4.317 -0.4670 -0.7022 -0.0599
   15SAPS  H18X 1993   4.489   3.046   4.325 -1.9451  0.6918  0.0334
   15SAPS  H18Y 1994   4.462   2.866   4.334 -1.0076 -0.8734  0.5540
   15SAPS  H18Z 1995   4.346   2.976   4.404 -0.1263 -2.3482  0.4484
   16SAPS     N 1996   5.819   2.904   1.868 -0.4727 -1.0019 -0.6033
   16SAPS   HN1 1997   5.897   2.881   1.802  0.8497  0.4949  0.3655
   16SAPS   HN2 1998   5.841   2.995   1.912  0.9680 -0.1875 -2.8349
   16SAPS   HN3 1999   5.819   2.834   1.945  0.1069  0.2923  0.6031
   16SAPS   C12 2000   5.687   2.912   1.801  0.0042  0.6144  0.1248
   16SAPS  H12A 2001   5.688   2.989   1.726  1.4124 -0.3549 -0.9043
   16SAPS   C13 2002   5.633   2.784   1.736  0.1708 -0.3798 -0.7055
   16SAPS  O13A 2003   5.699   2.680   1.722 -0.1350  0.5272  0.2371
   16SAPS  O13B 2004   5.521   2.792   1.681  0.9112  0.4609  0.0782
   16SAPS   C11 2005   5.584   2.951   1.912  0.4638 -0.6148 -0.4559
   16SAPS  H11A 2006   5.571   2.868   1.984  1.6139 -1.3417 -1.0397
   16SAPS  H11B 2007   5.486   2.954   1.860  0.0089 -1.5430  0.3151
   16SAPS     P 2008   5.573   3.217   1.929 -0.1694  0.2271 -0.0085
   16SAPS   O13 2009   5.651   3.254   1.808  0.6315  0.0569  0.9791
   16SAPS   O14 2010   5.424   3.211   1.917  0.3902 -0.0690  0.0352
   16SAPS   O12 2011   5.624   3.073   1.981 -0.0206  0.2746 -0.1695
   16SAPS   O11 2012   5.619   3.321   2.040 -0.4348  0.0547 -0.4288
   16SAPS    C1 2013   5.564   3.313   2.171  0.3620 -0.3011 -0.4775
   16SAPS    HA 2014   5.469   3.255   2.170  0.4493 -0.4422 -1.2432
   16SAPS    HB 2015   5.636   3.279   2.248  0.2560  1.8765  0.6688
   16SAPS    C2 2016   5.525   3.457   2.218  0.0588  0.3776  0.4009
   16SAPS    HS 2017   5.493   3.516   2.129  1.0566 -0.3069 -0.4360
   16SAPS   O21 2018   5.647   3.511   2.281  0.1633  0.2582  0.5215
   16SAPS   C21 2019   5.643   3.634   2.313 -0.0879  0.6622 -0.1011
   16SAPS   O22 2020   5.562   3.715   2.276 -0.4760  0.1093 -0.0360
   16SAPS   C22 2021   5.755   3.642   2.425  1.2595  0.0571  0.4971
   16SAPS   H2R 2022   5.754   3.557   2.495  0.9379 -0.5438 -0.2230
   16SAPS   H2S 2023   5.850   3.639   2.367  1.4790 -0.2009  0.8687
   16SAPS    C3 2024   5.412   3.454   2.315  0.5091 -0.5854  0.5594
   16SAPS    HX 2025   5.318   3.447   2.256  1.2249  0.8181 -0.7917
   16SAPS    HY 2026   5.399   3.553   2.364 -2.3203 -1.1495  1.1514
   16SAPS   O31 2027   5.415   3.351   2.414 -0.4385  0.6957 -0.3060
   16SAPS   C31 2028   5.308   3.269   2.412 -0.3554  0.3958 -0.1762
   16SAPS   O32 2029   5.217   3.270   2.326 -0.2371 -0.4446 -0.4626
   16SAPS   C32 2030   5.308   3.180   2.531 -0.1301 -0.1096 -0.3106
   16SAPS   H2X 2031   5.412   3.162   2.565 -0.9626 -0.5332  2.2001
   16SAPS   H2Y 2032   5.279   3.079   2.497 -1.5653 -0.2658  1.2685
   16SAPS   C23 2033   5.748   3.773   2.503  0.3019 -0.8623  0.0769
   16SAPS   H3R 2034   5.720   3.863   2.445  1.3337 -1.4211 -1.3308
   16SAPS   H3S 2035   5.855   3.792   2.525  0.7930 -0.9981 -1.9744
   16SAPS   C24 2036   5.674   3.756   2.641  0.4443  0.5076 -0.2154
   16SAPS   H4R 2037   5.701   3.849   2.696  0.0920  0.4980 -0.0242
   16SAPS   H4S 2038   5.720   3.669   2.693  1.0362  0.7169 -0.3805
   16SAPS   C25 2039   5.524   3.742   2.630  0.3808  0.0346  0.5027
   16SAPS   H5R 2040   5.476   3.815   2.563 -1.6963 -1.2621  0.5002
   16SAPS   C26 2041   5.444   3.656   2.697  0.2518 -0.0764  0.0940
   16SAPS   H6R 2042   5.335   3.657   2.680  0.4963 -0.3929 -1.6247
   16SAPS   C27 2043   5.494   3.549   2.789 -0.6150  0.5207 -0.1104
   16SAPS   H7R 2044   5.593   3.566   2.835 -0.8942 -0.6922  0.9809
   16SAPS   H7S 2045   5.493   3.461   2.721 -1.6464 -0.7516  1.4661
   16SAPS   C28 2046   5.413   3.506   2.910  0.0963 -0.1382  0.4086
   16SAPS   H8R 2047   5.309   3.540   2.906  0.3911  0.7624  0.1832
   16SAPS   C29 2048   5.442   3.434   3.018  0.2215  0.1032 -0.2806
   16SAPS   H9R 2049   5.370   3.402   3.095 -1.3932 -1.1674 -2.2195
   16SAPS  C210 2050   5.579   3.379   3.058  0.1664  0.6278  0.4182
   16SAPS  H10R 2051   5.629   3.357   2.962 -2.3952  1.1299 -1.1226
   16SAPS  H10S 2052   5.557   3.284   3.111  0.0823  0.2223 -0.3430
   16SAPS  C211 2053   5.639   3.481   3.146  0.8213  0.0583 -0.0765
   16SAPS  H11R 2054   5.642   3.584   3.107  0.8649  0.9534  2.1089
   16SAPS  C212 2055   5.681   3.465   3.271 -0.1845 -0.2162  0.8449
   16SAPS  H12R 2056   5.719   3.553   3.324 -0.0561 -0.6695  1.5121
   16SAPS  C213 2057   5.703   3.340   3.345  0.2283  0.8074 -0.3353
   16SAPS  H13R 2058   5.714   3.261   3.266  1.1175 -0.4550  0.9899
   16SAPS  H13S 2059   5.626   3.293   3.410 -0.4078  0.1616 -1.5079
   16SAPS  C214 2060   5.839   3.351   3.412  0.2358  0.8597 -0.0613
   16SAPS  H14R 2061   5.925   3.350   3.344 -0.4893  0.2125 -1.0018
   16SAPS  C215 2062   5.854   3.344   3.544  0.2712  0.3188 -0.2809
   16SAPS  H15R 2063   5.955   3.348   3.586 -0.1466 -1.3679  0.9698
   16SAPS  C216 2064   5.747   3.332   3.656 -0.0471  0.1992  0.2130
   16SAPS  H16R 2065   5.669   3.264   3.618  0.4729 -0.3851  0.1675
   16SAPS  H16S 2066   5.704   3.431   3.682 -0.7295  0.8065 -2.9308
   16SAPS  C217 2067   5.820   3.260   3.768  0.4423  0.0572 -0.2683
   16SAPS  H17R 2068   5.915   3.306   3.802  0.4751 -0.5945  0.5583
   16SAPS  H17S 2069   5.859   3.166   3.723  0.0352  0.9029 -2.5031
   16SAPS  C218 2070   5.728   3.225   3.886  0.3287  0.0953 -0.0186
   16SAPS  H18R 2071   5.633   3.182   3.847  0.2837 -0.0369  0.2320
   16SAPS  H18S 2072   5.682   3.314   3.935 -0.8062  0.0774 -0.9886
   16SAPS  C219 2073   5.778   3.116   3.983 -0.5309  0.8659 -0.5071
   16SAPS  H19R 2074   5.877   3.153   4.016 -0.2155 -1.3524  1.2489
   16SAPS  H19S 2075   5.793   3.023   3.924 -2.2067 -0.4495  1.0405
   16SAPS  C220 2076   5.694   3.078   4.107  0.2331 -0.8395 -0.3420
   16SAPS  H20R 2077   5.761   3.046   4.190  0.0143 -0.7254 -0.1180
   16SAPS  H20S 2078   5.610   3.008   4.085 -0.6406  0.1181 -0.1158
   16SAPS  H20T 2079   5.651   3.169   4.153 -0.0638 -0.4276 -1.4066
   16SAPS   C33 2080   5.209   3.235   2.643 -0.7874  0.0093  0.3005
   16SAPS   H3X 2081   5.111   3.248   2.592 -0.1378  0.5591 -0.8480
   16SAPS   H3Y 2082   5.233   3.335   2.685 -0.7819 -0.9908  2.8440
   16SAPS   C34 2083   5.191   3.144   2.768 -0.3484 -0.8776 -0.1463
   16SAPS   H4X 2084   5.260   3.164   2.852 -0.1702 -1.6473 -0.1081
   16SAPS   H4Y 2085   5.203   3.041   2.728 -0.2579 -0.5163 -1.0893
   16SAPS   C35 2086   5.054   3.133   2.825 -0.8735  0.1716  0.4986
   16SAPS   H5X 2087   4.996   3.090   2.741 -0.3591 -0.1223  0.2882
   16SAPS   H5Y 2088   5.016   3.232   2.859 -2.9929  0.2683 -1.8948
   16SAPS   C36 2089   5.053   3.049   2.949  0.6035 -0.0617 -0.0240
   16SAPS   H6X 2090   5.121   2.961   2.948 -2.3152 -2.5266 -3.0777
   16SAPS   H6Y 2091   4.948   3.013   2.950 -0.0015  1.3166 -3.0335
   16SAPS   C37 2092   5.054   3.122   3.083 -0.2576  1.0153 -0.0818
   16SAPS   H7X 2093   4.985   3.209   3.081 -0.6561  0.7064 -2.7986
   16SAPS   H7Y 2094   5.152   3.171   3.104  0.4282  0.4962 -1.9237
   16SAPS   C38 2095   5.014   3.038   3.204  0.0103  0.5529 -0.9168
   16SAPS   H8X 2096   5.082   2.953   3.224 -0.1619  0.4797 -0.6466
   16SAPS   H8Y 2097   4.914   2.994   3.183  0.8869 -1.7498 -0.4970
   16SAPS   C39 2098   5.001   3.110   3.339  0.0710 -1.0134 -0.0564
   16SAPS   H9X 2099   4.929   3.195   3.333  0.1528 -0.9249  0.2209
   16SAPS   H9Y 2100   5.099   3.159   3.357 -1.4909  2.2294  0.3449
   16SAPS  C310 2101   4.952   3.020   3.455  0.2054 -0.1881 -0.0879
   16SAPS  H10X 2102   5.030   2.943   3.473 -1.0681 -1.0181  2.2423
   16SAPS  H10Y 2103   4.856   2.973   3.425  0.5453 -0.3747 -0.9097
   16SAPS  C311 2104   4.932   3.107   3.578  0.6358 -0.1183 -0.8246
   16SAPS  H11X 2105   4.881   3.200   3.546  2.4015 -0.2974 -4.7422
   16SAPS  H11Y 2106   5.035   3.130   3.613  0.9877 -2.4776 -0.1191
   16SAPS  C312 2107   4.862   3.017   3.680  0.1293  0.5098  0.5977
   16SAPS  H12X 2108   4.885   2.908   3.678  0.5967  0.6075 -1.4107
   16SAPS  H12Y 2109   4.752   3.024   3.667 -0.1901 -3.7056 -0.1586
   16SAPS  C313 2110   4.896   3.070   3.822  0.4102 -0.4751  0.4689
   16SAPS  H13X 2111   4.887   3.180   3.816 -1.0326 -0.3354  3.2147
   16SAPS  H13Y 2112   5.001   3.041   3.846  1.0511 -0.2207 -1.7982
   16SAPS  C314 2113   4.817   3.016   3.935 -0.3696 -0.2738  0.1678
   16SAPS  H14X 2114   4.832   2.906   3.934  0.7726 -0.1393 -1.1136
   16SAPS  H14Y 2115   4.711   3.039   3.915 -0.0948  0.3272 -0.6572
   16SAPS  C315 2116   4.858   3.079   4.075 -0.1607  0.2969 -0.0152
   16SAPS  H15X 2117   4.955   3.038   4.110 -1.4563 -3.0416  0.0032
   16SAPS  H15Y 2118   4.785   3.037   4.148 -0.2043  2.9157  1.6037
   16SAPS  C316 2119   4.835   3.231   4.081 -0.0041  0.4738  0.6078
   16SAPS  H16X 2120   4.872   3.292   3.996 -1.2465  0.9838  0.4215
   16SAPS  H16Y 2121   4.874   3.270   4.178 -0.1847  0.5085  0.6666
   16SAPS  C317 2122   4.683   3.282   4.093 -0.3278 -0.5882  0.7327
   16SAPS  H17X 2123   4.641   3.220   4.174 -1.0505  0.1910  0.9770
   16SAPS  H17Y 2124   4.634   3.270   3.994  0.3715 -1.3906  0.4746
   16SAPS  C318 2125   4.677   3.429   4.144  0.0315 -0.2523  0.7407
   16SAPS  H18X 2126   4.573   3.467   4.149 -0.7984 -2.1479 -0.9190
   16SAPS  H18Y 2127   4.723   3.504   4.076 -0.4568 -0.9000 -0.3188
   16SAPS  H18Z 2128   4.739   3.439   4.236 -0.5024  1.6230  0.9426
   17SAPS     N 2129   0.777   2.952   2.079  0.0364 -0.2174 -1.0073
   17SAPS   HN1 2130   0.703   3.003   2.132  0.9248  1.6044 -1.4483
   17SAPS   HN2 2131   0.735   2.870   2.031  2.0217 -2.3410  0.6282
   17SAPS   HN3 2132   0.846   2.920   2.151 -1.5425  0.5246  0.9374
   17SAPS   C12 2133   0.844   3.042   1.980  0.0297  0.4238 -0.5332
   17SAPS  H12A 2134   0.894   2.977   1.910 -0.4474  0.3493 -0.8073
   17SAPS   C13 2135   0.747   3.124   1.892  0.9973  0.7688 -0.0894
   17SAPS  O13A 2136   0.626   3.094   1.890  0.2077  0.3762 -0.2045
   17SAPS  O13B 2137   0.791   3.211   1.808 -0.3957  0.2808  0.0738
   17SAPS   C11 2138   0.941   3.134   2.051  0.6074 -0.4116  0.2700
   17SAPS  H11A 2139   0.891   3.173   2.142  1.8389  1.6152  0.1320
   17SAPS  H11B 2140   0.958   3.222   1.986  0.7876  1.2778  2.4661
   17SAPS     P 2141   1.200   3.146   2.099  0.2821 -0.5019 -0.1054
   17SAPS   O13 2142   1.281   3.075   2.199 -0.6304 -0.3358 -0.3968
   17SAPS   O14 2143   1.261   3.155   1.964  0.4005 -0.6095  0.1154
   17SAPS   O12 2144   1.062   3.070   2.085 -0.3078  0.5663 -0.5869
   17SAPS   O11 2145   1.171   3.294   2.154 -0.2203  0.1607  0.2250
   17SAPS    C1 2146   1.270   3.396   2.154 -0.4978 -0.3172  0.5120
   17SAPS    HA 2147   1.324   3.396   2.057  0.8795  0.3070  1.2479
   17SAPS    HB 2148   1.210   3.489   2.162 -1.4015 -0.7897 -0.5709
   17SAPS    C2 2149   1.377   3.403   2.268 -0.7224  0.1366  0.3231
   17SAPS    HS 2150   1.463   3.345   2.227 -0.1849  1.4574 -0.4632
   17SAPS   O21 2151   1.323   3.344   2.393  0.2985  0.2850  0.1854
   17SAPS   C21 2152   1.409   3.289   2.472 -1.1114 -0.1621  0.1618
   17SAPS   O22 2153   1.529   3.278   2.452  0.0217  0.0523 -0.2542
   17SAPS   C22 2154   1.345   3.236   2.604 -0.4326  0.2731  0.4059
   17SAPS   H2R 2155   1.250   3.183   2.580 -1.7848  2.6940  0.1338
   17SAPS   H2S 2156   1.415   3.172   2.663 -0.3072  0.5004  0.5031
   17SAPS    C3 2157   1.414   3.547   2.284 -0.3148  0.2539  0.4394
   17SAPS    HX 2158   1.334   3.605   2.335 -0.0293  0.7674  0.3014
   17SAPS    HY 2159   1.448   3.591   2.188 -0.7728  1.0596  0.6363
   17SAPS   O31 2160   1.520   3.558   2.384 -0.2621 -0.1602  0.3567
   17SAPS   C31 2161   1.602   3.651   2.386 -0.2002 -0.2496 -0.1709
   17SAPS   O32 2162   1.614   3.741   2.304 -0.1403 -0.3302  0.6289
   17SAPS   C32 2163   1.684   3.641   2.512 -0.1314 -0.1996  0.1799
   17SAPS   H2X 2164   1.773   3.706   2.502 -0.5601  1.2007  3.9290
   17SAPS   H2Y 2165   1.707   3.533   2.521 -0.4710 -0.4108 -1.1680
   17SAPS   C23 2166   1.304   3.357   2.693  0.3116  0.2722  0.2343
   17SAPS   H3R 2167   1.202   3.329   2.727  0.8662 -0.5293  1.2982
   17SAPS   H3S 2168   1.293   3.460   2.654  1.1150  1.5040  2.9626
   17SAPS   C24 2169   1.401   3.361   2.809  0.9323  0.6673 -0.1962
   17SAPS   H4R 2170   1.506   3.378   2.779  2.1892  3.0590  4.5709
   17SAPS   H4S 2171   1.398   3.257   2.849  0.6671  1.0266  0.7523
   17SAPS   C25 2172   1.356   3.451   2.922  0.4793  0.3864  0.5372
   17SAPS   H5R 2173   1.330   3.554   2.894  3.4332  1.1631  0.2762
   17SAPS   C26 2174   1.320   3.411   3.046 -0.0971 -0.6366  0.4801
   17SAPS   H6R 2175   1.292   3.491   3.116  2.9013  1.1733 -0.2253
   17SAPS   C27 2176   1.319   3.270   3.108 -0.1299 -1.0935 -0.1248
   17SAPS   H7R 2177   1.420   3.262   3.154  0.4482 -0.3735 -1.2297
   17SAPS   H7S 2178   1.294   3.200   3.026  1.7622  0.0972 -1.8255
   17SAPS   C28 2179   1.232   3.250   3.227 -0.4848 -1.2403  0.1141
   17SAPS   H8R 2180   1.274   3.267   3.327  1.2131 -2.5855 -0.3230
   17SAPS   C29 2181   1.107   3.220   3.213  0.9152 -1.0354 -0.6592
   17SAPS   H9R 2182   1.056   3.209   3.310 -1.1515  1.3983 -1.3497
   17SAPS  C210 2183   1.016   3.182   3.091  0.5853 -0.1751  0.2140
   17SAPS  H10R 2184   1.071   3.217   3.002 -0.2611  1.4886  0.2982
   17SAPS  H10S 2185   0.924   3.246   3.093 -0.3050 -1.2958 -1.7862
   17SAPS  C211 2186   0.974   3.032   3.081  0.6598  0.5049 -0.5757
   17SAPS  H11R 2187   0.928   2.987   3.171  0.6090 -2.0172 -1.7587
   17SAPS  C212 2188   0.969   2.960   2.968 -0.2088 -0.4836  0.7387
   17SAPS  H12R 2189   0.943   2.854   2.976  0.9891 -0.7859  0.9124
   17SAPS  C213 2190   1.006   3.019   2.831 -0.0047 -0.2133  0.0788
   17SAPS  H13R 2191   1.110   3.054   2.847 -0.1450  0.5052 -0.5453
   17SAPS  H13S 2192   0.934   3.100   2.807  0.3941  1.0522  2.8050
   17SAPS  C214 2193   1.003   2.928   2.711  0.0463 -0.3244 -0.0615
   17SAPS  H14R 2194   1.095   2.916   2.654 -0.3641 -1.9106 -0.4525
   17SAPS  C215 2195   0.896   2.863   2.668  0.4991 -0.1206  0.5388
   17SAPS  H15R 2196   0.908   2.791   2.586  0.2677  1.4802 -0.9472
   17SAPS  C216 2197   0.753   2.858   2.723 -0.5581 -0.1128 -0.4958
   17SAPS  H16R 2198   0.724   2.938   2.795  2.0543 -1.8991  2.8525
   17SAPS  H16S 2199   0.725   2.760   2.768  0.8739  0.2481  1.2977
   17SAPS  C217 2200   0.649   2.874   2.613  0.2665 -0.1027  0.9875
   17SAPS  H17R 2201   0.673   2.962   2.548 -2.1191  1.0927  1.6152
   17SAPS  H17S 2202   0.558   2.908   2.666 -0.2441 -1.0772  0.7513
   17SAPS  C218 2203   0.615   2.750   2.528  0.0606  0.1381 -0.0459
   17SAPS  H18R 2204   0.576   2.676   2.601 -1.2321 -0.1314 -0.9714
   17SAPS  H18S 2205   0.700   2.698   2.478 -0.3143 -0.7927  0.2626
   17SAPS  C219 2206   0.495   2.767   2.436  0.3382  0.1603 -0.0587
   17SAPS  H19R 2207   0.518   2.854   2.370  2.2504  0.7945  1.3568
   17SAPS  H19S 2208   0.409   2.796   2.501 -0.1469 -2.6528  0.6901
   17SAPS  C220 2209   0.438   2.642   2.369 -0.7356  0.3801  0.6892
   17SAPS  H20R 2210   0.510   2.624   2.287  0.5599  0.4029  1.7996
   17SAPS  H20S 2211   0.336   2.651   2.324 -0.1350  1.2835 -0.5469
   17SAPS  H20T 2212   0.441   2.549   2.430  3.1580  0.1988  0.4516
   17SAPS   C33 2213   1.605   3.679   2.640 -0.3998 -0.4367 -0.1327
   17SAPS   H3X 2214   1.521   3.607   2.651  1.9792 -3.1245  2.2668
   17SAPS   H3Y 2215   1.577   3.786   2.635 -0.1336 -0.0060  4.1060
   17SAPS   C34 2216   1.691   3.667   2.765 -0.1365  1.1361 -0.4184
   17SAPS   H4X 2217   1.791   3.713   2.750  1.9095 -3.0218 -0.9913
   17SAPS   H4Y 2218   1.706   3.558   2.783 -0.5111  1.2538  0.7010
   17SAPS   C35 2219   1.621   3.716   2.894 -0.4929  0.1969 -0.0060
   17SAPS   H5X 2220   1.524   3.661   2.898  0.0114 -0.6687  0.5891
   17SAPS   H5Y 2221   1.591   3.823   2.886  1.9562  0.9172 -0.5057
   17SAPS   C36 2222   1.709   3.680   3.019  0.8505 -0.0659  0.1470
   17SAPS   H6X 2223   1.791   3.754   3.033  0.4465  0.1793  1.2995
   17SAPS   H6Y 2224   1.761   3.585   2.996  1.0863  0.5621 -2.2200
   17SAPS   C37 2225   1.620   3.659   3.140  0.1410  0.2353 -0.8833
   17SAPS   H7X 2226   1.546   3.580   3.112  0.5954 -0.1847 -0.9069
   17SAPS   H7Y 2227   1.568   3.752   3.172 -0.1976 -0.9515  2.3183
   17SAPS   C38 2228   1.697   3.596   3.259  0.3735  0.6896  0.2484
   17SAPS   H8X 2229   1.760   3.511   3.227  0.8970  1.0500  0.3083
   17SAPS   H8Y 2230   1.617   3.558   3.327  1.1048  1.0406  1.3281
   17SAPS   C39 2231   1.784   3.699   3.338  0.5551 -0.0325  0.5632
   17SAPS   H9X 2232   1.711   3.780   3.362  0.8452  0.5884 -0.5435
   17SAPS   H9Y 2233   1.859   3.743   3.268  0.0636  1.8341  1.1418
   17SAPS  C310 2234   1.848   3.645   3.470 -0.1478  0.7315 -0.9019
   17SAPS  H10X 2235   1.943   3.594   3.446 -0.2560  0.6138 -1.0813
   17SAPS  H10Y 2236   1.787   3.566   3.518  0.5741  0.5538 -0.2662
   17SAPS  C311 2237   1.856   3.748   3.583 -0.3008  0.0313 -0.6050
   17SAPS  H11X 2238   1.751   3.759   3.617  0.4807  1.2758  1.6421
   17SAPS  H11Y 2239   1.907   3.839   3.546  0.5102 -1.0172 -2.1604
   17SAPS  C312 2240   1.953   3.685   3.688  0.5962 -0.3039  0.4269
   17SAPS  H12X 2241   2.053   3.671   3.640  1.1557  0.6414  1.2748
   17SAPS  H12Y 2242   1.922   3.584   3.721  0.8351 -1.5585 -2.8624
   17SAPS  C313 2243   1.969   3.782   3.806  0.8073 -0.2892  0.0821
   17SAPS  H13X 2244   1.874   3.815   3.852  2.0005  3.4319  0.1560
   17SAPS  H13Y 2245   2.009   3.876   3.763 -2.1995  0.4037 -1.4202
   17SAPS  C314 2246   2.063   3.733   3.911 -0.3198  0.0927 -0.5862
   17SAPS  H14X 2247   2.168   3.713   3.881  0.0931  1.2567  0.0000
   17SAPS  H14Y 2248   2.024   3.640   3.956  0.6906 -0.4765 -0.8590
   17SAPS  C315 2249   2.069   3.834   4.029  0.0479 -0.3020 -0.0945
   17SAPS  H15X 2250   2.118   3.781   4.114 -2.4569 -2.2367  0.2960
   17SAPS  H15Y 2251   1.966   3.850   4.067  0.5915  2.5932  0.3958
   17SAPS  C316 2252   2.137   3.966   3.985  0.2805  0.6761  0.1351
   17SAPS  H16X 2253   2.073   4.014   3.907 -0.0921  1.2709  0.8005
   17SAPS  H16Y 2254   2.237   3.943   3.943  0.5046  0.6074  0.7061
   17SAPS  C317 2255   2.135   4.085   4.078 -0.6885 -0.2023 -0.1307
   17SAPS  H17X 2256   2.230   4.096   4.135 -0.6692  0.0787 -0.2188
   17SAPS  H17Y 2257   2.053   4.076   4.151 -0.5342  1.8045  0.3468
   17SAPS  C318 2258   2.092   4.218   4.013 -0.7110  0.3597 -0.5933
   17SAPS  H18X 2259   2.161   4.255   3.934  0.1938  2.7831  1.2185
   17SAPS  H18Y 2260   2.069   4.297   4.087 -2.2478 -0.4798 -0.1199
   17SAPS  H18Z 2261   1.994   4.198   3.964 -0.8510 -4.6280  1.2265
   18SAPS     N 2262   5.941   2.553   1.834  0.2514 -0.4109  0.1750
   18SAPS   HN1 2263   5.923   2.450   1.835 -0.6008 -0.3601 -2.3293
   18SAPS   HN2 2264   5.908   2.599   1.921 -1.2416 -0.3986 -0.3723
   18SAPS   HN3 2265   5.887   2.590   1.753  0.8210 -0.1783 -0.1058
   18SAPS   C12 2266   6.084   2.572   1.820  0.1538 -0.1681 -0.4529
   18SAPS  H12A 2267   6.113   2.499   1.746 -0.2409 -0.1615 -0.6212
   18SAPS   C13 2268   6.124   2.711   1.760  0.5915 -0.3715  0.6663
   18SAPS  O13A 2269   6.042   2.791   1.715 -0.5512  0.4092  0.3450
   18SAPS  O13B 2270   6.247   2.728   1.735 -0.3201  0.4505 -0.6034
   18SAPS   C11 2271   6.146   2.547   1.959 -0.0613  0.5590  0.5624
   18SAPS  H11A 2272   6.115   2.628   2.029 -2.8868  1.3540 -1.4252
   18SAPS  H11B 2273   6.256   2.558   1.948 -0.2139  0.3915 -1.6049
   18SAPS     P 2274   6.202   2.291   1.993 -0.1605  0.1123  0.4006
   18SAPS   O13 2275   6.122   2.181   1.946 -0.2780 -0.1047  0.1861
   18SAPS   O14 2276   6.323   2.326   1.914  0.0159  0.0818 -0.1620
   18SAPS   O12 2277   6.114   2.419   2.001  0.2033  0.2940  0.4494
   18SAPS   O11 2278   6.235   2.275   2.145  0.3464  0.1734  0.3276
   18SAPS    C1 2279   6.128   2.307   2.232 -0.6312 -0.7491 -0.9656
   18SAPS    HA 2280   6.106   2.415   2.231  1.5292 -0.2538 -0.3885
   18SAPS    HB 2281   6.041   2.240   2.215 -1.4794  0.1670 -0.3154
   18SAPS    C2 2282   6.172   2.273   2.381  0.0373 -0.5341  0.3718
   18SAPS    HS 2283   6.098   2.312   2.453  1.8974  0.4995  1.8050
   18SAPS   O21 2284   6.305   2.324   2.412 -0.0478  0.0436 -0.3383
   18SAPS   C21 2285   6.310   2.453   2.420 -0.8033  0.5686  0.0115
   18SAPS   O22 2286   6.217   2.524   2.440 -0.2457 -0.5744 -0.2326
   18SAPS   C22 2287   6.450   2.501   2.393 -0.7323 -0.3197  0.0312
   18SAPS   H2R 2288   6.500   2.422   2.334  3.0401  1.7298  0.2001
   18SAPS   H2S 2289   6.444   2.596   2.335 -0.5300 -0.4259 -0.1612
   18SAPS    C3 2290   6.170   2.123   2.410 -0.1454 -0.6766 -0.3091
   18SAPS    HX 2291   6.237   2.077   2.334  0.0051  0.4036 -0.8427
   18SAPS    HY 2292   6.074   2.069   2.395 -0.7057 -0.1833  1.3539
   18SAPS   O31 2293   6.231   2.100   2.549 -0.3253 -0.5096  0.1113
   18SAPS   C31 2294   6.141   2.076   2.636  0.2434 -0.4539  0.4619
   18SAPS   O32 2295   6.017   2.091   2.613 -0.4811  0.0466 -0.2216
   18SAPS   C32 2296   6.215   2.063   2.769  0.3382  0.7092  0.1445
   18SAPS   H2X 2297   6.272   2.157   2.784 -0.7203  1.6833 -1.6014
   18SAPS   H2Y 2298   6.282   1.975   2.752 -0.8685 -0.1453 -0.3801
   18SAPS   C23 2299   6.516   2.548   2.529  0.1153  0.3065 -0.3663
   18SAPS   H3R 2300   6.517   2.468   2.607  0.6582 -1.5352 -2.1750
   18SAPS   H3S 2301   6.443   2.618   2.575 -0.5723 -0.3519 -0.4308
   18SAPS   C24 2302   6.655   2.609   2.517  1.0644 -0.1228 -0.7893
   18SAPS   H4R 2303   6.699   2.572   2.422  1.1336  0.0382 -0.8213
   18SAPS   H4S 2304   6.721   2.565   2.594 -1.0685 -1.7392  0.2091
   18SAPS   C25 2305   6.649   2.759   2.515  0.5735  0.4670 -0.3398
   18SAPS   H5R 2306   6.580   2.792   2.437 -0.9452 -1.7853 -0.0339
   18SAPS   C26 2307   6.694   2.840   2.610  0.2923  0.3238 -0.4921
   18SAPS   H6R 2308   6.707   2.947   2.588  2.3975  0.9331  2.9004
   18SAPS   C27 2309   6.763   2.809   2.738  0.2704 -0.0887  0.4993
   18SAPS   H7R 2310   6.739   2.707   2.774 -2.3623  0.7677  1.4085
   18SAPS   H7S 2311   6.737   2.871   2.827  1.8670  0.5703  0.5499
   18SAPS   C28 2312   6.911   2.822   2.707  0.1886 -0.2346  0.2011
   18SAPS   H8R 2313   6.931   2.892   2.624 -0.7882 -0.3240 -0.1261
   18SAPS   C29 2314   7.014   2.761   2.768  0.3462 -0.5045 -0.8038
   18SAPS   H9R 2315   7.116   2.793   2.745  0.2999 -0.7463 -1.3535
   18SAPS  C210 2316   7.005   2.664   2.883 -0.4264 -1.1278  0.3708
   18SAPS  H10R 2317   6.987   2.561   2.846 -4.0222 -0.0629 -1.2524
   18SAPS  H10S 2318   6.907   2.680   2.932 -0.7939  1.3866 -1.0102
   18SAPS  C211 2319   7.120   2.678   2.985 -0.2622 -0.2543  0.5626
   18SAPS  H11R 2320   7.222   2.642   2.964  1.6152  5.0529 -1.0455
   18SAPS  C212 2321   7.107   2.745   3.102 -0.5361  0.9682 -0.0953
   18SAPS  H12R 2322   7.188   2.774   3.170 -1.6581 -0.1151  1.7862
   18SAPS  C213 2323   6.978   2.820   3.154 -0.2724 -0.2377  0.1772
   18SAPS  H13R 2324   6.896   2.745   3.161 -1.5066  1.1710  1.7517
   18SAPS  H13S 2325   6.948   2.887   3.070  1.8556  1.8144  0.9577
   18SAPS  C214 2326   6.999   2.901   3.278  0.0971 -0.0451  0.0136
   18SAPS  H14R 2327   7.104   2.924   3.300  1.1579 -3.5465 -0.8105
   18SAPS  C215 2328   6.899   2.941   3.366 -0.4973  0.3569  1.0338
   18SAPS  H15R 2329   6.937   3.001   3.450  0.1839  0.5577  0.5971
   18SAPS  C216 2330   6.750   2.906   3.357  0.2265  0.2981  0.1444
   18SAPS  H16R 2331   6.733   2.812   3.301  0.0247  0.9877 -1.0056
   18SAPS  H16S 2332   6.691   2.984   3.304  3.2196  4.4918  2.4062
   18SAPS  C217 2333   6.691   2.875   3.496  0.7707 -0.1449 -0.0221
   18SAPS  H17R 2334   6.765   2.818   3.556  1.5615  0.5140 -0.3574
   18SAPS  H17S 2335   6.603   2.808   3.484  1.2855 -0.6248 -1.2733
   18SAPS  C218 2336   6.655   3.003   3.575 -0.3043 -0.9218  0.4585
   18SAPS  H18R 2337   6.544   3.012   3.569 -0.3660 -1.6537  0.3431
   18SAPS  H18S 2338   6.705   3.089   3.526  0.2717 -0.1424  2.3481
   18SAPS  C219 2339   6.712   3.003   3.719 -0.1367 -1.1410  0.2515
   18SAPS  H19R 2340   6.821   2.985   3.712  0.1328 -0.4211  1.9775
   18SAPS  H19S 2341   6.678   2.923   3.788 -2.0416  0.3645  1.1487
   18SAPS  C220 2342   6.696   3.142   3.792 -0.3735  0.5097  0.3139
   18SAPS  H20R 2343   6.697   3.217   3.710 -0.3416  1.8539  1.5047
   18SAPS  H20S 2344   6.779   3.141   3.866 -0.2674  0.4223  0.1938
   18SAPS  H20T 2345   6.600   3.153   3.848 -0.6742 -0.9173  0.1326
   18SAPS   C33 2346   6.132   2.041   2.894  0.7207 -0.9327 -0.1049
   18SAPS   H3X 2347   6.063   1.958   2.864 -0.9415  0.9349 -1.7649
   18SAPS   H3Y 2348   6.074   2.135   2.907 -1.0154 -1.3165 -3.7958
   18SAPS   C34 2349   6.205   2.020   3.033 -0.0407 -0.1816  0.3413
   18SAPS   H4X 2350   6.270   1.932   3.018 -0.9731 -0.7079 -0.7866
   18SAPS   H4Y 2351   6.128   1.993   3.108 -0.1827  0.6236  0.5032
   18SAPS   C35 2352   6.279   2.140   3.079 -0.2053 -0.5528 -0.6541
   18SAPS   H5X 2353   6.222   2.228   3.042 -0.7541 -0.9058 -0.6451
   18SAPS   H5Y 2354   6.378   2.149   3.027 -1.1140 -1.8242 -2.7490
   18SAPS   C36 2355   6.309   2.147   3.236  0.4257  0.2439  0.0922
   18SAPS   H6X 2356   6.378   2.061   3.250  0.2215 -0.1206 -1.0515
   18SAPS   H6Y 2357   6.212   2.138   3.289  1.1067 -0.8441  1.2141
   18SAPS   C37 2358   6.377   2.284   3.268 -0.1598 -0.8777 -0.7261
   18SAPS   H7X 2359   6.295   2.359   3.274 -1.0087 -1.8486  0.1019
   18SAPS   H7Y 2360   6.441   2.310   3.181 -0.5108 -0.1830 -0.7855
   18SAPS   C38 2361   6.459   2.276   3.402 -0.0716  0.1083  0.3475
   18SAPS   H8X 2362   6.500   2.377   3.421 -2.7156  1.8204 -2.3518
   18SAPS   H8Y 2363   6.546   2.209   3.382 -1.1105 -0.6059 -2.1072
   18SAPS   C39 2364   6.391   2.221   3.524 -0.5168 -0.3221  0.7750
   18SAPS   H9X 2365   6.333   2.133   3.489  2.2236 -2.4879  1.2581
   18SAPS   H9Y 2366   6.329   2.292   3.582  0.5450  0.7356  0.6603
   18SAPS  C310 2367   6.492   2.153   3.615  0.4836  0.3825  0.2721
   18SAPS  H10X 2368   6.571   2.228   3.637  0.3597  0.3142  0.9916
   18SAPS  H10Y 2369   6.530   2.069   3.553  0.9036  1.5427 -1.0780
   18SAPS  C311 2370   6.437   2.104   3.748  0.1361 -0.4583  0.0087
   18SAPS  H11X 2371   6.376   2.014   3.728 -0.3475 -0.4278  1.2878
   18SAPS  H11Y 2372   6.353   2.167   3.785  0.5355 -1.1506  2.2016
   18SAPS  C312 2373   6.542   2.075   3.855 -0.3414 -0.6721 -0.2828
   18SAPS  H12X 2374   6.497   2.030   3.946 -1.2204  1.2979  0.3263
   18SAPS  H12Y 2375   6.585   2.168   3.898 -1.7052 -0.2405  0.2078
   18SAPS  C313 2376   6.652   1.973   3.812 -0.4232 -0.3863 -0.1637
   18SAPS  H13X 2377   6.707   2.022   3.728 -0.0974 -1.2348 -0.4540
   18SAPS  H13Y 2378   6.593   1.888   3.772  0.7028 -0.1569 -2.4699
   18SAPS  C314 2379   6.745   1.933   3.924  0.6994 -0.0916  0.3160
   18SAPS  H14X 2380   6.816   1.857   3.885  1.0651 -0.4371  1.6042
   18SAPS  H14Y 2381   6.690   1.878   4.003  0.6800  2.1900  1.9919
   18SAPS  C315 2382   6.812   2.046   4.004  0.2226 -0.3953 -0.5078
   18SAPS  H15X 2383   6.822   2.146   3.956  2.6145 -0.2251  0.2076
   18SAPS  H15Y 2384   6.918   2.018   4.017  0.8932  2.4818  1.1097
   18SAPS  C316 2385   6.754   2.060   4.140 -0.1694 -0.0738 -0.8713
   18SAPS  H16X 2386   6.741   1.964   4.194 -3.7014  1.4896  1.4512
   18SAPS  H16Y 2387   6.647   2.081   4.120 -1.1269 -2.8404  0.8542
   18SAPS  C317 2388   6.817   2.167   4.230 -0.4729 -0.2217  0.4201
   18SAPS  H17X 2389   6.833   2.261   4.172  2.6032  0.0419  1.4834
   18SAPS  H17Y 2390   6.918   2.127   4.255 -0.3133 -1.2478 -1.6658
   18SAPS  C318 2391   6.741   2.192   4.351  0.2199 -0.1609  0.0738
   18SAPS  H18X 2392   6.639   2.233   4.333 -0.9861 -1.8893  2.3264
   18SAPS  H18Y 2393   6.783   2.261   4.427  0.1606  0.0207 -0.0593
   18SAPS  H18Z 2394   6.713   2.099   4.406  0.0354 -0.1395  0.0181
   19SAPS     N 2395   3.077   4.366   1.926  0.4272  0.0335  0.7699
   19SAPS   HN1 2396   3.032   4.450   1.967  0.8397  1.3055 -1.2161
   19SAPS   HN2 2397   3.068   4.365   1.822  0.2848 -1.5078  0.7879
   19SAPS   HN3 2398   3.032   4.281   1.965 -2.4219  2.2148  2.6494
   19SAPS   C12 2399   3.218   4.373   1.960 -0.3602 -0.0371  0.4714
   19SAPS  H12A 2400   3.263   4.297   1.897 -0.4932  1.2919 -1.2783
   19SAPS   C13 2401   3.283   4.512   1.942 -0.0889  0.1657 -0.1658
   19SAPS  O13A 2402   3.222   4.609   1.896  0.3019  0.2187 -0.0616
   19SAPS  O13B 2403   3.411   4.510   1.947 -0.1158 -0.5479  0.3312
   19SAPS   C11 2404   3.231   4.333   2.109  0.4785  0.2622 -0.8044
   19SAPS  H11A 2405   3.168   4.402   2.169  4.0807  4.7349 -1.5394
   19SAPS  H11B 2406   3.338   4.347   2.136  0.7202 -0.0816 -1.5658
   19SAPS     P 2407   3.180   4.146   2.268  0.0355  0.2783 -0.0312
   19SAPS   O13 2408   3.065   4.215   2.330  0.0940  0.1947  0.0572
   19SAPS   O14 2409   3.177   4.000   2.276  0.5973  0.2174 -0.0785
   19SAPS   O12 2410   3.198   4.197   2.122 -0.3753 -0.6715 -0.2001
   19SAPS   O11 2411   3.309   4.207   2.330 -0.0198  0.5081  0.0648
   19SAPS    C1 2412   3.432   4.131   2.356 -0.5466  0.0288  0.4160
   19SAPS    HA 2413   3.413   4.027   2.390  1.1774 -1.2312 -2.1937
   19SAPS    HB 2414   3.488   4.103   2.264 -1.4350 -0.5585  0.0341
   19SAPS    C2 2415   3.516   4.198   2.462  0.1397  0.0318 -0.9285
   19SAPS    HS 2416   3.581   4.120   2.508 -0.9627 -0.0633  0.5197
   19SAPS   O21 2417   3.432   4.259   2.565 -0.0307 -0.0440 -0.6102
   19SAPS   C21 2418   3.377   4.179   2.653 -0.0461 -0.5206 -0.0224
   19SAPS   O22 2419   3.391   4.056   2.657  0.0794  0.1548 -0.0793
   19SAPS   C22 2420   3.283   4.259   2.746 -0.2880 -0.1726  0.1120
   19SAPS   H2R 2421   3.300   4.364   2.714  0.6535 -0.1368  0.6713
   19SAPS   H2S 2422   3.179   4.229   2.725 -0.2526 -0.1316 -0.1271
   19SAPS    C3 2423   3.616   4.304   2.407 -0.1478 -0.0526 -0.3317
   19SAPS    HX 2424   3.551   4.376   2.352 -2.0710  1.2126  3.2561
   19SAPS    HY 2425   3.692   4.259   2.339  2.6707  1.9000  1.2653
   19SAPS   O31 2426   3.684   4.366   2.525 -0.3011 -0.0638  0.3967
   19SAPS   C31 2427   3.640   4.491   2.553 -0.6901 -0.0466  0.0497
   19SAPS   O32 2428   3.566   4.562   2.491 -0.4450  0.1778 -0.4165
   19SAPS   C32 2429   3.714   4.545   2.681 -0.3750 -0.7193  0.0309
   19SAPS   H2X 2430   3.640   4.555   2.763  0.5501  1.2893  0.6838
   19SAPS   H2Y 2431   3.759   4.642   2.652  0.4610 -1.8067 -2.6084
   19SAPS   C23 2432   3.327   4.248   2.891  0.0233 -0.0917  0.3156
   19SAPS   H3R 2433   3.438   4.253   2.889 -0.0141  0.4668 -1.8181
   19SAPS   H3S 2434   3.310   4.143   2.923  0.2665 -1.3285 -3.1954
   19SAPS   C24 2435   3.260   4.353   2.984 -0.1726 -0.1438 -0.3008
   19SAPS   H4R 2436   3.293   4.450   2.943  3.0226 -0.2800  1.5740
   19SAPS   H4S 2437   3.312   4.361   3.082  0.2771  0.8846 -0.6142
   19SAPS   C25 2438   3.112   4.333   2.997 -0.9377  0.4233  0.4205
   19SAPS   H5R 2439   3.068   4.326   2.897 -1.2210 -1.9038  0.6652
   19SAPS   C26 2440   3.039   4.323   3.106  0.8284  0.5051 -0.8605
   19SAPS   H6R 2441   2.935   4.289   3.095  1.0071  0.1872 -1.6137
   19SAPS   C27 2442   3.091   4.318   3.251  0.2697  0.0241 -0.1347
   19SAPS   H7R 2443   3.181   4.255   3.268 -0.7197 -1.2572  0.5465
   19SAPS   H7S 2444   3.013   4.267   3.313  3.0011 -2.0911  1.8121
   19SAPS   C28 2445   3.109   4.454   3.303 -0.2198 -0.2128  0.1727
   19SAPS   H8R 2446   3.053   4.534   3.252 -0.2167 -0.6196 -0.4788
   19SAPS   C29 2447   3.196   4.498   3.397 -0.0248 -0.0655 -0.2842
   19SAPS   H9R 2448   3.181   4.603   3.426 -0.5839 -0.8216  2.4764
   19SAPS  C210 2449   3.291   4.408   3.479  1.3223 -0.1896 -0.1055
   19SAPS  H10R 2450   3.393   4.426   3.440  0.6977 -0.0187 -1.7288
   19SAPS  H10S 2451   3.271   4.299   3.469  1.0767 -0.0672 -0.9772
   19SAPS  C211 2452   3.276   4.437   3.628  0.7849 -0.7445  0.0447
   19SAPS  H11R 2453   3.207   4.520   3.650 -0.9452 -1.6355 -1.7194
   19SAPS  C212 2454   3.350   4.395   3.733 -0.1265  0.1164  1.0973
   19SAPS  H12R 2455   3.318   4.427   3.833  0.9615  0.7582  1.2567
   19SAPS  C213 2456   3.451   4.282   3.741  0.2055  0.0953  0.6806
   19SAPS  H13R 2457   3.433   4.208   3.660 -0.5062  0.2380  0.7070
   19SAPS  H13S 2458   3.425   4.234   3.837 -1.9163 -0.0412  0.0815
   19SAPS  C214 2459   3.589   4.330   3.751 -0.4578  0.2992  0.4872
   19SAPS  H14R 2460   3.600   4.438   3.735 -0.6764  0.2632  0.0969
   19SAPS  C215 2461   3.702   4.258   3.767  0.1342 -0.2569 -0.7502
   19SAPS  H15R 2462   3.803   4.303   3.768  0.9730 -2.0281  1.2725
   19SAPS  C216 2463   3.697   4.110   3.771  0.8408 -0.4516  0.9898
   19SAPS  H16R 2464   3.740   4.072   3.675  0.2729 -0.0736  0.5766
   19SAPS  H16S 2465   3.596   4.066   3.781  0.3771 -0.0902 -1.4819
   19SAPS  C217 2466   3.778   4.055   3.886  0.4404 -0.3224  0.7993
   19SAPS  H17R 2467   3.880   4.096   3.869 -1.1563  3.0307 -1.8545
   19SAPS  H17S 2468   3.791   3.945   3.875  1.6389 -0.2109  0.9604
   19SAPS  C218 2469   3.722   4.097   4.024  0.6906 -0.7311 -0.0804
   19SAPS  H18R 2470   3.613   4.114   4.015  0.7453  1.6353  2.3806
   19SAPS  H18S 2471   3.759   4.194   4.065 -2.0857 -0.0648  1.0801
   19SAPS  C219 2472   3.748   3.994   4.133  0.6667 -0.0495  0.5717
   19SAPS  H19R 2473   3.858   3.980   4.137  0.8562  0.1755 -2.0102
   19SAPS  H19S 2474   3.706   3.902   4.087 -0.5150  0.1973  1.1071
   19SAPS  C220 2475   3.705   4.033   4.270 -0.7125 -0.5175  0.0874
   19SAPS  H20R 2476   3.715   3.948   4.341 -0.1521 -0.4429  0.1020
   19SAPS  H20S 2477   3.600   4.070   4.273 -0.5492 -0.1024  0.9690
   19SAPS  H20T 2478   3.780   4.109   4.303 -1.7119  0.6446 -0.2505
   19SAPS   C33 2479   3.818   4.443   2.741 -0.1789 -0.4663  0.1650
   19SAPS   H3X 2480   3.909   4.434   2.677  0.5961  2.5097  0.7100
   19SAPS   H3Y 2481   3.783   4.338   2.748 -2.7788  0.4138  1.4765
   19SAPS   C34 2482   3.866   4.484   2.878 -0.2308  0.8063  0.4282
   19SAPS   H4X 2483   3.780   4.474   2.948  0.8314 -0.9699  1.5476
   19SAPS   H4Y 2484   3.895   4.591   2.883  1.1629  0.4144  1.4971
   19SAPS   C35 2485   3.983   4.394   2.917 -0.5752 -0.4843 -0.3581
   19SAPS   H5X 2486   4.069   4.441   2.865 -0.1151  0.1273  0.9068
   19SAPS   H5Y 2487   3.968   4.293   2.874  0.5897 -1.0681  0.5453
   19SAPS   C36 2488   4.007   4.394   3.070  0.2277  0.6356  0.5047
   19SAPS   H6X 2489   4.075   4.308   3.087  1.1686  1.6178  1.9620
   19SAPS   H6Y 2490   3.907   4.363   3.106  0.9767 -1.7078  0.6908
   19SAPS   C37 2491   4.065   4.525   3.126 -0.4192 -0.2392 -0.4925
   19SAPS   H7X 2492   4.004   4.611   3.093  1.0202  0.9918 -0.0277
   19SAPS   H7Y 2493   4.170   4.533   3.090  0.0021 -2.2737  0.1132
   19SAPS   C38 2494   4.067   4.527   3.279  0.0241 -0.3321 -0.1006
   19SAPS   H8X 2495   4.127   4.442   3.318  1.5458  0.5749 -0.3731
   19SAPS   H8Y 2496   3.962   4.516   3.315 -0.0896  1.4852  0.2484
   19SAPS   C39 2497   4.142   4.645   3.347  1.0349 -0.2034  0.1371
   19SAPS   H9X 2498   4.083   4.738   3.330 -3.0399 -2.9332 -2.5524
   19SAPS   H9Y 2499   4.240   4.654   3.295  0.9528  0.6760  0.1213
   19SAPS  C310 2500   4.146   4.612   3.499 -0.5118  0.0166  0.5635
   19SAPS  H10X 2501   4.168   4.504   3.509 -1.5799 -0.3379 -0.6328
   19SAPS  H10Y 2502   4.043   4.621   3.540 -1.0466 -2.1316 -0.2119
   19SAPS  C311 2503   4.240   4.707   3.575 -0.1460 -0.8157  0.0934
   19SAPS  H11X 2504   4.236   4.812   3.540  2.4855 -1.2191 -1.6049
   19SAPS  H11Y 2505   4.342   4.674   3.548 -0.8632 -1.8656 -1.4520
   19SAPS  C312 2506   4.229   4.704   3.728  0.6803  0.1899  0.6296
   19SAPS  H12X 2507   4.195   4.601   3.751 -2.1589  1.1187  1.0356
   19SAPS  H12Y 2508   4.141   4.766   3.755 -1.2773 -1.7643 -0.8724
   19SAPS  C313 2509   4.352   4.745   3.806 -0.2747 -0.3139 -0.4887
   19SAPS  H13X 2510   4.372   4.855   3.803  0.6447 -0.3779  1.4316
   19SAPS  H13Y 2511   4.437   4.695   3.756  0.1787  0.0338 -0.0824
   19SAPS  C314 2512   4.336   4.706   3.957  0.4491 -0.2436  0.4207
   19SAPS  H14X 2513   4.313   4.597   3.954  0.0363 -0.1352 -1.1619
   19SAPS  H14Y 2514   4.259   4.759   4.017  0.8104 -0.4185  1.0563
   19SAPS  C315 2515   4.456   4.729   4.051 -0.1200  0.9780  0.5650
   19SAPS  H15X 2516   4.485   4.835   4.070  1.6629  0.5735  0.2382
   19SAPS  H15Y 2517   4.542   4.677   4.005  0.7794 -0.1941  3.3791
   19SAPS  C316 2518   4.457   4.659   4.183 -0.4755  0.5028  0.1687
   19SAPS  H16X 2519   4.475   4.550   4.176  2.3225  0.7809  1.5778
   19SAPS  H16Y 2520   4.362   4.678   4.236  0.9723  2.4500  2.2543
   19SAPS  C317 2521   4.584   4.707   4.255  0.1407 -0.2243  0.2686
   19SAPS  H17X 2522   4.571   4.655   4.352  0.0899 -0.1173  0.3189
   19SAPS  H17Y 2523   4.583   4.813   4.290  2.6341 -0.2914  0.7675
   19SAPS  C318 2524   4.718   4.670   4.195  0.2261  0.2011  0.4747
   19SAPS  H18X 2525   4.794   4.655   4.274  2.6436 -1.3635 -1.9787
   19SAPS  H18Y 2526   4.745   4.741   4.114 -1.5855 -0.9561 -1.2514
   19SAPS  H18Z 2527   4.696   4.572   4.148 -0.7329 -0.6568  2.5726
   20SAPS     N 2528   5.790   6.388   1.998 -0.4530  0.0964 -0.0473
   20SAPS   HN1 2529   5.763   6.429   1.906  0.4172 -0.8816 -0.7755
   20SAPS   HN2 2530   5.766   6.456   2.072 -0.4419  0.5964 -0.4941
   20SAPS   HN3 2531   5.894   6.390   2.003 -0.4022  3.4247 -0.0401
   20SAPS   C12 2532   5.735   6.253   2.029 -0.2732  0.2419 -0.0343
   20SAPS  H12A 2533   5.647   6.247   1.967  0.9377 -0.8458 -1.7522
   20SAPS   C13 2534   5.817   6.124   1.983  0.3707 -0.3335  0.3696
   20SAPS  O13A 2535   5.925   6.143   1.925  0.9225  0.1095 -0.1614
   20SAPS  O13B 2536   5.770   6.009   2.009  0.0936  0.0223 -0.3548
   20SAPS   C11 2537   5.704   6.235   2.182 -0.5107 -0.1238  0.1364
   20SAPS  H11A 2538   5.804   6.232   2.229 -0.8326 -0.8285  0.7851
   20SAPS  H11B 2539   5.654   6.140   2.208  0.5400 -0.5597  0.6206
   20SAPS     P 2540   5.470   6.344   2.217 -0.3150  0.1950  0.1352
   20SAPS   O13 2541   5.420   6.483   2.220  0.2320  0.6305  0.2589
   20SAPS   O14 2542   5.439   6.268   2.095 -0.2728 -0.3761 -0.3511
   20SAPS   O12 2543   5.628   6.342   2.236  0.1192  0.4840 -0.0068
   20SAPS   O11 2544   5.410   6.268   2.340 -0.1174 -0.1219  0.2107
   20SAPS    C1 2545   5.479   6.172   2.421 -1.2159  0.2735 -0.6706
   20SAPS    HA 2546   5.442   6.071   2.396 -1.6570  0.8188 -2.3106
   20SAPS    HB 2547   5.588   6.158   2.409 -0.7933 -0.6122  2.8745
   20SAPS    C2 2548   5.471   6.204   2.576 -0.1345 -0.5136 -0.0460
   20SAPS    HS 2549   5.363   6.209   2.601 -0.1919  2.1267 -0.5602
   20SAPS   O21 2550   5.528   6.331   2.599  0.0169 -0.1628 -0.4488
   20SAPS   C21 2551   5.460   6.400   2.698  0.6725 -0.2674  0.6648
   20SAPS   O22 2552   5.359   6.358   2.757 -0.3217  0.2312  0.1533
   20SAPS   C22 2553   5.528   6.537   2.702  0.1315 -0.5607 -0.2411
   20SAPS   H2R 2554   5.637   6.518   2.697  0.4558  0.3890  2.0855
   20SAPS   H2S 2555   5.485   6.592   2.616  0.6697  0.5812  0.1997
   20SAPS    C3 2556   5.550   6.099   2.651 -0.4482 -0.1120 -0.8754
   20SAPS    HX 2557   5.652   6.113   2.610 -0.5702 -0.5373 -1.3336
   20SAPS    HY 2558   5.521   5.996   2.621  0.9851  0.6383 -5.8366
   20SAPS   O31 2559   5.552   6.122   2.797 -0.0976 -0.5845 -0.1805
   20SAPS   C31 2560   5.456   6.072   2.862  0.4217 -0.2330  0.0920
   20SAPS   O32 2561   5.366   5.997   2.817 -0.6007 -0.3423 -0.1315
   20SAPS   C32 2562   5.473   6.136   3.003  0.5277  0.8581 -0.7371
   20SAPS   H2X 2563   5.449   6.244   2.994 -0.1920  0.7851  0.1727
   20SAPS   H2Y 2564   5.578   6.119   3.034  0.6977 -0.2912 -1.8375
   20SAPS   C23 2565   5.496   6.612   2.835  0.5567 -0.4261 -0.2638
   20SAPS   H3R 2566   5.386   6.620   2.844  0.7454  1.4540  0.8846
   20SAPS   H3S 2567   5.537   6.714   2.824  1.4819 -1.0398 -3.3865
   20SAPS   C24 2568   5.549   6.549   2.966 -0.1344 -0.1405  0.0810
   20SAPS   H4R 2569   5.655   6.518   2.962 -0.6437 -1.8726 -0.7889
   20SAPS   H4S 2570   5.482   6.462   2.980  0.7375 -0.6053  1.6368
   20SAPS   C25 2571   5.526   6.654   3.077 -0.2204  0.5184  0.3402
   20SAPS   H5R 2572   5.552   6.757   3.048  0.7179  0.6192  1.4346
   20SAPS   C26 2573   5.479   6.635   3.204 -0.4859  0.3882 -0.1086
   20SAPS   H6R 2574   5.470   6.726   3.264 -1.2028  0.6897 -0.6580
   20SAPS   C27 2575   5.434   6.505   3.273 -0.3360  1.0863  0.3207
   20SAPS   H7R 2576   5.391   6.438   3.195  1.8181  1.4388 -1.2654
   20SAPS   H7S 2577   5.359   6.518   3.353  0.1619 -0.4738  1.0859
   20SAPS   C28 2578   5.554   6.437   3.335  0.3036 -0.0000 -0.7447
   20SAPS   H8R 2579   5.626   6.390   3.267  0.7845 -2.4164  1.2908
   20SAPS   C29 2580   5.586   6.429   3.467  0.1839  0.7588  0.2370
   20SAPS   H9R 2581   5.669   6.360   3.490 -0.7001 -1.1542 -1.9185
   20SAPS  C210 2582   5.515   6.488   3.585 -0.3475  0.7158  0.3676
   20SAPS  H10R 2583   5.405   6.474   3.578 -0.2745  0.5023 -0.4023
   20SAPS  H10S 2584   5.532   6.598   3.590 -2.2650  1.1825 -1.5639
   20SAPS  C211 2585   5.563   6.422   3.713 -0.1763 -0.0966 -0.0631
   20SAPS  H11R 2586   5.572   6.312   3.719  1.1217  0.0260  0.6505
   20SAPS  C212 2587   5.613   6.487   3.823 -0.4508 -0.4765 -0.2931
   20SAPS  H12R 2588   5.643   6.426   3.909  0.5464 -0.7835 -0.8499
   20SAPS  C213 2589   5.627   6.638   3.834  0.7735 -0.0879 -0.4213
   20SAPS  H13R 2590   5.661   6.682   3.738 -0.5480  1.0869 -0.3877
   20SAPS  H13S 2591   5.708   6.667   3.904 -0.7772  0.4643  1.2160
   20SAPS  C214 2592   5.502   6.702   3.891  0.3821  0.3940 -0.0870
   20SAPS  H14R 2593   5.417   6.694   3.822  0.4629 -2.1579  0.0060
   20SAPS  C215 2594   5.483   6.748   4.021 -0.5023 -0.3866 -0.5782
   20SAPS  H15R 2595   5.382   6.780   4.052 -0.1096  1.2477 -0.9212
   20SAPS  C216 2596   5.590   6.736   4.135  0.0509 -0.1968  0.5869
   20SAPS  H16R 2597   5.673   6.667   4.111  1.4414  1.8752 -0.8247
   20SAPS  H16S 2598   5.536   6.680   4.216 -1.2552 -0.1642 -0.2284
   20SAPS  C217 2599   5.638   6.871   4.181 -0.0863 -0.1666  0.3217
   20SAPS  H17R 2600   5.553   6.942   4.191 -0.1604 -0.0636 -0.8709
   20SAPS  H17S 2601   5.697   6.913   4.097  1.3825 -0.2137  1.3142
   20SAPS  C218 2602   5.735   6.883   4.303 -0.6383  0.4473  0.1808
   20SAPS  H18R 2603   5.792   6.978   4.296  3.3176 -1.7859 -2.0639
   20SAPS  H18S 2604   5.813   6.804   4.310  0.0647  1.1988  1.1954
   20SAPS  C219 2605   5.658   6.880   4.433  0.2457  0.5236 -1.0116
   20SAPS  H19R 2606   5.560   6.933   4.427  0.1532  0.9739  2.5477
   20SAPS  H19S 2607   5.721   6.942   4.501  0.8663  0.0828 -1.1728
   20SAPS  C220 2608   5.646   6.747   4.486  0.7540  0.5530 -0.2937
   20SAPS  H20R 2609   5.571   6.727   4.566 -0.5680  1.3390 -1.2957
   20SAPS  H20S 2610   5.740   6.714   4.534  0.4604  0.6283  0.3489
   20SAPS  H20T 2611   5.632   6.669   4.408  0.2511  0.4496 -0.1057
   20SAPS   C33 2612   5.378   6.067   3.103  0.0063 -0.6526  0.4887
   20SAPS   H3X 2613   5.395   5.958   3.113  2.8107 -0.2366  1.4249
   20SAPS   H3Y 2614   5.274   6.094   3.077  0.5532  2.5534  1.1121
   20SAPS   C34 2615   5.411   6.133   3.235  0.1603 -0.2013 -0.2154
   20SAPS   H4X 2616   5.363   6.233   3.242  2.9995  1.3013 -0.3413
   20SAPS   H4Y 2617   5.520   6.156   3.244 -0.3275  2.4395 -0.1647
   20SAPS   C35 2618   5.364   6.043   3.347  0.1853  0.4018  0.4039
   20SAPS   H5X 2619   5.408   5.944   3.322  2.2246  1.5498 -0.7399
   20SAPS   H5Y 2620   5.254   6.024   3.349  0.1057  0.7070 -0.6885
   20SAPS   C36 2621   5.399   6.080   3.492  0.1695  0.0239 -0.1821
   20SAPS   H6X 2622   5.353   6.170   3.540  1.6791  1.3914 -1.1958
   20SAPS   H6Y 2623   5.509   6.092   3.493  0.2004  0.1336 -1.8606
   20SAPS   C37 2624   5.356   5.967   3.588  0.3314 -0.4936  0.1117
   20SAPS   H7X 2625   5.379   5.869   3.540 -0.1523  0.3399 -1.9635
   20SAPS   H7Y 2626   5.246   5.980   3.583  0.4872  0.7295 -0.7587
   20SAPS   C38 2627   5.407   5.974   3.727  0.1130 -0.8642 -0.5295
   20SAPS   H8X 2628   5.376   6.072   3.768  1.2811 -1.6211  2.4251
   20SAPS   H8Y 2629   5.517   5.968   3.742 -0.3637 -0.6037  5.6487
   20SAPS   C39 2630   5.358   5.861   3.816 -0.5114  0.1510  0.6315
   20SAPS   H9X 2631   5.407   5.765   3.790  0.8549  1.0888 -0.3677
   20SAPS   H9Y 2632   5.249   5.859   3.795 -0.5715  1.4833  0.7078
   20SAPS  C310 2633   5.396   5.877   3.958  0.3458 -0.1921 -0.5189
   20SAPS  H10X 2634   5.366   5.979   3.991  0.6477 -0.5251  0.8438
   20SAPS  H10Y 2635   5.507   5.868   3.962  0.3724 -2.1664 -3.1251
   20SAPS  C311 2636   5.342   5.783   4.058  0.9530 -0.2173  0.2537
   20SAPS  H11X 2637   5.375   5.685   4.019  0.0678 -1.0325  1.4915
   20SAPS  H11Y 2638   5.231   5.782   4.055  0.9294  0.7998  0.2830
   20SAPS  C312 2639   5.387   5.795   4.208 -0.3152 -0.5812  0.3540
   20SAPS  H12X 2640   5.497   5.803   4.197 -0.5140  1.3879 -0.6289
   20SAPS  H12Y 2641   5.363   5.696   4.251  3.8175 -2.9911 -2.1452
   20SAPS  C313 2642   5.338   5.918   4.288 -0.1967  0.1844  0.1095
   20SAPS  H13X 2643   5.383   6.008   4.240  0.5222 -0.2212  0.0138
   20SAPS  H13Y 2644   5.391   5.910   4.386  0.3070 -2.8952 -0.3182
   20SAPS  C314 2645   5.185   5.924   4.306 -0.1853 -0.4132  0.3919
   20SAPS  H14X 2646   5.144   5.825   4.337  0.6954 -1.6390 -2.0774
   20SAPS  H14Y 2647   5.148   5.936   4.202 -0.6768 -0.1881  0.5891
   20SAPS  C315 2648   5.126   6.027   4.397  0.2456 -0.7741 -0.3254
   20SAPS  H15X 2649   5.174   6.015   4.496 -3.1114 -0.1544  1.5313
   20SAPS  H15Y 2650   5.016   6.012   4.403  0.1411 -0.3580 -1.0391
   20SAPS  C316 2651   5.153   6.169   4.351 -0.5501  0.3600 -0.2923
   20SAPS  H16X 2652   5.082   6.201   4.272  0.0724 -0.0753 -1.0484
   20SAPS  H16Y 2653   5.255   6.161   4.307 -1.5522  0.6637 -2.8319
   20SAPS  C317 2654   5.146   6.281   4.460 -0.3841  0.0768  0.7586
   20SAPS  H17X 2655   5.193   6.256   4.558  0.0883  1.1221  0.8101
   20SAPS  H17Y 2656   5.041   6.293   4.495 -0.4575  0.4872  0.3970
   20SAPS  C318 2657   5.198   6.421   4.417 -0.1515 -0.7930  0.5607
   20SAPS  H18X 2658   5.130   6.462   4.339 -0.3182 -1.1379  0.5252
   20SAPS  H18Y 2659   5.301   6.425   4.377 -1.5076 -1.0237 -3.3739
   20SAPS  H18Z 2660   5.172   6.492   4.498 -0.2334  1.0569 -1.0181
   21CHL1    C3 2661   2.569   2.566   5.874  0.0987  0.4357 -0.3740
   21CHL1    H3 2662   2.480   2.632   5.875  0.0093  0.3189  0.3743
   21CHL1    O3 2663   2.618   2.553   6.003 -0.3543 -0.0033  0.2420
   21CHL1   H3' 2664   2.707   2.521   5.986  0.2128  1.1768  0.8479
   21CHL1    C4 2665   2.546   2.426   5.812 -0.1831 -0.3475  0.4122
   21CHL1   H4A 2666   2.630   2.357   5.833 -0.4517 -0.9493 -0.4291
   21CHL1   H4B 2667   2.463   2.376   5.866 -2.4412  0.0978 -2.3713
   21CHL1    C5 2668   2.513   2.415   5.668  0.2760 -0.0356  0.6274
   21CHL1    C6 2669   2.399   2.352   5.623  0.4400 -0.0300 -0.2581
   21CHL1    H6 2670   2.336   2.297   5.695  1.8300 -2.2222 -0.6335
   21CHL1    C7 2671   2.350   2.341   5.484 -0.5756 -0.6754  0.3529
   21CHL1   H7A 2672   2.314   2.241   5.451 -0.8834 -0.4640  0.0362
   21CHL1   H7B 2673   2.268   2.413   5.465  1.0251  0.6970 -1.7585
   21CHL1    C8 2674   2.459   2.389   5.382  0.5746  0.1018 -0.1725
   21CHL1    H8 2675   2.530   2.304   5.380  0.9898  0.4575 -1.2905
   21CHL1   C14 2676   2.405   2.418   5.247  0.0860 -0.0666  0.6247
   21CHL1   H14 2677   2.328   2.496   5.269 -3.7468 -3.6813  1.2357
   21CHL1   C15 2678   2.318   2.315   5.173 -0.0866 -0.7116 -0.6496
   21CHL1  H15A 2679   2.378   2.222   5.182 -1.6210 -1.8843 -1.8932
   21CHL1  H15B 2680   2.218   2.289   5.212 -0.1365  1.9926  1.2856
   21CHL1   C16 2681   2.306   2.359   5.023 -0.1866  0.5864  0.0612
   21CHL1  H16A 2682   2.352   2.271   4.972  0.2559  0.4352  0.7126
   21CHL1  H16B 2683   2.199   2.379   4.998 -0.2554 -1.1970 -1.2799
   21CHL1   C17 2684   2.394   2.488   5.012 -1.2664  0.1827 -0.3549
   21CHL1   H17 2685   2.329   2.578   5.018 -0.5008  0.6540  1.7843
   21CHL1   C13 2686   2.495   2.483   5.140 -0.4320 -0.0649  0.5774
   21CHL1   C18 2687   2.608   2.392   5.095 -0.2704  0.6260 -0.7775
   21CHL1  H18A 2688   2.581   2.297   5.044 -0.0116 -0.5859  1.2300
   21CHL1  H18B 2689   2.674   2.454   5.032 -1.0934  2.7810  0.3889
   21CHL1  H18C 2690   2.672   2.361   5.181 -1.0352  1.2996  0.0596
   21CHL1   C12 2691   2.542   2.619   5.200 -0.4544  0.3837 -0.4772
   21CHL1  H12A 2692   2.613   2.673   5.134  0.0400  1.9917  1.2520
   21CHL1  H12B 2693   2.467   2.701   5.209 -0.6826  0.0220  1.3642
   21CHL1   C11 2694   2.620   2.592   5.334  0.5596 -0.0060 -0.2277
   21CHL1  H11A 2695   2.706   2.529   5.305 -0.8385 -1.8669 -0.5049
   21CHL1  H11B 2696   2.658   2.691   5.368  0.0352  0.5340 -1.1781
   21CHL1    C9 2697   2.532   2.520   5.442  0.6497 -0.0084 -0.5793
   21CHL1    H9 2698   2.458   2.601   5.459 -0.6371 -1.3646  0.4754
   21CHL1   C10 2699   2.607   2.494   5.582 -0.4370 -0.0944  0.2877
   21CHL1   C19 2700   2.739   2.414   5.553  0.0623 -0.8454 -0.3012
   21CHL1  H19A 2701   2.801   2.472   5.480 -1.4098  0.3341 -0.6604
   21CHL1  H19B 2702   2.794   2.390   5.646  0.1943 -0.2727 -0.2264
   21CHL1  H19C 2703   2.715   2.322   5.497 -2.3100  0.0626 -0.8920
   21CHL1    C1 2704   2.635   2.635   5.648  0.4655  0.0661 -0.6899
   21CHL1   H1A 2705   2.707   2.690   5.584 -0.5460  2.3418 -0.0039
   21CHL1   H1B 2706   2.538   2.688   5.637  0.2057  0.2228  1.7140
   21CHL1    C2 2707   2.670   2.643   5.795 -0.3740  0.9369  0.7979
   21CHL1   H2A 2708   2.676   2.748   5.833 -1.7689  1.4876 -0.4251
   21CHL1   H2B 2709   2.773   2.603   5.801  0.1416  2.1616  0.4063
   21CHL1   C20 2710   2.458   2.498   4.872 -0.7236  0.0599 -0.6473
   21CHL1   H20 2711   2.542   2.426   4.864 -0.2736  0.4224  0.5665
   21CHL1   C21 2712   2.522   2.634   4.863 -0.3119 -0.4787  0.7255
   21CHL1  H21A 2713   2.571   2.652   4.765 -1.9704  1.3295  0.1514
   21CHL1  H21B 2714   2.593   2.662   4.943 -1.6587  0.3575  1.6649
   21CHL1  H21C 2715   2.438   2.707   4.865  0.4782  0.4381  2.1609
   21CHL1   C22 2716   2.354   2.464   4.763  0.2831  0.0292  0.0306
   21CHL1  H22A 2717   2.327   2.357   4.775 -1.1017  0.0007 -2.5295
   21CHL1  H22B 2718   2.257   2.512   4.789 -0.5508 -1.6309  0.1221
   21CHL1   C23 2719   2.401   2.489   4.623 -0.3068 -0.4589  0.9064
   21CHL1  H23A 2720   2.415   2.596   4.599  0.6942 -0.6768  0.4641
   21CHL1  H23B 2721   2.500   2.442   4.605  0.0356  0.6806 -0.3325
   21CHL1   C24 2722   2.312   2.418   4.518  0.4088 -0.3869 -0.1379
   21CHL1  H24A 2723   2.368   2.432   4.423 -2.2391 -2.6970 -2.2283
   21CHL1  H24B 2724   2.302   2.311   4.548  0.8921  0.5999  4.0977
   21CHL1   C25 2725   2.169   2.481   4.515 -0.2104 -0.4710  0.2884
   21CHL1   H25 2726   2.110   2.462   4.607 -0.2061 -0.5531  0.2748
   21CHL1   C26 2727   2.168   2.633   4.479 -0.4211  0.3260  0.0565
   21CHL1  H26A 2728   2.232   2.687   4.552 -1.7426  0.1591  1.3885
   21CHL1  H26B 2729   2.199   2.658   4.376 -1.6333  0.4968 -0.2811
   21CHL1  H26C 2730   2.064   2.668   4.497 -0.8707  0.9086 -3.1996
   21CHL1   C27 2731   2.080   2.410   4.406 -0.1586 -0.4321 -0.7232
   21CHL1  H27A 2732   2.079   2.299   4.410 -0.4784 -0.4001  2.1217
   21CHL1  H27B 2733   1.976   2.449   4.419 -0.4401 -0.5709 -2.3834
   21CHL1  H27C 2734   2.119   2.442   4.307 -2.5714  0.4257 -1.4769
   22CHL1    C3 2735   5.209   3.526   6.121 -0.3119  0.1099 -0.0115
   22CHL1    H3 2736   5.102   3.500   6.103 -0.7692  1.4959  0.5497
   22CHL1    O3 2737   5.252   3.450   6.230 -0.1110  0.0186 -0.2447
   22CHL1   H3' 2738   5.336   3.490   6.256 -0.0150 -1.1909  1.5216
   22CHL1    C4 2739   5.294   3.486   5.993  0.0772  0.7672 -0.1580
   22CHL1   H4A 2740   5.402   3.490   6.020  0.3485  2.3468 -1.3309
   22CHL1   H4B 2741   5.274   3.383   5.957 -0.0402  0.4321  0.8346
   22CHL1    C5 2742   5.250   3.585   5.885 -0.2074 -0.3761 -0.1406
   22CHL1    C6 2743   5.200   3.531   5.771  0.5388  0.6740  0.0927
   22CHL1    H6 2744   5.191   3.422   5.756  0.7247  0.7361 -0.5100
   22CHL1    C7 2745   5.173   3.614   5.651 -0.3510  0.2008  0.6349
   22CHL1   H7A 2746   5.220   3.569   5.561  0.0700  1.2371  0.3256
   22CHL1   H7B 2747   5.065   3.621   5.627 -0.0766  1.3281 -0.3230
   22CHL1    C8 2748   5.245   3.754   5.661 -0.0653 -0.0409  0.6773
   22CHL1    H8 2749   5.355   3.736   5.659 -0.6325 -5.3003  1.9553
   22CHL1   C14 2750   5.187   3.841   5.539 -0.1213 -0.4340  0.0876
   22CHL1   H14 2751   5.078   3.845   5.562 -0.1708 -2.2082  0.2947
   22CHL1   C15 2752   5.199   3.788   5.397 -0.8098 -0.5133 -0.5670
   22CHL1  H15A 2753   5.298   3.744   5.373  0.0625  1.2014 -0.3120
   22CHL1  H15B 2754   5.127   3.706   5.377  0.6557 -1.5626 -1.8170
   22CHL1   C16 2755   5.183   3.910   5.310 -0.6529 -0.4427 -0.1491
   22CHL1  H16A 2756   5.280   3.912   5.256 -1.1083  1.5669 -1.0144
   22CHL1  H16B 2757   5.105   3.904   5.231 -1.6598 -1.7004  0.9068
   22CHL1   C17 2758   5.179   4.030   5.406 -0.7703 -0.0217 -0.4575
   22CHL1   H17 2759   5.071   4.045   5.425 -0.7719 -2.0185  1.4411
   22CHL1   C13 2760   5.242   3.986   5.539 -0.2316  0.4091 -0.4048
   22CHL1   C18 2761   5.397   3.991   5.516  0.0833  0.8527 -0.1477
   22CHL1  H18A 2762   5.444   3.946   5.606 -1.4301  1.7265  1.1220
   22CHL1  H18B 2763   5.430   3.945   5.420 -0.2299  1.1782 -0.4174
   22CHL1  H18C 2764   5.432   4.097   5.518  1.8938  0.2881  0.0151
   22CHL1   C12 2765   5.198   4.052   5.679 -0.4045 -0.1585  0.2826
   22CHL1  H12A 2766   5.238   4.153   5.699 -0.2347 -0.2127  0.2221
   22CHL1  H12B 2767   5.087   4.049   5.678 -0.4818  1.9112  0.3180
   22CHL1   C11 2768   5.258   3.974   5.793 -0.2193  0.3979  0.4178
   22CHL1  H11A 2769   5.368   3.986   5.796 -0.2861  0.8843  1.4086
   22CHL1  H11B 2770   5.220   4.013   5.890  1.0057 -2.2597  2.1053
   22CHL1    C9 2771   5.216   3.823   5.794  0.2771 -0.4863 -0.2033
   22CHL1    H9 2772   5.105   3.829   5.784  0.5250  0.7783 -3.0226
   22CHL1   C10 2773   5.262   3.734   5.911  0.0452 -0.1456  0.6503
   22CHL1   C19 2774   5.412   3.770   5.936  0.1140 -0.3673  0.0922
   22CHL1  H19A 2775   5.483   3.759   5.851 -0.3174 -0.9768 -0.1995
   22CHL1  H19B 2776   5.422   3.876   5.967 -0.7672 -0.7638  1.8559
   22CHL1  H19C 2777   5.457   3.713   6.020  0.0271  0.2422  0.5563
   22CHL1    C1 2778   5.171   3.767   6.031  0.5092 -0.4469 -0.2422
   22CHL1   H1A 2779   5.186   3.871   6.067 -3.0927 -0.5193  1.9371
   22CHL1   H1B 2780   5.061   3.756   6.019  0.1718  1.5215  0.6259
   22CHL1    C2 2781   5.213   3.676   6.155  0.3702 -0.1832  0.5337
   22CHL1   H2A 2782   5.157   3.699   6.249 -0.1397  0.3452  0.1084
   22CHL1   H2B 2783   5.317   3.699   6.184 -0.2901  0.1200  2.8695
   22CHL1   C20 2784   5.223   4.167   5.337 -0.3625 -0.8287  0.1116
   22CHL1   H20 2785   5.324   4.152   5.294 -0.2047  0.3235  0.0352
   22CHL1   C21 2786   5.237   4.290   5.434 -0.1030  0.1241 -0.5244
   22CHL1  H21A 2787   5.290   4.372   5.381 -0.3001  1.5209  1.3145
   22CHL1  H21B 2788   5.312   4.268   5.514  2.6695 -0.2573 -3.0561
   22CHL1  H21C 2789   5.143   4.324   5.481 -0.3486 -0.3631 -0.6542
   22CHL1   C22 2790   5.134   4.199   5.217  0.0993 -0.0243  0.0827
   22CHL1  H22A 2791   5.125   4.110   5.152  0.2466  0.8068 -1.1195
   22CHL1  H22B 2792   5.032   4.224   5.253  0.2236 -1.0190  1.1824
   22CHL1   C23 2793   5.173   4.321   5.122 -0.7698  0.2316 -0.0907
   22CHL1  H23A 2794   5.186   4.421   5.169  2.0982 -0.2892  0.4216
   22CHL1  H23B 2795   5.274   4.309   5.077 -1.2644 -1.5165 -0.8226
   22CHL1   C24 2796   5.069   4.349   5.006  0.2462 -0.0736 -0.4804
   22CHL1  H24A 2797   5.051   4.246   4.968 -1.1394 -0.0039 -0.0736
   22CHL1  H24B 2798   4.973   4.386   5.048 -1.1676 -0.8196 -2.8508
   22CHL1   C25 2799   5.103   4.439   4.894  0.2369 -0.4205  1.0465
   22CHL1   H25 2800   5.197   4.408   4.844 -0.0490  1.7309 -1.0414
   22CHL1   C26 2801   4.994   4.426   4.784  0.0182 -0.2460  0.5280
   22CHL1  H26A 2802   4.977   4.320   4.754 -0.6168 -0.7402  2.5214
   22CHL1  H26B 2803   4.892   4.447   4.821 -1.3284 -3.9184 -0.6529
   22CHL1  H26C 2804   5.018   4.490   4.696 -0.3851 -2.1777 -1.0491
   22CHL1   C27 2805   5.134   4.584   4.934  0.1060 -0.3338 -0.0702
   22CHL1  H27A 2806   5.211   4.606   5.011 -0.2002 -0.2480  0.2139
   22CHL1  H27B 2807   5.157   4.648   4.846 -1.6460  0.9946  0.3751
   22CHL1  H27C 2808   5.041   4.620   4.983 -0.3319 -1.5751  0.0279
   23CHL1    C3 2809   0.969   4.986   5.860 -0.1328  1.0192 -0.5598
   23CHL1    H3 2810   0.867   4.994   5.817 -0.1486 -0.2556 -0.7912
   23CHL1    O3 2811   0.974   4.939   5.988  0.2012  0.4383  0.2610
   23CHL1   H3' 2812   1.058   4.965   6.027  0.9215 -0.4644 -0.6655
   23CHL1    C4 2813   1.047   4.878   5.778  0.4727  0.2446 -0.3324
   23CHL1   H4A 2814   1.152   4.882   5.813  1.1815  1.3350 -2.3940
   23CHL1   H4B 2815   1.010   4.775   5.798  0.7021  0.2658  0.2169
   23CHL1    C5 2816   1.046   4.909   5.638 -0.0254 -0.3404  0.5528
   23CHL1    C6 2817   1.008   4.824   5.537 -0.3137 -0.7126  0.0662
   23CHL1    H6 2818   0.970   4.723   5.560  1.9065 -1.3509  1.2668
   23CHL1    C7 2819   1.033   4.856   5.391  0.2562  0.5243 -0.2290
   23CHL1   H7A 2820   1.072   4.765   5.341  1.0750  0.7697 -0.0536
   23CHL1   H7B 2821   0.940   4.891   5.340 -0.3458 -0.6864 -0.0015
   23CHL1    C8 2822   1.130   4.972   5.369  0.0410 -0.0196  0.2867
   23CHL1    H8 2823   1.234   4.937   5.387  0.6789  1.8799  0.4985
   23CHL1   C14 2824   1.134   5.016   5.220  1.1219  0.2966  0.0570
   23CHL1   H14 2825   1.033   5.040   5.180  0.5311 -2.5382 -0.3747
   23CHL1   C15 2826   1.181   4.913   5.112 -0.1021  0.0476  0.0735
   23CHL1  H15A 2827   1.268   4.854   5.148 -1.0730 -2.3441 -1.2387
   23CHL1  H15B 2828   1.100   4.839   5.091  0.4467 -0.3005 -0.9032
   23CHL1   C16 2829   1.208   5.001   4.992 -0.4314  0.6810  0.2914
   23CHL1  H16A 2830   1.306   4.985   4.941 -0.4133  2.4389 -0.2876
   23CHL1  H16B 2831   1.133   4.975   4.915  0.5543 -2.0331  0.1187
   23CHL1   C17 2832   1.208   5.151   5.034 -0.3411 -0.1794 -0.5665
   23CHL1   H17 2833   1.102   5.180   5.015 -0.5844 -0.7564 -0.1590
   23CHL1   C13 2834   1.221   5.141   5.185  0.1089 -0.0209 -0.3428
   23CHL1   C18 2835   1.367   5.123   5.226 -1.0582 -0.2399  0.8136
   23CHL1  H18A 2836   1.386   5.100   5.333  1.1812 -0.9229  0.3086
   23CHL1  H18B 2837   1.411   5.037   5.171 -1.8724  0.1712 -0.5360
   23CHL1  H18C 2838   1.423   5.213   5.195  0.2261 -1.5872 -0.9979
   23CHL1   C12 2839   1.160   5.256   5.265  0.2882 -0.8103 -0.6934
   23CHL1  H12A 2840   1.219   5.348   5.243  0.7658 -0.7457  0.7419
   23CHL1  H12B 2841   1.057   5.284   5.234 -0.9911 -1.3062  2.7072
   23CHL1   C11 2842   1.154   5.232   5.421  0.1805  0.6049 -0.2010
   23CHL1  H11A 2843   1.261   5.236   5.450  0.3558  0.7257 -0.8454
   23CHL1  H11B 2844   1.101   5.318   5.468  0.6336 -0.5423  2.5805
   23CHL1    C9 2845   1.088   5.090   5.463 -0.4045 -0.1651  0.0781
   23CHL1    H9 2846   0.981   5.114   5.443 -0.5757 -2.1232 -1.6710
   23CHL1   C10 2847   1.108   5.056   5.620 -0.9585 -0.2473  0.4775
   23CHL1   C19 2848   1.257   5.062   5.644  0.1262 -0.4946 -0.3812
   23CHL1  H19A 2849   1.296   5.165   5.651 -1.5994  0.0951  4.0981
   23CHL1  H19B 2850   1.273   5.040   5.752  1.1226  1.6227 -0.0506
   23CHL1  H19C 2851   1.321   4.988   5.592 -0.4437 -0.9850 -0.3986
   23CHL1    C1 2852   1.030   5.157   5.702 -0.2216  0.6437 -0.9268
   23CHL1   H1A 2853   1.078   5.258   5.709  1.0554 -0.0325  1.0270
   23CHL1   H1B 2854   0.926   5.177   5.670 -0.2826  1.1958 -0.4051
   23CHL1    C2 2855   1.031   5.121   5.855  0.2680 -0.8787  0.2771
   23CHL1   H2A 2856   0.985   5.191   5.927  0.7440 -0.8590  0.5611
   23CHL1   H2B 2857   1.138   5.118   5.882  1.4406  0.0809 -3.5512
   23CHL1   C20 2858   1.297   5.243   4.955  0.2169  0.9548 -0.6297
   23CHL1   H20 2859   1.403   5.213   4.971  0.1334  0.5669 -0.8038
   23CHL1   C21 2860   1.287   5.392   4.982  0.6342 -0.0378  0.1238
   23CHL1  H21A 2861   1.359   5.451   4.921 -1.2745  0.2793 -1.9903
   23CHL1  H21B 2862   1.316   5.407   5.088 -1.0045  1.0237  0.4679
   23CHL1  H21C 2863   1.180   5.424   4.982  1.4298  2.9855 -1.1951
   23CHL1   C22 2864   1.287   5.211   4.795 -0.1497  0.6457 -0.3460
   23CHL1  H22A 2865   1.354   5.279   4.739  1.0262 -0.2567 -0.0913
   23CHL1  H22B 2866   1.331   5.109   4.795 -1.0438  0.1867  2.1852
   23CHL1   C23 2867   1.149   5.223   4.726  0.0647 -0.3743  0.6999
   23CHL1  H23A 2868   1.075   5.153   4.770  0.0362 -0.4893  0.4720
   23CHL1  H23B 2869   1.117   5.328   4.746 -2.0566 -1.0267  0.9624
   23CHL1   C24 2870   1.154   5.213   4.572  0.7561  0.0359  0.6413
   23CHL1  H24A 2871   1.248   5.258   4.534 -0.0712  1.4769  0.2295
   23CHL1  H24B 2872   1.142   5.104   4.557 -1.1609  0.3215 -0.2270
   23CHL1   C25 2873   1.023   5.260   4.503 -0.1851 -0.7599  0.3990
   23CHL1   H25 2874   1.023   5.370   4.519 -0.4551 -0.8240  0.8634
   23CHL1   C26 2875   1.026   5.226   4.355  0.6067  0.0654 -0.1082
   23CHL1  H26A 2876   1.122   5.262   4.312  1.2961 -0.4116  0.9868
   23CHL1  H26B 2877   1.023   5.115   4.344 -1.2473 -0.1219  1.6136
   23CHL1  H26C 2878   0.935   5.277   4.317 -0.3666 -2.4984 -1.5566
   23CHL1   C27 2879   0.886   5.222   4.565 -0.9437  0.8495  0.6338
   23CHL1  H27A 2880   0.882   5.111   4.568  2.6405  0.5140 -1.5295
   23CHL1  H27B 2881   0.882   5.246   4.673 -0.4187 -2.6827  1.5659
   23CHL1  H27C 2882   0.803   5.278   4.516 -2.9869  0.1468  3.0857
   24CHL1    C3 2883   4.392   4.497   5.685  0.3931 -0.4698  0.0868
   24CHL1    H3 2884   4.468   4.437   5.631  2.0246  2.3783 -1.0085
   24CHL1    O3 2885   4.418   4.498   5.828  0.8103  0.1462  0.4443
   24CHL1   H3' 2886   4.425   4.403   5.841 -0.3312  0.0843  0.6817
   24CHL1    C4 2887   4.397   4.644   5.633 -0.2086  0.3070  0.2498
   24CHL1   H4A 2888   4.325   4.708   5.689 -1.5043 -0.2838 -0.7121
   24CHL1   H4B 2889   4.502   4.676   5.654  0.1137  1.0898 -2.2694
   24CHL1    C5 2890   4.373   4.638   5.482 -0.1122 -0.0680 -0.5934
   24CHL1    C6 2891   4.461   4.699   5.399  0.1155  0.8359 -0.3501
   24CHL1    H6 2892   4.546   4.753   5.444  0.8985 -1.0638  0.5487
   24CHL1    C7 2893   4.426   4.715   5.253  0.2440  0.3649  0.0954
   24CHL1   H7A 2894   4.440   4.816   5.210  0.3196  0.4522  0.3232
   24CHL1   H7B 2895   4.487   4.643   5.195 -0.0523 -1.9236  2.4456
   24CHL1    C8 2896   4.277   4.673   5.217  0.2517 -0.0828 -0.1968
   24CHL1    H8 2897   4.214   4.759   5.249  2.6481  0.9082  2.2097
   24CHL1   C14 2898   4.270   4.664   5.068 -0.5296  0.0225 -0.5389
   24CHL1   H14 2899   4.335   4.575   5.051  2.2474  1.9650 -0.8652
   24CHL1   C15 2900   4.324   4.777   4.983  0.0066 -0.0716  0.1898
   24CHL1  H15A 2901   4.293   4.874   5.027 -0.6146  0.8568 -2.1213
   24CHL1  H15B 2902   4.434   4.770   4.968  0.1216  0.1831  0.9035
   24CHL1   C16 2903   4.250   4.761   4.846  0.3612  0.6434  0.2301
   24CHL1  H16A 2904   4.184   4.850   4.837 -0.3282  0.1702  0.4686
   24CHL1  H16B 2905   4.316   4.758   4.757 -1.3396  0.2761 -1.0838
   24CHL1   C17 2906   4.159   4.635   4.854  0.3196  0.1576  0.4575
   24CHL1   H17 2907   4.219   4.544   4.833 -1.5946 -0.3714 -3.4969
   24CHL1   C13 2908   4.132   4.630   5.011  0.8065 -0.5982 -0.0560
   24CHL1   C18 2909   4.033   4.743   5.048 -0.6857  0.2340  0.6982
   24CHL1  H18A 2910   4.052   4.846   5.010 -0.2345 -0.3698 -0.7359
   24CHL1  H18B 2911   3.930   4.709   5.023 -1.7156  0.9571  3.4698
   24CHL1  H18C 2912   4.029   4.756   5.159 -2.4998 -1.1370  0.8483
   24CHL1   C12 2913   4.078   4.501   5.080 -0.1690 -0.2241  0.4825
   24CHL1  H12A 2914   3.968   4.490   5.068 -0.1884  0.2230  0.2315
   24CHL1  H12B 2915   4.139   4.417   5.040  0.5164 -0.1115  1.2823
   24CHL1   C11 2916   4.095   4.491   5.236  0.0025  0.1248  0.0710
   24CHL1  H11A 2917   4.018   4.560   5.277 -1.0416 -0.8700 -0.1525
   24CHL1  H11B 2918   4.083   4.389   5.278  1.2931  0.8497  2.3978
   24CHL1    C9 2919   4.229   4.543   5.286 -0.1417  0.8905  0.5894
   24CHL1    H9 2920   4.304   4.468   5.255 -0.6201  0.3666  0.6950
   24CHL1   C10 2921   4.239   4.563   5.440  0.7543  0.0620 -0.2294
   24CHL1   C19 2922   4.115   4.655   5.487 -0.1418  0.0277 -0.6858
   24CHL1  H19A 2923   4.100   4.740   5.418  1.1446  1.0609  0.2560
   24CHL1  H19B 2924   4.023   4.593   5.488  0.1940 -0.4768  0.0677
   24CHL1  H19C 2925   4.129   4.692   5.591 -0.0342  0.0247 -0.6998
   24CHL1    C1 2926   4.224   4.424   5.517  0.4895  0.3187  0.4400
   24CHL1   H1A 2927   4.121   4.383   5.503  1.1014 -1.2166  0.2964
   24CHL1   H1B 2928   4.288   4.359   5.455  0.0881 -0.0145  0.3690
   24CHL1    C2 2929   4.254   4.436   5.664  0.2837 -0.1731 -0.0521
   24CHL1   H2A 2930   4.228   4.346   5.724  2.1436  0.3338  1.6380
   24CHL1   H2B 2931   4.182   4.511   5.703 -0.9129  0.5326 -3.3145
   24CHL1   C20 2932   4.053   4.623   4.748 -0.0324  0.9198  0.6859
   24CHL1   H20 2933   3.970   4.693   4.769 -1.2466  0.1707 -1.2988
   24CHL1   C21 2934   3.996   4.481   4.770 -0.2323  0.3448 -0.2116
   24CHL1  H21A 2935   4.077   4.411   4.799  0.1054 -1.1465 -4.2392
   24CHL1  H21B 2936   3.951   4.456   4.672 -1.3043 -1.2061  0.6384
   24CHL1  H21C 2937   3.909   4.493   4.838 -1.6755  0.9768 -2.0900
   24CHL1   C22 2938   4.110   4.646   4.606  0.1023 -1.0567 -0.1064
   24CHL1  H22A 2939   4.177   4.734   4.605  0.2003 -1.1323 -1.0400
   24CHL1  H22B 2940   4.175   4.565   4.567  0.7115 -0.6458  0.0279
   24CHL1   C23 2941   4.001   4.668   4.500 -0.6312 -0.3457 -0.1084
   24CHL1  H23A 2942   3.951   4.572   4.475 -1.6573  0.6088 -1.9724
   24CHL1  H23B 2943   3.927   4.740   4.540 -1.0190  0.1689 -1.6929
   24CHL1   C24 2944   4.047   4.711   4.363 -0.0347 -0.6243 -0.2190
   24CHL1  H24A 2945   4.105   4.806   4.371  1.1084 -1.2401 -0.8742
   24CHL1  H24B 2946   4.122   4.634   4.334 -0.2930 -0.6200 -0.9120
   24CHL1   C25 2947   3.930   4.731   4.257  0.7711  0.4014 -0.2998
   24CHL1   H25 2948   3.866   4.643   4.276  0.9631 -0.1337 -1.9269
   24CHL1   C26 2949   3.847   4.857   4.274 -0.2114 -0.4496  0.1440
   24CHL1  H26A 2950   3.925   4.936   4.283  0.7483 -1.4776  1.2253
   24CHL1  H26B 2951   3.767   4.870   4.198  0.0415  1.8985  0.2016
   24CHL1  H26C 2952   3.793   4.856   4.371  1.3844  0.9168  1.0976
   24CHL1   C27 2953   3.986   4.740   4.114  0.2512  0.2524 -0.2646
   24CHL1  H27A 2954   3.905   4.754   4.040  0.7449  3.0041 -0.4030
   24CHL1  H27B 2955   4.051   4.829   4.096  1.3803 -0.6123 -0.5670
   24CHL1  H27C 2956   4.052   4.653   4.094  2.7804  2.2592 -1.2727
   25CHL1    C3 2957   5.982   0.762   5.907 -0.0001  0.7425 -0.4143
   25CHL1    H3 2958   6.032   0.664   5.890 -0.7897  0.3687 -0.5950
   25CHL1    O3 2959   5.927   0.770   6.034 -0.5019  0.7658  0.2401
   25CHL1   H3' 2960   5.964   0.849   6.075  0.5443 -0.4447  1.6934
   25CHL1    C4 2961   6.081   0.879   5.889 -0.1049 -0.6103  0.0688
   25CHL1   H4A 2962   6.032   0.977   5.907 -1.5225 -1.4582  1.0140
   25CHL1   H4B 2963   6.159   0.868   5.968 -0.0948  0.6222  0.2586
   25CHL1    C5 2964   6.134   0.880   5.746  0.1205  0.5489 -0.4413
   25CHL1    C6 2965   6.266   0.892   5.718  0.2722  0.3059 -0.1038
   25CHL1    H6 2966   6.337   0.908   5.800 -0.4751 -0.1446  0.6549
   25CHL1    C7 2967   6.317   0.913   5.578 -0.7699 -0.3186 -0.4122
   25CHL1   H7A 2968   6.386   0.999   5.589 -0.9679 -0.0891 -0.9491
   25CHL1   H7B 2969   6.380   0.824   5.554  0.1232 -0.2675  1.5078
   25CHL1    C8 2970   6.207   0.945   5.475 -0.0473 -0.3077 -0.0585
   25CHL1    H8 2971   6.180   1.051   5.494  0.5490 -0.2250  0.3645
   25CHL1   C14 2972   6.259   0.927   5.336 -0.6658  1.0253 -0.2455
   25CHL1   H14 2973   6.300   0.824   5.336  0.4372  1.4130 -2.0595
   25CHL1   C15 2974   6.380   1.014   5.300  0.4134  0.2801  0.0350
   25CHL1  H15A 2975   6.344   1.116   5.325 -0.5800 -0.2142  0.6864
   25CHL1  H15B 2976   6.467   1.001   5.368  0.2224  2.8317  0.8893
   25CHL1   C16 2977   6.400   0.983   5.152 -0.3420 -0.3981  0.3319
   25CHL1  H16A 2978   6.410   1.079   5.098 -0.8244 -0.4879  0.0744
   25CHL1  H16B 2979   6.492   0.920   5.148  0.7048  0.9458  1.8378
   25CHL1   C17 2980   6.267   0.908   5.100 -0.1864  0.1246 -0.1233
   25CHL1   H17 2981   6.276   0.797   5.105 -3.0081 -0.1198  3.1295
   25CHL1   C13 2982   6.166   0.943   5.216 -0.1525 -0.4705 -0.6646
   25CHL1   C18 2983   6.108   1.085   5.197  0.1750  0.0093  0.4255
   25CHL1  H18A 2984   6.004   1.081   5.156  0.0869  1.0451  0.5031
   25CHL1  H18B 2985   6.108   1.141   5.293 -3.4156 -0.2085  0.6904
   25CHL1  H18C 2986   6.177   1.135   5.126  3.4304 -3.3250  0.9770
   25CHL1   C12 2987   6.053   0.848   5.248  0.2040 -0.4223 -0.2417
   25CHL1  H12A 2988   5.977   0.856   5.167  1.1663 -2.5168 -1.4366
   25CHL1  H12B 2989   6.087   0.743   5.233  0.5751 -0.5520  1.3433
   25CHL1   C11 2990   5.985   0.867   5.379 -0.5662  0.3446 -0.3861
   25CHL1  H11A 2991   5.925   0.960   5.383 -0.5415  0.3580 -0.3145
   25CHL1  H11B 2992   5.921   0.777   5.390 -0.3761  0.2145 -0.3408
   25CHL1    C9 2993   6.083   0.853   5.499  0.7032  0.2850 -0.1052
   25CHL1    H9 2994   6.108   0.745   5.500 -1.9258 -0.4042  1.1833
   25CHL1   C10 2995   6.024   0.869   5.640  0.2897 -0.4944 -0.3942
   25CHL1   C19 2996   5.946   1.007   5.635  0.3148 -0.2918 -0.7657
   25CHL1  H19A 2997   5.929   1.039   5.740  1.1487 -2.3007  0.0478
   25CHL1  H19B 2998   5.992   1.083   5.569 -1.4985  1.0946 -0.5077
   25CHL1  H19C 2999   5.851   0.978   5.585 -0.5339  0.9269  0.1117
   25CHL1    C1 3000   5.916   0.759   5.670 -0.1565  0.0021 -0.5935
   25CHL1   H1A 3001   5.827   0.767   5.604  0.9522  2.3296 -1.9303
   25CHL1   H1B 3002   5.971   0.662   5.662 -0.1913 -0.0651 -0.0702
   25CHL1    C2 3003   5.865   0.775   5.814  0.3458  0.8309  1.0332
   25CHL1   H2A 3004   5.796   0.691   5.840 -1.1749  1.1057 -1.6375
   25CHL1   H2B 3005   5.804   0.867   5.819 -1.5275 -0.1103 -1.6734
   25CHL1   C20 3006   6.233   0.940   4.953  0.6713 -0.4910 -0.1057
   25CHL1   H20 3007   6.239   1.049   4.933  0.9838 -0.6036 -0.6120
   25CHL1   C21 3008   6.092   0.891   4.914 -0.6171 -0.5844 -0.1143
   25CHL1  H21A 3009   6.091   0.780   4.927 -1.4253 -0.4329  1.2103
   25CHL1  H21B 3010   6.074   0.912   4.806  1.4385 -1.4996 -0.6999
   25CHL1  H21C 3011   6.007   0.941   4.964 -0.8622  0.1458 -1.2429
   25CHL1   C22 3012   6.343   0.882   4.859 -0.6377  0.2358 -0.6677
   25CHL1  H22A 3013   6.441   0.922   4.895 -0.3860 -3.0901  3.0823
   25CHL1  H22B 3014   6.337   0.772   4.875 -2.9916  0.4965  0.6462
   25CHL1   C23 3015   6.336   0.919   4.708 -0.5399  0.1590  0.6990
   25CHL1  H23A 3016   6.246   0.879   4.657  1.3301 -3.7028  0.0671
   25CHL1  H23B 3017   6.333   1.030   4.714 -1.1341  0.0828  2.4123
   25CHL1   C24 3018   6.453   0.864   4.635 -0.5432  0.0503 -0.7418
   25CHL1  H24A 3019   6.543   0.875   4.700 -1.3721  1.6013  0.2232
   25CHL1  H24B 3020   6.440   0.757   4.611  1.5847  0.0465 -2.1259
   25CHL1   C25 3021   6.484   0.927   4.500  0.2473 -0.8666  0.3764
   25CHL1   H25 3022   6.478   1.036   4.518 -0.6799 -1.2859  3.1760
   25CHL1   C26 3023   6.614   0.882   4.445  0.1125 -0.2913  0.0845
   25CHL1  H26A 3024   6.633   0.941   4.353  0.7240 -1.1977 -0.3878
   25CHL1  H26B 3025   6.692   0.906   4.521 -0.2805 -0.3191  0.5034
   25CHL1  H26C 3026   6.605   0.772   4.435 -1.5133 -0.0642 -1.4597
   25CHL1   C27 3027   6.361   0.893   4.413  0.1275 -1.0590 -0.1073
   25CHL1  H27A 3028   6.356   0.783   4.400  0.0210 -1.0980  0.2601
   25CHL1  H27B 3029   6.268   0.941   4.451  0.2350 -0.1622 -0.9261
   25CHL1  H27C 3030   6.369   0.938   4.312 -1.2711  0.2676  0.3367
   26CHL1    C3 3031   4.669   3.837   5.849  0.5218  0.1715 -0.0291
   26CHL1    H3 3032   4.598   3.764   5.803  1.0701 -1.0351  0.9591
   26CHL1    O3 3033   4.701   3.790   5.982  0.5062  0.4805  0.1867
   26CHL1   H3' 3034   4.685   3.858   6.048 -2.8649 -1.1335  1.3063
   26CHL1    C4 3035   4.794   3.823   5.765 -0.4302 -0.1712  0.3349
   26CHL1   H4A 3036   4.867   3.886   5.820 -0.5442  0.3190 -0.0611
   26CHL1   H4B 3037   4.832   3.719   5.757  2.3654  0.8229 -0.4834
   26CHL1    C5 3038   4.770   3.866   5.622  0.2613 -0.1973  0.0948
   26CHL1    C6 3039   4.793   3.787   5.516  0.0269 -0.3732 -0.8571
   26CHL1    H6 3040   4.831   3.684   5.532 -0.7157 -0.4914  0.1923
   26CHL1    C7 3041   4.768   3.830   5.377  0.2591  0.6008 -0.3009
   26CHL1   H7A 3042   4.869   3.811   5.334  0.3385 -2.1674  0.8924
   26CHL1   H7B 3043   4.701   3.753   5.332  0.0066 -0.2173  1.3903
   26CHL1    C8 3044   4.738   3.982   5.356 -1.1962  0.5292  0.4131
   26CHL1    H8 3045   4.837   4.032   5.364 -0.8083 -0.1510  0.0027
   26CHL1   C14 3046   4.678   4.003   5.218 -0.1731  0.0323 -0.6756
   26CHL1   H14 3047   4.584   3.948   5.240 -0.0794  1.2102  3.5576
   26CHL1   C15 3048   4.750   3.951   5.088 -0.4979 -1.0139 -0.9434
   26CHL1  H15A 3049   4.860   3.966   5.085 -0.4792 -1.0364 -0.4847
   26CHL1  H15B 3050   4.737   3.841   5.084  0.1863 -1.1019 -0.9401
   26CHL1   C16 3051   4.682   4.036   4.976  0.0371  0.0820 -0.9742
   26CHL1  H16A 3052   4.759   4.097   4.925  1.7628 -0.1250  1.2318
   26CHL1  H16B 3053   4.632   3.967   4.905 -1.8194  0.1954  0.1597
   26CHL1   C17 3054   4.572   4.120   5.042  0.4465  0.2177  0.1760
   26CHL1   H17 3055   4.483   4.059   5.064  0.8803 -0.3795  0.2847
   26CHL1   C13 3056   4.630   4.142   5.184 -0.4216 -0.1672  0.5760
   26CHL1   C18 3057   4.762   4.241   5.182  1.1678 -0.0462 -0.4666
   26CHL1  H18A 3058   4.727   4.344   5.157 -0.3481 -0.9068 -2.0306
   26CHL1  H18B 3059   4.812   4.256   5.281 -0.0547  1.1885 -0.0048
   26CHL1  H18C 3060   4.845   4.209   5.115  1.9361 -1.7050  1.1994
   26CHL1   C12 3061   4.532   4.184   5.289 -0.8177  0.1208 -0.3751
   26CHL1  H12A 3062   4.488   4.282   5.263  0.1116 -0.3115 -4.2750
   26CHL1  H12B 3063   4.450   4.111   5.273  1.5977 -3.5559  2.4719
   26CHL1   C11 3064   4.587   4.166   5.441 -0.4640  0.2949 -0.4304
   26CHL1  H11A 3065   4.659   4.249   5.457  0.7912 -0.5358 -1.5701
   26CHL1  H11B 3066   4.499   4.196   5.501  0.9264  2.1515  0.8025
   26CHL1    C9 3067   4.644   4.029   5.466  0.3997 -0.3353  0.3301
   26CHL1    H9 3068   4.550   3.970   5.469 -0.2442  0.7108  1.5997
   26CHL1   C10 3069   4.705   4.012   5.605  1.2115  0.0419 -0.4866
   26CHL1   C19 3070   4.821   4.116   5.631  0.2859  1.3974 -0.4938
   26CHL1  H19A 3071   4.878   4.091   5.723  0.4663  2.2541 -0.3655
   26CHL1  H19B 3072   4.890   4.104   5.545 -1.4699  1.1724 -1.9354
   26CHL1  H19C 3073   4.781   4.219   5.641  1.3090  1.9295 -1.6637
   26CHL1    C1 3074   4.579   4.025   5.702 -1.1565 -0.7149  0.4134
   26CHL1   H1A 3075   4.555   4.133   5.697  0.5799 -0.3187 -0.3117
   26CHL1   H1B 3076   4.496   3.958   5.671 -1.3924  0.4440 -1.5845
   26CHL1    C2 3077   4.624   3.985   5.848 -0.6335  0.2465  0.3807
   26CHL1   H2A 3078   4.539   4.000   5.918 -1.5991  2.2293 -1.1254
   26CHL1   H2B 3079   4.705   4.057   5.873  0.5050  0.1306 -2.6341
   26CHL1   C20 3080   4.529   4.241   4.957 -0.8005 -0.0667 -0.0651
   26CHL1   H20 3081   4.614   4.311   4.943 -0.9018 -0.5202 -4.4355
   26CHL1   C21 3082   4.415   4.331   5.025 -0.5383  0.4792  0.5311
   26CHL1  H21A 3083   4.470   4.391   5.100 -1.2345  0.9082  0.7076
   26CHL1  H21B 3084   4.334   4.264   5.061  0.2975 -0.6683  0.3564
   26CHL1  H21C 3085   4.382   4.408   4.952  1.5248  1.4160  0.5339
   26CHL1   C22 3086   4.496   4.204   4.809 -0.2536 -0.0762 -0.2419
   26CHL1  H22A 3087   4.587   4.149   4.777 -0.3406 -0.3574 -0.0131
   26CHL1  H22B 3088   4.402   4.146   4.800 -1.8819  2.0640  1.8038
   26CHL1   C23 3089   4.490   4.322   4.712  0.1919  0.4646 -1.2596
   26CHL1  H23A 3090   4.408   4.392   4.736  1.0875  0.8981  0.7441
   26CHL1  H23B 3091   4.576   4.390   4.729 -0.9380  1.3364  1.4459
   26CHL1   C24 3092   4.474   4.280   4.567  0.5085  0.4188 -0.5789
   26CHL1  H24A 3093   4.529   4.185   4.549  1.3078  0.6426  0.6091
   26CHL1  H24B 3094   4.363   4.270   4.564 -0.0781  3.6653  2.8016
   26CHL1   C25 3095   4.525   4.381   4.457  0.8255 -0.0816 -0.3369
   26CHL1   H25 3096   4.459   4.470   4.466  0.3829 -0.2818 -1.5047
   26CHL1   C26 3097   4.675   4.407   4.458  0.3824 -0.3209  0.1596
   26CHL1  H26A 3098   4.695   4.482   4.379 -1.9499  1.0052  0.7531
   26CHL1  H26B 3099   4.713   4.455   4.551  0.0609 -1.5524  0.9505
   26CHL1  H26C 3100   4.732   4.313   4.437 -0.1140 -1.1691  2.3345
   26CHL1   C27 3101   4.507   4.315   4.325 -0.2587 -0.0191  0.2883
   26CHL1  H27A 3102   4.403   4.295   4.294  0.4472 -2.8273 -0.5857
   26CHL1  H27B 3103   4.544   4.385   4.248 -2.6462  2.5226  1.2735
   26CHL1  H27C 3104   4.564   4.219   4.328  0.6940  0.4924 -0.6659
   27CHL1    C3 3105   2.546   3.037   5.679 -0.0464 -0.3976  0.7358
   27CHL1    H3 3106   2.594   2.937   5.676  0.7292 -0.0175 -1.8455
   27CHL1    O3 3107   2.524   3.092   5.809 -0.1573  0.4921  0.5631
   27CHL1   H3' 3108   2.611   3.128   5.827  1.9645 -3.3128 -0.9156
   27CHL1    C4 3109   2.633   3.129   5.590 -0.2831 -0.2889  0.0914
   27CHL1   H4A 3110   2.596   3.233   5.605  0.9726  0.5183 -1.8481
   27CHL1   H4B 3111   2.739   3.134   5.624 -0.8650  0.5311  1.9178
   27CHL1    C5 3112   2.623   3.099   5.440 -1.0591 -0.2418  0.3683
   27CHL1    C6 3113   2.735   3.077   5.374 -0.3215 -0.0940 -0.1482
   27CHL1    H6 3114   2.832   3.092   5.423 -1.0129  1.8292  0.6932
   27CHL1    C7 3115   2.731   3.054   5.224 -0.8370 -0.2437 -0.1586
   27CHL1   H7A 3116   2.820   3.101   5.178  0.0015 -0.5400  1.1216
   27CHL1   H7B 3117   2.740   2.944   5.215 -0.8101 -0.4121  1.6210
   27CHL1    C8 3118   2.591   3.088   5.157  0.0214 -0.4870  0.5211
   27CHL1    H8 3119   2.589   3.198   5.142  3.0656 -0.2270  1.3430
   27CHL1   C14 3120   2.595   3.038   5.009 -0.7556 -0.5353 -0.0879
   27CHL1   H14 3121   2.602   2.927   5.015 -2.4654 -0.7223 -0.8490
   27CHL1   C15 3122   2.706   3.085   4.916 -0.3709 -0.7918 -0.9261
   27CHL1  H15A 3123   2.738   3.191   4.924 -1.3740 -0.5736  0.3955
   27CHL1  H15B 3124   2.807   3.040   4.930 -0.1946 -0.0587  0.4103
   27CHL1   C16 3125   2.657   3.054   4.773 -0.5864 -0.1085 -0.1450
   27CHL1  H16A 3126   2.671   3.136   4.699  0.2043  1.2397  1.4344
   27CHL1  H16B 3127   2.700   2.958   4.737 -4.0620 -0.9042 -2.7043
   27CHL1   C17 3128   2.501   3.018   4.794  0.2214 -0.2150  0.0595
   27CHL1   H17 3129   2.500   2.908   4.810 -2.9988 -0.4251 -0.9122
   27CHL1   C13 3130   2.466   3.069   4.934 -0.2961 -0.0852  0.0997
   27CHL1   C18 3131   2.429   3.219   4.918  0.1258 -0.6252  0.0522
   27CHL1  H18A 3132   2.483   3.259   4.829 -1.6847  0.8343 -0.4417
   27CHL1  H18B 3133   2.319   3.227   4.907  0.4050  1.2047 -1.9510
   27CHL1  H18C 3134   2.450   3.293   4.998  0.9083  0.6700 -1.2975
   27CHL1   C12 3135   2.348   3.000   5.020 -0.0398 -0.6627  0.3306
   27CHL1  H12A 3136   2.256   3.034   4.968  0.1286 -1.0572 -0.2409
   27CHL1  H12B 3137   2.355   2.889   5.015  2.4899 -0.4888 -3.8158
   27CHL1   C11 3138   2.335   3.049   5.162 -0.0564 -0.1965 -0.5258
   27CHL1  H11A 3139   2.300   3.153   5.143 -0.7350 -0.4564 -0.7280
   27CHL1  H11B 3140   2.250   2.999   5.213 -0.7016 -1.3329 -2.5745
   27CHL1    C9 3141   2.472   3.039   5.240  0.4765  0.4647  0.1342
   27CHL1    H9 3142   2.489   2.930   5.256  2.1360  0.8118  1.0251
   27CHL1   C10 3143   2.479   3.093   5.384 -0.5856 -0.2126 -0.5354
   27CHL1   C19 3144   2.412   3.235   5.382  0.4571  0.0228 -1.5039
   27CHL1  H19A 3145   2.301   3.234   5.372  0.1960  0.4614  0.6753
   27CHL1  H19B 3146   2.430   3.283   5.481 -1.2821  0.1519 -1.2125
   27CHL1  H19C 3147   2.446   3.293   5.294 -0.1254  0.1571 -1.6471
   27CHL1    C1 3148   2.399   2.994   5.474  0.2010 -0.3268 -0.3841
   27CHL1   H1A 3149   2.293   3.010   5.444  0.2994  1.1318 -0.0241
   27CHL1   H1B 3150   2.443   2.893   5.458  2.2722  0.4555  0.0420
   27CHL1    C2 3151   2.402   3.034   5.620 -0.6919  0.3035  0.2491
   27CHL1   H2A 3152   2.351   2.951   5.673  0.2692 -1.2343 -1.1284
   27CHL1   H2B 3153   2.350   3.131   5.635  0.4825  0.8506  0.8489
   27CHL1   C20 3154   2.402   3.053   4.686 -0.8835 -0.1814 -0.8737
   27CHL1   H20 3155   2.376   3.161   4.695  1.3210  0.3374 -0.0828
   27CHL1   C21 3156   2.270   2.970   4.692 -0.0978  0.3343 -0.1525
   27CHL1  H21A 3157   2.236   2.941   4.793 -1.4899 -0.3314 -0.7852
   27CHL1  H21B 3158   2.279   2.883   4.624  2.1546  0.6524 -0.3412
   27CHL1  H21C 3159   2.187   3.029   4.647 -1.7641 -1.6003  0.2790
   27CHL1   C22 3160   2.464   3.050   4.540 -0.3193  0.2040  0.2208
   27CHL1  H22A 3161   2.572   3.078   4.549  0.1523 -1.9367  1.9089
   27CHL1  H22B 3162   2.478   2.942   4.520 -0.5507  0.0614  0.8161
   27CHL1   C23 3163   2.378   3.110   4.426 -0.4680 -0.4479 -0.6100
   27CHL1  H23A 3164   2.440   3.107   4.334  1.4733  0.1452  0.6272
   27CHL1  H23B 3165   2.280   3.060   4.410 -1.5912  1.0768  1.0938
   27CHL1   C24 3166   2.338   3.260   4.456 -0.5849 -0.3429  0.2522
   27CHL1  H24A 3167   2.275   3.263   4.548  1.7286  1.0771  1.8979
   27CHL1  H24B 3168   2.430   3.318   4.479  1.0497 -2.8400  0.3639
   27CHL1   C25 3169   2.281   3.327   4.328 -0.6576 -0.2022 -0.2893
   27CHL1   H25 3170   2.357   3.297   4.253  0.6656  2.1672  0.0001
   27CHL1   C26 3171   2.144   3.281   4.274  0.1997 -0.4989 -0.8050
   27CHL1  H26A 3172   2.062   3.342   4.317  0.9673 -0.7090  1.0300
   27CHL1  H26B 3173   2.143   3.294   4.163  0.3734  0.5183 -0.7015
   27CHL1  H26C 3174   2.129   3.172   4.289 -2.4838 -0.1717 -0.6074
   27CHL1   C27 3175   2.286   3.483   4.325 -0.0710 -0.6548  0.4766
   27CHL1  H27A 3176   2.287   3.525   4.222  0.4231 -1.4565  0.1392
   27CHL1  H27B 3177   2.380   3.522   4.368  0.1910  0.8056 -1.2924
   27CHL1  H27C 3178   2.197   3.519   4.381  1.2069  3.7407  0.0079
   28CHL1    C3 3179   6.029   3.127   5.612 -0.2070 -1.0213  0.3520
   28CHL1    H3 3180   6.110   3.068   5.563  1.9811  0.5877  1.7952
   28CHL1    O3 3181   6.066   3.174   5.737  0.3183  0.0811  0.0847
   28CHL1   H3' 3182   6.054   3.098   5.794  0.5746  0.8843  1.2416
   28CHL1    C4 3183   5.990   3.239   5.528 -0.3101 -0.5517  0.1846
   28CHL1   H4A 3184   5.902   3.290   5.571  0.7248  0.9643  0.5909
   28CHL1   H4B 3185   6.060   3.322   5.503  0.1541 -0.7336  0.8294
   28CHL1    C5 3186   5.949   3.192   5.385 -0.1199  0.2711 -0.5481
   28CHL1    C6 3187   6.009   3.241   5.276 -0.3626  0.2270  0.4968
   28CHL1    H6 3188   6.079   3.325   5.287 -0.3241  0.2543  0.0505
   28CHL1    C7 3189   5.978   3.203   5.137 -0.0938  0.1480  0.7955
   28CHL1   H7A 3190   5.974   3.282   5.059  2.8904 -1.1419 -0.8273
   28CHL1   H7B 3191   6.072   3.152   5.108 -0.5676  0.2449 -1.0497
   28CHL1    C8 3192   5.856   3.103   5.124 -0.9119  0.0785  0.2599
   28CHL1    H8 3193   5.776   3.174   5.153 -1.0252 -0.0413  0.2382
   28CHL1   C14 3194   5.838   3.038   4.993 -0.3251 -0.4826 -0.2086
   28CHL1   H14 3195   5.924   2.971   4.970  0.9773  1.4713 -1.2734
   28CHL1   C15 3196   5.823   3.129   4.871 -0.4760 -0.6391 -0.0672
   28CHL1  H15A 3197   5.743   3.205   4.885 -0.3283  0.0365 -2.4677
   28CHL1  H15B 3198   5.913   3.183   4.833 -0.1706  0.3202  1.9123
   28CHL1   C16 3199   5.785   3.035   4.759  0.4901  0.5814  0.4219
   28CHL1  H16A 3200   5.711   3.087   4.694 -0.0271 -0.8213 -0.1548
   28CHL1  H16B 3201   5.877   2.995   4.711  0.5716  2.3751 -1.0090
   28CHL1   C17 3202   5.724   2.913   4.833  0.6073 -0.6494  0.1881
   28CHL1   H17 3203   5.801   2.833   4.824  0.0742 -0.9805 -2.0275
   28CHL1   C13 3204   5.721   2.949   4.988 -0.0355 -0.6584  1.0039
   28CHL1   C18 3205   5.591   3.019   5.014  0.0110  0.0690 -0.1236
   28CHL1  H18A 3206   5.595   3.062   5.117 -1.6737  0.3663 -0.1564
   28CHL1  H18B 3207   5.585   3.096   4.935 -1.2887 -0.6006 -0.7076
   28CHL1  H18C 3208   5.514   2.939   5.021  2.3802 -2.3224  0.0465
   28CHL1   C12 3209   5.749   2.833   5.089 -0.2153 -0.6288 -0.2963
   28CHL1  H12A 3210   5.672   2.754   5.075 -0.1505 -0.4165 -2.1160
   28CHL1  H12B 3211   5.850   2.794   5.063 -0.7908 -1.4377 -1.3915
   28CHL1   C11 3212   5.769   2.880   5.234  0.1898  0.4704 -0.0258
   28CHL1  H11A 3213   5.675   2.904   5.287 -0.0475 -1.9376  0.7889
   28CHL1  H11B 3214   5.817   2.797   5.290  2.2794 -1.0058 -3.6358
   28CHL1    C9 3215   5.866   3.005   5.250 -0.2695  0.6505  0.4331
   28CHL1    H9 3216   5.971   2.976   5.232  0.4007  3.2216 -0.2565
   28CHL1   C10 3217   5.852   3.071   5.390  0.1585  0.2316  0.1076
   28CHL1   C19 3218   5.708   3.134   5.414 -0.1279  0.2169  0.2673
   28CHL1  H19A 3219   5.674   3.220   5.353  0.3836  0.0956 -0.1936
   28CHL1  H19B 3220   5.631   3.053   5.416 -1.4901  1.4245  3.4106
   28CHL1  H19C 3221   5.717   3.178   5.516 -0.9696  1.3040 -0.1133
   28CHL1    C1 3222   5.878   2.968   5.501  0.9821 -0.3724  0.1035
   28CHL1   H1A 3223   5.795   2.895   5.516  0.1808 -0.0095 -2.1542
   28CHL1   H1B 3224   5.958   2.900   5.467  2.3361  0.1682  2.0711
   28CHL1    C2 3225   5.913   3.036   5.631  0.6894 -0.0450 -0.0891
   28CHL1   H2A 3226   5.944   2.954   5.698 -0.1226 -0.8542 -0.6617
   28CHL1   H2B 3227   5.832   3.092   5.683  2.2231  0.2236  2.0836
   28CHL1   C20 3228   5.603   2.859   4.765 -0.4205 -0.1818  0.2381
   28CHL1   H20 3229   5.511   2.921   4.768  1.0703  2.1686 -0.3933
   28CHL1   C21 3230   5.561   2.731   4.836  0.7218 -0.3375 -0.3450
   28CHL1  H21A 3231   5.522   2.766   4.934 -0.7810  0.1265 -1.0753
   28CHL1  H21B 3232   5.651   2.667   4.841  2.3234  1.8413 -0.0108
   28CHL1  H21C 3233   5.484   2.679   4.774  1.7603 -0.8858 -1.1951
   28CHL1   C22 3234   5.622   2.834   4.609  0.0869  0.0601 -0.3271
   28CHL1  H22A 3235   5.536   2.777   4.569  0.1177  0.5520 -1.1286
   28CHL1  H22B 3236   5.633   2.931   4.555 -3.2247 -0.3589 -1.9759
   28CHL1   C23 3237   5.750   2.755   4.561  0.2729  0.1789  0.7825
   28CHL1  H23A 3238   5.838   2.802   4.610 -0.5535  2.3854  0.2815
   28CHL1  H23B 3239   5.754   2.652   4.602 -2.3685  0.4888  2.0278
   28CHL1   C24 3240   5.769   2.758   4.410 -0.1262 -0.8438  0.2322
   28CHL1  H24A 3241   5.681   2.708   4.366  0.0878  0.3038 -1.6024
   28CHL1  H24B 3242   5.762   2.860   4.366 -1.0781 -0.9543  0.1142
   28CHL1   C25 3243   5.902   2.696   4.356  0.0230  0.1153 -0.0756
   28CHL1   H25 3244   5.903   2.589   4.385  1.7988  0.2774  0.5812
   28CHL1   C26 3245   5.911   2.702   4.200 -0.4010 -0.6027 -0.2270
   28CHL1  H26A 3246   6.001   2.648   4.165  0.4328  1.5565 -1.6044
   28CHL1  H26B 3247   5.825   2.645   4.160 -0.4422 -0.8324  0.1845
   28CHL1  H26C 3248   5.910   2.806   4.160 -0.8112  0.0018  1.2608
   28CHL1   C27 3249   6.022   2.773   4.418  0.2208  0.3011 -0.6081
   28CHL1  H27A 3250   6.027   2.879   4.386 -0.4735  1.0445  1.5447
   28CHL1  H27B 3251   6.030   2.775   4.529 -0.4860 -0.4699 -0.5372
   28CHL1  H27C 3252   6.122   2.727   4.399  1.3925  2.1321  0.7259
   29CHL1    C3 3253   0.899   4.121   6.067 -0.6022 -0.9226  0.1998
   29CHL1    H3 3254   0.908   4.021   6.019  0.3756 -0.8105  0.1271
   29CHL1    O3 3255   0.854   4.108   6.201 -0.2104 -0.2914  0.4815
   29CHL1   H3' 3256   0.926   4.068   6.252 -0.4293 -2.3330 -0.7157
   29CHL1    C4 3257   1.038   4.180   6.071 -0.6109  0.5973  0.1768
   29CHL1   H4A 3258   1.044   4.273   6.132 -0.3062  0.3245  0.5615
   29CHL1   H4B 3259   1.105   4.109   6.123 -0.0865  0.9524 -0.0078
   29CHL1    C5 3260   1.093   4.197   5.926 -0.4517  0.5123 -0.4752
   29CHL1    C6 3261   1.195   4.131   5.878 -0.7335 -0.4163  0.1508
   29CHL1    H6 3262   1.260   4.063   5.935  0.0575 -1.4131 -1.8293
   29CHL1    C7 3263   1.249   4.156   5.740  0.3021 -0.2999 -0.0857
   29CHL1   H7A 3264   1.359   4.139   5.739  0.5556  1.2478 -1.3337
   29CHL1   H7B 3265   1.213   4.075   5.674 -0.4215 -0.3554  0.3669
   29CHL1    C8 3266   1.202   4.291   5.678 -0.4642 -0.0011  0.5242
   29CHL1    H8 3267   1.262   4.370   5.727  0.4978 -1.2089  1.3549
   29CHL1   C14 3268   1.223   4.281   5.530 -0.2541 -1.5420 -0.0435
   29CHL1   H14 3269   1.157   4.195   5.504  0.9611 -2.6008  0.2299
   29CHL1   C15 3270   1.361   4.250   5.469  0.2281  0.8413  0.8457
   29CHL1  H15A 3271   1.425   4.318   5.529  2.3490 -1.0298  0.8343
   29CHL1  H15B 3272   1.396   4.148   5.496  1.9246  0.7754 -1.2703
   29CHL1   C16 3273   1.350   4.285   5.318 -0.1753  0.3670  0.8639
   29CHL1  H16A 3274   1.436   4.352   5.296  0.2602 -0.4516 -0.0090
   29CHL1  H16B 3275   1.343   4.199   5.248 -0.8467  1.3465 -0.3216
   29CHL1   C17 3276   1.219   4.366   5.303  0.0819  0.3923  0.4730
   29CHL1   H17 3277   1.156   4.283   5.264  1.1219 -1.0989  1.8390
   29CHL1   C13 3278   1.177   4.408   5.445  0.0542  0.7662 -0.7574
   29CHL1   C18 3279   1.256   4.536   5.487  0.2217 -0.2226  0.0680
   29CHL1  H18A 3280   1.247   4.631   5.430  3.8371 -0.3368 -0.9973
   29CHL1  H18B 3281   1.231   4.551   5.594 -0.1201  0.3447 -0.0871
   29CHL1  H18C 3282   1.363   4.507   5.477 -0.1573 -1.8237  0.2781
   29CHL1   C12 3283   1.028   4.438   5.477 -0.6007  0.3376 -0.1990
   29CHL1  H12A 3284   0.985   4.529   5.430 -1.9625 -1.5334 -2.8525
   29CHL1  H12B 3285   0.964   4.360   5.431  0.2311  0.4234 -1.5648
   29CHL1   C11 3286   0.994   4.437   5.626 -0.0406  0.0268  0.1038
   29CHL1  H11A 3287   1.046   4.527   5.666  0.8615 -0.2140 -0.4939
   29CHL1  H11B 3288   0.885   4.435   5.648  0.1179 -1.7549  0.9029
   29CHL1    C9 3289   1.056   4.318   5.702  0.3051  0.2131  0.4152
   29CHL1    H9 3290   1.011   4.232   5.647 -0.5318  0.3283  0.9010
   29CHL1   C10 3291   1.008   4.299   5.842 -0.5258  0.2509  0.3936
   29CHL1   C19 3292   1.022   4.442   5.908  0.0496  0.5440  0.3901
   29CHL1  H19A 3293   0.962   4.519   5.854 -0.0195 -0.6144 -1.2691
   29CHL1  H19B 3294   0.990   4.434   6.014  1.0675  0.9206  0.7390
   29CHL1  H19C 3295   1.125   4.483   5.919 -0.5786  2.5741 -0.6912
   29CHL1    C1 3296   0.868   4.245   5.846 -0.6200 -0.9305  0.4388
   29CHL1   H1A 3297   0.792   4.311   5.798  0.4690  1.0607  1.3149
   29CHL1   H1B 3298   0.869   4.147   5.793 -1.0402 -0.8846  0.3468
   29CHL1    C2 3299   0.812   4.212   5.983  0.5005 -0.2027 -0.3066
   29CHL1   H2A 3300   0.712   4.164   5.990 -0.6416  2.2657  3.3114
   29CHL1   H2B 3301   0.793   4.307   6.038 -0.0326 -0.1804 -0.5157
   29CHL1   C20 3302   1.226   4.477   5.202  0.5444 -0.9527 -0.0767
   29CHL1   H20 3303   1.262   4.577   5.235  1.7248 -0.6128 -2.2417
   29CHL1   C21 3304   1.085   4.498   5.139 -0.3516 -0.1270 -0.8051
   29CHL1  H21A 3305   1.060   4.402   5.089 -1.7966 -1.2416  1.8266
   29CHL1  H21B 3306   1.082   4.585   5.070  3.8448  0.0656 -1.0330
   29CHL1  H21C 3307   1.010   4.524   5.216 -0.0419  1.0449 -0.8769
   29CHL1   C22 3308   1.326   4.451   5.083 -0.2192 -0.9079 -0.6647
   29CHL1  H22A 3309   1.432   4.469   5.113 -0.8189  1.9063 -0.0542
   29CHL1  H22B 3310   1.324   4.348   5.041 -0.7009 -0.9988 -0.4171
   29CHL1   C23 3311   1.311   4.555   4.966 -0.0763  0.8371  0.7391
   29CHL1  H23A 3312   1.209   4.555   4.922  0.1253  0.4967  0.2598
   29CHL1  H23B 3313   1.325   4.659   5.003 -0.4039  1.1331  0.0578
   29CHL1   C24 3314   1.407   4.516   4.854  0.7120  0.1210 -0.5074
   29CHL1  H24A 3315   1.508   4.519   4.899 -0.3156  2.1062  1.8814
   29CHL1  H24B 3316   1.373   4.416   4.819 -0.5918  0.9963 -1.8561
   29CHL1   C25 3317   1.410   4.621   4.737 -0.1108 -0.3108 -0.0019
   29CHL1   H25 3318   1.305   4.636   4.702  0.5605  2.2533 -1.1312
   29CHL1   C26 3319   1.441   4.767   4.779 -0.0915 -0.0899 -0.2771
   29CHL1  H26A 3320   1.543   4.765   4.823  0.4370 -1.7485 -1.4687
   29CHL1  H26B 3321   1.440   4.834   4.690  0.9390  0.7951  0.3589
   29CHL1  H26C 3322   1.366   4.796   4.856 -2.4707  0.4993 -2.6619
   29CHL1   C27 3323   1.499   4.561   4.628 -0.5335  0.7268  0.3357
   29CHL1  H27A 3324   1.443   4.485   4.570  1.7108 -1.4068  0.8002
   29CHL1  H27B 3325   1.529   4.636   4.551 -0.3927  0.5438  0.2120
   29CHL1  H27C 3326   1.587   4.503   4.663 -1.3153 -2.3132 -2.2734
   30CHL1    C3 3327   5.079   4.446   5.895  0.2371 -0.0779 -0.3440
   30CHL1    H3 3328   5.177   4.424   5.848  0.6981 -0.8335  0.9380
   30CHL1    O3 3329   5.094   4.387   6.020 -0.0645  0.1788 -0.3760
   30CHL1   H3' 3330   5.012   4.409   6.064  0.5371  1.6746  0.0691
   30CHL1    C4 3331   5.052   4.599   5.917  0.4198  0.3056 -0.8209
   30CHL1   H4A 3332   4.957   4.615   5.973 -0.3950  1.0335 -2.3298
   30CHL1   H4B 3333   5.128   4.638   5.988 -2.0400 -0.4273  2.4770
   30CHL1    C5 3334   5.039   4.667   5.784  0.3302  0.1023 -0.1583
   30CHL1    C6 3335   5.127   4.755   5.745 -0.6965  0.4737  0.9164
   30CHL1    H6 3336   5.217   4.778   5.805  0.4036  1.7253 -1.1047
   30CHL1    C7 3337   5.132   4.815   5.603  0.1809  0.2009 -0.4486
   30CHL1   H7A 3338   5.168   4.920   5.603  0.6764  0.0367 -0.3824
   30CHL1   H7B 3339   5.212   4.766   5.542  1.5406  2.7208 -0.8192
   30CHL1    C8 3340   4.991   4.801   5.525 -0.2528  0.0110  0.3943
   30CHL1    H8 3341   4.915   4.862   5.579  0.2762 -1.8701  3.4398
   30CHL1   C14 3342   5.004   4.841   5.376  0.5025 -0.0919  0.2256
   30CHL1   H14 3343   5.084   4.777   5.334  0.5657 -0.3656  0.7527
   30CHL1   C15 3344   5.048   4.987   5.345  0.6333 -0.1434 -0.6279
   30CHL1  H15A 3345   5.002   5.067   5.407  2.7667  0.5451  0.1484
   30CHL1  H15B 3346   5.157   4.998   5.362  0.6494 -0.8044 -0.2960
   30CHL1   C16 3347   5.014   5.010   5.195  0.5913  0.3717  0.0396
   30CHL1  H16A 3348   4.964   5.109   5.197  2.6212  1.5202 -2.0680
   30CHL1  H16B 3349   5.099   5.011   5.124 -0.4885  1.7309 -1.3031
   30CHL1   C17 3350   4.925   4.889   5.157  0.2568 -0.7755  0.0852
   30CHL1   H17 3351   4.994   4.814   5.111  1.9310  0.9503 -0.3276
   30CHL1   C13 3352   4.878   4.818   5.295  0.5312  0.3212  0.1123
   30CHL1   C18 3353   4.756   4.907   5.348 -0.3366  0.1374  0.2101
   30CHL1  H18A 3354   4.776   5.015   5.334 -4.0301  0.8932 -0.2972
   30CHL1  H18B 3355   4.663   4.892   5.290  1.0516  2.0105 -2.7531
   30CHL1  H18C 3356   4.743   4.875   5.454  1.8321 -0.1300  0.4503
   30CHL1   C12 3357   4.853   4.665   5.298  0.0532  0.1386 -0.2189
   30CHL1  H12A 3358   4.764   4.633   5.241 -1.3690 -2.3536  3.0870
   30CHL1  H12B 3359   4.939   4.606   5.258  0.2576 -0.2308  0.7310
   30CHL1   C11 3360   4.834   4.622   5.444  0.1385  0.9493 -0.1180
   30CHL1  H11A 3361   4.735   4.661   5.476 -1.0603 -2.9943  1.5821
   30CHL1  H11B 3362   4.818   4.512   5.439  0.8234  0.6123  3.1929
   30CHL1    C9 3363   4.950   4.658   5.539  0.4803  0.9751 -0.3040
   30CHL1    H9 3364   5.038   4.598   5.507  1.1111  1.7086  0.0189
   30CHL1   C10 3365   4.936   4.612   5.685 -0.6342 -0.0981 -0.2364
   30CHL1   C19 3366   4.788   4.652   5.735  0.0077  1.3567 -0.1410
   30CHL1  H19A 3367   4.780   4.615   5.840 -1.9477  0.8676 -0.4131
   30CHL1  H19B 3368   4.754   4.758   5.735 -2.0780  0.7610  1.1383
   30CHL1  H19C 3369   4.716   4.592   5.675 -0.0911  1.1476  0.1791
   30CHL1    C1 3370   4.953   4.454   5.684 -0.4644 -0.1067  0.0140
   30CHL1   H1A 3371   4.869   4.408   5.627 -0.4774  0.1225 -0.1520
   30CHL1   H1B 3372   5.051   4.430   5.639  0.9228 -0.5171  3.0317
   30CHL1    C2 3373   4.964   4.390   5.824  0.3478  1.1010  0.6963
   30CHL1   H2A 3374   4.972   4.280   5.816  1.2943  1.2496 -0.7675
   30CHL1   H2B 3375   4.873   4.410   5.886 -1.5387 -3.0225 -0.3721
   30CHL1   C20 3376   4.812   4.911   5.049 -0.4280 -0.1178 -0.3290
   30CHL1   H20 3377   4.731   4.974   5.092 -1.9657 -2.1584 -0.0971
   30CHL1   C21 3378   4.737   4.785   4.996  0.6802  0.1542 -0.2718
   30CHL1  H21A 3379   4.675   4.741   5.078  0.8011 -2.4208 -1.4830
   30CHL1  H21B 3380   4.812   4.712   4.960  0.7085  0.0037  0.0795
   30CHL1  H21C 3381   4.653   4.797   4.924 -0.3604 -0.7980  0.7414
   30CHL1   C22 3382   4.864   4.980   4.918 -0.1757  0.9339 -0.2187
   30CHL1  H22A 3383   4.968   4.945   4.897 -0.7697 -0.9060 -0.2671
   30CHL1  H22B 3384   4.798   4.943   4.837 -0.6273 -2.5410  1.5455
   30CHL1   C23 3385   4.856   5.130   4.919  0.4542 -0.1788  0.1999
   30CHL1  H23A 3386   4.745   5.134   4.909  0.4756  1.1300  0.2700
   30CHL1  H23B 3387   4.895   5.170   5.015  1.3734  0.3284 -0.3704
   30CHL1   C24 3388   4.923   5.176   4.792  0.2221  0.0845  0.1820
   30CHL1  H24A 3389   5.030   5.148   4.796  0.2316  0.0837 -0.0219
   30CHL1  H24B 3390   4.884   5.116   4.707  0.2678 -0.3602  0.4748
   30CHL1   C25 3391   4.914   5.319   4.758  0.3052 -0.7673  0.8643
   30CHL1   H25 3392   4.932   5.376   4.852 -0.1211  0.2150  0.3636
   30CHL1   C26 3393   5.017   5.359   4.648 -0.2962  0.3714  0.5846
   30CHL1  H26A 3394   5.002   5.303   4.553  1.6949  1.2463 -0.2921
   30CHL1  H26B 3395   5.014   5.468   4.628  0.7866  0.3636  0.3175
   30CHL1  H26C 3396   5.123   5.344   4.676  0.3134  1.5111 -0.9574
   30CHL1   C27 3397   4.773   5.355   4.711 -0.2365 -0.4550  0.3455
   30CHL1  H27A 3398   4.700   5.331   4.790  2.5061 -1.5303  2.7421
   30CHL1  H27B 3399   4.763   5.463   4.687 -0.6621 -0.3045  1.1570
   30CHL1  H27C 3400   4.754   5.300   4.616  0.1513  0.2656 -0.1611
   31CHL1    C3 3401   1.935   3.898   6.021  0.5893  0.4861  0.3081
   31CHL1    H3 3402   1.926   3.791   5.993 -0.2334  0.1966  1.6076
   31CHL1    O3 3403   1.870   3.928   6.144 -0.0387  0.4314 -0.7353
   31CHL1   H3' 3404   1.776   3.915   6.131  0.1866 -1.9239 -0.4831
   31CHL1    C4 3405   2.088   3.929   6.032  0.4356  0.1259 -0.2126
   31CHL1   H4A 3406   2.084   4.026   6.085 -1.5788  0.9417 -1.7456
   31CHL1   H4B 3407   2.131   3.856   6.105 -1.6186 -1.1628 -0.1989
   31CHL1    C5 3408   2.166   3.937   5.906 -0.1752  0.3022 -0.0677
   31CHL1    C6 3409   2.285   3.879   5.902 -0.0638  0.1227 -0.7147
   31CHL1    H6 3410   2.342   3.824   5.978 -1.0475 -0.7341 -0.5691
   31CHL1    C7 3411   2.362   3.884   5.777 -0.5653  0.0196  0.0439
   31CHL1   H7A 3412   2.470   3.900   5.797 -0.1132 -0.8334 -1.5421
   31CHL1   H7B 3413   2.354   3.784   5.729 -1.8074  0.2532 -0.2947
   31CHL1    C8 3414   2.311   3.985   5.667 -0.1972  0.4221  0.4738
   31CHL1    H8 3415   2.333   4.090   5.696  1.1901  0.0941  0.6998
   31CHL1   C14 3416   2.368   3.959   5.528 -0.4681  0.0967  0.0223
   31CHL1   H14 3417   2.332   3.858   5.498  0.8245 -0.1891 -0.6352
   31CHL1   C15 3418   2.521   3.952   5.522  0.6538  0.7987  0.2732
   31CHL1  H15A 3419   2.558   4.028   5.594 -0.9361  1.2636  0.6338
   31CHL1  H15B 3420   2.567   3.862   5.569 -2.6077 -0.7085  0.8389
   31CHL1   C16 3421   2.552   3.983   5.379  0.5075  0.6839  1.0459
   31CHL1  H16A 3422   2.617   4.073   5.374  1.8186 -0.3127 -2.0498
   31CHL1  H16B 3423   2.596   3.893   5.331 -2.1311 -0.6579  0.9790
   31CHL1   C17 3424   2.415   4.007   5.303 -0.0737 -0.3965 -0.6189
   31CHL1   H17 3425   2.378   3.909   5.267  0.2031 -0.9322  0.5052
   31CHL1   C13 3426   2.316   4.055   5.414 -0.2845  0.9355  0.4956
   31CHL1   C18 3427   2.344   4.204   5.448  0.0527 -0.0161  0.3836
   31CHL1  H18A 3428   2.323   4.276   5.366 -0.6116  1.0980  1.5051
   31CHL1  H18B 3429   2.287   4.222   5.541  2.2681 -2.4290  2.3755
   31CHL1  H18C 3430   2.448   4.216   5.484 -0.0111  1.1736  0.2080
   31CHL1   C12 3431   2.167   4.018   5.395  0.5032 -0.7669 -0.3829
   31CHL1  H12A 3432   2.124   4.079   5.313  1.4723 -0.5672 -0.7566
   31CHL1  H12B 3433   2.152   3.913   5.362 -1.2973 -0.7614  0.2936
   31CHL1   C11 3434   2.090   4.038   5.528 -0.4960 -0.1844 -0.3219
   31CHL1  H11A 3435   2.091   4.146   5.551 -3.2540  0.3388 -2.1673
   31CHL1  H11B 3436   1.983   4.007   5.516 -0.5206 -0.4764  0.5215
   31CHL1    C9 3437   2.158   3.973   5.656 -0.2868 -0.0660  0.6164
   31CHL1    H9 3438   2.134   3.865   5.643 -1.7428  0.2952  0.1103
   31CHL1   C10 3439   2.089   4.004   5.790 -0.0410  0.1169  0.4728
   31CHL1   C19 3440   2.091   4.162   5.818 -0.1831  0.1700  0.7664
   31CHL1  H19A 3441   2.030   4.220   5.746  2.5620  2.4563  0.0683
   31CHL1  H19B 3442   2.055   4.182   5.921 -0.8183  2.0699  0.2142
   31CHL1  H19C 3443   2.195   4.203   5.821 -0.7759  1.7963  0.1229
   31CHL1    C1 3444   1.941   3.949   5.779  0.1190 -0.1811  0.4167
   31CHL1   H1A 3445   1.894   4.012   5.702 -0.5783 -0.6698  0.4382
   31CHL1   H1B 3446   1.933   3.846   5.739 -1.3308  0.2189 -0.3932
   31CHL1    C2 3447   1.865   3.971   5.912 -1.2333 -0.2759  0.0907
   31CHL1   H2A 3448   1.764   3.924   5.904 -1.2156 -0.3112  0.0783
   31CHL1   H2B 3449   1.860   4.077   5.946  1.3776  0.1306 -0.6549
   31CHL1   C20 3450   2.430   4.093   5.177 -0.7162  0.7122  0.0578
   31CHL1   H20 3451   2.444   4.197   5.214 -2.9290  0.2791  2.4624
   31CHL1   C21 3452   2.297   4.097   5.102 -0.0376 -0.3195  0.4358
   31CHL1  H21A 3453   2.245   3.999   5.096 -0.8513  0.1120  0.3143
   31CHL1  H21B 3454   2.310   4.140   5.000  2.5908  3.8464  2.2791
   31CHL1  H21C 3455   2.232   4.170   5.155  1.2914  1.6983 -0.5620
   31CHL1   C22 3456   2.555   4.063   5.094 -0.7705  0.1507  0.4933
   31CHL1  H22A 3457   2.555   4.136   5.011 -0.1221  0.5543  0.8479
   31CHL1  H22B 3458   2.651   4.087   5.144 -1.3720  1.9094  0.8516
   31CHL1   C23 3459   2.562   3.925   5.008  0.0770 -0.2001 -0.3314
   31CHL1  H23A 3460   2.539   3.842   5.079 -0.3502  0.8703  0.8270
   31CHL1  H23B 3461   2.482   3.927   4.931  0.9524 -2.1557 -1.3661
   31CHL1   C24 3462   2.700   3.891   4.950 -0.1968 -0.2913  0.0968
   31CHL1  H24A 3463   2.769   3.879   5.036 -0.5528 -1.6528  0.2316
   31CHL1  H24B 3464   2.707   3.796   4.892  2.9062 -0.2370  0.2045
   31CHL1   C25 3465   2.751   4.003   4.856  0.4443 -0.5460 -0.1518
   31CHL1   H25 3466   2.746   4.105   4.899  0.9268  1.0035 -3.4189
   31CHL1   C26 3467   2.888   3.980   4.792  0.0007 -0.5227 -0.1277
   31CHL1  H26A 3468   2.920   4.062   4.725  1.1257 -2.0318 -1.5142
   31CHL1  H26B 3469   2.965   3.984   4.872 -0.5719  0.8673  0.3810
   31CHL1  H26C 3470   2.895   3.885   4.734  2.0211 -0.5512  0.0943
   31CHL1   C27 3471   2.653   4.024   4.743 -0.3516  0.0056 -0.1614
   31CHL1  H27A 3472   2.639   3.929   4.688 -0.3571 -0.9925  1.5013
   31CHL1  H27B 3473   2.552   4.048   4.784 -0.4245 -2.2530  1.1774
   31CHL1  H27C 3474   2.699   4.095   4.671  0.0245 -0.2533 -0.1778
   32CHL1    C3 3475   3.806   3.956   5.974 -0.2805  0.5766 -0.5572
   32CHL1    H3 3476   3.712   3.918   5.928 -0.2629  1.7746 -1.6259
   32CHL1    O3 3477   3.775   3.975   6.106 -0.5626 -0.1299 -0.3617
   32CHL1   H3' 3478   3.728   3.895   6.132 -0.2329 -1.5163 -3.5684
   32CHL1    C4 3479   3.925   3.859   5.965 -0.1457  0.1216 -0.2666
   32CHL1   H4A 3480   4.015   3.898   6.017 -2.1766  2.0642  2.0390
   32CHL1   H4B 3481   3.902   3.765   6.020  1.9600 -1.3490 -1.7876
   32CHL1    C5 3482   3.940   3.838   5.816 -0.1352  1.4845 -0.4242
   32CHL1    C6 3483   3.914   3.721   5.755  0.3877 -0.1846  0.0571
   32CHL1    H6 3484   3.860   3.646   5.814  1.2098 -2.2819 -1.6661
   32CHL1    C7 3485   3.932   3.688   5.606 -0.1822 -0.8592  0.3021
   32CHL1   H7A 3486   3.979   3.587   5.603  0.0838 -0.8717  2.8558
   32CHL1   H7B 3487   3.833   3.689   5.555 -2.2383  1.1174  3.8573
   32CHL1    C8 3488   4.032   3.787   5.538 -0.2402 -0.4220  0.4591
   32CHL1    H8 3489   4.133   3.764   5.577 -0.0533 -0.3786  0.0063
   32CHL1   C14 3490   4.031   3.757   5.382  0.2840 -0.4323 -1.0280
   32CHL1   H14 3491   3.924   3.784   5.367  0.3514  0.1592 -0.5023
   32CHL1   C15 3492   4.047   3.612   5.339  0.1470 -0.2179  0.1110
   32CHL1  H15A 3493   4.132   3.564   5.393  0.9292  1.0927  0.0871
   32CHL1  H15B 3494   3.956   3.557   5.372  1.2644 -0.4954  3.0983
   32CHL1   C16 3495   4.098   3.636   5.193  0.5256 -0.1698  0.1775
   32CHL1  H16A 3496   4.193   3.583   5.172 -0.5931 -1.9947 -0.5154
   32CHL1  H16B 3497   4.032   3.585   5.120  0.3703 -1.4594  1.1761
   32CHL1   C17 3498   4.104   3.787   5.166 -0.8381 -0.3120  0.0500
   32CHL1   H17 3499   4.007   3.817   5.120  0.0281 -0.3241 -1.9013
   32CHL1   C13 3500   4.119   3.849   5.305  0.1259  0.3639  0.1458
   32CHL1   C18 3501   4.269   3.823   5.355 -0.7366 -0.1433 -0.2276
   32CHL1  H18A 3502   4.339   3.894   5.308 -1.2146  0.1605 -0.4891
   32CHL1  H18B 3503   4.279   3.839   5.465  1.7770  0.4528 -0.4901
   32CHL1  H18C 3504   4.306   3.721   5.335  3.9704  1.5306 -1.2493
   32CHL1   C12 3505   4.063   3.996   5.336  0.3488 -0.4008 -0.6038
   32CHL1  H12A 3506   4.121   4.071   5.279 -0.1534 -0.5965 -1.3839
   32CHL1  H12B 3507   3.964   4.015   5.291  0.3047 -0.3501 -0.4879
   32CHL1   C11 3508   4.077   4.029   5.491  0.3301  0.0078  0.8821
   32CHL1  H11A 3509   4.184   4.026   5.522  1.0813 -0.3488 -1.5358
   32CHL1  H11B 3510   4.043   4.135   5.493  0.1883  0.1888 -3.0493
   32CHL1    C9 3511   4.001   3.931   5.584 -0.0578 -0.0375  0.1091
   32CHL1    H9 3512   3.895   3.931   5.551  0.6856 -2.6306 -2.8124
   32CHL1   C10 3513   3.994   3.956   5.740  0.6510  0.1776  0.5763
   32CHL1   C19 3514   4.139   3.985   5.768  0.2102 -0.0706  0.0942
   32CHL1  H19A 3515   4.207   3.898   5.752  0.4565  0.3996 -1.5919
   32CHL1  H19B 3516   4.173   4.078   5.719 -3.1692  1.8701  1.1512
   32CHL1  H19C 3517   4.154   4.002   5.877  2.8381 -1.9319  0.1341
   32CHL1    C1 3518   3.893   4.069   5.761  0.3214 -0.1334 -0.6569
   32CHL1   H1A 3519   3.922   4.171   5.729 -1.2835  1.4847  2.5450
   32CHL1   H1B 3520   3.805   4.047   5.698 -0.7713  0.7359  0.5160
   32CHL1    C2 3521   3.841   4.093   5.907 -0.1052  0.0034 -0.3381
   32CHL1   H2A 3522   3.752   4.160   5.908 -0.6575 -0.6826 -1.9546
   32CHL1   H2B 3523   3.921   4.139   5.970 -2.4356  1.8972  1.4289
   32CHL1   C20 3524   4.213   3.820   5.053 -0.0225 -0.2311  0.1434
   32CHL1   H20 3525   4.317   3.793   5.079  0.1207 -0.0794 -0.2651
   32CHL1   C21 3526   4.212   3.973   5.033 -0.7576  0.0277  0.0928
   32CHL1  H21A 3527   4.266   4.013   4.944 -1.5872 -1.2172 -1.0008
   32CHL1  H21B 3528   4.261   4.015   5.123 -1.0094 -1.5724  1.0070
   32CHL1  H21C 3529   4.109   4.014   5.028 -0.2638  1.2781 -0.2968
   32CHL1   C22 3530   4.183   3.745   4.927 -0.1547 -0.3290 -0.1456
   32CHL1  H22A 3531   4.194   3.638   4.954 -0.2329  0.4313  3.5162
   32CHL1  H22B 3532   4.082   3.772   4.892  0.0512 -0.7444 -1.0843
   32CHL1   C23 3533   4.284   3.782   4.815  0.1325  0.3424  0.0010
   32CHL1  H23A 3534   4.244   3.873   4.766 -0.6077  0.4398  0.7754
   32CHL1  H23B 3535   4.386   3.805   4.853  0.0953  1.2855 -0.4577
   32CHL1   C24 3536   4.304   3.677   4.694 -0.4295 -0.6191 -0.3193
   32CHL1  H24A 3537   4.363   3.591   4.733  1.7591  1.4390  1.1753
   32CHL1  H24B 3538   4.204   3.648   4.654 -0.5255  0.6511 -1.0470
   32CHL1   C25 3539   4.387   3.726   4.572  0.4281  0.1842 -0.6063
   32CHL1   H25 3540   4.325   3.803   4.521 -2.7523 -0.1400  2.4079
   32CHL1   C26 3541   4.520   3.780   4.619 -0.6357  0.1566 -0.2898
   32CHL1  H26A 3542   4.589   3.807   4.536 -0.8684 -0.5076 -0.7123
   32CHL1  H26B 3543   4.505   3.867   4.686 -3.3504 -0.1223 -0.4406
   32CHL1  H26C 3544   4.568   3.702   4.683  1.2436  1.7407  0.3517
   32CHL1   C27 3545   4.397   3.607   4.477 -0.0820 -0.3681  0.0242
   32CHL1  H27A 3546   4.447   3.531   4.541  1.8872  2.2735  1.8656
   32CHL1  H27B 3547   4.308   3.565   4.427  0.8762  0.2813 -2.3559
   32CHL1  H27C 3548   4.471   3.643   4.402  0.2268  2.0969  1.4023
   33CHL1    C3 3549   1.332   3.248   5.768 -0.5455 -0.6518 -0.0562
   33CHL1    H3 3550   1.418   3.251   5.697  1.6655 -1.5471  2.4148
   33CHL1    O3 3551   1.365   3.319   5.888  0.3933 -0.0259 -0.0363
   33CHL1   H3' 3552   1.413   3.398   5.862 -1.4697  0.6475 -1.6402
   33CHL1    C4 3553   1.214   3.320   5.695  0.3351  0.7500 -0.0630
   33CHL1   H4A 3554   1.124   3.330   5.760  0.3595 -0.0114  0.0976
   33CHL1   H4B 3555   1.253   3.422   5.674  1.4856  0.3361 -0.0000
   33CHL1    C5 3556   1.182   3.248   5.560  0.1175 -0.0710 -0.0201
   33CHL1    C6 3557   1.157   3.320   5.449 -0.4016  0.2604 -0.4083
   33CHL1    H6 3558   1.157   3.429   5.448  0.4963  0.2665 -1.1999
   33CHL1    C7 3559   1.118   3.257   5.322 -0.1536 -0.6075  0.4489
   33CHL1   H7A 3560   1.045   3.319   5.266  0.1248 -1.2998 -0.7172
   33CHL1   H7B 3561   1.210   3.261   5.260 -0.7350 -2.8064 -0.6356
   33CHL1    C8 3562   1.080   3.109   5.331  0.7448  0.1998  0.8279
   33CHL1    H8 3563   0.974   3.101   5.363  0.7478 -1.2396  0.5730
   33CHL1   C14 3564   1.090   3.049   5.188 -0.1540  0.6538 -0.8114
   33CHL1   H14 3565   1.199   3.047   5.167 -0.0901 -2.4957 -0.6975
   33CHL1   C15 3566   1.005   3.116   5.076  0.2180  0.0307  0.7996
   33CHL1  H15A 3567   0.908   3.154   5.114  0.9617  2.1992  0.6809
   33CHL1  H15B 3568   1.056   3.210   5.048 -0.6443  0.0584 -0.8326
   33CHL1   C16 3569   1.003   3.008   4.970  0.4894  0.9355 -0.2123
   33CHL1  H16A 3570   0.900   3.006   4.928  0.3891  1.1541  0.0236
   33CHL1  H16B 3571   1.067   3.024   4.881  0.3602 -0.3152 -0.5496
   33CHL1   C17 3572   1.050   2.871   5.035  0.2104  0.0042  0.9851
   33CHL1   H17 3573   1.157   2.864   5.004  0.3662  2.0563  0.8962
   33CHL1   C13 3574   1.038   2.902   5.182 -0.1904  0.1385 -0.6931
   33CHL1   C18 3575   0.892   2.884   5.233 -0.3191  0.4241 -0.0993
   33CHL1  H18A 3576   0.885   2.773   5.239  3.1727  0.0549 -0.5757
   33CHL1  H18B 3577   0.877   2.930   5.333 -0.8386 -0.0364  0.0435
   33CHL1  H18C 3578   0.819   2.923   5.158 -0.3524 -0.7011 -0.6851
   33CHL1   C12 3579   1.126   2.821   5.286 -0.2036 -0.2632  0.3276
   33CHL1  H12A 3580   1.109   2.712   5.291  1.7230 -0.7290 -1.4911
   33CHL1  H12B 3581   1.232   2.836   5.255 -0.3770  2.9050  0.9315
   33CHL1   C11 3582   1.130   2.887   5.426 -0.1729 -0.4394 -0.5471
   33CHL1  H11A 3583   1.033   2.860   5.473 -0.9464 -0.3199 -2.0233
   33CHL1  H11B 3584   1.206   2.841   5.494 -0.4572  1.2179  0.9868
   33CHL1    C9 3585   1.174   3.030   5.423  0.2109  0.4147 -0.0199
   33CHL1    H9 3586   1.277   3.037   5.383  0.8810  0.4692  1.6304
   33CHL1   C10 3587   1.185   3.091   5.569 -0.0305 -0.4728  0.4499
   33CHL1   C19 3588   1.049   3.064   5.633 -0.6759  0.8035  0.6938
   33CHL1  H19A 3589   0.956   3.089   5.577 -1.7365 -2.1342  0.9590
   33CHL1  H19B 3590   1.044   2.956   5.658  2.3592  0.0489 -1.4401
   33CHL1  H19C 3591   1.038   3.113   5.732 -1.0336  1.0860  0.5180
   33CHL1    C1 3592   1.300   3.028   5.658  0.1462 -0.0344 -0.2039
   33CHL1   H1A 3593   1.278   2.922   5.680  2.0203 -0.0511  1.9393
   33CHL1   H1B 3594   1.397   3.040   5.604 -0.9287  0.0936 -2.2252
   33CHL1    C2 3595   1.307   3.104   5.791 -0.4731 -0.1446  0.5537
   33CHL1   H2A 3596   1.384   3.068   5.862  0.4019 -0.2684 -0.4392
   33CHL1   H2B 3597   1.208   3.091   5.840 -1.9661  4.0292 -0.9539
   33CHL1   C20 3598   0.970   2.748   4.980 -0.4880  0.0225 -0.2282
   33CHL1   H20 3599   0.869   2.755   5.026  0.5656  2.7653  1.9012
   33CHL1   C21 3600   1.022   2.622   5.054 -0.7975 -0.3088  0.3599
   33CHL1  H21A 3601   1.126   2.648   5.085 -0.6013 -0.8839  0.1924
   33CHL1  H21B 3602   1.026   2.525   5.000 -0.0703  0.2512 -0.6456
   33CHL1  H21C 3603   0.977   2.611   5.154 -0.9269  0.3916  0.3863
   33CHL1   C22 3604   0.963   2.735   4.832  0.2032 -1.1208 -0.6800
   33CHL1  H22A 3605   0.914   2.824   4.787  1.7209  0.4606  0.6848
   33CHL1  H22B 3606   1.063   2.718   4.786  0.8253 -1.6241  0.8187
   33CHL1   C23 3607   0.879   2.609   4.798 -0.5334 -0.7200 -0.2509
   33CHL1  H23A 3608   0.944   2.519   4.798 -0.1591 -0.4902 -2.0547
   33CHL1  H23B 3609   0.802   2.611   4.878 -0.3625  1.4809 -0.0799
   33CHL1   C24 3610   0.809   2.634   4.666  0.5088 -0.6567 -0.0232
   33CHL1  H24A 3611   0.771   2.738   4.657  0.6253 -0.5823  0.3225
   33CHL1  H24B 3612   0.884   2.633   4.584 -1.4451  0.3705 -1.9315
   33CHL1   C25 3613   0.709   2.519   4.626  0.0953 -0.5901 -0.5979
   33CHL1   H25 3614   0.758   2.423   4.656  1.0960 -0.3411 -1.4121
   33CHL1   C26 3615   0.585   2.553   4.714  0.4778 -0.6525  0.3149
   33CHL1  H26A 3616   0.604   2.558   4.824 -0.9039 -1.0674  0.5917
   33CHL1  H26B 3617   0.546   2.654   4.689  1.3195 -0.1740  0.8860
   33CHL1  H26C 3618   0.501   2.482   4.695  0.5253 -0.7091  0.3162
   33CHL1   C27 3619   0.689   2.521   4.479  0.3854  0.3730 -0.0651
   33CHL1  H27A 3620   0.644   2.619   4.453  1.3172  0.5422 -1.1168
   33CHL1  H27B 3621   0.790   2.512   4.434  0.1360  0.1548 -0.5841
   33CHL1  H27C 3622   0.626   2.441   4.435  1.8135 -1.4062  1.0153
   34CHL1    C3 3623   2.987   5.005   5.960 -1.3324  0.0385 -0.3801
   34CHL1    H3 3624   2.891   5.055   5.936 -1.4188 -1.0150 -2.4583
   34CHL1    O3 3625   2.996   4.984   6.100 -0.0315 -0.2103  0.5379
   34CHL1   H3' 3626   3.072   4.925   6.094  1.0794  1.0107  1.7450
   34CHL1    C4 3627   2.996   4.871   5.890 -0.7363  0.2814 -0.1080
   34CHL1   H4A 3628   3.072   4.808   5.940 -0.8321  0.5498  0.3839
   34CHL1   H4B 3629   2.909   4.806   5.913 -0.1284 -1.1498 -1.6615
   34CHL1    C5 3630   3.015   4.883   5.737 -0.7358 -0.3305 -0.3491
   34CHL1    C6 3631   2.934   4.826   5.651 -0.0102  0.5012  0.0714
   34CHL1    H6 3632   2.850   4.772   5.698 -0.5934  0.4050 -1.0378
   34CHL1    C7 3633   2.949   4.830   5.505  0.2302  0.5283  0.0514
   34CHL1   H7A 3634   2.952   4.722   5.478  0.0375 -0.0023  1.9905
   34CHL1   H7B 3635   2.862   4.880   5.457  0.5278 -0.7128 -1.9310
   34CHL1    C8 3636   3.075   4.898   5.458  0.6787  0.0937  0.0523
   34CHL1    H8 3637   3.151   4.817   5.464  0.5238 -0.0312  0.3764
   34CHL1   C14 3638   3.055   4.941   5.312 -0.4440  0.0179  0.2783
   34CHL1   H14 3639   2.974   5.015   5.321  0.2270  0.7388  0.5084
   34CHL1   C15 3640   3.008   4.827   5.221  0.0520  1.6749  0.1647
   34CHL1  H15A 3641   3.066   4.735   5.244 -1.3664  0.6890 -0.0827
   34CHL1  H15B 3642   2.899   4.812   5.209  0.3361 -0.6486  0.0942
   34CHL1   C16 3643   3.042   4.887   5.084 -0.2266  0.3728 -0.4227
   34CHL1  H16A 3644   3.111   4.808   5.045  2.5666  3.1506 -1.5853
   34CHL1  H16B 3645   2.951   4.892   5.021 -0.1572 -0.6101 -0.6221
   34CHL1   C17 3646   3.119   5.017   5.115  0.1640  0.1994 -0.0431
   34CHL1   H17 3647   3.034   5.088   5.116  0.0399  0.0490  0.5739
   34CHL1   C13 3648   3.177   5.008   5.253  0.0541 -0.1922  0.8715
   34CHL1   C18 3649   3.302   4.919   5.258 -1.0368  0.7344  0.0392
   34CHL1  H18A 3650   3.398   4.961   5.220 -1.1729  0.1776 -0.9557
   34CHL1  H18B 3651   3.324   4.882   5.361 -0.6883  1.2277  0.1463
   34CHL1  H18C 3652   3.293   4.822   5.204  1.0487  0.2522  0.4609
   34CHL1   C12 3653   3.200   5.140   5.327 -0.7936 -0.3664 -0.1005
   34CHL1  H12A 3654   3.289   5.185   5.276 -0.1538 -0.2350  1.0999
   34CHL1  H12B 3655   3.122   5.218   5.314  1.4899  1.7474 -2.7778
   34CHL1   C11 3656   3.215   5.118   5.476 -0.7920  0.2657  0.2585
   34CHL1  H11A 3657   3.314   5.069   5.488 -0.0716  1.7401  0.5599
   34CHL1  H11B 3658   3.222   5.220   5.518  0.6606  0.1666  0.3318
   34CHL1    C9 3659   3.110   5.029   5.542 -0.5503 -0.2290  0.1898
   34CHL1    H9 3660   3.017   5.090   5.534 -0.7067 -0.6909 -2.3093
   34CHL1   C10 3661   3.127   4.981   5.689  0.1587 -0.8850  0.0803
   34CHL1   C19 3662   3.258   4.915   5.705 -0.3307 -1.1507 -0.1450
   34CHL1  H19A 3663   3.260   4.818   5.652  1.1721 -0.5487 -1.2309
   34CHL1  H19B 3664   3.339   4.981   5.667 -1.3659  0.5044  0.4146
   34CHL1  H19C 3665   3.276   4.903   5.814 -0.9200  0.7438  0.2145
   34CHL1    C1 3666   3.123   5.112   5.779 -0.1780 -0.5495 -0.3249
   34CHL1   H1A 3667   3.212   5.174   5.756  0.1408 -1.3898 -1.4919
   34CHL1   H1B 3668   3.038   5.175   5.748  0.8614  1.0150 -0.1084
   34CHL1    C2 3669   3.104   5.088   5.934 -0.4808 -0.1592  0.5133
   34CHL1   H2A 3670   3.088   5.180   5.993  2.5287 -0.5511  2.1272
   34CHL1   H2B 3671   3.201   5.039   5.958  0.2185 -0.3003 -2.2402
   34CHL1   C20 3672   3.227   5.059   5.014  0.2070  0.2948  0.2168
   34CHL1   H20 3673   3.317   5.104   5.062  1.6266 -2.0104 -0.1153
   34CHL1   C21 3674   3.161   5.169   4.929  0.3587  0.2324  0.3084
   34CHL1  H21A 3675   3.239   5.206   4.860 -0.8836  0.4770 -1.0021
   34CHL1  H21B 3676   3.101   5.250   4.975 -4.1241 -2.5276 -0.0657
   34CHL1  H21C 3677   3.086   5.117   4.865  0.5675 -0.1017  0.3310
   34CHL1   C22 3678   3.270   4.936   4.923  0.4992 -0.6206 -0.2199
   34CHL1  H22A 3679   3.308   4.860   4.995  0.7504 -1.1068 -0.8499
   34CHL1  H22B 3680   3.190   4.892   4.861  0.0046 -0.4222  0.2753
   34CHL1   C23 3681   3.398   4.969   4.848  0.2897  0.0765  0.1093
   34CHL1  H23A 3682   3.382   5.045   4.768  1.4644  0.9755  0.6822
   34CHL1  H23B 3683   3.475   5.017   4.912 -0.1977 -1.1398  1.6390
   34CHL1   C24 3684   3.458   4.839   4.783 -0.2367 -0.6733  0.0284
   34CHL1  H24A 3685   3.487   4.785   4.876  1.6064  0.1682 -0.0171
   34CHL1  H24B 3686   3.382   4.783   4.723 -3.2017  2.9093  0.1170
   34CHL1   C25 3687   3.584   4.854   4.692  0.3112 -0.1140  0.1260
   34CHL1   H25 3688   3.660   4.897   4.760 -0.2368 -2.8814  2.6966
   34CHL1   C26 3689   3.637   4.724   4.641 -0.1349 -0.2336  0.4249
   34CHL1  H26A 3690   3.566   4.686   4.564 -0.2572  0.9844 -0.0767
   34CHL1  H26B 3691   3.737   4.730   4.594 -0.6166 -0.6062 -0.6949
   34CHL1  H26C 3692   3.644   4.645   4.719  4.1554 -0.3915  0.0749
   34CHL1   C27 3693   3.572   4.954   4.575  0.3254 -0.5751  0.0509
   34CHL1  H27A 3694   3.499   5.033   4.603  1.8183  1.3283 -1.1366
   34CHL1  H27B 3695   3.673   4.995   4.550 -0.0860  0.5135  0.1163
   34CHL1  H27C 3696   3.540   4.914   4.477  1.4103 -0.0054 -0.5657
   35CHL1    C3 3697   5.346   1.503   5.933 -0.5124  0.7064  0.1727
   35CHL1    H3 3698   5.435   1.436   5.933 -1.5467 -0.9313 -3.7747
   35CHL1    O3 3699   5.318   1.548   6.066  0.1468 -0.0965  0.2756
   35CHL1   H3' 3700   5.376   1.624   6.074  0.6565 -0.3673 -0.7390
   35CHL1    C4 3701   5.376   1.631   5.850 -0.7122 -0.1980 -0.1460
   35CHL1   H4A 3702   5.299   1.709   5.865 -1.5060 -0.7882 -1.0460
   35CHL1   H4B 3703   5.473   1.665   5.892 -1.2836  3.8805 -1.6793
   35CHL1    C5 3704   5.390   1.597   5.706  0.1207 -0.7498 -0.9950
   35CHL1    C6 3705   5.504   1.623   5.634 -1.0911  0.3017 -0.2453
   35CHL1    H6 3706   5.591   1.660   5.690  0.4984 -1.8394 -1.1548
   35CHL1    C7 3707   5.518   1.606   5.488 -0.5445  0.8037 -0.5792
   35CHL1   H7A 3708   5.566   1.694   5.441 -0.5877  1.2212  0.1471
   35CHL1   H7B 3709   5.577   1.513   5.475 -0.5670  0.5608  0.8663
   35CHL1    C8 3710   5.381   1.598   5.428 -0.3513 -0.0611  0.0416
   35CHL1    H8 3711   5.324   1.693   5.428 -1.9119 -0.9418 -1.2105
   35CHL1   C14 3712   5.387   1.558   5.285 -0.6306 -0.4952 -0.8133
   35CHL1   H14 3713   5.437   1.458   5.290  1.2256  0.4016 -0.7049
   35CHL1   C15 3714   5.488   1.632   5.197  0.4952  0.0638 -0.3867
   35CHL1  H15A 3715   5.469   1.741   5.211  0.4110  0.0570 -0.4518
   35CHL1  H15B 3716   5.587   1.594   5.230  1.3862  1.9148 -0.7888
   35CHL1   C16 3717   5.459   1.581   5.057  0.0675  0.3165 -0.3898
   35CHL1  H16A 3718   5.456   1.669   4.989 -0.0854 -0.5649 -1.5356
   35CHL1  H16B 3719   5.530   1.512   5.006  0.1051  1.3703 -1.8287
   35CHL1   C17 3720   5.322   1.501   5.080 -0.7098 -0.1903 -0.1684
   35CHL1   H17 3721   5.365   1.401   5.101  0.8978  0.4283 -0.3296
   35CHL1   C13 3722   5.263   1.535   5.209  0.3524 -0.2627  0.2495
   35CHL1   C18 3723   5.185   1.674   5.203  0.0555 -0.0986 -0.9562
   35CHL1  H18A 3724   5.168   1.714   5.306 -0.2767  1.3357 -1.5508
   35CHL1  H18B 3725   5.250   1.750   5.156  0.2600  1.5588  1.7561
   35CHL1  H18C 3726   5.091   1.670   5.145  0.4427 -2.8964 -1.5630
   35CHL1   C12 3727   5.183   1.426   5.281  0.7035 -0.7585  0.1018
   35CHL1  H12A 3728   5.084   1.422   5.229 -0.1329 -2.2226  1.6960
   35CHL1  H12B 3729   5.245   1.335   5.274  0.6242 -0.7323 -1.2711
   35CHL1   C11 3730   5.152   1.469   5.423  0.2695 -0.2087  0.2070
   35CHL1  H11A 3731   5.078   1.551   5.421 -1.6663 -1.9086 -1.7994
   35CHL1  H11B 3732   5.103   1.382   5.471 -0.7286  0.5186  0.5316
   35CHL1    C9 3733   5.288   1.504   5.497 -0.0602  0.3856  0.5432
   35CHL1    H9 3734   5.347   1.410   5.486 -0.4413  0.3997 -2.2309
   35CHL1   C10 3735   5.265   1.534   5.649 -0.7074 -0.7658 -0.9551
   35CHL1   C19 3736   5.138   1.626   5.654 -0.1038 -0.1829  0.2969
   35CHL1  H19A 3737   5.139   1.712   5.584  1.2596 -2.0327 -2.1205
   35CHL1  H19B 3738   5.051   1.561   5.627  0.1635 -0.6666  0.5854
   35CHL1  H19C 3739   5.121   1.656   5.759 -1.2225  1.3823 -0.2992
   35CHL1    C1 3740   5.234   1.402   5.728 -0.1498  0.3391  1.1140
   35CHL1   H1A 3741   5.135   1.359   5.703  0.8788 -2.6755  1.7169
   35CHL1   H1B 3742   5.315   1.328   5.712 -0.4072 -0.1386  1.9411
   35CHL1    C2 3743   5.225   1.424   5.881  0.2546 -0.2905  0.1821
   35CHL1   H2A 3744   5.208   1.330   5.938 -2.3986  0.1499  0.2595
   35CHL1   H2B 3745   5.142   1.490   5.914  0.3065  1.2321 -2.4071
   35CHL1   C20 3746   5.225   1.494   4.962  0.0828  0.8263  0.9572
   35CHL1   H20 3747   5.124   1.470   5.001  0.6270  0.0584  1.9529
   35CHL1   C21 3748   5.264   1.372   4.881  0.6927 -0.2871  0.5561
   35CHL1  H21A 3749   5.373   1.370   4.859  0.0571 -1.7838 -3.3143
   35CHL1  H21B 3750   5.209   1.375   4.784  1.3614  2.8115  0.1962
   35CHL1  H21C 3751   5.234   1.274   4.924  0.0523  0.7102  2.4771
   35CHL1   C22 3752   5.223   1.617   4.862  0.2223  0.1386 -0.3309
   35CHL1  H22A 3753   5.204   1.711   4.917 -1.0386  0.3183 -1.0251
   35CHL1  H22B 3754   5.318   1.614   4.805  1.4598  1.1599  1.5927
   35CHL1   C23 3755   5.112   1.612   4.758 -0.5568 -0.0608 -0.4244
   35CHL1  H23A 3756   5.116   1.517   4.702 -1.3674  0.0144 -0.6212
   35CHL1  H23B 3757   5.024   1.605   4.825  1.7036 -1.0589  2.6551
   35CHL1   C24 3758   5.100   1.735   4.666 -0.1090  0.0760 -0.7755
   35CHL1  H24A 3759   5.091   1.821   4.735  3.3073  1.9498 -2.3734
   35CHL1  H24B 3760   5.193   1.754   4.607  1.0062 -0.8988  0.6117
   35CHL1   C25 3761   4.968   1.742   4.583 -0.2513 -0.0886 -0.2171
   35CHL1   H25 3762   4.876   1.755   4.644 -0.3614 -0.9278 -0.1899
   35CHL1   C26 3763   4.968   1.865   4.490  0.3327 -0.4176 -0.3529
   35CHL1  H26A 3764   5.043   1.840   4.412 -0.7117 -3.2089 -0.5566
   35CHL1  H26B 3765   4.872   1.865   4.434  0.3949  1.2407 -0.5080
   35CHL1  H26C 3766   4.998   1.959   4.541 -2.0814 -0.2538  0.8997
   35CHL1   C27 3767   4.954   1.622   4.494  0.3656  0.6079 -0.1865
   35CHL1  H27A 3768   4.925   1.540   4.563 -2.2627  1.8623  0.3116
   35CHL1  H27B 3769   4.879   1.645   4.415 -2.3811 -1.5478  1.6046
   35CHL1  H27C 3770   5.049   1.593   4.446  0.1383  1.5574 -1.2513
   36CHL1    C3 3771   1.457   3.653   5.687 -0.0657 -0.0397 -0.4636
   36CHL1    H3 3772   1.354   3.649   5.643  0.4662 -0.3567 -1.7452
   36CHL1    O3 3773   1.449   3.594   5.813 -0.4954 -0.2934 -0.2144
   36CHL1   H3' 3774   1.384   3.645   5.862  0.2716 -0.6176  1.1901
   36CHL1    C4 3775   1.549   3.574   5.593  0.4546  0.8805  0.1770
   36CHL1   H4A 3776   1.648   3.565   5.643  0.4817  1.2962  0.2006
   36CHL1   H4B 3777   1.502   3.475   5.572  0.0583  0.9842  0.5767
   36CHL1    C5 3778   1.565   3.643   5.463  0.3150 -0.5974  0.2707
   36CHL1    C6 3779   1.527   3.579   5.351 -0.2674  0.9699  0.4195
   36CHL1    H6 3780   1.493   3.475   5.364 -1.0408  1.0757 -0.5804
   36CHL1    C7 3781   1.556   3.635   5.216 -0.7963 -0.2044  0.2940
   36CHL1   H7A 3782   1.630   3.569   5.166 -0.1029 -0.8400  2.1007
   36CHL1   H7B 3783   1.465   3.634   5.152 -1.1343 -0.6315  0.7809
   36CHL1    C8 3784   1.625   3.775   5.211  0.3242  0.5334 -0.1090
   36CHL1    H8 3785   1.734   3.756   5.225  0.2186 -0.2857 -0.3925
   36CHL1   C14 3786   1.590   3.839   5.083 -0.2839  0.6342 -0.0267
   36CHL1   H14 3787   1.481   3.860   5.078 -0.7470 -1.6023 -0.1771
   36CHL1   C15 3788   1.607   3.752   4.953 -0.7948  0.5203  0.3975
   36CHL1  H15A 3789   1.686   3.675   4.968  0.9384  1.9277 -1.0100
   36CHL1  H15B 3790   1.511   3.705   4.924 -1.7722 -0.2678  4.3027
   36CHL1   C16 3791   1.642   3.858   4.842  0.9946  0.2058  0.3276
   36CHL1  H16A 3792   1.743   3.847   4.799 -0.4403 -2.4743 -2.8047
   36CHL1  H16B 3793   1.557   3.845   4.771  1.4204 -1.3525  0.0861
   36CHL1   C17 3794   1.624   4.002   4.919 -0.1542 -0.4645  0.1353
   36CHL1   H17 3795   1.516   4.028   4.919 -0.0446 -0.0072  0.3598
   36CHL1   C13 3796   1.661   3.968   5.064 -0.4046  0.2924 -0.3237
   36CHL1   C18 3797   1.821   3.955   5.067 -0.4218  0.1839 -0.1427
   36CHL1  H18A 3798   1.851   3.889   4.983  2.7819 -0.1383  1.1316
   36CHL1  H18B 3799   1.863   4.056   5.052  0.3686  0.6078  3.7370
   36CHL1  H18C 3800   1.865   3.910   5.159 -0.1764 -1.2862 -0.9458
   36CHL1   C12 3801   1.604   4.067   5.167  0.9925  0.5757  0.1086
   36CHL1  H12A 3802   1.667   4.158   5.171  2.7418 -0.6450  1.6439
   36CHL1  H12B 3803   1.495   4.086   5.151 -0.4687 -2.5330  4.4932
   36CHL1   C11 3804   1.617   4.010   5.312 -0.5853  0.1300  0.1021
   36CHL1  H11A 3805   1.723   4.016   5.344 -1.1591  0.7495  2.0322
   36CHL1  H11B 3806   1.567   4.062   5.397 -1.5652 -1.8368  0.8044
   36CHL1    C9 3807   1.575   3.863   5.328 -0.3977  0.1625 -0.4707
   36CHL1    H9 3808   1.465   3.867   5.315 -0.5557 -0.0180  0.7204
   36CHL1   C10 3809   1.600   3.793   5.470 -0.3268  0.4424  0.0743
   36CHL1   C19 3810   1.752   3.813   5.513  0.3646 -0.2068  0.6038
   36CHL1  H19A 3811   1.813   3.762   5.435  2.0222  2.2316  0.2212
   36CHL1  H19B 3812   1.774   3.921   5.523  0.6816  0.4970 -4.5814
   36CHL1  H19C 3813   1.761   3.761   5.611  1.1519  0.6069  0.9745
   36CHL1    C1 3814   1.515   3.872   5.578 -0.2134 -0.1198  0.3112
   36CHL1   H1A 3815   1.566   3.970   5.591 -0.0426  0.2371 -2.5472
   36CHL1   H1B 3816   1.411   3.895   5.548 -0.5524 -1.3996  0.4627
   36CHL1    C2 3817   1.502   3.796   5.712  0.8175  0.3442 -0.6251
   36CHL1   H2A 3818   1.418   3.838   5.771  1.6100 -1.2019  1.7037
   36CHL1   H2B 3819   1.592   3.801   5.776  0.5284 -1.0146 -0.0934
   36CHL1   C20 3820   1.696   4.115   4.847 -0.5764 -0.2013  0.1661
   36CHL1   H20 3821   1.802   4.082   4.837 -0.8280 -0.9418 -0.1597
   36CHL1   C21 3822   1.705   4.249   4.925 -0.0878  0.0743  0.0896
   36CHL1  H21A 3823   1.785   4.243   5.001 -1.4091  2.2182  1.7865
   36CHL1  H21B 3824   1.605   4.262   4.972  1.4554  0.1017  3.6221
   36CHL1  H21C 3825   1.733   4.334   4.859 -0.3975 -1.3376 -1.9592
   36CHL1   C22 3826   1.638   4.128   4.707 -0.2863  0.2083 -0.1279
   36CHL1  H22A 3827   1.621   4.033   4.652 -0.2050 -0.5970  1.1843
   36CHL1  H22B 3828   1.540   4.177   4.728 -0.6192  0.2025 -1.5502
   36CHL1   C23 3829   1.708   4.221   4.602 -0.1593  0.3720 -0.5489
   36CHL1  H23A 3830   1.634   4.233   4.520  0.1369 -0.2377 -0.9161
   36CHL1  H23B 3831   1.725   4.325   4.637  2.2501 -0.3708  0.7061
   36CHL1   C24 3832   1.834   4.169   4.538 -0.4167 -0.7662  0.0094
   36CHL1  H24A 3833   1.917   4.212   4.599 -0.6214 -0.8070  0.3222
   36CHL1  H24B 3834   1.838   4.060   4.558 -0.3963 -0.5508  1.2836
   36CHL1   C25 3835   1.859   4.201   4.390  0.1222  0.4059 -0.3571
   36CHL1   H25 3836   1.958   4.162   4.357 -0.8248 -2.9928  0.4524
   36CHL1   C26 3837   1.759   4.121   4.311  0.1220  0.0805  0.2948
   36CHL1  H26A 3838   1.782   4.014   4.327 -0.7373 -0.2988 -0.9047
   36CHL1  H26B 3839   1.655   4.151   4.334 -1.5390 -3.8815 -1.2048
   36CHL1  H26C 3840   1.765   4.154   4.205 -1.8200  0.2121  0.1966
   36CHL1   C27 3841   1.844   4.347   4.355  0.2699 -0.8954 -0.2568
   36CHL1  H27A 3842   1.910   4.405   4.422  2.0443 -3.4008  0.3266
   36CHL1  H27B 3843   1.876   4.363   4.250 -1.0603 -1.7551 -0.8153
   36CHL1  H27C 3844   1.743   4.389   4.371  0.0532 -1.6275  0.3711
   37CHL1    C3 3845   1.502   1.474   5.954  0.5811  0.4418  0.4675
   37CHL1    H3 3846   1.558   1.555   5.903  2.6666  0.2978  2.3254
   37CHL1    O3 3847   1.488   1.506   6.088 -0.3012 -0.2051  0.0158
   37CHL1   H3' 3848   1.415   1.452   6.120 -0.0294 -2.5279 -2.8310
   37CHL1    C4 3849   1.356   1.450   5.896 -0.1033  0.1760  0.7833
   37CHL1   H4A 3850   1.307   1.360   5.941  3.1557 -0.5244  3.3554
   37CHL1   H4B 3851   1.296   1.536   5.932 -3.2725 -1.3505 -0.4324
   37CHL1    C5 3852   1.366   1.426   5.748  0.0647  0.3976 -0.5511
   37CHL1    C6 3853   1.308   1.506   5.656 -0.7798  0.0415 -0.2910
   37CHL1    H6 3854   1.231   1.580   5.683  1.1386  1.9089  0.2981
   37CHL1    C7 3855   1.310   1.474   5.511 -0.1744  0.2402  0.7251
   37CHL1   H7A 3856   1.214   1.492   5.459  0.7196  0.3663 -0.9748
   37CHL1   H7B 3857   1.378   1.540   5.452 -0.3806  0.3077  0.5647
   37CHL1    C8 3858   1.360   1.328   5.471 -0.3631 -0.0065 -0.2361
   37CHL1    H8 3859   1.279   1.254   5.492 -0.1807 -0.0628  0.3094
   37CHL1   C14 3860   1.395   1.316   5.320 -0.0450  0.1971 -0.2159
   37CHL1   H14 3861   1.468   1.400   5.314 -0.6573  0.6945 -1.0231
   37CHL1   C15 3862   1.287   1.337   5.218  0.5254 -0.5863  0.6777
   37CHL1  H15A 3863   1.190   1.287   5.237  0.8606 -1.9113 -0.8907
   37CHL1  H15B 3864   1.269   1.447   5.214 -1.6999 -0.9391  0.0905
   37CHL1   C16 3865   1.351   1.287   5.087 -0.2569 -1.0087 -0.0201
   37CHL1  H16A 3866   1.271   1.239   5.027 -0.8616  1.9397 -1.7733
   37CHL1  H16B 3867   1.383   1.375   5.027 -1.4630 -0.4193  0.1689
   37CHL1   C17 3868   1.477   1.204   5.124 -0.2280 -0.6755  1.0478
   37CHL1   H17 3869   1.566   1.269   5.108 -0.1387 -1.1386 -0.5153
   37CHL1   C13 3870   1.461   1.187   5.285 -0.1180  0.8921 -0.1808
   37CHL1   C18 3871   1.366   1.074   5.317  0.5173 -0.4532 -0.9960
   37CHL1  H18A 3872   1.408   0.978   5.281  0.4964 -0.2894 -1.4574
   37CHL1  H18B 3873   1.345   1.075   5.426 -2.2592 -0.6039 -1.4629
   37CHL1  H18C 3874   1.267   1.091   5.269  0.3749 -0.8477 -0.8526
   37CHL1   C12 3875   1.601   1.173   5.363 -1.0050  0.5351  0.2769
   37CHL1  H12A 3876   1.669   1.089   5.336 -0.6774  1.1712 -0.9728
   37CHL1  H12B 3877   1.657   1.264   5.332  0.5793 -0.8623 -1.1442
   37CHL1   C11 3878   1.573   1.185   5.508  0.2541 -0.2434 -0.0699
   37CHL1  H11A 3879   1.537   1.083   5.533  2.0084 -2.6203 -5.6760
   37CHL1  H11B 3880   1.676   1.190   5.549  0.6991 -1.8254 -0.9057
   37CHL1    C9 3881   1.484   1.302   5.555 -1.1133  0.0231  0.5192
   37CHL1    H9 3882   1.546   1.392   5.536  0.4043 -1.0299  0.3274
   37CHL1   C10 3883   1.453   1.308   5.706  0.3310 -0.0596 -0.0896
   37CHL1   C19 3884   1.377   1.182   5.748 -0.5871  0.1856  1.2209
   37CHL1  H19A 3885   1.435   1.091   5.722 -3.8442 -1.4933 -0.8467
   37CHL1  H19B 3886   1.359   1.175   5.858 -0.4328 -0.3237  1.2193
   37CHL1  H19C 3887   1.286   1.160   5.688  0.2693 -1.1434  0.3568
   37CHL1    C1 3888   1.591   1.325   5.774 -0.2117 -0.1598  0.1356
   37CHL1   H1A 3889   1.647   1.230   5.772 -0.3507 -0.2696  0.8956
   37CHL1   H1B 3890   1.647   1.408   5.726 -0.0321 -0.9122 -0.9742
   37CHL1    C2 3891   1.590   1.352   5.927  0.4906 -0.2936 -0.1803
   37CHL1   H2A 3892   1.689   1.366   5.974 -0.1805  1.1978  0.8996
   37CHL1   H2B 3893   1.537   1.263   5.966 -1.2621  1.1040  0.7925
   37CHL1   C20 3894   1.494   1.083   5.029 -0.0339 -0.1668  0.1213
   37CHL1   H20 3895   1.420   1.002   5.049  2.6055 -2.5828  0.8798
   37CHL1   C21 3896   1.630   1.020   5.056  0.8203  0.2697 -0.1810
   37CHL1  H21A 3897   1.710   1.097   5.054  0.6790  0.4391  0.4546
   37CHL1  H21B 3898   1.649   0.932   4.991 -1.5967 -1.7132  1.5915
   37CHL1  H21C 3899   1.629   0.964   5.153 -3.9087 -0.8186 -0.6141
   37CHL1   C22 3900   1.492   1.116   4.872  0.3575  0.0678 -0.9697
   37CHL1  H22A 3901   1.510   1.019   4.821 -1.0214 -0.7112 -0.0424
   37CHL1  H22B 3902   1.401   1.171   4.843  1.2167  1.7479 -0.6097
   37CHL1   C23 3903   1.598   1.213   4.816  0.5592 -0.6959 -0.0498
   37CHL1  H23A 3904   1.595   1.310   4.869 -1.3239 -1.0027  0.4866
   37CHL1  H23B 3905   1.698   1.175   4.846 -0.2646 -0.8513  2.7385
   37CHL1   C24 3906   1.577   1.230   4.665 -0.5703 -0.5229 -0.0261
   37CHL1  H24A 3907   1.571   1.134   4.609  0.2205 -0.9958  0.6676
   37CHL1  H24B 3908   1.486   1.289   4.642  1.1889  2.1041 -0.6901
   37CHL1   C25 3909   1.680   1.326   4.597  0.2751  0.8513 -0.2581
   37CHL1   H25 3910   1.779   1.285   4.625 -0.7545 -1.1207  0.7016
   37CHL1   C26 3911   1.673   1.310   4.445  0.2653 -0.3507  0.2281
   37CHL1  H26A 3912   1.681   1.202   4.420  2.3264 -0.0781 -0.4614
   37CHL1  H26B 3913   1.572   1.337   4.407 -0.2335 -2.0969  0.2363
   37CHL1  H26C 3914   1.738   1.383   4.392 -1.6335  1.1202 -0.1800
   37CHL1   C27 3915   1.671   1.474   4.651  0.5663  0.5481  0.2703
   37CHL1  H27A 3916   1.576   1.519   4.615  0.7753 -0.6783 -2.0094
   37CHL1  H27B 3917   1.666   1.472   4.762  2.3947 -1.9574  0.4022
   37CHL1  H27C 3918   1.753   1.526   4.597 -0.4001  0.0900 -1.7081
   38CHL1    C3 3919   2.341   2.071   6.042 -0.5003  0.6302  0.3640
   38CHL1    H3 3920   2.368   2.171   6.003  0.6544 -0.3819 -1.5898
   38CHL1    O3 3921   2.353   2.066   6.179 -0.3570 -0.0231  0.1909
   38CHL1   H3' 3922   2.333   1.976   6.205  0.6626 -0.4819 -0.5492
   38CHL1    C4 3923   2.202   2.019   6.010  0.5002 -0.7974  0.6910
   38CHL1   H4A 3924   2.179   1.922   6.059 -0.0952  0.0567  2.1793
   38CHL1   H4B 3925   2.125   2.087   6.052  1.0496 -0.9289  1.9621
   38CHL1    C5 3926   2.182   2.000   5.865 -0.3454 -0.0743  0.0221
   38CHL1    C6 3927   2.082   2.071   5.808 -0.4973 -0.1114 -0.1504
   38CHL1    H6 3928   2.014   2.123   5.877  0.1060 -0.0677  0.4138
   38CHL1    C7 3929   2.055   2.079   5.662 -0.0642 -0.4564 -0.5038
   38CHL1   H7A 3930   1.947   2.057   5.648 -1.0690  2.6757  1.4561
   38CHL1   H7B 3931   2.076   2.178   5.616  1.4948 -1.3252 -1.7884
   38CHL1    C8 3932   2.128   1.968   5.580  0.7252  0.5848 -0.2586
   38CHL1    H8 3933   2.079   1.871   5.601  2.1610  0.0179  0.7161
   38CHL1   C14 3934   2.127   2.004   5.430  0.1024 -0.3676  0.5586
   38CHL1   H14 3935   2.192   2.092   5.412  0.9653 -0.4986  2.7519
   38CHL1   C15 3936   1.994   2.044   5.374  0.6342 -0.4344  0.1183
   38CHL1  H15A 3937   1.916   1.970   5.401  1.3680 -1.7722 -1.2291
   38CHL1  H15B 3938   1.964   2.146   5.407 -0.4726 -0.4599 -0.7472
   38CHL1   C16 3939   2.020   2.039   5.226  0.1122  0.2824 -0.6171
   38CHL1  H16A 3940   1.932   1.987   5.182  3.0266 -3.9268 -2.1322
   38CHL1  H16B 3941   2.025   2.141   5.181  3.0757 -0.2950 -1.8367
   38CHL1   C17 3942   2.154   1.969   5.199  0.4231  0.2139 -0.1786
   38CHL1   H17 3943   2.228   2.051   5.182  0.4075  0.4975  1.0389
   38CHL1   C13 3944   2.192   1.911   5.338 -0.2963  0.2199 -0.3978
   38CHL1   C18 3945   2.109   1.781   5.347  0.4102 -0.1785  0.2919
   38CHL1  H18A 3946   2.165   1.709   5.283 -0.0130  0.4003 -0.7503
   38CHL1  H18B 3947   2.093   1.742   5.450  0.9326  0.2322  0.5281
   38CHL1  H18C 3948   2.006   1.786   5.305  1.2020 -1.6074 -2.0048
   38CHL1   C12 3949   2.343   1.904   5.389 -0.6022 -0.4895  0.2322
   38CHL1  H12A 3950   2.397   1.828   5.329  0.4875  0.2590  0.2402
   38CHL1  H12B 3951   2.401   1.999   5.392 -0.4647 -0.5448 -0.4274
   38CHL1   C11 3952   2.347   1.844   5.534  0.4547  0.7366 -0.6278
   38CHL1  H11A 3953   2.308   1.740   5.530 -0.2235  0.9230  0.5566
   38CHL1  H11B 3954   2.454   1.845   5.563  0.2649  3.0672  0.2107
   38CHL1    C9 3955   2.273   1.942   5.628 -0.3998 -0.1651 -0.8234
   38CHL1    H9 3956   2.321   2.040   5.610 -1.8659  0.6676 -0.3981
   38CHL1   C10 3957   2.292   1.919   5.782 -0.4361  0.1069  0.0133
   38CHL1   C19 3958   2.262   1.765   5.810 -0.4545 -0.5698  0.7171
   38CHL1  H19A 3959   2.266   1.729   5.915  0.6810 -3.3640 -0.1862
   38CHL1  H19B 3960   2.157   1.742   5.783  0.1193 -1.6558 -0.7204
   38CHL1  H19C 3961   2.331   1.694   5.760 -0.1112  0.2903 -0.0581
   38CHL1    C1 3962   2.434   1.953   5.833 -0.0695  0.5460 -0.2543
   38CHL1   H1A 3963   2.501   1.870   5.802  0.1379  0.7556 -0.3720
   38CHL1   H1B 3964   2.477   2.044   5.786  0.0493  0.4303 -0.3687
   38CHL1    C2 3965   2.443   1.969   5.986  0.0567  0.3888  0.2974
   38CHL1   H2A 3966   2.542   1.999   6.025 -0.0885 -0.8318  1.6756
   38CHL1   H2B 3967   2.420   1.869   6.028 -0.0259  0.2822  0.0020
   38CHL1   C20 3968   2.154   1.883   5.075 -0.6788 -0.0615  0.9097
   38CHL1   H20 3969   2.079   1.801   5.077 -0.5770 -0.1602  0.7762
   38CHL1   C21 3970   2.290   1.812   5.055  0.1931 -0.2148  0.3565
   38CHL1  H21A 3971   2.283   1.724   4.987 -1.1066 -0.6082  0.9811
   38CHL1  H21B 3972   2.322   1.773   5.154 -0.3177 -2.6852 -0.3610
   38CHL1  H21C 3973   2.363   1.890   5.024  0.0778  0.4152  1.6141
   38CHL1   C22 3974   2.122   1.963   4.944  0.3012 -0.4017 -0.1630
   38CHL1  H22A 3975   2.015   1.987   4.955  0.1803 -0.8757 -0.2618
   38CHL1  H22B 3976   2.184   2.055   4.941 -0.1112 -0.1350 -0.4526
   38CHL1   C23 3977   2.103   1.881   4.813  0.1184  0.1200  1.0317
   38CHL1  H23A 3978   2.202   1.841   4.781 -0.2467 -0.4432  0.5969
   38CHL1  H23B 3979   2.037   1.796   4.841  1.4579 -1.9521 -1.6634
   38CHL1   C24 3980   2.029   1.965   4.712  0.1255  0.1008 -0.3850
   38CHL1  H24A 3981   1.926   1.980   4.750  0.9903  0.6135  1.9249
   38CHL1  H24B 3982   2.091   2.057   4.706 -0.4505  0.6784  1.6856
   38CHL1   C25 3983   2.015   1.911   4.571 -0.1221 -0.4207  0.3917
   38CHL1   H25 3984   2.109   1.889   4.516  0.2373  0.4981  0.6223
   38CHL1   C26 3985   1.929   1.791   4.576 -0.4573 -0.3090 -0.4985
   38CHL1  H26A 3986   1.973   1.713   4.642 -0.3789 -0.3500 -0.5985
   38CHL1  H26B 3987   1.826   1.815   4.608 -0.4567  0.6241 -1.1487
   38CHL1  H26C 3988   1.919   1.762   4.469  1.8988 -2.4111 -0.2622
   38CHL1   C27 3989   1.952   2.017   4.477  0.4881 -0.0305 -0.5563
   38CHL1  H27A 3990   2.027   2.097   4.458 -0.0058  0.5303 -0.1816
   38CHL1  H27B 3991   1.916   1.959   4.389 -3.6330 -0.7881  1.4205
   38CHL1  H27C 3992   1.870   2.061   4.537  1.0729 -0.1043  0.3172
   39CHL1    C3 3993   1.981   0.075   6.252 -0.0322 -0.1651 -1.0560
   39CHL1    H3 3994   1.873   0.050   6.237 -0.0849  0.1413 -1.2062
   39CHL1    O3 3995   2.014   0.064   6.391 -0.0051  0.0113  0.3772
   39CHL1   H3' 3996   1.990  -0.027   6.409  0.8376 -0.3168 -0.0565
   39CHL1    C4 3997   2.071  -0.018   6.173 -0.0892 -0.1932  0.6398
   39CHL1   H4A 3998   2.175   0.012   6.201 -0.5178  1.4255  0.5973
   39CHL1   H4B 3999   2.055  -0.124   6.203  0.4978 -0.3337  0.4689
   39CHL1    C5 4000   2.041   0.006   6.030  0.0638 -0.5167  0.0209
   39CHL1    C6 4001   2.018  -0.093   5.940  0.5243 -0.2244 -0.2361
   39CHL1    H6 4002   2.024  -0.200   5.963 -0.5577 -0.9158 -2.8052
   39CHL1    C7 4003   2.011  -0.073   5.794  0.0069  0.0832 -0.3009
   39CHL1   H7A 4004   2.068  -0.159   5.751  0.7483  0.3380  0.1497
   39CHL1   H7B 4005   1.905  -0.094   5.766 -0.0723 -1.0972  0.7690
   39CHL1    C8 4006   2.049   0.070   5.742  0.5123 -0.7241 -0.4971
   39CHL1    H8 4007   2.160   0.070   5.738  0.6629  2.4068  0.7982
   39CHL1   C14 4008   1.989   0.089   5.605  0.1848 -0.1330  0.4579
   39CHL1   H14 4009   1.878   0.104   5.609  0.3136  1.9987 -1.6848
   39CHL1   C15 4010   2.028  -0.022   5.497 -0.4513  0.3515 -0.7507
   39CHL1  H15A 4011   2.136  -0.041   5.514 -0.3598 -0.7152 -2.3326
   39CHL1  H15B 4012   1.964  -0.113   5.503  0.0565  0.0250 -0.1093
   39CHL1   C16 4013   2.006   0.058   5.361  0.6210  0.1424  0.5929
   39CHL1  H16A 4014   2.099   0.047   5.300  0.6322  2.2873  0.1385
   39CHL1  H16B 4015   1.930  -0.007   5.314  3.2474 -2.6574 -0.1444
   39CHL1   C17 4016   1.970   0.203   5.393  0.3501  0.3332 -0.6811
   39CHL1   H17 4017   1.860   0.202   5.408  0.3069  2.7195 -0.5531
   39CHL1   C13 4018   2.025   0.225   5.534  0.1731 -0.3673 -0.3503
   39CHL1   C18 4019   2.183   0.236   5.517  0.7127 -0.0024 -0.2258
   39CHL1  H18A 4020   2.239   0.235   5.613 -0.6212 -1.6631  0.5683
   39CHL1  H18B 4021   2.231   0.171   5.440  1.9650 -0.4966  0.9401
   39CHL1  H18C 4022   2.194   0.338   5.472  2.4121 -0.7538 -1.6532
   39CHL1   C12 4023   1.964   0.338   5.630 -0.4311  0.0954  0.3626
   39CHL1  H12A 4024   1.991   0.443   5.605  3.1536 -0.3289  1.8473
   39CHL1  H12B 4025   1.854   0.327   5.633 -0.8373  0.4513 -4.4678
   39CHL1   C11 4026   2.017   0.325   5.775  0.0356  0.6904 -0.3600
   39CHL1  H11A 4027   2.125   0.351   5.771  0.0694  0.4384 -1.1306
   39CHL1  H11B 4028   1.990   0.403   5.850  2.8823  2.0786 -0.6181
   39CHL1    C9 4029   1.999   0.184   5.834 -0.0887  0.5053 -0.5662
   39CHL1    H9 4030   1.891   0.163   5.837  0.2971 -2.1212 -2.3534
   39CHL1   C10 4031   2.047   0.156   5.983 -0.4165 -0.2545  0.1704
   39CHL1   C19 4032   2.202   0.199   5.983 -0.0458  0.1106 -0.3112
   39CHL1  H19A 4033   2.255   0.174   6.077 -2.1747 -0.9801  0.6608
   39CHL1  H19B 4034   2.246   0.131   5.906 -0.6281  1.0336 -1.4897
   39CHL1  H19C 4035   2.211   0.309   5.970 -3.0609  1.0449  3.4863
   39CHL1    C1 4036   1.965   0.249   6.080  0.2204  0.2903 -0.0631
   39CHL1   H1A 4037   1.983   0.356   6.057  1.0554  0.9442  3.1280
   39CHL1   H1B 4038   1.857   0.228   6.063  0.4512 -2.2202  1.1559
   39CHL1    C2 4039   2.005   0.219   6.220 -0.5135  0.6184 -0.2547
   39CHL1   H2A 4040   1.943   0.288   6.281 -0.0038  0.5582  0.3427
   39CHL1   H2B 4041   2.112   0.241   6.241 -0.8474  1.6106  0.5123
   39CHL1   C20 4042   2.002   0.296   5.279  0.1373  0.9773 -0.0452
   39CHL1   H20 4043   2.104   0.336   5.293  1.1739 -1.8245  1.2127
   39CHL1   C21 4044   1.903   0.416   5.300 -0.1518 -1.1278  0.3194
   39CHL1  H21A 4045   1.932   0.473   5.391 -1.5970  1.8643 -0.9421
   39CHL1  H21B 4046   1.803   0.370   5.282 -0.9018  1.5630 -3.9696
   39CHL1  H21C 4047   1.911   0.488   5.215 -4.2207 -1.1875 -0.3052
   39CHL1   C22 4048   2.001   0.241   5.136 -1.3969  0.0540  0.0616
   39CHL1  H22A 4049   2.052   0.143   5.123  1.3871  1.1852  1.6308
   39CHL1  H22B 4050   1.897   0.208   5.114 -1.4919 -1.1588  2.1083
   39CHL1   C23 4051   2.049   0.334   5.034 -0.8286 -0.4128  0.0815
   39CHL1  H23A 4052   1.982   0.422   5.032  0.2294  0.4154  0.2448
   39CHL1  H23B 4053   2.148   0.374   5.061 -0.0667 -1.7613 -0.5933
   39CHL1   C24 4054   2.044   0.286   4.890 -0.0217 -0.9048  0.0117
   39CHL1  H24A 4055   2.129   0.220   4.859 -1.1363 -2.3016 -0.2008
   39CHL1  H24B 4056   1.947   0.234   4.874  0.4431 -1.9015  0.3342
   39CHL1   C25 4057   2.043   0.397   4.780  0.1568 -0.7026  0.6745
   39CHL1   H25 4058   1.949   0.453   4.802  0.1109 -0.5050 -0.0044
   39CHL1   C26 4059   2.162   0.492   4.805 -0.1742  0.0749 -0.4391
   39CHL1  H26A 4060   2.170   0.531   4.909 -1.5155  0.9105 -0.6297
   39CHL1  H26B 4061   2.253   0.437   4.770 -1.4259 -2.0988 -0.4613
   39CHL1  H26C 4062   2.150   0.580   4.740  2.8867  0.2537 -0.9211
   39CHL1   C27 4063   2.037   0.339   4.639  0.1175  0.6789 -0.1209
   39CHL1  H27A 4064   2.009   0.411   4.558 -4.1906 -1.7374 -1.1249
   39CHL1  H27B 4065   2.136   0.297   4.611  0.8832  1.7852  0.8207
   39CHL1  H27C 4066   1.961   0.258   4.636 -2.1896  2.7364 -1.0846
   40CHL1    C3 4067   5.350   0.553   5.940 -0.2865  0.5212 -0.3354
   40CHL1    H3 4068   5.275   0.631   5.915  1.2123  1.7785 -1.1354
   40CHL1    O3 4069   5.336   0.506   6.071 -0.1907  0.0323  0.2356
   40CHL1   H3' 4070   5.372   0.576   6.126 -0.8307 -0.5573  1.4563
   40CHL1    C4 4071   5.333   0.432   5.859 -0.0981 -0.2629  0.5916
   40CHL1   H4A 4072   5.415   0.360   5.880 -0.3325 -0.7536 -0.1375
   40CHL1   H4B 4073   5.234   0.392   5.889 -0.8064  2.0056  1.4499
   40CHL1    C5 4074   5.345   0.459   5.710  0.4500 -0.1772  0.0630
   40CHL1    C6 4075   5.248   0.424   5.621  0.4942  0.3309  0.0847
   40CHL1    H6 4076   5.158   0.374   5.659  0.4957  0.4450  0.2414
   40CHL1    C7 4077   5.260   0.445   5.470 -0.6382 -0.0945  0.1928
   40CHL1   H7A 4078   5.245   0.347   5.420 -3.5513 -0.8868  2.3452
   40CHL1   H7B 4079   5.188   0.518   5.429  1.1350  0.5496 -1.9478
   40CHL1    C8 4080   5.402   0.501   5.416 -0.0626  0.1968 -0.0400
   40CHL1    H8 4081   5.463   0.409   5.410  0.7990  0.7041  0.6955
   40CHL1   C14 4082   5.392   0.564   5.280  0.4873  0.5015 -0.1632
   40CHL1   H14 4083   5.321   0.648   5.286  0.9690  0.8995  0.0514
   40CHL1   C15 4084   5.333   0.478   5.176 -0.4019 -1.1066 -0.1256
   40CHL1  H15A 4085   5.363   0.372   5.192 -1.3500 -1.3756 -0.0437
   40CHL1  H15B 4086   5.223   0.463   5.186 -0.8576  1.6356 -0.3973
   40CHL1   C16 4087   5.381   0.541   5.042 -0.6721 -1.0100  0.6986
   40CHL1  H16A 4088   5.414   0.457   4.977  0.7740 -0.8002  1.1209
   40CHL1  H16B 4089   5.294   0.586   4.990  0.5878  0.8809  0.1390
   40CHL1   C17 4090   5.486   0.652   5.080 -0.6261 -0.0429  0.3432
   40CHL1   H17 4091   5.433   0.750   5.084 -1.5363 -0.4009 -1.6957
   40CHL1   C13 4092   5.525   0.619   5.227 -0.2207  0.1670 -0.4765
   40CHL1   C18 4093   5.632   0.499   5.222 -0.1647 -0.0654 -0.1323
   40CHL1  H18A 4094   5.656   0.472   5.327  1.7444  3.1838  0.3876
   40CHL1  H18B 4095   5.578   0.416   5.171  0.2676  0.1986 -1.0532
   40CHL1  H18C 4096   5.724   0.533   5.170  0.3265 -0.9393  0.1520
   40CHL1   C12 4097   5.566   0.723   5.325  0.2038 -0.4999 -0.0931
   40CHL1  H12A 4098   5.660   0.763   5.280  0.5760 -1.0689  0.1718
   40CHL1  H12B 4099   5.491   0.804   5.315  0.3622 -0.1857  1.1094
   40CHL1   C11 4100   5.576   0.680   5.466 -0.7253 -0.1585  0.7744
   40CHL1  H11A 4101   5.659   0.605   5.468 -0.6457 -0.1648 -0.8425
   40CHL1  H11B 4102   5.607   0.766   5.529 -1.2097  0.3530  0.3261
   40CHL1    C9 4103   5.450   0.607   5.521  0.4663  0.4926 -0.5393
   40CHL1    H9 4104   5.371   0.684   5.534 -0.9539 -1.2765  2.3870
   40CHL1   C10 4105   5.467   0.545   5.663  0.3634 -0.8744  0.6468
   40CHL1   C19 4106   5.584   0.449   5.671 -0.0110  0.7394 -0.4990
   40CHL1  H19A 4107   5.599   0.391   5.765  0.1361 -1.9607 -2.0708
   40CHL1  H19B 4108   5.574   0.375   5.588 -1.6790  1.7319 -1.2252
   40CHL1  H19C 4109   5.685   0.493   5.655  0.5699 -0.5749 -0.6313
   40CHL1    C1 4110   5.494   0.672   5.766  0.1449  1.0640  0.6202
   40CHL1   H1A 4111   5.594   0.717   5.749 -0.0503  1.0200 -0.7781
   40CHL1   H1B 4112   5.415   0.749   5.756 -0.0715  1.2120  2.9171
   40CHL1    C2 4113   5.485   0.626   5.916 -0.0755 -0.6087  0.5904
   40CHL1   H2A 4114   5.480   0.715   5.983 -1.3106 -0.6487  0.5600
   40CHL1   H2B 4115   5.569   0.556   5.937 -0.8533 -1.7725 -0.0858
   40CHL1   C20 4116   5.593   0.685   4.970 -0.7761 -0.5298 -0.2204
   40CHL1   H20 4117   5.670   0.606   4.979 -1.0239 -0.5278  2.8408
   40CHL1   C21 4118   5.658   0.817   5.023 -0.0119 -0.2649  0.9064
   40CHL1  H21A 4119   5.747   0.790   5.084 -0.1393 -0.1493  1.1464
   40CHL1  H21B 4120   5.582   0.884   5.070 -0.8671 -0.1116 -0.6348
   40CHL1  H21C 4121   5.693   0.872   4.933  0.4882 -0.9994  0.6467
   40CHL1   C22 4122   5.540   0.703   4.823  0.0837  0.4522  0.6683
   40CHL1  H22A 4123   5.453   0.635   4.809 -0.4115  0.7982  1.9210
   40CHL1  H22B 4124   5.502   0.806   4.811  1.3367  0.9978  1.2373
   40CHL1   C23 4125   5.638   0.684   4.708 -0.7284 -0.0594  0.1190
   40CHL1  H23A 4126   5.706   0.770   4.691  1.1447 -1.6398 -0.7878
   40CHL1  H23B 4127   5.709   0.604   4.738  0.3782  1.4870  1.8606
   40CHL1   C24 4128   5.557   0.650   4.583 -0.0849  1.3792  0.9241
   40CHL1  H24A 4129   5.505   0.558   4.618 -0.6669  0.4409 -2.1115
   40CHL1  H24B 4130   5.503   0.740   4.549  1.2631  1.8768  0.0208
   40CHL1   C25 4131   5.637   0.601   4.461  0.1850  0.1643 -0.5555
   40CHL1   H25 4132   5.707   0.523   4.497 -1.0583 -0.0875  1.4493
   40CHL1   C26 4133   5.553   0.526   4.360  0.1373  0.7280  0.3464
   40CHL1  H26A 4134   5.621   0.457   4.305 -1.0267 -0.4801  0.3632
   40CHL1  H26B 4135   5.486   0.457   4.417  1.4347 -0.6414  0.2901
   40CHL1  H26C 4136   5.499   0.589   4.287  1.6694  1.4391 -0.2271
   40CHL1   C27 4137   5.722   0.713   4.398  0.0839  0.9217  0.5895
   40CHL1  H27A 4138   5.803   0.678   4.330 -0.4004  0.5556  0.1971
   40CHL1  H27B 4139   5.654   0.775   4.337  1.9845  0.7875 -1.8148
   40CHL1  H27C 4140   5.765   0.781   4.474 -0.2113 -1.2110  2.7936
   41CHL1    C3 4141   0.126   6.533   6.078 -0.1374  0.4345  0.0853
   41CHL1    H3 4142   0.070   6.439   6.055  0.2913  0.6957 -2.2759
   41CHL1    O3 4143   0.176   6.546   6.211  0.7801  0.2652 -0.8652
   41CHL1   H3' 4144   0.214   6.634   6.213 -0.5969  0.9217  2.2205
   41CHL1    C4 4145   0.252   6.531   5.982 -0.6037 -0.1287  0.6370
   41CHL1   H4A 4146   0.311   6.621   6.007  1.0570 -1.1755  0.6225
   41CHL1   H4B 4147   0.320   6.443   5.990 -0.4164 -0.0637 -0.1985
   41CHL1    C5 4148   0.210   6.539   5.833 -0.3902  0.0255  0.8712
   41CHL1    C6 4149   0.253   6.444   5.744  0.8086 -0.1899 -0.0727
   41CHL1    H6 4150   0.293   6.351   5.786 -0.7223 -0.1098  1.7179
   41CHL1    C7 4151   0.220   6.445   5.599  0.2960 -0.2360 -0.4232
   41CHL1   H7A 4152   0.309   6.406   5.545  2.0777  2.3152  0.4688
   41CHL1   H7B 4153   0.128   6.385   5.584 -0.6495  0.2504  2.6666
   41CHL1    C8 4154   0.178   6.588   5.551  0.0060 -0.6727 -0.3100
   41CHL1    H8 4155   0.272   6.648   5.552  0.1661 -0.9217 -0.2377
   41CHL1   C14 4156   0.116   6.575   5.411 -0.4295  0.5257 -0.2809
   41CHL1   H14 4157   0.037   6.499   5.425  0.3730 -0.2682  0.0144
   41CHL1   C15 4158   0.204   6.511   5.301 -0.3095  0.5600 -0.5944
   41CHL1  H15A 4159   0.304   6.558   5.308 -0.6453  1.1270  0.8281
   41CHL1  H15B 4160   0.216   6.402   5.314  0.2554  0.7878  1.0911
   41CHL1   C16 4161   0.126   6.539   5.173  0.1330 -0.4735  0.4394
   41CHL1  H16A 4162   0.198   6.590   5.106 -2.8563  0.5601 -2.2144
   41CHL1  H16B 4163   0.092   6.449   5.117 -1.6207 -1.1836  2.4960
   41CHL1   C17 4164   0.009   6.633   5.215 -0.2156  0.1375 -0.0847
   41CHL1   H17 4165  -0.082   6.569   5.226 -0.7637  0.5511 -1.8422
   41CHL1   C13 4166   0.058   6.701   5.351 -0.3193  0.1329 -0.1716
   41CHL1   C18 4167   0.162   6.811   5.321 -0.3733  0.4797  0.8415
   41CHL1  H18A 4168   0.204   6.848   5.416  0.7243  0.1942  0.4854
   41CHL1  H18B 4169   0.243   6.781   5.252  1.6045  1.7061  2.5261
   41CHL1  H18C 4170   0.111   6.898   5.274 -0.6886  0.5895  1.3752
   41CHL1   C12 4171  -0.048   6.758   5.450  0.5212 -0.3725  0.0230
   41CHL1  H12A 4172  -0.079   6.858   5.413  1.5301  0.1536  0.5473
   41CHL1  H12B 4173  -0.121   6.676   5.467  1.3520 -1.1314  0.0232
   41CHL1   C11 4174   0.009   6.787   5.591 -0.0565  0.9501  0.1557
   41CHL1  H11A 4175   0.077   6.875   5.595  2.3427 -0.8357  0.8801
   41CHL1  H11B 4176  -0.075   6.800   5.663 -0.3649  2.1901 -0.3919
   41CHL1    C9 4177   0.078   6.654   5.650 -0.9815 -0.2582  0.8321
   41CHL1    H9 4178  -0.009   6.585   5.657 -0.6745 -0.8453 -0.7323
   41CHL1   C10 4179   0.129   6.661   5.792 -0.1324 -0.0221  0.0729
   41CHL1   C19 4180   0.219   6.787   5.810  0.5693  0.2670  0.0890
   41CHL1  H19A 4181   0.164   6.883   5.812 -1.0008 -0.5987 -0.0662
   41CHL1  H19B 4182   0.284   6.795   5.900 -1.6035 -0.5013  1.8033
   41CHL1  H19C 4183   0.284   6.799   5.721 -0.5280 -0.2498 -0.8045
   41CHL1    C1 4184   0.011   6.662   5.890  0.0715  0.3255  0.5938
   41CHL1   H1A 4185  -0.060   6.744   5.866 -0.8579 -0.4530  0.6258
   41CHL1   H1B 4186  -0.050   6.570   5.879 -0.4320  0.6040  1.0585
   41CHL1    C2 4187   0.042   6.649   6.044 -0.2746  0.2526  0.2412
   41CHL1   H2A 4188  -0.051   6.650   6.105  0.7201  2.6088  1.8648
   41CHL1   H2B 4189   0.095   6.743   6.070 -0.0509  0.6656 -1.5501
   41CHL1   C20 4190  -0.015   6.731   5.102  0.3943 -0.1180  0.1006
   41CHL1   H20 4191   0.086   6.769   5.074 -0.4542  1.3810 -1.0535
   41CHL1   C21 4192  -0.113   6.856   5.140 -0.0108  0.8340 -0.2879
   41CHL1  H21A 4193  -0.138   6.922   5.054  1.2468  1.2409 -0.3622
   41CHL1  H21B 4194  -0.077   6.919   5.224 -0.7152  0.9165 -0.0412
   41CHL1  H21C 4195  -0.214   6.819   5.166  0.5951 -2.7322 -2.3729
   41CHL1   C22 4196  -0.070   6.664   4.969  0.7105  0.0497 -0.0824
   41CHL1  H22A 4197   0.007   6.588   4.943  1.4144 -0.2000  2.4732
   41CHL1  H22B 4198  -0.161   6.602   4.987  2.0881 -2.0441  0.1441
   41CHL1   C23 4199  -0.085   6.753   4.842 -0.5629 -0.0701 -0.4147
   41CHL1  H23A 4200  -0.168   6.822   4.869  1.6510  2.2763  0.8304
   41CHL1  H23B 4201   0.011   6.806   4.828  0.3598 -1.3260  0.8703
   41CHL1   C24 4202  -0.124   6.677   4.713 -0.1838 -0.3992  1.4508
   41CHL1  H24A 4203  -0.043   6.611   4.674  0.5888 -0.2858  2.8127
   41CHL1  H24B 4204  -0.205   6.609   4.747 -2.5257  1.5049 -0.0543
   41CHL1   C25 4205  -0.170   6.763   4.594  0.2573 -0.3406  0.2279
   41CHL1   H25 4206  -0.278   6.788   4.609  0.2845 -0.0528 -0.0334
   41CHL1   C26 4207  -0.082   6.890   4.587  0.0715 -0.2565  0.4430
   41CHL1  H26A 4208  -0.118   6.945   4.497 -0.8839 -2.2518 -0.4570
   41CHL1  H26B 4209  -0.092   6.957   4.675 -0.9240 -0.4193  0.4681
   41CHL1  H26C 4210   0.023   6.856   4.575  0.1781  0.9179 -3.5503
   41CHL1   C27 4211  -0.161   6.689   4.463 -0.1119 -0.1788  0.6400
   41CHL1  H27A 4212  -0.058   6.647   4.452 -0.4222 -1.4533  2.2156
   41CHL1  H27B 4213  -0.229   6.604   4.440 -1.1491  0.5591  0.9397
   41CHL1  H27C 4214  -0.157   6.756   4.374 -0.2620 -1.0496 -0.0451
   42CHL1    C3 4215   0.042   0.798   6.052 -0.0196 -0.3476  0.5879
   42CHL1    H3 4216   0.089   0.700   6.030 -1.2568 -0.6583 -0.8132
   42CHL1    O3 4217   0.026   0.803   6.191 -0.4041 -0.4564  0.1583
   42CHL1   H3' 4218  -0.003   0.890   6.220 -0.9554 -1.3108  2.3592
   42CHL1    C4 4219   0.125   0.919   5.995 -0.1784 -0.6943 -0.4417
   42CHL1   H4A 4220   0.064   1.009   6.019 -0.9926 -1.5098  0.6270
   42CHL1   H4B 4221   0.219   0.934   6.052 -1.4085  2.4815  0.9685
   42CHL1    C5 4222   0.158   0.924   5.849  0.3415  0.2265 -0.2605
   42CHL1    C6 4223   0.281   0.936   5.795 -0.0909  0.6597 -0.2263
   42CHL1    H6 4224   0.356   0.923   5.874 -0.4186  0.4997  0.0631
   42CHL1    C7 4225   0.314   0.920   5.653 -0.6234  0.6208  0.3745
   42CHL1   H7A 4226   0.379   1.005   5.622  0.5990 -0.6542 -0.6822
   42CHL1   H7B 4227   0.364   0.822   5.641 -0.8451  0.5837 -0.2455
   42CHL1    C8 4228   0.187   0.931   5.559  0.1898 -0.4141 -0.1168
   42CHL1    H8 4229   0.162   1.039   5.555  0.1011 -0.3377  1.8175
   42CHL1   C14 4230   0.222   0.870   5.423 -0.1465 -0.0339  0.1820
   42CHL1   H14 4231   0.236   0.761   5.439  0.9803 -0.3288 -2.3167
   42CHL1   C15 4232   0.341   0.923   5.351 -0.3437  0.8661 -0.4436
   42CHL1  H15A 4233   0.335   1.034   5.355  0.5462  0.8723  1.7260
   42CHL1  H15B 4234   0.438   0.886   5.391 -0.8769 -0.6694 -0.5351
   42CHL1   C16 4235   0.314   0.885   5.205 -0.2196  0.6442  0.4333
   42CHL1  H16A 4236   0.323   0.977   5.143 -1.9444 -1.2007 -2.8439
   42CHL1  H16B 4237   0.380   0.804   5.168  1.1790  0.8884  2.2574
   42CHL1   C17 4238   0.170   0.839   5.195  0.0995  0.1434  0.3693
   42CHL1   H17 4239   0.187   0.730   5.209  0.4979 -0.1314 -1.8037
   42CHL1   C13 4240   0.106   0.894   5.329  0.0052  0.6630  0.1697
   42CHL1   C18 4241   0.068   1.039   5.312  0.0193 -0.1453  0.3120
   42CHL1  H18A 4242   0.140   1.084   5.241  0.6757 -1.5248  0.0654
   42CHL1  H18B 4243  -0.029   1.042   5.258 -0.0497 -0.7192  0.3874
   42CHL1  H18C 4244   0.055   1.100   5.404 -3.8308  0.8116 -0.6684
   42CHL1   C12 4245  -0.012   0.808   5.382 -0.2548  0.2352  0.2054
   42CHL1  H12A 4246  -0.094   0.809   5.307  1.9409 -1.7882 -2.4494
   42CHL1  H12B 4247   0.022   0.702   5.376  0.0376  0.3770 -0.8185
   42CHL1   C11 4248  -0.053   0.853   5.520 -0.4822 -0.6871 -0.2178
   42CHL1  H11A 4249  -0.088   0.957   5.507 -1.9187 -0.4402  3.9952
   42CHL1  H11B 4250  -0.139   0.791   5.552  0.1020 -1.7865 -0.7016
   42CHL1    C9 4251   0.065   0.854   5.621 -0.9082 -0.4076 -0.4622
   42CHL1    H9 4252   0.112   0.754   5.638  0.6188  0.3736  0.1124
   42CHL1   C10 4253   0.030   0.903   5.762  0.0905  0.0425 -0.2419
   42CHL1   C19 4254  -0.040   1.040   5.750  0.1740  0.4029 -0.2936
   42CHL1  H19A 4255  -0.123   1.037   5.677 -0.8400  0.1560  0.8316
   42CHL1  H19B 4256  -0.089   1.071   5.845 -2.5376 -0.6597 -1.2548
   42CHL1  H19C 4257   0.028   1.116   5.706  0.1438  0.2610 -0.5869
   42CHL1    C1 4258  -0.078   0.802   5.823 -0.4337  0.0319 -0.0394
   42CHL1   H1A 4259  -0.178   0.807   5.774  0.4440  1.6226 -1.8043
   42CHL1   H1B 4260  -0.038   0.701   5.801 -0.1015  0.5371 -1.9433
   42CHL1    C2 4261  -0.096   0.808   5.983 -0.5897 -0.0754 -0.5271
   42CHL1   H2A 4262  -0.164   0.731   6.025 -0.3674  0.7630  1.4803
   42CHL1   H2B 4263  -0.132   0.909   6.015  1.5650  0.6077 -0.1324
   42CHL1   C20 4264   0.108   0.855   5.057  0.8487  0.3187  0.5191
   42CHL1   H20 4265   0.088   0.962   5.033  3.4251  0.7239 -0.0968
   42CHL1   C21 4266  -0.023   0.770   5.043 -0.1455  0.2608 -0.1198
   42CHL1  H21A 4267  -0.064   0.776   4.940  0.1495  1.0943 -0.2032
   42CHL1  H21B 4268  -0.112   0.795   5.104 -0.3044  0.8572 -0.5842
   42CHL1  H21C 4269  -0.001   0.664   5.065 -0.8723 -0.0710 -0.9440
   42CHL1   C22 4270   0.207   0.801   4.942 -0.0178  0.2482 -0.7258
   42CHL1  H22A 4271   0.302   0.858   4.947  1.3695 -2.0253  1.3810
   42CHL1  H22B 4272   0.227   0.694   4.968  0.8312 -0.0793 -2.5946
   42CHL1   C23 4273   0.163   0.815   4.800  0.9630  0.3468 -0.6030
   42CHL1  H23A 4274   0.073   0.759   4.768  2.0833 -1.0109 -1.4828
   42CHL1  H23B 4275   0.141   0.923   4.782  2.2624  0.8773  0.7991
   42CHL1   C24 4276   0.273   0.762   4.710 -0.3013 -0.1007 -0.5597
   42CHL1  H24A 4277   0.361   0.818   4.749 -0.7365 -1.1515  2.1897
   42CHL1  H24B 4278   0.283   0.653   4.728  1.2427  0.3797  2.0735
   42CHL1   C25 4279   0.248   0.795   4.554  0.0046 -0.8565  0.1819
   42CHL1   H25 4280   0.165   0.729   4.520 -3.4851  2.2607  1.9450
   42CHL1   C26 4281   0.223   0.941   4.536 -0.2013 -0.2126 -0.9196
   42CHL1  H26A 4282   0.128   0.979   4.578  1.9655  4.1012  0.7482
   42CHL1  H26B 4283   0.309   0.991   4.586 -0.4379 -0.3706 -0.3489
   42CHL1  H26C 4284   0.231   0.971   4.429  1.4216  0.8364 -0.5436
   42CHL1   C27 4285   0.376   0.762   4.470 -0.5188 -0.2425  0.0836
   42CHL1  H27A 4286   0.360   0.782   4.362  2.3853  2.4858  0.0216
   42CHL1  H27B 4287   0.468   0.819   4.493 -0.4383 -0.5069  0.4248
   42CHL1  H27C 4288   0.405   0.655   4.480 -1.7537 -0.4802  1.4408
   43CHL1    C3 4289   6.769   2.685   5.640 -0.3329  0.5949  0.2203
   43CHL1    H3 4290   6.687   2.760   5.641 -0.7436  0.1519  0.1568
   43CHL1    O3 4291   6.799   2.653   5.779 -0.0726  0.8559 -0.0796
   43CHL1   H3' 4292   6.890   2.678   5.798  0.0581  1.5391 -1.4863
   43CHL1    C4 4293   6.737   2.561   5.560 -0.0729 -0.2636 -0.0637
   43CHL1   H4A 4294   6.809   2.477   5.558  0.4442  0.1965 -0.9519
   43CHL1   H4B 4295   6.647   2.515   5.608  0.8120 -0.6121  1.3197
   43CHL1    C5 4296   6.712   2.604   5.409  0.3511  0.6872  0.1237
   43CHL1    C6 4297   6.598   2.583   5.335 -0.0538  0.1781 -0.3192
   43CHL1    H6 4298   6.513   2.539   5.390  1.9977 -2.9140  0.6666
   43CHL1    C7 4299   6.585   2.619   5.187  0.0990 -0.2414 -0.1126
   43CHL1   H7A 4300   6.544   2.535   5.127 -0.7385  1.3678 -1.9122
   43CHL1   H7B 4301   6.516   2.706   5.194  0.2011 -0.2575  1.4284
   43CHL1    C8 4302   6.715   2.655   5.121 -0.0663  0.0511 -0.3368
   43CHL1    H8 4303   6.766   2.556   5.107  0.1851  0.1815 -0.3510
   43CHL1   C14 4304   6.689   2.727   4.987  0.5559  0.3688 -0.3249
   43CHL1   H14 4305   6.641   2.823   5.014 -1.4730 -0.2791 -1.4067
   43CHL1   C15 4306   6.600   2.662   4.881  0.2089 -1.0474 -1.0408
   43CHL1  H15A 4307   6.621   2.553   4.870 -2.0217 -1.6570  0.1297
   43CHL1  H15B 4308   6.491   2.651   4.896  0.3117 -2.3412 -1.0901
   43CHL1   C16 4309   6.635   2.730   4.753 -0.5736 -0.0763  0.1882
   43CHL1  H16A 4310   6.644   2.663   4.665  2.5146  1.6700 -0.9287
   43CHL1  H16B 4311   6.572   2.812   4.713 -1.9427 -0.6636  1.0332
   43CHL1   C17 4312   6.777   2.804   4.786  0.3176 -0.1037 -0.2397
   43CHL1   H17 4313   6.756   2.912   4.801  2.2246  0.6691 -2.4384
   43CHL1   C13 4314   6.821   2.739   4.917  0.0052 -0.8284  0.1338
   43CHL1   C18 4315   6.893   2.604   4.887 -0.3163  0.2033  0.2052
   43CHL1  H18A 4316   6.988   2.624   4.832  1.3810 -2.4341  1.9708
   43CHL1  H18B 4317   6.915   2.556   4.984  0.3362 -0.2480 -0.1594
   43CHL1  H18C 4318   6.835   2.533   4.825 -0.9914  0.6441  0.3207
   43CHL1   C12 4319   6.915   2.836   4.990 -0.3408  0.1500  0.0039
   43CHL1  H12A 4320   7.012   2.850   4.936  0.8471 -2.0222  1.4555
   43CHL1  H12B 4321   6.862   2.933   5.003  2.6000  2.0212 -0.9082
   43CHL1   C11 4322   6.945   2.776   5.127 -0.5889  0.1332  0.2391
   43CHL1  H11A 4323   7.028   2.703   5.129 -1.1274 -0.5537 -1.3629
   43CHL1  H11B 4324   6.986   2.855   5.194  0.4533 -0.6571  0.5598
   43CHL1    C9 4325   6.814   2.735   5.204 -0.2891  0.4064  0.4957
   43CHL1    H9 4326   6.767   2.834   5.222 -1.7991 -0.0460 -0.6987
   43CHL1   C10 4327   6.838   2.670   5.350 -0.5037 -0.3330  0.1582
   43CHL1   C19 4328   6.955   2.568   5.340  0.0319  0.7674 -0.4744
   43CHL1  H19A 4329   6.927   2.485   5.271 -0.3481  1.4573 -1.1617
   43CHL1  H19B 4330   7.055   2.610   5.317  0.7001  0.5949  1.8424
   43CHL1  H19C 4331   6.966   2.512   5.436  0.5707 -0.8976 -1.4675
   43CHL1    C1 4332   6.888   2.786   5.440 -0.3665 -0.1414  0.4694
   43CHL1   H1A 4333   6.986   2.830   5.412  0.7544 -0.8301  3.0542
   43CHL1   H1B 4334   6.814   2.869   5.440 -0.6883 -0.4293  0.3004
   43CHL1    C2 4335   6.896   2.751   5.592 -0.3000 -0.4743 -0.0601
   43CHL1   H2A 4336   6.916   2.839   5.657 -2.5110  0.5410 -0.6695
   43CHL1   H2B 4337   6.969   2.671   5.615  0.9799  0.4165 -0.8223
   43CHL1   C20 4338   6.866   2.809   4.658 -0.0576 -0.8331 -0.1764
   43CHL1   H20 4339   6.972   2.820   4.691  0.8309 -0.2290 -2.8896
   43CHL1   C21 4340   6.823   2.937   4.576  0.7306  0.7674  0.7580
   43CHL1  H21A 4341   6.714   2.928   4.561  1.1339 -1.9371 -1.3864
   43CHL1  H21B 4342   6.869   2.940   4.475  1.3916 -2.1545  0.8848
   43CHL1  H21C 4343   6.841   3.025   4.642 -0.7524 -0.5827  3.0940
   43CHL1   C22 4344   6.870   2.690   4.561 -0.0178 -0.2591 -0.8170
   43CHL1  H22A 4345   6.854   2.589   4.605  1.3019 -0.3258 -0.4439
   43CHL1  H22B 4346   6.790   2.701   4.485  1.8289 -3.1826 -3.4597
   43CHL1   C23 4347   7.006   2.688   4.482  0.5970  0.6373  0.1377
   43CHL1  H23A 4348   7.018   2.786   4.430 -0.2671 -0.3236 -2.0164
   43CHL1  H23B 4349   7.088   2.662   4.551 -0.0741 -2.1317  0.0263
   43CHL1   C24 4350   7.002   2.568   4.381 -0.1257 -0.7254  0.7584
   43CHL1  H24A 4351   6.949   2.491   4.441 -0.1689 -1.3364 -0.0502
   43CHL1  H24B 4352   6.936   2.598   4.297 -0.2115  1.2695  1.4827
   43CHL1   C25 4353   7.148   2.526   4.339  0.3376  0.3799  0.1267
   43CHL1   H25 4354   7.200   2.502   4.434  0.0474  2.6820  0.9184
   43CHL1   C26 4355   7.155   2.406   4.242  0.8429 -0.3489 -0.2294
   43CHL1  H26A 4356   7.128   2.441   4.140  2.0922 -1.0066 -0.8087
   43CHL1  H26B 4357   7.261   2.377   4.223  0.8563 -0.3062 -0.2215
   43CHL1  H26C 4358   7.098   2.321   4.284 -0.1298  0.2301 -0.3488
   43CHL1   C27 4359   7.223   2.636   4.266 -0.0257 -0.7048 -0.0786
   43CHL1  H27A 4360   7.165   2.690   4.188 -0.3293  0.2191  0.7616
   43CHL1  H27B 4361   7.249   2.714   4.341 -1.3890 -2.1518  2.0119
   43CHL1  H27C 4362   7.321   2.597   4.231  0.2363 -1.0987  1.0726
   44CHL1    C3 4363   0.153   4.918   6.017  0.1152 -0.5096 -0.9703
   44CHL1    H3 4364   0.205   5.014   5.996 -0.6097 -0.4384 -2.6403
   44CHL1    O3 4365   0.134   4.907   6.158  0.3550 -0.0940  0.6649
   44CHL1   H3' 4366   0.224   4.905   6.192  0.7658  1.1029 -0.2821
   44CHL1    C4 4367   0.018   4.916   5.949  0.6122 -0.4700  0.3993
   44CHL1   H4A 4368  -0.041   4.834   5.995  1.5196  0.2012  2.9133
   44CHL1   H4B 4369  -0.034   5.010   5.979 -1.2153 -1.1727 -0.4025
   44CHL1    C5 4370   0.024   4.915   5.798  0.1103 -0.4946  0.2276
   44CHL1    C6 4371  -0.029   5.018   5.724  0.4021 -0.2250  0.5861
   44CHL1    H6 4372  -0.082   5.101   5.772 -4.5673 -1.7423 -1.5760
   44CHL1    C7 4373  -0.025   5.020   5.577  0.2038 -0.6875 -0.3342
   44CHL1   H7A 4374  -0.125   5.045   5.535 -0.0375 -2.7562 -1.1538
   44CHL1   H7B 4375   0.041   5.097   5.533  0.9745 -1.0554  0.1628
   44CHL1    C8 4376   0.023   4.889   5.512  0.1761  0.7852  0.2072
   44CHL1    H8 4377  -0.058   4.814   5.509  0.5285  0.4271 -1.2442
   44CHL1   C14 4378   0.064   4.913   5.366  0.0375 -0.3067  0.0791
   44CHL1   H14 4379   0.146   4.987   5.364 -0.6281  0.4832  1.0840
   44CHL1   C15 4380  -0.048   4.973   5.274 -0.2883 -0.5431  0.1543
   44CHL1  H15A 4381  -0.130   4.907   5.309 -2.9076  2.0111 -0.7417
   44CHL1  H15B 4382  -0.066   5.081   5.294 -0.3985 -0.8912  2.1073
   44CHL1   C16 4383  -0.002   4.941   5.131 -0.3089 -0.1995  0.4715
   44CHL1  H16A 4384  -0.084   4.879   5.090  0.6615 -1.7069  0.7238
   44CHL1  H16B 4385   0.015   5.034   5.073  0.2454 -0.6641 -0.1406
   44CHL1   C17 4386   0.131   4.861   5.148 -0.1563  0.1960 -0.8090
   44CHL1   H17 4387   0.215   4.934   5.153  0.1530 -0.1495 -0.9321
   44CHL1   C13 4388   0.113   4.796   5.294  0.2410  0.0198  0.1177
   44CHL1   C18 4389   0.019   4.674   5.277 -0.4021  0.4016 -0.0946
   44CHL1  H18A 4390  -0.011   4.629   5.374  2.0745 -0.6540  0.2693
   44CHL1  H18B 4391  -0.080   4.706   5.237 -1.0834  0.0127  1.2335
   44CHL1  H18C 4392   0.059   4.591   5.215  0.1566  0.9871 -0.5313
   44CHL1   C12 4393   0.240   4.753   5.367  0.5990 -0.1867 -0.4091
   44CHL1  H12A 4394   0.278   4.661   5.318  0.1464  0.2969 -1.6955
   44CHL1  H12B 4395   0.319   4.830   5.355  1.3932  0.0490  4.3232
   44CHL1   C11 4396   0.219   4.715   5.515  0.1352 -0.1772  0.8083
   44CHL1  H11A 4397   0.144   4.634   5.524  1.1209 -0.9146  3.1612
   44CHL1  H11B 4398   0.321   4.696   5.555  0.4974 -0.0730 -0.0346
   44CHL1    C9 4399   0.151   4.839   5.589  0.5567 -0.0742  0.0677
   44CHL1    H9 4400   0.226   4.921   5.584 -0.0629  0.5840  1.1866
   44CHL1   C10 4401   0.107   4.804   5.732  0.2921 -0.4157  0.1213
   44CHL1   C19 4402   0.021   4.671   5.745 -0.0579 -0.6261  0.1469
   44CHL1  H19A 4403  -0.024   4.664   5.846  2.4672  0.1052  1.4018
   44CHL1  H19B 4404  -0.059   4.674   5.668  0.7212 -1.6678 -0.7290
   44CHL1  H19C 4405   0.090   4.586   5.727 -0.9654 -1.2643 -0.4542
   44CHL1    C1 4406   0.241   4.791   5.814  0.4577 -0.4245 -0.3942
   44CHL1   H1A 4407   0.298   4.701   5.783  1.5718 -0.1106  0.6368
   44CHL1   H1B 4408   0.308   4.870   5.775 -1.6619  1.0896 -1.1312
   44CHL1    C2 4409   0.230   4.801   5.971 -0.4764 -0.5684 -1.1517
   44CHL1   H2A 4410   0.331   4.794   6.016 -0.3273  0.0995 -1.3694
   44CHL1   H2B 4411   0.175   4.711   6.007  0.4278 -1.1511 -1.1876
   44CHL1   C20 4412   0.147   4.760   5.031  0.2685  0.3477  0.0348
   44CHL1   H20 4413   0.050   4.706   5.025  0.3575  0.1674  0.2155
   44CHL1   C21 4414   0.266   4.664   5.037 -0.4618 -0.5115  0.2046
   44CHL1  H21A 4415   0.254   4.573   5.100  0.5166 -0.8714 -0.1022
   44CHL1  H21B 4416   0.361   4.715   5.063  0.5447 -2.7041  1.1325
   44CHL1  H21C 4417   0.291   4.624   4.936 -1.9485  0.1622 -0.4608
   44CHL1   C22 4418   0.155   4.835   4.895 -0.3625 -0.0215  0.0403
   44CHL1  H22A 4419   0.136   4.753   4.823 -1.1825 -3.6705  3.9831
   44CHL1  H22B 4420   0.063   4.899   4.898 -0.3409  0.2002 -2.4504
   44CHL1   C23 4421   0.286   4.921   4.859  0.5714  0.0855 -0.7299
   44CHL1  H23A 4422   0.293   5.014   4.920  2.7387  0.0102 -0.8052
   44CHL1  H23B 4423   0.377   4.868   4.894 -1.3272 -1.3556  2.5837
   44CHL1   C24 4424   0.292   4.962   4.713 -0.1966 -0.6230 -0.0370
   44CHL1  H24A 4425   0.293   4.871   4.648  0.9867 -0.5356 -0.1512
   44CHL1  H24B 4426   0.206   5.025   4.681  0.3421  0.0893 -0.0963
   44CHL1   C25 4427   0.408   5.070   4.676  0.1799  0.4443 -0.5103
   44CHL1   H25 4428   0.384   5.161   4.734  0.5756  0.2608 -0.0505
   44CHL1   C26 4429   0.549   5.032   4.721 -0.4504  0.0094  0.0454
   44CHL1  H26A 4430   0.616   5.110   4.680 -1.5779  1.4838  0.8867
   44CHL1  H26B 4431   0.568   5.013   4.829  1.2221 -2.9396 -0.6650
   44CHL1  H26C 4432   0.591   4.950   4.660  1.4958 -0.0409  1.3572
   44CHL1   C27 4433   0.401   5.120   4.531 -0.9861  0.0713  0.0365
   44CHL1  H27A 4434   0.421   5.034   4.465 -1.7608 -1.4884  1.7435
   44CHL1  H27B 4435   0.305   5.168   4.502 -0.6275  0.0204 -1.2565
   44CHL1  H27C 4436   0.481   5.197   4.521 -0.4234 -0.2933  1.4384
   45CHL1    C3 4437   0.642   5.616   6.017 -1.2703 -0.1872  0.1328
   45CHL1    H3 4438   0.576   5.528   6.027  0.6584 -1.5433  1.6301
   45CHL1    O3 4439   0.674   5.658   6.147  0.3028  0.2669  0.0273
   45CHL1   H3' 4440   0.744   5.722   6.135  1.1145 -0.5923  0.0760
   45CHL1    C4 4441   0.774   5.574   5.949 -0.2622  0.0852  0.3372
   45CHL1   H4A 4442   0.851   5.650   5.974  1.3709 -1.3642 -0.0925
   45CHL1   H4B 4443   0.820   5.482   5.991  0.5952 -0.5903 -1.9190
   45CHL1    C5 4444   0.753   5.541   5.804 -0.1812 -0.9205  0.0683
   45CHL1    C6 4445   0.801   5.433   5.736 -0.5982 -0.5564 -0.3245
   45CHL1    H6 4446   0.859   5.353   5.785  2.1270  0.5797 -1.4764
   45CHL1    C7 4447   0.785   5.418   5.586  0.0162 -0.3420  0.2847
   45CHL1   H7A 4448   0.870   5.362   5.541 -0.3443 -0.1037 -0.7056
   45CHL1   H7B 4449   0.700   5.348   5.575  2.5997 -3.3888 -2.2446
   45CHL1    C8 4450   0.753   5.546   5.511 -0.2347 -1.2981  0.1045
   45CHL1    H8 4451   0.841   5.613   5.505 -2.0661  1.1883 -1.0400
   45CHL1   C14 4452   0.704   5.523   5.372  0.0968  0.6614  0.6140
   45CHL1   H14 4453   0.618   5.452   5.378  1.3402 -0.8089  1.7837
   45CHL1   C15 4454   0.804   5.441   5.289  1.0408  0.0111 -0.2053
   45CHL1  H15A 4455   0.910   5.474   5.293  1.1439  0.5287 -3.8913
   45CHL1  H15B 4456   0.800   5.334   5.319 -1.2362 -0.7907 -2.9468
   45CHL1   C16 4457   0.753   5.456   5.141  0.7881 -0.5881 -0.9545
   45CHL1  H16A 4458   0.840   5.491   5.083  0.4802  0.8830 -0.5541
   45CHL1  H16B 4459   0.708   5.365   5.094  0.2981 -0.5630 -0.5433
   45CHL1   C17 4460   0.647   5.571   5.143 -0.1828  0.6218 -0.4967
   45CHL1   H17 4461   0.546   5.530   5.165 -0.3356  0.5989 -1.2342
   45CHL1   C13 4462   0.668   5.642   5.280 -0.7994  0.3752 -0.8870
   45CHL1   C18 4463   0.784   5.742   5.269 -0.2398  0.2477 -0.0336
   45CHL1  H18A 4464   0.748   5.827   5.207  0.0603  0.8195  0.5590
   45CHL1  H18B 4465   0.818   5.788   5.364 -1.0847 -2.8513  1.8813
   45CHL1  H18C 4466   0.866   5.696   5.209 -0.4651  0.6534 -0.6678
   45CHL1   C12 4467   0.551   5.699   5.360 -0.0709  0.3301  0.3338
   45CHL1  H12A 4468   0.511   5.787   5.306  0.2579 -1.0117 -2.3045
   45CHL1  H12B 4469   0.478   5.616   5.371  0.0677  0.3304  1.3774
   45CHL1   C11 4470   0.582   5.740   5.500  0.3353  0.6511  0.3051
   45CHL1  H11A 4471   0.652   5.826   5.492  0.6140  0.8713  3.6116
   45CHL1  H11B 4472   0.487   5.783   5.537 -0.2442 -0.7702  0.5429
   45CHL1    C9 4473   0.641   5.620   5.581 -0.1399  0.1114 -0.0842
   45CHL1    H9 4474   0.559   5.545   5.584  0.1850 -0.3361 -1.5699
   45CHL1   C10 4475   0.673   5.651   5.726  0.3704 -0.5097  0.0493
   45CHL1   C19 4476   0.773   5.769   5.726  0.2466  0.4041  0.5112
   45CHL1  H19A 4477   0.863   5.746   5.664 -0.6185  0.3959 -0.7979
   45CHL1  H19B 4478   0.726   5.858   5.679  0.5985  0.3999  0.1486
   45CHL1  H19C 4479   0.811   5.801   5.825  1.9163  1.8355 -0.5224
   45CHL1    C1 4480   0.546   5.701   5.806 -0.6688  0.3745 -0.6853
   45CHL1   H1A 4481   0.513   5.796   5.760  0.1257  0.8273 -0.3418
   45CHL1   H1B 4482   0.466   5.625   5.794 -0.8302  0.3566  0.4041
   45CHL1    C2 4483   0.569   5.731   5.956  0.3687 -0.6560  0.1021
   45CHL1   H2A 4484   0.474   5.758   6.006  0.4907  0.3189 -0.1778
   45CHL1   H2B 4485   0.638   5.818   5.961 -0.3975 -0.0353  0.0500
   45CHL1   C20 4486   0.635   5.646   5.016  0.4069  0.6958  0.0093
   45CHL1   H20 4487   0.726   5.707   4.998 -0.1556  0.8487 -2.8756
   45CHL1   C21 4488   0.522   5.756   5.028  0.1012  0.0499  0.1794
   45CHL1  H21A 4489   0.501   5.803   4.929  2.5394 -0.5750 -0.7110
   45CHL1  H21B 4490   0.542   5.841   5.096 -2.3289  0.4479  0.5035
   45CHL1  H21C 4491   0.433   5.703   5.069 -0.0836 -0.6232 -1.0163
   45CHL1   C22 4492   0.607   5.546   4.901  0.2088 -0.2075 -0.1749
   45CHL1  H22A 4493   0.695   5.480   4.887  0.6950  0.5954 -1.0203
   45CHL1  H22B 4494   0.513   5.489   4.918  0.1874  0.2531  1.3668
   45CHL1   C23 4495   0.583   5.619   4.761 -0.1393  0.4961 -0.7724
   45CHL1  H23A 4496   0.577   5.533   4.690  2.0818 -0.0371 -0.3804
   45CHL1  H23B 4497   0.496   5.688   4.755 -0.5743  0.0359  0.1591
   45CHL1   C24 4498   0.703   5.701   4.712 -0.0861 -0.2195  0.4359
   45CHL1  H24A 4499   0.718   5.790   4.776  1.5178  0.6021 -0.9881
   45CHL1  H24B 4500   0.794   5.637   4.717 -0.5558 -0.9417 -0.0483
   45CHL1   C25 4501   0.688   5.747   4.566 -0.5064 -0.5788 -0.1285
   45CHL1   H25 4502   0.588   5.756   4.520 -0.5840 -0.5850  0.0355
   45CHL1   C26 4503   0.741   5.898   4.560  0.5516  0.0070  0.5774
   45CHL1  H26A 4504   0.686   5.957   4.636  0.7317 -1.5635  1.9795
   45CHL1  H26B 4505   0.845   5.916   4.595  0.4183  1.8027  0.1841
   45CHL1  H26C 4506   0.737   5.931   4.454  1.9093 -1.9780 -0.1444
   45CHL1   C27 4507   0.780   5.657   4.474  0.2697  0.1518 -0.4101
   45CHL1  H27A 4508   0.734   5.559   4.447 -1.4741  0.6473  0.5772
   45CHL1  H27B 4509   0.790   5.710   4.377 -2.1572 -0.6880 -1.2026
   45CHL1  H27C 4510   0.879   5.631   4.516  0.1423  2.2024  1.3237
   46CHL1    C3 4511   2.987   4.441   5.949  0.2992 -0.0055 -0.1468
   46CHL1    H3 4512   2.928   4.529   5.914  0.7395  0.2891 -0.1488
   46CHL1    O3 4513   2.954   4.419   6.084 -0.2336 -0.5483  0.2180
   46CHL1   H3' 4514   3.020   4.352   6.101  0.8746  0.0179 -1.5536
   46CHL1    C4 4515   2.945   4.314   5.870 -0.6658 -0.8342 -0.5213
   46CHL1   H4A 4516   3.010   4.234   5.910  0.0015  1.3269  3.1526
   46CHL1   H4B 4517   2.842   4.282   5.895 -0.5987  0.6170  1.8791
   46CHL1    C5 4518   2.973   4.339   5.716 -0.5832  0.4083  0.5037
   46CHL1    C6 4519   2.875   4.305   5.630  0.9855  0.2626 -0.2411
   46CHL1    H6 4520   2.777   4.270   5.668  0.2426  0.4535 -1.8936
   46CHL1    C7 4521   2.903   4.310   5.483  0.8667 -0.2126 -0.2032
   46CHL1   H7A 4522   2.854   4.225   5.431 -2.8012  2.7691 -2.1191
   46CHL1   H7B 4523   2.858   4.406   5.450  1.2556 -0.1994 -0.7122
   46CHL1    C8 4524   3.051   4.325   5.443  0.1607  0.3637 -0.2145
   46CHL1    H8 4525   3.093   4.224   5.427  0.5809  0.3025  1.1586
   46CHL1   C14 4526   3.061   4.378   5.302  0.6189 -0.1207  0.6451
   46CHL1   H14 4527   3.022   4.481   5.319  0.5938 -0.2239  1.2065
   46CHL1   C15 4528   2.979   4.312   5.186 -0.3877  0.5422  0.3425
   46CHL1  H15A 4529   3.007   4.205   5.170 -0.4513  0.7721 -1.5106
   46CHL1  H15B 4530   2.868   4.319   5.182 -0.2788  1.9969 -0.6031
   46CHL1   C16 4531   3.034   4.386   5.060 -0.8004 -0.2319 -0.0753
   46CHL1  H16A 4532   3.057   4.317   4.977  2.8505  3.2368 -2.2871
   46CHL1  H16B 4533   2.971   4.474   5.032  1.7878  2.5627  2.1139
   46CHL1   C17 4534   3.172   4.459   5.103 -0.3036 -0.3527 -0.0814
   46CHL1   H17 4535   3.144   4.565   5.120 -1.1174 -0.2044 -2.0928
   46CHL1   C13 4536   3.205   4.396   5.245 -0.5110  0.2329  0.8456
   46CHL1   C18 4537   3.278   4.251   5.233 -0.0295  0.2545 -0.5778
   46CHL1  H18A 4538   3.218   4.181   5.171 -3.5684  2.1207  0.4486
   46CHL1  H18B 4539   3.378   4.262   5.187 -0.8361 -0.5222 -2.6226
   46CHL1  H18C 4540   3.288   4.192   5.326 -1.6275  2.8415  1.3664
   46CHL1   C12 4541   3.277   4.497   5.339  0.2283  0.7080  0.3479
   46CHL1  H12A 4542   3.383   4.502   5.307 -0.7388  0.7426 -3.2170
   46CHL1  H12B 4543   3.233   4.595   5.313 -0.6947  0.0984 -0.4400
   46CHL1   C11 4544   3.267   4.445   5.486  0.0240  0.4449  0.3169
   46CHL1  H11A 4545   3.329   4.353   5.500 -0.0662  0.1667 -0.9898
   46CHL1  H11B 4546   3.317   4.522   5.549  0.7009  1.0382 -0.9054
   46CHL1    C9 4547   3.129   4.419   5.533  0.0409  0.7046  0.6296
   46CHL1    H9 4548   3.068   4.512   5.532 -0.6991  0.2291  0.4619
   46CHL1   C10 4549   3.115   4.382   5.684 -0.2763  0.6101  0.9141
   46CHL1   C19 4550   3.206   4.247   5.699  0.0454  0.4107  0.5796
   46CHL1  H19A 4551   3.316   4.259   5.689  0.0002 -0.8657 -2.3890
   46CHL1  H19B 4552   3.188   4.212   5.803 -1.6706  1.5106  0.6989
   46CHL1  H19C 4553   3.168   4.170   5.628 -1.6674  1.1444  0.6419
   46CHL1    C1 4554   3.164   4.494   5.783  0.8200  0.0776  0.6964
   46CHL1   H1A 4555   3.274   4.503   5.772  1.1407 -0.8291  2.6818
   46CHL1   H1B 4556   3.122   4.589   5.745  5.9092  2.3072 -0.0911
   46CHL1    C2 4557   3.133   4.465   5.934  0.6150  0.1086  0.4027
   46CHL1   H2A 4558   3.171   4.553   5.990  2.4893 -1.3819  1.5619
   46CHL1   H2B 4559   3.187   4.375   5.968 -0.7489 -0.5845  0.8251
   46CHL1   C20 4560   3.282   4.465   4.992  0.0443  0.0365  0.4505
   46CHL1   H20 4561   3.300   4.356   4.992  0.3905  0.0799  1.6586
   46CHL1   C21 4562   3.409   4.549   5.018  0.4097  0.2025  0.3721
   46CHL1  H21A 4563   3.472   4.543   4.927 -1.3840 -3.8337 -0.8428
   46CHL1  H21B 4564   3.463   4.510   5.107  2.0190  2.3100  0.4082
   46CHL1  H21C 4565   3.390   4.657   5.035 -1.3074  0.0543 -0.3571
   46CHL1   C22 4566   3.219   4.508   4.851  0.2896  0.6604 -0.7598
   46CHL1  H22A 4567   3.118   4.465   4.836 -0.5117  1.3551  2.0060
   46CHL1  H22B 4568   3.215   4.619   4.857  0.7912  0.6795 -0.7213
   46CHL1   C23 4569   3.305   4.467   4.728 -0.2159 -0.0971 -0.0256
   46CHL1  H23A 4570   3.256   4.518   4.643 -1.7028  1.2896  1.5827
   46CHL1  H23B 4571   3.410   4.504   4.732  0.1242 -0.8433 -1.5064
   46CHL1   C24 4572   3.310   4.309   4.710 -0.0369 -0.1006 -0.3857
   46CHL1  H24A 4573   3.361   4.261   4.797  0.2193 -0.3360 -0.6652
   46CHL1  H24B 4574   3.206   4.274   4.699  0.4860 -2.0615  0.3838
   46CHL1   C25 4575   3.392   4.263   4.588 -0.6116  0.2063 -0.5302
   46CHL1   H25 4576   3.357   4.158   4.573 -2.0112  0.4226  0.9536
   46CHL1   C26 4577   3.361   4.330   4.453 -0.0913 -0.1261  0.5706
   46CHL1  H26A 4578   3.252   4.314   4.442  0.0701  0.2470 -2.0731
   46CHL1  H26B 4579   3.370   4.440   4.450 -2.8448  0.1464 -1.3596
   46CHL1  H26C 4580   3.425   4.282   4.375  0.4171 -0.2530  1.0578
   46CHL1   C27 4581   3.546   4.259   4.616  0.5544  0.2872 -0.2859
   46CHL1  H27A 4582   3.582   4.364   4.617  0.3153  0.3675 -0.1174
   46CHL1  H27B 4583   3.572   4.202   4.708  1.4802  0.8093 -0.2068
   46CHL1  H27C 4584   3.597   4.200   4.536 -0.0467  0.2209 -0.6246
   47CHL1    C3 4585   4.401   5.057   6.003  0.0657 -0.1265 -0.1366
   47CHL1    H3 4586   4.341   5.147   6.026 -0.1208  0.3623 -2.3207
   47CHL1    O3 4587   4.421   4.978   6.122  0.2865  0.2114  0.2309
   47CHL1   H3' 4588   4.491   5.018   6.175 -1.5078  0.7127  2.3694
   47CHL1    C4 4589   4.329   4.970   5.897  0.3368 -0.4700  0.4364
   47CHL1   H4A 4590   4.389   4.879   5.876 -0.1954 -0.7009 -0.0936
   47CHL1   H4B 4591   4.231   4.938   5.938  0.5480 -0.2356  1.1440
   47CHL1    C5 4592   4.317   5.059   5.770  0.0131 -0.7998  0.0924
   47CHL1    C6 4593   4.197   5.094   5.722 -0.1190 -0.3771 -0.2732
   47CHL1    H6 4594   4.100   5.050   5.749 -0.4133  1.1547  1.3494
   47CHL1    C7 4595   4.182   5.182   5.602  0.1406  0.1668 -0.1044
   47CHL1   H7A 4596   4.096   5.144   5.543  0.9346 -3.9268  1.0726
   47CHL1   H7B 4597   4.162   5.287   5.634 -0.8154 -0.2362  0.6646
   47CHL1    C8 4598   4.316   5.178   5.518  0.9035  1.1183  1.4063
   47CHL1    H8 4599   4.317   5.075   5.477  0.2300  1.4820  0.4525
   47CHL1   C14 4600   4.300   5.271   5.404 -0.8407 -0.2535 -0.1976
   47CHL1   H14 4601   4.303   5.376   5.442  1.4197 -1.2423  2.7779
   47CHL1   C15 4602   4.179   5.265   5.310 -0.2836 -0.9051  0.2600
   47CHL1  H15A 4603   4.161   5.163   5.270  0.0330 -1.8844  2.5220
   47CHL1  H15B 4604   4.083   5.298   5.355  0.5887 -1.5635  2.7393
   47CHL1   C16 4605   4.222   5.364   5.193 -0.2257  0.2419  0.2124
   47CHL1  H16A 4606   4.185   5.336   5.092  2.3036 -1.4718 -0.3447
   47CHL1  H16B 4607   4.197   5.472   5.197  0.4291  0.3583  1.7388
   47CHL1   C17 4608   4.378   5.370   5.194 -0.8451  0.0019  0.1624
   47CHL1   H17 4609   4.399   5.464   5.249 -1.9851  0.1165  0.4387
   47CHL1   C13 4610   4.422   5.273   5.301  0.4097 -0.2872  0.0271
   47CHL1   C18 4611   4.428   5.131   5.233  0.0657  0.3789  0.2518
   47CHL1  H18A 4612   4.523   5.121   5.176  1.4951  0.3016  2.5618
   47CHL1  H18B 4613   4.425   5.045   5.302 -0.5459 -0.3116 -0.6076
   47CHL1  H18C 4614   4.340   5.126   5.164  0.1509  0.0095  0.1687
   47CHL1   C12 4615   4.558   5.306   5.372  0.5389  0.5422 -0.2459
   47CHL1  H12A 4616   4.638   5.270   5.304  1.5421  2.1303  0.0345
   47CHL1  H12B 4617   4.570   5.410   5.408  1.9887 -0.3601  2.1596
   47CHL1   C11 4618   4.564   5.208   5.500  0.4585  0.1333  0.8496
   47CHL1  H11A 4619   4.590   5.114   5.447 -0.2106  1.0638 -1.2159
   47CHL1  H11B 4620   4.660   5.230   5.552  1.5596 -1.9734 -0.1766
   47CHL1    C9 4621   4.439   5.202   5.594 -0.0249 -0.5500  0.0681
   47CHL1    H9 4622   4.433   5.301   5.644  0.3472 -1.4639  1.9904
   47CHL1   C10 4623   4.449   5.106   5.711 -0.4739  0.6807  0.3069
   47CHL1   C19 4624   4.523   4.976   5.660  1.1373  0.6022  0.4231
   47CHL1  H19A 4625   4.543   4.907   5.744 -1.7238 -0.7108  0.1490
   47CHL1  H19B 4626   4.471   4.918   5.580 -0.6795  0.6695  1.4813
   47CHL1  H19C 4627   4.622   5.001   5.618  0.1284  1.1712 -1.7857
   47CHL1    C1 4628   4.545   5.163   5.821 -0.0301  0.1874  0.3141
   47CHL1   H1A 4629   4.644   5.192   5.780  0.5653  0.9941  2.2112
   47CHL1   H1B 4630   4.497   5.259   5.847  2.2944  1.7602 -0.8190
   47CHL1    C2 4631   4.548   5.095   5.960 -0.4217 -0.3190  0.0503
   47CHL1   H2A 4632   4.594   5.148   6.046  2.1321 -2.8239  0.3927
   47CHL1   H2B 4633   4.604   4.999   5.958  1.6867  0.8315  0.4883
   47CHL1   C20 4634   4.449   5.379   5.053  0.1505 -0.4239  0.4608
   47CHL1   H20 4635   4.414   5.294   4.991  0.4554 -0.2293  0.0225
   47CHL1   C21 4636   4.603   5.387   5.061  0.4622  0.0582 -0.2775
   47CHL1  H21A 4637   4.640   5.293   5.108 -3.8472  0.0716  3.9576
   47CHL1  H21B 4638   4.626   5.469   5.133  2.0118 -0.1692 -0.4627
   47CHL1  H21C 4639   4.655   5.415   4.967 -0.8026 -0.4281 -1.1365
   47CHL1   C22 4640   4.409   5.504   4.973 -0.4470 -0.8242 -0.5009
   47CHL1  H22A 4641   4.305   5.529   5.006 -0.2569 -0.6869 -0.0014
   47CHL1  H22B 4642   4.466   5.594   5.004 -0.0536 -0.7761 -1.3521
   47CHL1   C23 4643   4.419   5.496   4.820 -0.1758 -0.4644 -0.3416
   47CHL1  H23A 4644   4.523   5.464   4.797 -0.3969 -2.0776  0.6959
   47CHL1  H23B 4645   4.341   5.423   4.792 -1.3311  0.2695  0.8193
   47CHL1   C24 4646   4.376   5.629   4.752 -0.0634  0.4316 -0.2597
   47CHL1  H24A 4647   4.284   5.662   4.806 -0.1322 -0.3753  0.1360
   47CHL1  H24B 4648   4.461   5.699   4.763  0.7866 -0.6488  0.1802
   47CHL1   C25 4649   4.338   5.621   4.605 -0.5548  0.2639  1.0637
   47CHL1   H25 4650   4.254   5.550   4.593  1.7693 -2.4182 -0.5272
   47CHL1   C26 4651   4.302   5.765   4.560  0.3487  0.8486 -0.9650
   47CHL1  H26A 4652   4.217   5.796   4.625  2.7447  0.3883  2.6838
   47CHL1  H26B 4653   4.387   5.834   4.581 -0.7493  1.4574  2.0392
   47CHL1  H26C 4654   4.272   5.762   4.453  1.4892 -1.4191 -1.2622
   47CHL1   C27 4655   4.444   5.569   4.508  1.0560 -0.7198 -1.2076
   47CHL1  H27A 4656   4.542   5.596   4.554  1.6826 -4.3279 -0.1281
   47CHL1  H27B 4657   4.449   5.459   4.500  0.6701 -0.6394 -2.8424
   47CHL1  H27C 4658   4.425   5.610   4.406 -1.2751 -2.6616 -1.6369
   48CHL1    C3 4659   1.518   0.008   6.255  0.0661  0.1891 -0.2511
   48CHL1    H3 4660   1.623   0.043   6.249  0.6991 -1.0702  2.0244
   48CHL1    O3 4661   1.476   0.004   6.389  0.0989 -0.6283  0.2380
   48CHL1   H3' 4662   1.478   0.098   6.407  0.1416 -0.6265  0.2228
   48CHL1    C4 4663   1.423   0.096   6.183  0.3386 -0.5453  0.9959
   48CHL1   H4A 4664   1.316   0.064   6.192 -0.3224  0.3064 -2.3330
   48CHL1   H4B 4665   1.415   0.198   6.226  0.7648  0.0945 -0.3931
   48CHL1    C5 4666   1.456   0.098   6.038 -0.3931  0.3732  0.0508
   48CHL1    C6 4667   1.476   0.212   5.975 -0.5077  0.3157  0.6084
   48CHL1    H6 4668   1.456   0.305   6.029 -0.9247 -0.2964  1.5371
   48CHL1    C7 4669   1.491   0.224   5.826  0.6537  0.3339  0.6905
   48CHL1   H7A 4670   1.413   0.297   5.795  1.0257  0.2667 -0.4764
   48CHL1   H7B 4671   1.582   0.282   5.798 -0.0086  1.1036  0.0765
   48CHL1    C8 4672   1.485   0.098   5.750 -0.3009  0.5011  0.2075
   48CHL1    H8 4673   1.381   0.064   5.732 -0.4577 -0.2591  2.3038
   48CHL1   C14 4674   1.549   0.106   5.614 -0.5365  0.3592 -0.4141
   48CHL1   H14 4675   1.659   0.119   5.624 -0.4316 -0.1083 -0.8914
   48CHL1   C15 4676   1.520   0.230   5.524 -0.2955 -0.2064 -0.2954
   48CHL1  H15A 4677   1.410   0.246   5.529 -0.3310 -0.4363 -0.3684
   48CHL1  H15B 4678   1.578   0.320   5.554  0.2228  0.5992 -3.3564
   48CHL1   C16 4679   1.544   0.179   5.382  0.4289 -0.3467  0.9277
   48CHL1  H16A 4680   1.450   0.185   5.322  0.5278 -0.5948  0.7453
   48CHL1  H16B 4681   1.622   0.249   5.345 -1.2893  1.8341  1.1771
   48CHL1   C17 4682   1.608   0.032   5.400 -0.9044 -0.2308  1.1043
   48CHL1   H17 4683   1.717   0.043   5.419 -0.7280 -0.3520  0.2126
   48CHL1   C13 4684   1.538  -0.019   5.525 -0.0804 -0.3588 -0.9029
   48CHL1   C18 4685   1.402  -0.070   5.490 -0.7413  0.4306  0.5970
   48CHL1  H18A 4686   1.335  -0.093   5.576 -0.7139  0.7572  0.7079
   48CHL1  H18B 4687   1.341   0.006   5.437 -2.9066  0.3546  2.8192
   48CHL1  H18C 4688   1.410  -0.164   5.431  1.9269  0.8525  0.1742
   48CHL1   C12 4689   1.617  -0.134   5.608  0.2240  0.0146 -0.4326
   48CHL1  H12A 4690   1.611  -0.224   5.543  2.8271 -0.5609 -0.0199
   48CHL1  H12B 4691   1.722  -0.096   5.615  0.4856 -0.1530 -2.6824
   48CHL1   C11 4692   1.550  -0.152   5.748  0.2390  0.0076 -0.0862
   48CHL1  H11A 4693   1.457  -0.213   5.741  0.3907 -0.0195 -2.7295
   48CHL1  H11B 4694   1.618  -0.224   5.798 -1.4218 -1.0443  0.7460
   48CHL1    C9 4695   1.541  -0.019   5.832 -0.5182 -0.1982  0.2376
   48CHL1    H9 4696   1.647   0.013   5.846 -0.2130  0.3017 -2.5723
   48CHL1   C10 4697   1.467  -0.034   5.972 -0.2213  0.5477 -0.0369
   48CHL1   C19 4698   1.324  -0.085   5.957 -0.5223  0.3366 -0.4371
   48CHL1  H19A 4699   1.288  -0.116   6.057  0.4389 -0.3006 -0.2761
   48CHL1  H19B 4700   1.255  -0.005   5.926 -0.1753  0.7991 -0.0269
   48CHL1  H19C 4701   1.310  -0.175   5.892  0.0526  0.4244 -0.6891
   48CHL1    C1 4702   1.559  -0.145   6.054 -0.2966  0.2260  0.1403
   48CHL1   H1A 4703   1.541  -0.243   6.004  0.1834 -2.0361  3.9977
   48CHL1   H1B 4704   1.664  -0.110   6.048  0.2106 -1.2499  0.0653
   48CHL1    C2 4705   1.510  -0.137   6.197 -1.3750  0.5175  0.4101
   48CHL1   H2A 4706   1.569  -0.213   6.253  1.1575  2.5555  0.6834
   48CHL1   H2B 4707   1.406  -0.176   6.200 -1.9810  2.1469  1.5549
   48CHL1   C20 4708   1.599  -0.045   5.265 -0.2308  0.1891  0.4268
   48CHL1   H20 4709   1.495  -0.073   5.239  0.1783  0.6233 -1.8220
   48CHL1   C21 4710   1.686  -0.174   5.270 -0.6513 -0.3821  0.3812
   48CHL1  H21A 4711   1.660  -0.249   5.348 -0.9210  0.6960  1.3593
   48CHL1  H21B 4712   1.656  -0.224   5.175  0.4282  1.2417 -0.8761
   48CHL1  H21C 4713   1.792  -0.143   5.273 -1.3451  2.1988  0.2868
   48CHL1   C22 4714   1.638   0.041   5.142 -0.5512  0.2990 -0.6141
   48CHL1  H22A 4715   1.611   0.148   5.143  0.5974  0.6001 -1.1966
   48CHL1  H22B 4716   1.749   0.038   5.136 -0.3620  1.0366  1.5080
   48CHL1   C23 4717   1.592  -0.010   5.008  0.1471  0.0872  0.3458
   48CHL1  H23A 4718   1.596  -0.120   4.994  2.4297  0.3785 -2.3175
   48CHL1  H23B 4719   1.482  -0.002   5.016  0.2563  0.1331  2.0789
   48CHL1   C24 4720   1.660   0.051   4.882  0.4988  0.4528 -0.2035
   48CHL1  H24A 4721   1.655   0.162   4.889 -2.7028  0.4186 -0.4356
   48CHL1  H24B 4722   1.767   0.022   4.884 -0.3054 -2.8233 -0.0940
   48CHL1   C25 4723   1.588  -0.002   4.758 -0.2754 -0.5341 -0.3974
   48CHL1   H25 4724   1.478   0.010   4.768 -0.1892  3.0892 -2.0735
   48CHL1   C26 4725   1.619   0.087   4.643 -0.7210 -0.4575  0.5628
   48CHL1  H26A 4726   1.728   0.084   4.626 -0.4765  1.4218  1.5767
   48CHL1  H26B 4727   1.574   0.064   4.545 -1.4496 -0.6754  0.9372
   48CHL1  H26C 4728   1.601   0.191   4.678 -0.9214  0.0412 -0.9789
   48CHL1   C27 4729   1.637  -0.140   4.720 -0.1446  0.9117  0.2342
   48CHL1  H27A 4730   1.746  -0.159   4.725 -0.6586 -2.3355  1.4505
   48CHL1  H27B 4731   1.600  -0.210   4.798  0.9628  0.5300  0.4307
   48CHL1  H27C 4732   1.593  -0.166   4.622 -0.5311 -1.3376  0.9591
   49CHL1    C3 4733   5.159   4.505   3.028 -0.6004  0.0326  0.7744
   49CHL1    H3 4734   5.232   4.431   3.065 -0.0906 -0.9631 -1.9882
   49CHL1    O3 4735   5.118   4.476   2.895 -0.4548  0.1059  0.1436
   49CHL1   H3' 4736   5.182   4.513   2.834 -3.0706 -0.2308 -3.1409
   49CHL1    C4 4737   5.034   4.497   3.111 -0.1191 -0.3477 -0.2653
   49CHL1   H4A 4738   4.965   4.567   3.060  0.8488  1.5527  0.9264
   49CHL1   H4B 4739   4.988   4.397   3.093  1.1247 -1.1858  1.0302
   49CHL1    C5 4740   5.033   4.541   3.259  0.3155 -1.1891 -0.7134
   49CHL1    C6 4741   4.990   4.469   3.358  0.5124 -0.1394  0.1390
   49CHL1    H6 4742   4.950   4.369   3.338  1.1588 -0.3754  0.0170
   49CHL1    C7 4743   4.989   4.508   3.501 -0.9314  0.4102 -0.1506
   49CHL1   H7A 4744   4.893   4.481   3.550 -1.6512 -0.8085 -2.1066
   49CHL1   H7B 4745   5.065   4.444   3.550  0.9442  1.9686 -0.9078
   49CHL1    C8 4746   5.024   4.654   3.533  0.0005  0.1850 -0.6195
   49CHL1    H8 4747   4.935   4.716   3.507  1.0671  1.5478 -1.1052
   49CHL1   C14 4748   5.070   4.670   3.678  0.2310  0.0074 -0.0718
   49CHL1   H14 4749   5.161   4.608   3.692  0.2389  0.3030  1.2990
   49CHL1   C15 4750   4.969   4.614   3.790  0.3660  0.5759  0.2611
   49CHL1  H15A 4751   4.866   4.633   3.754  0.7732 -1.5404 -2.3331
   49CHL1  H15B 4752   4.976   4.504   3.802  0.2649  0.1749 -2.5789
   49CHL1   C16 4753   5.018   4.680   3.909 -0.5381  0.1229  0.0962
   49CHL1  H16A 4754   4.932   4.735   3.953  1.0865  1.7035  1.4604
   49CHL1  H16B 4755   5.051   4.602   3.982 -1.5188  0.4130  0.8777
   49CHL1   C17 4756   5.128   4.785   3.867 -0.0759  0.1132  0.2291
   49CHL1   H17 4757   5.232   4.750   3.879 -0.6558 -1.2087  1.6586
   49CHL1   C13 4758   5.102   4.806   3.716 -0.5252 -0.6341  0.6780
   49CHL1   C18 4759   4.982   4.911   3.710  0.1410  0.3561  0.6873
   49CHL1  H18A 4760   5.008   5.013   3.746 -2.6499  0.5744  2.3276
   49CHL1  H18B 4761   4.950   4.907   3.604  1.2699 -1.0005  0.3617
   49CHL1  H18C 4762   4.903   4.853   3.762 -0.1375 -1.0136 -1.1623
   49CHL1   C12 4763   5.216   4.857   3.633  0.1543 -0.2686  0.2398
   49CHL1  H12A 4764   5.229   4.967   3.644  1.5059 -0.2024 -1.7036
   49CHL1  H12B 4765   5.313   4.815   3.669 -0.7440  0.3727  3.8538
   49CHL1   C11 4766   5.192   4.841   3.482  0.1419  0.2316  0.1577
   49CHL1  H11A 4767   5.127   4.926   3.454 -1.6220 -1.0965  0.0967
   49CHL1  H11B 4768   5.291   4.860   3.435  0.5113 -1.2114  0.3028
   49CHL1    C9 4769   5.142   4.702   3.443 -0.0101 -0.0410  0.4673
   49CHL1    H9 4770   5.224   4.628   3.457 -0.0399 -0.1581  0.0345
   49CHL1   C10 4771   5.109   4.678   3.286  0.2491 -0.4580 -0.3409
   49CHL1   C19 4772   5.025   4.795   3.231  1.0146 -0.5867 -0.4981
   49CHL1  H19A 4773   4.951   4.814   3.312  1.6391  0.9585 -0.2545
   49CHL1  H19B 4774   5.075   4.894   3.228  0.7494 -0.2913  2.0634
   49CHL1  H19C 4775   4.981   4.778   3.131 -0.8224  0.6627  0.0296
   49CHL1    C1 4776   5.239   4.668   3.200  0.3640  0.3273 -0.7632
   49CHL1   H1A 4777   5.293   4.765   3.205 -1.1594  1.1477  1.7355
   49CHL1   H1B 4778   5.295   4.583   3.243 -2.0259 -0.9047  0.1019
   49CHL1    C2 4779   5.221   4.646   3.041 -0.8145  0.2459 -0.0632
   49CHL1   H2A 4780   5.321   4.664   2.996 -0.6035  0.9013  0.6363
   49CHL1   H2B 4781   5.160   4.722   2.987 -0.6125 -0.1698 -0.8910
   49CHL1   C20 4782   5.119   4.912   3.966 -0.8618  0.2214 -0.2532
   49CHL1   H20 4783   5.028   4.971   3.941 -1.8702 -0.6306  1.2516
   49CHL1   C21 4784   5.247   4.999   3.952 -0.3703 -0.0210  0.6021
   49CHL1  H21A 4785   5.240   5.080   4.028 -2.3245  0.2194  0.2168
   49CHL1  H21B 4786   5.242   5.052   3.854  1.1286 -1.1496 -0.1190
   49CHL1  H21C 4787   5.337   4.935   3.951 -1.9774 -2.4329 -1.4134
   49CHL1   C22 4788   5.114   4.864   4.117 -0.1413  0.2765 -0.7457
   49CHL1  H22A 4789   5.106   4.954   4.182  0.8502 -0.9678  1.2277
   49CHL1  H22B 4790   5.026   4.799   4.137  0.8043 -0.4353  1.4389
   49CHL1   C23 4791   5.237   4.786   4.172  0.2296 -0.7592 -0.1476
   49CHL1  H23A 4792   5.265   4.704   4.103 -0.8632 -0.1094 -1.4148
   49CHL1  H23B 4793   5.329   4.844   4.193 -0.9330  0.5761  1.5355
   49CHL1   C24 4794   5.215   4.711   4.308  0.4859 -0.5896 -0.0880
   49CHL1  H24A 4795   5.127   4.646   4.297 -0.4119  0.4628  0.5955
   49CHL1  H24B 4796   5.313   4.660   4.320  0.5908 -0.5530 -0.7771
   49CHL1   C25 4797   5.199   4.801   4.430 -0.7011 -0.5125 -0.1584
   49CHL1   H25 4798   5.260   4.893   4.412 -2.2571  0.9358  1.5387
   49CHL1   C26 4799   5.059   4.856   4.456 -0.2162 -0.2226 -1.0884
   49CHL1  H26A 4800   5.064   4.916   4.550 -4.9453 -0.7116 -0.2672
   49CHL1  H26B 4801   5.022   4.933   4.385 -2.4821  1.5262  1.7266
   49CHL1  H26C 4802   4.979   4.781   4.475 -0.1348 -0.1430 -0.4046
   49CHL1   C27 4803   5.255   4.728   4.554 -0.1399 -0.5935  0.2374
   49CHL1  H27A 4804   5.365   4.714   4.543  0.4629  2.9477  0.4035
   49CHL1  H27B 4805   5.241   4.791   4.644 -1.5744 -0.1494 -0.2618
   49CHL1  H27C 4806   5.187   4.641   4.564 -0.7630 -0.3671 -1.5954
   50CHL1    C3 4807   5.362   2.764   2.784  0.1961 -0.1675 -0.2989
   50CHL1    H3 4808   5.274   2.828   2.805  0.2757 -1.0515  3.4315
   50CHL1    O3 4809   5.374   2.742   2.644 -0.5644  0.2577 -0.3171
   50CHL1   H3' 4810   5.431   2.665   2.635 -0.0907  0.7819 -2.1230
   50CHL1    C4 4811   5.492   2.819   2.847  0.2983  0.5088 -0.3705
   50CHL1   H4A 4812   5.577   2.751   2.827 -0.1129  0.4334 -2.0059
   50CHL1   H4B 4813   5.515   2.911   2.788  2.3137  0.0270 -0.3780
   50CHL1    C5 4814   5.472   2.845   2.999  0.1127  0.4740 -0.6305
   50CHL1    C6 4815   5.476   2.965   3.049  0.2273 -0.3942  0.1460
   50CHL1    H6 4816   5.517   3.045   2.985  1.4593 -1.5809 -0.6154
   50CHL1    C7 4817   5.451   2.995   3.194 -0.1688 -0.5413 -0.0484
   50CHL1   H7A 4818   5.519   3.073   3.236 -0.8584 -1.7619  3.6340
   50CHL1   H7B 4819   5.356   3.052   3.201  0.6283  0.6175  2.9364
   50CHL1    C8 4820   5.442   2.866   3.284  0.0252 -0.7308  0.1861
   50CHL1    H8 4821   5.547   2.834   3.301  0.3802 -0.4848 -1.3969
   50CHL1   C14 4822   5.384   2.901   3.422  0.9266  0.0270  0.0928
   50CHL1   H14 4823   5.280   2.936   3.405  0.8960  0.4573  1.0488
   50CHL1   C15 4824   5.440   3.012   3.517  0.4914 -0.2377  0.5096
   50CHL1  H15A 4825   5.551   3.006   3.522  0.6580  1.8767  0.4919
   50CHL1  H15B 4826   5.411   3.117   3.493 -0.3851 -0.2856  1.2970
   50CHL1   C16 4827   5.392   2.979   3.657  0.1808 -0.1141 -0.1421
   50CHL1  H16A 4828   5.487   2.954   3.710  0.0572 -0.4196 -0.0614
   50CHL1  H16B 4829   5.328   3.056   3.703  0.5084 -0.1051  0.3082
   50CHL1   C17 4830   5.319   2.844   3.640 -0.2359 -0.6548  0.2815
   50CHL1   H17 4831   5.212   2.867   3.617 -1.0403 -1.9557  2.3955
   50CHL1   C13 4832   5.365   2.778   3.517  0.3588 -0.5085 -0.7889
   50CHL1   C18 4833   5.511   2.723   3.535  1.1573 -1.1365  0.4120
   50CHL1  H18A 4834   5.549   2.700   3.433  0.4877  3.8262 -1.2425
   50CHL1  H18B 4835   5.582   2.804   3.565 -1.7916  2.1265 -0.7246
   50CHL1  H18C 4836   5.513   2.642   3.611 -0.2668 -2.0908 -0.5320
   50CHL1   C12 4837   5.275   2.673   3.442 -0.6902  0.5606 -0.8615
   50CHL1  H12A 4838   5.265   2.585   3.508  1.5795  0.5601 -0.4307
   50CHL1  H12B 4839   5.168   2.699   3.428 -0.8600  0.2456 -0.1758
   50CHL1   C11 4840   5.332   2.630   3.303  0.2674  0.1350 -1.2671
   50CHL1  H11A 4841   5.423   2.572   3.328  0.8802  1.9878  1.0869
   50CHL1  H11B 4842   5.256   2.569   3.249 -0.0389 -0.5992 -0.0401
   50CHL1    C9 4843   5.369   2.756   3.214 -0.0688 -0.5860 -1.0044
   50CHL1    H9 4844   5.266   2.794   3.194 -0.3010 -0.5932  0.1422
   50CHL1   C10 4845   5.417   2.720   3.075 -0.1489 -0.1456  0.4364
   50CHL1   C19 4846   5.545   2.637   3.085 -0.0767 -0.2913  0.0657
   50CHL1  H19A 4847   5.625   2.680   3.149  0.9579 -1.6915 -0.2529
   50CHL1  H19B 4848   5.524   2.535   3.123  0.7789  0.1516  1.8501
   50CHL1  H19C 4849   5.586   2.621   2.984  1.2466 -1.0079  0.6962
   50CHL1    C1 4850   5.306   2.635   3.003  0.1850  0.1715  0.5627
   50CHL1   H1A 4851   5.295   2.530   3.039  1.5996 -0.7876 -1.5411
   50CHL1   H1B 4852   5.205   2.682   3.006 -0.1441 -0.3985 -0.7077
   50CHL1    C2 4853   5.334   2.630   2.844 -0.1162 -0.4699  0.5618
   50CHL1   H2A 4854   5.244   2.590   2.793 -0.9967  0.2194  1.5300
   50CHL1   H2B 4855   5.418   2.557   2.842  0.8533  0.4383  3.0889
   50CHL1   C20 4856   5.312   2.769   3.770  0.0804 -0.3242 -0.0789
   50CHL1   H20 4857   5.417   2.767   3.807  0.4847  3.0741 -0.7729
   50CHL1   C21 4858   5.250   2.628   3.756  0.4404 -0.5658 -1.3993
   50CHL1  H21A 4859   5.215   2.597   3.857 -1.2362  1.7052 -1.2085
   50CHL1  H21B 4860   5.319   2.550   3.716  1.7423 -0.0918 -0.1950
   50CHL1  H21C 4861   5.160   2.636   3.693 -0.0428 -0.1656 -0.6754
   50CHL1   C22 4862   5.242   2.853   3.882 -0.1532  0.2144 -0.4484
   50CHL1  H22A 4863   5.250   2.963   3.868  0.2828  0.0007 -2.1034
   50CHL1  H22B 4864   5.136   2.822   3.893  0.1330 -2.0720 -3.0864
   50CHL1   C23 4865   5.323   2.817   4.014  0.2725  0.3364  0.0728
   50CHL1  H23A 4866   5.323   2.708   4.036  2.6627  0.2893  0.0689
   50CHL1  H23B 4867   5.429   2.841   3.996  0.1409  0.6267 -0.3287
   50CHL1   C24 4868   5.265   2.900   4.132  0.8423 -0.0344 -0.4492
   50CHL1  H24A 4869   5.307   3.003   4.133  1.9336 -0.4701 -0.3719
   50CHL1  H24B 4870   5.154   2.905   4.122  0.8545 -1.9044 -2.0388
   50CHL1   C25 4871   5.287   2.832   4.270  0.1557  0.7964  0.8428
   50CHL1   H25 4872   5.267   2.723   4.265  1.4403  0.6112 -1.3279
   50CHL1   C26 4873   5.435   2.835   4.298  0.7931  0.0747 -0.4289
   50CHL1  H26A 4874   5.499   2.797   4.215  2.1494 -0.2186  0.7198
   50CHL1  H26B 4875   5.474   2.938   4.312 -0.7800  0.7918 -1.0681
   50CHL1  H26C 4876   5.451   2.779   4.393 -0.3179 -1.6315 -1.1867
   50CHL1   C27 4877   5.193   2.893   4.376  0.1530 -0.1522 -0.1101
   50CHL1  H27A 4878   5.222   2.994   4.411  2.1677 -0.9411  0.6191
   50CHL1  H27B 4879   5.096   2.911   4.323  0.0622  1.6180  0.5817
   50CHL1  H27C 4880   5.172   2.836   4.469 -0.7375 -1.3557 -1.0013
   51CHL1    C3 4881   4.355   1.286   2.559  0.5538 -0.0526  0.4391
   51CHL1    H3 4882   4.426   1.372   2.564  0.5078 -0.0614  1.4552
   51CHL1    O3 4883   4.346   1.236   2.429 -0.5291  0.2713  1.1186
   51CHL1   H3' 4884   4.265   1.184   2.428  0.1122 -0.7855  1.8968
   51CHL1    C4 4885   4.400   1.176   2.663  0.3300  0.0292 -0.3577
   51CHL1   H4A 4886   4.340   1.085   2.644  0.2905  0.2111 -1.1237
   51CHL1   H4B 4887   4.505   1.153   2.635  0.0622 -0.8360 -0.6641
   51CHL1    C5 4888   4.393   1.219   2.811 -0.6378  0.1233 -0.1344
   51CHL1    C6 4889   4.499   1.210   2.890 -0.4711  0.6040 -0.4765
   51CHL1    H6 4890   4.592   1.168   2.849  0.2419  1.0217  0.6748
   51CHL1    C7 4891   4.496   1.228   3.037 -0.1408  0.3137  0.2920
   51CHL1   H7A 4892   4.534   1.139   3.091 -2.1029 -1.4559 -1.0343
   51CHL1   H7B 4893   4.550   1.323   3.057 -0.7097  0.9631 -1.0681
   51CHL1    C8 4894   4.348   1.251   3.088 -0.7199  0.1860 -0.2261
   51CHL1    H8 4895   4.310   1.147   3.094 -0.2860 -0.0533 -1.3281
   51CHL1   C14 4896   4.341   1.316   3.228  0.0992  0.6876 -0.5165
   51CHL1   H14 4897   4.385   1.417   3.212  0.6432  0.5091 -0.1621
   51CHL1   C15 4898   4.440   1.256   3.329  0.5595 -0.0717 -0.3692
   51CHL1  H15A 4899   4.440   1.145   3.320  1.1809 -0.1237  0.1500
   51CHL1  H15B 4900   4.539   1.300   3.306  0.6330  0.1854  0.3959
   51CHL1   C16 4901   4.392   1.307   3.462 -0.2828  0.2890 -0.5097
   51CHL1  H16A 4902   4.383   1.221   3.532  4.6386  0.1064  0.2384
   51CHL1  H16B 4903   4.457   1.376   3.520 -0.3846  0.0543 -0.1106
   51CHL1   C17 4904   4.262   1.386   3.436  1.0386  0.5927  0.7069
   51CHL1   H17 4905   4.284   1.492   3.413 -0.6830  0.7659 -0.3656
   51CHL1   C13 4906   4.204   1.327   3.296 -0.3596 -0.1135 -0.2811
   51CHL1   C18 4907   4.146   1.188   3.310  0.3795  0.5082  0.3163
   51CHL1  H18A 4908   4.045   1.190   3.356  1.1832 -1.2700  2.3010
   51CHL1  H18B 4909   4.147   1.138   3.211  0.6011 -0.3553  0.7515
   51CHL1  H18C 4910   4.208   1.125   3.377  0.7985 -0.1709 -0.6739
   51CHL1   C12 4911   4.117   1.414   3.207 -0.5032 -0.6545  0.6538
   51CHL1  H12A 4912   4.014   1.417   3.248 -1.0889  0.7306 -0.8209
   51CHL1  H12B 4913   4.160   1.517   3.209 -1.7245 -0.1331  2.2369
   51CHL1   C11 4914   4.121   1.363   3.058  0.3969 -0.1740 -0.1787
   51CHL1  H11A 4915   4.043   1.284   3.051  0.1616  0.0306  0.1166
   51CHL1  H11B 4916   4.081   1.453   3.007 -0.6163 -0.3470  0.2897
   51CHL1    C9 4917   4.262   1.333   2.993  0.0208 -0.4208 -0.3065
   51CHL1    H9 4918   4.314   1.431   2.995  0.8717 -0.8803  0.9716
   51CHL1   C10 4919   4.253   1.261   2.858  0.6715  0.7806 -0.0090
   51CHL1   C19 4920   4.161   1.133   2.855 -0.2891  0.2936  0.8005
   51CHL1  H19A 4921   4.204   1.048   2.913  2.3630  1.2434  0.4004
   51CHL1  H19B 4922   4.059   1.154   2.891 -0.6444 -0.0337  0.0172
   51CHL1  H19C 4923   4.143   1.100   2.750  1.1445  1.2956  0.2002
   51CHL1    C1 4924   4.212   1.373   2.757 -0.2551  0.7165  0.1933
   51CHL1   H1A 4925   4.111   1.413   2.781 -0.0922  1.2152  0.0583
   51CHL1   H1B 4926   4.283   1.457   2.775  0.0221  0.7048 -0.7441
   51CHL1    C2 4927   4.212   1.324   2.613  0.2367  0.5629  0.4493
   51CHL1   H2A 4928   4.180   1.406   2.544  0.6432  0.4082  0.0726
   51CHL1   H2B 4929   4.151   1.235   2.585  0.9994 -0.2114  1.2013
   51CHL1   C20 4930   4.166   1.382   3.555 -0.5427  0.1154  0.7515
   51CHL1   H20 4931   4.141   1.275   3.572 -1.8359  0.3605  0.5369
   51CHL1   C21 4932   4.038   1.462   3.529 -0.2190 -0.4038  0.5615
   51CHL1  H21A 4933   3.991   1.410   3.443  1.3817 -2.1035  0.6669
   51CHL1  H21B 4934   4.078   1.565   3.523  3.5544 -1.6871  1.2511
   51CHL1  H21C 4935   3.966   1.448   3.613 -2.4753 -2.1497 -1.5117
   51CHL1   C22 4936   4.239   1.444   3.676 -0.0417  0.5222 -0.2964
   51CHL1  H22A 4937   4.336   1.390   3.684 -0.1893 -0.3773 -3.3774
   51CHL1  H22B 4938   4.273   1.547   3.652  0.7580  1.1032  2.9109
   51CHL1   C23 4939   4.158   1.451   3.806 -0.2581 -0.7488  0.9569
   51CHL1  H23A 4940   4.233   1.490   3.878  1.3715  0.1928 -1.1727
   51CHL1  H23B 4941   4.080   1.527   3.786 -0.8134 -1.5850 -0.1773
   51CHL1   C24 4942   4.105   1.316   3.854 -0.0026  0.1375  0.2169
   51CHL1  H24A 4943   4.027   1.283   3.782  1.1152  2.3897 -2.1690
   51CHL1  H24B 4944   4.181   1.235   3.847  1.2246  1.3398 -1.1640
   51CHL1   C25 4945   4.051   1.314   4.000 -0.2573  0.2546 -0.1141
   51CHL1   H25 4946   4.138   1.357   4.055  2.7527  0.7356 -4.7170
   51CHL1   C26 4947   3.928   1.402   4.014 -0.1959 -0.3123  0.1742
   51CHL1  H26A 4948   3.866   1.392   4.106  0.1909  0.0555  0.4794
   51CHL1  H26B 4949   3.959   1.508   4.005  1.9878 -0.5616  3.2773
   51CHL1  H26C 4950   3.861   1.383   3.928 -0.3786  3.2999 -0.6659
   51CHL1   C27 4951   4.024   1.179   4.049  0.2562  0.1591 -0.3517
   51CHL1  H27A 4952   4.117   1.122   4.069 -1.4511 -2.0113  2.1807
   51CHL1  H27B 4953   3.971   1.190   4.146  0.2241  0.7808 -0.4404
   51CHL1  H27C 4954   3.954   1.127   3.980  0.4043 -0.5246 -0.0002
   52CHL1    C3 4955   3.666   2.733   2.644  0.2249 -0.8100 -0.1711
   52CHL1    H3 4956   3.631   2.838   2.652  1.5844 -0.3170 -0.4454
   52CHL1    O3 4957   3.673   2.718   2.501  0.0439  0.5392  0.3965
   52CHL1   H3' 4958   3.714   2.633   2.488  0.1371  0.5951  0.3266
   52CHL1    C4 4959   3.804   2.719   2.692 -0.2839 -0.6489 -0.2246
   52CHL1   H4A 4960   3.848   2.619   2.671  1.3851 -0.1258  0.6063
   52CHL1   H4B 4961   3.871   2.793   2.643  0.6992 -0.7659  0.9059
   52CHL1    C5 4962   3.798   2.764   2.832 -0.0513 -0.2117 -0.5319
   52CHL1    C6 4963   3.878   2.864   2.873  0.0570 -0.0068 -0.2609
   52CHL1    H6 4964   3.947   2.914   2.804  1.4863 -1.0147  0.3831
   52CHL1    C7 4965   3.882   2.902   3.018  0.3316  0.3450  0.1401
   52CHL1   H7A 4966   3.984   2.936   3.046  0.6188 -0.6823  0.3550
   52CHL1   H7B 4967   3.819   2.992   3.035 -1.9132 -0.9228 -0.9309
   52CHL1    C8 4968   3.836   2.790   3.113 -0.5997 -0.0296  0.3995
   52CHL1    H8 4969   3.915   2.713   3.100 -1.6664 -1.1627  0.3168
   52CHL1   C14 4970   3.821   2.851   3.249 -0.3696 -0.5648 -0.2838
   52CHL1   H14 4971   3.754   2.940   3.247 -1.7934 -1.5757  0.4774
   52CHL1   C15 4972   3.946   2.909   3.313 -0.0398 -0.3259  0.1618
   52CHL1  H15A 4973   4.039   2.854   3.286  1.3379  2.0272 -0.1289
   52CHL1  H15B 4974   3.968   3.014   3.284 -0.2732  0.5891  3.0035
   52CHL1   C16 4975   3.921   2.906   3.463  0.6503  0.3542  0.4222
   52CHL1  H16A 4976   4.004   2.862   3.523  0.2412  0.9723  1.4656
   52CHL1  H16B 4977   3.917   3.011   3.499 -1.4991 -0.0580  1.5723
   52CHL1   C17 4978   3.777   2.840   3.490 -0.4747 -0.2776 -0.7463
   52CHL1   H17 4979   3.701   2.921   3.481  1.1864  1.8774  2.5114
   52CHL1   C13 4980   3.757   2.763   3.355  0.6387 -0.7275  0.2848
   52CHL1   C18 4981   3.825   2.626   3.367 -0.2740  0.2246 -0.0782
   52CHL1  H18A 4982   3.763   2.544   3.409 -1.7444 -0.0733 -2.6449
   52CHL1  H18B 4983   3.856   2.584   3.269 -1.7139 -0.0113 -0.4430
   52CHL1  H18C 4984   3.919   2.627   3.427 -0.4195  2.6412  0.1807
   52CHL1   C12 4985   3.612   2.740   3.303  0.3604 -0.4361  0.1979
   52CHL1  H12A 4986   3.546   2.695   3.380  1.5379  0.7213  1.9625
   52CHL1  H12B 4987   3.570   2.841   3.282 -1.0360 -0.9303  0.5406
   52CHL1   C11 4988   3.614   2.663   3.168  0.0103 -0.2259 -0.3538
   52CHL1  H11A 4989   3.653   2.561   3.188  0.0747  0.0800  1.2356
   52CHL1  H11B 4990   3.513   2.651   3.123 -0.1434  0.9490 -0.3765
   52CHL1    C9 4991   3.701   2.740   3.061  0.5948 -0.6843  0.1391
   52CHL1    H9 4992   3.644   2.835   3.054 -1.0637 -1.5560  1.2643
   52CHL1   C10 4993   3.702   2.685   2.919 -0.7101  0.7396 -0.5860
   52CHL1   C19 4994   3.750   2.537   2.939  0.4762  0.1951  0.1027
   52CHL1  H19A 4995   3.673   2.493   3.005  0.9884 -1.6655 -0.4712
   52CHL1  H19B 4996   3.745   2.477   2.845  0.4664 -0.6153  0.6141
   52CHL1  H19C 4997   3.855   2.535   2.976  0.7463  1.2218 -0.5611
   52CHL1    C1 4998   3.556   2.683   2.860  0.4399  0.4667  0.3897
   52CHL1   H1A 4999   3.497   2.604   2.911  0.5462  0.5701  0.6766
   52CHL1   H1B 5000   3.510   2.783   2.873  2.4884  1.4704  0.3281
   52CHL1    C2 5001   3.556   2.647   2.707 -0.2428 -0.2894 -0.4881
   52CHL1   H2A 5002   3.451   2.661   2.672 -0.2544 -2.2981 -1.4310
   52CHL1   H2B 5003   3.574   2.538   2.699  1.0804 -0.1107 -0.1759
   52CHL1   C20 5004   3.764   2.781   3.628 -0.3620 -0.5313  0.2347
   52CHL1   H20 5005   3.824   2.688   3.633  0.6639  0.0943 -0.0047
   52CHL1   C21 5006   3.624   2.738   3.668  0.2327 -0.1348  0.4616
   52CHL1  H21A 5007   3.581   2.668   3.593  0.3606  0.4684 -0.1743
   52CHL1  H21B 5008   3.553   2.821   3.687 -0.1141 -0.6642  1.6065
   52CHL1  H21C 5009   3.632   2.676   3.760 -0.1660 -0.1332  0.5003
   52CHL1   C22 5010   3.822   2.883   3.731  0.2669  1.5070 -0.6886
   52CHL1  H22A 5011   3.814   2.828   3.828 -1.4511  1.7677 -0.6391
   52CHL1  H22B 5012   3.932   2.890   3.718  0.0670  2.1136 -2.1901
   52CHL1   C23 5013   3.746   3.012   3.738 -0.9746 -0.0863 -0.5251
   52CHL1  H23A 5014   3.740   3.066   3.641 -0.2315 -0.4569 -0.7827
   52CHL1  H23B 5015   3.641   2.998   3.771 -0.3539  0.5811  1.9322
   52CHL1   C24 5016   3.803   3.101   3.852 -0.1282 -0.3649 -0.7252
   52CHL1  H24A 5017   3.729   3.178   3.881  0.0490  0.1848 -1.6759
   52CHL1  H24B 5018   3.806   3.031   3.938 -0.6005  0.1426 -0.2891
   52CHL1   C25 5019   3.945   3.168   3.825  0.1361 -0.0300 -0.2453
   52CHL1   H25 5020   4.015   3.092   3.786  0.6573  0.3360 -0.0287
   52CHL1   C26 5021   3.942   3.283   3.719 -0.2100  0.0734  0.0260
   52CHL1  H26A 5022   3.898   3.253   3.622  0.1881 -0.2447 -0.0602
   52CHL1  H26B 5023   3.897   3.378   3.757  1.6981  1.1337 -0.2365
   52CHL1  H26C 5024   4.045   3.312   3.689 -0.3848 -1.2128 -1.9686
   52CHL1   C27 5025   4.012   3.220   3.953 -0.4304  0.1553  0.0356
   52CHL1  H27A 5026   4.120   3.238   3.935 -0.2439 -1.3807 -0.5212
   52CHL1  H27B 5027   3.966   3.315   3.989  1.6566  1.0604  0.4727
   52CHL1  H27C 5028   4.009   3.141   4.030  0.1411 -0.8449 -0.9478
   53CHL1    C3 5029   2.363   3.080   2.604  0.7022 -0.1010 -0.1420
   53CHL1    H3 5030   2.438   3.162   2.614  0.5287  0.0881 -0.3829
   53CHL1    O3 5031   2.337   3.059   2.466  0.3550 -0.4788  0.1061
   53CHL1   H3' 5032   2.244   3.038   2.457  0.2969 -0.9749  1.6032
   53CHL1    C4 5033   2.434   2.960   2.655 -0.8789  0.1879  0.1897
   53CHL1   H4A 5034   2.352   2.885   2.647 -2.1342  1.5986 -0.8410
   53CHL1   H4B 5035   2.517   2.935   2.585 -0.3598  1.4413  0.3426
   53CHL1    C5 5036   2.483   2.979   2.802  0.3392  1.1266  0.1983
   53CHL1    C6 5037   2.609   2.993   2.837  0.1164  0.0105  0.7849
   53CHL1    H6 5038   2.684   2.986   2.757  0.3716 -1.6446  1.1305
   53CHL1    C7 5039   2.656   3.015   2.977 -0.1343 -0.1803  0.8110
   53CHL1   H7A 5040   2.747   2.952   2.990 -0.2399 -0.3699  0.6315
   53CHL1   H7B 5041   2.694   3.120   2.985  2.4719 -0.9973  0.1509
   53CHL1    C8 5042   2.551   2.986   3.085  0.0016  0.3803  0.4636
   53CHL1    H8 5043   2.545   2.875   3.084  3.1627  0.1218 -0.3458
   53CHL1   C14 5044   2.594   3.037   3.214  0.1606  0.1073 -0.2340
   53CHL1   H14 5045   2.614   3.146   3.204  0.0730  0.3842  2.0284
   53CHL1   C15 5046   2.727   2.978   3.271  0.6422 -0.6977 -0.9126
   53CHL1  H15A 5047   2.722   2.868   3.260 -2.5548 -0.7027 -0.1411
   53CHL1  H15B 5048   2.819   3.009   3.215  0.0575 -0.2742 -1.6536
   53CHL1   C16 5049   2.722   3.037   3.415  0.3248 -0.5084 -0.0012
   53CHL1  H16A 5050   2.754   2.958   3.487  3.0755  1.7210  1.4208
   53CHL1  H16B 5051   2.802   3.109   3.441 -0.3410  0.2281  0.0727
   53CHL1   C17 5052   2.577   3.091   3.442 -0.6312  0.2879 -0.0641
   53CHL1   H17 5053   2.568   3.199   3.418 -1.8025  0.4422  0.9899
   53CHL1   C13 5054   2.495   3.028   3.327  0.0650 -0.7268 -0.4200
   53CHL1   C18 5055   2.444   2.886   3.370  0.7173 -0.2065 -0.3191
   53CHL1  H18A 5056   2.369   2.897   3.451  2.3952  0.4066  1.2134
   53CHL1  H18B 5057   2.399   2.837   3.281  0.5442 -2.1736  0.7749
   53CHL1  H18C 5058   2.525   2.827   3.419  0.7596  0.1392  0.0303
   53CHL1   C12 5059   2.368   3.105   3.286  0.8614 -0.3798  0.0539
   53CHL1  H12A 5060   2.288   3.091   3.363  0.8650  0.6980  0.2699
   53CHL1  H12B 5061   2.396   3.212   3.281 -0.2457 -0.0909 -0.2392
   53CHL1   C11 5062   2.311   3.044   3.147 -0.1524 -0.3714  0.1000
   53CHL1  H11A 5063   2.276   2.940   3.165  0.2977 -0.3128  1.4106
   53CHL1  H11B 5064   2.221   3.099   3.110 -0.6047 -1.2794 -0.1743
   53CHL1    C9 5065   2.419   3.045   3.039  0.2530  0.1889  0.6062
   53CHL1    H9 5066   2.447   3.151   3.024  3.0305 -0.6760 -1.1738
   53CHL1   C10 5067   2.365   3.000   2.893  0.0522  0.3723 -0.5134
   53CHL1   C19 5068   2.297   2.860   2.921 -0.3631  0.5202 -0.7039
   53CHL1  H19A 5069   2.371   2.792   2.970  0.2753  1.5977 -0.1231
   53CHL1  H19B 5070   2.208   2.875   2.986  1.2588  3.2620  1.1090
   53CHL1  H19C 5071   2.254   2.818   2.828  0.3766  0.0366 -0.8394
   53CHL1    C1 5072   2.267   3.110   2.837  0.9412 -0.4041 -0.1093
   53CHL1   H1A 5073   2.173   3.102   2.895  1.7282 -2.0146  1.0391
   53CHL1   H1B 5074   2.304   3.214   2.848 -2.1163  1.2638 -3.7865
   53CHL1    C2 5075   2.241   3.111   2.687  0.1883 -0.5547 -0.0604
   53CHL1   H2A 5076   2.212   3.209   2.643 -2.1861 -1.7782 -1.4062
   53CHL1   H2B 5077   2.165   3.033   2.669  0.9696 -1.9845  2.3813
   53CHL1   C20 5078   2.531   3.076   3.586 -0.3950  0.5223 -0.3734
   53CHL1   H20 5079   2.421   3.064   3.587 -0.5162  1.4515 -1.1558
   53CHL1   C21 5080   2.561   3.209   3.653 -0.1456  0.2632  0.0792
   53CHL1  H21A 5081   2.485   3.282   3.616 -1.3568 -0.9789  0.0353
   53CHL1  H21B 5082   2.654   3.260   3.620 -0.4361  0.9348  0.2898
   53CHL1  H21C 5083   2.541   3.204   3.762  0.4957 -0.2786  0.1729
   53CHL1   C22 5084   2.586   2.966   3.679 -0.1548 -0.1639  0.7345
   53CHL1  H22A 5085   2.611   2.868   3.634  2.1866 -0.5104  2.6081
   53CHL1  H22B 5086   2.680   2.992   3.731  0.2027 -1.9064  1.0231
   53CHL1   C23 5087   2.484   2.933   3.787  0.2017 -0.6230 -0.1725
   53CHL1  H23A 5088   2.452   3.030   3.831  0.2813 -0.0756 -1.2923
   53CHL1  H23B 5089   2.396   2.881   3.743 -1.7272  2.0479  0.2566
   53CHL1   C24 5090   2.524   2.830   3.892 -0.2920  0.8129 -0.5586
   53CHL1  H24A 5091   2.562   2.737   3.844  0.2924 -0.1836  1.7001
   53CHL1  H24B 5092   2.604   2.882   3.949 -0.3648  2.1447 -1.6322
   53CHL1   C25 5093   2.414   2.794   3.997 -0.6595  0.5269  0.1654
   53CHL1   H25 5094   2.370   2.889   4.033  0.4931  1.3308 -0.4874
   53CHL1   C26 5095   2.316   2.694   3.931  0.5525  0.1004  0.6767
   53CHL1  H26A 5096   2.370   2.613   3.879 -2.3173 -0.2218 -2.0878
   53CHL1  H26B 5097   2.255   2.649   4.012  0.7072 -0.8194  0.2940
   53CHL1  H26C 5098   2.247   2.739   3.857  1.7611  2.3803  0.8119
   53CHL1   C27 5099   2.495   2.728   4.113  0.1392 -0.3839  0.4551
   53CHL1  H27A 5100   2.433   2.692   4.197 -2.7458  2.1199 -0.4311
   53CHL1  H27B 5101   2.551   2.644   4.066  1.9595  1.3774 -0.7116
   53CHL1  H27C 5102   2.568   2.797   4.160 -0.7129  0.2992  0.7854
   54CHL1    C3 5103   3.634   5.014   2.744  0.0477 -0.5081 -0.3936
   54CHL1    H3 5104   3.719   5.083   2.763 -1.5974  1.2831  0.9041
   54CHL1    O3 5105   3.595   5.008   2.609  0.5417 -0.4150 -0.7292
   54CHL1   H3' 5106   3.673   4.965   2.573  2.1696  0.1690  1.8052
   54CHL1    C4 5107   3.668   4.879   2.801 -0.2816  0.7556 -0.5365
   54CHL1   H4A 5108   3.604   4.798   2.759 -0.0190  1.3288 -2.1230
   54CHL1   H4B 5109   3.761   4.859   2.743  0.8776 -1.0866  1.7933
   54CHL1    C5 5110   3.683   4.880   2.953  0.6097 -0.2160 -0.6948
   54CHL1    C6 5111   3.799   4.846   3.019 -0.2600 -0.2618  0.3741
   54CHL1    H6 5112   3.881   4.806   2.957 -1.7736 -1.0854 -1.1751
   54CHL1    C7 5113   3.815   4.826   3.168  0.2013  0.0865 -0.5013
   54CHL1   H7A 5114   3.857   4.726   3.191 -0.9504 -0.5355 -1.0326
   54CHL1   H7B 5115   3.878   4.910   3.202 -1.7147  1.3000  0.1889
   54CHL1    C8 5116   3.679   4.834   3.242 -0.0103  0.2180  0.5996
   54CHL1    H8 5117   3.635   4.733   3.235  2.1375 -0.7299 -0.0264
   54CHL1   C14 5118   3.698   4.868   3.392  0.3013 -0.3323  0.3315
   54CHL1   H14 5119   3.720   4.977   3.392 -3.7046  0.6426 -0.2403
   54CHL1   C15 5120   3.803   4.789   3.468 -0.4726  0.4749  0.2073
   54CHL1  H15A 5121   3.786   4.679   3.455 -0.5389  0.5406 -0.2786
   54CHL1  H15B 5122   3.909   4.805   3.441 -0.0897 -0.7789  0.8673
   54CHL1   C16 5123   3.766   4.820   3.615  0.1897 -0.5158  0.0893
   54CHL1  H16A 5124   3.753   4.725   3.670 -1.0919  0.5805  1.7631
   54CHL1  H16B 5125   3.846   4.887   3.653  0.2813 -0.2084 -0.6212
   54CHL1   C17 5126   3.631   4.902   3.610  0.6155  0.5762 -0.0921
   54CHL1   H17 5127   3.659   5.008   3.595  1.2105  0.9596  3.0180
   54CHL1   C13 5128   3.571   4.868   3.477  0.5682 -0.7010  0.2239
   54CHL1   C18 5129   3.507   4.728   3.479  0.3432  0.6122 -0.2723
   54CHL1  H18A 5130   3.407   4.720   3.526 -0.4140  0.0240 -1.9125
   54CHL1  H18B 5131   3.496   4.688   3.376 -0.2092 -1.2126  0.4656
   54CHL1  H18C 5132   3.571   4.660   3.539 -0.0697 -0.5451 -1.1126
   54CHL1   C12 5133   3.474   4.976   3.415  0.2080  0.8057 -0.4764
   54CHL1  H12A 5134   3.378   4.970   3.471  2.2793  0.9759  3.4367
   54CHL1  H12B 5135   3.525   5.074   3.427  0.6296  0.3664  1.7667
   54CHL1   C11 5136   3.450   4.949   3.269  0.4190  0.3408  0.6560
   54CHL1  H11A 5137   3.386   4.859   3.257 -0.4937  0.7671  2.1418
   54CHL1  H11B 5138   3.397   5.040   3.234  0.4657  0.3540  0.6186
   54CHL1    C9 5139   3.582   4.936   3.183  0.0951  0.2955  0.5631
   54CHL1    H9 5140   3.631   5.033   3.207  1.9269 -0.3881 -0.2318
   54CHL1   C10 5141   3.563   4.929   3.033  0.1384  0.7996 -0.1021
   54CHL1   C19 5142   3.460   4.815   3.007 -0.5433  0.1952  0.2885
   54CHL1  H19A 5143   3.487   4.714   3.043  1.4548 -0.1822 -2.0038
   54CHL1  H19B 5144   3.360   4.837   3.050 -0.1363 -0.7921  1.8192
   54CHL1  H19C 5145   3.442   4.799   2.898  3.2126 -0.7398 -0.3326
   54CHL1    C1 5146   3.523   5.066   2.978  0.0384 -0.6747 -0.5380
   54CHL1   H1A 5147   3.433   5.103   3.031  2.0693  0.3781  2.4527
   54CHL1   H1B 5148   3.614   5.124   3.004 -0.4590  0.1858 -0.6741
   54CHL1    C2 5149   3.505   5.071   2.826  0.0864 -0.4796 -0.3901
   54CHL1   H2A 5150   3.483   5.175   2.792 -4.1788 -1.5314 -1.5306
   54CHL1   H2B 5151   3.410   5.023   2.793 -0.1638 -0.1808 -0.1089
   54CHL1   C20 5152   3.553   4.902   3.740 -0.0223 -0.3675 -0.2502
   54CHL1   H20 5153   3.448   4.933   3.721  0.3103  1.2575  0.4178
   54CHL1   C21 5154   3.615   5.024   3.818  0.7966 -1.0777 -0.1074
   54CHL1  H21A 5155   3.604   5.118   3.759 -3.0047 -1.1394  0.2373
   54CHL1  H21B 5156   3.722   5.011   3.846  0.0875 -2.1464  2.4069
   54CHL1  H21C 5157   3.558   5.049   3.910  2.7942  1.2879  0.5950
   54CHL1   C22 5158   3.562   4.767   3.820  0.6254 -0.0442 -0.2287
   54CHL1  H22A 5159   3.545   4.683   3.749  0.1272 -1.2862  1.2831
   54CHL1  H22B 5160   3.656   4.762   3.879 -0.3493 -0.2963  1.3714
   54CHL1   C23 5161   3.435   4.761   3.914  0.3504 -0.6855 -0.6183
   54CHL1  H23A 5162   3.430   4.852   3.977 -1.0153 -1.7829  0.9439
   54CHL1  H23B 5163   3.346   4.752   3.849 -0.5637  1.4867  0.2579
   54CHL1   C24 5164   3.455   4.645   4.007 -0.5806  0.1515  0.6321
   54CHL1  H24A 5165   3.458   4.545   3.958  3.6573 -0.0810  1.0105
   54CHL1  H24B 5166   3.545   4.661   4.070  0.8891 -3.1949 -0.3595
   54CHL1   C25 5167   3.333   4.657   4.098  0.0377 -0.1680 -0.3950
   54CHL1   H25 5168   3.335   4.755   4.149  1.8351 -0.9398  1.1394
   54CHL1   C26 5169   3.198   4.625   4.036  0.5938  0.0542 -0.1122
   54CHL1  H26A 5170   3.181   4.528   3.986 -0.0760 -0.5901  1.2894
   54CHL1  H26B 5171   3.124   4.630   4.119  0.5358 -1.6486 -0.0213
   54CHL1  H26C 5172   3.167   4.700   3.960  2.6061  0.0541 -1.0078
   54CHL1   C27 5173   3.365   4.558   4.210  0.8823  0.4660 -0.3073
   54CHL1  H27A 5174   3.457   4.580   4.268  0.5689 -0.1715  0.4475
   54CHL1  H27B 5175   3.288   4.566   4.289  0.9508  2.2861 -0.3838
   54CHL1  H27C 5176   3.371   4.457   4.164  2.8919  0.3971 -0.0069
   55CHL1    C3 5177   5.308   2.238   2.681 -0.3646  0.1574  0.5040
   55CHL1    H3 5178   5.339   2.344   2.676  1.2852 -0.3503 -1.0404
   55CHL1    O3 5179   5.301   2.193   2.550  0.3449  0.5165 -0.1449
   55CHL1   H3' 5180   5.284   2.099   2.556  2.0471  0.2776  1.7300
   55CHL1    C4 5181   5.413   2.159   2.757 -0.3146 -0.6977 -0.3613
   55CHL1   H4A 5182   5.379   2.055   2.736 -0.1783 -0.6477 -0.8313
   55CHL1   H4B 5183   5.513   2.172   2.709 -0.6912  0.8824 -0.7550
   55CHL1    C5 5184   5.406   2.190   2.903 -0.4725  0.4748 -0.7954
   55CHL1    C6 5185   5.516   2.241   2.957 -0.1408 -0.0951 -1.0509
   55CHL1    H6 5186   5.607   2.267   2.901 -0.5060  2.3778 -0.6132
   55CHL1    C7 5187   5.532   2.244   3.108  0.2072  0.1430  0.0485
   55CHL1   H7A 5188   5.624   2.186   3.131  1.9928  2.2994 -1.2461
   55CHL1   H7B 5189   5.569   2.341   3.149 -0.3095  0.3262  0.0823
   55CHL1    C8 5190   5.409   2.178   3.187 -0.5249  0.7448  0.0688
   55CHL1    H8 5191   5.432   2.069   3.185  1.6213  1.1618  0.3900
   55CHL1   C14 5192   5.405   2.219   3.330 -0.1986 -0.3052 -0.0001
   55CHL1   H14 5193   5.382   2.327   3.323 -0.3495 -0.0673  3.0207
   55CHL1   C15 5194   5.534   2.199   3.413  0.3221 -0.2003 -1.0776
   55CHL1  H15A 5195   5.574   2.097   3.397  0.1261 -0.8720  2.0243
   55CHL1  H15B 5196   5.617   2.266   3.381  0.0131  1.3285  1.0771
   55CHL1   C16 5197   5.485   2.196   3.563  1.1764 -0.4336 -0.5291
   55CHL1  H16A 5198   5.514   2.096   3.602  1.7052  0.7680  2.4123
   55CHL1  H16B 5199   5.524   2.280   3.624  0.1962 -2.4009  3.1169
   55CHL1   C17 5200   5.331   2.208   3.546 -0.0111 -0.7609  0.7738
   55CHL1   H17 5201   5.315   2.318   3.541  0.6258 -0.6374  1.3206
   55CHL1   C13 5202   5.293   2.157   3.412  0.1856  0.2582  0.0646
   55CHL1   C18 5203   5.317   2.001   3.418 -0.3079  0.2322  0.3984
   55CHL1  H18A 5204   5.233   1.950   3.470  0.1435 -1.2878 -0.3077
   55CHL1  H18B 5205   5.310   1.962   3.314 -0.9750  3.0704 -0.7232
   55CHL1  H18C 5206   5.409   1.959   3.463 -0.4162  1.0703  1.4408
   55CHL1   C12 5207   5.161   2.196   3.355 -0.1742  0.2813  0.2805
   55CHL1  H12A 5208   5.077   2.149   3.411 -1.2223 -2.1774 -3.0557
   55CHL1  H12B 5209   5.151   2.307   3.354 -2.4421  0.1422 -2.2128
   55CHL1   C11 5210   5.153   2.165   3.210 -0.1897  0.0944  1.2189
   55CHL1  H11A 5211   5.150   2.054   3.211  0.4345  0.0721  1.0447
   55CHL1  H11B 5212   5.062   2.210   3.167  0.2953 -0.9976 -1.0637
   55CHL1    C9 5213   5.276   2.209   3.121  1.3219 -0.0791 -1.1809
   55CHL1    H9 5214   5.272   2.320   3.126 -2.6799 -0.1134 -0.2810
   55CHL1   C10 5215   5.273   2.163   2.976  0.2492 -0.2051  0.1464
   55CHL1   C19 5216   5.237   2.015   2.980  0.6201  0.0795  0.7233
   55CHL1  H19A 5217   5.243   1.973   2.878  0.7514  0.8775  0.3896
   55CHL1  H19B 5218   5.309   1.961   3.044  0.8018  0.7858  1.1298
   55CHL1  H19C 5219   5.133   1.994   3.012  0.1320 -1.1231 -1.4698
   55CHL1    C1 5220   5.167   2.246   2.896  0.1577  0.7084 -0.1997
   55CHL1   H1A 5221   5.062   2.224   2.925  0.0072  1.7722  0.1184
   55CHL1   H1B 5222   5.182   2.356   2.907  2.8905  0.3339  0.4660
   55CHL1    C2 5223   5.174   2.211   2.742  0.1265 -0.3049 -0.4321
   55CHL1   H2A 5224   5.104   2.276   2.685  0.5863  1.5289  0.9906
   55CHL1   H2B 5225   5.143   2.106   2.727  0.9145 -0.7120  0.6615
   55CHL1   C20 5226   5.254   2.164   3.672 -0.2931 -0.9341  0.0792
   55CHL1   H20 5227   5.196   2.074   3.643  0.6767 -1.5044 -0.1448
   55CHL1   C21 5228   5.155   2.276   3.706  0.8436 -0.2662 -0.5859
   55CHL1  H21A 5229   5.217   2.360   3.745  1.3799 -0.9862  0.1266
   55CHL1  H21B 5230   5.074   2.247   3.776  1.0248 -0.9378 -0.6519
   55CHL1  H21C 5231   5.117   2.322   3.612  0.4714  2.3068  0.7133
   55CHL1   C22 5232   5.336   2.137   3.793 -0.0257 -0.5092 -0.3966
   55CHL1  H22A 5233   5.392   2.045   3.768  2.5191  1.0869 -0.9012
   55CHL1  H22B 5234   5.410   2.220   3.799 -1.0968  0.4841 -0.5569
   55CHL1   C23 5235   5.260   2.133   3.919  0.3692  0.7361 -0.2107
   55CHL1  H23A 5236   5.250   2.237   3.957  0.3852  1.5805 -2.4072
   55CHL1  H23B 5237   5.154   2.102   3.904  0.5401 -0.6568  1.1372
   55CHL1   C24 5238   5.325   2.058   4.041 -0.7113  0.3067 -0.4135
   55CHL1  H24A 5239   5.353   1.954   4.017 -1.6258 -0.7877  2.8090
   55CHL1  H24B 5240   5.406   2.125   4.076 -1.1017  0.5141  0.1241
   55CHL1   C25 5241   5.215   2.044   4.156  0.3314 -0.1254  0.5288
   55CHL1   H25 5242   5.172   2.146   4.167 -0.1169 -0.3642  1.0223
   55CHL1   C26 5243   5.110   1.935   4.137  0.4094 -0.1910 -0.0722
   55CHL1  H26A 5244   5.063   1.957   4.038  0.6662 -3.1818 -0.9733
   55CHL1  H26B 5245   5.160   1.836   4.135  2.2427  0.6927 -1.0950
   55CHL1  H26C 5246   5.028   1.930   4.212  0.0445 -2.2761 -0.5373
   55CHL1   C27 5247   5.283   2.002   4.290  0.3664 -0.0010 -0.1224
   55CHL1  H27A 5248   5.346   1.912   4.274  0.2018 -0.1509  0.0691
   55CHL1  H27B 5249   5.335   2.099   4.308  0.6256 -0.1164 -0.2437
   55CHL1  H27C 5250   5.207   1.980   4.368  0.8285 -1.6572 -0.1110
   56CHL1    C3 5251   1.692   2.048   2.508 -0.1131 -0.0637 -0.7435
   56CHL1    H3 5252   1.729   1.962   2.569  1.1563  0.2825 -1.0050
   56CHL1    O3 5253   1.712   2.018   2.370  0.3920 -0.2306  0.4266
   56CHL1   H3' 5254   1.632   1.972   2.342 -0.6785  0.4747  2.1938
   56CHL1    C4 5255   1.546   2.066   2.544 -0.1199 -0.1634  0.1168
   56CHL1   H4A 5256   1.515   2.156   2.486  0.0793 -0.0869  0.1296
   56CHL1   H4B 5257   1.478   1.985   2.510 -2.7247  1.6101  0.7664
   56CHL1    C5 5258   1.526   2.091   2.694  0.1657  0.8185 -0.3189
   56CHL1    C6 5259   1.440   2.025   2.769  0.3261  0.5245  0.3384
   56CHL1    H6 5260   1.388   1.938   2.727 -1.7119  2.0096 -0.3769
   56CHL1    C7 5261   1.397   2.059   2.906 -0.2260 -0.8515  0.3537
   56CHL1   H7A 5262   1.288   2.056   2.927 -0.5709  2.0161 -0.5182
   56CHL1   H7B 5263   1.453   1.982   2.963  0.7416 -1.1356 -0.9389
   56CHL1    C8 5264   1.459   2.198   2.956 -0.0740  0.2245  0.2252
   56CHL1    H8 5265   1.393   2.284   2.930 -0.4285  1.3894  4.3337
   56CHL1   C14 5266   1.471   2.195   3.115 -0.2635 -0.4032 -0.0869
   56CHL1   H14 5267   1.550   2.118   3.127  1.5482  0.8674 -2.7346
   56CHL1   C15 5268   1.342   2.154   3.200  0.8297  0.4633  0.6024
   56CHL1  H15A 5269   1.249   2.186   3.147 -0.1992 -0.9241  1.4820
   56CHL1  H15B 5270   1.350   2.043   3.201 -1.6441  0.2056  0.2572
   56CHL1   C16 5271   1.364   2.218   3.339 -0.1922 -0.3115 -0.6809
   56CHL1  H16A 5272   1.270   2.275   3.357  0.6158  0.5790  0.9960
   56CHL1  H16B 5273   1.376   2.139   3.417  1.6066  0.8233  0.2683
   56CHL1   C17 5274   1.497   2.296   3.325 -0.5613  0.4203 -0.1442
   56CHL1   H17 5275   1.568   2.211   3.335 -1.8068 -0.9825 -2.3949
   56CHL1   C13 5276   1.522   2.324   3.173  0.4382  1.1229 -0.0920
   56CHL1   C18 5277   1.428   2.441   3.132  0.5668  0.4813 -0.3957
   56CHL1  H18A 5278   1.436   2.464   3.023 -1.1946  2.6556 -0.1286
   56CHL1  H18B 5279   1.322   2.408   3.140  0.7081 -0.1567 -1.0028
   56CHL1  H18C 5280   1.442   2.527   3.200  0.5791 -0.7524  1.2122
   56CHL1   C12 5281   1.670   2.341   3.119 -0.0529  0.1634  0.4524
   56CHL1  H12A 5282   1.707   2.439   3.156  0.5191 -0.0107  0.3393
   56CHL1  H12B 5283   1.734   2.259   3.158  1.2234  1.3178  0.8417
   56CHL1   C11 5284   1.684   2.335   2.964  0.3368  0.5024  0.7257
   56CHL1  H11A 5285   1.633   2.423   2.920 -0.2494 -1.2986 -2.4771
   56CHL1  H11B 5286   1.789   2.334   2.930 -0.4302  0.0818 -1.8378
   56CHL1    C9 5287   1.602   2.221   2.898  0.2910 -0.0231  0.0279
   56CHL1    H9 5288   1.655   2.128   2.930 -1.5405 -0.8365  0.8744
   56CHL1   C10 5289   1.600   2.221   2.745 -0.1331 -0.2096  1.0884
   56CHL1   C19 5290   1.524   2.347   2.691  0.3145 -0.6065  0.2129
   56CHL1  H19A 5291   1.422   2.347   2.734  0.5656 -1.5833  0.8292
   56CHL1  H19B 5292   1.578   2.439   2.723 -3.1637  1.5851  0.2785
   56CHL1  H19C 5293   1.530   2.348   2.580 -0.3577  1.4966  0.1512
   56CHL1    C1 5294   1.739   2.215   2.690 -0.0359  0.0048  0.1582
   56CHL1   H1A 5295   1.812   2.293   2.721  1.1756  0.0923 -2.5566
   56CHL1   H1B 5296   1.786   2.126   2.736  1.3862  0.3547 -0.5283
   56CHL1    C2 5297   1.769   2.172   2.543  0.6106 -0.0833 -0.0837
   56CHL1   H2A 5298   1.879   2.172   2.528  1.1300 -1.6001  3.0783
   56CHL1   H2B 5299   1.728   2.247   2.471 -1.7452 -1.4529 -0.2635
   56CHL1   C20 5300   1.519   2.401   3.435  0.5697  0.6345  0.3097
   56CHL1   H20 5301   1.430   2.467   3.424  0.3230  0.5946  1.8220
   56CHL1   C21 5302   1.643   2.489   3.419 -0.5902  0.2707 -0.3709
   56CHL1  H21A 5303   1.659   2.540   3.322  1.2926  1.5273  0.5527
   56CHL1  H21B 5304   1.742   2.440   3.435 -0.5135  0.2017 -1.0308
   56CHL1  H21C 5305   1.627   2.559   3.503 -1.3159 -1.1550  0.7349
   56CHL1   C22 5306   1.507   2.335   3.570  0.0579 -0.3442 -0.0222
   56CHL1  H22A 5307   1.415   2.275   3.582  0.2118 -0.3730  1.1899
   56CHL1  H22B 5308   1.590   2.261   3.575 -0.9834 -1.6516 -1.2909
   56CHL1   C23 5309   1.506   2.423   3.697 -0.3122 -0.0864  0.1801
   56CHL1  H23A 5310   1.503   2.355   3.785 -1.0334 -0.0527  0.1814
   56CHL1  H23B 5311   1.595   2.490   3.707 -0.9294  0.5601  1.5914
   56CHL1   C24 5312   1.378   2.511   3.703 -0.1633 -1.0124 -0.2298
   56CHL1  H24A 5313   1.389   2.582   3.618 -1.8498 -1.6645 -1.0341
   56CHL1  H24B 5314   1.288   2.449   3.688 -1.5171 -0.4135  4.0686
   56CHL1   C25 5315   1.373   2.614   3.821  0.0746 -0.8856 -0.5725
   56CHL1   H25 5316   1.290   2.688   3.808  1.9227  1.4313  0.1058
   56CHL1   C26 5317   1.346   2.539   3.950 -0.4500  0.0591  0.1504
   56CHL1  H26A 5318   1.242   2.499   3.948 -0.6086  0.4907 -0.6933
   56CHL1  H26B 5319   1.416   2.454   3.962  0.8491  1.1312  0.4056
   56CHL1  H26C 5320   1.356   2.601   4.042 -0.0584 -1.5137  1.2108
   56CHL1   C27 5321   1.497   2.714   3.833  0.1693  0.8452 -0.7434
   56CHL1  H27A 5322   1.504   2.777   3.742 -1.1738  1.1090 -0.6827
   56CHL1  H27B 5323   1.496   2.773   3.927 -1.7936  0.7862 -0.6777
   56CHL1  H27C 5324   1.588   2.651   3.842  0.0942  0.9710  1.1994
   57CHL1    C3 5325   4.468   0.287   2.157  0.1624  0.6333  0.2325
   57CHL1    H3 5326   4.524   0.383   2.158  2.4586 -0.3998 -4.0053
   57CHL1    O3 5327   4.415   0.254   2.029 -0.4244  0.1751 -0.6990
   57CHL1   H3' 5328   4.464   0.319   1.979  2.8106  0.1151  2.0029
   57CHL1    C4 5329   4.557   0.172   2.207  0.1693 -0.5399  0.1733
   57CHL1   H4A 5330   4.512   0.071   2.200  0.3961 -0.7694  1.6523
   57CHL1   H4B 5331   4.644   0.171   2.138 -1.4734 -0.8783 -1.9917
   57CHL1    C5 5332   4.596   0.197   2.349 -0.5712 -0.5723  0.4390
   57CHL1    C6 5333   4.730   0.210   2.383  0.8001 -0.2592  0.0428
   57CHL1    H6 5334   4.805   0.205   2.302 -0.7218 -1.6916 -1.3620
   57CHL1    C7 5335   4.778   0.230   2.526  0.9486 -0.3563 -0.3209
   57CHL1   H7A 5336   4.850   0.147   2.538  0.7721 -0.3863  0.6153
   57CHL1   H7B 5337   4.840   0.323   2.528  1.3668 -0.5221 -2.7709
   57CHL1    C8 5338   4.664   0.208   2.630  0.3505 -0.4763 -0.4622
   57CHL1    H8 5339   4.645   0.099   2.634 -0.7977 -0.2454  2.2723
   57CHL1   C14 5340   4.708   0.256   2.765  0.2539  0.7206 -0.2021
   57CHL1   H14 5341   4.737   0.361   2.747 -0.1655  0.9030  0.1741
   57CHL1   C15 5342   4.832   0.190   2.830  0.2383 -0.0300 -0.4026
   57CHL1  H15A 5343   4.834   0.079   2.825  1.3733 -0.0954  0.9105
   57CHL1  H15B 5344   4.927   0.240   2.802  0.7238  0.1161  1.4026
   57CHL1   C16 5345   4.818   0.230   2.977 -0.1078  0.3571 -0.1126
   57CHL1  H16A 5346   4.803   0.139   3.040 -1.4531  1.8834  1.8955
   57CHL1  H16B 5347   4.910   0.277   3.017  1.7118 -2.2694 -0.9785
   57CHL1   C17 5348   4.690   0.318   2.994  0.2071 -0.1916  0.2737
   57CHL1   H17 5349   4.726   0.419   2.965  0.5075 -0.8654 -1.9260
   57CHL1   C13 5350   4.600   0.269   2.876 -0.0217 -0.6035 -0.4241
   57CHL1   C18 5351   4.546   0.135   2.912  0.2533  0.5155  0.2793
   57CHL1  H18A 5352   4.465   0.152   2.986  0.4775  0.7921  0.4601
   57CHL1  H18B 5353   4.500   0.087   2.823  0.1384  2.3219 -0.6853
   57CHL1  H18C 5354   4.620   0.061   2.950 -1.8724 -0.8907  1.9247
   57CHL1   C12 5355   4.496   0.366   2.812 -0.6312  0.0973  0.0459
   57CHL1  H12A 5356   4.423   0.390   2.893 -0.4035  1.6574 -0.1780
   57CHL1  H12B 5357   4.545   0.463   2.787 -0.4276 -0.6806 -2.8902
   57CHL1   C11 5358   4.433   0.313   2.683 -0.2906 -0.2662  0.0363
   57CHL1  H11A 5359   4.385   0.217   2.711 -0.9130 -0.1093 -0.4747
   57CHL1  H11B 5360   4.365   0.394   2.648  0.3771 -0.0566 -0.8257
   57CHL1    C9 5361   4.538   0.289   2.572  0.2652 -0.2038  0.7705
   57CHL1    H9 5362   4.573   0.390   2.544 -2.1017  0.6513  0.6544
   57CHL1   C10 5363   4.486   0.225   2.447  0.0029 -0.6484 -0.0121
   57CHL1   C19 5364   4.407   0.105   2.491  0.0950  0.5595  0.1415
   57CHL1  H19A 5365   4.321   0.136   2.554  1.3634  1.2588  1.5937
   57CHL1  H19B 5366   4.370   0.043   2.406 -0.1735  0.9769 -0.0530
   57CHL1  H19C 5367   4.471   0.041   2.555 -0.8256 -1.3011 -0.7220
   57CHL1    C1 5368   4.386   0.335   2.387 -0.2519 -0.0589 -0.1039
   57CHL1   H1A 5369   4.304   0.334   2.462  0.3882 -0.2579  0.6088
   57CHL1   H1B 5370   4.431   0.436   2.396  2.8455 -1.2634 -0.7571
   57CHL1    C2 5371   4.344   0.304   2.243  0.4696 -0.0637 -0.9287
   57CHL1   H2A 5372   4.271   0.380   2.206  1.0581  0.3633 -1.2344
   57CHL1   H2B 5373   4.289   0.209   2.230  0.1148  0.2740 -2.0451
   57CHL1   C20 5374   4.637   0.314   3.140 -0.4311  0.5341  0.5719
   57CHL1   H20 5375   4.593   0.213   3.131  2.2408 -0.5706 -5.1357
   57CHL1   C21 5376   4.535   0.422   3.162 -0.3914 -0.2525 -0.0389
   57CHL1  H21A 5377   4.449   0.425   3.092  0.5118 -0.9167 -1.2358
   57CHL1  H21B 5378   4.595   0.516   3.156  1.2865 -1.1885  1.2223
   57CHL1  H21C 5379   4.487   0.410   3.261 -0.1454  0.9223  0.2392
   57CHL1   C22 5380   4.745   0.306   3.256  0.3869 -0.0925  0.5424
   57CHL1  H22A 5381   4.813   0.218   3.254 -1.1471 -1.3388  0.4566
   57CHL1  H22B 5382   4.801   0.400   3.245 -0.0076 -0.1855 -4.3443
   57CHL1   C23 5383   4.678   0.297   3.395  0.1042 -0.3651  0.3803
   57CHL1  H23A 5384   4.648   0.398   3.433  0.7564  0.8599 -2.1814
   57CHL1  H23B 5385   4.586   0.236   3.410 -0.8943  1.6892  3.8093
   57CHL1   C24 5386   4.774   0.247   3.498  0.1515  0.5046  0.1345
   57CHL1  H24A 5387   4.801   0.145   3.464  2.5812  0.8024  0.9475
   57CHL1  H24B 5388   4.869   0.302   3.481  0.7056 -0.6409 -0.6307
   57CHL1   C25 5389   4.724   0.243   3.649 -0.4886  0.4871 -0.6130
   57CHL1   H25 5390   4.623   0.197   3.649 -0.5830  0.6723 -0.0265
   57CHL1   C26 5391   4.821   0.152   3.724 -1.0945  0.6229 -0.2219
   57CHL1  H26A 5392   4.915   0.205   3.747 -0.4708  0.3809 -2.0146
   57CHL1  H26B 5393   4.769   0.138   3.821  0.2201  1.9167  0.7092
   57CHL1  H26C 5394   4.821   0.054   3.672 -2.6569 -1.0033  2.5962
   57CHL1   C27 5395   4.722   0.382   3.707 -0.7610  0.2673  0.5171
   57CHL1  H27A 5396   4.825   0.423   3.703 -0.8383  0.8064  2.6430
   57CHL1  H27B 5397   4.649   0.452   3.662 -0.3442 -0.2442 -1.0342
   57CHL1  H27C 5398   4.688   0.383   3.813 -1.2875  2.0283  0.3530
   58CHL1    C3 5399   4.787   1.667   2.494  0.0524 -0.1473  0.5779
   58CHL1    H3 5400   4.756   1.772   2.509 -3.7667 -0.5224 -3.0165
   58CHL1    O3 5401   4.790   1.641   2.352  0.0759  0.5152 -0.4485
   58CHL1   H3' 5402   4.703   1.659   2.315  0.4649 -2.1237 -3.0263
   58CHL1    C4 5403   4.920   1.622   2.556  0.2151 -0.8373  0.0458
   58CHL1   H4A 5404   4.951   1.517   2.536 -0.1472 -1.1539  1.0813
   58CHL1   H4B 5405   4.999   1.681   2.505 -0.6891  1.1323  0.8028
   58CHL1    C5 5406   4.934   1.638   2.704 -0.2484 -0.3880 -0.5296
   58CHL1    C6 5407   5.029   1.701   2.771  0.7349  0.6277 -0.4531
   58CHL1    H6 5408   5.111   1.752   2.720 -0.3438  2.3861 -0.5359
   58CHL1    C7 5409   5.044   1.705   2.922 -0.2205 -0.0912 -0.0169
   58CHL1   H7A 5410   5.144   1.680   2.963  0.5657  1.1163 -1.1010
   58CHL1   H7B 5411   5.032   1.810   2.956 -0.0755  0.0040 -0.2530
   58CHL1    C8 5412   4.949   1.609   2.991 -0.1924  0.3293 -0.2902
   58CHL1    H8 5413   4.996   1.509   2.991 -0.3236  0.2629  0.0374
   58CHL1   C14 5414   4.934   1.653   3.141 -0.0330  0.0626 -0.3075
   58CHL1   H14 5415   4.876   1.747   3.153  0.8881  0.2971  3.6547
   58CHL1   C15 5416   5.060   1.694   3.208 -0.4667  0.1087  0.1792
   58CHL1  H15A 5417   5.139   1.622   3.175  0.4105  1.1312 -0.0295
   58CHL1  H15B 5418   5.086   1.798   3.180 -0.9060  0.0966 -0.2767
   58CHL1   C16 5419   5.030   1.679   3.356  0.9601  0.2732 -0.4734
   58CHL1  H16A 5420   5.097   1.602   3.400 -0.1943 -0.5121 -0.0396
   58CHL1  H16B 5421   5.053   1.778   3.402 -0.5153  0.1467  0.6053
   58CHL1   C17 5422   4.877   1.632   3.368 -0.5140 -0.2061 -1.1981
   58CHL1   H17 5423   4.825   1.730   3.363 -0.6534 -0.0306  1.8485
   58CHL1   C13 5424   4.855   1.563   3.237  0.9274 -0.1545  0.3756
   58CHL1   C18 5425   4.915   1.419   3.230  0.5341  0.2228  0.0705
   58CHL1  H18A 5426   4.844   1.346   3.275  0.6640  0.2696  0.3577
   58CHL1  H18B 5427   4.923   1.378   3.127  0.4693 -0.9357  0.5059
   58CHL1  H18C 5428   5.016   1.429   3.276  1.3268 -1.2794 -1.2502
   58CHL1   C12 5429   4.713   1.555   3.176 -0.0831  1.0213  0.4554
   58CHL1  H12A 5430   4.647   1.480   3.224 -1.9411  1.3867 -1.3769
   58CHL1  H12B 5431   4.667   1.654   3.200 -0.6113  1.3825 -1.8057
   58CHL1   C11 5432   4.706   1.532   3.017  0.8291 -0.1479  0.5850
   58CHL1  H11A 5433   4.735   1.425   3.016 -1.2132 -0.7354  0.2058
   58CHL1  H11B 5434   4.602   1.524   2.978  0.5587  1.5064  0.9048
   58CHL1    C9 5435   4.806   1.618   2.935 -0.1618  0.3313  0.8550
   58CHL1    H9 5436   4.767   1.722   2.933 -0.4809  0.3222  3.5437
   58CHL1   C10 5437   4.809   1.576   2.782  0.4726  0.1576 -0.3047
   58CHL1   C19 5438   4.832   1.423   2.777  0.6441 -0.4478  0.1458
   58CHL1  H19A 5439   4.759   1.355   2.827  3.2833 -1.6783  2.6403
   58CHL1  H19B 5440   4.853   1.391   2.673  2.0390  0.7327  0.0248
   58CHL1  H19C 5441   4.922   1.397   2.838  1.9799  2.6999 -0.3049
   58CHL1    C1 5442   4.678   1.621   2.715  0.0292 -0.0708  0.0438
   58CHL1   H1A 5443   4.584   1.579   2.757 -0.4280  0.8706  0.0048
   58CHL1   H1B 5444   4.669   1.732   2.716 -0.5524 -0.1032 -0.4293
   58CHL1    C2 5445   4.669   1.587   2.559  0.1463 -0.2402 -0.2108
   58CHL1   H2A 5446   4.577   1.626   2.509 -0.6662 -2.3787 -0.4792
   58CHL1   H2B 5447   4.691   1.482   2.534 -1.3752 -0.6941  0.2345
   58CHL1   C20 5448   4.841   1.570   3.503 -1.1251 -0.1548  0.2850
   58CHL1   H20 5449   4.890   1.470   3.506  1.3996  0.9242 -1.5445
   58CHL1   C21 5450   4.691   1.555   3.520 -0.5973  0.0606  0.5936
   58CHL1  H21A 5451   4.629   1.646   3.506  0.0252  0.3327 -0.5624
   58CHL1  H21B 5452   4.652   1.507   3.612 -0.8812 -0.9721 -0.0426
   58CHL1  H21C 5453   4.649   1.493   3.437 -0.0437 -0.1226  0.4434
   58CHL1   C22 5454   4.895   1.652   3.621  0.6307 -0.4961 -0.1166
   58CHL1  H22A 5455   4.998   1.692   3.608 -0.1134  2.6583  2.5367
   58CHL1  H22B 5456   4.819   1.733   3.628  0.1811 -0.8286 -0.9593
   58CHL1   C23 5457   4.881   1.581   3.754  0.1391 -0.2162 -0.1951
   58CHL1  H23A 5458   4.771   1.566   3.765  0.1376 -0.1808 -0.1614
   58CHL1  H23B 5459   4.935   1.484   3.747  0.7659  0.0813  0.3814
   58CHL1   C24 5460   4.929   1.683   3.866 -0.3133 -0.5087  0.4262
   58CHL1  H24A 5461   5.036   1.709   3.856 -0.5494  0.1030 -0.6970
   58CHL1  H24B 5462   4.872   1.776   3.844  0.9274  0.2084  0.1373
   58CHL1   C25 5463   4.896   1.638   4.008 -0.9923 -0.4132 -0.2104
   58CHL1   H25 5464   4.917   1.728   4.070 -1.0419 -0.8907  0.5067
   58CHL1   C26 5465   4.754   1.585   4.022 -0.2189 -0.0003 -0.1236
   58CHL1  H26A 5466   4.690   1.671   3.994  1.0644  1.0779  0.1729
   58CHL1  H26B 5467   4.737   1.502   3.949  1.8821 -1.7120  1.2034
   58CHL1  H26C 5468   4.725   1.550   4.124  1.0764  0.6266  0.4744
   58CHL1   C27 5469   5.001   1.531   4.056 -0.0473  0.4293 -0.6655
   58CHL1  H27A 5470   4.989   1.438   3.996 -0.4356  0.5287 -0.7414
   58CHL1  H27B 5471   5.103   1.565   4.028  0.4938 -1.4152 -1.1268
   58CHL1  H27C 5472   5.000   1.498   4.162 -1.0967 -1.3898 -1.1969
   59CHL1    C3 5473   3.790   1.042   2.519 -0.3565 -0.0390  0.3228
   59CHL1    H3 5474   3.869   0.967   2.537 -1.9142 -2.5091 -2.2821
   59CHL1    O3 5475   3.783   1.059   2.378  0.0556 -0.2478  0.2870
   59CHL1   H3' 5476   3.713   1.120   2.355 -2.5463 -2.1650  2.5182
   59CHL1    C4 5477   3.659   0.994   2.570 -0.0864  0.1098 -0.0507
   59CHL1   H4A 5478   3.583   1.055   2.517  1.3570  2.5507  0.5147
   59CHL1   H4B 5479   3.643   0.892   2.530 -2.2369  0.5324 -0.4034
   59CHL1    C5 5480   3.651   0.999   2.724  0.1532 -0.3141  0.2356
   59CHL1    C6 5481   3.637   0.882   2.793  0.0470 -0.0964  0.1110
   59CHL1    H6 5482   3.608   0.794   2.734 -2.5539  1.0711 -0.4861
   59CHL1    C7 5483   3.621   0.872   2.941  0.3228  0.4871 -0.4548
   59CHL1   H7A 5484   3.530   0.816   2.970  2.4590 -1.9456  2.1114
   59CHL1   H7B 5485   3.695   0.802   2.986  0.2039 -0.3173 -1.4688
   59CHL1    C8 5486   3.618   1.007   3.019 -0.2866 -0.5578 -0.3948
   59CHL1    H8 5487   3.516   1.050   3.011 -0.1885 -0.7009 -3.2792
   59CHL1   C14 5488   3.650   0.989   3.168 -0.1134  0.3411 -0.4740
   59CHL1   H14 5489   3.755   0.955   3.173  0.4298  2.1117  2.2549
   59CHL1   C15 5490   3.572   0.882   3.243  0.0088  0.9272 -0.3815
   59CHL1  H15A 5491   3.462   0.885   3.232  0.0256  1.9294 -0.3666
   59CHL1  H15B 5492   3.602   0.779   3.211 -0.3091  0.0636  1.9434
   59CHL1   C16 5493   3.610   0.918   3.385  0.3041  0.5553 -0.0236
   59CHL1  H16A 5494   3.516   0.924   3.445 -0.4419 -2.1651 -0.7643
   59CHL1  H16B 5495   3.670   0.833   3.425  0.6451  1.3449  1.2012
   59CHL1   C17 5496   3.690   1.058   3.385 -0.0575 -0.4471 -0.7469
   59CHL1   H17 5497   3.798   1.037   3.389  0.2466  1.1252  0.2328
   59CHL1   C13 5498   3.662   1.115   3.256  0.2432  0.2870  0.2627
   59CHL1   C18 5499   3.521   1.179   3.252  0.0688 -0.4432  0.1760
   59CHL1  H18A 5500   3.482   1.198   3.149 -0.2294  0.2345  0.4107
   59CHL1  H18B 5501   3.447   1.110   3.299 -2.1072  0.4939 -1.6546
   59CHL1  H18C 5502   3.517   1.271   3.314  1.4744 -0.3753  0.1960
   59CHL1   C12 5503   3.773   1.206   3.194 -0.3746  0.2170  1.2010
   59CHL1  H12A 5504   3.763   1.306   3.242 -0.5165  0.9493 -0.2901
   59CHL1  H12B 5505   3.876   1.166   3.199  0.0891  0.9769 -1.1705
   59CHL1   C11 5506   3.739   1.225   3.043  0.2914  0.2006  0.5794
   59CHL1  H11A 5507   3.645   1.281   3.023  0.6231  0.1468 -1.2616
   59CHL1  H11B 5508   3.822   1.284   2.999 -1.1769  0.9376 -1.3543
   59CHL1    C9 5509   3.717   1.103   2.956  0.1035  0.2134  0.3266
   59CHL1    H9 5510   3.813   1.049   2.950 -0.4147 -0.6906 -0.0660
   59CHL1   C10 5511   3.692   1.132   2.796  0.5213 -0.7765 -0.4397
   59CHL1   C19 5512   3.581   1.241   2.771 -0.2768  0.5187 -0.1212
   59CHL1  H19A 5513   3.594   1.337   2.827 -1.9774  0.4836  0.4136
   59CHL1  H19B 5514   3.576   1.272   2.665  0.6020  0.8378 -0.0796
   59CHL1  H19C 5515   3.482   1.207   2.809  0.1117 -0.8898 -0.3332
   59CHL1    C1 5516   3.824   1.172   2.728  0.8588 -0.7315  0.1616
   59CHL1   H1A 5517   3.856   1.271   2.766  1.5622 -1.5739  1.8665
   59CHL1   H1B 5518   3.905   1.106   2.764  1.5544  0.7302  1.3814
   59CHL1    C2 5519   3.830   1.179   2.576 -0.2213 -0.8278 -0.4204
   59CHL1   H2A 5520   3.937   1.196   2.550  0.0576 -1.1861  0.4712
   59CHL1   H2B 5521   3.773   1.264   2.533  2.0506  1.1238  0.1836
   59CHL1   C20 5522   3.654   1.131   3.518  0.5580  0.0971  0.2077
   59CHL1   H20 5523   3.545   1.151   3.527  0.5286  0.6860 -1.1211
   59CHL1   C21 5524   3.724   1.258   3.521 -0.9296  0.2706  0.1586
   59CHL1  H21A 5525   3.831   1.230   3.515 -0.8595  0.2300  1.3322
   59CHL1  H21B 5526   3.712   1.311   3.618  0.4409  0.4663  0.2348
   59CHL1  H21C 5527   3.682   1.331   3.449 -0.9813  1.1327  1.0439
   59CHL1   C22 5528   3.696   1.042   3.636  0.6557  0.4463 -0.4853
   59CHL1  H22A 5529   3.642   0.945   3.643 -1.3691  1.6193  1.1581
   59CHL1  H22B 5530   3.806   1.024   3.632  0.6269  0.1273  0.1193
   59CHL1   C23 5531   3.664   1.111   3.774 -1.0249 -0.4763  0.1180
   59CHL1  H23A 5532   3.738   1.191   3.795 -4.1447  3.3128 -2.0147
   59CHL1  H23B 5533   3.570   1.168   3.755  0.9045  2.7652 -0.4575
   59CHL1   C24 5534   3.650   1.026   3.897  0.3920 -0.2127 -0.6056
   59CHL1  H24A 5535   3.629   0.925   3.856  1.3222 -0.2890 -0.9071
   59CHL1  H24B 5536   3.743   1.023   3.957 -0.9701 -1.1049  1.5758
   59CHL1   C25 5537   3.537   1.063   3.992 -0.2503  0.1477  0.0943
   59CHL1   H25 5538   3.436   1.059   3.945 -0.1554 -0.9046 -0.0320
   59CHL1   C26 5539   3.550   0.969   4.116  0.1904  0.5763  0.2966
   59CHL1  H26A 5540   3.657   0.955   4.144  0.6124  0.2826 -1.3548
   59CHL1  H26B 5541   3.480   0.994   4.198 -0.1277 -0.1162  0.2453
   59CHL1  H26C 5542   3.526   0.862   4.098 -2.2658  0.4665  3.4583
   59CHL1   C27 5543   3.555   1.202   4.049 -0.2453  0.7163 -0.0835
   59CHL1  H27A 5544   3.482   1.209   4.133 -1.2314  0.7462 -0.9193
   59CHL1  H27B 5545   3.661   1.208   4.081  0.6480 -2.1953 -2.0331
   59CHL1  H27C 5546   3.554   1.293   3.984 -2.1606  1.2172  0.5675
   60CHL1    C3 5547   5.901   5.390   2.592  0.6699  0.0002 -0.1138
   60CHL1    H3 5548   5.858   5.288   2.584  0.6197  0.0559 -0.5516
   60CHL1    O3 5549   5.888   5.447   2.464 -0.6333  0.1041 -0.8870
   60CHL1   H3' 5550   5.796   5.430   2.442 -0.2955 -1.9009 -0.9493
   60CHL1    C4 5551   5.823   5.467   2.702  0.1972  0.2285 -0.1442
   60CHL1   H4A 5552   5.851   5.575   2.704  0.4725  0.1404  0.8240
   60CHL1   H4B 5553   5.717   5.456   2.669 -0.3517 -2.4430  2.1090
   60CHL1    C5 5554   5.845   5.410   2.840 -0.1313 -0.7728 -0.2025
   60CHL1    C6 5555   5.741   5.360   2.911  0.4527  0.0066 -0.1751
   60CHL1    H6 5556   5.641   5.355   2.866  0.9362  0.4515 -1.3406
   60CHL1    C7 5557   5.759   5.300   3.047 -0.0718  0.7126 -0.6014
   60CHL1   H7A 5558   5.685   5.333   3.124  2.9361  0.4280  2.6692
   60CHL1   H7B 5559   5.757   5.189   3.044  0.6247  0.7163 -1.7026
   60CHL1    C8 5560   5.891   5.340   3.120  0.1456 -0.0000 -0.1063
   60CHL1    H8 5561   5.878   5.445   3.154 -0.8883 -0.1343 -0.0527
   60CHL1   C14 5562   5.911   5.239   3.234 -0.8741  0.0852  0.3628
   60CHL1   H14 5563   5.937   5.144   3.183 -2.2556  0.1330 -0.4881
   60CHL1   C15 5564   5.800   5.214   3.339  0.0773  0.9161  0.0864
   60CHL1  H15A 5565   5.761   5.315   3.361  0.6775  1.1058  0.2970
   60CHL1  H15B 5566   5.724   5.151   3.288  0.4526  0.3423  0.2223
   60CHL1   C16 5567   5.876   5.134   3.453  0.0103 -0.4854  0.1962
   60CHL1  H16A 5568   5.844   5.182   3.548 -0.1330  1.3168 -0.7264
   60CHL1  H16B 5569   5.845   5.028   3.459 -1.7128 -0.0469 -0.3314
   60CHL1   C17 5570   6.030   5.162   3.427  0.0687  0.3406 -0.0232
   60CHL1   H17 5571   6.065   5.081   3.361  0.9967  1.7218 -1.2888
   60CHL1   C13 5572   6.029   5.281   3.321 -0.6887  0.2138  0.0023
   60CHL1   C18 5573   6.018   5.423   3.391  0.1860  0.3041  0.2097
   60CHL1  H18A 5574   5.924   5.423   3.450  0.0562  0.7381  0.0064
   60CHL1  H18B 5575   6.096   5.446   3.468 -0.3685  2.9557  0.0817
   60CHL1  H18C 5576   6.023   5.509   3.321  1.8685  1.3474  1.5202
   60CHL1   C12 5577   6.151   5.271   3.227  0.0222  0.5275 -0.8670
   60CHL1  H12A 5578   6.243   5.295   3.285 -0.9358 -0.2207  1.0750
   60CHL1  H12B 5579   6.162   5.172   3.180  0.6661 -0.1201  0.5807
   60CHL1   C11 5580   6.135   5.366   3.104  0.1899 -0.4339 -0.2931
   60CHL1  H11A 5581   6.144   5.471   3.139  4.5565 -0.8711  0.5064
   60CHL1  H11B 5582   6.214   5.349   3.028  1.7532 -2.2683  1.5873
   60CHL1    C9 5583   6.005   5.338   3.020  0.0070  0.6232  0.0383
   60CHL1    H9 5584   6.016   5.233   2.984  2.3136  0.9738 -0.4682
   60CHL1   C10 5585   5.989   5.417   2.892 -0.1297  0.0257  0.9138
   60CHL1   C19 5586   6.040   5.565   2.915 -0.3465  0.6682  0.2609
   60CHL1  H19A 5587   6.149   5.570   2.936 -0.2427  0.6186 -0.2555
   60CHL1  H19B 5588   6.009   5.628   2.830 -0.3873  3.4587  2.2156
   60CHL1  H19C 5589   5.997   5.599   3.011  1.2868  0.6960  1.0168
   60CHL1    C1 5590   6.084   5.352   2.787 -0.7304  0.4500 -0.0279
   60CHL1   H1A 5591   6.192   5.373   2.796  0.0513 -1.9330 -2.7010
   60CHL1   H1B 5592   6.068   5.242   2.790 -2.4418  0.5651 -2.1518
   60CHL1    C2 5593   6.052   5.398   2.638 -0.1812 -1.0518 -0.1000
   60CHL1   H2A 5594   6.121   5.337   2.575 -0.3251  0.8230 -2.2146
   60CHL1   H2B 5595   6.088   5.503   2.629 -1.0726 -0.7218  0.1184
   60CHL1   C20 5596   6.117   5.163   3.545 -0.2637  0.7334  0.0419
   60CHL1   H20 5597   6.215   5.203   3.511 -0.2654 -1.1772 -2.5000
   60CHL1   C21 5598   6.140   5.012   3.588  0.4172 -0.1367  0.2915
   60CHL1  H21A 5599   6.216   4.998   3.668  1.1186 -1.0613 -0.5058
   60CHL1  H21B 5600   6.162   4.953   3.496 -1.4999 -1.1067  0.3952
   60CHL1  H21C 5601   6.044   4.971   3.626 -0.6017  0.5703 -1.4175
   60CHL1   C22 5602   6.070   5.242   3.673 -0.1452  0.3648 -0.1573
   60CHL1  H22A 5603   6.023   5.341   3.651  0.3315  0.4833 -0.6760
   60CHL1  H22B 5604   6.000   5.172   3.723 -2.4550  0.7324 -2.6292
   60CHL1   C23 5605   6.180   5.257   3.779  0.1117 -0.5242 -0.0609
   60CHL1  H23A 5606   6.209   5.154   3.805 -0.6179 -0.3128  1.7019
   60CHL1  H23B 5607   6.273   5.312   3.751 -0.1515  1.9355  3.3146
   60CHL1   C24 5608   6.131   5.338   3.902  0.8811 -0.2570  0.6298
   60CHL1  H24A 5609   6.115   5.445   3.878 -2.0821 -0.5502  0.9464
   60CHL1  H24B 5610   6.029   5.303   3.927 -0.5310  3.4687  0.5564
   60CHL1   C25 5611   6.208   5.327   4.037 -0.2160 -1.0154 -0.4505
   60CHL1   H25 5612   6.316   5.346   4.018 -0.7207  1.2882 -1.3431
   60CHL1   C26 5613   6.146   5.406   4.147 -0.0898 -0.0085 -0.6642
   60CHL1  H26A 5614   6.187   5.396   4.250 -1.3648  3.8917  0.3906
   60CHL1  H26B 5615   6.163   5.512   4.119  0.6084 -0.0851 -0.5666
   60CHL1  H26C 5616   6.037   5.386   4.152 -0.2280  0.8911  0.4393
   60CHL1   C27 5617   6.201   5.180   4.076  0.2910  0.0649 -0.0907
   60CHL1  H27A 5618   6.094   5.152   4.088  0.8918 -2.4277  0.0908
   60CHL1  H27B 5619   6.261   5.120   4.005  3.2090  0.2286  2.0710
   60CHL1  H27C 5620   6.257   5.163   4.171  2.0886  0.6652 -0.9977
   61CHL1    C3 5621   5.800   1.029   2.632  0.9782  0.0489  0.2015
   61CHL1    H3 5622   5.722   1.106   2.615 -0.0635 -1.3123 -1.5358
   61CHL1    O3 5623   5.836   0.987   2.505  0.1893 -0.2586 -0.3510
   61CHL1   H3' 5624   5.860   0.896   2.525  1.2830  0.2542  0.8481
   61CHL1    C4 5625   5.927   1.099   2.695  0.4343 -0.2482 -0.2530
   61CHL1   H4A 5626   6.010   1.025   2.692 -0.1858 -0.9069 -2.5754
   61CHL1   H4B 5627   5.956   1.177   2.621  1.3858  0.2186  0.5854
   61CHL1    C5 5628   5.901   1.156   2.835  0.3883 -0.0977  0.6223
   61CHL1    C6 5629   5.934   1.284   2.864  0.6278  0.4585  0.2064
   61CHL1    H6 5630   5.971   1.353   2.786 -1.6985  1.9948  0.3552
   61CHL1    C7 5631   5.923   1.336   2.999  0.8727 -0.5453  0.4772
   61CHL1   H7A 5632   6.019   1.384   3.026  0.9932 -0.4701 -0.0744
   61CHL1   H7B 5633   5.842   1.412   2.997  0.7064 -0.7301 -0.1742
   61CHL1    C8 5634   5.890   1.226   3.105  0.1175 -0.3224  0.0516
   61CHL1    H8 5635   5.988   1.178   3.127  0.1907 -0.7209 -1.0861
   61CHL1   C14 5636   5.841   1.289   3.230  0.6586 -0.9583  0.3470
   61CHL1   H14 5637   5.741   1.335   3.217  1.8748  1.7596  0.0266
   61CHL1   C15 5638   5.920   1.407   3.289  0.1630  0.1832 -0.0426
   61CHL1  H15A 5639   6.030   1.395   3.286 -0.0432 -3.5945  1.4870
   61CHL1  H15B 5640   5.891   1.508   3.254 -1.6752  0.2103  1.3971
   61CHL1   C16 5641   5.877   1.402   3.438 -0.3292  0.0794 -0.2940
   61CHL1  H16A 5642   5.963   1.400   3.508 -1.1685  2.2694  0.9078
   61CHL1  H16B 5643   5.823   1.495   3.467  2.6701  1.2153  2.2145
   61CHL1   C17 5644   5.778   1.282   3.455  0.0440  0.1914  0.5504
   61CHL1   H17 5645   5.674   1.315   3.432 -0.6233 -2.5667 -0.8223
   61CHL1   C13 5646   5.820   1.187   3.344  0.3223  0.1598 -0.9242
   61CHL1   C18 5647   5.953   1.123   3.387 -0.3789  0.3026 -0.6745
   61CHL1  H18A 5648   6.030   1.181   3.442 -0.2021 -2.0056  1.6898
   61CHL1  H18B 5649   5.923   1.042   3.456  0.9643 -0.3920 -0.8658
   61CHL1  H18C 5650   5.996   1.071   3.299  1.8625 -0.8612  0.9935
   61CHL1   C12 5651   5.711   1.083   3.308 -0.4273 -0.1149  0.1680
   61CHL1  H12A 5652   5.720   1.005   3.387  0.8514 -0.7271 -0.5623
   61CHL1  H12B 5653   5.613   1.136   3.305  0.0978  0.8266 -0.9275
   61CHL1   C11 5654   5.740   1.025   3.171 -0.8236  0.5697 -0.3757
   61CHL1  H11A 5655   5.820   0.949   3.183  0.3779  1.5604 -1.8426
   61CHL1  H11B 5656   5.650   0.970   3.135  0.1249  0.5728 -2.9157
   61CHL1    C9 5657   5.788   1.118   3.057  0.1187 -0.0291  0.5291
   61CHL1    H9 5658   5.701   1.177   3.024  1.6248  1.9364 -0.1404
   61CHL1   C10 5659   5.836   1.047   2.926 -0.4062  0.4128  0.2971
   61CHL1   C19 5660   5.947   0.946   2.953  0.2881  0.2380  0.3548
   61CHL1  H19A 5661   6.009   1.006   3.023 -0.3180  0.4765  0.6947
   61CHL1  H19B 5662   5.915   0.852   3.003  1.7489  0.7232  2.3383
   61CHL1  H19C 5663   6.009   0.913   2.867 -0.8278 -2.0006  0.3309
   61CHL1    C1 5664   5.709   0.983   2.855 -0.1408  0.6253 -0.2073
   61CHL1   H1A 5665   5.665   0.902   2.917 -0.1075  0.6369 -0.1684
   61CHL1   H1B 5666   5.626   1.057   2.850 -0.3720  0.3965  0.1959
   61CHL1    C2 5667   5.750   0.917   2.721  0.0283  0.6771 -0.0540
   61CHL1   H2A 5668   5.669   0.858   2.673 -0.3976 -0.4544  1.9077
   61CHL1   H2B 5669   5.832   0.844   2.735 -0.1920  0.2298 -1.0622
   61CHL1   C20 5670   5.775   1.243   3.597  0.0744 -0.1986 -0.8554
   61CHL1   H20 5671   5.873   1.192   3.608 -0.3952 -1.1803 -1.1762
   61CHL1   C21 5672   5.671   1.144   3.629 -0.1804 -0.3800 -0.6826
   61CHL1  H21A 5673   5.697   1.050   3.576  2.1942 -0.7758  1.0514
   61CHL1  H21B 5674   5.578   1.191   3.591 -0.3848 -0.9491 -0.8887
   61CHL1  H21C 5675   5.670   1.131   3.739  2.0817  1.4507 -0.3794
   61CHL1   C22 5676   5.773   1.358   3.708 -0.6131  0.5904 -0.0948
   61CHL1  H22A 5677   5.767   1.315   3.810 -1.8582 -2.1643 -1.2278
   61CHL1  H22B 5678   5.865   1.420   3.701 -0.1036 -0.2270 -0.7723
   61CHL1   C23 5679   5.662   1.456   3.701 -0.0568  0.0130  0.1300
   61CHL1  H23A 5680   5.652   1.507   3.603 -1.6873 -0.6391 -0.0747
   61CHL1  H23B 5681   5.563   1.406   3.712 -1.1922  2.4846  2.2788
   61CHL1   C24 5682   5.665   1.570   3.805 -0.3857 -0.2770 -0.7730
   61CHL1  H24A 5683   5.659   1.543   3.912 -2.4630  3.8716  0.3428
   61CHL1  H24B 5684   5.764   1.619   3.797 -1.5021  2.4346  0.6250
   61CHL1   C25 5685   5.548   1.664   3.788 -0.3389  0.3676  0.0899
   61CHL1   H25 5686   5.541   1.693   3.681 -1.6380 -0.0188  0.0627
   61CHL1   C26 5687   5.419   1.598   3.842  0.5482  0.4491 -0.2082
   61CHL1  H26A 5688   5.401   1.604   3.951 -5.4862 -3.1959 -0.5790
   61CHL1  H26B 5689   5.333   1.658   3.806  0.7863  0.5081 -0.7000
   61CHL1  H26C 5690   5.406   1.492   3.810 -0.7117  0.3278  0.6468
   61CHL1   C27 5691   5.579   1.789   3.872  0.0815 -0.4065  0.2826
   61CHL1  H27A 5692   5.680   1.834   3.858  0.5818 -0.6970  2.5405
   61CHL1  H27B 5693   5.495   1.861   3.865 -0.7272 -1.3588 -0.0782
   61CHL1  H27C 5694   5.579   1.764   3.980  1.7774 -2.2024 -0.0613
   62CHL1    C3 5695   2.538   0.896   2.553 -0.7902  0.6135  0.2250
   62CHL1    H3 5696   2.626   0.959   2.577  1.3043 -0.5689 -3.3800
   62CHL1    O3 5697   2.554   0.828   2.427  0.0547 -0.0853 -0.1088
   62CHL1   H3' 5698   2.549   0.895   2.358  1.0354 -0.2776 -0.3819
   62CHL1    C4 5699   2.538   0.784   2.667 -0.2695 -0.7561  0.2600
   62CHL1   H4A 5700   2.484   0.689   2.646 -0.6934 -1.0120  2.2864
   62CHL1   H4B 5701   2.646   0.758   2.672 -0.2942 -0.7322  0.9976
   62CHL1    C5 5702   2.496   0.827   2.796 -0.3713 -0.0102 -0.5524
   62CHL1    C6 5703   2.572   0.799   2.903 -0.1345  0.3180  0.1589
   62CHL1    H6 5704   2.663   0.738   2.893  0.0644  0.4401  1.1154
   62CHL1    C7 5705   2.530   0.827   3.038  0.1070  0.1314 -0.2809
   62CHL1   H7A 5706   2.542   0.733   3.097  4.5882 -0.1426 -1.2286
   62CHL1   H7B 5707   2.584   0.915   3.077 -1.1215  0.8242 -0.1136
   62CHL1    C8 5708   2.378   0.868   3.049 -0.3284 -0.1995 -0.5531
   62CHL1    H8 5709   2.313   0.778   3.042 -0.1540 -0.3056 -0.8444
   62CHL1   C14 5710   2.364   0.934   3.183 -0.3477  0.3283 -0.9638
   62CHL1   H14 5711   2.414   1.031   3.164  1.0392 -0.4565 -1.5188
   62CHL1   C15 5712   2.423   0.874   3.309 -0.0112 -0.1437  0.1137
   62CHL1  H15A 5713   2.394   0.767   3.310 -1.8400  0.2424 -2.1636
   62CHL1  H15B 5714   2.532   0.893   3.307  0.1254 -0.8241  0.7462
   62CHL1   C16 5715   2.348   0.940   3.420  0.5610 -0.2219  0.3228
   62CHL1  H16A 5716   2.293   0.865   3.480  1.3694  0.5804  2.1445
   62CHL1  H16B 5717   2.417   0.992   3.489  1.7652 -0.7150 -0.4622
   62CHL1   C17 5718   2.240   1.030   3.357  0.3083 -0.5835 -0.1204
   62CHL1   H17 5719   2.288   1.129   3.340  0.8626 -0.6103  1.1844
   62CHL1   C13 5720   2.218   0.969   3.218 -0.7004  0.1765  0.4103
   62CHL1   C18 5721   2.135   0.840   3.223  0.3204 -0.0784 -0.1580
   62CHL1  H18A 5722   2.028   0.862   3.241  0.7840  3.2151 -0.8286
   62CHL1  H18B 5723   2.121   0.795   3.122  0.3577 -0.5542  0.0441
   62CHL1  H18C 5724   2.169   0.762   3.295  2.0347 -0.2767 -1.1274
   62CHL1   C12 5725   2.172   1.061   3.101  0.2774  0.1356  0.5359
   62CHL1  H12A 5726   2.063   1.080   3.104 -0.0956 -1.8399  1.5829
   62CHL1  H12B 5727   2.226   1.157   3.112 -1.9522  1.4798  0.2762
   62CHL1   C11 5728   2.195   1.013   2.959 -0.0569 -0.0970 -0.0745
   62CHL1  H11A 5729   2.125   0.927   2.948  0.8914 -1.0766  1.2191
   62CHL1  H11B 5730   2.163   1.082   2.878  2.1625  0.2322 -0.7367
   62CHL1    C9 5731   2.339   0.969   2.936 -0.4380  0.3446 -0.2617
   62CHL1    H9 5732   2.405   1.055   2.959 -0.0619 -0.5134  2.2369
   62CHL1   C10 5733   2.366   0.909   2.803 -0.3392  0.0950  0.7433
   62CHL1   C19 5734   2.253   0.807   2.761  0.2426  0.2894  1.1112
   62CHL1  H19A 5735   2.274   0.740   2.676 -0.9207 -0.1130  1.1270
   62CHL1  H19B 5736   2.234   0.737   2.845  0.2261  0.2733  1.0936
   62CHL1  H19C 5737   2.161   0.868   2.744  1.5723  2.6576  1.8132
   62CHL1    C1 5738   2.363   1.026   2.694 -0.3238  0.5756  0.2702
   62CHL1   H1A 5739   2.266   1.079   2.684  0.6256  2.0332 -2.1226
   62CHL1   H1B 5740   2.427   1.108   2.735 -2.1077  2.5599 -0.7132
   62CHL1    C2 5741   2.399   0.974   2.555  0.5677 -0.0378  0.2867
   62CHL1   H2A 5742   2.409   1.060   2.485  0.5205 -0.2549  0.0147
   62CHL1   H2B 5743   2.310   0.917   2.520 -1.2818  1.0521  2.8306
   62CHL1   C20 5744   2.120   1.060   3.448 -0.3994  0.1015 -0.3590
   62CHL1   H20 5745   2.087   0.967   3.499  0.2860  0.6519  1.1466
   62CHL1   C21 5746   2.011   1.119   3.362 -0.4160  0.1715  0.1777
   62CHL1  H21A 5747   1.961   1.060   3.283 -1.8248 -0.5230  1.5376
   62CHL1  H21B 5748   2.054   1.208   3.310 -2.3346  1.3309  0.4526
   62CHL1  H21C 5749   1.928   1.161   3.424 -0.7647 -0.1178 -0.0888
   62CHL1   C22 5750   2.157   1.147   3.569 -0.1317  0.5023  0.2972
   62CHL1  H22A 5751   2.253   1.103   3.606  0.6611  2.2435  0.3863
   62CHL1  H22B 5752   2.179   1.251   3.538  1.4051  0.5268  1.3409
   62CHL1   C23 5753   2.053   1.129   3.681 -0.1498  0.3109 -0.3404
   62CHL1  H23A 5754   1.957   1.175   3.651 -0.4717 -1.5855 -2.4419
   62CHL1  H23B 5755   2.028   1.025   3.708  1.4890  0.0656  0.4146
   62CHL1   C24 5756   2.101   1.192   3.813  0.4114 -0.5424 -0.7444
   62CHL1  H24A 5757   2.190   1.135   3.847  0.6319 -0.0534 -0.4863
   62CHL1  H24B 5758   2.133   1.296   3.788  1.0737 -0.7350 -0.7194
   62CHL1   C25 5759   1.996   1.192   3.920 -0.2706  0.1283 -0.8888
   62CHL1   H25 5760   2.054   1.206   4.014  2.3309 -1.3022 -2.1946
   62CHL1   C26 5761   1.898   1.306   3.907 -0.0469  0.3828 -0.1718
   62CHL1  H26A 5762   1.814   1.306   3.979  0.1980  1.6411  0.1427
   62CHL1  H26B 5763   1.946   1.406   3.915  1.4939 -0.1207 -2.3485
   62CHL1  H26C 5764   1.848   1.293   3.809 -0.4064  0.6138 -0.0219
   62CHL1   C27 5765   1.919   1.056   3.950 -0.8265  0.5804  0.2577
   62CHL1  H27A 5766   1.995   0.984   3.984  1.0632  2.1570 -0.4397
   62CHL1  H27B 5767   1.842   1.074   4.029 -2.2535  1.3577 -1.2439
   62CHL1  H27C 5768   1.860   1.010   3.868 -2.0698  1.0286  0.8762
   63CHL1    C3 5769   5.278   5.187   2.840  0.0816 -0.0907  0.3224
   63CHL1    H3 5770   5.201   5.259   2.804  1.0494  0.6535 -0.3005
   63CHL1    O3 5771   5.337   5.103   2.737 -0.5193 -0.1388 -0.3127
   63CHL1   H3' 5772   5.346   5.160   2.661 -1.4458  0.1722 -0.2017
   63CHL1    C4 5773   5.384   5.263   2.921  0.2591 -0.7281  0.2982
   63CHL1   H4A 5774   5.467   5.195   2.948 -0.2923 -1.2923  0.5849
   63CHL1   H4B 5775   5.417   5.335   2.843 -2.0823 -0.8731 -0.9375
   63CHL1    C5 5776   5.328   5.320   3.047  0.0014 -0.4366 -0.0543
   63CHL1    C6 5777   5.325   5.449   3.059 -0.7615  0.0654 -0.2955
   63CHL1    H6 5778   5.385   5.507   2.988 -2.7397 -1.0184 -3.0517
   63CHL1    C7 5779   5.275   5.520   3.189  0.3970 -0.1909 -0.0460
   63CHL1   H7A 5780   5.353   5.595   3.210  1.9658 -1.6259 -0.5246
   63CHL1   H7B 5781   5.172   5.552   3.163 -0.0618 -0.6874  1.0675
   63CHL1    C8 5782   5.263   5.412   3.309 -0.0599  0.3715 -0.5026
   63CHL1    H8 5783   5.367   5.382   3.335  0.4763  1.2832 -1.5101
   63CHL1   C14 5784   5.188   5.482   3.416  0.2344 -0.8308  0.0188
   63CHL1   H14 5785   5.098   5.533   3.377  1.5711  0.9621 -0.8770
   63CHL1   C15 5786   5.251   5.606   3.483 -0.3249 -0.6055  0.0971
   63CHL1  H15A 5787   5.358   5.592   3.508  0.1524  1.3870 -0.6724
   63CHL1  H15B 5788   5.230   5.696   3.422  0.1288 -1.0928 -0.7922
   63CHL1   C16 5789   5.178   5.617   3.618 -0.1672 -0.0632 -0.3443
   63CHL1  H16A 5790   5.242   5.623   3.708 -1.1705 -1.6115  0.5180
   63CHL1  H16B 5791   5.102   5.698   3.624 -0.3457 -0.3356  3.1219
   63CHL1   C17 5792   5.097   5.484   3.635  0.2988 -1.1106  0.0061
   63CHL1   H17 5793   4.997   5.505   3.593  0.1904  0.5285  0.9939
   63CHL1   C13 5794   5.162   5.384   3.532 -0.6372 -0.4147  0.4331
   63CHL1   C18 5795   5.291   5.329   3.594  0.5812 -0.3220 -0.0043
   63CHL1  H18A 5796   5.343   5.412   3.646 -1.3417 -0.5645  2.5302
   63CHL1  H18B 5797   5.269   5.251   3.670  0.4365 -2.5396 -2.2060
   63CHL1  H18C 5798   5.360   5.292   3.516  1.4424  0.3828  0.4095
   63CHL1   C12 5799   5.064   5.273   3.485 -0.1229 -0.9740 -0.2990
   63CHL1  H12A 5800   5.053   5.201   3.569  0.3651  0.2566  0.8442
   63CHL1  H12B 5801   4.970   5.322   3.452 -0.4162 -2.1600 -1.2959
   63CHL1   C11 5802   5.125   5.206   3.365 -0.2755 -0.0560 -0.4810
   63CHL1  H11A 5803   5.212   5.146   3.397  0.1794 -0.0564 -1.6402
   63CHL1  H11B 5804   5.049   5.138   3.320  0.4895 -0.7356 -0.7771
   63CHL1    C9 5805   5.185   5.295   3.255 -0.1482 -0.0873  0.4223
   63CHL1    H9 5806   5.102   5.348   3.204  0.2288 -1.1367 -1.3610
   63CHL1   C10 5807   5.257   5.223   3.140  0.4011  0.9712  1.0079
   63CHL1   C19 5808   5.352   5.125   3.204 -0.6545  0.1160 -0.4787
   63CHL1  H19A 5809   5.431   5.087   3.135 -1.8330 -0.1609 -1.7148
   63CHL1  H19B 5810   5.403   5.175   3.290 -0.5602  1.1065 -1.0860
   63CHL1  H19C 5811   5.300   5.030   3.227 -0.1000  0.3066  1.8675
   63CHL1    C1 5812   5.155   5.145   3.060 -0.2946  0.1807 -0.0432
   63CHL1   H1A 5813   5.112   5.061   3.116  0.4156 -1.0728 -1.3020
   63CHL1   H1B 5814   5.073   5.215   3.032  2.0854  2.1532 -2.7171
   63CHL1    C2 5815   5.205   5.076   2.927  0.4758  0.4420 -0.0538
   63CHL1   H2A 5816   5.112   5.035   2.883  0.0543 -1.0880  2.0955
   63CHL1   H2B 5817   5.279   4.998   2.956 -0.6463 -1.4546 -2.0546
   63CHL1   C20 5818   5.073   5.456   3.778  0.5985  0.5472 -0.6546
   63CHL1   H20 5819   5.175   5.451   3.821 -0.2459 -0.1091  1.4044
   63CHL1   C21 5820   5.018   5.313   3.807 -0.0604 -0.3223 -0.3016
   63CHL1  H21A 5821   5.090   5.240   3.762 -0.4189  0.0543 -1.5090
   63CHL1  H21B 5822   4.917   5.292   3.766 -0.2730  0.3786 -0.1388
   63CHL1  H21C 5823   5.002   5.301   3.917  3.7629 -1.6218  0.2723
   63CHL1   C22 5824   5.003   5.574   3.858  1.2670  0.1507  0.0523
   63CHL1  H22A 5825   5.067   5.663   3.848  1.6811 -0.3738 -2.7988
   63CHL1  H22B 5826   4.910   5.593   3.800  2.3570 -1.2530 -2.3329
   63CHL1   C23 5827   4.977   5.543   4.007  0.6827  0.3052 -0.2059
   63CHL1  H23A 5828   4.899   5.465   4.017 -0.2569  1.1718 -0.5146
   63CHL1  H23B 5829   5.070   5.502   4.051  0.7660 -0.1734 -0.8156
   63CHL1   C24 5830   4.930   5.673   4.079  0.4902 -0.4381  0.5227
   63CHL1  H24A 5831   5.017   5.741   4.092  0.7594 -1.1410  2.7435
   63CHL1  H24B 5832   4.851   5.722   4.019  0.1785 -1.9417 -0.3396
   63CHL1   C25 5833   4.863   5.635   4.211 -0.1772 -0.6777  0.2900
   63CHL1   H25 5834   4.785   5.560   4.187 -0.4886 -1.0198  2.2244
   63CHL1   C26 5835   4.963   5.572   4.314 -0.1147  0.7260  0.3218
   63CHL1  H26A 5836   4.918   5.549   4.413 -1.2005  0.0317 -0.3029
   63CHL1  H26B 5837   4.996   5.471   4.279  2.9085  1.8829 -0.4596
   63CHL1  H26C 5838   5.060   5.622   4.336  0.1829  0.2718  0.0559
   63CHL1   C27 5839   4.789   5.761   4.271 -0.5300  0.4368  0.1429
   63CHL1  H27A 5840   4.719   5.718   4.346 -0.3887 -0.1509 -0.0585
   63CHL1  H27B 5841   4.860   5.837   4.311 -0.9247  1.7465 -1.5353
   63CHL1  H27C 5842   4.720   5.809   4.198 -1.4351  1.6248  1.7214
   64CHL1    C3 5843   3.482   3.214   2.519  0.3677  1.0177 -0.5956
   64CHL1    H3 5844   3.376   3.248   2.518 -0.6024 -1.6209  1.4855
   64CHL1    O3 5845   3.515   3.198   2.382  0.7536  0.2012 -0.3212
   64CHL1   H3' 5846   3.568   3.119   2.370 -1.7115 -1.6306  0.1308
   64CHL1    C4 5847   3.571   3.315   2.587  0.3406  0.3082  0.3190
   64CHL1   H4A 5848   3.676   3.279   2.583 -0.4227 -2.2501  1.2813
   64CHL1   H4B 5849   3.558   3.413   2.536 -1.2966  0.0335  0.1489
   64CHL1    C5 5850   3.538   3.332   2.735  0.4991 -0.0992 -1.0488
   64CHL1    C6 5851   3.510   3.445   2.790 -0.3333  0.2571 -0.1936
   64CHL1    H6 5852   3.518   3.524   2.714 -1.5678 -1.6053 -2.3660
   64CHL1    C7 5853   3.469   3.473   2.933  0.9496  0.1149 -0.0859
   64CHL1   H7A 5854   3.523   3.564   2.967  1.4370 -0.2336  0.0858
   64CHL1   H7B 5855   3.360   3.486   2.949  0.8904 -1.5319  1.1627
   64CHL1    C8 5856   3.505   3.351   3.026  0.6465  0.3973  0.3514
   64CHL1    H8 5857   3.616   3.356   3.018  0.6294 -0.2322 -0.3842
   64CHL1   C14 5858   3.449   3.356   3.165  0.4635  0.0885 -0.0376
   64CHL1   H14 5859   3.343   3.335   3.143  0.4989  1.0394 -1.2159
   64CHL1   C15 5860   3.447   3.490   3.245 -0.2940  0.7560 -0.3844
   64CHL1  H15A 5861   3.549   3.533   3.240 -0.3330  0.7179 -1.5806
   64CHL1  H15B 5862   3.381   3.574   3.214  0.7308  1.6384 -0.2470
   64CHL1   C16 5863   3.414   3.443   3.382  0.3516 -0.1121 -0.9545
   64CHL1  H16A 5864   3.487   3.478   3.457  0.8262 -2.5134 -0.2017
   64CHL1  H16B 5865   3.315   3.476   3.422  0.4563  1.5229 -1.9517
   64CHL1   C17 5866   3.411   3.285   3.381 -0.0967 -0.4076  0.8178
   64CHL1   H17 5867   3.304   3.263   3.363 -0.0016 -0.1639 -0.1084
   64CHL1   C13 5868   3.494   3.243   3.256  0.0918 -0.5037  0.6939
   64CHL1   C18 5869   3.645   3.256   3.287  0.5884 -0.1829  0.0600
   64CHL1  H18A 5870   3.709   3.258   3.196  1.1431  0.7274  0.4603
   64CHL1  H18B 5871   3.660   3.344   3.353 -0.5840 -1.3617  1.9943
   64CHL1  H18C 5872   3.677   3.160   3.333 -1.0854 -0.2615  1.1347
   64CHL1   C12 5873   3.449   3.110   3.188 -0.5622 -0.6775  0.0744
   64CHL1  H12A 5874   3.489   3.025   3.247  0.1783 -0.0751  0.4523
   64CHL1  H12B 5875   3.338   3.106   3.177 -0.8435  0.5493  2.0261
   64CHL1   C11 5876   3.509   3.093   3.047  0.4675  0.5086 -1.3673
   64CHL1  H11A 5877   3.618   3.087   3.066 -0.1039 -0.8663  2.1665
   64CHL1  H11B 5878   3.480   2.998   2.998  3.7022 -0.5841 -1.3335
   64CHL1    C9 5879   3.474   3.212   2.954 -0.3161 -0.4931  0.4255
   64CHL1    H9 5880   3.363   3.205   2.953 -0.5002  1.8307  0.3884
   64CHL1   C10 5881   3.532   3.199   2.812  0.3849  0.6682 -0.2821
   64CHL1   C19 5882   3.682   3.152   2.825 -0.2538 -0.6707  0.3388
   64CHL1  H19A 5883   3.708   3.063   2.886  3.5720 -0.7330 -1.0914
   64CHL1  H19B 5884   3.720   3.126   2.724  0.1869 -1.9817  0.8227
   64CHL1  H19C 5885   3.733   3.241   2.867 -2.8364  0.9084  0.3627
   64CHL1    C1 5886   3.451   3.090   2.733  0.0665 -0.4202  0.0568
   64CHL1   H1A 5887   3.433   2.991   2.780 -0.3744 -0.5895 -0.4565
   64CHL1   H1B 5888   3.345   3.124   2.731  0.4989  1.0021  0.3115
   64CHL1    C2 5889   3.477   3.072   2.584 -0.1802  0.0423 -0.4254
   64CHL1   H2A 5890   3.409   3.004   2.528 -0.1008  0.2684 -0.8045
   64CHL1   H2B 5891   3.581   3.033   2.578  0.1072  0.7625 -0.3080
   64CHL1   C20 5892   3.453   3.231   3.518  0.2237 -0.6143  0.4527
   64CHL1   H20 5893   3.561   3.257   3.529  0.3695 -0.0620 -1.8086
   64CHL1   C21 5894   3.438   3.075   3.513  0.0975  0.4863  0.1136
   64CHL1  H21A 5895   3.341   3.050   3.465  0.4897 -1.9898  0.4844
   64CHL1  H21B 5896   3.428   3.027   3.612  1.2392  1.9722  0.9921
   64CHL1  H21C 5897   3.524   3.025   3.465 -0.2103  1.4313 -1.4957
   64CHL1   C22 5898   3.378   3.281   3.639  0.5201  0.2361  0.7585
   64CHL1  H22A 5899   3.389   3.390   3.657  0.8291  0.2187  0.6829
   64CHL1  H22B 5900   3.270   3.274   3.611  0.7427  0.0981 -0.0825
   64CHL1   C23 5901   3.404   3.226   3.778  0.2074 -0.0652 -0.4175
   64CHL1  H23A 5902   3.418   3.117   3.794  0.2933  0.0294  0.1583
   64CHL1  H23B 5903   3.500   3.271   3.812  0.9525 -0.5794 -1.7634
   64CHL1   C24 5904   3.294   3.280   3.871 -0.3273  0.0556  0.3342
   64CHL1  H24A 5905   3.285   3.387   3.897 -3.6303 -0.1231  0.3800
   64CHL1  H24B 5906   3.201   3.257   3.815  1.3317 -0.2545 -2.4459
   64CHL1   C25 5907   3.289   3.204   4.004 -0.1127 -0.1703 -0.0180
   64CHL1   H25 5908   3.293   3.094   3.986 -2.1304 -0.2313 -0.3500
   64CHL1   C26 5909   3.416   3.238   4.084 -0.1608  0.2579 -0.2584
   64CHL1  H26A 5910   3.418   3.209   4.191  0.6161 -1.4847 -0.7150
   64CHL1  H26B 5911   3.501   3.208   4.020 -1.2433 -1.0586 -1.1236
   64CHL1  H26C 5912   3.438   3.347   4.090  0.5239  0.1297 -0.3581
   64CHL1   C27 5913   3.158   3.236   4.078 -0.2588 -0.7757 -0.6326
   64CHL1  H27A 5914   3.166   3.176   4.171  2.1828  2.6439  1.6140
   64CHL1  H27B 5915   3.177   3.342   4.105  0.6501 -1.4622  1.6289
   64CHL1  H27C 5916   3.073   3.216   4.009 -0.6828  0.8265 -0.6021
   65CHL1    C3 5917   2.324   1.372   2.847  0.7111  0.2624  0.3975
   65CHL1    H3 5918   2.307   1.266   2.875 -1.4511  0.2105 -0.8782
   65CHL1    O3 5919   2.349   1.382   2.708  0.3166  0.3723  0.3835
   65CHL1   H3' 5920   2.330   1.473   2.684 -0.7631 -0.9627 -5.3426
   65CHL1    C4 5921   2.198   1.450   2.874 -0.4235 -0.1264 -0.7875
   65CHL1   H4A 5922   2.194   1.542   2.812 -0.4336 -0.9298 -2.0181
   65CHL1   H4B 5923   2.120   1.388   2.824 -1.4219  1.4202 -1.2278
   65CHL1    C5 5924   2.171   1.490   3.012  0.5986 -0.1141 -0.7312
   65CHL1    C6 5925   2.051   1.475   3.067 -0.4296 -0.2350  0.8097
   65CHL1    H6 5926   1.971   1.421   3.013  0.7651  0.4113 -1.7828
   65CHL1    C7 5927   2.016   1.515   3.202 -0.1192  0.0865  0.3527
   65CHL1   H7A 5928   1.933   1.588   3.199 -0.3534 -0.1418  1.1611
   65CHL1   H7B 5929   1.983   1.427   3.261 -0.1449 -0.6999 -0.7996
   65CHL1    C8 5930   2.127   1.583   3.288  0.2190 -0.2157  0.1370
   65CHL1    H8 5931   2.125   1.689   3.255  0.4169 -0.0145  0.7602
   65CHL1   C14 5932   2.106   1.583   3.436 -0.1593 -0.2965  0.7595
   65CHL1   H14 5933   2.093   1.476   3.465 -0.2929 -1.1305 -2.1239
   65CHL1   C15 5934   1.979   1.653   3.489 -0.0045  0.3000  0.2785
   65CHL1  H15A 5935   1.970   1.755   3.446  2.3264  1.2703  1.8548
   65CHL1  H15B 5936   1.898   1.588   3.451  1.0660  0.0996 -1.8480
   65CHL1   C16 5937   2.004   1.654   3.641 -0.2946 -0.1996 -0.5219
   65CHL1  H16A 5938   1.975   1.741   3.703  0.1735 -2.5183  3.2907
   65CHL1  H16B 5939   1.955   1.557   3.665 -2.8364  1.2054  0.3010
   65CHL1   C17 5940   2.159   1.622   3.659 -0.8576 -0.5334  0.5488
   65CHL1   H17 5941   2.169   1.514   3.684  3.3527 -0.2958  0.7137
   65CHL1   C13 5942   2.216   1.648   3.523  0.8074  0.2916 -0.0520
   65CHL1   C18 5943   2.229   1.798   3.491  0.1895 -0.2518 -0.7417
   65CHL1  H18A 5944   2.139   1.858   3.516  0.3827 -0.0852 -0.4215
   65CHL1  H18B 5945   2.308   1.842   3.557  0.9189 -1.7987 -0.5469
   65CHL1  H18C 5946   2.252   1.808   3.383 -0.9960  1.4335 -0.8755
   65CHL1   C12 5947   2.349   1.575   3.496  0.0996  0.2902 -0.7330
   65CHL1  H12A 5948   2.435   1.616   3.554 -1.1835 -0.5848  1.9253
   65CHL1  H12B 5949   2.344   1.470   3.530  0.7955  0.7741  0.9481
   65CHL1   C11 5950   2.375   1.572   3.345  0.2583 -0.1038 -0.1139
   65CHL1  H11A 5951   2.401   1.677   3.316  0.5943  0.0051  0.5480
   65CHL1  H11B 5952   2.470   1.516   3.333 -0.0534 -0.9835  1.3443
   65CHL1    C9 5953   2.259   1.518   3.253  0.1931 -0.5186 -0.3969
   65CHL1    H9 5954   2.255   1.408   3.267  2.1406 -0.5929 -0.1066
   65CHL1   C10 5955   2.289   1.534   3.100 -0.0773 -0.6423 -0.2381
   65CHL1   C19 5956   2.318   1.684   3.059 -0.3959 -0.6620 -0.2217
   65CHL1  H19A 5957   2.349   1.695   2.953  0.9999  0.5485  0.2863
   65CHL1  H19B 5958   2.228   1.750   3.063  1.1364  1.5714 -0.8859
   65CHL1  H19C 5959   2.393   1.739   3.120 -0.8260  0.5696 -0.7649
   65CHL1    C1 5960   2.408   1.439   3.066 -0.9623  0.0140 -0.4112
   65CHL1   H1A 5961   2.498   1.470   3.123  1.2488  0.3436 -3.8288
   65CHL1   H1B 5962   2.377   1.341   3.109  0.3001  0.8643  2.7220
   65CHL1    C2 5963   2.445   1.421   2.915  1.1197  0.1471 -0.1782
   65CHL1   H2A 5964   2.527   1.345   2.909  0.4173 -0.6719  0.3906
   65CHL1   H2B 5965   2.483   1.518   2.876  2.0258  0.1736  0.7377
   65CHL1   C20 5966   2.224   1.692   3.788 -0.8291 -0.2665  0.0497
   65CHL1   H20 5967   2.331   1.664   3.776 -0.5238 -0.2372  2.2135
   65CHL1   C21 5968   2.190   1.612   3.914 -0.2739  0.6765 -0.0592
   65CHL1  H21A 5969   2.215   1.504   3.898 -0.3917  0.5629  0.5017
   65CHL1  H21B 5970   2.086   1.624   3.949 -0.5202 -1.5147  0.1278
   65CHL1  H21C 5971   2.255   1.639   4.000  0.2342 -0.8611  0.0745
   65CHL1   C22 5972   2.213   1.847   3.813  0.6287 -0.1980 -0.1535
   65CHL1  H22A 5973   2.146   1.893   3.737  0.2614 -1.4485 -0.6022
   65CHL1  H22B 5974   2.158   1.862   3.908 -0.8301 -4.6432 -0.0576
   65CHL1   C23 5975   2.348   1.927   3.824  0.2614 -0.2105  0.3328
   65CHL1  H23A 5976   2.399   1.880   3.912 -1.0157 -0.1840  1.1149
   65CHL1  H23B 5977   2.407   1.913   3.731  0.3796  2.1764 -0.0143
   65CHL1   C24 5978   2.321   2.077   3.850 -0.2094  0.5490 -0.4447
   65CHL1  H24A 5979   2.232   2.106   3.791 -0.1417  0.3702 -0.6356
   65CHL1  H24B 5980   2.294   2.100   3.955  1.4663  3.1296 -0.4752
   65CHL1   C25 5981   2.433   2.183   3.810 -0.7555 -0.3673  0.9062
   65CHL1   H25 5982   2.533   2.154   3.850 -0.5309 -2.1839 -0.8135
   65CHL1   C26 5983   2.452   2.199   3.658  0.1567 -0.3185 -0.0923
   65CHL1  H26A 5984   2.357   2.190   3.602 -0.8572  1.5354  1.2325
   65CHL1  H26B 5985   2.512   2.287   3.626 -0.0299  1.1710  3.1848
   65CHL1  H26C 5986   2.504   2.109   3.619  1.3379  0.7780 -1.1308
   65CHL1   C27 5987   2.387   2.316   3.865  0.0747 -0.9237 -0.7564
   65CHL1  H27A 5988   2.294   2.344   3.810  0.0379 -1.1226 -0.7960
   65CHL1  H27B 5989   2.368   2.314   3.975 -2.3728 -0.6174 -1.1057
   65CHL1  H27C 5990   2.470   2.390   3.860  0.6743 -1.3168  1.8018
   66CHL1    C3 5991   5.640   0.236   2.665 -0.0200 -0.0775 -0.2162
   66CHL1    H3 5992   5.685   0.146   2.712  0.9302 -0.8598 -2.4869
   66CHL1    O3 5993   5.614   0.205   2.530  0.3262  0.2502  0.0389
   66CHL1   H3' 5994   5.547   0.261   2.489 -1.3467 -1.4002  0.3908
   66CHL1    C4 5995   5.503   0.276   2.719  0.4224 -0.6260 -0.7434
   66CHL1   H4A 5996   5.459   0.359   2.659  1.9678  1.2396  0.5751
   66CHL1   H4B 5997   5.438   0.187   2.712 -1.2613  0.5064 -0.1863
   66CHL1    C5 5998   5.513   0.331   2.858  0.3430 -0.3113 -0.1796
   66CHL1    C6 5999   5.443   0.263   2.953  0.4083  0.2423 -0.1735
   66CHL1    H6 6000   5.368   0.191   2.917  1.0383  0.3432 -1.7973
   66CHL1    C7 6001   5.447   0.302   3.102 -0.5515 -0.0598  0.4383
   66CHL1   H7A 6002   5.349   0.285   3.152  0.4563  0.8744  2.8797
   66CHL1   H7B 6003   5.517   0.228   3.148  2.5469  0.7751 -2.4898
   66CHL1    C8 6004   5.506   0.446   3.121  0.0786  0.6404  0.2189
   66CHL1    H8 6005   5.431   0.523   3.096  2.1816  2.8784  0.4653
   66CHL1   C14 6006   5.536   0.469   3.267 -0.2791 -0.0676  0.0833
   66CHL1   H14 6007   5.594   0.379   3.298  1.7120  0.9221 -0.6139
   66CHL1   C15 6008   5.415   0.464   3.358  0.5590 -0.2542 -0.0662
   66CHL1  H15A 6009   5.331   0.518   3.309  0.3482 -0.6071 -0.0937
   66CHL1  H15B 6010   5.386   0.359   3.381  0.6378 -0.1167  0.6950
   66CHL1   C16 6011   5.463   0.530   3.477 -0.4665 -0.3098 -0.6193
   66CHL1  H16A 6012   5.398   0.619   3.493  0.0560  0.5969 -3.1687
   66CHL1  H16B 6013   5.453   0.467   3.568  0.0787  1.3384  0.6394
   66CHL1   C17 6014   5.608   0.580   3.456 -0.5094 -0.4308  0.5345
   66CHL1   H17 6015   5.667   0.491   3.490  0.3253 -0.7356 -1.5185
   66CHL1   C13 6016   5.622   0.592   3.301  0.7530  0.4873 -0.2537
   66CHL1   C18 6017   5.532   0.717   3.260 -0.0169 -0.0544 -0.0414
   66CHL1  H18A 6018   5.497   0.714   3.155 -0.1879 -0.6567  0.0272
   66CHL1  H18B 6019   5.441   0.733   3.322 -0.9974 -0.5819 -1.3138
   66CHL1  H18C 6020   5.608   0.796   3.277 -0.3170 -0.1717  2.2004
   66CHL1   C12 6021   5.755   0.583   3.228 -0.4111  0.5287  0.6992
   66CHL1  H12A 6022   5.825   0.668   3.243  0.9785 -0.4816  0.2178
   66CHL1  H12B 6023   5.817   0.498   3.265 -3.1281 -0.7261  2.6412
   66CHL1   C11 6024   5.733   0.576   3.073  0.5280  1.2412  0.0952
   66CHL1  H11A 6025   5.692   0.676   3.047 -0.7760  0.5267 -0.7091
   66CHL1  H11B 6026   5.833   0.565   3.025  0.1126  2.3974 -1.0600
   66CHL1    C9 6027   5.636   0.456   3.040 -0.3037  0.3463  0.1173
   66CHL1    H9 6028   5.700   0.373   3.075  0.2610  1.2932  1.4273
   66CHL1   C10 6029   5.615   0.440   2.883 -0.3506  0.5302  0.1316
   66CHL1   C19 6030   5.560   0.578   2.821 -0.2769 -0.3470 -0.3913
   66CHL1  H19A 6031   5.635   0.659   2.835 -1.4617  0.6319  0.6302
   66CHL1  H19B 6032   5.547   0.574   2.711  0.7492  1.4808 -0.6215
   66CHL1  H19C 6033   5.466   0.609   2.873  0.1533 -0.2728  0.3606
   66CHL1    C1 6034   5.746   0.396   2.811  0.1410  0.1669 -0.0642
   66CHL1   H1A 6035   5.823   0.476   2.802  0.3065 -0.1111 -1.2395
   66CHL1   H1B 6036   5.800   0.314   2.863 -0.5334 -1.8430 -2.3758
   66CHL1    C2 6037   5.737   0.357   2.663 -0.0376  0.1319  0.6743
   66CHL1   H2A 6038   5.838   0.329   2.628  1.3465  1.5220  3.2635
   66CHL1   H2B 6039   5.689   0.437   2.602 -0.3075 -0.4549  0.1066
   66CHL1   C20 6040   5.636   0.703   3.544  0.5646 -0.5586  0.3858
   66CHL1   H20 6041   5.582   0.794   3.510  3.3592  0.3358 -2.1772
   66CHL1   C21 6042   5.784   0.743   3.538  0.6389  0.7080  0.3713
   66CHL1  H21A 6043   5.801   0.831   3.603  0.9787  1.9619 -1.3177
   66CHL1  H21B 6044   5.821   0.793   3.446  1.2774  2.7202  1.6562
   66CHL1  H21C 6045   5.845   0.652   3.555 -0.6473 -0.3086 -0.3041
   66CHL1   C22 6046   5.599   0.667   3.694  0.0317  0.2214  0.2825
   66CHL1  H22A 6047   5.494   0.632   3.699 -0.4729  1.6079 -0.1753
   66CHL1  H22B 6048   5.648   0.574   3.731  0.6271  0.3900 -0.0628
   66CHL1   C23 6049   5.616   0.784   3.790  0.1488 -0.2129  0.3017
   66CHL1  H23A 6050   5.723   0.774   3.818 -0.1730 -4.1405  0.7072
   66CHL1  H23B 6051   5.612   0.884   3.742  0.0186  0.4035  1.5825
   66CHL1   C24 6052   5.517   0.769   3.904  0.2901 -0.1054 -0.2291
   66CHL1  H24A 6053   5.422   0.809   3.864 -0.0764 -1.3233 -0.5968
   66CHL1  H24B 6054   5.524   0.663   3.936 -3.3659 -0.9531 -1.7980
   66CHL1   C25 6055   5.545   0.849   4.035 -0.6707  0.1834  0.8149
   66CHL1   H25 6056   5.637   0.821   4.090  0.4272  1.9239 -0.0479
   66CHL1   C26 6057   5.550   0.997   4.004 -0.3123  0.0252 -0.0019
   66CHL1  H26A 6058   5.527   1.044   4.102  2.2224  4.1005 -1.1321
   66CHL1  H26B 6059   5.653   1.022   3.972 -0.4544 -0.9569 -1.3081
   66CHL1  H26C 6060   5.480   1.028   3.923 -1.2644 -0.2481  0.6919
   66CHL1   C27 6061   5.434   0.823   4.134  0.7629 -0.9197 -0.5997
   66CHL1  H27A 6062   5.454   0.868   4.233  0.9998  1.8923 -1.8245
   66CHL1  H27B 6063   5.417   0.714   4.134 -1.0123 -0.6887  1.0301
   66CHL1  H27C 6064   5.343   0.875   4.097  0.8674  0.8041  1.3500
   67CHL1    C3 6065   3.882   0.426   2.384 -0.3651  0.3823 -0.1009
   67CHL1    H3 6066   3.861   0.320   2.412 -0.5321  0.6809  0.9654
   67CHL1    O3 6067   3.856   0.444   2.244  0.2090  0.7871 -0.8451
   67CHL1   H3' 6068   3.791   0.374   2.230  1.0958  0.0661 -1.4962
   67CHL1    C4 6069   3.786   0.525   2.459 -0.1682 -0.0920  0.4679
   67CHL1   H4A 6070   3.818   0.624   2.420  0.3060 -0.6778 -0.6543
   67CHL1   H4B 6071   3.681   0.513   2.424  1.3050  0.2082 -4.7732
   67CHL1    C5 6072   3.806   0.514   2.609 -0.3790  0.0685 -0.3272
   67CHL1    C6 6073   3.709   0.479   2.689  0.4529  0.1807  0.4912
   67CHL1    H6 6074   3.611   0.441   2.656  1.0077  0.4925 -1.6687
   67CHL1    C7 6075   3.724   0.468   2.835 -0.3245 -0.1967 -0.0649
   67CHL1   H7A 6076   3.645   0.528   2.885 -0.3108  0.1522 -0.4480
   67CHL1   H7B 6077   3.726   0.362   2.867 -1.1382  0.2585  1.6077
   67CHL1    C8 6078   3.851   0.540   2.889 -0.1253  0.1790  0.3099
   67CHL1    H8 6079   3.835   0.649   2.889 -1.6342  0.0048  2.1877
   67CHL1   C14 6080   3.869   0.501   3.043 -0.1775 -0.7447  0.2166
   67CHL1   H14 6081   3.875   0.390   3.032  1.4096 -0.7654  1.0155
   67CHL1   C15 6082   3.753   0.529   3.146  0.7354  0.3027 -0.1221
   67CHL1  H15A 6083   3.700   0.619   3.108  0.6348  0.4697  0.4053
   67CHL1  H15B 6084   3.696   0.435   3.143  1.6808 -0.3623  1.6566
   67CHL1   C16 6085   3.823   0.526   3.278 -0.7443  0.5289 -0.2290
   67CHL1  H16A 6086   3.816   0.632   3.309  1.2865  0.9445 -1.0100
   67CHL1  H16B 6087   3.776   0.462   3.355 -2.4960 -0.7905 -2.2718
   67CHL1   C17 6088   3.974   0.488   3.249  0.0524 -0.5023  0.3765
   67CHL1   H17 6089   3.985   0.378   3.237  1.9367 -0.2477 -0.6824
   67CHL1   C13 6090   4.000   0.544   3.107 -0.7587  0.4720  0.4002
   67CHL1   C18 6091   4.014   0.699   3.113  0.2065 -0.6125  0.2856
   67CHL1  H18A 6092   3.937   0.749   3.176  3.3957  2.3195  2.2275
   67CHL1  H18B 6093   4.113   0.732   3.150 -0.1582  0.3314  0.4459
   67CHL1  H18C 6094   3.996   0.734   3.009 -1.0193 -0.1454  0.6336
   67CHL1   C12 6095   4.115   0.483   3.020 -0.0216  0.3240  0.6854
   67CHL1  H12A 6096   4.207   0.515   3.074  0.8339 -3.0547  1.4651
   67CHL1  H12B 6097   4.117   0.372   3.016  1.0566  0.3666 -3.0488
   67CHL1   C11 6098   4.101   0.517   2.868 -0.0070 -0.3593 -0.2048
   67CHL1  H11A 6099   4.143   0.620   2.866  3.3077 -1.4019  3.1842
   67CHL1  H11B 6100   4.177   0.446   2.828 -0.6542 -1.4864  0.5114
   67CHL1    C9 6101   3.970   0.488   2.803  0.4547  0.6080 -0.2306
   67CHL1    H9 6102   3.955   0.378   2.810 -0.2376  0.7652  1.0828
   67CHL1   C10 6103   3.957   0.526   2.657  0.5557  0.6468  0.2682
   67CHL1   C19 6104   3.994   0.675   2.638 -0.6481 -0.0555 -0.3059
   67CHL1  H19A 6105   3.938   0.743   2.706 -0.0337 -1.1547  1.3700
   67CHL1  H19B 6106   4.104   0.683   2.649 -0.1273 -4.3517 -0.5449
   67CHL1  H19C 6107   3.975   0.715   2.536  0.5277  2.4476  0.3911
   67CHL1    C1 6108   4.055   0.439   2.576 -0.2718  0.0981  0.0614
   67CHL1   H1A 6109   4.159   0.471   2.599 -1.1317  2.9614  0.3124
   67CHL1   H1B 6110   4.040   0.332   2.600  0.9064 -0.3089 -0.9157
   67CHL1    C2 6111   4.035   0.457   2.423  0.8550  0.0288  0.0014
   67CHL1   H2A 6112   4.109   0.393   2.370 -1.5571 -2.2336 -0.8418
   67CHL1   H2B 6113   4.059   0.565   2.410  1.3552  0.3062  2.5962
   67CHL1   C20 6114   4.075   0.526   3.357 -0.1569  0.0315  0.3774
   67CHL1   H20 6115   4.116   0.628   3.338 -2.7520  1.0156 -0.4165
   67CHL1   C21 6116   4.198   0.423   3.355 -0.0399  0.1742 -0.1684
   67CHL1  H21A 6117   4.155   0.329   3.397 -1.6425  1.4287  1.1429
   67CHL1  H21B 6118   4.285   0.465   3.409 -0.3908 -0.7578  1.1590
   67CHL1  H21C 6119   4.237   0.407   3.252  1.6069 -0.1250  0.4762
   67CHL1   C22 6120   4.016   0.524   3.500 -0.7766 -0.8406  0.0455
   67CHL1  H22A 6121   3.915   0.570   3.506  0.0704  0.8668  2.9495
   67CHL1  H22B 6122   4.012   0.416   3.527  3.4104 -1.2766 -0.4708
   67CHL1   C23 6123   4.089   0.605   3.608  0.1823 -0.0246 -0.0787
   67CHL1  H23A 6124   4.182   0.550   3.633  0.3990 -0.6182 -2.0132
   67CHL1  H23B 6125   4.110   0.707   3.570  1.4936 -0.3886 -0.3701
   67CHL1   C24 6126   4.004   0.616   3.734  1.0145 -0.0343 -1.1642
   67CHL1  H24A 6127   3.899   0.646   3.712  0.6432 -1.0068 -0.7643
   67CHL1  H24B 6128   4.004   0.520   3.788  0.1721  0.6221  0.0537
   67CHL1   C25 6129   4.065   0.721   3.835 -0.5282 -0.2109 -0.0524
   67CHL1   H25 6130   4.175   0.717   3.826 -0.3722  0.2875  1.4113
   67CHL1   C26 6131   4.012   0.858   3.791  0.1562  0.6289  0.0911
   67CHL1  H26A 6132   4.035   0.936   3.866 -0.1187 -2.9127  4.2634
   67CHL1  H26B 6133   4.035   0.886   3.686  0.7946 -0.1968 -0.0033
   67CHL1  H26C 6134   3.902   0.870   3.783  0.4669  3.6814 -0.7071
   67CHL1   C27 6135   4.023   0.703   3.979 -0.2018  0.6258  0.0543
   67CHL1  H27A 6136   4.059   0.786   4.044  0.0438 -0.7673  1.7766
   67CHL1  H27B 6137   3.915   0.679   3.985 -0.1925  0.3735 -0.6793
   67CHL1  H27C 6138   4.080   0.613   4.008  0.4666  1.0269  0.0211
   68CHL1    C3 6139   2.194   6.276   2.705  0.2878 -1.0016  0.3015
   68CHL1    H3 6140   2.118   6.357   2.698  0.0971 -1.2858 -1.3568
   68CHL1    O3 6141   2.195   6.214   2.580  0.3295 -0.5644  0.0220
   68CHL1   H3' 6142   2.247   6.269   2.521  1.2050 -0.3400  0.9715
   68CHL1    C4 6143   2.329   6.319   2.743 -0.2601 -0.4185  0.4588
   68CHL1   H4A 6144   2.401   6.236   2.731  1.3557  0.8574  1.0103
   68CHL1   H4B 6145   2.365   6.397   2.672  1.5983 -0.8298  0.8993
   68CHL1    C5 6146   2.332   6.370   2.883  0.7273  0.0788 -0.3671
   68CHL1    C6 6147   2.364   6.498   2.904  0.0367  0.3293 -0.3378
   68CHL1    H6 6148   2.380   6.571   2.823 -2.9856  2.3416  0.7196
   68CHL1    C7 6149   2.368   6.547   3.050  0.3379 -0.2621  0.2836
   68CHL1   H7A 6150   2.451   6.620   3.061 -0.9058  1.4235 -1.0334
   68CHL1   H7B 6151   2.276   6.606   3.069 -0.6440 -1.6905  0.1250
   68CHL1    C8 6152   2.389   6.445   3.161  0.1867 -0.4172 -0.8538
   68CHL1    H8 6153   2.493   6.407   3.158  0.6554  0.8122 -0.8308
   68CHL1   C14 6154   2.361   6.509   3.301 -0.6150 -0.7039 -0.3821
   68CHL1   H14 6155   2.254   6.538   3.297 -0.2356  0.7605 -0.5473
   68CHL1   C15 6156   2.432   6.644   3.340  0.0903 -0.2165 -0.3102
   68CHL1  H15A 6157   2.542   6.633   3.325  0.0471 -0.2207 -0.6181
   68CHL1  H15B 6158   2.396   6.730   3.280  0.7363 -0.7008 -1.4236
   68CHL1   C16 6159   2.412   6.660   3.495 -0.3335  0.2533 -0.7439
   68CHL1  H16A 6160   2.514   6.672   3.538  0.6515  0.6231 -3.0142
   68CHL1  H16B 6161   2.344   6.743   3.521 -0.9019 -0.0677 -1.1735
   68CHL1   C17 6162   2.339   6.531   3.535 -0.2338  0.8652  0.5784
   68CHL1   H17 6163   2.231   6.556   3.530 -0.4179  0.7445  2.8170
   68CHL1   C13 6164   2.368   6.420   3.428  0.4936  0.5170 -0.7055
   68CHL1   C18 6165   2.507   6.365   3.461 -0.0591 -0.6401 -0.2307
   68CHL1  H18A 6166   2.541   6.305   3.374 -0.9028 -1.2124 -0.1810
   68CHL1  H18B 6167   2.589   6.432   3.493  1.6459 -2.7942  0.1526
   68CHL1  H18C 6168   2.508   6.284   3.537 -2.0096  0.3468  0.9271
   68CHL1   C12 6169   2.262   6.307   3.398  0.5097  0.6109  0.2268
   68CHL1  H12A 6170   2.259   6.232   3.480 -2.1943  1.0834  0.6466
   68CHL1  H12B 6171   2.166   6.360   3.380  1.1427  1.0288 -2.2280
   68CHL1   C11 6172   2.288   6.234   3.265  0.5286  0.3171  0.2289
   68CHL1  H11A 6173   2.392   6.195   3.266  0.9820  1.2789 -2.0429
   68CHL1  H11B 6174   2.213   6.153   3.256 -0.1140  0.9518 -0.3552
   68CHL1    C9 6175   2.284   6.332   3.145  0.5346  0.1028  0.0636
   68CHL1    H9 6176   2.179   6.369   3.144  0.1000 -1.0535  1.0846
   68CHL1   C10 6177   2.292   6.270   2.999  0.1469 -0.6000  0.4247
   68CHL1   C19 6178   2.408   6.157   2.997 -0.0361 -0.1043  0.2771
   68CHL1  H19A 6179   2.431   6.121   2.894 -1.6832 -1.2630  0.2675
   68CHL1  H19B 6180   2.503   6.191   3.043 -0.0033  1.7117 -1.0272
   68CHL1  H19C 6181   2.369   6.069   3.053 -2.6999  0.4003 -0.6377
   68CHL1    C1 6182   2.149   6.225   2.952  0.2570  0.4171  0.2587
   68CHL1   H1A 6183   2.096   6.144   3.007 -1.6441  0.1695 -1.7955
   68CHL1   H1B 6184   2.083   6.315   2.953  0.9125  1.1452 -3.7252
   68CHL1    C2 6185   2.143   6.179   2.803 -0.6690  0.2590 -0.5809
   68CHL1   H2A 6186   2.044   6.140   2.771 -1.2396  1.1878  0.0094
   68CHL1   H2B 6187   2.213   6.093   2.803  0.9969  1.5424 -0.0924
   68CHL1   C20 6188   2.369   6.490   3.681  0.0538  0.8213  0.3578
   68CHL1   H20 6189   2.477   6.468   3.697 -0.4491 -2.3286  0.0730
   68CHL1   C21 6190   2.302   6.357   3.726 -0.1804  0.9249 -0.1448
   68CHL1  H21A 6191   2.327   6.265   3.670  1.3335  0.4432  1.2317
   68CHL1  H21B 6192   2.193   6.374   3.710 -0.6885  0.0268  1.9334
   68CHL1  H21C 6193   2.331   6.329   3.830 -1.1362 -1.1251 -0.3793
   68CHL1   C22 6194   2.342   6.601   3.791 -0.2103  0.2049 -0.1180
   68CHL1  H22A 6195   2.399   6.691   3.760  1.4085 -0.3123  1.1733
   68CHL1  H22B 6196   2.232   6.613   3.786 -0.3228  0.2714  1.8549
   68CHL1   C23 6197   2.392   6.566   3.939 -0.2343  0.2364  0.5880
   68CHL1  H23A 6198   2.364   6.647   4.010  0.5653  1.3511 -0.3452
   68CHL1  H23B 6199   2.330   6.481   3.977  0.1027 -1.1125 -1.7256
   68CHL1   C24 6200   2.539   6.527   3.952 -0.2840 -0.1159 -0.0145
   68CHL1  H24A 6201   2.552   6.420   3.926  0.0056 -0.2738  0.7375
   68CHL1  H24B 6202   2.609   6.591   3.895  1.7548 -1.4742  0.8467
   68CHL1   C25 6203   2.602   6.542   4.092  0.2475 -0.2304 -0.4092
   68CHL1   H25 6204   2.608   6.650   4.118  0.9873  0.0823 -1.7825
   68CHL1   C26 6205   2.520   6.466   4.196 -0.3133  0.5010  0.5797
   68CHL1  H26A 6206   2.418   6.507   4.186  0.2232  1.4032 -1.9308
   68CHL1  H26B 6207   2.509   6.357   4.175 -0.7595  0.8235 -0.9691
   68CHL1  H26C 6208   2.564   6.484   4.297  2.2391 -0.7804 -0.1970
   68CHL1   C27 6209   2.745   6.483   4.090 -0.2596 -0.9683 -0.4480
   68CHL1  H27A 6210   2.799   6.550   4.019 -1.1042 -0.2996 -0.4769
   68CHL1  H27B 6211   2.796   6.490   4.189  1.2922  1.9536 -1.3158
   68CHL1  H27C 6212   2.741   6.378   4.057 -0.3230 -0.9505 -0.4957
   69CHL1    C3 6213   6.127   0.083   2.637  0.2256 -0.3247  0.1574
   69CHL1    H3 6214   6.093   0.187   2.624  1.7714 -0.0804 -2.7315
   69CHL1    O3 6215   6.178   0.048   2.504  0.5688 -0.2054 -0.2109
   69CHL1   H3' 6216   6.190  -0.047   2.515 -0.9806 -0.4119 -0.0603
   69CHL1    C4 6217   6.244   0.089   2.743 -0.2090 -0.3913  0.6178
   69CHL1   H4A 6218   6.279  -0.015   2.759  2.6347  0.3442 -0.3422
   69CHL1   H4B 6219   6.330   0.147   2.704 -0.2747  0.1281  1.2235
   69CHL1    C5 6220   6.189   0.126   2.876 -0.1186 -0.1926  0.5110
   69CHL1    C6 6221   6.231   0.234   2.942  0.4063 -0.8636 -0.0322
   69CHL1    H6 6222   6.313   0.291   2.897  0.1522  0.8268  1.5103
   69CHL1    C7 6223   6.192   0.278   3.079 -0.4992 -0.3112  0.3800
   69CHL1   H7A 6224   6.277   0.285   3.150 -0.8493  0.3995  0.7371
   69CHL1   H7B 6225   6.143   0.378   3.080 -1.3559 -0.7269  1.1019
   69CHL1    C8 6226   6.094   0.184   3.145 -0.1430 -0.0142  0.3953
   69CHL1    H8 6227   6.158   0.099   3.177  1.9307  1.3240 -0.0733
   69CHL1   C14 6228   6.016   0.252   3.259  0.5481  0.1027 -0.1709
   69CHL1   H14 6229   5.942   0.319   3.212  1.3434  0.5868 -0.7578
   69CHL1   C15 6230   6.086   0.339   3.356  0.5524  0.3589 -0.2421
   69CHL1  H15A 6231   6.172   0.286   3.403 -0.4482 -0.0007  1.2386
   69CHL1  H15B 6232   6.131   0.431   3.314  0.9617  0.8715  1.2818
   69CHL1   C16 6233   5.983   0.366   3.462 -0.9600 -0.8104 -0.9587
   69CHL1  H16A 6234   6.034   0.355   3.561 -1.5878  1.9062 -0.2537
   69CHL1  H16B 6235   5.941   0.468   3.450  1.4257  0.6038  1.5619
   69CHL1   C17 6236   5.864   0.257   3.440 -0.1672  0.7754  0.0770
   69CHL1   H17 6237   5.789   0.325   3.395  1.5194  2.6223 -0.0842
   69CHL1   C13 6238   5.928   0.156   3.334  0.2878 -0.0616 -0.3282
   69CHL1   C18 6239   6.006   0.044   3.400 -0.1265 -0.8302  0.3212
   69CHL1  H18A 6240   5.941  -0.024   3.459  0.9591  0.9120  3.8288
   69CHL1  H18B 6241   6.071  -0.013   3.330 -0.8938  0.3120 -1.3967
   69CHL1  H18C 6242   6.076   0.090   3.474 -1.4134 -1.3167  1.9071
   69CHL1   C12 6243   5.820   0.090   3.246  0.0070 -0.0798 -0.2454
   69CHL1  H12A 6244   5.776   0.000   3.294  0.4788 -1.6045 -2.5463
   69CHL1  H12B 6245   5.739   0.164   3.225 -0.1552 -0.2430 -0.1912
   69CHL1   C11 6246   5.886   0.026   3.124 -0.3021 -0.7887  0.6385
   69CHL1  H11A 6247   5.940  -0.064   3.160 -0.7571 -2.1587 -1.8551
   69CHL1  H11B 6248   5.814  -0.007   3.046  3.0032  0.0507 -3.0851
   69CHL1    C9 6249   6.002   0.113   3.048 -0.1723  0.1919  0.3169
   69CHL1    H9 6250   5.939   0.195   3.007 -1.7428 -0.1191  1.9867
   69CHL1   C10 6251   6.069   0.040   2.928 -0.6320  0.3144  0.4181
   69CHL1   C19 6252   6.122  -0.104   2.974 -0.8565  0.7315 -0.0511
   69CHL1  H19A 6253   6.168  -0.093   3.075 -2.8080  0.5972  0.9116
   69CHL1  H19B 6254   6.038  -0.177   2.976  0.3429 -0.7022  2.1447
   69CHL1  H19C 6255   6.203  -0.136   2.906  0.9834  3.7026  0.5475
   69CHL1    C1 6256   5.963   0.033   2.816 -0.1204  0.3251 -0.4821
   69CHL1   H1A 6257   5.886  -0.043   2.842 -0.0875 -0.9723 -3.6821
   69CHL1   H1B 6258   5.908   0.128   2.798  0.2296  0.2486 -2.0961
   69CHL1    C2 6259   6.016  -0.008   2.678  0.1587  0.1329  0.0552
   69CHL1   H2A 6260   5.927   0.001   2.613  1.0394  2.7152 -0.9184
   69CHL1   H2B 6261   6.047  -0.114   2.690 -0.4632  0.1049  1.6718
   69CHL1   C20 6262   5.792   0.197   3.564  0.3225 -0.2497  0.5026
   69CHL1   H20 6263   5.839   0.103   3.602 -0.2466 -0.3982  0.8482
   69CHL1   C21 6264   5.642   0.165   3.527  0.1872 -0.0421  0.3796
   69CHL1  H21A 6265   5.641   0.095   3.441  1.3270 -0.4882  0.7103
   69CHL1  H21B 6266   5.582   0.259   3.523  0.2844  0.1780  2.6711
   69CHL1  H21C 6267   5.598   0.109   3.612 -1.9464  0.6386 -0.2183
   69CHL1   C22 6268   5.797   0.301   3.678  0.1603 -0.5821  0.4563
   69CHL1  H22A 6269   5.808   0.408   3.653 -1.8073 -0.0689  1.5473
   69CHL1  H22B 6270   5.693   0.301   3.718  0.2036  3.0057  0.8601
   69CHL1   C23 6271   5.876   0.266   3.806 -0.6135 -0.2911  0.8504
   69CHL1  H23A 6272   5.839   0.167   3.841 -2.7343  0.6372  1.3479
   69CHL1  H23B 6273   5.983   0.258   3.778 -0.7062 -1.8394  0.8527
   69CHL1   C24 6274   5.867   0.353   3.932 -0.5212 -0.4721  0.9328
   69CHL1  H24A 6275   5.765   0.354   3.977 -1.1753 -1.4443 -0.4461
   69CHL1  H24B 6276   5.943   0.304   3.997  2.1313  0.8420 -1.0086
   69CHL1   C25 6277   5.914   0.495   3.909  1.1755 -0.4056  0.3839
   69CHL1   H25 6278   5.873   0.533   3.813 -0.6870 -1.9861  0.4751
   69CHL1   C26 6279   5.860   0.584   4.021  0.1119 -0.1271 -0.0030
   69CHL1  H26A 6280   5.903   0.544   4.115 -0.4070  2.3308  1.3484
   69CHL1  H26B 6281   5.906   0.684   4.012  0.0499 -0.1707 -0.8759
   69CHL1  H26C 6282   5.749   0.587   4.012  0.1860  2.2925 -0.8165
   69CHL1   C27 6283   6.062   0.512   3.898 -0.3466  0.0320 -0.3574
   69CHL1  H27A 6284   6.122   0.474   3.984  0.0922 -0.0887 -0.7108
   69CHL1  H27B 6285   6.102   0.448   3.817 -1.6497 -3.8039  1.7663
   69CHL1  H27C 6286   6.088   0.619   3.886  0.3259 -0.1697 -0.8023
   70CHL1    C3 6287   4.227   2.380   2.623 -0.0718  0.2319 -0.7359
   70CHL1    H3 6288   4.251   2.488   2.616 -1.5783  0.5942 -0.7690
   70CHL1    O3 6289   4.214   2.337   2.491  0.7082 -0.0473  0.4919
   70CHL1   H3' 6290   4.218   2.241   2.489  0.5063 -0.0545 -1.6744
   70CHL1    C4 6291   4.331   2.291   2.687 -0.0437  0.6074 -0.0389
   70CHL1   H4A 6292   4.292   2.188   2.675 -0.2996  0.7901 -0.8018
   70CHL1   H4B 6293   4.423   2.289   2.625  1.5924 -0.1878  2.2460
   70CHL1    C5 6294   4.370   2.330   2.833  0.4834 -0.0017  0.0325
   70CHL1    C6 6295   4.496   2.342   2.872  0.0933 -0.2566 -0.1407
   70CHL1    H6 6296   4.585   2.337   2.807  0.3452  0.9120  0.0920
   70CHL1    C7 6297   4.519   2.398   3.014  0.0654  0.1648 -0.2556
   70CHL1   H7A 6298   4.611   2.356   3.060  0.2033 -0.1472 -0.8120
   70CHL1   H7B 6299   4.532   2.509   3.014  2.0218 -0.0375 -0.1599
   70CHL1    C8 6300   4.401   2.371   3.112  0.4762 -0.7410 -0.2555
   70CHL1    H8 6301   4.401   2.262   3.132 -1.0411 -0.6920  0.1246
   70CHL1   C14 6302   4.412   2.447   3.245  0.8000  0.0881 -0.3081
   70CHL1   H14 6303   4.402   2.557   3.226  0.3859 -0.0362 -0.8474
   70CHL1   C15 6304   4.542   2.436   3.330  0.0761  0.0160 -0.1276
   70CHL1  H15A 6305   4.574   2.330   3.335  0.9779  0.3320  1.5682
   70CHL1  H15B 6306   4.626   2.498   3.290 -0.2541  0.1921 -0.5666
   70CHL1   C16 6307   4.500   2.471   3.469 -0.0161  0.2541  0.4314
   70CHL1  H16A 6308   4.521   2.379   3.528 -1.1817 -0.3960 -0.1365
   70CHL1  H16B 6309   4.561   2.550   3.518  0.1892 -0.7354  1.8363
   70CHL1   C17 6310   4.345   2.503   3.465 -0.9803  0.1860 -0.4244
   70CHL1   H17 6311   4.347   2.611   3.437  0.0903  0.7311  1.5812
   70CHL1   C13 6312   4.294   2.426   3.342 -0.4481  0.1410  0.0734
   70CHL1   C18 6313   4.285   2.274   3.381 -0.7177  0.8746  0.9645
   70CHL1  H18A 6314   4.250   2.220   3.290  0.8983  0.5972  0.4704
   70CHL1  H18B 6315   4.383   2.237   3.418 -2.2478 -1.7844  2.7235
   70CHL1  H18C 6316   4.213   2.253   3.463  0.0748  0.5136  1.5785
   70CHL1   C12 6317   4.166   2.474   3.278 -0.2670 -0.3863 -0.1520
   70CHL1  H12A 6318   4.083   2.442   3.345 -2.0281  0.7850 -1.6648
   70CHL1  H12B 6319   4.169   2.584   3.266  1.3790 -0.5908 -2.3084
   70CHL1   C11 6320   4.143   2.419   3.137 -0.0340 -0.4023 -0.1741
   70CHL1  H11A 6321   4.099   2.319   3.153  2.6587 -1.2395  2.8948
   70CHL1  H11B 6322   4.072   2.491   3.090  2.1841  0.6569 -2.1038
   70CHL1    C9 6323   4.270   2.419   3.048  0.0892  0.2172 -0.2661
   70CHL1    H9 6324   4.273   2.525   3.016 -1.2947 -0.2905 -2.2458
   70CHL1   C10 6325   4.241   2.340   2.916  0.3446 -0.2917 -0.3420
   70CHL1   C19 6326   4.210   2.186   2.946 -0.2515  0.0834  0.3389
   70CHL1  H19A 6327   4.113   2.188   3.000 -0.4317  2.9526  0.0441
   70CHL1  H19B 6328   4.186   2.137   2.849 -1.0098 -0.0708  0.5944
   70CHL1  H19C 6329   4.291   2.130   2.998 -0.4065 -1.5827 -1.1133
   70CHL1    C1 6330   4.119   2.405   2.847  0.1355  1.0207  0.6788
   70CHL1   H1A 6331   4.034   2.361   2.904 -0.2750 -0.9908 -1.3577
   70CHL1   H1B 6332   4.119   2.516   2.843 -0.1137  1.0272  0.8067
   70CHL1    C2 6333   4.093   2.362   2.700 -0.0041  0.8898  0.0497
   70CHL1   H2A 6334   4.006   2.411   2.652 -0.4168 -0.8198 -1.0372
   70CHL1   H2B 6335   4.065   2.255   2.696 -0.5490  0.9488  1.6606
   70CHL1   C20 6336   4.266   2.491   3.595  0.3605  0.4431  0.3895
   70CHL1   H20 6337   4.243   2.385   3.621  0.9552  0.4381  0.9238
   70CHL1   C21 6338   4.142   2.578   3.581  0.1800  0.1991  0.0981
   70CHL1  H21A 6339   4.083   2.595   3.674 -0.7464 -2.3201  0.0511
   70CHL1  H21B 6340   4.068   2.538   3.509 -0.7216 -0.2002  1.2086
   70CHL1  H21C 6341   4.171   2.680   3.548  2.2297 -0.5571 -0.5962
   70CHL1   C22 6342   4.349   2.551   3.712  0.1207  0.0922  0.3311
   70CHL1  H22A 6343   4.451   2.509   3.729  0.0757 -0.2101 -0.1452
   70CHL1  H22B 6344   4.361   2.661   3.700 -2.8413  0.3958 -0.5156
   70CHL1   C23 6345   4.282   2.524   3.847 -0.1677  0.1196  0.0416
   70CHL1  H23A 6346   4.339   2.595   3.910 -1.5360  0.3242  1.0803
   70CHL1  H23B 6347   4.176   2.555   3.845 -1.1985 -3.0153  0.5634
   70CHL1   C24 6348   4.289   2.370   3.889 -0.2106 -0.2910 -0.7711
   70CHL1  H24A 6349   4.240   2.311   3.809  1.8445 -0.7789 -1.7186
   70CHL1  H24B 6350   4.399   2.360   3.897 -0.0300  2.1670  1.0644
   70CHL1   C25 6351   4.226   2.343   4.023 -0.2629 -0.4541  0.1181
   70CHL1   H25 6352   4.117   2.363   4.018 -0.8794 -2.8949  1.9586
   70CHL1   C26 6353   4.229   2.195   4.063 -0.7318  0.3239  0.3360
   70CHL1  H26A 6354   4.334   2.166   4.043 -1.6600 -1.3466 -2.7503
   70CHL1  H26B 6355   4.198   2.189   4.170 -0.2825  2.1790  0.5997
   70CHL1  H26C 6356   4.167   2.132   3.996  0.6360 -2.4186  1.5123
   70CHL1   C27 6357   4.292   2.429   4.140  0.2423 -0.2665 -0.2586
   70CHL1  H27A 6358   4.398   2.455   4.119  0.6247 -1.0023  0.6728
   70CHL1  H27B 6359   4.226   2.519   4.147 -1.3779 -1.4176 -0.2235
   70CHL1  H27C 6360   4.284   2.369   4.233 -0.4792 -0.2872 -0.3270
   71CHL1    C3 6361   1.929   0.279   2.778  0.4819 -0.2393  0.1765
   71CHL1    H3 6362   2.023   0.331   2.807 -0.9636  1.8012  1.5801
   71CHL1    O3 6363   1.910   0.283   2.642 -0.2617  0.2168  0.2929
   71CHL1   H3' 6364   1.816   0.272   2.631 -0.4544 -1.3900  2.7961
   71CHL1    C4 6365   1.913   0.139   2.826  0.6140  1.1161 -0.3243
   71CHL1   H4A 6366   1.809   0.110   2.798  0.1879  2.5889 -0.3589
   71CHL1   H4B 6367   1.982   0.062   2.787 -1.5261 -1.4820  0.6726
   71CHL1    C5 6368   1.926   0.126   2.978 -0.2820  1.0693 -0.3176
   71CHL1    C6 6369   2.028   0.053   3.034  0.3752  0.7025 -0.0658
   71CHL1    H6 6370   2.099  -0.003   2.970  0.8594  0.3943  0.7195
   71CHL1    C7 6371   2.047   0.044   3.185  0.6648 -0.9217 -0.4732
   71CHL1   H7A 6372   2.077  -0.057   3.221 -0.0206 -0.0996  2.6512
   71CHL1   H7B 6373   2.123   0.118   3.217 -0.1029 -0.8722  1.3312
   71CHL1    C8 6374   1.917   0.078   3.265  0.0493  0.6473 -0.5349
   71CHL1    H8 6375   1.849  -0.010   3.260  1.0231 -0.2449  1.0478
   71CHL1   C14 6376   1.961   0.102   3.411 -0.0019 -0.8627  0.1930
   71CHL1   H14 6377   2.033   0.186   3.406 -0.2159 -0.7433 -1.2287
   71CHL1   C15 6378   2.041  -0.004   3.487 -0.5554 -0.0278 -0.2621
   71CHL1  H15A 6379   1.990  -0.103   3.496  0.3851 -0.3351  4.2115
   71CHL1  H15B 6380   2.146  -0.023   3.458  0.1537 -0.0262  2.0616
   71CHL1   C16 6381   2.028   0.043   3.636  0.1262 -0.5799 -0.0499
   71CHL1  H16A 6382   2.003  -0.043   3.702  0.5915  0.5463  1.6748
   71CHL1  H16B 6383   2.120   0.089   3.680  0.3325 -0.8420 -0.2034
   71CHL1   C17 6384   1.928   0.155   3.646  0.4725 -0.8719 -0.3756
   71CHL1   H17 6385   1.976   0.254   3.637  0.7422 -0.9575  0.1019
   71CHL1   C13 6386   1.854   0.143   3.509  0.2149 -0.3391 -1.0515
   71CHL1   C18 6387   1.739   0.033   3.524 -0.2167 -0.4776  0.3152
   71CHL1  H18A 6388   1.664   0.058   3.602  0.1454  1.0871  0.1950
   71CHL1  H18B 6389   1.683   0.025   3.429  0.6999 -2.3959 -0.1120
   71CHL1  H18C 6390   1.783  -0.066   3.549  0.0144 -0.6458 -0.7195
   71CHL1   C12 6391   1.799   0.278   3.446 -1.0925  0.4604 -0.4297
   71CHL1  H12A 6392   1.715   0.311   3.510 -1.7988 -2.0719  0.0589
   71CHL1  H12B 6393   1.871   0.363   3.456 -0.9545  0.3836 -0.7544
   71CHL1   C11 6394   1.752   0.266   3.305  0.0796  0.4463  0.5405
   71CHL1  H11A 6395   1.661   0.204   3.309  0.5832 -0.5057 -1.6836
   71CHL1  H11B 6396   1.725   0.365   3.261 -0.7443 -0.0682 -0.1307
   71CHL1    C9 6397   1.860   0.214   3.215 -0.2127 -0.2046 -0.2605
   71CHL1    H9 6398   1.949   0.278   3.232 -0.0799 -0.9114  2.0350
   71CHL1   C10 6399   1.826   0.212   3.061 -0.2472 -0.0154  0.2098
   71CHL1   C19 6400   1.683   0.155   3.041  0.4654 -0.1386 -0.0790
   71CHL1  H19A 6401   1.664   0.120   2.937  2.3975 -4.7925  0.9342
   71CHL1  H19B 6402   1.684   0.065   3.105 -0.1379 -0.3546 -0.3641
   71CHL1  H19C 6403   1.604   0.232   3.058 -0.2785 -1.1157  1.0191
   71CHL1    C1 6404   1.827   0.361   3.000  0.4383  0.7799 -0.0197
   71CHL1   H1A 6405   1.739   0.419   3.034 -0.2467 -0.6179  0.6902
   71CHL1   H1B 6406   1.927   0.404   3.026  0.8883 -1.0577  1.5704
   71CHL1    C2 6407   1.815   0.358   2.847 -0.1620 -0.6444  0.3090
   71CHL1   H2A 6408   1.803   0.466   2.823  0.1171 -0.7385 -0.2810
   71CHL1   H2B 6409   1.718   0.310   2.821  0.5119 -0.1865 -3.8554
   71CHL1   C20 6410   1.846   0.151   3.773  0.6766 -1.0144  0.0229
   71CHL1   H20 6411   1.788   0.057   3.782  0.6591 -0.8875  1.6257
   71CHL1   C21 6412   1.765   0.277   3.774  0.1624 -0.0363  0.3458
   71CHL1  H21A 6413   1.682   0.265   3.701  1.0014 -1.8144 -0.3815
   71CHL1  H21B 6414   1.819   0.368   3.740 -0.3964 -0.8553 -3.2060
   71CHL1  H21C 6415   1.720   0.295   3.874  1.5384  1.0009  0.8001
   71CHL1   C22 6416   1.933   0.155   3.912  0.2675 -0.0176 -0.2169
   71CHL1  H22A 6417   2.013   0.078   3.900 -1.0613 -1.2849 -1.3695
   71CHL1  H22B 6418   1.982   0.252   3.933  0.7030  0.1489 -1.8755
   71CHL1   C23 6419   1.847   0.115   4.027  0.0877  0.8569 -0.0263
   71CHL1  H23A 6420   1.767   0.192   4.038 -1.3463 -0.8376  2.3948
   71CHL1  H23B 6421   1.797   0.018   4.004 -0.6859  1.1878  0.2149
   71CHL1   C24 6422   1.931   0.100   4.157 -0.0634  0.1395 -0.3949
   71CHL1  H24A 6423   1.993   0.009   4.142  0.8176  1.0746 -3.1347
   71CHL1  H24B 6424   2.000   0.187   4.166 -0.4063  0.3770 -0.0197
   71CHL1   C25 6425   1.847   0.090   4.294 -0.0601 -0.1637  0.4396
   71CHL1   H25 6426   1.923   0.053   4.366  0.6795  0.0371 -0.2180
   71CHL1   C26 6427   1.794   0.221   4.337 -0.3489  0.3565 -0.0281
   71CHL1  H26A 6428   1.720   0.254   4.261  0.0602 -1.8436 -1.4693
   71CHL1  H26B 6429   1.744   0.217   4.436  1.1138 -2.2705  0.7039
   71CHL1  H26C 6430   1.869   0.302   4.350 -1.0521  0.6650  3.0116
   71CHL1   C27 6431   1.736  -0.018   4.274 -0.0467 -0.0408 -0.1006
   71CHL1  H27A 6432   1.705  -0.054   4.374 -2.1633 -0.6289 -0.9071
   71CHL1  H27B 6433   1.647   0.020   4.220  0.3624  1.1228  0.0024
   71CHL1  H27C 6434   1.776  -0.103   4.214 -1.3593  0.3856 -1.6536
   72CHL1    C3 6435   0.469   4.912   2.747 -0.6530 -0.1316  0.2580
   72CHL1    H3 6436   0.580   4.916   2.759 -0.4565 -2.2034 -0.5447
   72CHL1    O3 6437   0.438   4.874   2.613 -0.0563  0.5092 -0.0754
   72CHL1   H3' 6438   0.407   4.784   2.612 -0.7441  0.7288 -1.2040
   72CHL1    C4 6439   0.413   4.815   2.855 -0.0532  1.1092  0.8428
   72CHL1   H4A 6440   0.308   4.788   2.833 -0.3831  2.5769  0.5508
   72CHL1   H4B 6441   0.468   4.721   2.831 -0.7799  1.5613 -3.3415
   72CHL1    C5 6442   0.428   4.851   3.005 -0.3867 -0.0209  0.5472
   72CHL1    C6 6443   0.487   4.769   3.094 -0.7341 -0.3121 -0.0604
   72CHL1    H6 6444   0.514   4.673   3.047 -0.5714 -0.3992  0.2099
   72CHL1    C7 6445   0.497   4.804   3.239 -0.3469 -0.0262  0.4535
   72CHL1   H7A 6446   0.494   4.719   3.310  0.3886  0.2619  0.8393
   72CHL1   H7B 6447   0.605   4.827   3.256 -0.4400  2.1723 -1.3823
   72CHL1    C8 6448   0.413   4.924   3.285 -0.0236 -0.1430  0.2466
   72CHL1    H8 6449   0.306   4.893   3.282  0.9075 -3.7230 -0.3237
   72CHL1   C14 6450   0.458   4.970   3.421  0.2211 -0.0982  0.2620
   72CHL1   H14 6451   0.564   4.997   3.403  0.6862 -0.8410  1.7201
   72CHL1   C15 6452   0.463   4.867   3.544  0.1924  0.2098  0.1573
   72CHL1  H15A 6453   0.370   4.808   3.558  0.7037 -0.5394  0.4621
   72CHL1  H15B 6454   0.548   4.796   3.531  0.2009  0.3158 -0.3859
   72CHL1   C16 6455   0.495   4.968   3.655 -0.1933 -0.5613 -0.2603
   72CHL1  H16A 6456   0.437   4.929   3.741 -2.6414  0.6547 -1.2700
   72CHL1  H16B 6457   0.605   4.970   3.668  0.0352 -2.9007 -1.3402
   72CHL1   C17 6458   0.450   5.110   3.611 -0.2180  0.1550  0.1773
   72CHL1   H17 6459   0.544   5.166   3.590 -0.8225  2.3837  2.7775
   72CHL1   C13 6460   0.381   5.089   3.475 -0.3158 -0.0226  1.0132
   72CHL1   C18 6461   0.235   5.049   3.503  0.5956  0.9692  0.2798
   72CHL1  H18A 6462   0.183   5.140   3.538  0.3312  0.8127  0.2957
   72CHL1  H18B 6463   0.183   5.009   3.414 -0.1682 -1.1181  1.5747
   72CHL1  H18C 6464   0.225   4.972   3.583  0.3781 -0.6909 -1.2853
   72CHL1   C12 6465   0.390   5.199   3.368  0.1210 -0.9568 -0.4725
   72CHL1  H12A 6466   0.350   5.296   3.404  5.5004  1.2069  0.5256
   72CHL1  H12B 6467   0.497   5.224   3.351 -0.0901 -0.7802 -1.6549
   72CHL1   C11 6468   0.339   5.157   3.230 -0.3913  0.4871 -0.0232
   72CHL1  H11A 6469   0.233   5.127   3.242 -0.0674 -0.1524  1.5180
   72CHL1  H11B 6470   0.333   5.247   3.165 -2.0728  0.6245  0.2943
   72CHL1    C9 6471   0.424   5.040   3.182  0.0426 -0.3397  0.3079
   72CHL1    H9 6472   0.526   5.083   3.174 -0.4672  0.8523 -0.0629
   72CHL1   C10 6473   0.380   4.994   3.040 -0.0376 -0.7147  0.4953
   72CHL1   C19 6474   0.222   4.966   3.023 -0.4967  0.0486 -0.2987
   72CHL1  H19A 6475   0.180   5.068   3.032  3.1379  1.6590  0.1250
   72CHL1  H19B 6476   0.199   4.935   2.919 -0.2045 -0.3435 -0.2477
   72CHL1  H19C 6477   0.193   4.889   3.098  4.7804 -2.0986 -0.0217
   72CHL1    C1 6478   0.424   5.095   2.931  0.4423 -0.4509 -0.2232
   72CHL1   H1A 6479   0.357   5.183   2.943  0.0123 -0.7091 -0.7068
   72CHL1   H1B 6480   0.532   5.119   2.938  0.2290  0.1604  1.7146
   72CHL1    C2 6481   0.415   5.055   2.782 -0.2251  0.2955 -0.1108
   72CHL1   H2A 6482   0.468   5.132   2.722  0.4177 -1.1199 -1.4412
   72CHL1   H2B 6483   0.308   5.048   2.754 -0.8469  1.5739  1.7210
   72CHL1   C20 6484   0.380   5.199   3.719 -0.5494  0.0895  0.3362
   72CHL1   H20 6485   0.283   5.156   3.752 -1.9200  3.2524  0.7651
   72CHL1   C21 6486   0.344   5.332   3.665 -0.3653  0.4530  1.0602
   72CHL1  H21A 6487   0.428   5.392   3.624 -2.2235  3.5380  1.3829
   72CHL1  H21B 6488   0.298   5.398   3.742 -0.6867  0.0723  1.1965
   72CHL1  H21C 6489   0.276   5.324   3.578 -0.5454  1.5939  1.0713
   72CHL1   C22 6490   0.469   5.197   3.845 -0.0990 -0.2283 -0.3235
   72CHL1  H22A 6491   0.478   5.091   3.879  1.5484  0.6039  2.0728
   72CHL1  H22B 6492   0.571   5.220   3.808  0.7319 -1.0362  1.3229
   72CHL1   C23 6493   0.419   5.274   3.963  0.4860  0.1771  0.4319
   72CHL1  H23A 6494   0.409   5.381   3.936  2.8817  0.4263  0.3289
   72CHL1  H23B 6495   0.322   5.233   3.999  0.9098 -1.0045  0.2704
   72CHL1   C24 6496   0.527   5.253   4.069  0.3935 -0.5063  0.3027
   72CHL1  H24A 6497   0.503   5.155   4.115 -0.2357 -0.0669  0.9230
   72CHL1  H24B 6498   0.624   5.240   4.016  1.6825 -0.4009  2.5191
   72CHL1   C25 6499   0.536   5.365   4.175 -0.1470 -0.0613 -0.6782
   72CHL1   H25 6500   0.555   5.462   4.125  1.6610  0.7275  1.4033
   72CHL1   C26 6501   0.408   5.406   4.249  0.1644  0.7492 -0.1759
   72CHL1  H26A 6502   0.379   5.311   4.298  2.3517  0.1193 -0.0344
   72CHL1  H26B 6503   0.418   5.481   4.330 -1.4918 -0.8503  1.6095
   72CHL1  H26C 6504   0.328   5.442   4.180  0.8490 -0.1721 -1.4845
   72CHL1   C27 6505   0.651   5.331   4.274 -0.4889  0.2470 -0.1775
   72CHL1  H27A 6506   0.745   5.365   4.226 -2.0101  1.5501 -2.4403
   72CHL1  H27B 6507   0.634   5.399   4.361 -2.3167  1.6409 -1.5364
   72CHL1  H27C 6508   0.647   5.225   4.305  3.4290 -0.4266 -1.3726
   73CHL1    C3 6509   1.578   6.071   2.572 -0.1641  0.7369 -0.2897
   73CHL1    H3 6510   1.627   6.170   2.585  0.2200  0.3499  1.4770
   73CHL1    O3 6511   1.581   6.028   2.434  0.4386 -0.1894  0.2932
   73CHL1   H3' 6512   1.519   6.087   2.391 -0.8078 -2.7237 -1.6650
   73CHL1    C4 6513   1.661   5.978   2.662 -0.0365  0.0327  0.0351
   73CHL1   H4A 6514   1.624   5.875   2.644 -2.5139  0.5547  1.7184
   73CHL1   H4B 6515   1.769   5.986   2.638  0.3356 -0.0195  1.5991
   73CHL1    C5 6516   1.652   6.004   2.811  0.0250 -1.0957 -0.1052
   73CHL1    C6 6517   1.765   6.025   2.894  0.7405  0.4516  0.5416
   73CHL1    H6 6518   1.864   6.028   2.847  0.3868  2.5996 -0.1851
   73CHL1    C7 6519   1.754   6.050   3.048 -0.2415  1.0721  0.5189
   73CHL1   H7A 6520   1.828   5.982   3.096 -1.0095 -0.4667 -0.3843
   73CHL1   H7B 6521   1.776   6.155   3.077 -0.4506  1.3466 -0.2900
   73CHL1    C8 6522   1.616   6.008   3.098  0.5456 -0.6243 -0.4152
   73CHL1    H8 6523   1.608   5.897   3.094  1.5491 -0.7266  0.1718
   73CHL1   C14 6524   1.599   6.066   3.243 -0.2064  0.3109 -0.2063
   73CHL1   H14 6525   1.600   6.175   3.223 -1.1443  0.0050 -2.2701
   73CHL1   C15 6526   1.707   6.022   3.341  0.6724 -0.1632  0.3758
   73CHL1  H15A 6527   1.736   5.918   3.313 -1.5343 -0.4262 -1.1770
   73CHL1  H15B 6528   1.787   6.100   3.343 -0.2396  0.8389  3.9816
   73CHL1   C16 6529   1.645   6.021   3.480 -0.0620 -0.2871 -0.2701
   73CHL1  H16A 6530   1.635   5.915   3.510 -1.0847 -1.2477 -3.5379
   73CHL1  H16B 6531   1.697   6.084   3.555 -0.8448  0.9414 -0.7218
   73CHL1   C17 6532   1.498   6.083   3.456 -0.1157 -0.9439  0.2641
   73CHL1   H17 6533   1.512   6.193   3.448 -2.1850 -0.7375 -1.3393
   73CHL1   C13 6534   1.467   6.045   3.313  0.3207 -0.5786  0.5596
   73CHL1   C18 6535   1.439   5.890   3.310  0.3326  0.1099  0.0792
   73CHL1  H18A 6536   1.421   5.871   3.201  2.6032  0.6588 -0.4335
   73CHL1  H18B 6537   1.522   5.828   3.348  1.8447  0.4549 -2.4311
   73CHL1  H18C 6538   1.344   5.862   3.360 -1.0100  0.8026 -1.9120
   73CHL1   C12 6539   1.371   6.135   3.224  0.1944 -0.5339  0.2921
   73CHL1  H12A 6540   1.268   6.133   3.267  0.8049 -3.4820  1.8549
   73CHL1  H12B 6541   1.404   6.241   3.221  0.9959 -0.8052 -0.4947
   73CHL1   C11 6542   1.365   6.099   3.067  0.4114 -0.2385 -0.3898
   73CHL1  H11A 6543   1.300   6.009   3.061 -0.1338  0.0890  0.3761
   73CHL1  H11B 6544   1.321   6.190   3.021  0.9834  0.9930  1.3887
   73CHL1    C9 6545   1.518   6.083   3.006  0.2442  0.2485 -0.2407
   73CHL1    H9 6546   1.557   6.187   3.010  1.3085 -0.1681  2.0467
   73CHL1   C10 6547   1.509   6.027   2.864 -0.4758  0.3842  0.2217
   73CHL1   C19 6548   1.441   5.887   2.873 -0.3250 -0.0927  0.0730
   73CHL1  H19A 6549   1.333   5.896   2.897 -0.0648  1.7032  0.7215
   73CHL1  H19B 6550   1.440   5.840   2.772 -0.6401 -2.8833  1.3046
   73CHL1  H19C 6551   1.500   5.817   2.935 -0.4016  0.8332  1.2183
   73CHL1    C1 6552   1.423   6.125   2.775  1.0903  0.3182  0.6000
   73CHL1   H1A 6553   1.316   6.125   2.803  1.2775 -1.4987  1.4907
   73CHL1   H1B 6554   1.453   6.232   2.777  0.1998  0.5557  1.3928
   73CHL1    C2 6555   1.430   6.086   2.619  0.0491  0.2640 -0.2490
   73CHL1   H2A 6556   1.397   6.175   2.562  1.1512  0.2944 -0.8600
   73CHL1   H2B 6557   1.370   5.999   2.584 -1.9743  1.6317 -0.3342
   73CHL1   C20 6558   1.402   6.051   3.560  0.1692 -0.0234 -0.6421
   73CHL1   H20 6559   1.399   5.940   3.566  0.8003 -0.1105 -1.8164
   73CHL1   C21 6560   1.258   6.100   3.534  0.7160 -0.0634  0.3549
   73CHL1  H21A 6561   1.271   6.195   3.477  1.2340 -0.0756  0.4519
   73CHL1  H21B 6562   1.201   6.129   3.625  0.1135 -0.2871  0.0602
   73CHL1  H21C 6563   1.205   6.017   3.482  1.5026 -1.0764  1.1256
   73CHL1   C22 6564   1.447   6.098   3.706  0.4962  0.1706 -0.7191
   73CHL1  H22A 6565   1.558   6.097   3.708  0.4870 -0.4703 -0.0260
   73CHL1  H22B 6566   1.419   6.205   3.721 -2.6062 -0.6464  0.0182
   73CHL1   C23 6567   1.383   6.016   3.828 -0.4959 -0.0178 -0.0761
   73CHL1  H23A 6568   1.274   6.034   3.832 -0.1846  2.2355 -0.4321
   73CHL1  H23B 6569   1.407   5.910   3.804 -1.3680 -0.4120  0.7359
   73CHL1   C24 6570   1.466   6.076   3.941  0.4093 -0.3034 -0.7749
   73CHL1  H24A 6571   1.576   6.071   3.928  0.5692  0.0779  0.3469
   73CHL1  H24B 6572   1.443   6.185   3.946  0.9096 -0.2722  1.5120
   73CHL1   C25 6573   1.429   6.042   4.087 -0.1542  0.8245  0.0914
   73CHL1   H25 6574   1.319   6.053   4.092 -0.4098 -0.8542 -1.0497
   73CHL1   C26 6575   1.463   5.886   4.114 -0.2957 -0.0651 -1.1878
   73CHL1  H26A 6576   1.430   5.870   4.219 -1.3758  2.0584 -1.1450
   73CHL1  H26B 6577   1.401   5.829   4.042 -0.9037  0.5855 -1.1985
   73CHL1  H26C 6578   1.569   5.855   4.105 -0.3964 -2.1443  2.6382
   73CHL1   C27 6579   1.495   6.138   4.188 -0.2292 -0.2257  0.0303
   73CHL1  H27A 6580   1.488   6.246   4.164  1.0288 -0.1081  0.1692
   73CHL1  H27B 6581   1.457   6.111   4.289 -1.4551  0.3664 -0.2560
   73CHL1  H27C 6582   1.604   6.120   4.192 -0.4636 -1.6796  0.6569
   74CHL1    C3 6583   1.991   5.219   2.679  0.8866 -0.4161  0.5272
   74CHL1    H3 6584   1.929   5.310   2.691  2.9964  1.3277 -0.8457
   74CHL1    O3 6585   2.031   5.211   2.548  0.1460  0.2342 -0.0314
   74CHL1   H3' 6586   2.094   5.139   2.551 -1.6182 -1.4050 -0.3036
   74CHL1    C4 6587   2.116   5.245   2.767 -0.3994  0.1993 -0.2684
   74CHL1   H4A 6588   2.180   5.157   2.745 -1.2837 -0.2402 -1.1687
   74CHL1   H4B 6589   2.163   5.339   2.730 -1.3734  0.7399 -0.1708
   74CHL1    C5 6590   2.074   5.250   2.913 -0.0924 -0.3263  1.2934
   74CHL1    C6 6591   2.097   5.351   2.994 -0.3459 -0.8279  0.0487
   74CHL1    H6 6592   2.147   5.441   2.957 -0.8753  0.1878  1.6823
   74CHL1    C7 6593   2.065   5.365   3.137 -0.3893  0.1706 -0.4676
   74CHL1   H7A 6594   2.145   5.408   3.201 -0.6566 -1.1943  0.8300
   74CHL1   H7B 6595   1.978   5.432   3.155 -0.2514  0.6989 -1.6706
   74CHL1    C8 6596   2.025   5.226   3.194 -0.8205  0.2796  0.3088
   74CHL1    H8 6597   2.122   5.172   3.197  0.0169  1.6899  4.7303
   74CHL1   C14 6598   1.989   5.246   3.333 -0.3710  0.0546  0.6582
   74CHL1   H14 6599   1.895   5.305   3.333 -0.1924  0.3397  0.3013
   74CHL1   C15 6600   2.082   5.315   3.435 -0.1210  0.7694  0.3796
   74CHL1  H15A 6601   2.185   5.280   3.414 -0.8722 -0.6356 -1.2068
   74CHL1  H15B 6602   2.080   5.424   3.415 -0.7303  0.6264 -0.3803
   74CHL1   C16 6603   2.021   5.274   3.567 -0.6060 -0.9714 -0.8762
   74CHL1  H16A 6604   2.097   5.243   3.642  0.4025  1.6644 -0.6945
   74CHL1  H16B 6605   1.978   5.369   3.606 -0.5902 -0.9844 -0.8280
   74CHL1   C17 6606   1.915   5.165   3.543 -0.4627  0.3512  0.3517
   74CHL1   H17 6607   1.816   5.214   3.527  1.0569  3.8424  0.6986
   74CHL1   C13 6608   1.947   5.112   3.404  0.4343 -0.5279 -0.1011
   74CHL1   C18 6609   2.065   5.008   3.407 -0.3378 -0.4598  0.1046
   74CHL1  H18A 6610   2.152   5.055   3.458  0.8514 -0.6071 -1.7211
   74CHL1  H18B 6611   2.045   4.917   3.467  0.7354  1.1730  3.1547
   74CHL1  H18C 6612   2.098   4.977   3.306 -1.0425  0.6264 -0.4826
   74CHL1   C12 6613   1.833   5.045   3.327 -0.0425  0.1119 -0.8036
   74CHL1  H12A 6614   1.802   4.947   3.369  0.1590 -0.3660 -1.7400
   74CHL1  H12B 6615   1.747   5.113   3.340 -0.4403 -0.3902 -0.7514
   74CHL1   C11 6616   1.855   5.030   3.175  0.5377  0.1312  0.1927
   74CHL1  H11A 6617   1.932   4.950   3.172 -1.2034 -1.6199  0.1821
   74CHL1  H11B 6618   1.764   4.993   3.124  0.6964  0.2702 -0.2011
   74CHL1    C9 6619   1.933   5.157   3.104 -0.2790  0.6564 -0.1800
   74CHL1    H9 6620   1.852   5.230   3.083 -0.1560  1.0848  0.8016
   74CHL1   C10 6621   2.000   5.127   2.967  0.4399 -0.8501  0.5161
   74CHL1   C19 6622   2.093   5.004   2.979 -0.2359  0.6591  0.3321
   74CHL1  H19A 6623   2.140   4.990   2.880  0.2137  2.3449  0.2715
   74CHL1  H19B 6624   2.177   5.011   3.052  1.4166  0.0815 -1.4310
   74CHL1  H19C 6625   2.022   4.921   2.999  1.1842  0.1016  3.7527
   74CHL1    C1 6626   1.887   5.103   2.862  0.6296 -0.5080 -0.0054
   74CHL1   H1A 6627   1.833   5.012   2.897  0.0612  0.3072  1.3477
   74CHL1   H1B 6628   1.812   5.185   2.871 -0.7400 -1.7605  0.5961
   74CHL1    C2 6629   1.924   5.090   2.718 -0.2823  0.6202  0.5952
   74CHL1   H2A 6630   1.831   5.076   2.659  0.7636  0.0407 -0.9786
   74CHL1   H2B 6631   1.981   4.995   2.706 -1.1865  0.0324  0.8925
   74CHL1   C20 6632   1.903   5.064   3.659 -0.1975 -0.6401 -0.0836
   74CHL1   H20 6633   2.002   5.015   3.675 -0.0791 -1.3515 -2.5637
   74CHL1   C21 6634   1.796   4.962   3.627  0.8317  0.1751 -0.1173
   74CHL1  H21A 6635   1.749   4.914   3.715 -1.6831 -1.6085 -2.2574
   74CHL1  H21B 6636   1.833   4.871   3.574  0.7857  0.1208 -0.0566
   74CHL1  H21C 6637   1.711   5.005   3.570 -0.1808  0.4808  1.5534
   74CHL1   C22 6638   1.873   5.140   3.789 -0.3502  0.5894 -0.6613
   74CHL1  H22A 6639   1.872   5.250   3.776  3.3565  1.2806  2.8669
   74CHL1  H22B 6640   1.770   5.115   3.824 -0.2347  3.0075  1.7528
   74CHL1   C23 6641   1.971   5.087   3.899  0.0456  0.7551 -0.0835
   74CHL1  H23A 6642   1.980   4.976   3.895  1.8430  0.8840 -0.6700
   74CHL1  H23B 6643   2.071   5.120   3.864 -0.7563  0.8932 -2.4019
   74CHL1   C24 6644   1.946   5.149   4.039 -0.1247  0.3944  0.2242
   74CHL1  H24A 6645   1.995   5.248   4.051  3.4391 -1.4571  2.3153
   74CHL1  H24B 6646   1.836   5.140   4.057  0.1290 -2.2845  0.7728
   74CHL1   C25 6647   2.016   5.071   4.153 -0.4666 -0.0944  0.0423
   74CHL1   H25 6648   1.975   4.968   4.154  1.5050 -0.9361 -1.2951
   74CHL1   C26 6649   2.168   5.058   4.142  0.4762 -0.3127 -0.6545
   74CHL1  H26A 6650   2.219   5.152   4.110  1.4760 -1.2918 -2.0343
   74CHL1  H26B 6651   2.221   5.017   4.230  2.4489  4.2092  0.5826
   74CHL1  H26C 6652   2.191   4.978   4.069 -0.5893 -1.0994 -0.1587
   74CHL1   C27 6653   1.979   5.129   4.287  0.1559 -0.4211  0.1937
   74CHL1  H27A 6654   2.017   5.070   4.373 -1.3404  0.3958  1.4643
   74CHL1  H27B 6655   2.015   5.234   4.291 -2.1223  0.4277 -0.0773
   74CHL1  H27C 6656   1.870   5.152   4.286 -0.0009 -1.1616 -0.6934
   75CHL1    C3 6657   2.744   5.818   2.978  0.9874 -0.6921 -0.0067
   75CHL1    H3 6658   2.676   5.731   2.982  0.3746 -0.2396 -0.3901
   75CHL1    O3 6659   2.762   5.835   2.837 -0.4272  0.3593  0.2985
   75CHL1   H3' 6660   2.743   5.928   2.823 -0.7893  0.4734  1.5038
   75CHL1    C4 6661   2.662   5.938   3.034 -0.6369  0.3504  0.5601
   75CHL1   H4A 6662   2.713   6.031   3.002 -1.9816  0.8222 -0.2971
   75CHL1   H4B 6663   2.559   5.943   2.991 -0.7679 -3.8930 -0.0403
   75CHL1    C5 6664   2.659   5.935   3.187 -0.0982  0.1885 -0.1296
   75CHL1    C6 6665   2.542   5.935   3.248 -0.1832  0.3502 -0.3808
   75CHL1    H6 6666   2.453   5.948   3.184  0.2883  2.2599 -0.7022
   75CHL1    C7 6667   2.518   5.943   3.397 -0.0734  0.4557 -0.1117
   75CHL1   H7A 6668   2.439   6.014   3.426 -1.7420 -2.2667  2.5916
   75CHL1   H7B 6669   2.481   5.847   3.439  0.1370  1.0122  1.3857
   75CHL1    C8 6670   2.651   5.979   3.467  0.1290  0.2566 -0.0267
   75CHL1    H8 6671   2.677   6.084   3.444 -1.4200  0.2639 -1.9953
   75CHL1   C14 6672   2.642   5.947   3.618 -0.1662 -0.0018  0.0181
   75CHL1   H14 6673   2.644   5.837   3.631 -1.4149  0.2329  3.0698
   75CHL1   C15 6674   2.517   5.990   3.697  0.3641  0.2780 -0.0690
   75CHL1  H15A 6675   2.493   6.093   3.664  0.1329 -0.3342 -1.9135
   75CHL1  H15B 6676   2.430   5.924   3.678 -1.4401  2.9449 -1.6880
   75CHL1   C16 6677   2.559   5.981   3.843 -0.0036 -0.5314  0.8084
   75CHL1  H16A 6678   2.532   6.077   3.892 -0.2110 -0.0248 -0.2763
   75CHL1  H16B 6679   2.521   5.892   3.898  0.7104 -1.7436 -0.5924
   75CHL1   C17 6680   2.711   5.966   3.842 -0.4904  0.6557 -0.6373
   75CHL1   H17 6681   2.727   5.858   3.865 -0.4241  1.0710  1.3698
   75CHL1   C13 6682   2.763   5.998   3.698 -0.4001 -0.1207  0.5038
   75CHL1   C18 6683   2.789   6.154   3.681  0.7321  0.2298  0.4268
   75CHL1  H18A 6684   2.861   6.197   3.753 -0.1427  0.6299  1.0723
   75CHL1  H18B 6685   2.827   6.172   3.578 -0.9338 -1.3820 -0.5411
   75CHL1  H18C 6686   2.693   6.209   3.688 -0.8326 -1.5554 -3.5169
   75CHL1   C12 6687   2.877   5.912   3.647  0.0131  0.5593  0.2091
   75CHL1  H12A 6688   2.973   5.918   3.702  0.7849 -2.7877 -0.4953
   75CHL1  H12B 6689   2.850   5.806   3.666  1.7765  0.0556  0.1039
   75CHL1   C11 6690   2.905   5.926   3.492 -0.2202  0.5254 -0.0501
   75CHL1  H11A 6691   2.950   6.027   3.487 -1.4170  1.0276 -1.1315
   75CHL1  H11B 6692   2.982   5.850   3.469  0.3582  1.3722 -0.9886
   75CHL1    C9 6693   2.774   5.906   3.408 -0.2878  0.1303 -0.9123
   75CHL1    H9 6694   2.747   5.801   3.433 -0.8482  0.3894 -0.4141
   75CHL1   C10 6695   2.793   5.921   3.259  0.6457 -0.1858  0.6034
   75CHL1   C19 6696   2.872   6.048   3.229  0.2649 -0.0241  0.6742
   75CHL1  H19A 6697   2.884   6.062   3.120 -0.7004 -1.1950  0.4063
   75CHL1  H19B 6698   2.831   6.145   3.265 -1.5844  0.4265 -2.2985
   75CHL1  H19C 6699   2.976   6.031   3.266  0.8499  0.9618 -0.4429
   75CHL1    C1 6700   2.869   5.799   3.199 -0.1822 -0.3043 -0.1643
   75CHL1   H1A 6701   2.975   5.798   3.232  0.3825 -1.7508 -1.8535
   75CHL1   H1B 6702   2.829   5.698   3.223  0.4809 -0.4570  0.3212
   75CHL1    C2 6703   2.877   5.798   3.043  0.4493  0.7540  0.1453
   75CHL1   H2A 6704   2.920   5.703   3.005  1.0209  0.2891  1.8725
   75CHL1   H2B 6705   2.947   5.877   3.007  1.4078  0.1888  0.7034
   75CHL1   C20 6706   2.781   6.042   3.958 -0.5327 -0.1675 -0.3474
   75CHL1   H20 6707   2.775   6.150   3.930  1.3188 -0.2732 -1.3700
   75CHL1   C21 6708   2.930   5.996   3.969 -0.0926  0.6486 -0.1553
   75CHL1  H21A 6709   2.989   6.005   3.876  0.1553 -3.5003 -0.5972
   75CHL1  H21B 6710   2.934   5.889   3.999 -1.1050  1.1734  2.0623
   75CHL1  H21C 6711   2.979   6.048   4.054 -1.9426  1.4122  0.5147
   75CHL1   C22 6712   2.716   6.027   4.103 -0.0229  0.0636  0.0570
   75CHL1  H22A 6713   2.763   6.099   4.173 -0.4454  0.9405 -0.5512
   75CHL1  H22B 6714   2.607   6.049   4.101 -0.0723  0.1579 -3.5675
   75CHL1   C23 6715   2.732   5.881   4.164 -0.0341  0.1811 -0.0676
   75CHL1  H23A 6716   2.684   5.802   4.103 -0.0246 -0.9251  1.2902
   75CHL1  H23B 6717   2.837   5.857   4.190  0.0685 -0.5279 -1.1184
   75CHL1   C24 6718   2.633   5.867   4.287 -0.5590 -0.0348  0.0752
   75CHL1  H24A 6719   2.660   5.944   4.362  2.0481 -1.0729  0.3116
   75CHL1  H24B 6720   2.528   5.879   4.252 -0.5155  0.7041  0.1832
   75CHL1   C25 6721   2.648   5.735   4.367  0.0102  0.4402 -0.9686
   75CHL1   H25 6722   2.755   5.707   4.355 -0.7038 -3.0859 -0.0444
   75CHL1   C26 6723   2.617   5.757   4.516  0.2287 -0.2033 -0.4927
   75CHL1  H26A 6724   2.525   5.814   4.539  1.0299  0.7746  0.4094
   75CHL1  H26B 6725   2.604   5.663   4.574 -0.7245  1.1569  1.6018
   75CHL1  H26C 6726   2.703   5.813   4.559 -0.2306  0.7063 -0.7300
   75CHL1   C27 6727   2.558   5.619   4.312  0.7823 -0.1850 -0.4085
   75CHL1  H27A 6728   2.601   5.581   4.217 -1.4144 -0.9159 -1.1908
   75CHL1  H27B 6729   2.581   5.532   4.378  2.8297  0.6184  0.0033
   75CHL1  H27C 6730   2.450   5.647   4.306  0.1433 -2.0219  1.4107
   76CHL1    C3 6731   6.793   4.043   2.901 -0.3807 -0.0360 -0.1230
   76CHL1    H3 6732   6.904   4.036   2.909 -0.3771  0.5135  0.3690
   76CHL1    O3 6733   6.784   4.102   2.774  0.3621 -0.0724 -0.1880
   76CHL1   H3' 6734   6.691   4.095   2.748  0.4388  2.0051 -1.2422
   76CHL1    C4 6735   6.728   3.909   2.900  0.3441 -0.2207  0.4053
   76CHL1   H4A 6736   6.621   3.912   2.868  0.9721 -2.7202 -2.4037
   76CHL1   H4B 6737   6.769   3.842   2.822 -0.9450  0.8630 -1.2579
   76CHL1    C5 6738   6.728   3.845   3.038 -0.1847 -0.1553  0.3583
   76CHL1    C6 6739   6.770   3.716   3.057 -0.2104 -0.3087 -0.2810
   76CHL1    H6 6740   6.803   3.660   2.968  0.5677 -0.8259  0.3235
   76CHL1    C7 6741   6.760   3.643   3.191 -0.2765  0.1264  0.2046
   76CHL1   H7A 6742   6.730   3.536   3.184 -1.2042  0.2167  2.0790
   76CHL1   H7B 6743   6.867   3.633   3.221  0.1629  1.9075 -0.6023
   76CHL1    C8 6744   6.673   3.721   3.296 -0.8586  0.1445 -0.1105
   76CHL1    H8 6745   6.567   3.712   3.261 -0.0400 -1.3596 -2.4516
   76CHL1   C14 6746   6.704   3.668   3.435  0.5356 -0.1685 -0.8924
   76CHL1   H14 6747   6.813   3.683   3.454  0.7816 -0.8091 -1.7049
   76CHL1   C15 6748   6.690   3.514   3.467 -0.1380  0.4577 -0.5220
   76CHL1  H15A 6749   6.616   3.470   3.397 -0.7956 -0.5278  0.7491
   76CHL1  H15B 6750   6.787   3.469   3.437 -1.8842 -1.7151 -3.3680
   76CHL1   C16 6751   6.656   3.498   3.611  0.1185  0.2327 -0.5839
   76CHL1  H16A 6752   6.553   3.457   3.621 -1.3942  3.6534 -0.5618
   76CHL1  H16B 6753   6.725   3.436   3.672 -1.1006  0.3612  0.9891
   76CHL1   C17 6754   6.673   3.644   3.666  0.4667  0.2472 -0.9598
   76CHL1   H17 6755   6.782   3.660   3.679 -0.1729  5.7061  0.3643
   76CHL1   C13 6756   6.628   3.737   3.545 -0.2066 -0.4135 -0.2216
   76CHL1   C18 6757   6.483   3.712   3.524 -0.3801  0.0261 -0.2226
   76CHL1  H18A 6758   6.440   3.776   3.443  1.3885 -1.1274 -2.1867
   76CHL1  H18B 6759   6.457   3.606   3.507 -1.1748  0.2165 -0.2323
   76CHL1  H18C 6760   6.423   3.750   3.610 -0.1513  3.3006 -1.3446
   76CHL1   C12 6761   6.668   3.887   3.549  0.2146  0.6475 -0.9070
   76CHL1  H12A 6762   6.613   3.936   3.633  0.9759  2.5997 -1.5121
   76CHL1  H12B 6763   6.777   3.893   3.570  0.3767  0.1111 -1.5909
   76CHL1   C11 6764   6.637   3.953   3.412 -0.5529  0.5425 -0.3656
   76CHL1  H11A 6765   6.527   3.957   3.399 -0.5250  0.8247 -0.5148
   76CHL1  H11B 6766   6.672   4.058   3.425  1.5739 -0.3287  2.0814
   76CHL1    C9 6767   6.699   3.871   3.288  0.7543  0.5959  0.2787
   76CHL1    H9 6768   6.809   3.865   3.298  0.6022 -1.4018  1.2434
   76CHL1   C10 6769   6.672   3.935   3.145 -0.0852  0.4520  0.1619
   76CHL1   C19 6770   6.522   3.950   3.119  0.1555  0.4521  0.1706
   76CHL1  H19A 6771   6.497   4.004   3.025 -1.6182 -2.0051 -0.8871
   76CHL1  H19B 6772   6.463   3.856   3.114  0.6322  0.1221  0.7033
   76CHL1  H19C 6773   6.482   4.020   3.195  0.2385 -0.7796  1.3791
   76CHL1    C1 6774   6.741   4.073   3.143 -0.1381 -0.0674  0.0476
   76CHL1   H1A 6775   6.680   4.134   3.213 -1.2001 -0.0228 -0.8793
   76CHL1   H1B 6776   6.844   4.064   3.183  0.4224  0.1760 -1.2746
   76CHL1    C2 6777   6.737   4.139   3.005  0.2376  0.5835 -0.0956
   76CHL1   H2A 6778   6.785   4.239   3.002 -2.9762  2.2151 -1.5208
   76CHL1   H2B 6779   6.633   4.168   2.981 -0.5410 -2.1644 -0.3932
   76CHL1   C20 6780   6.616   3.682   3.808  0.4145 -0.1084  0.3367
   76CHL1   H20 6781   6.522   3.740   3.794  0.4530 -0.2357 -0.5077
   76CHL1   C21 6782   6.718   3.776   3.879 -0.6164  0.1575  0.3674
   76CHL1  H21A 6783   6.757   3.851   3.807  0.1313 -0.6087 -0.0381
   76CHL1  H21B 6784   6.809   3.734   3.927 -1.1961 -3.0154 -1.1097
   76CHL1  H21C 6785   6.653   3.826   3.954  0.1296  2.1408 -0.2339
   76CHL1   C22 6786   6.584   3.563   3.897 -0.7109  0.2240 -0.8449
   76CHL1  H22A 6787   6.517   3.484   3.855  0.4938 -1.1044 -0.3391
   76CHL1  H22B 6788   6.678   3.512   3.927 -1.5272 -0.4714  0.6524
   76CHL1   C23 6789   6.540   3.600   4.040 -0.2756 -0.1836  0.0189
   76CHL1  H23A 6790   6.630   3.627   4.100  1.5824 -1.0522 -2.2103
   76CHL1  H23B 6791   6.467   3.683   4.038 -0.1421 -0.0593 -2.0638
   76CHL1   C24 6792   6.481   3.481   4.127 -0.4827 -0.6391  0.7513
   76CHL1  H24A 6793   6.406   3.422   4.069 -0.7089  0.3887 -0.0301
   76CHL1  H24B 6794   6.559   3.406   4.149  1.0395  0.8209  0.5121
   76CHL1   C25 6795   6.413   3.531   4.258 -0.4743 -0.3566  0.1853
   76CHL1   H25 6796   6.481   3.606   4.305 -1.8868 -0.7789  3.1421
   76CHL1   C26 6797   6.278   3.607   4.243 -0.4492 -1.1215  0.3673
   76CHL1  H26A 6798   6.202   3.551   4.184 -3.1055  1.0106  1.5701
   76CHL1  H26B 6799   6.240   3.611   4.347  0.8401  1.1751  0.8246
   76CHL1  H26C 6800   6.310   3.702   4.194  2.3058 -2.3473 -0.4194
   76CHL1   C27 6801   6.399   3.419   4.361  0.2312 -0.7005 -0.1422
   76CHL1  H27A 6802   6.492   3.364   4.388  1.0558  1.3951  1.6202
   76CHL1  H27B 6803   6.359   3.461   4.456 -0.4680 -0.5349 -0.5017
   76CHL1  H27C 6804   6.319   3.351   4.323 -1.6928  1.2548  0.1950
   77SOPE     N 6805   3.904   0.817   6.445 -1.1796  0.4369  0.0185
   77SOPE   HN1 6806   3.938   0.794   6.541 -0.9017 -1.1683 -0.4257
   77SOPE   HN2 6807   3.890   0.919   6.440 -1.5840  0.3754 -0.1286
   77SOPE   HN3 6808   3.813   0.768   6.435 -0.0897 -1.3147 -2.2675
   77SOPE   C12 6809   4.018   0.779   6.348  0.8783  0.2981 -0.1798
   77SOPE  H12A 6810   3.984   0.813   6.247 -0.3928  0.5627  0.3258
   77SOPE  H12B 6811   4.028   0.668   6.344 -2.7610 -0.2286  1.2870
   77SOPE   C11 6812   4.151   0.836   6.391 -0.7446 -0.0600 -0.8031
   77SOPE  H11A 6813   4.141   0.941   6.428  2.9389  1.1285 -2.6803
   77SOPE  H11B 6814   4.207   0.846   6.296  0.4210  0.2326 -0.1088
   77SOPE     P 6815   4.320   0.645   6.463 -0.1366  0.2835  0.1758
   77SOPE   O13 6816   4.307   0.533   6.556  0.1141 -0.3711 -0.1828
   77SOPE   O14 6817   4.448   0.721   6.470  0.4366 -0.3442  0.3137
   77SOPE   O12 6818   4.207   0.750   6.489  0.2571  0.1735 -0.5195
   77SOPE   O11 6819   4.278   0.597   6.318 -0.0982  0.1756  0.2083
   77SOPE    C1 6820   4.333   0.477   6.259  0.1546 -0.4093  0.0536
   77SOPE    HA 6821   4.269   0.390   6.285 -0.8340  0.2904  0.0172
   77SOPE    HB 6822   4.433   0.450   6.301 -0.0511  0.5619  1.2404
   77SOPE    C2 6823   4.338   0.490   6.098 -0.1926 -0.1699 -0.1873
   77SOPE    HS 6824   4.445   0.514   6.083 -0.1774  1.3511  1.8961
   77SOPE   O21 6825   4.261   0.589   6.032 -0.0768 -0.4558 -0.2548
   77SOPE   C21 6826   4.301   0.714   6.042  0.5002  0.6713 -0.5177
   77SOPE   O22 6827   4.390   0.757   6.111  0.4563 -0.1921  0.4390
   77SOPE   C22 6828   4.209   0.802   5.969 -0.1981  0.8412 -0.4409
   77SOPE   H2R 6829   4.222   0.905   6.011 -0.2777  1.3309 -1.5882
   77SOPE   H2S 6830   4.105   0.777   6.001  0.5450  0.1336  1.5442
   77SOPE    C3 6831   4.301   0.354   6.036 -0.1513  0.0565 -0.6602
   77SOPE    HX 6832   4.201   0.313   6.059  0.0870 -1.1631 -1.6481
   77SOPE    HY 6833   4.361   0.277   6.089 -3.1000  0.0375  3.0156
   77SOPE   O31 6834   4.304   0.351   5.891 -0.5168  0.5183 -0.0128
   77SOPE   C31 6835   4.418   0.305   5.843 -0.7419  0.4217 -0.5388
   77SOPE   O32 6836   4.526   0.304   5.903  0.3338 -0.5529 -0.2531
   77SOPE   C32 6837   4.410   0.262   5.695 -0.0704 -0.2539  1.1240
   77SOPE   H2X 6838   4.353   0.168   5.680  1.3178 -1.4632  3.0478
   77SOPE   H2Y 6839   4.513   0.248   5.655 -0.3900 -0.7869  0.4616
   77SOPE   C23 6840   4.230   0.793   5.820  0.2071 -0.3935  0.1057
   77SOPE   H3R 6841   4.137   0.837   5.777  0.8333  1.3049  0.4512
   77SOPE   H3S 6842   4.224   0.686   5.789 -1.3287 -0.7594  1.4912
   77SOPE   C24 6843   4.363   0.866   5.778 -0.0749  0.4214 -0.4822
   77SOPE   H4R 6844   4.351   0.954   5.844 -1.2421 -0.6286  0.7801
   77SOPE   H4S 6845   4.450   0.809   5.816 -1.3378 -1.2470  0.0299
   77SOPE   C25 6846   4.372   0.900   5.635  0.3036 -0.1518  0.1690
   77SOPE   H5R 6847   4.394   0.818   5.563  1.1343  1.3717 -1.3965
   77SOPE   H5S 6848   4.288   0.959   5.594  0.2747 -1.5769 -2.0128
   77SOPE   C26 6849   4.487   0.993   5.592 -0.0111 -0.1001  0.3315
   77SOPE   H6R 6850   4.474   1.100   5.619 -1.4077 -0.4833  1.2946
   77SOPE   H6S 6851   4.579   0.965   5.648  0.6773 -1.1300 -1.2337
   77SOPE   C27 6852   4.523   0.973   5.444  0.1858 -0.1882 -0.3889
   77SOPE   H7R 6853   4.571   0.875   5.424  1.3334  0.4307 -0.7887
   77SOPE   H7S 6854   4.423   0.973   5.395 -0.2961 -0.4498  0.5614
   77SOPE   C28 6855   4.609   1.086   5.378  0.9058  0.3106 -0.2054
   77SOPE   H8R 6856   4.602   1.066   5.269 -0.4908  1.6407 -0.3917
   77SOPE   H8S 6857   4.566   1.182   5.414  1.7720  0.8875 -0.6703
   77SOPE   C29 6858   4.749   1.085   5.426 -0.1772 -0.4123 -0.4281
   77SOPE   H91 6859   4.786   0.993   5.474  0.4813  0.3760  0.6204
   77SOPE  C210 6860   4.840   1.170   5.384 -0.1893  0.1042  0.0879
   77SOPE  H101 6861   4.944   1.162   5.418  0.2661  0.8740 -1.0560
   77SOPE  C211 6862   4.818   1.286   5.288  0.8986  0.4530  0.1986
   77SOPE  H11R 6863   4.861   1.377   5.335  1.0110 -0.5258  2.1129
   77SOPE  H11S 6864   4.709   1.300   5.273  0.8279  0.7963  0.9761
   77SOPE  C212 6865   4.887   1.250   5.160 -0.1998 -0.4191  0.3808
   77SOPE  H12R 6866   4.981   1.196   5.182 -1.6874 -3.9294 -1.0775
   77SOPE  H12S 6867   4.893   1.346   5.105  2.6107 -1.0798 -0.6085
   77SOPE  C213 6868   4.806   1.152   5.071  0.3535  0.1017  0.5532
   77SOPE  H13R 6869   4.702   1.182   5.094 -0.3456 -2.2252  0.7178
   77SOPE  H13S 6870   4.825   1.049   5.108 -3.2182  0.0811  2.7595
   77SOPE  C214 6871   4.849   1.173   4.919 -0.1251 -0.1416  0.4250
   77SOPE  H14R 6872   4.956   1.145   4.908 -0.1214 -2.3167  4.1941
   77SOPE  H14S 6873   4.829   1.278   4.889  1.8566  0.2360  0.2645
   77SOPE  C215 6874   4.764   1.073   4.831 -0.5473 -0.5751 -0.4044
   77SOPE  H15R 6875   4.661   1.111   4.847  0.2656  1.2240  0.9054
   77SOPE  H15S 6876   4.772   0.971   4.874  0.3856  0.4765  2.1297
   77SOPE  C216 6877   4.795   1.074   4.677  0.0484  0.1777 -0.2678
   77SOPE  H16R 6878   4.727   1.005   4.623  0.6493 -0.0234 -0.7701
   77SOPE  H16S 6879   4.897   1.031   4.678  0.5122  1.2368  0.2874
   77SOPE  C217 6880   4.795   1.206   4.607  0.0960  0.0804 -0.0491
   77SOPE  H17R 6881   4.844   1.277   4.677  0.5843  0.6986 -1.0052
   77SOPE  H17S 6882   4.690   1.240   4.599 -0.6042 -2.2454 -1.9708
   77SOPE  C218 6883   4.852   1.201   4.467 -0.4620  0.0653 -0.5258
   77SOPE  H18R 6884   4.826   1.289   4.404 -0.9712 -0.9490 -1.7729
   77SOPE  H18S 6885   4.816   1.108   4.419  0.7188 -1.4001  1.3051
   77SOPE  H18T 6886   4.962   1.189   4.474 -0.2293  2.7216  2.9990
   77SOPE   C33 6887   4.346   0.371   5.600  0.2175 -0.2375 -0.1106
   77SOPE   H3X 6888   4.360   0.472   5.642  0.3192 -0.7110  1.0225
   77SOPE   H3Y 6889   4.236   0.355   5.595  0.0617  1.0515 -1.7733
   77SOPE   C34 6890   4.398   0.362   5.459 -0.3090 -0.4745 -0.4469
   77SOPE   H4X 6891   4.423   0.259   5.428  1.2535  0.0391 -0.9864
   77SOPE   H4Y 6892   4.495   0.416   5.446  0.1104 -1.9315 -4.6133
   77SOPE   C35 6893   4.310   0.443   5.364 -0.2671 -0.1390 -0.0229
   77SOPE   H5X 6894   4.214   0.396   5.391 -0.5399  0.7098  0.5153
   77SOPE   H5Y 6895   4.323   0.415   5.257 -2.3090 -1.6470  0.0643
   77SOPE   C36 6896   4.314   0.590   5.384 -0.3181  0.2458  0.6475
   77SOPE   H6X 6897   4.419   0.622   5.367  0.1925 -1.9879 -0.8655
   77SOPE   H6Y 6898   4.276   0.627   5.482  0.1116  0.1214  0.8628
   77SOPE   C37 6899   4.242   0.657   5.272  0.5880 -0.0461 -0.0245
   77SOPE   H7X 6900   4.270   0.621   5.170 -1.0334  2.3657 -1.4012
   77SOPE   H7Y 6901   4.280   0.761   5.274  2.1396 -0.5931  0.6689
   77SOPE   C38 6902   4.086   0.673   5.294  0.3380 -0.4520  0.0697
   77SOPE   H8X 6903   4.074   0.710   5.398 -0.3734 -0.6541  0.0635
   77SOPE   H8Y 6904   4.036   0.574   5.290  0.3076 -0.3995 -1.8976
   77SOPE   C39 6905   4.009   0.780   5.216  0.4207 -0.3318  0.2059
   77SOPE   H9X 6906   4.040   0.886   5.226 -1.1232 -0.0457  2.4033
   77SOPE   H9Y 6907   3.907   0.784   5.258 -1.1134 -0.6306 -3.1599
   77SOPE  C310 6908   3.993   0.751   5.066 -0.6469 -0.0265 -0.2724
   77SOPE  H10X 6909   3.959   0.646   5.057  2.2510 -1.1077  0.1169
   77SOPE  H10Y 6910   4.094   0.744   5.020 -0.5445  0.6825 -0.1631
   77SOPE  C311 6911   3.892   0.849   5.002 -0.0590 -0.5157  0.7666
   77SOPE  H11X 6912   3.925   0.956   5.007 -0.8406 -0.2026 -0.4511
   77SOPE  H11Y 6913   3.798   0.842   5.060 -0.7046  1.5876  0.0701
   77SOPE  C312 6914   3.866   0.798   4.857  0.2169  0.8707  0.1738
   77SOPE  H12X 6915   3.771   0.838   4.817 -0.1098 -0.8534 -0.8503
   77SOPE  H12Y 6916   3.853   0.688   4.863  1.9104  0.7235  3.3871
   77SOPE  C313 6917   3.977   0.822   4.762  0.1624 -0.9086  0.4121
   77SOPE  H13X 6918   4.041   0.906   4.797  1.4228 -2.8959  3.1909
   77SOPE  H13Y 6919   3.927   0.842   4.665  1.0751 -0.2074  0.0639
   77SOPE  C314 6920   4.073   0.708   4.741  0.3257 -0.8191  0.1107
   77SOPE  H14X 6921   4.062   0.633   4.823  2.3418 -1.6533 -0.3018
   77SOPE  H14Y 6922   4.180   0.739   4.740  0.1416 -0.1580  0.7087
   77SOPE  C315 6923   4.036   0.623   4.612 -0.2059 -0.3073  0.3607
   77SOPE  H15X 6924   4.061   0.696   4.533  2.2054 -1.5053 -0.0627
   77SOPE  H15Y 6925   3.927   0.601   4.607 -0.1805 -0.1707 -1.4382
   77SOPE  C316 6926   4.107   0.492   4.593 -0.0836  0.0079 -0.4657
   77SOPE  H16X 6927   4.119   0.439   4.690 -0.2114  1.9537  0.6496
   77SOPE  H16Y 6928   4.212   0.513   4.565 -0.4461  4.3725  0.7687
   77SOPE  C317 6929   4.042   0.396   4.489 -0.6020 -0.2792 -0.9318
   77SOPE  H17X 6930   4.117   0.315   4.478  2.2586  2.1335 -0.6356
   77SOPE  H17Y 6931   4.043   0.440   4.387  2.8036 -1.7210 -1.6435
   77SOPE  C318 6932   3.911   0.320   4.532  0.2606  0.4772 -0.3724
   77SOPE  H18X 6933   3.825   0.384   4.563  0.1181 -0.4243  1.2350
   77SOPE  H18Y 6934   3.932   0.246   4.612 -0.5996 -0.9269 -1.3932
   77SOPE  H18Z 6935   3.878   0.262   4.444 -2.1297 -3.7759  2.9029
   78SOPE     N 6936   3.785   4.341   6.446  0.1831  0.4555  0.6568
   78SOPE   HN1 6937   3.878   4.321   6.403  1.6735  1.0777  3.3662
   78SOPE   HN2 6938   3.718   4.329   6.367  0.0664  0.7587  0.7108
   78SOPE   HN3 6939   3.778   4.439   6.478 -0.9298  0.2999  0.9332
   78SOPE   C12 6940   3.770   4.249   6.562 -0.2003 -0.2851  0.2306
   78SOPE  H12A 6941   3.847   4.284   6.635 -1.1517  0.4652  0.9069
   78SOPE  H12B 6942   3.787   4.146   6.523 -0.8130  1.0383 -4.0112
   78SOPE   C11 6943   3.627   4.260   6.630  0.3153  0.2987 -0.3585
   78SOPE  H11A 6944   3.624   4.349   6.697 -0.2385  0.4074 -0.5277
   78SOPE  H11B 6945   3.619   4.173   6.698 -2.3098 -0.0483 -1.0139
   78SOPE     P 6946   3.382   4.277   6.545 -0.0594  0.2228 -0.2895
   78SOPE   O13 6947   3.325   4.407   6.582  0.3324  0.1863  0.1337
   78SOPE   O14 6948   3.349   4.171   6.643  0.3515  0.4145  0.4030
   78SOPE   O12 6949   3.533   4.271   6.525 -0.4996  0.2018 -0.3795
   78SOPE   O11 6950   3.332   4.223   6.400  0.7693 -0.2843 -0.6844
   78SOPE    C1 6951   3.422   4.132   6.328  0.7088  0.3441 -0.8370
   78SOPE    HA 6952   3.452   4.050   6.396 -2.5205  0.8764  1.4601
   78SOPE    HB 6953   3.509   4.192   6.294  0.1111  0.2102 -2.7540
   78SOPE    C2 6954   3.367   4.074   6.194  0.6768  0.1977 -0.0353
   78SOPE    HS 6955   3.359   4.165   6.131  1.0043 -0.5382 -1.1756
   78SOPE   O21 6956   3.249   4.006   6.212 -0.3895 -0.0241 -0.2057
   78SOPE   C21 6957   3.136   4.073   6.197  0.2921  0.1130 -0.1719
   78SOPE   O22 6958   3.118   4.186   6.155  0.1098 -0.1400 -0.6143
   78SOPE   C22 6959   3.029   3.982   6.247 -0.4610  0.1134 -0.6332
   78SOPE   H2R 6960   2.995   4.024   6.344 -0.2464 -1.4983  0.1832
   78SOPE   H2S 6961   3.064   3.877   6.258 -2.2094 -0.5869 -1.4716
   78SOPE    C3 6962   3.466   3.975   6.119 -0.0952 -0.5410  0.4565
   78SOPE    HX 6963   3.503   3.897   6.190  1.1479  1.2286  1.8788
   78SOPE    HY 6964   3.552   4.039   6.087 -0.3162 -0.3128  0.3184
   78SOPE   O31 6965   3.413   3.922   5.998 -0.1653  0.4972 -0.5329
   78SOPE   C31 6966   3.413   3.997   5.888  0.4539 -0.1198  0.9070
   78SOPE   O32 6967   3.448   4.114   5.871 -0.2344 -0.0225 -0.7060
   78SOPE   C32 6968   3.350   3.924   5.771 -0.6396  0.3631 -0.2226
   78SOPE   H2X 6969   3.324   4.001   5.696  0.1731  0.5910 -0.2891
   78SOPE   H2Y 6970   3.264   3.868   5.813 -1.0894  1.0275 -0.2419
   78SOPE   C23 6971   2.907   3.974   6.150 -0.3294  0.2251  0.2696
   78SOPE   H3R 6972   2.850   4.069   6.138 -4.0311 -1.9758 -1.4848
   78SOPE   H3S 6973   2.838   3.901   6.198 -0.9985 -0.0876 -1.1153
   78SOPE   C24 6974   2.943   3.918   6.016  0.5365  0.3451  0.2286
   78SOPE   H4R 6975   3.005   3.987   5.955  2.2251 -0.3295  1.0998
   78SOPE   H4S 6976   2.996   3.825   6.045  1.0628  0.9423  1.2729
   78SOPE   C25 6977   2.822   3.884   5.926  0.0919 -0.4049 -0.0067
   78SOPE   H5R 6978   2.766   3.802   5.976  0.4395 -0.9711 -0.5348
   78SOPE   H5S 6979   2.761   3.976   5.913  3.4810  2.0557  0.0662
   78SOPE   C26 6980   2.857   3.833   5.785  0.2782 -0.7783  0.6662
   78SOPE   H6R 6981   2.904   3.732   5.791 -2.3107 -2.0906  0.4109
   78SOPE   H6S 6982   2.767   3.829   5.720 -1.4515  1.0699  2.7591
   78SOPE   C27 6983   2.960   3.926   5.712 -0.3461  0.2663  0.3097
   78SOPE   H7R 6984   2.917   4.028   5.700 -2.3308 -0.3370  1.7596
   78SOPE   H7S 6985   3.057   3.940   5.765  1.3287 -1.4333 -2.0752
   78SOPE   C28 6986   2.998   3.862   5.574 -0.2296 -0.3395 -0.1495
   78SOPE   H8R 6987   3.079   3.928   5.536 -0.9652  0.7128  0.0766
   78SOPE   H8S 6988   3.037   3.759   5.584 -0.8938 -0.6277 -0.4441
   78SOPE   C29 6989   2.883   3.875   5.476 -0.1656  0.6744 -0.7366
   78SOPE   H91 6990   2.782   3.856   5.514 -0.5422  0.7466 -1.6797
   78SOPE  C210 6991   2.908   3.902   5.348 -0.4986 -0.5745  0.0764
   78SOPE  H101 6992   2.822   3.912   5.280 -0.4486 -1.5705 -0.1451
   78SOPE  C211 6993   3.042   3.904   5.279  0.2355 -0.0678  0.4487
   78SOPE  H11R 6994   3.132   3.921   5.342  1.2210 -0.1669 -0.8900
   78SOPE  H11S 6995   3.045   3.991   5.210  0.0787 -0.2509  0.2086
   78SOPE  C212 6996   3.075   3.760   5.224 -0.2257 -0.2208  0.3670
   78SOPE  H12R 6997   2.999   3.734   5.147 -1.9191  0.4208  1.7522
   78SOPE  H12S 6998   3.074   3.689   5.309  0.2131  0.0331  0.5865
   78SOPE  C213 6999   3.214   3.744   5.164  0.3894 -0.0661  0.0273
   78SOPE  H13R 7000   3.243   3.637   5.164  2.3521  0.4003  2.0813
   78SOPE  H13S 7001   3.285   3.800   5.229 -1.1252  0.8151  0.9888
   78SOPE  C214 7002   3.233   3.788   5.015 -0.5060 -0.1404  0.1493
   78SOPE  H14R 7003   3.243   3.898   5.007  0.5661 -0.3473 -2.3606
   78SOPE  H14S 7004   3.144   3.770   4.951 -0.3254 -1.5173  0.2533
   78SOPE  C215 7005   3.355   3.727   4.940  0.6127  0.8398 -0.3324
   78SOPE  H15R 7006   3.388   3.627   4.974  2.3492  0.2354 -3.3964
   78SOPE  H15S 7007   3.445   3.788   4.963 -0.5173  2.8764 -1.0619
   78SOPE  C216 7008   3.333   3.689   4.789 -0.3200 -0.1791 -0.5139
   78SOPE  H16R 7009   3.426   3.640   4.753  0.4441  0.1171  0.9808
   78SOPE  H16S 7010   3.328   3.793   4.750  4.2779  1.0800  1.6299
   78SOPE  C217 7011   3.211   3.610   4.756 -0.1968 -0.6958 -0.3093
   78SOPE  H17R 7012   3.116   3.662   4.779 -0.0546 -0.0616 -1.0917
   78SOPE  H17S 7013   3.224   3.516   4.813  1.3733 -0.2720  0.0771
   78SOPE  C218 7014   3.209   3.582   4.608  0.3068  0.8693 -0.5880
   78SOPE  H18R 7015   3.276   3.505   4.565 -1.8123 -0.7163 -1.2406
   78SOPE  H18S 7016   3.243   3.680   4.569  0.0659  0.2923 -2.3700
   78SOPE  H18T 7017   3.103   3.571   4.575 -0.3386  2.2058  0.9027
   78SOPE   C33 7018   3.454   3.820   5.712 -0.4052 -1.3941 -0.2134
   78SOPE   H3X 7019   3.391   3.744   5.661 -2.6500 -0.4485  1.0036
   78SOPE   H3Y 7020   3.514   3.775   5.793 -0.5658  1.4502  1.6391
   78SOPE   C34 7021   3.550   3.890   5.609 -0.6797 -0.4312  0.3774
   78SOPE   H4X 7022   3.622   3.815   5.571 -1.6175 -1.8459  1.2900
   78SOPE   H4Y 7023   3.608   3.974   5.654  1.0294 -1.7819  0.8188
   78SOPE   C35 7024   3.479   3.958   5.485 -0.4599 -0.0536  0.3980
   78SOPE   H5X 7025   3.434   4.051   5.525 -2.2951 -0.8469  0.2627
   78SOPE   H5Y 7026   3.395   3.898   5.445 -0.0169  0.0872 -0.8180
   78SOPE   C36 7027   3.573   3.993   5.369  0.2298  0.1090  0.1374
   78SOPE   H6X 7028   3.668   4.040   5.402 -0.6813  0.5402  2.2962
   78SOPE   H6Y 7029   3.522   4.062   5.299  0.4002 -0.7527 -0.8686
   78SOPE   C37 7030   3.610   3.874   5.281  0.1251 -0.3233  0.2449
   78SOPE   H7X 7031   3.522   3.807   5.279 -0.6990  0.7442 -1.1807
   78SOPE   H7Y 7032   3.688   3.815   5.333 -0.7260 -0.8139  0.9881
   78SOPE   C38 7033   3.658   3.908   5.143  0.5340  0.1143  0.5394
   78SOPE   H8X 7034   3.731   3.992   5.147 -0.3611  0.9028  0.6839
   78SOPE   H8Y 7035   3.568   3.944   5.089  0.2653 -2.0850 -0.5994
   78SOPE   C39 7036   3.719   3.792   5.072 -0.2422  0.1648  0.1399
   78SOPE   H9X 7037   3.661   3.697   5.070 -0.2859  0.0692  2.5952
   78SOPE   H9Y 7038   3.804   3.757   5.134 -1.5502 -0.4782  1.6271
   78SOPE  C310 7039   3.764   3.833   4.934  0.1641  0.3046  0.1368
   78SOPE  H10X 7040   3.861   3.888   4.940 -0.3195  1.1207  0.7147
   78SOPE  H10Y 7041   3.683   3.895   4.889 -1.6108 -2.8394 -1.3952
   78SOPE  C311 7042   3.787   3.708   4.849 -0.4534 -0.5490 -0.4415
   78SOPE  H11X 7043   3.691   3.657   4.827 -0.0763 -2.3140  1.7141
   78SOPE  H11Y 7044   3.847   3.634   4.906 -1.3922  0.7253  2.4103
   78SOPE  C312 7045   3.857   3.745   4.712  0.3662  0.1920  0.0207
   78SOPE  H12X 7046   3.951   3.803   4.727  0.0612  0.3588  1.4179
   78SOPE  H12Y 7047   3.802   3.818   4.649 -0.2995  0.6365  1.0849
   78SOPE  C313 7048   3.876   3.636   4.611 -0.5463  0.1112 -0.0159
   78SOPE  H13X 7049   3.784   3.584   4.577 -0.2410 -0.8782  0.6462
   78SOPE  H13Y 7050   3.943   3.558   4.652  0.9379 -0.5605 -3.4180
   78SOPE  C314 7051   3.947   3.683   4.485  0.4296 -0.9522 -0.2936
   78SOPE  H14X 7052   4.041   3.734   4.516  0.5631 -0.9367 -0.7130
   78SOPE  H14Y 7053   3.886   3.761   4.434 -0.1512 -0.4755  1.0743
   78SOPE  C315 7054   3.970   3.575   4.385  0.0462 -0.2467  0.3134
   78SOPE  H15X 7055   3.873   3.530   4.355 -0.7182  1.6310 -0.1764
   78SOPE  H15Y 7056   4.031   3.497   4.436  3.1237  1.7456 -0.0338
   78SOPE  C316 7057   4.061   3.604   4.263  0.4385 -0.6294 -0.0664
   78SOPE  H16X 7058   4.123   3.691   4.294 -0.9017  0.0015  0.9368
   78SOPE  H16Y 7059   3.999   3.643   4.179 -0.0805 -2.0314 -0.3591
   78SOPE  C317 7060   4.148   3.484   4.220 -0.1004 -0.6066 -0.1835
   78SOPE  H17X 7061   4.078   3.400   4.198  0.0516 -1.7967  3.2474
   78SOPE  H17Y 7062   4.210   3.441   4.302 -1.9460 -2.3373  0.3851
   78SOPE  C318 7063   4.233   3.518   4.093  0.3331  0.0207 -0.0900
   78SOPE  H18X 7064   4.286   3.614   4.113 -1.2781  0.9327 -0.0436
   78SOPE  H18Y 7065   4.158   3.543   4.015  0.2373  1.8650  0.5422
   78SOPE  H18Z 7066   4.309   3.442   4.064  1.5983 -0.2521  3.4152
   79SOPE     N 7067   2.591   0.650   6.581 -0.3352 -0.0914  0.2094
   79SOPE   HN1 7068   2.513   0.582   6.570  0.7744 -1.1057 -2.3527
   79SOPE   HN2 7069   2.666   0.631   6.511 -0.3041 -1.4554  0.5769
   79SOPE   HN3 7070   2.625   0.662   6.678  0.7844 -3.1675  0.3221
   79SOPE   C12 7071   2.533   0.779   6.535  1.2037  0.3544  0.9242
   79SOPE  H12A 7072   2.452   0.808   6.605  0.1634 -0.5225  0.1182
   79SOPE  H12B 7073   2.492   0.757   6.434  0.5614 -1.0670  1.4629
   79SOPE   C11 7074   2.631   0.893   6.532  0.5172 -0.1599  0.4302
   79SOPE  H11A 7075   2.639   0.928   6.638  0.4861  0.2231  0.3084
   79SOPE  H11B 7076   2.574   0.969   6.475 -1.7252 -3.5872 -2.2176
   79SOPE     P 7077   2.810   0.949   6.342 -0.3203 -0.1080  0.4362
   79SOPE   O13 7078   2.951   0.907   6.302 -0.9413 -0.1444 -0.0647
   79SOPE   O14 7079   2.789   1.091   6.369  0.5003  0.0665 -0.3045
   79SOPE   O12 7080   2.763   0.872   6.475 -0.0618 -0.4410  0.1997
   79SOPE   O11 7081   2.704   0.890   6.240  0.3735  0.5289  0.1364
   79SOPE    C1 7082   2.698   0.756   6.188 -0.1852  0.3351 -0.0114
   79SOPE    HA 7083   2.595   0.732   6.156 -0.7567  0.5294  1.5719
   79SOPE    HB 7084   2.715   0.682   6.269 -2.2435 -1.2462 -0.9513
   79SOPE    C2 7085   2.800   0.715   6.072  0.2703  0.2542 -0.0735
   79SOPE    HS 7086   2.902   0.750   6.100  1.3662 -2.4391 -0.3914
   79SOPE   O21 7087   2.751   0.762   5.948  0.1334 -0.1311  0.1432
   79SOPE   C21 7088   2.840   0.843   5.880  0.2655  0.0153  0.2441
   79SOPE   O22 7089   2.955   0.866   5.907  0.2400  0.5816  0.5434
   79SOPE   C22 7090   2.772   0.899   5.758  0.1736 -0.4339 -0.0233
   79SOPE   H2R 7091   2.742   1.001   5.789  0.8431 -0.4760  0.7820
   79SOPE   H2S 7092   2.679   0.840   5.741  0.0015 -0.2745  0.3449
   79SOPE    C3 7093   2.822   0.558   6.073  0.0804 -0.3782  0.2427
   79SOPE    HX 7094   2.731   0.506   6.110  0.9589 -0.1845  2.8848
   79SOPE    HY 7095   2.893   0.539   6.156 -0.2730  0.1298  0.6706
   79SOPE   O31 7096   2.879   0.506   5.946 -0.1578  0.1958  0.2054
   79SOPE   C31 7097   3.007   0.501   5.942 -0.1532  0.1979  0.8200
   79SOPE   O32 7098   3.083   0.573   6.003  0.0553  0.2175 -0.4372
   79SOPE   C32 7099   3.061   0.388   5.861  0.0312  0.0968 -0.1932
   79SOPE   H2X 7100   2.992   0.365   5.778 -0.2679  1.7116 -0.4260
   79SOPE   H2Y 7101   3.068   0.309   5.939  0.0766  1.2948  1.0566
   79SOPE   C23 7102   2.859   0.897   5.634 -0.1460 -0.7792  0.0702
   79SOPE   H3R 7103   2.890   0.792   5.612 -2.3879 -1.4519 -0.1259
   79SOPE   H3S 7104   2.954   0.950   5.656  0.5725 -1.5789 -0.9663
   79SOPE   C24 7105   2.791   0.959   5.511 -0.2000  0.3611  0.0736
   79SOPE   H4R 7106   2.692   0.916   5.484 -0.6823  0.0766  2.1243
   79SOPE   H4S 7107   2.770   1.065   5.537  0.5515  0.4794  0.2171
   79SOPE   C25 7108   2.870   0.955   5.375 -0.0730 -0.1870 -0.7357
   79SOPE   H5R 7109   2.965   1.006   5.402  0.1523 -1.1491  0.3522
   79SOPE   H5S 7110   2.888   0.849   5.345 -1.7614 -0.5830 -0.4820
   79SOPE   C26 7111   2.804   1.039   5.267  0.4537  0.5317 -0.2992
   79SOPE   H6R 7112   2.694   1.055   5.274  0.7981  2.6493  1.3994
   79SOPE   H6S 7113   2.839   1.145   5.260  0.7536  0.3727 -1.3956
   79SOPE   C27 7114   2.841   0.988   5.125 -1.0338  0.3857  0.2964
   79SOPE   H7R 7115   2.941   0.939   5.124 -1.1966  0.0534 -0.9842
   79SOPE   H7S 7116   2.771   0.904   5.108  1.0610 -1.5577  0.8880
   79SOPE   C28 7117   2.827   1.104   5.023  0.5903  0.0993  0.3300
   79SOPE   H8R 7118   2.724   1.140   5.042  1.3607  2.7139 -0.0953
   79SOPE   H8S 7119   2.897   1.183   5.059 -0.5673  0.5156  1.7727
   79SOPE   C29 7120   2.832   1.068   4.874 -0.1782 -0.2234  1.1963
   79SOPE   H91 7121   2.788   0.968   4.861 -1.8533  0.3932  1.8062
   79SOPE  C210 7122   2.911   1.126   4.780 -0.6731  0.9283  0.2796
   79SOPE  H101 7123   2.889   1.097   4.676  3.1439 -3.7746  0.4474
   79SOPE  C211 7124   2.980   1.262   4.790  0.1006 -0.4641 -0.3158
   79SOPE  H11R 7125   3.036   1.275   4.886 -1.9991 -1.8304  1.1679
   79SOPE  H11S 7126   2.908   1.346   4.802 -0.1465 -0.9422  2.0332
   79SOPE  C212 7127   3.078   1.282   4.678  0.1245 -0.2415  0.5072
   79SOPE  H12R 7128   3.160   1.209   4.687  1.9927  1.9578  2.6636
   79SOPE  H12S 7129   3.135   1.376   4.695  0.3421 -0.2490 -0.1419
   79SOPE  C213 7130   3.008   1.293   4.549  0.0870  0.2864  1.5050
   79SOPE  H13R 7131   2.924   1.366   4.551  1.0206  1.7891 -2.8094
   79SOPE  H13S 7132   2.982   1.190   4.516 -1.6153  1.3826 -0.8640
   79SOPE  C214 7133   3.099   1.364   4.447  0.0807  0.3683  0.0276
   79SOPE  H14R 7134   3.048   1.339   4.351  0.0729 -0.5157  0.2512
   79SOPE  H14S 7135   3.192   1.302   4.440  0.5061  0.9446  0.5029
   79SOPE  C215 7136   3.131   1.510   4.476 -0.6143 -0.3942 -0.3894
   79SOPE  H15R 7137   3.209   1.505   4.555  1.4561  0.2789 -2.2744
   79SOPE  H15S 7138   3.030   1.550   4.500  0.1330  2.5505 -1.7075
   79SOPE  C216 7139   3.199   1.595   4.364 -0.2932  0.4023  0.2464
   79SOPE  H16R 7140   3.242   1.683   4.415  0.0120  1.8028 -2.2711
   79SOPE  H16S 7141   3.125   1.618   4.283 -0.3463 -1.4385 -0.2749
   79SOPE  C217 7142   3.317   1.519   4.297  0.0380 -0.0701 -0.5354
   79SOPE  H17R 7143   3.358   1.578   4.212  1.1462 -2.3378 -1.6519
   79SOPE  H17S 7144   3.274   1.422   4.266 -0.6707 -0.1176  0.5383
   79SOPE  C218 7145   3.440   1.497   4.392  0.6105 -0.5903 -0.4954
   79SOPE  H18R 7146   3.524   1.453   4.333 -0.5436 -0.6017 -2.2060
   79SOPE  H18S 7147   3.430   1.435   4.484 -2.6256 -3.3396 -2.4694
   79SOPE  H18T 7148   3.474   1.598   4.423 -0.3132 -0.6602  0.8131
   79SOPE   C33 7149   3.205   0.398   5.807 -0.0206 -0.6934 -0.3625
   79SOPE   H3X 7150   3.243   0.304   5.762  2.6686  0.0999  0.1174
   79SOPE   H3Y 7151   3.267   0.414   5.898 -1.0271 -0.7926  0.3628
   79SOPE   C34 7152   3.209   0.510   5.709 -0.5280 -0.0932  0.1491
   79SOPE   H4X 7153   3.313   0.532   5.678 -0.6584 -1.7897 -1.6611
   79SOPE   H4Y 7154   3.165   0.604   5.750 -0.6741  0.2088 -0.6859
   79SOPE   C35 7155   3.138   0.487   5.573 -0.5223 -0.3428  1.0388
   79SOPE   H5X 7156   3.028   0.493   5.587 -0.6215  0.2890  0.0762
   79SOPE   H5Y 7157   3.164   0.385   5.537  0.9975  0.5226 -0.4602
   79SOPE   C36 7158   3.188   0.575   5.456  0.5378 -0.5538  0.8170
   79SOPE   H6X 7159   3.296   0.550   5.465  0.2938 -3.3676 -2.1730
   79SOPE   H6Y 7160   3.167   0.680   5.484 -1.0328 -0.6670  0.1530
   79SOPE   C37 7161   3.136   0.543   5.313  0.0204 -0.2436  0.3673
   79SOPE   H7X 7162   3.028   0.562   5.294  0.3991  2.2021  0.2754
   79SOPE   H7Y 7163   3.149   0.434   5.294 -1.2106 -0.7033  1.9646
   79SOPE   C38 7164   3.214   0.634   5.207 -0.4730  0.4523  0.0093
   79SOPE   H8X 7165   3.324   0.625   5.219 -0.6239  0.3515  1.5278
   79SOPE   H8Y 7166   3.195   0.737   5.242  0.9189  1.4441 -1.9398
   79SOPE   C39 7167   3.159   0.613   5.063 -0.2680 -0.3328 -0.4730
   79SOPE   H9X 7168   3.050   0.595   5.080 -0.3002  0.5603  0.3782
   79SOPE   H9Y 7169   3.202   0.516   5.029 -0.6681 -0.5962 -0.2375
   79SOPE  C310 7170   3.188   0.720   4.960 -0.4475 -0.2959  0.1057
   79SOPE  H10X 7171   3.285   0.774   4.965 -0.3155 -0.5003 -0.2343
   79SOPE  H10Y 7172   3.124   0.807   4.984  0.5912  0.1168  1.5431
   79SOPE  C311 7173   3.165   0.671   4.816  0.6115  0.6110 -0.3846
   79SOPE  H11X 7174   3.079   0.601   4.812  1.3383 -0.2861 -0.7704
   79SOPE  H11Y 7175   3.247   0.598   4.798 -1.2998 -1.5046 -0.9678
   79SOPE  C312 7176   3.164   0.785   4.718  1.2616 -0.3349 -0.6007
   79SOPE  H12X 7177   3.252   0.853   4.727  1.3632 -0.4214 -0.9547
   79SOPE  H12Y 7178   3.075   0.849   4.733  1.1363 -0.7401  0.4812
   79SOPE  C313 7179   3.168   0.721   4.576  0.6739 -0.1599 -0.1737
   79SOPE  H13X 7180   3.079   0.656   4.564  0.0033  0.6858  0.1362
   79SOPE  H13Y 7181   3.259   0.660   4.555 -0.7205 -2.5940  0.4299
   79SOPE  C314 7182   3.162   0.820   4.458  0.2125 -0.6006  0.1847
   79SOPE  H14X 7183   3.249   0.887   4.474  0.1823 -0.9635  2.0997
   79SOPE  H14Y 7184   3.070   0.882   4.463  0.6982  0.4151 -2.0675
   79SOPE  C315 7185   3.162   0.757   4.322  0.1016  0.0676 -0.6794
   79SOPE  H15X 7186   3.072   0.692   4.313  1.1264 -1.4500 -0.2926
   79SOPE  H15Y 7187   3.247   0.688   4.300  1.7374  0.7759  2.7486
   79SOPE  C316 7188   3.155   0.862   4.210 -0.0124  0.3702  0.2594
   79SOPE  H16X 7189   3.227   0.946   4.226  0.8922  0.0844 -2.0048
   79SOPE  H16Y 7190   3.053   0.906   4.213  0.2847  1.0821  0.3299
   79SOPE  C317 7191   3.196   0.795   4.074 -0.1327 -1.1140 -0.3786
   79SOPE  H17X 7192   3.142   0.699   4.067  0.8378 -1.7240  0.2207
   79SOPE  H17Y 7193   3.303   0.785   4.104 -0.5535 -0.1120  1.6268
   79SOPE  C318 7194   3.167   0.889   3.959 -0.1384 -0.5441 -0.2050
   79SOPE  H18X 7195   3.193   0.996   3.970 -2.2088  0.0000 -0.1346
   79SOPE  H18Y 7196   3.058   0.890   3.934 -0.7011 -4.0388  1.4584
   79SOPE  H18Z 7197   3.217   0.843   3.871  1.3312 -1.3154  0.9999
   80SOPE     N 7198   2.670   2.824   6.184 -0.1996  0.1789 -0.8408
   80SOPE   HN1 7199   2.571   2.843   6.159  0.2418 -0.8972 -3.8472
   80SOPE   HN2 7200   2.717   2.797   6.096 -0.2717  0.6837 -1.0329
   80SOPE   HN3 7201   2.666   2.734   6.237 -3.4893 -0.4211 -1.8354
   80SOPE   C12 7202   2.733   2.937   6.264  0.3830 -0.2270 -0.5964
   80SOPE  H12A 7203   2.842   2.916   6.275  0.1676 -1.4386 -0.6711
   80SOPE  H12B 7204   2.686   2.932   6.364 -0.4301  0.9136 -0.9039
   80SOPE   C11 7205   2.707   3.070   6.200  0.5009 -0.1373  0.3235
   80SOPE  H11A 7206   2.776   3.077   6.113 -0.7062 -0.4504 -0.6836
   80SOPE  H11B 7207   2.723   3.145   6.280  0.1314 -1.9901  2.2204
   80SOPE     P 7208   2.460   3.152   6.234 -0.4956 -0.1752 -0.1819
   80SOPE   O13 7209   2.471   3.101   6.378  0.0422 -0.0155  0.2084
   80SOPE   O14 7210   2.329   3.119   6.170 -0.0577 -0.1826 -0.3129
   80SOPE   O12 7211   2.570   3.076   6.152 -0.0333  0.1647 -0.1575
   80SOPE   O11 7212   2.504   3.304   6.232  0.8255 -0.0385  0.1057
   80SOPE    C1 7213   2.526   3.359   6.095 -0.2761  0.4036 -0.2898
   80SOPE    HA 7214   2.464   3.315   6.014 -0.8049 -2.0114  1.3010
   80SOPE    HB 7215   2.630   3.334   6.063 -0.0352  1.3212 -0.2615
   80SOPE    C2 7216   2.492   3.513   6.105 -0.6821 -0.7470  0.0542
   80SOPE    HS 7217   2.507   3.559   6.204 -1.5893  2.6117 -1.2180
   80SOPE   O21 7218   2.353   3.538   6.068 -0.0745 -0.3818 -0.5362
   80SOPE   C21 7219   2.255   3.510   6.154 -0.3237  0.2723 -0.0654
   80SOPE   O22 7220   2.264   3.467   6.268 -0.2980  0.7778 -0.1622
   80SOPE   C22 7221   2.123   3.537   6.085 -0.4076  0.4399  0.2128
   80SOPE   H2R 7222   2.106   3.646   6.072  2.4106  0.9556  0.0946
   80SOPE   H2S 7223   2.048   3.483   6.147  0.5049  1.4313  2.2696
   80SOPE    C3 7224   2.584   3.606   6.018  0.1423  0.2720  0.6272
   80SOPE    HX 7225   2.694   3.590   6.025  0.7457  2.7601 -1.3926
   80SOPE    HY 7226   2.571   3.714   6.042 -0.6154  0.4633 -0.5772
   80SOPE   O31 7227   2.558   3.597   5.877 -0.6421  0.5705  0.3085
   80SOPE   C31 7228   2.637   3.540   5.791  0.3756  0.3504  0.0013
   80SOPE   O32 7229   2.739   3.478   5.817 -0.1587 -0.4423 -0.2652
   80SOPE   C32 7230   2.577   3.548   5.648  0.6450 -0.1192 -0.0496
   80SOPE   H2X 7231   2.524   3.646   5.638 -0.5110 -0.3059  3.2007
   80SOPE   H2Y 7232   2.510   3.462   5.628  0.9886 -0.1423 -1.1853
   80SOPE   C23 7233   2.108   3.469   5.946 -0.1272  0.5039  0.1409
   80SOPE   H3R 7234   2.009   3.419   5.935 -0.7476  1.7886 -0.3744
   80SOPE   H3S 7235   2.166   3.374   5.949 -1.5259 -0.4653 -1.4599
   80SOPE   C24 7236   2.147   3.547   5.822 -0.0287 -0.1078  0.2785
   80SOPE   H4R 7237   2.130   3.656   5.832  2.3339  0.5022 -1.3044
   80SOPE   H4S 7238   2.258   3.539   5.819 -0.0933 -2.2009  1.5491
   80SOPE   C25 7239   2.076   3.498   5.695 -0.5523 -0.4341 -0.0679
   80SOPE   H5R 7240   2.113   3.397   5.666  0.2149  0.0440 -0.8089
   80SOPE   H5S 7241   1.968   3.508   5.716 -0.2386  0.9116  1.0023
   80SOPE   C26 7242   2.105   3.575   5.566  0.3445  0.1833  0.1834
   80SOPE   H6R 7243   2.075   3.680   5.583 -0.7012  0.3080 -1.9657
   80SOPE   H6S 7244   2.212   3.550   5.550  0.4914  0.1413  1.2115
   80SOPE   C27 7245   2.024   3.514   5.450  0.0898  0.8612 -0.0517
   80SOPE   H7R 7246   2.022   3.403   5.448 -2.9274  0.8298 -2.2130
   80SOPE   H7S 7247   1.921   3.546   5.477 -0.9888  0.6809 -3.4683
   80SOPE   C28 7248   2.045   3.579   5.318  0.1132  0.7168 -0.0256
   80SOPE   H8R 7249   1.966   3.533   5.256 -0.8980 -0.3563  1.9391
   80SOPE   H8S 7250   1.998   3.679   5.330 -2.3058 -0.2836 -0.5387
   80SOPE   C29 7251   2.187   3.569   5.263 -0.1767  0.7021  0.2731
   80SOPE   H91 7252   2.260   3.511   5.321  0.1401  2.0167  1.2342
   80SOPE  C210 7253   2.226   3.637   5.152 -0.4177  0.2655 -0.4924
   80SOPE  H101 7254   2.334   3.621   5.133 -0.4940 -3.6930  1.3439
   80SOPE  C211 7255   2.149   3.726   5.062 -0.2367  0.3333  0.2762
   80SOPE  H11R 7256   2.162   3.828   5.103  0.6708  0.3213  0.0310
   80SOPE  H11S 7257   2.041   3.702   5.065 -0.2460  0.0624 -1.3572
   80SOPE  C212 7258   2.210   3.731   4.924  0.1866 -0.2542  0.1131
   80SOPE  H12R 7259   2.220   3.636   4.867 -1.0134  1.3717 -3.0489
   80SOPE  H12S 7260   2.309   3.781   4.922  1.0343 -1.8729 -1.1247
   80SOPE  C213 7261   2.119   3.811   4.834  0.1507 -0.3012  0.1458
   80SOPE  H13R 7262   2.120   3.918   4.866 -0.2145 -0.8046  1.9433
   80SOPE  H13S 7263   2.016   3.771   4.852 -0.1080 -0.2494 -1.1071
   80SOPE  C214 7264   2.160   3.779   4.692 -0.2127 -0.2050  0.0942
   80SOPE  H14R 7265   2.084   3.830   4.629  1.1303 -0.5945 -1.9270
   80SOPE  H14S 7266   2.160   3.672   4.665  1.9289  0.5536 -3.5189
   80SOPE  C215 7267   2.299   3.838   4.654 -0.2325 -0.1400  0.6957
   80SOPE  H15R 7268   2.369   3.767   4.701  0.8389 -0.5815 -1.4547
   80SOPE  H15S 7269   2.310   3.940   4.697  0.2848  0.5537 -0.9986
   80SOPE  C216 7270   2.324   3.841   4.502  0.0967 -0.1664 -0.0892
   80SOPE  H16R 7271   2.249   3.906   4.452 -1.9052 -0.3306  2.5450
   80SOPE  H16S 7272   2.302   3.743   4.455 -0.9372  0.4430 -0.9203
   80SOPE  C217 7273   2.461   3.905   4.449  0.1382 -0.0933 -0.0198
   80SOPE  H17R 7274   2.552   3.854   4.487  3.2802  1.8728 -4.0882
   80SOPE  H17S 7275   2.458   4.009   4.486  0.8629  0.8596 -2.4315
   80SOPE  C218 7276   2.464   3.914   4.291 -0.6837  0.8206 -0.7650
   80SOPE  H18R 7277   2.447   3.819   4.235 -1.1901  1.0079 -0.9377
   80SOPE  H18S 7278   2.568   3.945   4.267  0.7705  0.3588  3.9599
   80SOPE  H18T 7279   2.400   3.996   4.251 -1.4550 -0.6055 -2.6183
   80SOPE   C33 7280   2.688   3.532   5.539 -0.1655  0.5910  0.7761
   80SOPE   H3X 7281   2.738   3.434   5.549  2.4556  1.9122  1.4647
   80SOPE   H3Y 7282   2.772   3.600   5.565 -2.1956  2.6123  2.4206
   80SOPE   C34 7283   2.631   3.568   5.409 -1.1099  0.2823  0.1512
   80SOPE   H4X 7284   2.581   3.667   5.409 -1.3154  0.1909 -0.7101
   80SOPE   H4Y 7285   2.553   3.502   5.364 -0.5924  0.1933 -0.6451
   80SOPE   C35 7286   2.743   3.572   5.293 -0.1384  0.7597  0.3267
   80SOPE   H5X 7287   2.815   3.488   5.306 -2.1196 -1.5931 -2.4856
   80SOPE   H5Y 7288   2.801   3.666   5.297  0.6615  0.2963 -0.0281
   80SOPE   C36 7289   2.664   3.566   5.159  0.5488  0.6262  0.1644
   80SOPE   H6X 7290   2.599   3.656   5.153 -0.4478  0.0135  1.2391
   80SOPE   H6Y 7291   2.589   3.484   5.169 -1.4960  2.2184 -1.3610
   80SOPE   C37 7292   2.749   3.552   5.030 -0.1547  0.0014 -1.2561
   80SOPE   H7X 7293   2.808   3.458   5.033  1.7592  1.1576  0.6340
   80SOPE   H7Y 7294   2.816   3.638   5.010 -0.0097  0.1968 -0.0225
   80SOPE   C38 7295   2.655   3.527   4.910 -0.3059  0.6400  0.7623
   80SOPE   H8X 7296   2.588   3.616   4.908 -1.0216  0.1612 -2.6298
   80SOPE   H8Y 7297   2.594   3.438   4.934  0.1265  0.2975  0.5902
   80SOPE   C39 7298   2.718   3.526   4.767 -0.4720 -0.7309 -0.5734
   80SOPE   H9X 7299   2.795   3.446   4.761  0.1482 -0.3429  1.4979
   80SOPE   H9Y 7300   2.766   3.624   4.747  0.1705 -1.6465 -4.1353
   80SOPE  C310 7301   2.613   3.490   4.655 -0.1421  0.4383 -0.3584
   80SOPE  H10X 7302   2.513   3.535   4.669  0.2103  1.5969 -1.3670
   80SOPE  H10Y 7303   2.585   3.385   4.678  0.5189  0.8465  2.8490
   80SOPE  C311 7304   2.662   3.519   4.509  0.6278  0.1698  0.1640
   80SOPE  H11X 7305   2.678   3.628   4.497  1.5782  0.0491  0.2995
   80SOPE  H11Y 7306   2.579   3.491   4.440  0.2335  0.8347  0.3610
   80SOPE  C312 7307   2.791   3.444   4.459 -0.4100 -0.1634  0.4404
   80SOPE  H12X 7308   2.779   3.337   4.490 -0.4162  0.0094  1.0598
   80SOPE  H12Y 7309   2.877   3.472   4.524  1.1458 -1.6306 -0.8701
   80SOPE  C313 7310   2.826   3.465   4.314  0.0587  0.0250  0.1961
   80SOPE  H13X 7311   2.742   3.433   4.250  0.4341 -0.6238  0.0166
   80SOPE  H13Y 7312   2.919   3.408   4.290  1.8306  2.7495  0.0833
   80SOPE  C314 7313   2.864   3.608   4.276  0.2845  0.5154  0.1687
   80SOPE  H14X 7314   2.772   3.670   4.279  1.5341  2.7087 -2.8355
   80SOPE  H14Y 7315   2.891   3.613   4.169 -0.7015 -1.0107 -0.1925
   80SOPE  C315 7316   2.969   3.670   4.366  0.4603 -0.5145  0.0327
   80SOPE  H15X 7317   3.055   3.600   4.367  1.5867  0.7509  2.9148
   80SOPE  H15Y 7318   2.948   3.665   4.475  1.4465 -0.8687  0.2193
   80SOPE  C316 7319   3.015   3.818   4.338  0.2923 -0.2100  0.3851
   80SOPE  H16X 7320   3.022   3.815   4.227 -2.5289 -0.4559  0.1280
   80SOPE  H16Y 7321   3.120   3.825   4.373  0.6324  0.4845 -0.7196
   80SOPE  C317 7322   2.937   3.934   4.402 -0.0299  0.6393  0.1383
   80SOPE  H17X 7323   2.905   3.900   4.503  1.3375  1.3767  0.8560
   80SOPE  H17Y 7324   2.848   3.947   4.337  0.4793 -1.7459 -1.1587
   80SOPE  C318 7325   3.023   4.056   4.433 -0.5795 -0.3108  0.6400
   80SOPE  H18X 7326   3.085   4.033   4.523  1.4830 -1.2772 -0.9452
   80SOPE  H18Y 7327   2.959   4.143   4.460 -2.0215 -1.7486  2.0732
   80SOPE  H18Z 7328   3.078   4.082   4.340 -1.9848  4.4827  0.8763
   81SOPE     N 7329   4.333   6.127   7.040  0.1478 -0.4613 -0.0129
   81SOPE   HN1 7330   4.421   6.173   7.072  0.9320 -1.2678 -0.9274
   81SOPE   HN2 7331   4.259   6.200   7.044  1.0076  0.3936  1.5323
   81SOPE   HN3 7332   4.321   6.043   7.100 -0.9312 -0.4672 -0.2260
   81SOPE   C12 7333   4.359   6.083   6.900  0.6165  0.6888 -0.2988
   81SOPE  H12A 7334   4.276   6.012   6.879  1.2205 -0.0436 -0.2538
   81SOPE  H12B 7335   4.454   6.025   6.906  0.3070  0.3014  1.0343
   81SOPE   C11 7336   4.376   6.203   6.801  0.2038  0.5054 -0.7623
   81SOPE  H11A 7337   4.268   6.218   6.779 -0.6704 -2.3951  1.0151
   81SOPE  H11B 7338   4.422   6.173   6.704 -1.2434  0.0694 -1.3319
   81SOPE     P 7339   4.585   6.349   6.855 -0.4660 -0.1907  0.6051
   81SOPE   O13 7340   4.654   6.245   6.930  0.4787  0.2701  0.1911
   81SOPE   O14 7341   4.614   6.484   6.908 -0.3170 -0.5531 -0.0651
   81SOPE   O12 7342   4.429   6.326   6.856 -0.0281  0.3707 -0.0999
   81SOPE   O11 7343   4.626   6.345   6.698 -0.5274  0.2130  0.2947
   81SOPE    C1 7344   4.572   6.433   6.600  0.1250 -0.4088 -0.0346
   81SOPE    HA 7345   4.586   6.537   6.637  0.2531  0.2109 -1.7550
   81SOPE    HB 7346   4.465   6.412   6.581  0.0198  0.5146 -0.5108
   81SOPE    C2 7347   4.650   6.422   6.467 -0.1049  0.2760 -0.5167
   81SOPE    HS 7348   4.609   6.490   6.390 -0.7158 -1.2306 -1.5694
   81SOPE   O21 7349   4.641   6.282   6.424 -0.7942  0.4038  0.0908
   81SOPE   C21 7350   4.526   6.239   6.377 -0.4942  0.4552  0.5185
   81SOPE   O22 7351   4.421   6.296   6.388 -0.1976  0.3265  0.5540
   81SOPE   C22 7352   4.537   6.099   6.315  0.2887  0.6773 -0.0315
   81SOPE   H2R 7353   4.476   6.026   6.372 -0.4553 -0.9773 -2.7440
   81SOPE   H2S 7354   4.642   6.064   6.321  0.0960 -0.8032 -3.2543
   81SOPE    C3 7355   4.798   6.466   6.480 -0.1127  0.1747  0.2635
   81SOPE    HX 7356   4.835   6.418   6.573  1.2084  1.8511  0.6509
   81SOPE    HY 7357   4.804   6.575   6.503  1.1451  0.3005 -0.5890
   81SOPE   O31 7358   4.857   6.438   6.351  0.1468 -0.1110  0.3363
   81SOPE   C31 7359   4.913   6.312   6.345 -0.0748  0.7668  1.0214
   81SOPE   O32 7360   4.922   6.232   6.435 -0.1627 -0.0741 -0.0213
   81SOPE   C32 7361   4.958   6.293   6.201  0.2012  0.4137  0.1895
   81SOPE   H2X 7362   5.010   6.196   6.192  1.0457  0.8716  0.0022
   81SOPE   H2Y 7363   5.028   6.377   6.182 -0.2232  1.0832  1.4301
   81SOPE   C23 7364   4.494   6.080   6.170  0.6018 -0.2786  0.4036
   81SOPE   H3R 7365   4.530   6.167   6.110 -1.2076 -0.4026 -0.9547
   81SOPE   H3S 7366   4.387   6.109   6.160  0.8624  0.8472  0.7800
   81SOPE   C24 7367   4.533   5.946   6.110  0.8525 -0.3568 -0.0780
   81SOPE   H4R 7368   4.639   5.926   6.137 -0.2242 -2.0517  3.5990
   81SOPE   H4S 7369   4.470   5.868   6.158  0.7414 -0.4472 -0.3671
   81SOPE   C25 7370   4.499   5.937   5.958  0.2356 -0.2073 -0.6473
   81SOPE   H5R 7371   4.508   5.828   5.938  1.1010 -0.0420 -1.2457
   81SOPE   H5S 7372   4.397   5.980   5.953  0.5006  0.6859  0.8340
   81SOPE   C26 7373   4.598   6.012   5.878 -1.1359 -0.1962  1.2687
   81SOPE   H6R 7374   4.603   6.122   5.896  1.2909 -0.5023  3.0094
   81SOPE   H6S 7375   4.696   5.970   5.908 -2.4124 -2.4513  2.5983
   81SOPE   C27 7376   4.578   5.995   5.726 -0.4309 -0.1417 -0.0549
   81SOPE   H7R 7377   4.556   5.891   5.696  0.2633  0.0913 -1.4417
   81SOPE   H7S 7378   4.482   6.047   5.704  0.2326  0.8586 -0.6637
   81SOPE   C28 7379   4.693   6.049   5.634 -0.2657  0.3266 -0.4216
   81SOPE   H8R 7380   4.712   6.151   5.675  1.0604 -0.1481  0.2319
   81SOPE   H8S 7381   4.785   5.991   5.654  0.7484  1.8338 -0.5272
   81SOPE   C29 7382   4.654   6.047   5.492  0.3792 -0.6063  0.0067
   81SOPE   H91 7383   4.614   5.949   5.463 -2.7359  0.5239  0.0771
   81SOPE  C210 7384   4.683   6.132   5.390 -0.5270 -0.0219 -0.1078
   81SOPE  H101 7385   4.640   6.110   5.292  0.7695 -1.9725 -0.2858
   81SOPE  C211 7386   4.754   6.267   5.410 -0.5567  0.0794 -0.2220
   81SOPE  H11R 7387   4.849   6.251   5.464 -1.4199  0.5972  1.5501
   81SOPE  H11S 7388   4.689   6.339   5.465 -0.5179  0.7367 -1.0224
   81SOPE  C212 7389   4.775   6.319   5.272 -0.1578  0.2098  0.6694
   81SOPE  H12R 7390   4.679   6.326   5.216  0.5536 -2.7603 -1.1627
   81SOPE  H12S 7391   4.839   6.243   5.221 -2.0568 -0.5127 -0.7674
   81SOPE  C213 7392   4.854   6.456   5.268 -0.2467 -0.0303 -0.0862
   81SOPE  H13R 7393   4.959   6.422   5.285 -0.5422 -1.9913 -1.7751
   81SOPE  H13S 7394   4.812   6.530   5.340 -0.5481  0.4640 -0.7538
   81SOPE  C214 7395   4.852   6.531   5.134  0.0593 -0.0912 -0.1035
   81SOPE  H14R 7396   4.900   6.632   5.137  1.0921 -0.5027 -1.7535
   81SOPE  H14S 7397   4.746   6.562   5.121  0.3357  0.8501 -0.1848
   81SOPE  C215 7398   4.891   6.461   5.008  0.0341  0.0040 -0.3650
   81SOPE  H15R 7399   4.848   6.360   4.993 -0.7897  0.4838 -1.2960
   81SOPE  H15S 7400   5.002   6.458   5.007  0.0760 -0.5137  1.5391
   81SOPE  C216 7401   4.851   6.533   4.875  0.0430 -0.1116 -0.2065
   81SOPE  H16R 7402   4.901   6.632   4.863 -3.5724  1.8029 -1.1255
   81SOPE  H16S 7403   4.750   6.575   4.895  0.9774  1.5287  1.4239
   81SOPE  C217 7404   4.868   6.448   4.753 -0.4701  0.1834 -0.1771
   81SOPE  H17R 7405   4.806   6.356   4.756 -1.9567  1.1665  0.1929
   81SOPE  H17S 7406   4.974   6.420   4.736 -0.9539 -1.1125 -1.2328
   81SOPE  C218 7407   4.832   6.537   4.633  0.0477 -0.5013 -0.3366
   81SOPE  H18R 7408   4.733   6.580   4.655 -0.5241 -0.7765 -2.2008
   81SOPE  H18S 7409   4.841   6.480   4.538 -1.0065 -3.0804  0.9922
   81SOPE  H18T 7410   4.892   6.630   4.629 -1.6645  0.6427 -0.1623
   81SOPE   C33 7411   4.835   6.300   6.110  0.2693  0.1180  0.2038
   81SOPE   H3X 7412   4.780   6.396   6.116  0.4952  0.2076  0.8869
   81SOPE   H3Y 7413   4.757   6.228   6.143 -1.2115  0.9502 -1.2983
   81SOPE   C34 7414   4.868   6.268   5.962  0.6377  1.0979 -0.2572
   81SOPE   H4X 7415   4.771   6.252   5.909 -0.8635 -2.2908  3.0279
   81SOPE   H4Y 7416   4.924   6.173   5.953 -1.5536 -0.3260  0.2615
   81SOPE   C35 7417   4.951   6.376   5.888 -0.6535  0.5117  0.2713
   81SOPE   H5X 7418   5.049   6.395   5.937  0.7131  2.8761 -3.0282
   81SOPE   H5Y 7419   4.896   6.473   5.896 -4.4015 -1.5362  2.6316
   81SOPE   C36 7420   4.985   6.333   5.751 -0.3625 -0.0016  0.4932
   81SOPE   H6X 7421   4.896   6.317   5.686 -1.0704 -1.2168  1.7278
   81SOPE   H6Y 7422   5.036   6.235   5.753  2.1544  1.1979 -0.5920
   81SOPE   C37 7423   5.082   6.428   5.684  0.9886  0.5741  0.7612
   81SOPE   H7X 7424   5.160   6.455   5.758 -0.4494  1.9112  1.8407
   81SOPE   H7Y 7425   5.028   6.523   5.665 -0.4703 -0.0645  1.5530
   81SOPE   C38 7426   5.143   6.360   5.561  0.5251  0.2358 -0.2848
   81SOPE   H8X 7427   5.065   6.335   5.486  0.4890  0.0714 -0.1933
   81SOPE   H8Y 7428   5.162   6.254   5.589  0.8882 -0.2620 -2.2481
   81SOPE   C39 7429   5.270   6.436   5.521 -0.2385  0.0034 -0.7409
   81SOPE   H9X 7430   5.335   6.409   5.607 -0.3985  2.0487  0.0783
   81SOPE   H9Y 7431   5.252   6.546   5.520  2.3143  0.5583  1.9596
   81SOPE  C310 7432   5.328   6.397   5.384 -0.2656  0.3568  0.5090
   81SOPE  H10X 7433   5.326   6.287   5.367  2.0299  0.2904  0.3243
   81SOPE  H10Y 7434   5.436   6.424   5.382 -0.2131  0.2730  1.5393
   81SOPE  C311 7435   5.269   6.474   5.264  0.8384  0.5984 -0.0427
   81SOPE  H11X 7436   5.262   6.584   5.279 -1.2740  0.3028  1.7572
   81SOPE  H11Y 7437   5.160   6.450   5.263  0.8627  0.1663  2.0340
   81SOPE  C312 7438   5.342   6.435   5.132  0.5759  0.5176 -0.2593
   81SOPE  H12X 7439   5.261   6.437   5.057 -0.1189 -0.0584  0.4594
   81SOPE  H12Y 7440   5.364   6.327   5.143 -1.7131  0.2079  2.5275
   81SOPE  C313 7441   5.470   6.512   5.083  0.4399  0.0667  0.4271
   81SOPE  H13X 7442   5.543   6.518   5.166 -0.3889  1.2056  1.1134
   81SOPE  H13Y 7443   5.440   6.618   5.065 -2.1844 -0.5952  0.5288
   81SOPE  C314 7444   5.520   6.450   4.953  0.4150 -0.6694  0.8698
   81SOPE  H14X 7445   5.545   6.344   4.973 -2.1407 -1.3559  0.7586
   81SOPE  H14Y 7446   5.607   6.512   4.921 -0.2926 -0.2103 -0.2016
   81SOPE  C315 7447   5.425   6.458   4.831 -0.2604  0.0046 -0.0537
   81SOPE  H15X 7448   5.353   6.541   4.844  1.5067  1.3056  2.1945
   81SOPE  H15Y 7449   5.367   6.364   4.820  1.4743 -0.9737 -1.5516
   81SOPE  C316 7450   5.508   6.482   4.697  0.1307 -0.8049 -0.2430
   81SOPE  H16X 7451   5.571   6.570   4.724 -0.7203  0.7130 -2.8673
   81SOPE  H16Y 7452   5.438   6.510   4.616  0.7142  0.4437 -0.3452
   81SOPE  C317 7453   5.586   6.359   4.646 -0.0012  0.3345  0.6469
   81SOPE  H17X 7454   5.660   6.319   4.719  2.1970  0.8634 -1.1772
   81SOPE  H17Y 7455   5.651   6.395   4.563  0.5392  1.8200  1.6685
   81SOPE  C318 7456   5.497   6.249   4.604  0.1804  0.1620  0.2333
   81SOPE  H18X 7457   5.433   6.285   4.520 -0.0791 -0.4580  0.1548
   81SOPE  H18Y 7458   5.430   6.204   4.680 -0.8909 -0.7569 -1.1892
   81SOPE  H18Z 7459   5.544   6.158   4.560  0.3252  0.6096 -0.5478
   82SOPE     N 7460   2.422   5.950   6.788 -0.0603  0.0438  0.2357
   82SOPE   HN1 7461   2.410   5.947   6.684  2.9797 -0.9087 -0.1855
   82SOPE   HN2 7462   2.445   5.860   6.834  1.0401  1.1981  2.0976
   82SOPE   HN3 7463   2.341   5.991   6.837 -0.7355  1.5833 -1.9793
   82SOPE   C12 7464   2.532   6.060   6.791 -0.0383 -0.1180 -0.0503
   82SOPE  H12A 7465   2.545   6.083   6.898  0.5116  1.2012 -0.3866
   82SOPE  H12B 7466   2.498   6.148   6.733  0.2199  0.3405  0.4923
   82SOPE   C11 7467   2.659   5.997   6.724  0.4205  0.4012 -0.7316
   82SOPE  H11A 7468   2.684   5.904   6.780 -0.7942  1.2953  1.3896
   82SOPE  H11B 7469   2.745   6.066   6.736  1.0785 -0.4894 -0.2555
   82SOPE     P 7470   2.667   6.073   6.483 -0.3481 -0.1425  0.4418
   82SOPE   O13 7471   2.801   6.051   6.426  0.3917  0.0496  0.3112
   82SOPE   O14 7472   2.635   6.204   6.547  0.1943 -0.5056  0.1441
   82SOPE   O12 7473   2.640   5.966   6.586 -0.1438 -0.3986 -0.2096
   82SOPE   O11 7474   2.568   6.046   6.367 -0.1598 -0.2390  0.0658
   82SOPE    C1 7475   2.500   5.925   6.341 -0.1377  0.7589 -0.7442
   82SOPE    HA 7476   2.401   5.949   6.296 -0.0685  0.5609 -1.0108
   82SOPE    HB 7477   2.481   5.867   6.433 -0.1334 -1.2452 -1.9340
   82SOPE    C2 7478   2.586   5.830   6.249  0.3280 -0.6001 -0.0424
   82SOPE    HS 7479   2.676   5.800   6.306 -0.1852  0.9511  1.6846
   82SOPE   O21 7480   2.618   5.897   6.125 -0.0623  0.1572 -0.3415
   82SOPE   C21 7481   2.730   5.853   6.061 -0.0651 -0.6443 -0.2297
   82SOPE   O22 7482   2.793   5.759   6.102 -0.5865 -0.6735 -0.2037
   82SOPE   C22 7483   2.760   5.930   5.931  0.4371  0.3733 -1.0567
   82SOPE   H2R 7484   2.870   5.925   5.915  0.6099  1.2035 -0.2234
   82SOPE   H2S 7485   2.729   6.037   5.938  1.3986  0.6234 -0.3988
   82SOPE    C3 7486   2.510   5.690   6.235 -0.9384 -0.7422  0.1981
   82SOPE    HX 7487   2.505   5.637   6.332  2.3533  0.1319  0.9654
   82SOPE    HY 7488   2.576   5.618   6.182 -1.3780 -0.7954 -0.2849
   82SOPE   O31 7489   2.376   5.718   6.181 -0.3054 -0.0700  0.0532
   82SOPE   C31 7490   2.350   5.709   6.055 -0.2921  0.6717  1.1072
   82SOPE   O32 7491   2.431   5.666   5.972  0.1972  0.5855 -0.1268
   82SOPE   C32 7492   2.202   5.755   6.020 -0.4458  0.3823  0.3847
   82SOPE   H2X 7493   2.176   5.836   6.092  1.9586 -0.7169  2.6826
   82SOPE   H2Y 7494   2.136   5.670   6.044 -1.5304  0.2048 -2.7506
   82SOPE   C23 7495   2.689   5.843   5.818  0.0299  0.0860  0.2944
   82SOPE   H3R 7496   2.582   5.826   5.843  0.3434 -2.4389  0.0988
   82SOPE   H3S 7497   2.741   5.746   5.810 -1.0208 -0.4443 -0.2242
   82SOPE   C24 7498   2.705   5.915   5.682  0.5000  0.3091 -0.0012
   82SOPE   H4R 7499   2.662   6.017   5.697  0.3686  0.0467  1.6993
   82SOPE   H4S 7500   2.813   5.932   5.662  0.9580 -1.4573  0.8059
   82SOPE   C25 7501   2.647   5.844   5.563  0.5487 -0.3902 -0.1987
   82SOPE   H5R 7502   2.696   5.745   5.567 -0.3284 -0.8343 -0.1279
   82SOPE   H5S 7503   2.541   5.816   5.582  0.7256 -1.6691 -1.0010
   82SOPE   C26 7504   2.655   5.906   5.421 -0.0165  1.1882  0.3653
   82SOPE   H6R 7505   2.578   5.865   5.352 -0.0642 -0.6037  1.4354
   82SOPE   H6S 7506   2.639   6.016   5.429 -0.6272  1.3012 -1.8379
   82SOPE   C27 7507   2.795   5.869   5.357  0.4060  0.0674  0.4458
   82SOPE   H7R 7508   2.880   5.897   5.422  0.6326  0.8948 -0.1932
   82SOPE   H7S 7509   2.797   5.759   5.339 -1.9276 -0.0678  0.7046
   82SOPE   C28 7510   2.816   5.946   5.224  0.7468 -0.1874  0.7295
   82SOPE   H8R 7511   2.737   5.923   5.149 -1.8137  0.7991  2.9485
   82SOPE   H8S 7512   2.797   6.053   5.245 -0.1032  0.5354 -2.9980
   82SOPE   C29 7513   2.953   5.928   5.159 -0.0314  0.6420 -0.4517
   82SOPE   H91 7514   2.983   5.824   5.137  0.2854  1.2077 -2.9157
   82SOPE  C210 7515   3.044   6.021   5.154 -0.4742 -0.2011 -0.8480
   82SOPE  H101 7516   3.142   6.005   5.107 -0.2718  0.6060 -0.7166
   82SOPE  C211 7517   3.033   6.167   5.188  0.3656 -0.5794  0.4373
   82SOPE  H11R 7518   2.933   6.197   5.226 -2.3808 -1.1807 -5.1271
   82SOPE  H11S 7519   3.048   6.234   5.100  0.6013 -0.6243  0.4426
   82SOPE  C212 7520   3.143   6.226   5.282 -0.3785  0.2127 -0.4344
   82SOPE  H12R 7521   3.137   6.195   5.389  0.6983 -0.1501 -0.4655
   82SOPE  H12S 7522   3.145   6.337   5.280  0.3803  0.2633  1.2934
   82SOPE  C213 7523   3.285   6.174   5.250  0.6072 -0.6631 -0.4069
   82SOPE  H13R 7524   3.294   6.066   5.272  1.8507 -0.1282  2.0452
   82SOPE  H13S 7525   3.350   6.216   5.330  0.8548 -2.1925  0.2221
   82SOPE  C214 7526   3.340   6.217   5.108 -0.2518 -0.1943 -0.9909
   82SOPE  H14R 7527   3.275   6.178   5.027 -1.2830  1.3858 -0.9505
   82SOPE  H14S 7528   3.446   6.181   5.108  1.0340  3.2245 -1.7858
   82SOPE  C215 7529   3.339   6.369   5.086  0.8078  0.0105  0.9402
   82SOPE  H15R 7530   3.374   6.428   5.174 -0.0108  1.6471  0.2058
   82SOPE  H15S 7531   3.235   6.407   5.085  0.1470 -1.6969  0.6418
   82SOPE  C216 7532   3.424   6.413   4.969  0.7478 -0.0286 -0.3641
   82SOPE  H16R 7533   3.530   6.381   4.978 -0.0515 -3.3136 -1.0894
   82SOPE  H16S 7534   3.411   6.523   4.967 -0.6386 -0.1513  0.4719
   82SOPE  C217 7535   3.358   6.358   4.840  0.4410  0.4206 -0.0834
   82SOPE  H17R 7536   3.253   6.395   4.840 -0.3309 -1.5896  1.6904
   82SOPE  H17S 7537   3.355   6.247   4.836 -0.5729  0.3695  1.3967
   82SOPE  C218 7538   3.429   6.402   4.712 -0.1023  0.3275  0.1383
   82SOPE  H18R 7539   3.386   6.496   4.671 -1.0156  0.1976  0.7598
   82SOPE  H18S 7540   3.420   6.321   4.636 -0.5555  0.4412  0.0632
   82SOPE  H18T 7541   3.535   6.425   4.732  0.1546  0.1499 -0.9641
   82SOPE   C33 7542   2.184   5.790   5.869 -0.0598  0.5826 -0.1095
   82SOPE   H3X 7543   2.075   5.792   5.848 -1.2914 -1.5360  4.8755
   82SOPE   H3Y 7544   2.217   5.697   5.819 -0.9532 -1.2494  2.5088
   82SOPE   C34 7545   2.244   5.931   5.825 -0.5226  0.5537 -0.9199
   82SOPE   H4X 7546   2.342   5.935   5.876 -1.0460  0.2828  0.1353
   82SOPE   H4Y 7547   2.174   6.008   5.864 -0.1686  0.1323  0.5993
   82SOPE   C35 7548   2.254   5.949   5.673  0.0171  0.4786 -0.1535
   82SOPE   H5X 7549   2.158   5.916   5.627  0.6472 -2.1544  0.2763
   82SOPE   H5Y 7550   2.340   5.887   5.642 -1.4220 -2.4532  1.3138
   82SOPE   C36 7551   2.272   6.093   5.625 -0.2880 -0.0729  1.1399
   82SOPE   H6X 7552   2.368   6.135   5.663  1.8126 -1.8618 -1.7786
   82SOPE   H6Y 7553   2.184   6.156   5.652  0.4355  1.3156  0.3942
   82SOPE   C37 7554   2.278   6.098   5.467 -0.1193 -0.8417  0.6043
   82SOPE   H7X 7555   2.188   6.061   5.413 -0.2450  0.5294 -0.1810
   82SOPE   H7Y 7556   2.349   6.017   5.438  0.0442 -0.8817  1.1127
   82SOPE   C38 7557   2.332   6.228   5.404  0.6963  0.5366  0.2651
   82SOPE   H8X 7558   2.423   6.267   5.456  1.2050 -1.7921  1.2586
   82SOPE   H8Y 7559   2.251   6.304   5.408 -1.6274 -1.7530 -0.5957
   82SOPE   C39 7560   2.376   6.202   5.262 -0.8092 -0.0293  0.1386
   82SOPE   H9X 7561   2.292   6.157   5.206 -0.6475 -1.0464  0.6971
   82SOPE   H9Y 7562   2.466   6.137   5.255 -0.7609 -0.2449  2.1284
   82SOPE  C310 7563   2.415   6.332   5.197 -0.1393 -0.2531  0.0017
   82SOPE  H10X 7564   2.486   6.384   5.265 -1.5464  0.6664  0.8478
   82SOPE  H10Y 7565   2.322   6.392   5.190 -0.1918 -0.5273 -2.4851
   82SOPE  C311 7566   2.460   6.310   5.055 -0.0419 -0.2192 -0.2815
   82SOPE  H11X 7567   2.544   6.238   5.051 -0.7987 -1.4476  2.9305
   82SOPE  H11Y 7568   2.501   6.408   5.020  0.6682 -0.2138  0.5126
   82SOPE  C312 7569   2.349   6.265   4.962  0.7832 -0.2269  0.3766
   82SOPE  H12X 7570   2.267   6.340   4.956 -0.0362 -1.1588 -0.4747
   82SOPE  H12Y 7571   2.315   6.164   4.994  1.9850 -1.0555 -0.8280
   82SOPE  C313 7572   2.413   6.237   4.820 -0.0769 -0.1819 -0.3346
   82SOPE  H13X 7573   2.492   6.160   4.829 -1.6207 -1.6335  1.3438
   82SOPE  H13Y 7574   2.469   6.328   4.789  0.0983  0.4237  1.6602
   82SOPE  C314 7575   2.311   6.214   4.710 -0.1013 -0.5992 -0.0834
   82SOPE  H14X 7576   2.240   6.299   4.710  1.0466  0.4515 -2.1024
   82SOPE  H14Y 7577   2.258   6.116   4.714  0.0938 -0.7342 -0.7376
   82SOPE  C315 7578   2.377   6.207   4.574  0.6883  0.3079 -0.3241
   82SOPE  H15X 7579   2.460   6.134   4.557 -0.0987 -0.6613 -0.0922
   82SOPE  H15Y 7580   2.429   6.303   4.552  2.3303 -0.3394  0.5228
   82SOPE  C316 7581   2.266   6.161   4.473  0.6093 -0.1377 -0.1977
   82SOPE  H16X 7582   2.183   6.235   4.472 -0.7237 -1.5593  0.6167
   82SOPE  H16Y 7583   2.217   6.063   4.495 -2.5947  0.7991 -2.4479
   82SOPE  C317 7584   2.313   6.159   4.329 -0.7101 -0.3822  0.6218
   82SOPE  H17X 7585   2.390   6.080   4.324  0.2956  0.5797  0.5423
   82SOPE  H17Y 7586   2.375   6.248   4.305 -0.6831 -0.1363  1.5651
   82SOPE  C318 7587   2.213   6.125   4.226  0.4811 -0.1787  0.1495
   82SOPE  H18X 7588   2.153   6.037   4.256  0.3820 -0.5854 -1.1577
   82SOPE  H18Y 7589   2.261   6.092   4.131  1.7201 -3.6226  1.8009
   82SOPE  H18Z 7590   2.145   6.211   4.210 -1.6651 -1.9331 -0.6520
   83SOPE     N 7591   2.495   4.757   2.024  0.4070 -0.2346  0.3588
   83SOPE   HN1 7592   2.592   4.760   1.987  0.7735  1.3734  1.3284
   83SOPE   HN2 7593   2.447   4.667   2.007 -0.4777  0.4252 -0.8482
   83SOPE   HN3 7594   2.451   4.834   1.969  0.2081  0.1522  1.0464
   83SOPE   C12 7595   2.486   4.788   2.173  0.3353 -0.2090  0.5722
   83SOPE  H12A 7596   2.536   4.704   2.225 -0.5540 -0.4610  1.0357
   83SOPE  H12B 7597   2.377   4.797   2.193 -0.2587 -2.7234 -1.1868
   83SOPE   C11 7598   2.554   4.922   2.203  0.3459  0.7284  0.6625
   83SOPE  H11A 7599   2.664   4.911   2.196  0.7815  4.3715  0.3151
   83SOPE  H11B 7600   2.540   4.946   2.310 -0.1836  0.9051  0.5551
   83SOPE     P 7601   2.404   5.124   2.137  0.3294  0.2789 -0.3612
   83SOPE   O13 7602   2.367   5.187   2.010 -0.2888  0.2520  0.2929
   83SOPE   O14 7603   2.438   5.198   2.261 -0.0244 -0.3635 -0.1946
   83SOPE   O12 7604   2.520   5.024   2.109 -0.1266 -0.1676 -1.0698
   83SOPE   O11 7605   2.302   5.013   2.181 -0.6962  0.3438 -0.0483
   83SOPE    C1 7606   2.180   5.039   2.256 -1.1848 -0.0594 -0.0021
   83SOPE    HA 7607   2.107   5.060   2.175  0.8237 -0.8940 -2.1670
   83SOPE    HB 7608   2.189   5.126   2.324 -1.1966 -0.0351 -0.0312
   83SOPE    C2 7609   2.128   4.905   2.327  0.2672 -0.1274  0.5904
   83SOPE    HS 7610   2.033   4.904   2.385  0.3918 -1.0445  0.7975
   83SOPE   O21 7611   2.234   4.851   2.407 -0.1150  0.0993  0.0791
   83SOPE   C21 7612   2.272   4.920   2.513 -0.3300  0.0189  0.0719
   83SOPE   O22 7613   2.228   5.030   2.548 -0.5173  0.4525 -0.0726
   83SOPE   C22 7614   2.378   4.845   2.582  0.1510  0.1678  0.0450
   83SOPE   H2R 7615   2.460   4.858   2.509 -1.5412  3.6386 -1.4813
   83SOPE   H2S 7616   2.346   4.740   2.597  0.1756  0.4171  2.1265
   83SOPE    C3 7617   2.092   4.795   2.218  0.1579 -0.1992  0.5007
   83SOPE    HX 7618   2.170   4.779   2.140  0.4364 -3.5230  1.3249
   83SOPE    HY 7619   1.998   4.830   2.170  0.4173  2.3244  1.6595
   83SOPE   O31 7620   2.058   4.671   2.286 -0.8695 -0.0603 -0.2441
   83SOPE   C31 7621   2.145   4.577   2.279  0.3227  0.2716 -0.1495
   83SOPE   O32 7622   2.257   4.586   2.232  0.3943 -0.1227  0.4327
   83SOPE   C32 7623   2.098   4.445   2.342  0.9582  0.3927 -0.3790
   83SOPE   H2X 7624   2.135   4.362   2.279 -0.0306  0.4263 -1.0165
   83SOPE   H2Y 7625   1.987   4.438   2.341  0.9721 -0.3788 -2.7860
   83SOPE   C23 7626   2.425   4.909   2.718  1.3507 -0.2937  0.2440
   83SOPE   H3R 7627   2.337   4.949   2.773  1.2277  2.1867 -1.5863
   83SOPE   H3S 7628   2.493   4.991   2.688  1.4709  0.1807  1.7325
   83SOPE   C24 7629   2.496   4.803   2.809 -0.3356  0.1711 -0.1421
   83SOPE   H4R 7630   2.410   4.734   2.825  0.7586 -1.5142 -1.1358
   83SOPE   H4S 7631   2.575   4.738   2.764 -0.9759 -1.2416  0.7069
   83SOPE   C25 7632   2.552   4.868   2.940 -0.7286  0.0239 -0.0859
   83SOPE   H5R 7633   2.636   4.809   2.982  1.1764  2.4932 -0.1979
   83SOPE   H5S 7634   2.605   4.957   2.900 -0.1982 -0.6748 -0.9850
   83SOPE   C26 7635   2.447   4.915   3.039 -0.5454  0.8512  0.0528
   83SOPE   H6R 7636   2.380   4.995   3.000 -0.3142  0.0766 -2.1111
   83SOPE   H6S 7637   2.381   4.830   3.065 -1.4776  1.7525  0.6721
   83SOPE   C27 7638   2.504   4.968   3.166 -0.1527  0.0151  0.4503
   83SOPE   H7R 7639   2.574   4.894   3.210 -0.5547 -0.1318  0.8466
   83SOPE   H7S 7640   2.572   5.052   3.140  0.6355 -0.5522  0.6206
   83SOPE   C28 7641   2.402   5.020   3.267 -0.8705  0.4776 -0.1981
   83SOPE   H8R 7642   2.353   5.110   3.224 -0.3930  0.5716 -0.5453
   83SOPE   H8S 7643   2.327   4.941   3.290  2.0148 -2.2639  0.4770
   83SOPE   C29 7644   2.465   5.055   3.402  0.0824  0.1085  0.3139
   83SOPE   H91 7645   2.514   5.151   3.420 -0.1094  0.3249 -0.2665
   83SOPE  C210 7646   2.454   4.978   3.507 -0.7790 -0.2021 -0.6185
   83SOPE  H101 7647   2.512   5.008   3.595 -1.6118 -1.9181  0.5782
   83SOPE  C211 7648   2.379   4.846   3.509  0.1038 -0.3712  0.4168
   83SOPE  H11R 7649   2.411   4.796   3.415  0.4023  1.4908 -0.5098
   83SOPE  H11S 7650   2.270   4.866   3.504  0.1859  0.6108  2.0423
   83SOPE  C212 7651   2.407   4.747   3.624  0.1446  0.0019  0.1833
   83SOPE  H12R 7652   2.516   4.730   3.636  0.5584  1.8256 -0.6156
   83SOPE  H12S 7653   2.365   4.646   3.607 -1.1063  0.3218  1.1868
   83SOPE  C213 7654   2.358   4.798   3.761  0.3005 -0.2719 -0.3443
   83SOPE  H13R 7655   2.249   4.820   3.761  0.7329  2.3206  1.5443
   83SOPE  H13S 7656   2.412   4.892   3.784 -0.6383  0.2907 -0.3514
   83SOPE  C214 7657   2.368   4.691   3.873 -0.7600  0.3267 -0.2807
   83SOPE  H14R 7658   2.471   4.705   3.914 -1.0812 -0.0962  0.6916
   83SOPE  H14S 7659   2.339   4.592   3.832 -1.4940 -0.4423  1.9763
   83SOPE  C215 7660   2.271   4.695   3.997 -1.1991 -0.7363 -0.0887
   83SOPE  H15R 7661   2.166   4.687   3.963 -1.2698 -2.4763  0.4447
   83SOPE  H15S 7662   2.298   4.788   4.052 -0.6660 -0.4531 -0.7997
   83SOPE  C216 7663   2.289   4.574   4.099  0.1075 -0.1016  0.3533
   83SOPE  H16R 7664   2.392   4.533   4.086  0.0896  0.5903 -2.7641
   83SOPE  H16S 7665   2.218   4.498   4.060  2.0488 -1.6080 -0.4463
   83SOPE  C217 7666   2.252   4.616   4.241 -0.3316 -0.2109  0.2555
   83SOPE  H17R 7667   2.163   4.682   4.242 -0.5902 -0.2269 -3.6926
   83SOPE  H17S 7668   2.332   4.671   4.294  0.7392 -1.1464 -0.3570
   83SOPE  C218 7669   2.208   4.493   4.329 -0.7011  0.2188  0.4249
   83SOPE  H18R 7670   2.123   4.440   4.280 -0.6763  0.8049 -0.2711
   83SOPE  H18S 7671   2.192   4.517   4.436  2.2640 -0.0673  1.0089
   83SOPE  H18T 7672   2.295   4.424   4.320  0.2324  1.4556 -0.3731
   83SOPE   C33 7673   2.165   4.411   2.479  0.0947  0.3835 -0.6070
   83SOPE   H3X 7674   2.133   4.316   2.527  2.8949  0.2799  1.3349
   83SOPE   H3Y 7675   2.120   4.496   2.535  0.4534  0.1953 -0.0197
   83SOPE   C34 7676   2.322   4.410   2.479  0.1739 -0.5469  0.1301
   83SOPE   H4X 7677   2.363   4.508   2.445  1.1251 -0.9540  0.0532
   83SOPE   H4Y 7678   2.362   4.326   2.418  0.8525 -0.7777  0.8687
   83SOPE   C35 7679   2.386   4.388   2.614  0.4276  0.5015 -0.4846
   83SOPE   H5X 7680   2.355   4.481   2.666 -1.2333  0.4029 -1.2543
   83SOPE   H5Y 7681   2.496   4.382   2.596  0.4772  0.0960 -0.0439
   83SOPE   C36 7682   2.338   4.263   2.695  0.2891  0.3550 -0.1612
   83SOPE   H6X 7683   2.414   4.184   2.678 -0.1997 -0.0597 -0.4655
   83SOPE   H6Y 7684   2.251   4.213   2.646  0.8417 -0.1731 -0.6167
   83SOPE   C37 7685   2.335   4.290   2.844  0.0711 -0.5449  0.0051
   83SOPE   H7X 7686   2.436   4.303   2.886  0.7512  0.1220 -1.7299
   83SOPE   H7Y 7687   2.312   4.189   2.886  2.8523 -0.7329  1.2816
   83SOPE   C38 7688   2.230   4.384   2.902  0.0593  0.6792  0.1574
   83SOPE   H8X 7689   2.128   4.346   2.876  0.1921  0.7411 -0.4721
   83SOPE   H8Y 7690   2.238   4.486   2.859 -0.2124 -0.0428 -1.7461
   83SOPE   C39 7691   2.235   4.383   3.052 -0.3743  0.1132  0.4840
   83SOPE   H9X 7692   2.340   4.410   3.076  0.3171 -0.1939 -1.9173
   83SOPE   H9Y 7693   2.218   4.284   3.100 -0.8112  0.5473  1.2480
   83SOPE  C310 7694   2.159   4.491   3.130 -0.2335  0.3533  0.1630
   83SOPE  H10X 7695   2.053   4.460   3.126 -0.0695 -0.6513  2.2132
   83SOPE  H10Y 7696   2.160   4.592   3.082  1.4105  1.1519  1.7680
   83SOPE  C311 7697   2.195   4.503   3.284  0.0706 -0.2010 -0.1998
   83SOPE  H11X 7698   2.263   4.589   3.302 -1.2334  1.2683 -1.9500
   83SOPE  H11Y 7699   2.239   4.404   3.311  1.7364  1.1589  2.5753
   83SOPE  C312 7700   2.064   4.534   3.367  0.5920  0.3386  0.1013
   83SOPE  H12X 7701   1.993   4.458   3.328 -0.2170  2.1797 -2.2436
   83SOPE  H12Y 7702   2.024   4.629   3.326  1.5764  0.0754 -1.5716
   83SOPE  C313 7703   2.070   4.531   3.525 -0.4840 -0.9003  0.7750
   83SOPE  H13X 7704   2.171   4.566   3.555 -0.1300 -0.1119 -1.1887
   83SOPE  H13Y 7705   2.075   4.425   3.556  1.2033 -0.4423  2.2503
   83SOPE  C314 7706   1.946   4.603   3.577  0.0048 -0.5196  0.3043
   83SOPE  H14X 7707   1.857   4.545   3.545 -0.6634  1.2081 -1.0867
   83SOPE  H14Y 7708   1.943   4.704   3.532 -0.1935 -0.2448  0.9289
   83SOPE  C315 7709   1.953   4.583   3.726 -0.1822  0.3330  0.4119
   83SOPE  H15X 7710   2.057   4.613   3.752  0.2164 -1.8996  1.6196
   83SOPE  H15Y 7711   1.958   4.474   3.749  2.9589  0.6053  1.6085
   83SOPE  C316 7712   1.853   4.648   3.814 -0.0384 -0.3359  0.6368
   83SOPE  H16X 7713   1.749   4.632   3.779 -0.1927  0.3474  0.7603
   83SOPE  H16Y 7714   1.866   4.758   3.805 -0.4561 -0.2927  0.5433
   83SOPE  C317 7715   1.861   4.600   3.963 -0.5888  0.3409  0.4924
   83SOPE  H17X 7716   1.953   4.646   4.005  0.8792 -0.9605 -1.1540
   83SOPE  H17Y 7717   1.870   4.490   3.957 -0.4751  0.3442  0.6103
   83SOPE  C318 7718   1.750   4.640   4.056  0.2567 -0.0537  0.1612
   83SOPE  H18X 7719   1.654   4.624   4.002  0.1179  1.4827 -0.0990
   83SOPE  H18Y 7720   1.763   4.744   4.093 -1.0537 -0.3188  1.4958
   83SOPE  H18Z 7721   1.757   4.572   4.144  0.3886 -1.9680 -1.2592
   84SOPE     N 7722   1.663   2.280   2.119 -0.1473  0.2652  0.3408
   84SOPE   HN1 7723   1.627   2.377   2.112  1.8805  1.1365  1.1140
   84SOPE   HN2 7724   1.735   2.275   2.194  0.6797 -3.8856 -0.4977
   84SOPE   HN3 7725   1.697   2.256   2.024 -0.1861 -2.2990  0.9104
   84SOPE   C12 7726   1.556   2.190   2.160 -0.0403 -0.7075  0.1165
   84SOPE  H12A 7727   1.545   2.199   2.270  0.6695 -0.1619  0.1538
   84SOPE  H12B 7728   1.592   2.086   2.146  1.2836 -0.4563  1.3224
   84SOPE   C11 7729   1.416   2.230   2.103  0.2029  0.0923  0.9829
   84SOPE  H11A 7730   1.401   2.332   2.145 -1.9544 -0.3407  1.3840
   84SOPE  H11B 7731   1.332   2.172   2.147  0.6409 -0.8051  0.6505
   84SOPE     P 7732   1.390   2.097   1.877  0.1600 -0.1416  0.0612
   84SOPE   O13 7733   1.514   2.066   1.798  0.7043 -0.1819 -0.6439
   84SOPE   O14 7734   1.261   2.113   1.801  0.0285  0.6420  0.0704
   84SOPE   O12 7735   1.414   2.238   1.962  0.2971  0.4431  0.9472
   84SOPE   O11 7736   1.381   1.984   1.983 -0.4664  0.1915  1.1099
   84SOPE    C1 7737   1.261   1.925   2.027 -0.3178 -1.0054 -0.5204
   84SOPE    HA 7738   1.218   1.859   1.949 -0.2796  0.0355 -1.4471
   84SOPE    HB 7739   1.176   1.993   2.049 -0.0538 -1.3706  1.9641
   84SOPE    C2 7740   1.276   1.833   2.149  0.4532 -0.1845  0.2029
   84SOPE    HS 7741   1.271   1.880   2.249 -0.6883 -1.1567  0.6239
   84SOPE   O21 7742   1.392   1.746   2.142 -0.1761  0.1161 -0.5241
   84SOPE   C21 7743   1.486   1.782   2.226 -0.0570  0.4100 -0.4047
   84SOPE   O22 7744   1.484   1.883   2.294 -0.1394 -0.4791 -0.7062
   84SOPE   C22 7745   1.616   1.700   2.215  0.3992  0.0997  0.3058
   84SOPE   H2R 7746   1.680   1.749   2.139  1.6826 -0.2453  1.1281
   84SOPE   H2S 7747   1.595   1.602   2.167  0.7186  1.0374 -1.8970
   84SOPE    C3 7748   1.150   1.749   2.164  0.7452  0.2615 -0.3638
   84SOPE    HX 7749   1.158   1.682   2.075  0.4893 -0.0810 -0.1311
   84SOPE    HY 7750   1.059   1.812   2.157 -1.3629 -2.3297  1.7086
   84SOPE   O31 7751   1.145   1.669   2.286  0.2120 -0.1691  0.2957
   84SOPE   C31 7752   1.111   1.734   2.391 -0.7149 -0.3177  0.0604
   84SOPE   O32 7753   1.090   1.855   2.405  0.5569  0.5753  0.8773
   84SOPE   C32 7754   1.134   1.640   2.506  0.5108  0.0668  0.3638
   84SOPE   H2X 7755   1.204   1.555   2.492 -0.0672 -0.2016 -1.1519
   84SOPE   H2Y 7756   1.031   1.603   2.528  0.8607 -1.1966 -0.0399
   84SOPE   C23 7757   1.679   1.680   2.355 -0.6434 -0.0078  0.1396
   84SOPE   H3R 7758   1.702   1.779   2.398  1.7836 -0.8082  0.8183
   84SOPE   H3S 7759   1.779   1.638   2.332 -0.4455  0.4203  0.2140
   84SOPE   C24 7760   1.606   1.581   2.444 -0.6150 -0.3975 -0.2589
   84SOPE   H4R 7761   1.497   1.601   2.433 -0.0364  3.2418 -0.5526
   84SOPE   H4S 7762   1.642   1.478   2.421  2.0850 -0.1728  2.2926
   84SOPE   C25 7763   1.632   1.607   2.588  0.1726 -0.1305 -0.7337
   84SOPE   H5R 7764   1.742   1.594   2.604 -0.1727  0.0765  2.1957
   84SOPE   H5S 7765   1.617   1.714   2.612 -1.6473 -0.1277 -1.7006
   84SOPE   C26 7766   1.542   1.513   2.672  0.2532  0.2567 -0.4938
   84SOPE   H6R 7767   1.439   1.524   2.633  0.5219  1.4601 -0.9046
   84SOPE   H6S 7768   1.565   1.407   2.646 -2.5884 -0.5758  0.1123
   84SOPE   C27 7769   1.558   1.516   2.821  0.0758  0.0253 -0.1999
   84SOPE   H7R 7770   1.666   1.538   2.838  0.0155 -0.1038  0.4065
   84SOPE   H7S 7771   1.515   1.605   2.872  1.6679  0.6455  0.1176
   84SOPE   C28 7772   1.508   1.387   2.896 -0.6316 -0.4055  0.6127
   84SOPE   H8R 7773   1.498   1.416   3.003 -1.8231  1.7653 -0.0316
   84SOPE   H8S 7774   1.406   1.362   2.860  0.4529 -2.4074 -1.3307
   84SOPE   C29 7775   1.596   1.267   2.874 -1.2077 -0.2425 -0.3352
   84SOPE   H91 7776   1.592   1.238   2.768  0.9584 -2.1433  0.0379
   84SOPE  C210 7777   1.689   1.213   2.956 -0.7631 -0.1974  0.3659
   84SOPE  H101 7778   1.742   1.119   2.933 -1.0153 -0.2542 -0.0019
   84SOPE  C211 7779   1.700   1.254   3.104 -0.0382 -0.7704 -0.0911
   84SOPE  H11R 7780   1.697   1.362   3.128 -0.9947 -0.9461  0.6797
   84SOPE  H11S 7781   1.801   1.218   3.133  0.2554 -1.0640 -1.4228
   84SOPE  C212 7782   1.589   1.173   3.178 -0.3179 -0.3265  0.2116
   84SOPE  H12R 7783   1.578   1.069   3.138  0.4525 -0.3861  0.1388
   84SOPE  H12S 7784   1.495   1.232   3.176  0.2371  0.5495 -1.0964
   84SOPE  C213 7785   1.616   1.160   3.323  0.5229  0.8867 -0.0155
   84SOPE  H13R 7786   1.716   1.113   3.337 -1.0405 -1.8084  3.7509
   84SOPE  H13S 7787   1.564   1.074   3.370  0.7098  1.2214  0.8168
   84SOPE  C214 7788   1.603   1.300   3.392 -0.3229  0.3667 -0.1777
   84SOPE  H14R 7789   1.529   1.369   3.346  0.1951  0.4564 -0.8867
   84SOPE  H14S 7790   1.706   1.340   3.380  0.4204 -1.5550 -0.5195
   84SOPE  C215 7791   1.563   1.288   3.539  0.1445  0.4144  0.1256
   84SOPE  H15R 7792   1.624   1.205   3.581  0.8808  0.9476  0.1141
   84SOPE  H15S 7793   1.459   1.250   3.548  0.3789 -0.2752 -0.0345
   84SOPE  C216 7794   1.573   1.422   3.607 -0.4673 -0.6475  0.1554
   84SOPE  H16R 7795   1.511   1.500   3.559  2.5999  1.9604  0.0743
   84SOPE  H16S 7796   1.676   1.464   3.603 -0.9086  0.6138  1.1230
   84SOPE  C217 7797   1.520   1.409   3.751 -0.3126 -0.9082 -0.1025
   84SOPE  H17R 7798   1.556   1.500   3.804 -2.6657  1.1700 -1.7737
   84SOPE  H17S 7799   1.558   1.321   3.806 -0.4574  0.5887  2.6094
   84SOPE  C218 7800   1.366   1.413   3.752 -0.2025 -0.0659 -0.4906
   84SOPE  H18R 7801   1.332   1.509   3.708 -0.7409 -0.1415 -0.2439
   84SOPE  H18S 7802   1.333   1.400   3.857  2.6931  0.3179  0.5678
   84SOPE  H18T 7803   1.330   1.327   3.691 -0.5015  0.3677 -0.9319
   84SOPE   C33 7804   1.164   1.717   2.643 -0.4800 -0.6212 -0.9349
   84SOPE   H3X 7805   1.109   1.813   2.652 -0.7839 -0.8928  0.2486
   84SOPE   H3Y 7806   1.270   1.746   2.629 -0.4214  0.0347  0.6498
   84SOPE   C34 7807   1.165   1.622   2.764  0.6295 -0.7200 -0.0878
   84SOPE   H4X 7808   1.222   1.528   2.752 -0.9193 -1.7642  0.3523
   84SOPE   H4Y 7809   1.060   1.585   2.774  0.2709  0.8929  3.2123
   84SOPE   C35 7810   1.204   1.690   2.896 -0.0840 -0.2054  0.8565
   84SOPE   H5X 7811   1.150   1.787   2.902  0.5487  0.4750 -2.4337
   84SOPE   H5Y 7812   1.312   1.716   2.885 -0.3486  0.2566 -1.1797
   84SOPE   C36 7813   1.164   1.604   3.014 -0.0541 -0.2176  0.4803
   84SOPE   H6X 7814   1.163   1.496   2.987 -0.4642 -0.3993  1.1727
   84SOPE   H6Y 7815   1.064   1.641   3.045 -0.4738  0.5804 -1.6714
   84SOPE   C37 7816   1.271   1.610   3.130 -0.1126  0.0309  0.1342
   84SOPE   H7X 7817   1.301   1.717   3.132 -2.8074  0.8338  1.4261
   84SOPE   H7Y 7818   1.362   1.550   3.107  0.8943  0.8733  1.6960
   84SOPE   C38 7819   1.224   1.575   3.272 -0.1663  0.5817  0.1129
   84SOPE   H8X 7820   1.137   1.640   3.292  0.4076  2.2617 -2.4004
   84SOPE   H8Y 7821   1.310   1.603   3.336  0.7288 -0.8747 -0.3959
   84SOPE   C39 7822   1.183   1.424   3.304 -0.2971  0.0798 -0.4712
   84SOPE   H9X 7823   1.270   1.355   3.303 -1.3528 -1.6274  3.7426
   84SOPE   H9Y 7824   1.102   1.407   3.230 -2.4487  0.2204  1.7306
   84SOPE  C310 7825   1.106   1.418   3.439  0.1324  0.8236  0.2789
   84SOPE  H10X 7826   1.002   1.458   3.432 -0.8304 -1.0946  2.2637
   84SOPE  H10Y 7827   1.157   1.481   3.514  0.0005  1.2063  0.0482
   84SOPE  C311 7828   1.103   1.267   3.488  0.4073 -0.4916  0.2678
   84SOPE  H11X 7829   1.207   1.235   3.511  1.7755  1.3139 -2.7400
   84SOPE  H11Y 7830   1.073   1.204   3.401 -1.1709  0.0603  0.3886
   84SOPE  C312 7831   0.996   1.242   3.595 -0.4839 -0.7327  0.6640
   84SOPE  H12X 7832   0.986   1.132   3.612 -0.0558 -0.8688  0.0470
   84SOPE  H12Y 7833   0.898   1.282   3.562 -0.9643  0.2369  3.0858
   84SOPE  C313 7834   1.034   1.297   3.734  0.0626  0.3811  0.3728
   84SOPE  H13X 7835   1.046   1.406   3.722  0.3775  0.2714 -0.3498
   84SOPE  H13Y 7836   1.134   1.256   3.762 -0.1153 -0.3860 -0.0990
   84SOPE  C314 7837   0.929   1.260   3.841  0.6427  0.5714 -0.8343
   84SOPE  H14X 7838   0.953   1.155   3.869  3.1016  1.6012  1.2817
   84SOPE  H14Y 7839   0.824   1.268   3.806  0.2742 -1.0189 -0.2199
   84SOPE  C315 7840   0.942   1.347   3.973  0.8419  0.2655 -0.1020
   84SOPE  H15X 7841   0.908   1.451   3.957  0.0724 -0.0970 -0.9311
   84SOPE  H15Y 7842   1.047   1.343   4.009  0.9852  1.1127 -0.4157
   84SOPE  C316 7843   0.859   1.281   4.085 -0.4012 -0.0961 -0.0040
   84SOPE  H16X 7844   0.896   1.177   4.096 -2.5574 -0.6536  3.5293
   84SOPE  H16Y 7845   0.751   1.278   4.058 -0.1739 -1.7288 -0.8758
   84SOPE  C317 7846   0.863   1.350   4.219 -0.4869 -0.7699  0.0789
   84SOPE  H17X 7847   0.795   1.437   4.210 -1.0460 -1.2726 -0.7951
   84SOPE  H17Y 7848   0.966   1.386   4.241 -0.8126  1.4999 -1.6929
   84SOPE  C318 7849   0.812   1.253   4.329  0.0106 -0.1699  0.2364
   84SOPE  H18X 7850   0.703   1.235   4.316 -0.1827  1.5850 -0.8246
   84SOPE  H18Y 7851   0.835   1.297   4.428  0.5713 -0.7860  0.3918
   84SOPE  H18Z 7852   0.865   1.155   4.333 -2.3290 -1.4478  2.8095
   85SOPE     N 7853   6.321   4.621   2.318  0.5217 -0.9509 -0.0660
   85SOPE   HN1 7854   6.361   4.691   2.252  2.5402 -0.1494  1.9088
   85SOPE   HN2 7855   6.342   4.530   2.272  0.2572  0.1833 -2.6142
   85SOPE   HN3 7856   6.218   4.626   2.308  0.7246  1.4101 -1.8099
   85SOPE   C12 7857   6.354   4.647   2.462 -0.0491 -0.2573 -0.6386
   85SOPE  H12A 7858   6.331   4.560   2.528  1.7588 -1.3809 -1.3810
   85SOPE  H12B 7859   6.296   4.737   2.489 -0.5966 -0.5408 -0.8708
   85SOPE   C11 7860   6.502   4.674   2.469  0.0757  0.0435 -0.0077
   85SOPE  H11A 7861   6.523   4.719   2.568 -0.9535  0.3555  0.0807
   85SOPE  H11B 7862   6.528   4.759   2.402 -0.4287 -1.5724 -2.3921
   85SOPE     P 7863   6.745   4.578   2.457 -0.3706 -0.0197  0.0684
   85SOPE   O13 7864   6.781   4.713   2.419 -1.0135  0.4180 -0.2858
   85SOPE   O14 7865   6.821   4.463   2.401  0.3825  0.0604  0.5294
   85SOPE   O12 7866   6.584   4.559   2.441 -0.0707  0.1326 -0.3301
   85SOPE   O11 7867   6.749   4.571   2.616 -0.4256 -0.5036  0.5686
   85SOPE    C1 7868   6.704   4.449   2.675 -0.1334 -0.0053  0.2051
   85SOPE    HA 7869   6.752   4.357   2.635 -1.9194 -0.0300 -2.0255
   85SOPE    HB 7870   6.594   4.453   2.662 -0.0340 -0.6319 -0.8991
   85SOPE    C2 7871   6.733   4.453   2.826  0.3030  0.0434 -0.0735
   85SOPE    HS 7872   6.718   4.349   2.860 -0.0460 -0.1530 -0.8160
   85SOPE   O21 7873   6.637   4.537   2.895  0.0148  0.5390 -0.1867
   85SOPE   C21 7874   6.524   4.480   2.917  0.4396 -0.2705 -0.3493
   85SOPE   O22 7875   6.485   4.374   2.871 -0.4043  0.5416 -0.1317
   85SOPE   C22 7876   6.438   4.567   3.008  0.6438 -0.1181 -0.4362
   85SOPE   H2R 7877   6.371   4.502   3.068 -1.8491  0.5027 -2.3745
   85SOPE   H2S 7878   6.376   4.624   2.936  0.8407  0.4704 -0.1479
   85SOPE    C3 7879   6.882   4.508   2.850 -0.4366 -0.1117  0.8963
   85SOPE    HX 7880   6.908   4.610   2.813 -1.1178 -0.6445 -1.2593
   85SOPE    HY 7881   6.948   4.450   2.783 -0.5461  0.9021 -0.1267
   85SOPE   O31 7882   6.916   4.507   2.987 -0.4948  0.3915 -0.6571
   85SOPE   C31 7883   7.049   4.511   3.008  0.3045 -0.9202 -0.3311
   85SOPE   O32 7884   7.133   4.520   2.917  0.1487 -0.6322 -0.3540
   85SOPE   C32 7885   7.078   4.494   3.157 -0.6260  1.0168  0.6018
   85SOPE   H2X 7886   6.998   4.549   3.211 -2.5040 -2.6694  1.8943
   85SOPE   H2Y 7887   7.176   4.544   3.178 -0.7199  0.6369  2.0568
   85SOPE   C23 7888   6.521   4.654   3.104  0.0685  0.0897  0.4463
   85SOPE   H3R 7889   6.451   4.696   3.179  0.6130  0.7036  0.6110
   85SOPE   H3S 7890   6.568   4.735   3.045 -0.8596 -1.0351 -1.9774
   85SOPE   C24 7891   6.635   4.579   3.181 -0.5008 -0.5679  0.6293
   85SOPE   H4R 7892   6.695   4.518   3.110 -0.5718 -1.9862  1.7490
   85SOPE   H4S 7893   6.707   4.655   3.219  1.1427 -1.1305 -1.2010
   85SOPE   C25 7894   6.576   4.484   3.287  0.2868 -0.8284  0.1174
   85SOPE   H5R 7895   6.480   4.525   3.325 -0.1498 -2.8051  1.2928
   85SOPE   H5S 7896   6.555   4.384   3.243  1.2470 -0.2380 -1.7614
   85SOPE   C26 7897   6.676   4.458   3.400 -0.3352  0.3692 -0.3413
   85SOPE   H6R 7898   6.758   4.394   3.359  0.7944  1.0697  0.7317
   85SOPE   H6S 7899   6.734   4.544   3.439 -0.5384  1.0605 -1.5403
   85SOPE   C27 7900   6.608   4.384   3.521 -0.0728  0.4252 -0.0438
   85SOPE   H7R 7901   6.511   4.428   3.552 -0.9345 -2.9956  2.7387
   85SOPE   H7S 7902   6.584   4.282   3.487 -0.2168  1.0873 -2.0535
   85SOPE   C28 7903   6.715   4.371   3.642  0.1748 -0.3506  0.1771
   85SOPE   H8R 7904   6.664   4.291   3.701 -0.3896  0.1134  0.3272
   85SOPE   H8S 7905   6.802   4.323   3.594  0.9134 -0.4395  1.5564
   85SOPE   C29 7906   6.763   4.483   3.726  0.4322  0.2044 -0.3693
   85SOPE   H91 7907   6.872   4.493   3.723  0.5532 -0.0385  1.5196
   85SOPE  C210 7908   6.687   4.573   3.790  0.1252  0.2814 -0.3934
   85SOPE  H101 7909   6.739   4.656   3.839 -1.7561  0.4071  1.5218
   85SOPE  C211 7910   6.538   4.559   3.814  0.8674 -0.1603  0.2829
   85SOPE  H11R 7911   6.516   4.548   3.922 -0.2148  2.9602  0.4921
   85SOPE  H11S 7912   6.496   4.471   3.761 -0.8391 -0.6545  2.3042
   85SOPE  C212 7913   6.468   4.684   3.754 -0.3063 -0.1783 -0.3602
   85SOPE  H12R 7914   6.502   4.708   3.651  0.9001 -1.6649 -0.3380
   85SOPE  H12S 7915   6.484   4.771   3.821 -1.3222  0.5745 -1.0794
   85SOPE  C213 7916   6.314   4.661   3.745  0.1196  0.1650 -0.4874
   85SOPE  H13R 7917   6.287   4.566   3.694 -0.5866  0.2086 -0.2072
   85SOPE  H13S 7918   6.276   4.747   3.686 -1.2090  0.7543  1.1223
   85SOPE  C214 7919   6.236   4.659   3.874 -0.0875 -0.1765 -0.0873
   85SOPE  H14R 7920   6.272   4.740   3.940  1.1810 -1.5487  0.9904
   85SOPE  H14S 7921   6.257   4.570   3.938  0.1309  0.2794  0.4787
   85SOPE  C215 7922   6.089   4.673   3.852  0.1206 -0.1422  0.3617
   85SOPE  H15R 7923   6.058   4.577   3.805  1.0922  0.4364 -1.5522
   85SOPE  H15S 7924   6.071   4.748   3.772 -1.1641 -0.7806  0.0170
   85SOPE  C216 7925   5.993   4.686   3.969 -0.3804  1.0232  1.2419
   85SOPE  H16R 7926   5.997   4.593   4.030  2.2390  0.9954  1.1429
   85SOPE  H16S 7927   5.893   4.686   3.921 -0.1166  3.0307  0.5964
   85SOPE  C217 7928   6.018   4.805   4.055 -0.2922  0.4039 -0.1483
   85SOPE  H17R 7929   6.017   4.898   3.994 -2.4211  0.6714  0.1966
   85SOPE  H17S 7930   6.117   4.800   4.104 -0.4020  2.7580  0.4256
   85SOPE  C218 7931   5.903   4.829   4.162  0.4537 -0.0000  0.6996
   85SOPE  H18R 7932   5.807   4.788   4.123  1.7202 -2.8074  0.2796
   85SOPE  H18S 7933   5.893   4.936   4.189 -0.1330  0.4602 -1.2122
   85SOPE  H18T 7934   5.919   4.780   4.261  2.6402 -0.7255  0.0368
   85SOPE   C33 7935   7.080   4.343   3.212  0.0982 -0.0671  0.2111
   85SOPE   H3X 7936   7.169   4.293   3.169 -0.1270  1.3213 -2.0008
   85SOPE   H3Y 7937   6.993   4.290   3.168  0.6546 -2.5237  1.8225
   85SOPE   C34 7938   7.054   4.328   3.360 -0.2260  0.4775 -0.3285
   85SOPE   H4X 7939   7.046   4.218   3.368  1.7008  0.4338  2.4166
   85SOPE   H4Y 7940   6.959   4.370   3.399 -1.0165  0.1028 -1.7801
   85SOPE   C35 7941   7.180   4.355   3.446  0.0813 -0.7624 -0.1217
   85SOPE   H5X 7942   7.221   4.458   3.438  2.6099 -1.7667 -1.1802
   85SOPE   H5Y 7943   7.263   4.296   3.401 -0.6407 -1.7442 -0.2101
   85SOPE   C36 7944   7.165   4.315   3.592 -0.8251 -0.6542 -0.6680
   85SOPE   H6X 7945   7.164   4.205   3.606  3.5142 -1.0192 -1.7606
   85SOPE   H6Y 7946   7.071   4.366   3.621 -0.1579  1.5369 -2.1100
   85SOPE   C37 7947   7.289   4.364   3.679  0.3982 -0.0435 -1.2008
   85SOPE   H7X 7948   7.300   4.472   3.653 -0.1577 -0.2752 -2.4912
   85SOPE   H7Y 7949   7.379   4.311   3.640 -0.3621 -0.9264 -1.7972
   85SOPE   C38 7950   7.270   4.341   3.830  0.0240  0.1653  0.1265
   85SOPE   H8X 7951   7.370   4.348   3.878  1.3234  1.7101 -2.6165
   85SOPE   H8Y 7952   7.222   4.240   3.836  0.6704 -0.2668 -1.4470
   85SOPE   C39 7953   7.175   4.452   3.893  0.4170  0.5184  0.4286
   85SOPE   H9X 7954   7.080   4.462   3.836  0.0760 -3.1676  0.1122
   85SOPE   H9Y 7955   7.229   4.548   3.881 -0.5524  1.0589  0.3590
   85SOPE  C310 7956   7.122   4.425   4.038 -0.2408 -0.1427 -0.6766
   85SOPE  H10X 7957   7.079   4.519   4.081  1.6817  0.8038 -0.7218
   85SOPE  H10Y 7958   7.197   4.403   4.117 -1.7743 -0.2559  0.8228
   85SOPE  C311 7959   7.028   4.304   4.045 -0.0380 -0.6089 -0.0306
   85SOPE  H11X 7960   7.086   4.210   4.044  0.5649 -0.2393 -1.3121
   85SOPE  H11Y 7961   6.966   4.300   3.952  1.6033  0.3727 -1.2105
   85SOPE  C312 7962   6.957   4.289   4.180  1.1985 -0.3176 -0.3078
   85SOPE  H12X 7963   7.028   4.280   4.265 -0.2785 -0.1495  0.9929
   85SOPE  H12Y 7964   6.908   4.190   4.178  2.2076 -0.8425 -2.5877
   85SOPE  C313 7965   6.852   4.396   4.198 -0.5375 -0.8104  0.8059
   85SOPE  H13X 7966   6.788   4.415   4.109 -0.8523  3.7549  1.7599
   85SOPE  H13Y 7967   6.882   4.500   4.222 -3.7927  1.1656 -2.5231
   85SOPE  C314 7968   6.760   4.389   4.317  1.0356 -0.0102 -0.2354
   85SOPE  H14X 7969   6.811   4.375   4.415 -0.3316  0.4168  0.5733
   85SOPE  H14Y 7970   6.693   4.301   4.308 -1.5731  1.6364  1.3736
   85SOPE  C315 7971   6.658   4.511   4.328 -0.4436 -0.8018 -0.2428
   85SOPE  H15X 7972   6.718   4.604   4.315 -1.3918 -0.2302 -0.6428
   85SOPE  H15Y 7973   6.610   4.494   4.427 -1.4791 -1.2435 -0.8025
   85SOPE  C316 7974   6.540   4.503   4.225  1.1167 -0.5456 -0.2878
   85SOPE  H16X 7975   6.483   4.408   4.231 -1.7151  0.9438 -1.4852
   85SOPE  H16Y 7976   6.584   4.514   4.124  0.9215  1.2240 -0.2108
   85SOPE  C317 7977   6.450   4.626   4.256  0.4514 -1.0560  0.1160
   85SOPE  H17X 7978   6.459   4.662   4.361 -1.6636  1.5648 -0.4829
   85SOPE  H17Y 7979   6.345   4.596   4.237 -0.5776  2.4756 -0.5395
   85SOPE  C318 7980   6.485   4.750   4.163 -0.2912 -0.4598 -0.2547
   85SOPE  H18X 7981   6.416   4.833   4.189 -0.2902 -1.0721  1.8558
   85SOPE  H18Y 7982   6.450   4.725   4.061 -0.9243 -0.3576 -0.0675
   85SOPE  H18Z 7983   6.594   4.773   4.169 -0.0554 -1.2710 -1.1909
   86SOPE     N 7984   6.712   0.173   1.823  0.4365 -0.0938  0.2522
   86SOPE   HN1 7985   6.630   0.236   1.814  1.2536  0.8436 -0.8724
   86SOPE   HN2 7986   6.736   0.144   1.726 -0.2743  1.4346 -0.4166
   86SOPE   HN3 7987   6.687   0.099   1.892  0.5283  0.2498  0.6567
   86SOPE   C12 7988   6.816   0.255   1.893  0.3932 -0.5865 -0.3946
   86SOPE  H12A 7989   6.809   0.352   1.840  0.5246 -0.7966 -0.8068
   86SOPE  H12B 7990   6.916   0.210   1.873  0.3504 -0.6800 -0.4031
   86SOPE   C11 7991   6.793   0.258   2.046  1.1586  0.5173  0.6928
   86SOPE  H11A 7992   6.861   0.340   2.078 -0.0344  1.8272 -0.0216
   86SOPE  H11B 7993   6.826   0.168   2.101  4.3984  0.9741 -0.2613
   86SOPE     P 7994   6.618   0.452   2.065  0.1751 -0.0842  0.0794
   86SOPE   O13 7995   6.479   0.454   2.014 -0.1573 -0.4798 -0.0569
   86SOPE   O14 7996   6.722   0.523   1.985  0.0900 -0.0332  0.2203
   86SOPE   O12 7997   6.654   0.295   2.079  0.5115 -0.2806  0.5754
   86SOPE   O11 7998   6.619   0.505   2.217  0.3695 -0.5082 -0.4434
   86SOPE    C1 7999   6.739   0.499   2.283 -0.4627  0.1028 -0.4830
   86SOPE    HA 8000   6.752   0.592   2.343  0.9097  0.8992 -1.9421
   86SOPE    HB 8001   6.829   0.510   2.220 -1.5343 -0.5332 -2.1965
   86SOPE    C2 8002   6.739   0.379   2.381  0.2279 -0.0689  0.2539
   86SOPE    HS 8003   6.677   0.297   2.338  0.5970 -0.3189  0.1946
   86SOPE   O21 8004   6.680   0.423   2.507  0.4992 -0.4432 -0.1565
   86SOPE   C21 8005   6.556   0.423   2.524  0.0561 -0.6213  0.3488
   86SOPE   O22 8006   6.467   0.382   2.446 -0.0333  0.2062 -0.3234
   86SOPE   C22 8007   6.524   0.464   2.675 -0.4165 -0.9615 -0.0763
   86SOPE   H2R 8008   6.416   0.448   2.696 -0.8170  0.9135 -0.5821
   86SOPE   H2S 8009   6.539   0.573   2.690 -0.7740 -1.0435  0.9536
   86SOPE    C3 8010   6.885   0.345   2.398  0.0450  0.3623  0.3898
   86SOPE    HX 8011   6.950   0.431   2.426  0.5078  0.4745 -0.9469
   86SOPE    HY 8012   6.911   0.315   2.294 -2.6610  1.8991 -0.8274
   86SOPE   O31 8013   6.908   0.231   2.491 -0.7204 -0.0217 -0.1096
   86SOPE   C31 8014   6.982   0.262   2.604  0.8919 -0.1280  0.1296
   86SOPE   O32 8015   7.017   0.374   2.639 -0.4224 -0.1299  0.5660
   86SOPE   C32 8016   6.995   0.131   2.680  0.1256 -0.1624 -0.8856
   86SOPE   H2X 8017   7.104   0.116   2.691  0.1589  0.5057 -0.3215
   86SOPE   H2Y 8018   6.951   0.050   2.617 -0.5461 -0.0728 -0.5445
   86SOPE   C23 8019   6.605   0.389   2.781  0.4659  1.3754  0.3009
   86SOPE   H3R 8020   6.714   0.408   2.772  0.6178  1.8605  2.5249
   86SOPE   H3S 8021   6.606   0.279   2.774  0.7578  1.3955  0.0306
   86SOPE   C24 8022   6.567   0.434   2.921  0.4586  0.0995  0.0754
   86SOPE   H4R 8023   6.600   0.537   2.945 -1.1119  1.3514 -2.5958
   86SOPE   H4S 8024   6.457   0.428   2.931  0.4702 -1.0090 -0.2889
   86SOPE   C25 8025   6.630   0.337   3.024 -0.2766  0.4817 -0.1324
   86SOPE   H5R 8026   6.591   0.235   3.006 -0.0055  0.2595  0.4901
   86SOPE   H5S 8027   6.740   0.330   3.017 -0.3804  0.1957 -1.8880
   86SOPE   C26 8028   6.602   0.391   3.167  0.9954  0.1642 -0.1680
   86SOPE   H6R 8029   6.639   0.495   3.178 -0.2579  0.5918  0.1213
   86SOPE   H6S 8030   6.496   0.402   3.198  0.9422 -0.4767 -0.1164
   86SOPE   C27 8031   6.673   0.309   3.276 -0.5151  0.0921 -0.5932
   86SOPE   H7R 8032   6.624   0.209   3.278  0.5090 -0.4210 -0.0621
   86SOPE   H7S 8033   6.774   0.301   3.230 -1.1676  2.1794 -2.5250
   86SOPE   C28 8034   6.675   0.373   3.417  0.3067  0.9109  0.2762
   86SOPE   H8R 8035   6.711   0.288   3.480 -0.2606 -1.0025 -1.8195
   86SOPE   H8S 8036   6.742   0.461   3.412 -0.6233  1.5697 -2.2200
   86SOPE   C29 8037   6.538   0.415   3.468 -0.4386 -0.0800  0.1694
   86SOPE   H91 8038   6.499   0.515   3.445 -0.2320  0.0155  0.2293
   86SOPE  C210 8039   6.453   0.344   3.554  0.2797 -0.1867 -0.6062
   86SOPE  H101 8040   6.355   0.388   3.579  0.5459  0.4019 -0.5858
   86SOPE  C211 8041   6.488   0.200   3.603  0.4358 -0.6002 -0.4562
   86SOPE  H11R 8042   6.559   0.138   3.544 -1.5885 -1.6544 -1.8984
   86SOPE  H11S 8043   6.393   0.142   3.597 -0.3559  0.6862 -0.9356
   86SOPE  C212 8044   6.531   0.181   3.749 -0.4058  0.3754  0.0468
   86SOPE  H12R 8045   6.613   0.251   3.775  1.5117 -1.0804 -1.7705
   86SOPE  H12S 8046   6.566   0.076   3.748 -0.3601  0.3967 -0.6334
   86SOPE  C213 8047   6.416   0.189   3.846 -0.3984  0.0071 -0.1533
   86SOPE  H13R 8048   6.335   0.124   3.808 -0.0213 -1.0965  0.8789
   86SOPE  H13S 8049   6.367   0.288   3.862  0.7768  0.7316 -0.9085
   86SOPE  C214 8050   6.465   0.133   3.984  0.3872 -0.2233 -0.2569
   86SOPE  H14R 8051   6.565   0.085   3.983  1.4585  1.8780 -1.0842
   86SOPE  H14S 8052   6.391   0.059   4.021 -0.2950  0.0538 -1.0296
   86SOPE  C215 8053   6.484   0.241   4.082 -0.3566  0.4759 -0.3826
   86SOPE  H15R 8054   6.402   0.317   4.078 -0.7897 -0.0472 -2.5860
   86SOPE  H15S 8055   6.579   0.286   4.045  0.0624  0.3173  0.4734
   86SOPE  C216 8056   6.521   0.203   4.229  0.2899 -0.3251  0.5561
   86SOPE  H16R 8057   6.572   0.290   4.275  1.9230 -0.9935  0.0746
   86SOPE  H16S 8058   6.596   0.121   4.231  0.7008 -0.0070 -0.6366
   86SOPE  C217 8059   6.409   0.180   4.328  0.8125 -0.2991  0.4172
   86SOPE  H17R 8060   6.368   0.281   4.351  1.7274  0.2899 -0.3934
   86SOPE  H17S 8061   6.450   0.152   4.427  1.6671  3.6200  1.3786
   86SOPE  C218 8062   6.305   0.076   4.283 -0.1384  0.7270  0.6249
   86SOPE  H18R 8063   6.350  -0.012   4.232 -0.4556  0.7256  0.3390
   86SOPE  H18S 8064   6.232   0.122   4.213 -1.7323 -0.5628  1.3617
   86SOPE  H18T 8065   6.261   0.035   4.377 -0.8025 -0.0085  0.0147
   86SOPE   C33 8066   6.923   0.150   2.813  0.5005 -0.2709 -0.8149
   86SOPE   H3X 8067   6.813   0.151   2.799  0.4711 -2.0887 -1.0424
   86SOPE   H3Y 8068   6.945   0.249   2.856 -0.2131 -0.6829  0.5530
   86SOPE   C34 8069   6.958   0.040   2.906  0.4767  0.1275 -0.4362
   86SOPE   H4X 8070   7.063   0.006   2.918  0.3621  0.1712  0.7644
   86SOPE   H4Y 8071   6.900  -0.052   2.885  0.7694  0.1807 -1.5310
   86SOPE   C35 8072   6.941   0.092   3.053  0.4312  0.6968 -0.2372
   86SOPE   H5X 8073   6.849   0.155   3.056 -2.1055 -2.6339 -1.7409
   86SOPE   H5Y 8074   7.028   0.153   3.086  0.5429  0.1982  0.4070
   86SOPE   C36 8075   6.902  -0.022   3.149 -0.2418 -0.0376  0.6270
   86SOPE   H6X 8076   6.987  -0.094   3.146 -1.0196 -0.9572 -0.5232
   86SOPE   H6Y 8077   6.811  -0.073   3.111 -2.4688  3.5874  0.6466
   86SOPE   C37 8078   6.882   0.027   3.293 -0.6234 -0.1409 -0.2387
   86SOPE   H7X 8079   6.779   0.066   3.300 -1.0281 -0.9062 -1.5665
   86SOPE   H7Y 8080   6.951   0.111   3.315  0.0720 -0.5549 -0.7695
   86SOPE   C38 8081   6.886  -0.075   3.396  0.1490 -0.0112  0.5011
   86SOPE   H8X 8082   6.972  -0.143   3.376  1.7363  1.6833  1.3268
   86SOPE   H8Y 8083   6.799  -0.144   3.391  0.8518 -0.9188  0.5401
   86SOPE   C39 8084   6.894  -0.025   3.538 -0.2793 -0.8199 -0.0985
   86SOPE   H9X 8085   6.812   0.047   3.558 -0.8533 -1.2427 -0.8616
   86SOPE   H9Y 8086   6.987   0.034   3.552  0.5234 -2.3942  1.5943
   86SOPE  C310 8087   6.890  -0.135   3.641  0.7813 -0.0919 -0.0137
   86SOPE  H10X 8088   6.804  -0.205   3.635  1.5395 -0.9850 -0.6811
   86SOPE  H10Y 8089   6.880  -0.090   3.743  0.6088 -0.4376  0.1258
   86SOPE  C311 8090   7.002  -0.231   3.645 -0.3701 -0.1213 -0.0754
   86SOPE  H11X 8091   7.099  -0.178   3.652  0.7963 -2.1996  0.3481
   86SOPE  H11Y 8092   6.989  -0.289   3.551 -3.3674  1.3716 -0.7428
   86SOPE  C312 8093   7.011  -0.335   3.762 -0.7952 -0.2555  0.3727
   86SOPE  H12X 8094   6.912  -0.385   3.769 -1.2420  0.5586 -0.1070
   86SOPE  H12Y 8095   7.023  -0.277   3.856  0.8898  0.5838 -0.3233
   86SOPE  C313 8096   7.125  -0.434   3.750 -0.1675 -0.1225  1.2173
   86SOPE  H13X 8097   7.219  -0.375   3.757 -0.0038 -0.0927 -0.7284
   86SOPE  H13Y 8098   7.124  -0.483   3.650  1.3550  1.7366  0.2232
   86SOPE  C314 8099   7.118  -0.551   3.850 -0.0333  0.0472  0.4012
   86SOPE  H14X 8100   7.022  -0.608   3.846 -0.6203  1.0551 -0.2826
   86SOPE  H14Y 8101   7.128  -0.506   3.951  1.8248  1.8774 -0.5240
   86SOPE  C315 8102   7.228  -0.659   3.839  0.7752 -0.4860 -0.3611
   86SOPE  H15X 8103   7.230  -0.707   3.739  0.7755 -0.1779 -0.5122
   86SOPE  H15Y 8104   7.202  -0.735   3.915 -0.2462 -0.6951 -0.9023
   86SOPE  C316 8105   7.363  -0.595   3.885 -0.6014 -0.3680 -0.3565
   86SOPE  H16X 8106   7.344  -0.545   3.982 -0.3265 -1.7613  0.4485
   86SOPE  H16Y 8107   7.385  -0.514   3.812  0.4916  0.4058  0.7958
   86SOPE  C317 8108   7.488  -0.693   3.903  0.8602  0.1508 -0.5240
   86SOPE  H17X 8109   7.443  -0.779   3.958 -0.5002  0.0870 -1.6637
   86SOPE  H17Y 8110   7.558  -0.628   3.960  1.7624  0.9632 -2.4940
   86SOPE  C318 8111   7.529  -0.755   3.768  0.6598 -0.3153  0.3921
   86SOPE  H18X 8112   7.456  -0.816   3.710 -0.6231  1.2814  0.2496
   86SOPE  H18Y 8113   7.612  -0.825   3.790  0.7204 -0.6052 -0.6669
   86SOPE  H18Z 8114   7.567  -0.681   3.694 -1.1104  1.2345  0.9642
   87SOPE     N 8115   0.176   6.050   1.854 -0.1549 -0.0539 -0.7596
   87SOPE   HN1 8116   0.134   5.984   1.922  2.0891 -1.0934 -0.2760
   87SOPE   HN2 8117   0.276   6.024   1.862 -0.7361 -2.8372 -1.6538
   87SOPE   HN3 8118   0.169   6.148   1.889  0.9316 -0.3421  0.3385
   87SOPE   C12 8119   0.131   6.017   1.714  0.4875  0.7898 -0.0710
   87SOPE  H12A 8120   0.029   5.973   1.713  0.5192  0.7149 -0.5448
   87SOPE  H12B 8121   0.202   5.942   1.673  1.4927  1.4362  0.4645
   87SOPE   C11 8122   0.132   6.133   1.607 -0.0046 -0.6378  0.8776
   87SOPE  H11A 8123   0.042   6.198   1.620 -0.0107  0.1086 -2.1495
   87SOPE  H11B 8124   0.120   6.087   1.507  0.6366 -0.0579  0.5280
   87SOPE     P 8125   0.257   6.363   1.672 -0.3677 -0.3058 -0.3156
   87SOPE   O13 8126   0.171   6.451   1.598 -0.0100 -0.1061 -0.8438
   87SOPE   O14 8127   0.397   6.404   1.669 -0.3856  0.7324 -0.1388
   87SOPE   O12 8128   0.250   6.214   1.608  0.0568  0.1352  0.1640
   87SOPE   O11 8129   0.200   6.328   1.816  0.4087  0.5331  0.6764
   87SOPE    C1 8130   0.183   6.426   1.917  0.2537 -0.4978 -0.3373
   87SOPE    HA 8131   0.115   6.393   1.998  0.8404 -2.2532 -0.5174
   87SOPE    HB 8132   0.146   6.523   1.877 -1.4354 -1.6856 -1.8165
   87SOPE    C2 8133   0.318   6.447   1.993 -0.1512  0.0125 -0.0589
   87SOPE    HS 8134   0.399   6.470   1.921 -2.1203  0.6965 -2.1673
   87SOPE   O21 8135   0.348   6.333   2.071  0.9864 -0.2892 -0.0981
   87SOPE   C21 8136   0.471   6.331   2.120 -0.0092 -0.6397 -0.0352
   87SOPE   O22 8137   0.548   6.429   2.120  0.3230  0.2397 -0.3240
   87SOPE   C22 8138   0.516   6.194   2.167 -0.3790 -0.8150 -0.0459
   87SOPE   H2R 8139   0.606   6.214   2.229 -0.5650  2.2662 -0.6268
   87SOPE   H2S 8140   0.547   6.130   2.082 -0.5466  1.1051 -1.6143
   87SOPE    C3 8141   0.302   6.579   2.078 -0.7229  0.4274 -0.0208
   87SOPE    HX 8142   0.295   6.668   2.012  0.1040  1.0095  0.6581
   87SOPE    HY 8143   0.392   6.594   2.141 -0.3539 -0.7306 -0.2505
   87SOPE   O31 8144   0.179   6.576   2.152  0.1809  0.4095 -0.0968
   87SOPE   C31 8145   0.144   6.681   2.213 -0.6679  0.1638 -0.5235
   87SOPE   O32 8146   0.203   6.787   2.216  0.3407  0.5125 -0.2510
   87SOPE   C32 8147   0.002   6.663   2.261 -0.6553  0.0529 -0.0593
   87SOPE   H2X 8148  -0.009   6.552   2.270  2.4441 -0.5620 -2.2974
   87SOPE   H2Y 8149  -0.071   6.705   2.189 -1.4746  0.5626  1.0278
   87SOPE   C23 8150   0.407   6.120   2.258  0.1518 -0.2484 -0.2333
   87SOPE   H3R 8151   0.448   6.020   2.282 -0.2544 -0.4990 -0.5702
   87SOPE   H3S 8152   0.314   6.123   2.197  1.5875  0.7303 -2.5123
   87SOPE   C24 8153   0.385   6.190   2.393  0.6852 -0.6730 -0.4168
   87SOPE   H4R 8154   0.366   6.300   2.394 -0.1018 -0.7860  1.4841
   87SOPE   H4S 8155   0.293   6.145   2.436 -0.0865 -0.0340 -1.3514
   87SOPE   C25 8156   0.502   6.168   2.489 -0.2960  0.3181 -0.5146
   87SOPE   H5R 8157   0.521   6.059   2.498  0.0313  0.4891  1.1581
   87SOPE   H5S 8158   0.601   6.208   2.461  0.5158  0.3334  2.0655
   87SOPE   C26 8159   0.469   6.223   2.622 -0.7257 -0.9365  0.2617
   87SOPE   H6R 8160   0.467   6.333   2.610  1.6859 -1.0537 -2.5389
   87SOPE   H6S 8161   0.368   6.180   2.640 -1.8412 -0.2766 -3.5283
   87SOPE   C27 8162   0.566   6.189   2.736 -0.3417 -0.2134  0.4824
   87SOPE   H7R 8163   0.563   6.079   2.751  0.6727 -0.0288  2.2274
   87SOPE   H7S 8164   0.665   6.222   2.697 -1.3178 -0.2793 -2.3243
   87SOPE   C28 8165   0.526   6.250   2.875 -0.5358  0.0983  0.3476
   87SOPE   H8R 8166   0.437   6.197   2.915  1.0387 -2.5752  0.5340
   87SOPE   H8S 8167   0.599   6.218   2.953 -0.1023 -0.1565 -0.1540
   87SOPE   C29 8168   0.506   6.400   2.879 -0.2991 -0.1285 -0.0265
   87SOPE   H91 8169   0.555   6.455   2.798  1.3844  2.1986  2.4120
   87SOPE  C210 8170   0.428   6.466   2.968  0.1394 -0.7308 -0.5904
   87SOPE  H101 8171   0.428   6.575   2.959  0.9372 -0.7438 -0.8032
   87SOPE  C211 8172   0.339   6.411   3.082 -0.2863  0.5890  0.0780
   87SOPE  H11R 8173   0.350   6.466   3.178 -2.2052  1.5485 -0.2012
   87SOPE  H11S 8174   0.355   6.304   3.106 -3.6397 -0.0016  0.1790
   87SOPE  C212 8175   0.187   6.431   3.045 -0.0389  0.4740 -0.4257
   87SOPE  H12R 8176   0.164   6.540   3.050 -0.0588  0.4379  0.5275
   87SOPE  H12S 8177   0.135   6.393   3.135  1.2018  1.1746  0.6197
   87SOPE  C213 8178   0.146   6.371   2.914 -0.1759  0.3677 -0.0633
   87SOPE  H13R 8179   0.134   6.261   2.924 -0.4520  0.1312 -2.5478
   87SOPE  H13S 8180   0.214   6.391   2.829 -0.8750  0.1930 -0.6803
   87SOPE  C214 8181   0.010   6.422   2.866  0.2206  0.3768 -0.7285
   87SOPE  H14R 8182   0.012   6.532   2.875  0.8163  0.2307  1.5921
   87SOPE  H14S 8183  -0.070   6.399   2.939  0.7666  0.2603 -0.1534
   87SOPE  C215 8184  -0.042   6.376   2.729 -0.5932 -0.2675 -0.3347
   87SOPE  H15R 8185   0.001   6.443   2.651 -0.9901  0.7585  0.3077
   87SOPE  H15S 8186  -0.151   6.391   2.717 -0.1221  2.7935 -1.7942
   87SOPE  C216 8187  -0.003   6.232   2.693  0.3179 -0.2190 -0.6002
   87SOPE  H16R 8188  -0.049   6.173   2.775 -0.8254 -0.6069 -1.4924
   87SOPE  H16S 8189   0.106   6.209   2.697  0.0100 -1.8015 -0.9505
   87SOPE  C217 8190  -0.054   6.197   2.550 -0.0660  0.0949  0.1264
   87SOPE  H17R 8191  -0.162   6.220   2.538 -0.0525  0.7132  1.1008
   87SOPE  H17S 8192  -0.020   6.095   2.525  1.4371  0.5671  0.1732
   87SOPE  C218 8193   0.026   6.286   2.452  0.9639 -0.1207 -0.2707
   87SOPE  H18R 8194   0.131   6.297   2.488  0.2856  0.0708  1.7880
   87SOPE  H18S 8195  -0.025   6.384   2.438  0.0528 -0.4744  0.5226
   87SOPE  H18T 8196   0.020   6.229   2.357 -0.9427  0.2414 -0.4148
   87SOPE   C33 8197  -0.024   6.741   2.392 -0.3354 -0.5546 -0.0936
   87SOPE   H3X 8198  -0.043   6.849   2.371  0.3285  0.5336  4.0029
   87SOPE   H3Y 8199   0.061   6.751   2.462 -2.2977  1.7687  2.1888
   87SOPE   C34 8200  -0.146   6.691   2.465  0.3660 -0.4111 -0.3647
   87SOPE   H4X 8201  -0.154   6.582   2.483  0.2543 -0.2085  0.9241
   87SOPE   H4Y 8202  -0.239   6.728   2.417  0.6846  3.6770  1.7563
   87SOPE   C35 8203  -0.157   6.769   2.606 -0.2907 -0.6458 -0.1543
   87SOPE   H5X 8204  -0.191   6.874   2.588  0.5836 -0.2048  0.6577
   87SOPE   H5Y 8205  -0.051   6.770   2.641 -1.0574 -1.7232  2.3818
   87SOPE   C36 8206  -0.245   6.701   2.710  0.8123  0.0649  0.5863
   87SOPE   H6X 8207  -0.208   6.597   2.725 -0.5343 -0.4699  0.3590
   87SOPE   H6Y 8208  -0.351   6.690   2.678  0.3579  3.7939  0.4247
   87SOPE   C37 8209  -0.236   6.761   2.854  0.5936 -0.0824 -0.0218
   87SOPE   H7X 8210  -0.284   6.861   2.846  0.7599  0.1538  1.6220
   87SOPE   H7Y 8211  -0.130   6.784   2.878  0.6656  0.2234 -0.5949
   87SOPE   C38 8212  -0.286   6.671   2.968 -0.1644 -0.7823 -0.6886
   87SOPE   H8X 8213  -0.213   6.588   2.980  3.6022  2.2298 -0.9281
   87SOPE   H8Y 8214  -0.389   6.639   2.943 -1.5017  1.7458  1.1428
   87SOPE   C39 8215  -0.297   6.742   3.100 -0.4140 -0.9315  0.4229
   87SOPE   H9X 8216  -0.378   6.817   3.083  1.9612  1.7235  0.1215
   87SOPE   H9Y 8217  -0.208   6.805   3.120 -0.4072  0.0335 -2.2348
   87SOPE  C310 8218  -0.303   6.638   3.222 -0.2888 -0.6575  0.8631
   87SOPE  H10X 8219  -0.205   6.587   3.210 -0.1282 -0.1777  0.0041
   87SOPE  H10Y 8220  -0.389   6.572   3.196 -0.8109  0.6129 -0.8909
   87SOPE  C311 8221  -0.306   6.690   3.365  0.2455  0.4449  0.5928
   87SOPE  H11X 8222  -0.397   6.754   3.373 -0.2320  0.0513 -1.0970
   87SOPE  H11Y 8223  -0.213   6.750   3.377  1.3860 -0.9489 -0.9362
   87SOPE  C312 8224  -0.305   6.572   3.462 -0.1324 -0.6089  0.6042
   87SOPE  H12X 8225  -0.219   6.506   3.437  0.2678 -0.2672  1.0671
   87SOPE  H12Y 8226  -0.399   6.514   3.457  0.1745 -1.2223  1.6520
   87SOPE  C313 8227  -0.284   6.626   3.607 -0.1852 -0.4228 -1.0566
   87SOPE  H13X 8228  -0.376   6.677   3.641 -0.7014  0.7887 -3.9827
   87SOPE  H13Y 8229  -0.211   6.711   3.606  0.4953 -0.9616 -3.8708
   87SOPE  C314 8230  -0.267   6.523   3.713  0.6018  0.5071 -0.1624
   87SOPE  H14X 8231  -0.185   6.451   3.694  2.7230  3.2741 -2.3052
   87SOPE  H14Y 8232  -0.360   6.468   3.734  0.8680  0.5127  1.1645
   87SOPE  C315 8233  -0.227   6.583   3.847  0.5236 -1.2174  0.6737
   87SOPE  H15X 8234  -0.287   6.674   3.866  1.3894  0.3408 -3.1929
   87SOPE  H15Y 8235  -0.121   6.614   3.840 -0.1335  0.9366 -0.6263
   87SOPE  C316 8236  -0.244   6.501   3.972 -0.3671 -0.3135 -0.7916
   87SOPE  H16X 8237  -0.196   6.401   3.974  1.0006  0.3344  0.0538
   87SOPE  H16Y 8238  -0.350   6.488   4.003 -1.0607  0.4413 -2.6953
   87SOPE  C317 8239  -0.189   6.589   4.093  0.0151  0.2471  0.4295
   87SOPE  H17X 8240  -0.218   6.545   4.191  2.6049 -2.4886  0.1019
   87SOPE  H17Y 8241  -0.240   6.687   4.102  0.1809  0.3629  0.1141
   87SOPE  C318 8242  -0.042   6.610   4.093 -0.4038 -1.0742  0.1488
   87SOPE  H18X 8243  -0.008   6.662   4.185  0.4162  1.2160 -1.3648
   87SOPE  H18Y 8244  -0.027   6.684   4.011 -1.2694 -0.8127  0.2127
   87SOPE  H18Z 8245   0.014   6.515   4.081  1.0086 -0.2289 -0.1206
   88SOPE     N 8246   1.378   0.887   2.146 -0.4185 -0.4913 -0.0409
   88SOPE   HN1 8247   1.448   0.810   2.149  1.3322  0.9715 -1.0253
   88SOPE   HN2 8248   1.423   0.972   2.105 -0.9211 -0.1742  0.0516
   88SOPE   HN3 8249   1.355   0.918   2.243 -0.6019  0.3221 -0.3350
   88SOPE   C12 8250   1.258   0.848   2.072 -0.3758 -0.4253 -0.1035
   88SOPE  H12A 8251   1.180   0.815   2.144  1.0404 -2.0253  0.7604
   88SOPE  H12B 8252   1.281   0.758   2.011  1.4137  0.6929 -1.1742
   88SOPE   C11 8253   1.202   0.950   1.973  0.0248 -0.3068  0.7661
   88SOPE  H11A 8254   1.101   0.913   1.946 -0.2683 -0.8588  2.5048
   88SOPE  H11B 8255   1.267   0.948   1.882  0.0239 -2.0482  0.7690
   88SOPE     P 8256   1.163   1.208   1.986 -0.0974  0.0688  0.1821
   88SOPE   O13 8257   1.075   1.183   1.867 -0.1444 -0.2962  0.3593
   88SOPE   O14 8258   1.272   1.307   1.975  0.1651  0.4303  0.0412
   88SOPE   O12 8259   1.209   1.072   2.041 -0.1980 -0.0762  0.0885
   88SOPE   O11 8260   1.056   1.253   2.089  0.5344 -0.1448 -0.4664
   88SOPE    C1 8261   1.071   1.239   2.223 -0.0379  0.4631 -0.3174
   88SOPE    HA 8262   1.170   1.285   2.245 -0.0522  0.4286 -0.1781
   88SOPE    HB 8263   1.081   1.133   2.255 -0.6041  0.6354  0.4578
   88SOPE    C2 8264   0.954   1.307   2.306  0.4001 -0.0989 -0.1338
   88SOPE    HS 8265   1.006   1.333   2.400  0.7309  1.3334 -0.6939
   88SOPE   O21 8266   0.850   1.212   2.326  0.3654  0.2187  0.0265
   88SOPE   C21 8267   0.875   1.119   2.414  0.4423  0.0842 -0.1396
   88SOPE   O22 8268   0.976   1.109   2.483 -0.1498 -0.3525 -0.6452
   88SOPE   C22 8269   0.754   1.025   2.427  0.8471 -0.4729  0.4915
   88SOPE   H2R 8270   0.745   0.953   2.344 -2.8649  0.3773 -0.0392
   88SOPE   H2S 8271   0.670   1.095   2.410  0.4996 -0.4567  2.0989
   88SOPE    C3 8272   0.905   1.438   2.231  0.1818  0.4849  0.3056
   88SOPE    HX 8273   0.852   1.412   2.137  0.8466 -2.8742  0.7204
   88SOPE    HY 8274   0.999   1.486   2.195 -0.1394 -0.2927 -1.7118
   88SOPE   O31 8275   0.826   1.518   2.323  0.1056 -0.0966 -0.2060
   88SOPE   C31 8276   0.703   1.497   2.323  0.5089 -0.2460  0.7241
   88SOPE   O32 8277   0.643   1.423   2.247 -0.3586  0.0005  0.7470
   88SOPE   C32 8278   0.642   1.582   2.441 -0.1087  0.5326 -0.6489
   88SOPE   H2X 8279   0.587   1.665   2.391 -0.3365 -0.1974 -1.6444
   88SOPE   H2Y 8280   0.716   1.638   2.501 -0.5496  0.4029  0.0247
   88SOPE   C23 8281   0.733   0.958   2.564  0.3809  0.0437  0.0765
   88SOPE   H3R 8282   0.801   0.872   2.583 -0.9611 -1.3943 -1.3011
   88SOPE   H3S 8283   0.631   0.915   2.567 -0.6850  2.4624  1.6833
   88SOPE   C24 8284   0.738   1.055   2.686 -0.1139 -0.5266  0.4940
   88SOPE   H4R 8285   0.835   1.100   2.717 -0.6817 -1.1544  3.4468
   88SOPE   H4S 8286   0.670   1.140   2.661  0.7905  0.0457 -0.0910
   88SOPE   C25 8287   0.696   0.982   2.812 -0.4050  1.0584 -0.0856
   88SOPE   H5R 8288   0.588   0.959   2.804 -0.5245  2.0694 -1.9369
   88SOPE   H5S 8289   0.752   0.889   2.834 -0.4568  1.2132  0.7162
   88SOPE   C26 8290   0.749   1.080   2.929  0.1627  0.1826  0.3674
   88SOPE   H6R 8291   0.859   1.092   2.919  0.0315  1.1816 -0.0929
   88SOPE   H6S 8292   0.698   1.179   2.918 -0.3177 -0.1149 -0.1765
   88SOPE   C27 8293   0.722   1.027   3.074  0.5349 -0.5215  0.8436
   88SOPE   H7R 8294   0.623   0.978   3.064  0.6241 -0.4520 -0.5035
   88SOPE   H7S 8295   0.784   0.939   3.101  1.5295  0.2251  1.0833
   88SOPE   C28 8296   0.734   1.134   3.172 -0.0020 -0.0238 -0.5995
   88SOPE   H8R 8297   0.806   1.214   3.143 -0.5461  0.2170 -1.3072
   88SOPE   H8S 8298   0.638   1.186   3.189  0.7370  0.6522  2.0195
   88SOPE   C29 8299   0.787   1.072   3.300 -0.0904  0.0361 -0.3599
   88SOPE   H91 8300   0.897   1.074   3.305 -0.0668 -2.0268  1.3490
   88SOPE  C210 8301   0.714   1.038   3.403 -0.5181 -0.2658  0.4364
   88SOPE  H101 8302   0.763   1.003   3.496 -2.2424 -0.8398  1.1865
   88SOPE  C211 8303   0.566   1.023   3.415  0.6655  0.2682 -0.3213
   88SOPE  H11R 8304   0.512   1.106   3.365 -1.4209 -2.9380 -3.9549
   88SOPE  H11S 8305   0.537   1.013   3.522 -0.9222 -0.3756 -0.7916
   88SOPE  C212 8306   0.531   0.890   3.346  0.2191  0.8365  0.0724
   88SOPE  H12R 8307   0.585   0.799   3.382 -1.4771 -0.5806 -0.7702
   88SOPE  H12S 8308   0.544   0.891   3.236  0.9933 -3.1850 -0.0310
   88SOPE  C213 8309   0.381   0.859   3.374  0.2612 -0.2771 -0.0802
   88SOPE  H13R 8310   0.343   0.795   3.292 -2.0821  2.5682 -1.4016
   88SOPE  H13S 8311   0.318   0.950   3.388 -2.4330 -1.8821 -0.9144
   88SOPE  C214 8312   0.369   0.782   3.502 -0.4547  0.4615  0.1267
   88SOPE  H14R 8313   0.402   0.844   3.588 -0.1210  0.2327  0.1663
   88SOPE  H14S 8314   0.431   0.690   3.496 -3.0292 -1.3245 -1.2603
   88SOPE  C215 8315   0.233   0.725   3.517  0.0440  0.5095 -0.4467
   88SOPE  H15R 8316   0.213   0.658   3.431  2.0387  0.1392 -0.6890
   88SOPE  H15S 8317   0.161   0.809   3.527 -0.2272  0.6993 -3.1178
   88SOPE  C216 8318   0.232   0.643   3.647  0.1542  0.3498  0.2936
   88SOPE  H16R 8319   0.258   0.702   3.737  1.0627  0.2698  0.0922
   88SOPE  H16S 8320   0.312   0.567   3.651 -1.1031 -1.0399 -0.0180
   88SOPE  C217 8321   0.098   0.565   3.653 -0.1430 -0.2611 -0.9085
   88SOPE  H17R 8322   0.095   0.521   3.551 -0.7158 -0.9649 -0.5977
   88SOPE  H17S 8323   0.012   0.636   3.658 -0.1764 -0.2517 -1.5435
   88SOPE  C218 8324   0.094   0.456   3.761  0.1964  0.0773  0.1223
   88SOPE  H18R 8325   0.202   0.437   3.783 -0.0271 -2.6346 -0.7310
   88SOPE  H18S 8326   0.044   0.366   3.719 -0.9363 -0.2713  2.1321
   88SOPE  H18T 8327   0.049   0.480   3.860  0.2357  0.6162  0.0144
   88SOPE   C33 8328   0.538   1.500   2.524  0.4985  0.0234 -0.1974
   88SOPE   H3X 8329   0.469   1.458   2.447  1.2792  1.6934 -1.9091
   88SOPE   H3Y 8330   0.479   1.564   2.592 -1.8638 -2.7101  0.4741
   88SOPE   C34 8331   0.613   1.392   2.598 -0.2525  0.3090 -0.1844
   88SOPE   H4X 8332   0.666   1.321   2.530  0.6436 -1.9093  2.6550
   88SOPE   H4Y 8333   0.537   1.325   2.645 -0.5022 -0.4336 -1.5856
   88SOPE   C35 8334   0.704   1.435   2.710  0.3751  0.5837  0.0894
   88SOPE   H5X 8335   0.768   1.516   2.671 -1.8622  3.4613  2.0145
   88SOPE   H5Y 8336   0.770   1.347   2.724  1.5618  1.1536 -1.6029
   88SOPE   C36 8337   0.632   1.481   2.838  0.3437 -0.0933 -0.3652
   88SOPE   H6X 8338   0.548   1.411   2.858  0.9963 -2.2769 -4.1628
   88SOPE   H6Y 8339   0.581   1.577   2.812  0.7046  0.5077  1.0651
   88SOPE   C37 8340   0.727   1.488   2.959  0.5799  0.0855  0.1309
   88SOPE   H7X 8341   0.793   1.573   2.930  0.4600 -0.6469 -2.5599
   88SOPE   H7Y 8342   0.783   1.392   2.966  1.5228  0.2778 -3.2234
   88SOPE   C38 8343   0.653   1.502   3.088 -0.3594 -0.2904 -0.1571
   88SOPE   H8X 8344   0.582   1.424   3.123 -0.7038 -0.0647 -0.3412
   88SOPE   H8Y 8345   0.583   1.588   3.085  0.6342  0.6951  2.4067
   88SOPE   C39 8346   0.756   1.527   3.200 -0.2895  0.4419 -0.7145
   88SOPE   H9X 8347   0.816   1.619   3.182  1.0675 -0.3901 -0.5311
   88SOPE   H9Y 8348   0.827   1.443   3.214 -0.8019  0.0369 -0.4928
   88SOPE  C310 8349   0.688   1.538   3.335  0.3195 -0.1278 -0.3331
   88SOPE  H10X 8350   0.595   1.597   3.324  1.7996  2.1549 -1.6093
   88SOPE  H10Y 8351   0.751   1.598   3.405 -1.5518  2.9943 -1.1240
   88SOPE  C311 8352   0.665   1.407   3.411  0.1444 -0.8769 -0.1067
   88SOPE  H11X 8353   0.760   1.356   3.439  0.2918 -0.0582  0.9785
   88SOPE  H11Y 8354   0.605   1.341   3.346  0.1755  0.5321 -1.6449
   88SOPE  C312 8355   0.590   1.434   3.543  0.2698  0.3265  0.3676
   88SOPE  H12X 8356   0.488   1.473   3.521  0.4711  0.7211  0.1419
   88SOPE  H12Y 8357   0.653   1.508   3.597  0.4418  0.6666 -0.2980
   88SOPE  C313 8358   0.579   1.310   3.627 -0.1387  0.1025  0.4760
   88SOPE  H13X 8359   0.685   1.281   3.642  1.0583  3.7276  0.0626
   88SOPE  H13Y 8360   0.537   1.227   3.567  1.4434  0.1307 -0.7297
   88SOPE  C314 8361   0.502   1.327   3.758 -0.5358  0.6617  0.3421
   88SOPE  H14X 8362   0.522   1.240   3.823 -1.1598  0.9932  0.9826
   88SOPE  H14Y 8363   0.394   1.330   3.732 -0.2288 -2.6569 -1.9037
   88SOPE  C315 8364   0.532   1.454   3.840  0.6184  0.6295 -0.4290
   88SOPE  H15X 8365   0.489   1.541   3.784  2.9179  1.4485 -1.0196
   88SOPE  H15Y 8366   0.641   1.475   3.849  0.3741  1.5968  0.4876
   88SOPE  C316 8367   0.456   1.448   3.978 -0.2397 -0.5133  0.3179
   88SOPE  H16X 8368   0.472   1.346   4.018 -0.5064 -0.3265  0.9094
   88SOPE  H16Y 8369   0.346   1.452   3.971 -0.2577 -1.5826 -0.1299
   88SOPE  C317 8370   0.512   1.565   4.064  0.6393 -0.0555 -0.6112
   88SOPE  H17X 8371   0.493   1.665   4.018  0.0077 -0.4696 -1.2676
   88SOPE  H17Y 8372   0.622   1.552   4.072  0.6636  0.1074 -0.6583
   88SOPE  C318 8373   0.459   1.548   4.206  0.5397 -0.2098 -0.0021
   88SOPE  H18X 8374   0.352   1.574   4.210  0.2644 -1.1199 -1.0629
   88SOPE  H18Y 8375   0.510   1.616   4.277 -0.9798  0.4336  0.5066
   88SOPE  H18Z 8376   0.482   1.448   4.251 -2.4118 -0.6925  0.5881
   89SAPC     N 8377   5.332   3.267   6.584 -0.0591  0.2911  0.4355
   89SAPC   C12 8378   5.321   3.185   6.457  0.1642 -0.2108 -0.3967
   89SAPC  H12A 8379   5.290   3.246   6.373  0.3836 -1.0725 -1.1143
   89SAPC  H12B 8380   5.242   3.113   6.470 -1.1779  1.3125  0.3229
   89SAPC   C13 8381   5.341   3.175   6.698  0.5840  1.2255 -1.0178
   89SAPC  H13A 8382   5.406   3.090   6.679 -1.8266 -0.9951  0.1555
   89SAPC  H13B 8383   5.387   3.212   6.788  1.0691 -1.5460 -0.0316
   89SAPC  H13C 8384   5.253   3.126   6.736  1.0123 -0.0169 -1.5368
   89SAPC   C14 8385   5.451   3.362   6.572 -0.0055 -0.0589 -0.3270
   89SAPC  H14A 8386   5.454   3.412   6.668 -2.5243 -1.3565  0.4935
   89SAPC  H14B 8387   5.542   3.311   6.543 -0.3770 -1.8078  1.4118
   89SAPC  H14C 8388   5.431   3.434   6.493  1.6754  1.3863  0.4751
   89SAPC   C15 8389   5.201   3.354   6.598  0.5381  0.3762  0.0656
   89SAPC  H15A 8390   5.105   3.305   6.601  0.5447  0.4035  1.5294
   89SAPC  H15B 8391   5.204   3.391   6.700 -0.7860  0.9114 -0.0812
   89SAPC  H15C 8392   5.191   3.426   6.519  1.0957 -1.5541 -1.8693
   89SAPC   C11 8393   5.447   3.116   6.408 -0.5625 -0.5525  0.2202
   89SAPC  H11A 8394   5.523   3.191   6.377  1.5602 -1.6589  2.4202
   89SAPC  H11B 8395   5.417   3.059   6.318  1.4499  0.3372 -1.0798
   89SAPC     P 8396   5.606   2.919   6.468  0.5745 -0.4313 -0.0223
   89SAPC   O13 8397   5.696   2.892   6.583  0.1571 -0.2076 -0.0184
   89SAPC   O14 8398   5.532   2.791   6.440 -0.2974  0.3888  0.4079
   89SAPC   O12 8399   5.505   3.034   6.503 -0.1525 -0.4159  0.1120
   89SAPC   O11 8400   5.686   2.974   6.337 -0.0885 -0.1413 -0.2570
   89SAPC    C1 8401   5.755   2.880   6.251 -0.7337  0.5639 -0.0647
   89SAPC    HA 8402   5.857   2.861   6.292 -0.1989  1.7700 -0.8012
   89SAPC    HB 8403   5.699   2.784   6.245  1.3021 -0.6158 -1.5835
   89SAPC    C2 8404   5.773   2.940   6.110  0.5396 -0.3821 -0.2067
   89SAPC    HS 8405   5.830   3.035   6.108  0.3267 -0.0470  3.2176
   89SAPC   O21 8406   5.639   2.946   6.061  0.1639 -0.3939 -0.0836
   89SAPC   C21 8407   5.587   3.072   6.077  0.4228  0.5982  0.0733
   89SAPC   O22 8408   5.656   3.164   6.102  0.0887 -0.2724 -0.0191
   89SAPC   C22 8409   5.434   3.074   6.047 -0.7799  0.4940 -0.1767
   89SAPC   H2R 8410   5.375   2.980   6.057  0.4816 -0.3022 -0.0181
   89SAPC   H2S 8411   5.396   3.141   6.127 -2.3808  0.3568 -0.7950
   89SAPC    C3 8412   5.848   2.838   6.014  0.2475 -0.1031  0.7546
   89SAPC    HX 8413   5.840   2.861   5.906  0.2857  0.0292  0.7789
   89SAPC    HY 8414   5.798   2.741   6.031 -0.6313  0.3191  0.6326
   89SAPC   O31 8415   5.985   2.823   6.056 -0.3848  0.4094 -0.1623
   89SAPC   C31 8416   6.078   2.907   6.006 -0.1308  0.4498  0.5019
   89SAPC   O32 8417   6.051   3.008   5.943 -0.1198 -0.1006  0.3274
   89SAPC   C32 8418   6.216   2.854   6.047  0.7318 -0.2876  0.3559
   89SAPC   H2X 8419   6.214   2.746   6.073 -0.7474 -0.6864 -1.2478
   89SAPC   H2Y 8420   6.233   2.901   6.146  0.5126  0.8912 -0.1375
   89SAPC   C23 8421   5.410   3.141   5.909 -0.2957  0.0568  0.3222
   89SAPC   H3R 8422   5.461   3.240   5.914 -1.8352  0.8766  0.1271
   89SAPC   H3S 8423   5.301   3.154   5.895 -0.0471 -0.1793 -2.5408
   89SAPC   C24 8424   5.460   3.057   5.787  0.2619 -0.6638  0.7725
   89SAPC   H4R 8425   5.417   2.955   5.778  1.7363 -1.3106  0.8521
   89SAPC   H4S 8426   5.570   3.046   5.797  0.3186 -0.0456  0.8513
   89SAPC   C25 8427   5.422   3.120   5.653 -0.4271 -0.4654 -0.1780
   89SAPC   H5R 8428   5.452   3.226   5.656 -0.9360 -0.2852 -0.9731
   89SAPC   C26 8429   5.351   3.076   5.549  0.0803  0.5900 -0.5399
   89SAPC   H6R 8430   5.349   3.132   5.455  1.4999 -1.0844 -1.6108
   89SAPC   C27 8431   5.296   2.934   5.533 -0.2118 -0.1921 -0.1953
   89SAPC   H7R 8432   5.193   2.941   5.492  0.3610  0.3676 -1.5823
   89SAPC   H7S 8433   5.298   2.882   5.632 -1.2327  0.4887  0.1993
   89SAPC   C28 8434   5.393   2.858   5.445 -0.1013 -0.0768  0.1838
   89SAPC   H8R 8435   5.459   2.782   5.488 -0.7024 -0.2306  0.8569
   89SAPC   C29 8436   5.384   2.853   5.310  0.5351  0.3801 -0.5405
   89SAPC   H9R 8437   5.452   2.788   5.252 -0.3626  0.0992 -1.3116
   89SAPC  C210 8438   5.291   2.943   5.234  0.0563  0.3143 -0.2538
   89SAPC  H10R 8439   5.345   3.032   5.194  1.1583  0.5206  1.5983
   89SAPC  H10S 8440   5.202   2.978   5.289 -0.9917 -1.4829 -0.7189
   89SAPC  C211 8441   5.224   2.876   5.116  0.0338 -1.0279 -0.0683
   89SAPC  H11R 8442   5.198   2.770   5.131 -3.0162 -0.0582  2.4298
   89SAPC  C212 8443   5.193   2.934   4.997  0.4360  0.7022 -0.1337
   89SAPC  H12R 8444   5.137   2.877   4.921  0.2200  0.9010 -0.1246
   89SAPC  C213 8445   5.214   3.076   4.960  0.0499  0.5021 -0.6350
   89SAPC  H13R 8446   5.300   3.074   4.891  1.0692 -3.2954  0.5394
   89SAPC  H13S 8447   5.252   3.147   5.037  1.0481  1.7913 -2.2531
   89SAPC  C214 8448   5.093   3.135   4.899 -0.5793  0.2460 -0.4036
   89SAPC  H14R 8449   4.998   3.091   4.933 -0.7186  0.7809 -0.0805
   89SAPC  C215 8450   5.096   3.242   4.818 -0.4289 -0.0745  0.7889
   89SAPC  H15R 8451   5.002   3.274   4.772 -0.0015 -1.0977 -0.8830
   89SAPC  C216 8452   5.217   3.305   4.749 -0.6783 -0.2478 -0.5447
   89SAPC  H16R 8453   5.313   3.253   4.766 -0.7288 -0.4961 -1.0126
   89SAPC  H16S 8454   5.230   3.412   4.777  0.5954  0.0467 -2.1214
   89SAPC  C217 8455   5.200   3.297   4.599 -0.2631  0.3866  0.6233
   89SAPC  H17R 8456   5.104   3.348   4.575  0.0597  0.9871  0.6107
   89SAPC  H17S 8457   5.210   3.190   4.571  1.5173  0.8158 -0.5633
   89SAPC  C218 8458   5.302   3.373   4.513  0.3842 -0.2725  0.0728
   89SAPC  H18R 8459   5.294   3.481   4.539 -0.9508 -0.4848  0.6035
   89SAPC  H18S 8460   5.275   3.366   4.406  2.7782  1.0780 -0.6922
   89SAPC  C219 8461   5.455   3.331   4.523 -0.0477 -0.2615 -0.0962
   89SAPC  H19R 8462   5.491   3.353   4.625 -1.9441 -1.5739  0.9170
   89SAPC  H19S 8463   5.510   3.392   4.448  0.8792  1.3442  1.8001
   89SAPC  C220 8464   5.477   3.181   4.501  0.5000  0.7880 -0.1610
   89SAPC  H20R 8465   5.583   3.154   4.480  1.1354  2.6876  0.4451
   89SAPC  H20S 8466   5.410   3.152   4.418  2.6089  0.5348 -1.8810
   89SAPC  H20T 8467   5.447   3.141   4.600  0.9409  0.0869 -0.3024
   89SAPC   C33 8468   6.327   2.898   5.950 -0.8732 -0.1362 -0.3883
   89SAPC   H3X 8469   6.420   2.861   5.999 -0.6662  2.8906  1.8139
   89SAPC   H3Y 8470   6.342   3.008   5.947  0.0665 -0.2825 -1.9832
   89SAPC   C34 8471   6.322   2.852   5.808 -0.8321  0.2188  0.6063
   89SAPC   H4X 8472   6.232   2.792   5.785 -0.4961  0.1206 -0.5062
   89SAPC   H4Y 8473   6.407   2.781   5.795  0.1754  1.2760  1.2431
   89SAPC   C35 8474   6.366   2.961   5.709  1.0054 -0.3610 -0.0247
   89SAPC   H5X 8475   6.473   2.973   5.735  0.8331 -2.4431  2.0281
   89SAPC   H5Y 8476   6.315   3.055   5.739  2.4604 -0.3648  2.8769
   89SAPC   C36 8477   6.361   2.916   5.562 -0.4071  0.4468  0.0267
   89SAPC   H6X 8478   6.259   2.888   5.527 -1.4553  2.8822  0.9268
   89SAPC   H6Y 8479   6.426   2.826   5.549 -0.2370  0.2855  1.7429
   89SAPC   C37 8480   6.395   3.021   5.451 -0.3184  0.2649  0.1125
   89SAPC   H7X 8481   6.499   3.059   5.457 -0.2553  0.1760 -0.3756
   89SAPC   H7Y 8482   6.328   3.109   5.462  0.3750  0.7803  0.2218
   89SAPC   C38 8483   6.361   2.979   5.306  0.7810  0.1216 -0.1001
   89SAPC   H8X 8484   6.291   3.052   5.262  0.9350 -0.3894 -1.2344
   89SAPC   H8Y 8485   6.293   2.892   5.320 -0.5750  1.0754 -0.6437
   89SAPC   C39 8486   6.487   2.970   5.210 -0.1278  0.0112 -0.6459
   89SAPC   H9X 8487   6.455   2.898   5.132 -0.6364 -1.0782  0.5352
   89SAPC   H9Y 8488   6.567   2.930   5.276 -0.4758  1.8273  0.9874
   89SAPC  C310 8489   6.518   3.109   5.157 -0.8409  0.1974  0.3503
   89SAPC  H10X 8490   6.538   3.188   5.232  2.3275 -0.8254  0.7574
   89SAPC  H10Y 8491   6.440   3.145   5.086 -1.7046 -2.7035 -0.2875
   89SAPC  C311 8492   6.641   3.108   5.064 -0.6509 -0.7933 -0.2303
   89SAPC  H11X 8493   6.611   3.057   4.969  2.5443 -1.1454 -1.2002
   89SAPC  H11Y 8494   6.720   3.045   5.111 -1.2022 -0.7131  0.8189
   89SAPC  C312 8495   6.712   3.239   5.037 -0.7751 -0.6981 -0.5593
   89SAPC  H12X 8496   6.761   3.269   5.133 -0.3179 -0.1912 -0.9502
   89SAPC  H12Y 8497   6.646   3.321   5.002 -0.5050 -0.5110 -0.6342
   89SAPC  C313 8498   6.831   3.229   4.945 -0.1186 -0.1218 -0.2053
   89SAPC  H13X 8499   6.794   3.208   4.842 -1.6993 -2.1656  0.7211
   89SAPC  H13Y 8500   6.900   3.149   4.978 -3.2527 -2.4727  1.0464
   89SAPC  C314 8501   6.919   3.360   4.934  0.3533  0.4612  0.7119
   89SAPC  H14X 8502   6.964   3.383   5.033 -1.0227  2.3137  0.9763
   89SAPC  H14Y 8503   6.854   3.442   4.895 -0.3333 -0.0831  0.7082
   89SAPC  C315 8504   7.032   3.335   4.838 -0.2187  0.7184  0.2386
   89SAPC  H15X 8505   6.989   3.314   4.738 -0.6912 -2.6957  1.0303
   89SAPC  H15Y 8506   7.098   3.249   4.867 -0.7654 -0.6133 -2.1825
   89SAPC  C316 8507   7.118   3.462   4.812  0.8329  0.6563 -0.3665
   89SAPC  H16X 8508   7.187   3.470   4.899  1.2731  1.1945 -0.7572
   89SAPC  H16Y 8509   7.054   3.552   4.821  0.0316 -0.0135  0.8548
   89SAPC  C317 8510   7.202   3.462   4.687  0.0303  0.1041  0.3299
   89SAPC  H17X 8511   7.242   3.359   4.676 -2.2991 -0.9075  0.5920
   89SAPC  H17Y 8512   7.283   3.537   4.694  1.2656 -1.0782 -0.5872
   89SAPC  C318 8513   7.127   3.494   4.553 -0.5848 -0.1816  0.1296
   89SAPC  H18X 8514   7.033   3.435   4.540 -1.2753  0.2905  2.4809
   89SAPC  H18Y 8515   7.190   3.471   4.465 -0.3710 -1.4863  0.6005
   89SAPC  H18Z 8516   7.096   3.600   4.555  0.3465  0.1124 -0.8637
   90SAPC     N 8517   1.639   1.393   6.494  0.4127 -0.3034  0.2673
   90SAPC   C12 8518   1.715   1.284   6.423 -0.6548  0.3067  0.4163
   90SAPC  H12A 8519   1.765   1.223   6.496 -0.4567  0.3237  0.2961
   90SAPC  H12B 8520   1.793   1.332   6.366 -0.1561  1.8784  2.3106
   90SAPC   C13 8521   1.563   1.326   6.612  0.3890  0.5205 -0.4065
   90SAPC  H13A 8522   1.502   1.394   6.670  1.0814 -0.0986  1.0781
   90SAPC  H13B 8523   1.499   1.246   6.577  1.0326  0.9029 -2.6286
   90SAPC  H13C 8524   1.627   1.278   6.684  1.1625  1.9363 -0.1132
   90SAPC   C14 8525   1.754   1.482   6.559  0.3882  0.9702  0.8866
   90SAPC  H14A 8526   1.814   1.527   6.481 -0.3848 -2.7749 -2.1749
   90SAPC  H14B 8527   1.700   1.566   6.598  0.9795  0.8084  2.0874
   90SAPC  H14C 8528   1.819   1.431   6.628  0.1933 -2.5273 -1.2622
   90SAPC   C15 8529   1.554   1.477   6.403 -0.6119 -0.6720 -0.3592
   90SAPC  H15A 8530   1.503   1.405   6.342  0.9164 -2.5956  0.5291
   90SAPC  H15B 8531   1.489   1.549   6.451 -0.0171 -0.8480  0.7532
   90SAPC  H15C 8532   1.612   1.538   6.335  0.5468  0.0931  1.2461
   90SAPC   C11 8533   1.635   1.186   6.333 -0.5086 -0.2992  0.7163
   90SAPC  H11A 8534   1.715   1.151   6.264 -0.0383  1.7502  0.1499
   90SAPC  H11B 8535   1.570   1.237   6.258  0.1424 -2.1994 -1.2747
   90SAPC     P 8536   1.557   0.935   6.347  0.3998 -0.6583  0.1521
   90SAPC   O13 8537   1.687   0.875   6.365 -0.5498 -0.2920  0.2231
   90SAPC   O14 8538   1.447   0.864   6.418 -0.2898  0.0201 -0.2091
   90SAPC   O12 8539   1.567   1.082   6.399  0.4346 -0.6155 -0.4690
   90SAPC   O11 8540   1.515   0.949   6.190 -0.5930 -0.0383 -0.0898
   90SAPC    C1 8541   1.397   1.034   6.170  0.0332  0.2370  0.5053
   90SAPC    HA 8542   1.373   1.104   6.253 -1.3683  1.4854 -0.8632
   90SAPC    HB 8543   1.423   1.105   6.088 -2.0124 -0.0693 -0.4875
   90SAPC    C2 8544   1.272   0.949   6.123 -0.4384  0.5954 -0.1785
   90SAPC    HS 8545   1.245   0.868   6.193 -0.4713 -0.7190 -1.6552
   90SAPC   O21 8546   1.308   0.880   6.001  0.5435  0.1328  0.3505
   90SAPC   C21 8547   1.222   0.776   5.970  0.1290 -0.4926 -0.7487
   90SAPC   O22 8548   1.159   0.704   6.043  0.1629 -0.7013 -0.2017
   90SAPC   C22 8549   1.220   0.765   5.817  1.2535 -0.2335  0.3056
   90SAPC   H2R 8550   1.174   0.862   5.788 -1.1815 -1.7052 -1.1353
   90SAPC   H2S 8551   1.323   0.771   5.778  0.9114  1.9160 -0.4071
   90SAPC    C3 8552   1.150   1.042   6.100 -0.3040 -0.3133 -0.2643
   90SAPC    HX 8553   1.167   1.120   6.023 -0.9636  3.7368  3.3733
   90SAPC    HY 8554   1.139   1.090   6.199  1.5301 -3.3137  1.5817
   90SAPC   O31 8555   1.036   0.984   6.047  0.3791  0.2842 -0.0547
   90SAPC   C31 8556   0.951   0.927   6.139 -0.7926 -0.0546 -0.0712
   90SAPC   O32 8557   0.971   0.927   6.254 -0.4063  0.1958 -0.6202
   90SAPC   C32 8558   0.830   0.880   6.075  0.2840 -0.3316 -0.7504
   90SAPC   H2X 8559   0.794   0.802   6.145 -0.0755  0.9657  0.5627
   90SAPC   H2Y 8560   0.857   0.835   5.977 -0.3775 -1.5265 -0.4061
   90SAPC   C23 8561   1.142   0.642   5.770 -0.6375 -0.7952  0.6181
   90SAPC   H3R 8562   1.041   0.643   5.815 -1.1731 -2.2312 -0.4529
   90SAPC   H3S 8563   1.184   0.542   5.793  0.4217  0.0626  2.6707
   90SAPC   C24 8564   1.112   0.655   5.627 -0.1549  1.1500  0.3290
   90SAPC   H4R 8565   1.036   0.576   5.607 -0.3355  1.2213  0.7197
   90SAPC   H4S 8566   1.210   0.625   5.585  1.5206  0.5213  4.2799
   90SAPC   C25 8567   1.052   0.780   5.569  0.3481  0.3132  0.1045
   90SAPC   H5R 8568   0.991   0.833   5.644  1.3769  2.4953 -0.4926
   90SAPC   C26 8569   1.083   0.841   5.452 -0.0617  0.6933 -0.1739
   90SAPC   H6R 8570   1.044   0.942   5.434 -1.2393  0.6885  2.0203
   90SAPC   C27 8571   1.177   0.776   5.351  0.4381  0.0366 -0.2404
   90SAPC   H7R 8572   1.243   0.696   5.390 -0.0516  0.1568  0.8685
   90SAPC   H7S 8573   1.236   0.854   5.298  1.7264 -2.1360 -2.1866
   90SAPC   C28 8574   1.095   0.716   5.239 -0.0085  0.9881 -0.2589
   90SAPC   H8R 8575   1.020   0.655   5.291 -0.1542  0.1277 -1.4440
   90SAPC   C29 8576   1.113   0.710   5.107 -0.2586 -0.5977 -0.7301
   90SAPC   H9R 8577   1.032   0.667   5.046 -0.8099 -0.0599 -0.3839
   90SAPC  C210 8578   1.230   0.765   5.029  0.4180 -0.2783 -0.8584
   90SAPC  H10R 8579   1.278   0.684   4.969  0.3679 -1.4356  0.5901
   90SAPC  H10S 8580   1.317   0.792   5.093  0.1312  1.5466 -1.1928
   90SAPC  C211 8581   1.194   0.887   4.955  0.0168  0.2189  0.1294
   90SAPC  H11R 8582   1.142   0.966   5.011  2.7335  3.8068 -1.9723
   90SAPC  C212 8583   1.221   0.918   4.824  0.4814  0.0576  0.3524
   90SAPC  H12R 8584   1.196   1.020   4.792 -1.7426 -0.8739 -1.1230
   90SAPC  C213 8585   1.287   0.831   4.724 -0.9940 -0.3807 -0.3016
   90SAPC  H13R 8586   1.312   0.730   4.763 -0.7675 -0.7868 -1.4512
   90SAPC  H13S 8587   1.384   0.879   4.698 -0.2453 -1.5663  0.2139
   90SAPC  C214 8588   1.203   0.812   4.603  0.8242  0.4177  0.1090
   90SAPC  H14R 8589   1.123   0.740   4.627  0.2125  1.4032  1.1389
   90SAPC  C215 8590   1.213   0.861   4.478 -0.2382  0.8525  0.3875
   90SAPC  H15R 8591   1.152   0.818   4.398 -0.1863  1.9274 -0.2512
   90SAPC  C216 8592   1.301   0.975   4.428 -0.2478 -0.1078  0.3102
   90SAPC  H16R 8593   1.381   0.948   4.356 -0.4001 -1.5298  0.6297
   90SAPC  H16S 8594   1.373   1.021   4.499  0.8885  0.7733 -1.3647
   90SAPC  C217 8595   1.211   1.086   4.378  0.0579 -0.0751 -0.0487
   90SAPC  H17R 8596   1.146   1.120   4.461 -0.6777 -0.3344 -0.5080
   90SAPC  H17S 8597   1.145   1.054   4.295 -1.2462  0.6198  0.6786
   90SAPC  C218 8598   1.300   1.202   4.321  0.6932  0.3132  0.6772
   90SAPC  H18R 8599   1.341   1.168   4.223  0.1556  3.8478 -0.9310
   90SAPC  H18S 8600   1.388   1.212   4.388  1.0593  0.4050  0.1947
   90SAPC  C219 8601   1.240   1.336   4.298  0.6893 -0.6671  0.1716
   90SAPC  H19R 8602   1.187   1.366   4.390  0.1671  0.3587 -0.4557
   90SAPC  H19S 8603   1.157   1.313   4.228 -0.2103  0.1303  0.9671
   90SAPC  C220 8604   1.338   1.448   4.244 -0.1954 -0.5416  0.2795
   90SAPC  H20R 8605   1.418   1.471   4.318  0.6147  1.6068 -1.1789
   90SAPC  H20S 8606   1.289   1.546   4.226  0.3438  0.1054  2.0707
   90SAPC  H20T 8607   1.385   1.405   4.153 -0.8824 -0.3799 -0.1605
   90SAPC   C33 8608   0.724   0.994   6.060  0.4522 -0.2468 -0.0052
   90SAPC   H3X 8609   0.756   1.053   6.149  1.5421 -1.5724  0.5235
   90SAPC   H3Y 8610   0.620   0.958   6.075  0.5416 -1.2628 -1.6648
   90SAPC   C34 8611   0.724   1.065   5.926 -0.3410 -0.8109 -0.0291
   90SAPC   H4X 8612   0.826   1.090   5.891 -1.9372  3.4671 -2.3443
   90SAPC   H4Y 8613   0.673   1.161   5.948  0.7499  0.1479 -1.4818
   90SAPC   C35 8614   0.660   0.998   5.807 -0.3996 -0.3153 -0.0200
   90SAPC   H5X 8615   0.553   0.990   5.834  0.1671 -0.1097  2.6091
   90SAPC   H5Y 8616   0.713   0.905   5.778  1.0887  1.0767 -2.1053
   90SAPC   C36 8617   0.668   1.094   5.678 -0.3889  0.0463 -0.5139
   90SAPC   H6X 8618   0.757   1.160   5.680 -1.2168  1.4441 -3.3998
   90SAPC   H6Y 8619   0.578   1.156   5.702 -0.6849  0.0866 -1.6635
   90SAPC   C37 8620   0.667   1.009   5.555  0.4500  0.1074  0.1245
   90SAPC   H7X 8621   0.586   0.935   5.569 -1.0390  1.4390 -1.0607
   90SAPC   H7Y 8622   0.769   0.964   5.553  0.7373  0.7588 -0.4330
   90SAPC   C38 8623   0.661   1.080   5.417  0.3451  0.3184  0.3052
   90SAPC   H8X 8624   0.717   1.176   5.417  0.9498  0.0451 -2.1502
   90SAPC   H8Y 8625   0.555   1.101   5.393  1.1151  1.2019 -2.9230
   90SAPC   C39 8626   0.720   0.997   5.300  0.4819  0.9457  0.4493
   90SAPC   H9X 8627   0.669   0.898   5.304 -2.7455  2.4743  0.2161
   90SAPC   H9Y 8628   0.829   0.979   5.311  0.1880 -2.3765 -0.6656
   90SAPC  C310 8629   0.701   1.065   5.162 -0.2977 -0.1966  0.3152
   90SAPC  H10X 8630   0.783   1.138   5.144  0.4938 -1.7002 -2.7976
   90SAPC  H10Y 8631   0.599   1.108   5.153 -1.5769 -2.7755  1.6083
   90SAPC  C311 8632   0.718   0.962   5.047 -0.6681 -0.6920  0.2395
   90SAPC  H11X 8633   0.684   0.861   5.076  0.2536 -0.6462  1.5640
   90SAPC  H11Y 8634   0.825   0.955   5.020 -0.1615 -0.1583  1.9889
   90SAPC  C312 8635   0.648   0.996   4.918 -0.2156 -0.3914  0.3351
   90SAPC  H12X 8636   0.683   1.098   4.891  1.9004 -0.8610  1.0804
   90SAPC  H12Y 8637   0.537   0.997   4.925 -0.3107 -0.3442 -0.8872
   90SAPC  C313 8638   0.675   0.912   4.796 -0.3315 -0.0677 -0.0769
   90SAPC  H13X 8639   0.601   0.932   4.716 -0.8880  1.3459  0.7511
   90SAPC  H13Y 8640   0.647   0.805   4.809 -1.7556  0.1852 -0.8628
   90SAPC  C314 8641   0.810   0.927   4.713 -0.0141 -0.3261  0.0830
   90SAPC  H14X 8642   0.888   0.879   4.775  1.3839 -2.2108 -2.8871
   90SAPC  H14Y 8643   0.839   1.033   4.697  1.3039 -0.7554 -0.4794
   90SAPC  C315 8644   0.803   0.859   4.576 -0.5521 -0.2577 -0.2021
   90SAPC  H15X 8645   0.888   0.889   4.511 -1.3012  0.3305 -0.9317
   90SAPC  H15Y 8646   0.719   0.906   4.521  0.6047  1.3601 -0.6523
   90SAPC  C316 8647   0.792   0.710   4.576  0.5909 -0.2037 -0.3425
   90SAPC  H16X 8648   0.693   0.673   4.612  1.2130 -1.6489 -0.0161
   90SAPC  H16Y 8649   0.860   0.669   4.654  0.3101  1.2385  0.6925
   90SAPC  C317 8650   0.821   0.643   4.443  0.1535  0.1258 -0.2532
   90SAPC  H17X 8651   0.927   0.666   4.418  0.7760 -1.0149  1.1943
   90SAPC  H17Y 8652   0.747   0.689   4.374 -1.6744  1.2251  2.2841
   90SAPC  C318 8653   0.791   0.491   4.445 -0.8338 -0.2623  0.1045
   90SAPC  H18X 8654   0.693   0.466   4.490 -0.6975 -1.6264 -0.3060
   90SAPC  H18Y 8655   0.871   0.448   4.509 -1.2164 -0.5785  0.3731
   90SAPC  H18Z 8656   0.801   0.446   4.344  0.9637 -2.2456  1.0836
   91SAPC     N 8657   6.263   1.100   6.452 -0.4053 -0.3304 -0.0790
   91SAPC   C12 8658   6.319   0.999   6.357 -0.0509 -0.3154  0.3088
   91SAPC  H12A 8659   6.236   0.955   6.305 -1.0235  0.0829  1.4772
   91SAPC  H12B 8660   6.357   0.921   6.422  0.5617 -0.3305 -0.0571
   91SAPC   C13 8661   6.357   1.167   6.546  0.2196  0.0705 -0.0135
   91SAPC  H13A 8662   6.429   1.104   6.595  0.5562  0.9576  0.6561
   91SAPC  H13B 8663   6.425   1.228   6.488  0.3281  0.4672  0.5272
   91SAPC  H13C 8664   6.306   1.234   6.614 -0.0525  1.9471 -1.9413
   91SAPC   C14 8665   6.195   1.210   6.378  0.2013  0.6703 -0.5617
   91SAPC  H14A 8666   6.115   1.171   6.318 -0.0362 -0.5882  0.5102
   91SAPC  H14B 8667   6.169   1.292   6.444  1.5575  0.2673  0.5294
   91SAPC  H14C 8668   6.272   1.254   6.317 -0.2422 -1.0284 -2.4512
   91SAPC   C15 8669   6.159   1.035   6.534 -0.1570  0.0150 -0.0221
   91SAPC  H15A 8670   6.207   0.967   6.604  0.9633 -1.5286 -2.1618
   91SAPC  H15B 8671   6.104   1.105   6.595 -0.7410 -0.9074  0.5362
   91SAPC  H15C 8672   6.089   0.966   6.489 -1.9848  0.3865  2.0786
   91SAPC   C11 8673   6.437   1.042   6.266 -0.3276 -0.4877  0.5707
   91SAPC  H11A 8674   6.411   1.125   6.197  2.2949  1.8236  2.1701
   91SAPC  H11B 8675   6.464   0.952   6.206 -0.5851 -0.2021  0.0208
   91SAPC     P 8676   6.681   1.143   6.292 -0.0807 -0.0644 -0.1579
   91SAPC   O13 8677   6.718   1.266   6.372  0.3195  0.3226  0.1613
   91SAPC   O14 8678   6.790   1.043   6.279  0.3862 -0.0762 -0.4394
   91SAPC   O12 8679   6.550   1.070   6.351 -0.5514 -0.0636  0.2705
   91SAPC   O11 8680   6.624   1.187   6.149 -0.2673  0.3560 -0.9502
   91SAPC    C1 8681   6.663   1.305   6.077  0.5926  0.0405 -0.2495
   91SAPC    HA 8682   6.755   1.353   6.116  1.6246 -1.4662 -0.7386
   91SAPC    HB 8683   6.673   1.261   5.975 -1.6588  2.2343 -1.5416
   91SAPC    C2 8684   6.544   1.398   6.051  0.0364  0.0228  0.3022
   91SAPC    HS 8685   6.526   1.470   6.133 -1.6844 -0.5317  0.4531
   91SAPC   O21 8686   6.418   1.326   6.027 -0.0274  0.6988  0.0890
   91SAPC   C21 8687   6.311   1.401   6.049  1.2736 -0.0381  1.0110
   91SAPC   O22 8688   6.308   1.519   6.080  0.0697  0.2313  0.3400
   91SAPC   C22 8689   6.199   1.316   5.990 -0.2799 -1.1177  0.0438
   91SAPC   H2R 8690   6.186   1.346   5.884 -0.6720 -2.1456 -0.2139
   91SAPC   H2S 8691   6.227   1.209   5.997 -0.4650 -1.0595  3.1724
   91SAPC    C3 8692   6.583   1.487   5.932  0.0772 -0.1061  0.0295
   91SAPC    HX 8693   6.682   1.529   5.957  0.2365  0.3333 -1.2309
   91SAPC    HY 8694   6.510   1.571   5.921  2.3341  1.7353 -2.0446
   91SAPC   O31 8695   6.588   1.410   5.816  0.4372  0.5862 -0.3603
   91SAPC   C31 8696   6.469   1.403   5.741  0.0492  0.2292 -0.0094
   91SAPC   O32 8697   6.377   1.473   5.764  0.1299 -0.1146 -0.0974
   91SAPC   C32 8698   6.477   1.288   5.639 -0.3310  0.2381  0.8164
   91SAPC   H2X 8699   6.381   1.281   5.584  0.3368  0.7854 -0.4551
   91SAPC   H2Y 8700   6.494   1.193   5.694 -2.8248 -1.7593 -1.5726
   91SAPC   C23 8701   6.061   1.333   6.060 -0.7039  0.1700  0.1408
   91SAPC   H3R 8702   6.047   1.427   6.119  0.9039  0.6810 -0.2329
   91SAPC   H3S 8703   6.044   1.244   6.124 -0.2444  0.5615  0.8256
   91SAPC   C24 8704   5.944   1.326   5.956  0.0254 -0.1684 -0.1589
   91SAPC   H4R 8705   5.847   1.311   6.008 -0.1359 -0.3321 -0.5067
   91SAPC   H4S 8706   5.972   1.236   5.897 -1.5208 -0.1316 -1.0158
   91SAPC   C25 8707   5.928   1.451   5.866 -0.1256 -0.2406 -0.3181
   91SAPC   H5R 8708   5.901   1.547   5.914 -1.0481 -1.2599  1.2901
   91SAPC   C26 8709   5.935   1.469   5.733 -0.7852 -0.1212 -0.4004
   91SAPC   H6R 8710   5.932   1.572   5.694  2.7119  0.2173 -0.1660
   91SAPC   C27 8711   5.969   1.374   5.622  0.2264  0.9765  0.6868
   91SAPC   H7R 8712   5.881   1.359   5.556 -0.6958 -3.4025  2.6228
   91SAPC   H7S 8713   5.957   1.270   5.659 -0.9991  0.4541 -1.0570
   91SAPC   C28 8714   6.103   1.392   5.549  0.3364  0.5179 -0.2039
   91SAPC   H8R 8715   6.186   1.387   5.622 -2.1835 -0.3003  2.8444
   91SAPC   C29 8716   6.131   1.406   5.416  0.2611  0.4680 -0.4755
   91SAPC   H9R 8717   6.231   1.409   5.371  0.8413 -0.4506  0.6942
   91SAPC  C210 8718   6.017   1.434   5.323  0.0891  0.2806 -0.1527
   91SAPC  H10R 8719   5.940   1.354   5.320  1.2865 -0.8684 -1.5234
   91SAPC  H10S 8720   6.054   1.416   5.220 -0.0731 -2.7479  0.2491
   91SAPC  C211 8721   5.957   1.572   5.344  0.7773  0.4377 -0.0976
   91SAPC  H11R 8722   5.950   1.607   5.448  1.0985 -0.0934  0.1012
   91SAPC  C212 8723   5.892   1.630   5.244  0.6790  0.1410  0.2460
   91SAPC  H12R 8724   5.857   1.732   5.265  0.2007  0.6580 -2.5917
   91SAPC  C213 8725   5.862   1.573   5.105  0.0673  0.3726  0.0878
   91SAPC  H13R 8726   5.760   1.601   5.072 -0.7685  0.7138  2.7289
   91SAPC  H13S 8727   5.846   1.466   5.129 -2.9214  0.9638  1.1454
   91SAPC  C214 8728   5.974   1.598   5.000  0.2543 -0.5159 -0.7180
   91SAPC  H14R 8729   6.068   1.641   5.035 -0.4185  0.3366  0.0810
   91SAPC  C215 8730   5.954   1.576   4.867  0.1712 -0.8901 -0.0067
   91SAPC  H15R 8731   6.035   1.592   4.794 -1.1173  0.1439 -1.2525
   91SAPC  C216 8732   5.828   1.527   4.804 -0.0162 -0.2120 -0.1941
   91SAPC  H16R 8733   5.782   1.451   4.872 -0.2908 -0.3567 -0.5397
   91SAPC  H16S 8734   5.853   1.476   4.709 -2.0458 -1.6513 -0.0263
   91SAPC  C217 8735   5.729   1.642   4.784  1.1941  0.7976 -0.1958
   91SAPC  H17R 8736   5.775   1.726   4.728  1.1964  1.9600  1.4597
   91SAPC  H17S 8737   5.710   1.689   4.883  2.4532 -0.4260  0.6651
   91SAPC  C218 8738   5.596   1.592   4.724 -0.7820 -0.6626 -0.4692
   91SAPC  H18R 8739   5.513   1.665   4.712 -1.3530 -1.5204 -2.0569
   91SAPC  H18S 8740   5.562   1.500   4.776  1.1701 -1.5019 -0.6110
   91SAPC  C219 8741   5.614   1.549   4.579 -0.0989  0.7930  0.9274
   91SAPC  H19R 8742   5.707   1.492   4.563 -0.5090  0.9600 -2.9253
   91SAPC  H19S 8743   5.615   1.637   4.511 -2.5715  0.1935  0.0033
   91SAPC  C220 8744   5.494   1.468   4.529  0.2783 -0.6881  0.3459
   91SAPC  H20R 8745   5.402   1.526   4.505 -0.5237 -2.6700 -1.6903
   91SAPC  H20S 8746   5.459   1.400   4.610 -1.1067  2.7454  2.8795
   91SAPC  H20T 8747   5.513   1.411   4.436  0.5518 -3.6362  2.0911
   91SAPC   C33 8748   6.585   1.306   5.526  0.8538  0.1586  0.0158
   91SAPC   H3X 8749   6.613   1.208   5.481 -1.3962 -0.2329 -0.6950
   91SAPC   H3Y 8750   6.674   1.350   5.574  2.0184 -0.6034 -1.3798
   91SAPC   C34 8751   6.531   1.405   5.419 -0.2183 -0.1743 -0.2328
   91SAPC   H4X 8752   6.513   1.496   5.480 -0.1376 -0.1899 -0.1866
   91SAPC   H4Y 8753   6.439   1.370   5.368 -1.1915 -0.5948  1.7337
   91SAPC   C35 8754   6.630   1.451   5.307  0.3449  0.0625 -0.2008
   91SAPC   H5X 8755   6.725   1.486   5.354  1.2661 -3.5789  1.0044
   91SAPC   H5Y 8756   6.591   1.534   5.245 -1.3215 -0.0153  0.6747
   91SAPC   C36 8757   6.681   1.349   5.205  0.4079  0.6788 -0.0686
   91SAPC   H6X 8758   6.745   1.280   5.265  0.6951  0.0922 -1.0201
   91SAPC   H6Y 8759   6.758   1.409   5.152  2.2740 -2.3417 -1.0749
   91SAPC   C37 8760   6.578   1.283   5.109 -1.5766  0.4424 -0.4288
   91SAPC   H7X 8761   6.512   1.363   5.070 -1.0277  0.8915 -0.4564
   91SAPC   H7Y 8762   6.516   1.218   5.173  1.8514 -2.0905  0.6428
   91SAPC   C38 8763   6.642   1.198   5.000 -0.5265 -0.5679  0.2784
   91SAPC   H8X 8764   6.558   1.149   4.947 -2.8567  2.7154  0.6420
   91SAPC   H8Y 8765   6.718   1.126   5.038  0.3332  0.2697  0.1864
   91SAPC   C39 8766   6.703   1.299   4.903  0.7961 -0.3346  0.4012
   91SAPC   H9X 8767   6.797   1.333   4.951  0.9017  0.1842 -0.1619
   91SAPC   H9Y 8768   6.634   1.383   4.883 -1.8549 -2.0390  1.7873
   91SAPC  C310 8769   6.746   1.232   4.770  0.0900 -0.2879 -0.0776
   91SAPC  H10X 8770   6.672   1.152   4.751 -1.3240  0.8820  0.2856
   91SAPC  H10Y 8771   6.847   1.188   4.782  0.2585  0.3096  0.8874
   91SAPC  C311 8772   6.754   1.327   4.648 -0.2455 -0.4912  0.3233
   91SAPC  H11X 8773   6.830   1.404   4.676  1.9580 -1.9595 -1.3060
   91SAPC  H11Y 8774   6.661   1.387   4.643 -0.0852 -0.2561  0.0579
   91SAPC  C312 8775   6.780   1.260   4.516 -0.3501  0.3440  0.2599
   91SAPC  H12X 8776   6.703   1.182   4.495  1.3210 -0.8999 -1.5722
   91SAPC  H12Y 8777   6.877   1.206   4.514  0.6100  2.0311 -0.5517
   91SAPC  C313 8778   6.771   1.364   4.400 -0.0178 -0.1853 -1.0395
   91SAPC  H13X 8779   6.859   1.430   4.409  0.3907 -0.8310 -0.1086
   91SAPC  H13Y 8780   6.674   1.417   4.392 -0.0831 -0.5340 -3.4313
   91SAPC  C314 8781   6.781   1.302   4.263  0.3567  0.2973 -0.7735
   91SAPC  H14X 8782   6.709   1.218   4.255 -0.1165  0.7071 -0.8693
   91SAPC  H14Y 8783   6.883   1.260   4.251 -0.1176 -1.6267  1.3388
   91SAPC  C315 8784   6.752   1.403   4.154 -0.3509 -0.5067  0.2398
   91SAPC  H15X 8785   6.842   1.469   4.161  1.2804 -2.4195 -1.3543
   91SAPC  H15Y 8786   6.663   1.467   4.168 -0.4109 -0.2078 -1.3593
   91SAPC  C316 8787   6.759   1.340   4.016 -0.2502  0.4586 -0.6290
   91SAPC  H16X 8788   6.686   1.256   4.016 -0.0444  0.1844 -3.6491
   91SAPC  H16Y 8789   6.862   1.299   4.014 -0.5918 -0.4200 -1.9896
   91SAPC  C317 8790   6.739   1.424   3.893 -0.1810  0.2458 -0.1590
   91SAPC  H17X 8791   6.631   1.450   3.897 -1.0453 -2.9291  0.1317
   91SAPC  H17Y 8792   6.754   1.364   3.800 -4.3678  0.6662 -1.3337
   91SAPC  C318 8793   6.825   1.550   3.897 -0.1321  0.2842 -0.3157
   91SAPC  H18X 8794   6.930   1.525   3.871  1.1981  2.6758  2.2064
   91SAPC  H18Y 8795   6.823   1.602   3.996  3.1855 -1.0929  0.5971
   91SAPC  H18Z 8796   6.780   1.621   3.824  1.4203  2.2292  0.5138
   92SAPC     N 8797   0.998   0.161   6.842 -0.3263 -0.0443 -0.2805
   92SAPC   C12 8798   0.960   0.127   6.698  0.6107  0.3464 -0.0088
   92SAPC  H12A 8799   1.023   0.195   6.644  0.0148  0.2237 -0.8757
   92SAPC  H12B 8800   0.858   0.159   6.681  0.2761  0.3763  1.7933
   92SAPC   C13 8801   1.143   0.128   6.857  0.0124  0.2038  0.2819
   92SAPC  H13A 8802   1.201   0.173   6.778  0.2318 -0.8025 -0.1335
   92SAPC  H13B 8803   1.172   0.161   6.956  0.1546  0.3936  0.1782
   92SAPC  H13C 8804   1.157   0.021   6.852  0.3467  0.2919 -0.7396
   92SAPC   C14 8805   0.968   0.312   6.867 -0.1616  0.5510 -0.1778
   92SAPC  H14A 8806   0.869   0.349   6.844 -0.1332  0.2770 -0.7521
   92SAPC  H14B 8807   0.976   0.336   6.972  0.1563  0.7113 -0.2356
   92SAPC  H14C 8808   1.040   0.377   6.818 -1.4044  0.1666 -2.6797
   92SAPC   C15 8809   0.922   0.072   6.938 -0.4240  0.3629  0.5961
   92SAPC  H15A 8810   0.820   0.064   6.904  0.5659 -2.7158 -2.0772
   92SAPC  H15B 8811   0.968  -0.025   6.934  0.4406  0.7610  0.5504
   92SAPC  H15C 8812   0.922   0.114   7.038  0.4658 -0.9952  1.1977
   92SAPC   C11 8813   0.975  -0.013   6.637  0.0415  0.5614  0.1673
   92SAPC  H11A 8814   1.071  -0.055   6.673 -0.3528  0.0551  0.6573
   92SAPC  H11B 8815   0.970  -0.006   6.526 -0.8645  0.9268  0.2169
   92SAPC     P 8816   0.725  -0.080   6.613 -0.1325  0.1285 -0.1076
   92SAPC   O13 8817   0.630  -0.168   6.686  0.2544  0.3480 -0.2523
   92SAPC   O14 8818   0.687   0.061   6.611  0.0482 -0.1165 -0.1343
   92SAPC   O12 8819   0.867  -0.098   6.681 -0.3104  0.4694 -0.1872
   92SAPC   O11 8820   0.746  -0.120   6.455 -0.2685 -0.3875 -0.2825
   92SAPC    C1 8821   0.831  -0.224   6.408 -0.0807  0.4430  0.1028
   92SAPC    HA 8822   0.933  -0.212   6.450 -0.4221  1.3973  0.7011
   92SAPC    HB 8823   0.807  -0.316   6.465  2.9646 -0.1959  0.5044
   92SAPC    C2 8824   0.846  -0.223   6.256 -0.2863  0.3019 -0.3230
   92SAPC    HS 8825   0.864  -0.116   6.230  3.9010 -0.1728 -0.0241
   92SAPC   O21 8826   0.733  -0.266   6.184 -0.2602 -0.5775 -0.1236
   92SAPC   C21 8827   0.690  -0.389   6.209  0.2779 -0.7650  0.3240
   92SAPC   O22 8828   0.739  -0.469   6.285 -0.1854 -0.0833  0.1374
   92SAPC   C22 8829   0.573  -0.415   6.126 -0.1892  0.1301 -0.2973
   92SAPC   H2R 8830   0.485  -0.425   6.193 -0.1119  0.3718 -0.1583
   92SAPC   H2S 8831   0.552  -0.332   6.055  0.3811 -0.3162 -0.9958
   92SAPC    C3 8832   0.977  -0.290   6.214  0.5318 -0.2457 -0.2255
   92SAPC    HX 8833   0.990  -0.381   6.277  1.3933  1.4478  2.2204
   92SAPC    HY 8834   1.060  -0.224   6.247  0.7731 -0.9021  0.5084
   92SAPC   O31 8835   0.993  -0.335   6.078 -0.4589 -0.3583  0.4111
   92SAPC   C31 8836   1.003  -0.236   5.982 -0.5333  0.2463 -0.5197
   92SAPC   O32 8837   0.989  -0.117   6.004 -0.7455 -0.2147 -0.2282
   92SAPC   C32 8838   1.013  -0.306   5.842  0.2357  0.0461 -0.2178
   92SAPC   H2X 8839   0.924  -0.371   5.828  0.2124  0.0790 -0.2238
   92SAPC   H2Y 8840   1.108  -0.364   5.846  1.1526  1.5424  0.4941
   92SAPC   C23 8841   0.592  -0.545   6.038 -0.1716 -0.5015 -0.1654
   92SAPC   H3R 8842   0.490  -0.585   6.015 -0.7833  0.7439  0.2917
   92SAPC   H3S 8843   0.639  -0.624   6.100 -2.4181 -1.2522  0.6968
   92SAPC   C24 8844   0.662  -0.517   5.904  0.2120  0.2703 -0.0107
   92SAPC   H4R 8845   0.769  -0.502   5.929  0.2192 -0.1335  0.2069
   92SAPC   H4S 8846   0.622  -0.424   5.856 -0.8339 -0.4982 -0.6722
   92SAPC   C25 8847   0.639  -0.635   5.808  0.1435 -0.0917 -0.9840
   92SAPC   H5R 8848   0.674  -0.730   5.851  1.4335  1.0807  0.6951
   92SAPC   C26 8849   0.594  -0.625   5.683  0.1971  0.8133 -0.7727
   92SAPC   H6R 8850   0.592  -0.718   5.624  0.2479  0.0564  0.3953
   92SAPC   C27 8851   0.555  -0.506   5.605  0.6921 -0.3485 -0.3862
   92SAPC   H7R 8852   0.518  -0.427   5.675  0.1074 -0.2030 -0.8534
   92SAPC   H7S 8853   0.462  -0.531   5.550 -0.6691  2.0706  0.6668
   92SAPC   C28 8854   0.678  -0.462   5.527 -0.7739 -0.0826  0.4067
   92SAPC   H8R 8855   0.746  -0.402   5.589 -2.0896  2.7510 -0.7375
   92SAPC   C29 8856   0.709  -0.469   5.394 -0.6435 -0.0272 -0.8942
   92SAPC   H9R 8857   0.797  -0.412   5.359 -0.6309  1.7260  1.6459
   92SAPC  C210 8858   0.612  -0.528   5.293  1.1762 -0.1226  0.1194
   92SAPC  H10R 8859   0.583  -0.445   5.225 -2.2084 -1.4945 -0.2752
   92SAPC  H10S 8860   0.523  -0.560   5.351  1.1370  0.6533  0.5035
   92SAPC  C211 8861   0.672  -0.643   5.220  0.4474 -0.4179 -0.4309
   92SAPC  H11R 8862   0.725  -0.716   5.283 -1.3097 -2.1238 -0.8356
   92SAPC  C212 8863   0.676  -0.655   5.086  0.2128 -0.2581  0.1733
   92SAPC  H12R 8864   0.721  -0.743   5.039 -0.1797 -0.1322 -0.4545
   92SAPC  C213 8865   0.617  -0.557   4.985  1.2675  0.4073 -1.0400
   92SAPC  H13R 8866   0.532  -0.501   5.031 -0.3854 -0.9300 -2.3086
   92SAPC  H13S 8867   0.576  -0.621   4.904 -0.9354  0.4507 -0.0396
   92SAPC  C214 8868   0.727  -0.474   4.930 -0.0369 -0.6302 -0.5420
   92SAPC  H14R 8869   0.775  -0.407   5.003 -0.2672  0.0376 -0.9872
   92SAPC  C215 8870   0.760  -0.465   4.797  0.6451  0.2101  0.0529
   92SAPC  H15R 8871   0.838  -0.393   4.767 -0.3032  1.7025  1.0035
   92SAPC  C216 8872   0.694  -0.531   4.682  0.6675 -0.5517  0.7163
   92SAPC  H16R 8873   0.591  -0.566   4.708 -0.1325  1.6948  0.7931
   92SAPC  H16S 8874   0.767  -0.612   4.660 -1.5837 -2.2143 -1.2612
   92SAPC  C217 8875   0.694  -0.443   4.560  0.6376 -0.0982 -0.5196
   92SAPC  H17R 8876   0.797  -0.432   4.521  1.0291 -0.4236  0.4086
   92SAPC  H17S 8877   0.629  -0.353   4.567 -2.8887 -2.4242 -0.4318
   92SAPC  C218 8878   0.621  -0.518   4.444 -0.6155 -0.3068  0.0310
   92SAPC  H18R 8879   0.518  -0.550   4.469 -0.2243 -1.3379  0.3689
   92SAPC  H18S 8880   0.672  -0.612   4.415 -2.0275 -1.4455  1.1013
   92SAPC  C219 8881   0.603  -0.431   4.318 -0.0887 -0.2481  0.1320
   92SAPC  H19R 8882   0.558  -0.329   4.325  2.7527  1.3276 -2.2041
   92SAPC  H19S 8883   0.546  -0.502   4.254  0.4189 -0.6390  0.1118
   92SAPC  C220 8884   0.741  -0.400   4.258 -0.0160  0.2028 -0.3384
   92SAPC  H20R 8885   0.726  -0.343   4.164  0.9450  1.7041  0.3924
   92SAPC  H20S 8886   0.807  -0.486   4.232  0.8485  1.3574 -2.1648
   92SAPC  H20T 8887   0.788  -0.328   4.327 -0.9736  0.3333  0.1938
   92SAPC   C33 8888   1.025  -0.210   5.716 -0.5135 -0.4070  0.1716
   92SAPC   H3X 8889   1.109  -0.137   5.717  0.2809 -1.2859  1.3796
   92SAPC   H3Y 8890   0.927  -0.158   5.709 -1.5190 -2.1469  0.8817
   92SAPC   C34 8891   1.047  -0.286   5.582 -0.7656 -0.7636 -0.1595
   92SAPC   H4X 8892   0.980  -0.375   5.576 -0.4449 -1.0849  0.8027
   92SAPC   H4Y 8893   1.149  -0.330   5.575 -0.6899 -0.8184  1.0254
   92SAPC   C35 8894   1.042  -0.195   5.461  0.1161 -0.1360  0.7333
   92SAPC   H5X 8895   1.110  -0.106   5.467  1.4779 -1.2072  1.9167
   92SAPC   H5Y 8896   0.935  -0.166   5.458  0.1080  0.6527  4.2536
   92SAPC   C36 8897   1.095  -0.271   5.331 -0.0995 -0.1289 -0.0570
   92SAPC   H6X 8898   1.055  -0.375   5.331 -0.2130 -0.1206  1.8592
   92SAPC   H6Y 8899   1.205  -0.285   5.323 -0.1681  0.0191 -1.4060
   92SAPC   C37 8900   1.064  -0.192   5.199 -0.0517  0.2166 -0.6245
   92SAPC   H7X 8901   1.118  -0.095   5.203  1.4108 -0.5999  0.4438
   92SAPC   H7Y 8902   0.953  -0.179   5.205  0.0474  0.7143  0.3673
   92SAPC   C38 8903   1.100  -0.278   5.077 -0.0109 -0.4490 -0.0121
   92SAPC   H8X 8904   1.036  -0.369   5.077 -0.0832 -0.4379  1.5225
   92SAPC   H8Y 8905   1.205  -0.314   5.075  1.2028  2.6727  1.2300
   92SAPC   C39 8906   1.099  -0.215   4.942 -0.0616 -0.3216 -0.7045
   92SAPC   H9X 8907   1.161  -0.123   4.934  3.3723 -2.5407 -2.5310
   92SAPC   H9Y 8908   0.994  -0.198   4.911 -0.3477  0.6925  0.7206
   92SAPC  C310 8909   1.146  -0.309   4.829  0.6075  0.5881 -0.0328
   92SAPC  H10X 8910   1.100  -0.408   4.848  1.1715  0.3603  0.1696
   92SAPC  H10Y 8911   1.256  -0.317   4.839  0.7062 -1.9042 -2.0184
   92SAPC  C311 8912   1.123  -0.250   4.691 -0.6439 -0.2809  1.4065
   92SAPC  H11X 8913   1.165  -0.149   4.671 -1.9729 -0.1481 -1.3073
   92SAPC  H11Y 8914   1.012  -0.241   4.686 -0.5470  0.4505 -0.6285
   92SAPC  C312 8915   1.176  -0.343   4.579  0.7257 -1.0727 -0.2443
   92SAPC  H12X 8916   1.286  -0.334   4.594  0.4736  1.2276  0.5835
   92SAPC  H12Y 8917   1.154  -0.302   4.478  1.1762  1.3052  0.5556
   92SAPC  C313 8918   1.125  -0.488   4.608 -0.4153 -0.1671 -0.2098
   92SAPC  H13X 8919   1.018  -0.490   4.636  0.0865 -0.5820  1.8669
   92SAPC  H13Y 8920   1.178  -0.524   4.698  0.6412 -0.5421 -0.9646
   92SAPC  C314 8921   1.140  -0.600   4.503 -0.2991  0.2271 -0.6903
   92SAPC  H14X 8922   1.145  -0.701   4.550  0.4122  0.3850 -0.4117
   92SAPC  H14Y 8923   1.238  -0.598   4.450 -0.8805 -1.6552 -1.9445
   92SAPC  C315 8924   1.025  -0.600   4.397  0.3651  0.4441 -0.2542
   92SAPC  H15X 8925   1.027  -0.500   4.347 -0.9178  0.7513  0.2758
   92SAPC  H15Y 8926   0.924  -0.611   4.442 -0.2611  0.2055 -1.6379
   92SAPC  C316 8927   1.059  -0.704   4.290  0.4413 -0.0195 -0.2508
   92SAPC  H16X 8928   1.077  -0.802   4.340 -1.0291 -0.0483  0.2731
   92SAPC  H16Y 8929   1.154  -0.671   4.243  0.3600  0.2274 -0.2393
   92SAPC  C317 8930   0.956  -0.724   4.178 -0.5844 -0.5882  0.5550
   92SAPC  H17X 8931   0.904  -0.627   4.161  0.1738 -0.3865 -0.7001
   92SAPC  H17Y 8932   0.886  -0.805   4.206 -2.1877 -0.6324 -3.0804
   92SAPC  C318 8933   1.032  -0.739   4.047 -0.0701 -0.1347 -0.3150
   92SAPC  H18X 8934   1.085  -0.836   4.043 -0.2297 -0.2947  1.1549
   92SAPC  H18Y 8935   1.095  -0.648   4.036 -1.5254  0.8801 -0.5787
   92SAPC  H18Z 8936   0.958  -0.739   3.963  0.3950 -1.8721 -0.7543
   93SAPC     N 8937   2.546   1.336   6.930  0.9653  0.4215 -0.2990
   93SAPC   C12 8938   2.474   1.222   6.867  0.3264 -0.1467 -0.5545
   93SAPC  H12A 8939   2.384   1.267   6.825 -1.6720  0.2266  3.6486
   93SAPC  H12B 8940   2.454   1.152   6.946 -0.2501  0.2113 -0.3719
   93SAPC   C13 8941   2.684   1.289   6.966  0.3521 -0.6808  0.0669
   93SAPC  H13A 8942   2.686   1.188   7.005 -0.0094 -1.2905 -1.4213
   93SAPC  H13B 8943   2.744   1.280   6.877 -2.4098  0.3895 -2.0510
   93SAPC  H13C 8944   2.727   1.367   7.026  0.5234 -0.3091 -0.5339
   93SAPC   C14 8945   2.557   1.464   6.859 -0.1723  0.8227 -0.3401
   93SAPC  H14A 8946   2.595   1.459   6.758 -1.1365  2.2190 -0.7994
   93SAPC  H14B 8947   2.467   1.524   6.863  0.3024  1.5112  2.2237
   93SAPC  H14C 8948   2.633   1.522   6.910 -0.3745  0.7213  0.0840
   93SAPC   C15 8949   2.467   1.372   7.059 -0.2853 -0.2963 -0.0521
   93SAPC  H15A 8950   2.529   1.434   7.122 -2.2015  0.7896  0.8569
   93SAPC  H15B 8951   2.381   1.435   7.039 -1.6729 -1.1038  2.7737
   93SAPC  H15C 8952   2.444   1.292   7.128 -1.2430  0.5410  0.6398
   93SAPC   C11 8953   2.554   1.150   6.755  0.0901  0.2956  0.0282
   93SAPC  H11A 8954   2.486   1.068   6.722 -1.4988  1.6136 -0.1034
   93SAPC  H11B 8955   2.650   1.107   6.792  0.1201  0.9862  0.7763
   93SAPC     P 8956   2.465   1.273   6.531 -0.2599  0.1170 -0.5422
   93SAPC   O13 8957   2.360   1.363   6.589 -0.4173  0.2857  0.2357
   93SAPC   O14 8958   2.538   1.320   6.417 -0.4253 -0.9486  0.0084
   93SAPC   O12 8959   2.570   1.240   6.647  0.3047 -0.2564  0.0433
   93SAPC   O11 8960   2.406   1.129   6.491 -0.9289 -0.1755  0.0359
   93SAPC    C1 8961   2.275   1.090   6.440  0.3503  0.0437 -0.6640
   93SAPC    HA 8962   2.256   0.987   6.479 -1.6661  0.4082 -0.6067
   93SAPC    HB 8963   2.192   1.148   6.485 -1.4635 -3.3436  0.7342
   93SAPC    C2 8964   2.280   1.084   6.290  0.5191 -0.6871 -0.1437
   93SAPC    HS 8965   2.275   1.186   6.247 -0.1809 -0.2423  0.9631
   93SAPC   O21 8966   2.159   1.007   6.257  0.2253 -0.5530 -0.1088
   93SAPC   C21 8967   2.067   1.077   6.196  0.2091  0.2007  0.5989
   93SAPC   O22 8968   2.064   1.196   6.180 -0.0699  0.3280 -0.7811
   93SAPC   C22 8969   1.951   0.985   6.153  0.0550  0.4117 -0.0136
   93SAPC   H2R 8970   1.981   0.878   6.161  0.4037  0.3863 -1.3274
   93SAPC   H2S 8971   1.859   0.999   6.214 -0.6227  0.4855 -1.0327
   93SAPC    C3 8972   2.399   1.020   6.221 -0.1807 -0.0795 -0.7474
   93SAPC    HX 8973   2.412   0.916   6.259 -0.0913 -0.4860 -1.8348
   93SAPC    HY 8974   2.486   1.071   6.267 -0.9784  1.6293 -1.0513
   93SAPC   O31 8975   2.387   1.028   6.071 -0.0111 -0.6376 -0.3381
   93SAPC   C31 8976   2.476   1.121   6.030  0.8865  0.5542  0.3230
   93SAPC   O32 8977   2.526   1.207   6.102  0.4253 -0.1755  0.0745
   93SAPC   C32 8978   2.503   1.100   5.882  0.2516  0.7020  0.1840
   93SAPC   H2X 8979   2.543   0.997   5.869  0.8383  0.7993  1.1565
   93SAPC   H2Y 8980   2.579   1.175   5.851  0.3424  0.9596  1.0106
   93SAPC   C23 8981   1.910   1.021   6.006 -0.4762 -0.1189  0.2147
   93SAPC   H3R 8982   1.900   1.132   6.004 -0.9558 -0.1547  0.5412
   93SAPC   H3S 8983   1.809   0.979   5.992  0.5009 -2.1710 -1.0217
   93SAPC   C24 8984   2.006   0.974   5.903 -0.7876 -0.0155  0.3681
   93SAPC   H4R 8985   1.997   0.863   5.902  1.0197 -0.2016 -1.1197
   93SAPC   H4S 8986   2.109   1.000   5.934 -0.3183 -2.8076  1.4202
   93SAPC   C25 8987   1.964   1.034   5.768 -0.3680  0.2246 -0.1123
   93SAPC   H5R 8988   1.919   1.134   5.758 -0.3827  0.3919  1.4339
   93SAPC   C26 8989   1.986   0.970   5.643 -0.2137  0.8631 -0.5788
   93SAPC   H6R 8990   1.943   1.033   5.563 -0.8183  1.8915  0.5152
   93SAPC   C27 8991   2.044   0.836   5.607 -0.5940 -0.0839 -0.2652
   93SAPC   H7R 8992   1.962   0.771   5.570 -1.0503  1.1425 -1.4914
   93SAPC   H7S 8993   2.093   0.789   5.695 -0.2554 -0.4343 -0.6320
   93SAPC   C28 8994   2.140   0.839   5.489  0.0233 -0.3376 -0.0679
   93SAPC   H8R 8995   2.247   0.820   5.508 -0.1424 -2.7670 -1.2055
   93SAPC   C29 8996   2.102   0.868   5.361  0.3383  1.0718 -0.0268
   93SAPC   H9R 8997   2.186   0.863   5.290  2.6733 -0.4255  2.6461
   93SAPC  C210 8998   1.954   0.886   5.325  0.5608 -0.0300 -0.0158
   93SAPC  H10R 8999   1.933   0.990   5.292  2.2466 -0.1049 -1.4781
   93SAPC  H10S 9000   1.886   0.878   5.412  0.0986  2.1547 -0.1210
   93SAPC  C211 9001   1.916   0.786   5.218  0.9126 -0.1593  0.3927
   93SAPC  H11R 9002   1.866   0.694   5.250 -0.7465  0.7622  0.5900
   93SAPC  C212 9003   1.932   0.806   5.084 -0.3249  0.1243  0.0356
   93SAPC  H12R 9004   1.912   0.720   5.019  2.2217  0.2914 -1.0863
   93SAPC  C213 9005   1.994   0.915   5.004  0.0458 -0.6560 -0.0294
   93SAPC  H13R 9006   2.026   0.997   5.072 -1.6814  0.0090  0.0174
   93SAPC  H13S 9007   1.923   0.972   4.941 -0.1413  0.2052  0.9344
   93SAPC  C214 9008   2.116   0.871   4.941 -0.9015  0.9657  0.6975
   93SAPC  H14R 9009   2.199   0.838   5.005 -0.6206 -3.1058 -1.4308
   93SAPC  C215 9010   2.130   0.863   4.807 -0.2780  0.3804 -0.3567
   93SAPC  H15R 9011   2.230   0.843   4.765 -0.7886  0.3820 -1.6251
   93SAPC  C216 9012   2.013   0.884   4.712 -0.5899 -0.9333 -0.2097
   93SAPC  H16R 9013   1.916   0.859   4.760  0.7349 -0.8602  2.7046
   93SAPC  H16S 9014   2.027   0.814   4.627  1.3625 -0.0452 -0.6656
   93SAPC  C217 9015   1.993   1.024   4.650 -0.4649  0.3614 -0.1054
   93SAPC  H17R 9016   2.087   1.064   4.608 -1.6393  0.4161 -2.8787
   93SAPC  H17S 9017   1.946   1.094   4.722 -1.0884 -0.1127 -0.0431
   93SAPC  C218 9018   1.888   1.025   4.532  0.0182 -0.3352  0.1383
   93SAPC  H18R 9019   1.858   1.127   4.502 -3.6163 -1.0871  0.8027
   93SAPC  H18S 9020   1.789   0.991   4.568 -0.7209  2.0923  0.5132
   93SAPC  C219 9021   1.923   0.953   4.396  0.8805  0.5142 -0.3559
   93SAPC  H19R 9022   1.836   0.985   4.334 -0.8878  0.0223  1.7556
   93SAPC  H19S 9023   1.939   0.845   4.413 -0.9060  0.4554  1.3321
   93SAPC  C220 9024   2.041   0.997   4.319  0.2354  0.2392  0.3042
   93SAPC  H20R 9025   2.035   1.106   4.298  0.8342  0.3926  0.8846
   93SAPC  H20S 9026   2.048   0.929   4.231 -3.1605 -1.9816  1.5189
   93SAPC  H20T 9027   2.133   0.988   4.381  0.2164  1.2195  0.4854
   93SAPC   C33 9028   2.379   1.128   5.788  0.0958 -0.1872  0.2083
   93SAPC   H3X 9029   2.346   1.234   5.776  0.2054 -0.2606 -0.8564
   93SAPC   H3Y 9030   2.286   1.076   5.818  1.2428 -1.5171  1.6586
   93SAPC   C34 9031   2.425   1.077   5.653  0.3047 -0.6758  0.1398
   93SAPC   H4X 9032   2.418   0.966   5.663  1.3089 -0.5949  2.5349
   93SAPC   H4Y 9033   2.528   1.118   5.650  1.0166 -2.3616  0.0313
   93SAPC   C35 9034   2.356   1.133   5.533  0.8836 -0.1456 -0.1349
   93SAPC   H5X 9035   2.373   1.243   5.543 -0.9085 -0.0245  3.2561
   93SAPC   H5Y 9036   2.247   1.118   5.548  1.1978 -2.0753  0.4310
   93SAPC   C36 9037   2.406   1.062   5.401 -0.0704  0.1586 -0.4146
   93SAPC   H6X 9038   2.398   0.952   5.417  1.2158  0.1665  0.4781
   93SAPC   H6Y 9039   2.515   1.082   5.393  0.8286 -2.8119  2.0916
   93SAPC   C37 9040   2.344   1.111   5.274 -0.1418  0.2665  0.2445
   93SAPC   H7X 9041   2.362   1.219   5.257  0.0421  0.0964 -0.7295
   93SAPC   H7Y 9042   2.236   1.088   5.279  0.4329 -2.5737  1.9558
   93SAPC   C38 9043   2.407   1.053   5.145  0.5518  0.1423  0.0353
   93SAPC   H8X 9044   2.373   0.948   5.141 -0.3205  0.4552 -1.4226
   93SAPC   H8Y 9045   2.518   1.056   5.158  0.8352 -0.7879 -1.9265
   93SAPC   C39 9046   2.377   1.129   5.018 -0.2533 -0.1813 -0.5882
   93SAPC   H9X 9047   2.403   1.236   5.036  0.9816 -0.8050  1.7086
   93SAPC   H9Y 9048   2.267   1.115   5.013 -0.0611 -1.8946 -0.3763
   93SAPC  C310 9049   2.444   1.082   4.892  0.0335  0.5096  0.0053
   93SAPC  H10X 9050   2.434   0.972   4.889 -0.5980  0.5554  0.1707
   93SAPC  H10Y 9051   2.554   1.090   4.891  0.1929 -1.2900 -1.2865
   93SAPC  C311 9052   2.389   1.147   4.767 -0.0170 -0.0895 -0.4497
   93SAPC  H11X 9053   2.428   1.251   4.766 -0.3965  0.0529 -0.2919
   93SAPC  H11Y 9054   2.279   1.150   4.773  0.0658  0.5782  1.1422
   93SAPC  C312 9055   2.424   1.065   4.641  0.0834  0.2246 -0.4075
   93SAPC  H12X 9056   2.353   1.099   4.563 -2.0293  1.0478  1.7356
   93SAPC  H12Y 9057   2.398   0.960   4.668 -3.2250  1.2332  0.8216
   93SAPC  C313 9058   2.566   1.095   4.595  0.2970  0.3843  0.3478
   93SAPC  H13X 9059   2.637   1.056   4.672 -1.4684 -1.7809  1.0125
   93SAPC  H13Y 9060   2.572   1.205   4.584 -0.7817  0.3147 -1.1172
   93SAPC  C314 9061   2.605   1.034   4.460  0.6190  0.1277 -0.1780
   93SAPC  H14X 9062   2.528   1.062   4.386  0.5104 -0.3425 -0.2434
   93SAPC  H14Y 9063   2.601   0.924   4.472  0.9608  0.1375  0.0685
   93SAPC  C315 9064   2.739   1.075   4.402 -0.7003 -0.8980 -0.8672
   93SAPC  H15X 9065   2.823   1.037   4.464  0.8885  0.0724 -2.3337
   93SAPC  H15Y 9066   2.753   1.185   4.392 -0.3527 -0.7857  0.5710
   93SAPC  C316 9067   2.777   1.013   4.268  0.3325  0.2220  0.2665
   93SAPC  H16X 9068   2.769   0.903   4.278 -1.2361  0.2627 -0.2866
   93SAPC  H16Y 9069   2.879   1.037   4.230 -0.1809 -1.2789 -2.2662
   93SAPC  C317 9070   2.685   1.050   4.149 -0.0485 -0.6563 -0.0408
   93SAPC  H17X 9071   2.680   1.160   4.137 -2.3769 -0.6310  0.5958
   93SAPC  H17Y 9072   2.584   1.008   4.170 -1.1351  1.8570  0.1825
   93SAPC  C318 9073   2.731   0.998   4.015 -0.9466  1.1659  0.0824
   93SAPC  H18X 9074   2.656   1.009   3.933  0.2900 -0.0081 -1.2615
   93SAPC  H18Y 9075   2.757   0.890   4.019 -0.5390  1.2946  1.0480
   93SAPC  H18Z 9076   2.825   1.048   3.984  0.0858 -0.8610 -0.2777
   94SAPC     N 9077   1.532   4.897   7.080 -0.1614 -0.4519  0.3429
   94SAPC   C12 9078   1.586   4.914   6.942 -0.0511 -0.5327 -0.0462
   94SAPC  H12A 9079   1.664   4.841   6.928  0.5709  0.1734 -0.3117
   94SAPC  H12B 9080   1.642   5.006   6.942  0.1298 -0.6204  1.0985
   94SAPC   C13 9081   1.430   4.782   7.093 -1.2033  0.1059  0.6486
   94SAPC  H13A 9082   1.458   4.703   7.025 -0.6015  0.6167  0.2881
   94SAPC  H13B 9083   1.424   4.750   7.196 -2.6568 -1.4384  0.1418
   94SAPC  H13C 9084   1.334   4.820   7.060 -1.1067 -2.3274 -2.9910
   94SAPC   C14 9085   1.650   4.871   7.167  0.8788  0.2173 -0.1583
   94SAPC  H14A 9086   1.721   4.952   7.169  1.0174  0.2382 -2.6444
   94SAPC  H14B 9087   1.609   4.865   7.266  0.6856  1.3314 -0.1644
   94SAPC  H14C 9088   1.707   4.783   7.137  1.5662  0.3476  0.7215
   94SAPC   C15 9089   1.470   5.026   7.124  0.1302  0.3901 -0.0943
   94SAPC  H15A 9090   1.389   5.063   7.064  1.1968  2.7946 -0.1890
   94SAPC  H15B 9091   1.451   5.025   7.231 -1.0335 -0.4605 -0.2933
   94SAPC  H15C 9092   1.544   5.104   7.113 -0.5049  0.9712 -0.2884
   94SAPC   C11 9093   1.492   4.935   6.818  0.1398 -0.9617  0.3806
   94SAPC  H11A 9094   1.426   4.846   6.822  0.5295 -1.3123 -0.6469
   94SAPC  H11B 9095   1.558   4.929   6.729 -0.5252 -1.3043 -0.0897
   94SAPC     P 9096   1.486   5.187   6.794  0.0027  0.4366 -0.1772
   94SAPC   O13 9097   1.409   5.301   6.847 -0.1874 -0.2988  0.2032
   94SAPC   O14 9098   1.630   5.180   6.826  0.1666 -0.2215 -0.1846
   94SAPC   O12 9099   1.412   5.050   6.833  0.0594 -0.0621  0.5548
   94SAPC   O11 9100   1.481   5.196   6.637  0.1768  0.1294  0.7626
   94SAPC    C1 9101   1.354   5.190   6.563  0.1067  0.4366  0.0953
   94SAPC    HA 9102   1.356   5.108   6.488  0.0287  0.4690  0.0571
   94SAPC    HB 9103   1.267   5.165   6.628  2.4166 -1.3342  2.7704
   94SAPC    C2 9104   1.301   5.316   6.491 -1.2702  0.4105  0.5650
   94SAPC    HS 9105   1.203   5.293   6.444 -0.9567 -0.5348  0.3421
   94SAPC   O21 9106   1.396   5.363   6.397 -0.4519  0.1471  0.3973
   94SAPC   C21 9107   1.423   5.284   6.298 -0.7803 -0.0223 -0.6705
   94SAPC   O22 9108   1.370   5.179   6.267  0.2810  0.4134 -0.1621
   94SAPC   C22 9109   1.557   5.324   6.226 -0.3701 -0.3032 -0.4923
   94SAPC   H2R 9110   1.551   5.431   6.198 -2.1376 -0.4128 -0.6354
   94SAPC   H2S 9111   1.633   5.314   6.307  0.1719  0.3877 -0.9019
   94SAPC    C3 9112   1.278   5.431   6.593  0.1347  0.3122  0.1076
   94SAPC    HX 9113   1.370   5.476   6.637  0.4856  0.9894 -1.2837
   94SAPC    HY 9114   1.216   5.393   6.678  0.2816 -1.9247 -0.7204
   94SAPC   O31 9115   1.195   5.531   6.530  0.2489  0.9957  0.6279
   94SAPC   C31 9116   1.230   5.655   6.518 -0.4718 -0.4024 -0.9238
   94SAPC   O32 9117   1.333   5.701   6.566  0.2643  0.0151  0.1963
   94SAPC   C32 9118   1.123   5.724   6.445  0.0401 -0.8501  0.0612
   94SAPC   H2X 9119   1.157   5.828   6.425  1.6318 -1.0514  1.5198
   94SAPC   H2Y 9120   1.045   5.732   6.523  2.3340 -0.4050  2.4434
   94SAPC   C23 9121   1.602   5.226   6.111  0.1971  0.4149  1.1870
   94SAPC   H3R 9122   1.532   5.239   6.026  1.1517 -2.0953 -0.1069
   94SAPC   H3S 9123   1.587   5.125   6.155  0.0816 -0.0321  0.1502
   94SAPC   C24 9124   1.741   5.240   6.056  0.2344 -0.0406  1.0278
   94SAPC   H4R 9125   1.746   5.188   5.958 -2.2563  0.3892  0.6160
   94SAPC   H4S 9126   1.810   5.199   6.132 -0.7878 -4.2464 -0.0463
   94SAPC   C25 9127   1.773   5.388   6.034  0.0839 -0.5036 -0.8129
   94SAPC   H5R 9128   1.805   5.453   6.116 -3.5731  0.3825  0.0658
   94SAPC   C26 9129   1.807   5.440   5.913  0.2082 -0.2675 -0.3783
   94SAPC   H6R 9130   1.817   5.549   5.908  1.2582 -0.4156 -2.8591
   94SAPC   C27 9131   1.801   5.370   5.784 -1.1503 -0.1417 -0.0682
   94SAPC   H7R 9132   1.856   5.275   5.801 -2.3241 -0.6613  1.0915
   94SAPC   H7S 9133   1.851   5.440   5.715 -1.8160  1.5717  1.0986
   94SAPC   C28 9134   1.665   5.334   5.730  0.9414  0.2217  0.1048
   94SAPC   H8R 9135   1.579   5.348   5.797  0.4199  0.8044 -0.6625
   94SAPC   C29 9136   1.641   5.303   5.599 -0.6645  0.4414 -0.2108
   94SAPC   H9R 9137   1.537   5.281   5.571 -0.4446 -0.5677 -0.2905
   94SAPC  C210 9138   1.750   5.289   5.484  0.5009  0.4744 -0.0924
   94SAPC  H10R 9139   1.818   5.202   5.492 -0.1327 -0.2011 -1.5726
   94SAPC  H10S 9140   1.804   5.386   5.478 -0.1222  0.7545 -3.0647
   94SAPC  C211 9141   1.681   5.265   5.348 -0.1904 -0.0289  0.6304
   94SAPC  H11R 9142   1.600   5.190   5.350 -0.2924  0.0662  0.1834
   94SAPC  C212 9143   1.716   5.319   5.234 -0.7402  0.1034 -0.3405
   94SAPC  H12R 9144   1.666   5.298   5.138 -0.4504 -0.1748 -0.4349
   94SAPC  C213 9145   1.830   5.411   5.204  0.1130 -0.2389 -0.2520
   94SAPC  H13R 9146   1.881   5.433   5.301 -0.5106 -0.4787  0.1376
   94SAPC  H13S 9147   1.790   5.506   5.163  1.1739  0.2288 -0.2168
   94SAPC  C214 9148   1.918   5.346   5.104  0.1469 -0.1615  0.6120
   94SAPC  H14R 9149   2.012   5.308   5.148  0.8786  2.7569  1.8051
   94SAPC  C215 9150   1.913   5.362   4.969 -0.4649  0.1144  0.4755
   94SAPC  H15R 9151   1.979   5.296   4.911  1.1025  1.3424  0.7942
   94SAPC  C216 9152   1.805   5.440   4.893 -0.0207  0.1224 -0.0713
   94SAPC  H16R 9153   1.842   5.512   4.818 -0.5373  1.2926  0.7735
   94SAPC  H16S 9154   1.739   5.491   4.966 -2.0280 -2.0963 -0.1763
   94SAPC  C217 9155   1.712   5.335   4.824 -0.2164  0.4702  0.3339
   94SAPC  H17R 9156   1.610   5.375   4.801 -0.1775  0.9141  0.8998
   94SAPC  H17S 9157   1.686   5.243   4.880  0.9274 -0.0223  0.0752
   94SAPC  C218 9158   1.781   5.285   4.694 -0.2477  0.1624  0.7557
   94SAPC  H18R 9159   1.855   5.207   4.723 -0.2481 -0.0140  0.2911
   94SAPC  H18S 9160   1.842   5.370   4.657  1.6954 -1.5113 -0.0208
   94SAPC  C219 9161   1.683   5.253   4.587 -0.2556  0.1627  0.2944
   94SAPC  H19R 9162   1.732   5.241   4.488 -1.0302 -0.5207 -0.0220
   94SAPC  H19S 9163   1.603   5.330   4.586  0.7321  1.2232 -0.6209
   94SAPC  C220 9164   1.629   5.114   4.616  0.2362 -0.8984 -0.0356
   94SAPC  H20R 9165   1.701   5.034   4.588  2.0804  0.3904  0.7994
   94SAPC  H20S 9166   1.530   5.114   4.566  0.7078  0.6495 -1.0970
   94SAPC  H20T 9167   1.601   5.112   4.723 -4.0336  2.3142 -0.8479
   94SAPC   C33 9168   1.065   5.654   6.325  0.0845  0.1820 -0.1807
   94SAPC   H3X 9169   0.975   5.711   6.294  0.5463  0.9218 -0.1805
   94SAPC   H3Y 9170   1.024   5.555   6.356  0.3145 -0.2478 -1.2270
   94SAPC   C34 9171   1.163   5.630   6.214 -0.0565 -0.1833  0.2584
   94SAPC   H4X 9172   1.266   5.619   6.255  0.1513  1.3504  0.1890
   94SAPC   H4Y 9173   1.150   5.713   6.142  1.2267 -1.3924 -1.4479
   94SAPC   C35 9174   1.116   5.499   6.149  0.2816  0.1096 -0.1527
   94SAPC   H5X 9175   1.008   5.511   6.129  0.1148 -0.1245  0.5848
   94SAPC   H5Y 9176   1.120   5.415   6.222 -0.1778 -1.2985 -1.6954
   94SAPC   C36 9177   1.198   5.465   6.021  0.2649  0.3583 -0.3693
   94SAPC   H6X 9178   1.172   5.363   5.988  2.0999 -0.4194  0.4678
   94SAPC   H6Y 9179   1.304   5.457   6.055  0.0488 -0.5623  0.1087
   94SAPC   C37 9180   1.183   5.565   5.910  0.4530  0.4458 -0.5111
   94SAPC   H7X 9181   1.216   5.665   5.944  3.6128 -0.8205  0.5595
   94SAPC   H7Y 9182   1.075   5.562   5.882  0.5338 -0.3662 -0.7540
   94SAPC   C38 9183   1.263   5.526   5.793 -0.6070  0.6267 -0.8656
   94SAPC   H8X 9184   1.238   5.423   5.761 -0.9167  0.5827 -0.4922
   94SAPC   H8Y 9185   1.370   5.524   5.824 -0.9984 -0.9434  0.5000
   94SAPC   C39 9186   1.257   5.616   5.676  0.1142 -0.1104  0.6857
   94SAPC   H9X 9187   1.277   5.723   5.699 -2.7214  0.2545  1.8963
   94SAPC   H9Y 9188   1.152   5.617   5.640  0.0256 -1.0460  0.8735
   94SAPC  C310 9189   1.352   5.558   5.564 -0.1104 -0.0009 -0.8247
   94SAPC  H10X 9190   1.311   5.468   5.514 -0.6256  1.2132 -2.7349
   94SAPC  H10Y 9191   1.453   5.539   5.606  0.7511  2.0661 -1.7978
   94SAPC  C311 9192   1.372   5.673   5.461  0.3326  0.1204  0.0470
   94SAPC  H11X 9193   1.419   5.762   5.508 -0.5552  1.5918 -1.7321
   94SAPC  H11Y 9194   1.273   5.697   5.416  0.2129 -0.1062  0.1899
   94SAPC  C312 9195   1.460   5.630   5.348  0.1802  0.1254  0.2961
   94SAPC  H12X 9196   1.407   5.542   5.306 -0.9152  0.6521  0.5316
   94SAPC  H12Y 9197   1.560   5.595   5.382  0.7609  1.1963 -0.2670
   94SAPC  C313 9198   1.486   5.733   5.241  0.3197  0.5106 -0.4584
   94SAPC  H13X 9199   1.545   5.811   5.294  1.3449 -1.9130  2.1944
   94SAPC  H13Y 9200   1.388   5.771   5.203 -0.9900 -2.2155 -0.0509
   94SAPC  C314 9201   1.555   5.672   5.127  0.1212  0.1915 -0.1171
   94SAPC  H14X 9202   1.500   5.589   5.076  0.8361  0.3179 -1.1311
   94SAPC  H14Y 9203   1.661   5.658   5.158  1.8986  2.5514 -4.2062
   94SAPC  C315 9204   1.576   5.771   5.005  0.2111 -0.3698  0.3872
   94SAPC  H15X 9205   1.493   5.844   4.991  1.1543  0.4383 -1.2803
   94SAPC  H15Y 9206   1.576   5.709   4.913 -1.0160 -0.7674  0.6330
   94SAPC  C316 9207   1.717   5.842   5.004 -0.5891  0.3104 -0.3113
   94SAPC  H16X 9208   1.780   5.765   5.054 -1.9832 -1.7612 -1.5901
   94SAPC  H16Y 9209   1.717   5.935   5.065  1.2274 -0.0661  0.3515
   94SAPC  C317 9210   1.780   5.868   4.869 -0.3909 -0.4727 -0.4364
   94SAPC  H17X 9211   1.717   5.951   4.828 -1.7549 -1.3549 -0.1708
   94SAPC  H17Y 9212   1.764   5.783   4.799 -1.7026  0.2681 -1.0801
   94SAPC  C318 9213   1.928   5.905   4.868  0.3466  0.0336  0.5489
   94SAPC  H18X 9214   1.950   5.996   4.927 -0.6152  0.0717  0.8660
   94SAPC  H18Y 9215   1.969   5.933   4.768  1.5926 -1.3669  0.6370
   94SAPC  H18Z 9216   1.989   5.824   4.914 -1.4584 -2.1637 -0.7126
   95SAPC     N 9217   3.240   6.780   1.627 -0.2923 -0.4778 -0.0707
   95SAPC   C12 9218   3.223   6.851   1.763 -0.1180 -0.2796 -0.6959
   95SAPC  H12A 9219   3.176   6.781   1.832  2.2760  0.1252  1.5084
   95SAPC  H12B 9220   3.154   6.933   1.749 -0.8777 -0.2737  2.3069
   95SAPC   C13 9221   3.108   6.731   1.582  0.2668  0.0223  0.0890
   95SAPC  H13A 9222   3.121   6.678   1.489  0.7822 -0.9780  0.7074
   95SAPC  H13B 9223   3.056   6.664   1.649 -0.2902  1.0557  0.7131
   95SAPC  H13C 9224   3.050   6.821   1.574  0.6852  0.2864 -0.0572
   95SAPC   C14 9225   3.288   6.870   1.520 -0.4512  0.3995  0.4094
   95SAPC  H14A 9226   3.378   6.924   1.545 -0.4858  0.3573  0.6283
   95SAPC  H14B 9227   3.315   6.816   1.430  0.3759  2.0357 -0.3640
   95SAPC  H14C 9228   3.210   6.942   1.497 -2.0055 -1.5630 -0.7892
   95SAPC   C15 9229   3.340   6.665   1.637 -0.0272 -0.7870  0.1505
   95SAPC  H15A 9230   3.317   6.609   1.726 -0.8589  1.3444  1.3614
   95SAPC  H15B 9231   3.341   6.608   1.545 -1.2518 -0.1624 -0.2778
   95SAPC  H15C 9232   3.440   6.702   1.657  0.4869 -1.3849 -1.1676
   95SAPC   C11 9233   3.345   6.897   1.846  0.2173 -0.2066 -0.0719
   95SAPC  H11A 9234   3.411   6.808   1.855  1.6002  0.6887 -1.0263
   95SAPC  H11B 9235   3.309   6.921   1.948  2.4504 -0.0785  0.7441
   95SAPC     P 9236   3.364   7.145   1.767  0.0689  0.2262  0.1895
   95SAPC   O13 9237   3.462   7.233   1.704  0.1950 -0.2344  0.4501
   95SAPC   O14 9238   3.238   7.142   1.683 -0.6293 -0.2096  0.3706
   95SAPC   O12 9239   3.423   7.005   1.786 -0.2672 -0.1303 -0.1443
   95SAPC   O11 9240   3.338   7.202   1.913  0.5117  0.6402 -0.1213
   95SAPC    C1 9241   3.438   7.221   2.014  0.7409 -0.0558  0.2559
   95SAPC    HA 9242   3.540   7.192   1.982  0.3977 -0.6006 -0.3622
   95SAPC    HB 9243   3.438   7.329   2.041  0.0610  0.3582 -1.2460
   95SAPC    C2 9244   3.402   7.146   2.146 -0.3511  0.3202  1.4674
   95SAPC    HS 9245   3.464   7.193   2.226 -0.7305  1.1445  1.2922
   95SAPC   O21 9246   3.429   7.002   2.129 -0.1548  0.1665 -0.0464
   95SAPC   C21 9247   3.555   6.969   2.130 -0.2878  0.6029 -0.6037
   95SAPC   O22 9248   3.651   7.046   2.150 -0.2563 -0.7688  0.6604
   95SAPC   C22 9249   3.566   6.814   2.131  0.0446  0.0979 -0.3547
   95SAPC   H2R 9250   3.471   6.764   2.104 -0.2644  0.4864  0.0018
   95SAPC   H2S 9251   3.642   6.783   2.056 -1.3404 -3.0539 -0.6122
   95SAPC    C3 9252   3.259   7.171   2.198  0.4225  0.0744 -0.6595
   95SAPC    HX 9253   3.197   7.102   2.138 -1.7078 -1.1468  2.6872
   95SAPC    HY 9254   3.239   7.277   2.169  0.0700 -0.1142 -1.1094
   95SAPC   O31 9255   3.258   7.144   2.339 -0.2504 -0.5391  0.0998
   95SAPC   C31 9256   3.256   7.248   2.413 -0.2042 -0.8846 -0.2180
   95SAPC   O32 9257   3.275   7.366   2.379 -0.2560  0.4689 -0.1325
   95SAPC   C32 9258   3.246   7.195   2.556 -0.7676  0.0514 -0.1116
   95SAPC   H2X 9259   3.321   7.115   2.566  1.2919  2.1296  2.3823
   95SAPC   H2Y 9260   3.146   7.150   2.573 -0.2563  0.0144  3.4821
   95SAPC   C23 9261   3.601   6.749   2.273 -0.0330  0.4815 -0.3529
   95SAPC   H3R 9262   3.698   6.791   2.305  0.0911 -0.1066  0.0834
   95SAPC   H3S 9263   3.619   6.641   2.254 -2.3329  0.0952 -0.6174
   95SAPC   C24 9264   3.494   6.762   2.381 -0.0623  0.2760 -0.3246
   95SAPC   H4R 9265   3.523   6.676   2.446 -0.6707  0.3357  0.0379
   95SAPC   H4S 9266   3.395   6.732   2.341 -0.8325  0.2819  1.4737
   95SAPC   C25 9267   3.491   6.891   2.449  0.2545  0.0706 -0.3393
   95SAPC   H5R 9268   3.420   6.966   2.410  1.3294  0.5087 -1.5348
   95SAPC   C26 9269   3.553   6.921   2.567 -0.4896 -0.0566 -0.0387
   95SAPC   H6R 9270   3.537   7.023   2.605 -1.0085 -0.1391 -0.0319
   95SAPC   C27 9271   3.637   6.829   2.655 -0.4247 -0.0457  0.4661
   95SAPC   H7R 9272   3.696   6.752   2.601  2.0764  1.8843  0.2286
   95SAPC   H7S 9273   3.572   6.774   2.726  0.7090  1.6443  2.9970
   95SAPC   C28 9274   3.741   6.899   2.735  0.0156  0.4135  0.3072
   95SAPC   H8R 9275   3.812   6.962   2.679  3.1036 -1.3845  1.9400
   95SAPC   C29 9276   3.761   6.885   2.866  0.5751 -0.0192  0.3735
   95SAPC   H9R 9277   3.845   6.939   2.912 -0.0344  1.6571 -0.3752
   95SAPC  C210 9278   3.683   6.792   2.959 -0.6284  0.2152  0.1169
   95SAPC  H10R 9279   3.756   6.748   3.030  0.8923  2.1151 -0.1739
   95SAPC  H10S 9280   3.635   6.708   2.904  1.4653  0.3813 -2.1857
   95SAPC  C211 9281   3.580   6.869   3.036 -0.1786  0.1165  0.5408
   95SAPC  H11R 9282   3.484   6.859   2.983  1.6801 -0.4437 -3.0039
   95SAPC  C212 9283   3.592   6.936   3.155 -0.0304 -0.4989  0.4604
   95SAPC  H12R 9284   3.498   6.968   3.202 -0.0173  0.2691 -0.0174
   95SAPC  C213 9285   3.712   6.953   3.240  0.6404 -0.9297 -0.1067
   95SAPC  H13R 9286   3.704   7.058   3.274 -1.6562 -1.0756  0.0060
   95SAPC  H13S 9287   3.803   6.943   3.179 -0.1666  0.3590 -1.5834
   95SAPC  C214 9288   3.699   6.849   3.346  0.7782 -0.1351  0.6765
   95SAPC  H14R 9289   3.671   6.747   3.314 -0.8640 -0.5393  3.0600
   95SAPC  C215 9290   3.709   6.871   3.478  0.0296  0.3077 -0.1110
   95SAPC  H15R 9291   3.714   6.798   3.559 -1.7595  1.7405  1.3870
   95SAPC  C216 9292   3.761   6.994   3.538 -0.0706 -0.8374 -0.5994
   95SAPC  H16R 9293   3.738   7.086   3.479 -1.0155 -2.8189 -3.5819
   95SAPC  H16S 9294   3.871   6.993   3.524 -0.1611  0.3337 -1.5944
   95SAPC  C217 9295   3.715   7.019   3.683  0.3170 -0.6210 -0.3163
   95SAPC  H17R 9296   3.746   6.926   3.734 -0.8228 -0.0139  1.6043
   95SAPC  H17S 9297   3.604   7.021   3.693  0.0766  0.6369 -2.5821
   95SAPC  C218 9298   3.780   7.135   3.757 -0.1643 -0.0987  0.4872
   95SAPC  H18R 9299   3.758   7.230   3.704  2.5029  2.1470  3.0502
   95SAPC  H18S 9300   3.890   7.117   3.752  0.0721  0.4630  2.4912
   95SAPC  C219 9301   3.751   7.144   3.906 -0.7625 -0.0901 -0.7034
   95SAPC  H19R 9302   3.654   7.197   3.920 -0.9236 -0.2573 -1.1739
   95SAPC  H19S 9303   3.824   7.198   3.970 -0.1814 -2.3633  0.6672
   95SAPC  C220 9304   3.737   7.011   3.978  0.1177 -0.5191 -0.8600
   95SAPC  H20R 9305   3.656   6.948   3.936 -1.3343 -0.5027  1.7308
   95SAPC  H20S 9306   3.709   7.022   4.085 -1.4915  1.1764 -1.4153
   95SAPC  H20T 9307   3.833   6.955   3.977 -0.0371 -0.9931  1.8772
   95SAPC   C33 9308   3.291   7.301   2.664 -0.2205  0.2103 -0.6591
   95SAPC   H3X 9309   3.212   7.379   2.663 -2.7979 -2.1905 -3.0485
   95SAPC   H3Y 9310   3.386   7.353   2.640 -0.3682  1.0614  0.5464
   95SAPC   C34 9311   3.300   7.236   2.801  0.3693 -0.6764  0.1020
   95SAPC   H4X 9312   3.380   7.160   2.813  0.8978  0.0923  1.6023
   95SAPC   H4Y 9313   3.205   7.184   2.825  0.1368  1.1508  3.7203
   95SAPC   C35 9314   3.323   7.344   2.907  0.4546  0.0815 -0.3655
   95SAPC   H5X 9315   3.241   7.419   2.919  1.5283  1.0084  1.6932
   95SAPC   H5Y 9316   3.417   7.392   2.873 -0.0786 -0.3187 -2.6206
   95SAPC   C36 9317   3.341   7.274   3.037 -0.5884  0.3822 -0.1274
   95SAPC   H6X 9318   3.401   7.181   3.031 -0.3279  0.4609  1.0403
   95SAPC   H6Y 9319   3.241   7.231   3.056 -0.1692 -0.4427  0.2922
   95SAPC   C37 9320   3.389   7.368   3.152 -0.3981  0.1964 -0.0911
   95SAPC   H7X 9321   3.313   7.443   3.183  0.1689  0.2178  1.3521
   95SAPC   H7Y 9322   3.487   7.414   3.130 -0.7899  1.5508  0.8583
   95SAPC   C38 9323   3.408   7.278   3.277  0.1820  0.4269  0.2350
   95SAPC   H8X 9324   3.482   7.195   3.271  0.6536  0.8782 -0.2702
   95SAPC   H8Y 9325   3.311   7.228   3.297 -0.3079  2.0181  2.2553
   95SAPC   C39 9326   3.449   7.358   3.398  0.0860  0.6320  0.2471
   95SAPC   H9X 9327   3.362   7.422   3.426  0.5048  1.9573 -1.3240
   95SAPC   H9Y 9328   3.530   7.427   3.368 -0.2955  1.4187  0.9756
   95SAPC  C310 9329   3.497   7.276   3.526 -0.5143  0.2739 -0.7385
   95SAPC  H10X 9330   3.600   7.233   3.525 -0.4460 -0.4256  4.7941
   95SAPC  H10Y 9331   3.430   7.194   3.562 -0.5948  1.1156  1.1759
   95SAPC  C311 9332   3.507   7.368   3.661  0.3378  0.1665  0.8693
   95SAPC  H11X 9333   3.595   7.430   3.633 -1.2421  1.9699 -0.3303
   95SAPC  H11Y 9334   3.537   7.294   3.739 -0.7176 -1.4312 -0.1874
   95SAPC  C312 9335   3.375   7.443   3.693  0.1084  0.2020 -0.0522
   95SAPC  H12X 9336   3.360   7.529   3.624 -1.0329 -0.0703 -0.1649
   95SAPC  H12Y 9337   3.407   7.487   3.790  0.8299  1.6240 -0.8949
   95SAPC  C313 9338   3.253   7.361   3.731  0.0298 -0.8368  0.5717
   95SAPC  H13X 9339   3.228   7.297   3.644  0.8784 -0.8766  0.3432
   95SAPC  H13Y 9340   3.163   7.426   3.741  1.3351  0.8507  2.1364
   95SAPC  C314 9341   3.273   7.292   3.870 -0.0298  0.0513  0.6903
   95SAPC  H14X 9342   3.306   7.372   3.939  2.6661 -0.0618 -0.3718
   95SAPC  H14Y 9343   3.356   7.218   3.874 -0.3276 -0.2832  0.7798
   95SAPC  C315 9344   3.143   7.238   3.928 -0.5168  0.0221  0.1604
   95SAPC  H15X 9345   3.117   7.140   3.882  0.2418 -0.3032  0.4095
   95SAPC  H15Y 9346   3.067   7.318   3.917  2.1076  2.6331 -0.0839
   95SAPC  C316 9347   3.167   7.201   4.081  0.0978 -0.4182 -0.1766
   95SAPC  H16X 9348   3.226   7.284   4.125 -0.8568  0.9823 -1.4281
   95SAPC  H16Y 9349   3.227   7.109   4.093 -1.4752 -1.5866 -0.8743
   95SAPC  C317 9350   3.037   7.200   4.158  0.1317 -0.2339 -0.3752
   95SAPC  H17X 9351   2.971   7.126   4.108  3.0460 -2.5954 -1.0133
   95SAPC  H17Y 9352   2.974   7.289   4.136  0.8972  0.9634  1.9726
   95SAPC  C318 9353   3.049   7.173   4.305  0.1685  0.3207 -0.0060
   95SAPC  H18X 9354   3.103   7.253   4.359 -0.5063  0.7628  0.0234
   95SAPC  H18Y 9355   3.108   7.080   4.323  0.9741  0.7983 -0.1702
   95SAPC  H18Z 9356   2.950   7.163   4.355  0.5091  0.9479  0.8129
   96SAPC     N 9357   5.002   2.487   1.677  1.1377  0.4150 -0.3497
   96SAPC   C12 9358   4.999   2.544   1.821 -0.0542 -0.0684 -0.2416
   96SAPC  H12A 9359   4.985   2.651   1.824  0.7592  0.0650 -0.7782
   96SAPC  H12B 9360   5.100   2.543   1.861  0.1487  0.6965 -0.6995
   96SAPC   C13 9361   4.857   2.503   1.625 -0.1849  1.1323  0.2276
   96SAPC  H13A 9362   4.822   2.602   1.647 -1.2464  0.5474  1.2735
   96SAPC  H13B 9363   4.846   2.478   1.520  0.5995 -0.7772  0.5603
   96SAPC  H13C 9364   4.793   2.431   1.674  0.5487 -0.6576 -1.3270
   96SAPC   C14 9365   5.096   2.568   1.592  0.8604  0.1361  0.6151
   96SAPC  H14A 9366   5.098   2.545   1.487  1.3497 -0.9231  0.8441
   96SAPC  H14B 9367   5.068   2.673   1.596 -1.4503 -0.4573  2.1649
   96SAPC  H14C 9368   5.194   2.554   1.634  0.9752 -2.1750 -0.2915
   96SAPC   C15 9369   5.047   2.344   1.676 -0.2251 -1.2619  0.3408
   96SAPC  H15A 9370   5.152   2.344   1.701  0.0416  0.5340 -0.6016
   96SAPC  H15B 9371   4.994   2.276   1.741 -3.2276  0.5751  0.0163
   96SAPC  H15C 9372   5.010   2.306   1.582  1.0963 -0.7555 -0.4134
   96SAPC   C11 9373   4.907   2.489   1.928  0.1807  0.3140 -0.8830
   96SAPC  H11A 9374   4.808   2.475   1.880 -1.8416  1.2533  2.6616
   96SAPC  H11B 9375   4.890   2.564   2.008  0.8142 -0.7047  0.2375
   96SAPC     P 9376   5.072   2.365   2.073  0.0798  0.5576 -0.1423
   96SAPC   O13 9377   5.108   2.226   2.114  1.0109 -0.1108 -0.6644
   96SAPC   O14 9378   5.176   2.449   2.015  0.1485 -0.6486 -0.0429
   96SAPC   O12 9379   4.955   2.363   1.967  0.0436  0.5521  0.7253
   96SAPC   O11 9380   5.008   2.437   2.200  0.1526 -0.3005  0.2111
   96SAPC    C1 9381   4.905   2.366   2.268 -0.0141  0.6811  0.2275
   96SAPC    HA 9382   4.833   2.315   2.200  3.2417  0.4737 -3.4716
   96SAPC    HB 9383   4.947   2.287   2.334  1.5821 -0.8804 -2.4694
   96SAPC    C2 9384   4.819   2.464   2.356 -0.1624  1.0373  0.4726
   96SAPC    HS 9385   4.809   2.555   2.293  2.5812  1.0032 -0.1561
   96SAPC   O21 9386   4.906   2.514   2.453 -0.3073 -0.6462  0.1115
   96SAPC   C21 9387   4.854   2.598   2.546  0.4209 -0.1856  1.0274
   96SAPC   O22 9388   4.745   2.655   2.529 -0.2528 -0.5008  0.8937
   96SAPC   C22 9389   4.936   2.595   2.672  0.0868  0.3274 -0.6111
   96SAPC   H2R 9390   4.926   2.499   2.726  0.3737  0.3193 -0.5712
   96SAPC   H2S 9391   5.044   2.604   2.645  1.7789 -0.4092  4.7778
   96SAPC    C3 9392   4.682   2.405   2.390  0.2792 -0.0598 -1.1661
   96SAPC    HX 9393   4.624   2.387   2.297 -0.2831  0.5534 -0.9403
   96SAPC    HY 9394   4.618   2.486   2.431 -1.9721 -2.4516  0.3962
   96SAPC   O31 9395   4.680   2.296   2.489  0.2303 -0.1206  0.6145
   96SAPC   C31 9396   4.680   2.177   2.434 -0.4917 -0.2029 -0.0129
   96SAPC   O32 9397   4.652   2.142   2.321  0.3553  0.4392 -0.2833
   96SAPC   C32 9398   4.716   2.079   2.544 -0.0443  1.1578 -0.1897
   96SAPC   H2X 9399   4.696   1.975   2.513 -0.9527  0.7285  1.6722
   96SAPC   H2Y 9400   4.645   2.103   2.626  1.8072  2.7296  1.0624
   96SAPC   C23 9401   4.909   2.701   2.782  0.3930 -0.3021  0.4858
   96SAPC   H3R 9402   4.885   2.800   2.739  2.5700  0.5407  1.0699
   96SAPC   H3S 9403   5.002   2.714   2.843  0.0256  1.4939  0.7023
   96SAPC   C24 9404   4.806   2.653   2.893  0.5693 -0.7666  0.2265
   96SAPC   H4R 9405   4.706   2.641   2.846  1.2101  0.6828 -1.6397
   96SAPC   H4S 9406   4.801   2.743   2.958  2.1400  1.0033 -1.9252
   96SAPC   C25 9407   4.845   2.531   2.968 -0.4999 -0.7775  0.4787
   96SAPC   H5R 9408   4.846   2.443   2.902  0.2881  1.0618 -2.1199
   96SAPC   C26 9409   4.921   2.525   3.075  0.2445 -0.9281  0.3067
   96SAPC   H6R 9410   4.964   2.431   3.111 -0.6498 -1.7457 -0.6864
   96SAPC   C27 9411   4.968   2.630   3.171  0.1516  0.1417  1.0013
   96SAPC   H7R 9412   5.014   2.714   3.115  0.5935 -0.8852 -0.2509
   96SAPC   H7S 9413   5.049   2.582   3.229  1.0247 -0.2926 -0.5043
   96SAPC   C28 9414   4.864   2.677   3.270 -0.7029  0.1131 -0.5322
   96SAPC   H8R 9415   4.781   2.731   3.223 -1.3632 -0.4512 -0.0161
   96SAPC   C29 9416   4.852   2.658   3.402 -0.3315  0.5171  0.6860
   96SAPC   H9R 9417   4.771   2.703   3.463  0.4600 -0.0434  2.2075
   96SAPC  C210 9418   4.945   2.566   3.475  0.5806  0.7484 -0.1562
   96SAPC  H10R 9419   5.002   2.627   3.547  0.8458 -0.9010  1.0965
   96SAPC  H10S 9420   5.023   2.521   3.410  1.3776  0.2932  1.0720
   96SAPC  C211 9421   4.866   2.461   3.554  0.6688 -0.0724 -0.0862
   96SAPC  H11R 9422   4.828   2.389   3.479  1.3357  1.5219 -2.0510
   96SAPC  C212 9423   4.801   2.469   3.670 -0.0269 -0.1650  0.2539
   96SAPC  H12R 9424   4.760   2.375   3.709  1.0515 -0.8141 -0.1160
   96SAPC  C213 9425   4.833   2.571   3.779 -0.3476 -0.1778 -0.5511
   96SAPC  H13R 9426   4.921   2.636   3.758  0.3355 -1.4651 -1.8106
   96SAPC  H13S 9427   4.862   2.510   3.867  0.3412  1.2046  0.2121
   96SAPC  C214 9428   4.706   2.652   3.815  0.2882  0.2397  0.3774
   96SAPC  H14R 9429   4.666   2.704   3.728 -0.2691 -1.2755 -0.3131
   96SAPC  C215 9430   4.650   2.654   3.941  0.6395  0.9181  0.6207
   96SAPC  H15R 9431   4.556   2.712   3.940 -0.7338 -1.2199 -0.7593
   96SAPC  C216 9432   4.696   2.567   4.061  0.2436  0.1309 -0.3054
   96SAPC  H16R 9433   4.743   2.473   4.025  0.5138 -0.3234  1.1824
   96SAPC  H16S 9434   4.609   2.539   4.124  0.7449 -2.2157 -0.5685
   96SAPC  C217 9435   4.797   2.651   4.142 -0.2374  0.1254  0.3346
   96SAPC  H17R 9436   4.735   2.702   4.218  0.6466  0.4466  0.8504
   96SAPC  H17S 9437   4.853   2.711   4.067 -0.1334 -0.9778 -0.5125
   96SAPC  C218 9438   4.905   2.562   4.213  0.3237 -0.0003  0.0747
   96SAPC  H18R 9439   4.857   2.463   4.229 -0.5994  0.1534 -1.5126
   96SAPC  H18S 9440   4.929   2.607   4.311 -1.4890  0.3570  0.3937
   96SAPC  C219 9441   5.037   2.556   4.134  0.9949 -0.3324 -0.9359
   96SAPC  H19R 9442   5.063   2.655   4.090 -1.4319  0.1488 -1.4626
   96SAPC  H19S 9443   5.003   2.507   4.040  0.7150  1.7502 -1.9958
   96SAPC  C220 9444   5.146   2.469   4.202 -0.8371  0.1062  0.2689
   96SAPC  H20R 9445   5.188   2.516   4.293 -0.9143 -2.7758  1.9222
   96SAPC  H20S 9446   5.228   2.444   4.131 -1.3114  1.6789 -0.8965
   96SAPC  H20T 9447   5.093   2.376   4.232 -0.0501 -0.0660  1.1515
   96SAPC   C33 9448   4.855   2.074   2.601 -0.8787  0.0612 -0.3841
   96SAPC   H3X 9449   4.890   2.177   2.622  2.4791 -0.8547 -0.9342
   96SAPC   H3Y 9450   4.925   2.020   2.534 -0.7664 -1.2154  0.7182
   96SAPC   C34 9451   4.851   2.008   2.737  0.2681  0.6452  0.5321
   96SAPC   H4X 9452   4.947   1.959   2.763  1.6666  1.8587 -2.0845
   96SAPC   H4Y 9453   4.786   1.918   2.722  3.6764 -1.7315 -1.4033
   96SAPC   C35 9454   4.802   2.096   2.855  0.2614  0.2710 -0.5022
   96SAPC   H5X 9455   4.702   2.133   2.821 -1.4238 -2.8693  0.6258
   96SAPC   H5Y 9456   4.870   2.183   2.868  0.4422 -0.2299  2.9910
   96SAPC   C36 9457   4.801   2.025   2.990 -0.3761  0.6768 -0.8157
   96SAPC   H6X 9458   4.906   1.999   3.017  0.0290  2.6428 -0.3329
   96SAPC   H6Y 9459   4.742   1.932   2.978 -1.8512  1.4803 -0.0485
   96SAPC   C37 9460   4.759   2.104   3.112 -0.4858 -0.6323  0.3517
   96SAPC   H7X 9461   4.649   2.120   3.115 -0.6429 -1.0149 -1.6630
   96SAPC   H7Y 9462   4.808   2.203   3.105 -2.6748  0.6512  1.7512
   96SAPC   C38 9463   4.802   2.035   3.244  0.3959  0.6314 -0.4098
   96SAPC   H8X 9464   4.913   2.025   3.242  0.3412 -0.1394 -0.1123
   96SAPC   H8Y 9465   4.758   1.933   3.235 -0.5873  1.0563 -0.5445
   96SAPC   C39 9466   4.762   2.106   3.377  0.0427 -0.4092 -0.5607
   96SAPC   H9X 9467   4.658   2.146   3.380  1.0314  2.3273  0.0957
   96SAPC   H9Y 9468   4.831   2.192   3.386 -1.5285  0.7962  0.8865
   96SAPC  C310 9469   4.788   2.013   3.495  0.4581 -0.2858 -0.1483
   96SAPC  H10X 9470   4.884   1.959   3.486 -0.3067 -1.6903 -0.1635
   96SAPC  H10Y 9471   4.708   1.936   3.497 -0.7685  0.9195 -0.5318
   96SAPC  C311 9472   4.807   2.102   3.622 -0.7572  0.3051 -0.3468
   96SAPC  H11X 9473   4.721   2.172   3.622 -1.0986 -0.1020 -1.1786
   96SAPC  H11Y 9474   4.896   2.168   3.619  2.0231 -3.0727  0.4952
   96SAPC  C312 9475   4.808   2.016   3.755  0.2490 -0.3841  0.6749
   96SAPC  H12X 9476   4.907   1.967   3.766  0.6146  0.1448 -0.1592
   96SAPC  H12Y 9477   4.734   1.935   3.736  0.4233 -0.4469  0.2601
   96SAPC  C313 9478   4.782   2.093   3.876  0.2087 -0.4050 -0.7220
   96SAPC  H13X 9479   4.694   2.155   3.848 -1.0048 -1.3284  0.8172
   96SAPC  H13Y 9480   4.868   2.156   3.906 -0.1294  0.1272 -0.8472
   96SAPC  C314 9481   4.757   2.013   4.008  0.4327 -0.2058  0.2450
   96SAPC  H14X 9482   4.834   1.937   4.031  1.2226  0.5541  0.1303
   96SAPC  H14Y 9483   4.661   1.958   3.998  1.0911 -2.1912  3.5400
   96SAPC  C315 9484   4.753   2.098   4.132  0.7752  0.5524  0.1845
   96SAPC  H15X 9485   4.706   2.192   4.094  0.5042  0.4299  0.2123
   96SAPC  H15Y 9486   4.853   2.121   4.174  1.4126  0.0584 -1.0103
   96SAPC  C316 9487   4.655   2.046   4.236  0.0695 -0.4538  0.8684
   96SAPC  H16X 9488   4.710   1.958   4.275  0.8580 -1.0897 -1.4800
   96SAPC  H16Y 9489   4.562   2.017   4.183  0.7149  0.8371 -1.1012
   96SAPC  C317 9490   4.619   2.162   4.332 -0.1874  0.6166  0.8388
   96SAPC  H17X 9491   4.534   2.136   4.399 -0.3523  1.8733  1.1568
   96SAPC  H17Y 9492   4.588   2.253   4.275 -1.9025 -0.6272 -0.3246
   96SAPC  C318 9493   4.739   2.181   4.428 -0.8693  0.6419 -0.2712
   96SAPC  H18X 9494   4.769   2.082   4.469 -3.2588  1.5286  4.2938
   96SAPC  H18Y 9495   4.714   2.238   4.520  1.0076 -0.1275  0.7676
   96SAPC  H18Z 9496   4.827   2.229   4.381 -0.2798  1.7695  1.8376
   97SAPC     N 9497   2.960   1.278   1.924 -0.7738  0.5439  0.9408
   97SAPC   C12 9498   2.906   1.211   2.049 -0.0708  0.8494  0.0533
   97SAPC  H12A 9499   2.813   1.160   2.028 -0.4635  2.1375 -1.5268
   97SAPC  H12B 9500   2.886   1.290   2.120 -0.0349 -0.4679  1.5937
   97SAPC   C13 9501   2.878   1.398   1.893 -0.3385 -0.0783  0.8994
   97SAPC  H13A 9502   2.868   1.469   1.973  0.0563 -0.5811  1.4065
   97SAPC  H13B 9503   2.933   1.445   1.813 -0.7896  0.0590  0.6689
   97SAPC  H13C 9504   2.776   1.375   1.867 -1.0786  1.6693  2.1304
   97SAPC   C14 9505   3.105   1.321   1.953 -0.0517  0.1696  0.4300
   97SAPC  H14A 9506   3.159   1.233   1.986 -3.8040 -2.4569  0.2404
   97SAPC  H14B 9507   3.157   1.371   1.873 -1.4847 -0.0352 -0.6567
   97SAPC  H14C 9508   3.107   1.403   2.023 -0.6925  0.5589  0.0060
   97SAPC   C15 9509   2.971   1.182   1.811 -0.1197  0.3499 -0.0323
   97SAPC  H15A 9510   2.880   1.126   1.797  1.6804 -2.5042 -1.2699
   97SAPC  H15B 9511   2.998   1.241   1.725 -1.6793  3.3152  1.3581
   97SAPC  H15C 9512   3.049   1.110   1.829 -1.1445 -0.3292  1.9658
   97SAPC   C11 9513   2.995   1.115   2.133 -0.5490  0.5666 -0.1066
   97SAPC  H11A 9514   2.938   1.075   2.220  1.6824 -2.0155  0.3313
   97SAPC  H11B 9515   3.069   1.182   2.182 -0.8064  0.0108  1.0978
   97SAPC     P 9516   2.955   0.876   2.020 -0.4617  0.3427 -0.0536
   97SAPC   O13 9517   2.835   0.911   1.957 -0.1994  0.2702 -0.1039
   97SAPC   O14 9518   3.034   0.772   1.944 -0.0219  0.4694  0.6382
   97SAPC   O12 9519   3.049   1.006   2.059  0.8807  0.2761 -0.0273
   97SAPC   O11 9520   2.922   0.810   2.160  0.3100 -0.2152 -0.2033
   97SAPC    C1 9521   3.024   0.764   2.246 -0.1866 -0.7596  0.5016
   97SAPC    HA 9522   3.082   0.682   2.200 -2.4240 -1.3694 -1.4189
   97SAPC    HB 9523   3.096   0.848   2.254  0.7655 -0.8622 -4.2073
   97SAPC    C2 9524   2.967   0.721   2.385  0.1315 -0.0162  0.1449
   97SAPC    HS 9525   3.053   0.672   2.437  0.1200 -1.8694 -1.4685
   97SAPC   O21 9526   2.853   0.636   2.365  0.4030 -0.2665  0.3004
   97SAPC   C21 9527   2.876   0.507   2.350 -0.4532  0.1118 -0.7570
   97SAPC   O22 9528   2.977   0.455   2.329  0.7480  0.1268  0.0705
   97SAPC   C22 9529   2.745   0.432   2.370 -0.4874 -0.5709  0.1038
   97SAPC   H2R 9530   2.696   0.450   2.271 -1.0964 -0.3406  0.4441
   97SAPC   H2S 9531   2.763   0.322   2.366  2.3907 -0.1372 -0.7844
   97SAPC    C3 9532   2.924   0.842   2.468 -0.1026  0.4411  0.0419
   97SAPC    HX 9533   2.846   0.817   2.544  0.3009  0.9920  0.6467
   97SAPC    HY 9534   2.870   0.894   2.386  0.6052 -2.1039 -2.2174
   97SAPC   O31 9535   3.038   0.930   2.512  0.3212  0.5266  0.4472
   97SAPC   C31 9536   3.086   0.884   2.633  0.3230 -0.2181 -0.6501
   97SAPC   O32 9537   3.055   0.785   2.694 -0.1970 -0.2725 -0.6483
   97SAPC   C32 9538   3.200   0.983   2.681 -0.2923  0.7979  0.3963
   97SAPC   H2X 9539   3.164   1.088   2.680  0.6212  1.1186  0.1853
   97SAPC   H2Y 9540   3.283   0.974   2.607 -1.2430  3.7884 -1.2059
   97SAPC   C23 9541   2.667   0.466   2.498  0.0249 -0.1603  0.5988
   97SAPC   H3R 9542   2.576   0.403   2.497  0.7528 -1.2610 -1.3354
   97SAPC   H3S 9543   2.651   0.575   2.514  2.3453  0.7167 -2.1945
   97SAPC   C24 9544   2.742   0.421   2.635 -0.4488  0.7163  0.0193
   97SAPC   H4R 9545   2.847   0.455   2.619 -0.0574 -0.1686  0.6475
   97SAPC   H4S 9546   2.742   0.310   2.634 -0.5521  0.6905  1.3877
   97SAPC   C25 9547   2.680   0.463   2.766  0.0190  0.2290  0.2656
   97SAPC   H5R 9548   2.574   0.494   2.764  0.2162  1.2889  2.6916
   97SAPC   C26 9549   2.736   0.463   2.890 -0.1421 -0.0037 -0.1834
   97SAPC   H6R 9550   2.672   0.475   2.978  1.3115  0.7198  0.8063
   97SAPC   C27 9551   2.877   0.425   2.926  0.6599  0.1336 -0.0636
   97SAPC   H7R 9552   2.928   0.370   2.844 -0.4467 -2.0255  0.6170
   97SAPC   H7S 9553   2.853   0.362   3.014  0.0112 -0.0174 -0.3364
   97SAPC   C28 9554   2.966   0.537   2.964 -0.1567 -0.3139 -0.2313
   97SAPC   H8R 9555   3.024   0.575   2.878  0.2772 -2.0079 -0.7140
   97SAPC   C29 9556   2.989   0.582   3.085 -0.9879  0.1743  0.0186
   97SAPC   H9R 9557   3.059   0.666   3.097 -0.0056 -0.1991 -2.6288
   97SAPC  C210 9558   2.928   0.523   3.215 -0.1459 -0.2068  0.7566
   97SAPC  H10R 9559   3.010   0.489   3.281 -0.6563 -2.0788  0.4620
   97SAPC  H10S 9560   2.872   0.428   3.203  0.3098 -0.7990  2.9424
   97SAPC  C211 9561   2.843   0.623   3.290 -0.5840  0.2244  0.1595
   97SAPC  H11R 9562   2.774   0.677   3.222 -0.3327  0.5218  0.1384
   97SAPC  C212 9563   2.835   0.645   3.421  0.2874 -0.0483  0.1447
   97SAPC  H12R 9564   2.761   0.716   3.461  1.4655  1.2631  0.0665
   97SAPC  C213 9565   2.905   0.576   3.530 -0.4907 -0.4843  0.1963
   97SAPC  H13R 9566   3.003   0.530   3.504  0.3645  0.6954  1.2483
   97SAPC  H13S 9567   2.842   0.485   3.541 -1.9149  0.3879 -0.4597
   97SAPC  C214 9568   2.909   0.641   3.664 -0.4967  0.1721  0.7244
   97SAPC  H14R 9569   2.979   0.725   3.674  1.2985 -1.2522  0.5593
   97SAPC  C215 9570   2.835   0.611   3.773 -0.5280  0.0065 -0.0925
   97SAPC  H15R 9571   2.861   0.659   3.868 -1.5963  0.1537  0.1291
   97SAPC  C216 9572   2.726   0.510   3.788 -0.5067  0.1320  0.5444
   97SAPC  H16R 9573   2.764   0.414   3.829 -1.3596 -0.7401 -0.6245
   97SAPC  H16S 9574   2.683   0.471   3.693 -0.1467 -2.2273  1.2864
   97SAPC  C217 9575   2.606   0.564   3.872  0.2329 -0.2044  0.4790
   97SAPC  H17R 9576   2.518   0.497   3.866  0.7925 -0.8798 -0.7116
   97SAPC  H17S 9577   2.588   0.664   3.828  1.7798 -0.2275 -0.3037
   97SAPC  C218 9578   2.629   0.582   4.025 -0.3847 -0.4772 -0.7268
   97SAPC  H18R 9579   2.723   0.641   4.028  0.5144 -1.7455 -2.2532
   97SAPC  H18S 9580   2.648   0.484   4.073  1.9728 -0.0416 -0.6491
   97SAPC  C219 9581   2.510   0.658   4.086 -0.8015  0.4523  0.5197
   97SAPC  H19R 9582   2.416   0.600   4.072 -0.4914  0.2749 -1.0472
   97SAPC  H19S 9583   2.506   0.759   4.042  0.2922  0.9458  1.5123
   97SAPC  C220 9584   2.536   0.679   4.236  0.8787  0.1888  0.1726
   97SAPC  H20R 9585   2.509   0.586   4.291 -2.0022  1.8942  1.9053
   97SAPC  H20S 9586   2.467   0.763   4.260  2.4254  1.2120  1.2644
   97SAPC  H20T 9587   2.641   0.713   4.254  0.9123 -0.3208  1.0046
   97SAPC   C33 9588   3.259   0.941   2.821 -0.1300 -0.7049 -0.1893
   97SAPC   H3X 9589   3.342   1.012   2.842 -0.1118 -0.6061 -0.5820
   97SAPC   H3Y 9590   3.304   0.840   2.826 -0.3852 -0.9067 -1.5516
   97SAPC   C34 9591   3.167   0.964   2.937 -0.4907 -0.3371 -0.3649
   97SAPC   H4X 9592   3.069   0.913   2.924 -0.0659 -1.7193  1.4743
   97SAPC   H4Y 9593   3.143   1.072   2.941  1.3020  0.0686  0.1608
   97SAPC   C35 9594   3.225   0.923   3.071 -0.1851 -0.6060  0.2178
   97SAPC   H5X 9595   3.305   0.996   3.093 -1.9560  0.9276  1.9752
   97SAPC   H5Y 9596   3.279   0.827   3.055  0.3342 -0.7185  2.3485
   97SAPC   C36 9597   3.126   0.927   3.184  0.2032  0.5423 -0.3643
   97SAPC   H6X 9598   3.031   0.887   3.143  0.6149 -1.5065  0.5486
   97SAPC   H6Y 9599   3.101   1.034   3.201 -0.4805  0.6566 -1.8946
   97SAPC   C37 9600   3.169   0.838   3.305 -0.0114 -0.6850 -0.4000
   97SAPC   H7X 9601   3.276   0.845   3.336 -0.3167 -1.3105  0.8704
   97SAPC   H7Y 9602   3.146   0.730   3.295 -0.2875 -0.8805  1.8398
   97SAPC   C38 9603   3.096   0.903   3.421 -0.5676  0.3144  0.7842
   97SAPC   H8X 9604   3.088   0.820   3.494 -0.2549 -2.2938 -1.9152
   97SAPC   H8Y 9605   2.997   0.936   3.382 -0.7096 -0.5037  0.4193
   97SAPC   C39 9606   3.170   1.020   3.489  0.7617 -0.8276  0.5949
   97SAPC   H9X 9607   3.203   1.100   3.419 -0.4712  0.2222  1.1919
   97SAPC   H9Y 9608   3.266   0.978   3.527  1.5460  2.0403  2.0106
   97SAPC  C310 9609   3.088   1.077   3.596 -0.0988  0.2328  0.3500
   97SAPC  H10X 9610   3.041   1.000   3.662  1.3499  0.0548  1.2121
   97SAPC  H10Y 9611   3.003   1.137   3.557  0.4851  0.7137 -0.2198
   97SAPC  C311 9612   3.167   1.155   3.696  0.5765  0.1777  0.0394
   97SAPC  H11X 9613   3.209   1.242   3.641 -1.6632  0.5543 -1.1852
   97SAPC  H11Y 9614   3.247   1.086   3.733 -0.8829 -1.5123  0.1700
   97SAPC  C312 9615   3.073   1.190   3.813  0.3438 -0.4511  0.7255
   97SAPC  H12X 9616   3.036   1.099   3.865 -1.4679  0.8497  1.8331
   97SAPC  H12Y 9617   2.981   1.238   3.773 -0.8588 -0.6877  2.9945
   97SAPC  C313 9618   3.142   1.295   3.911  0.6067 -0.5092 -0.3595
   97SAPC  H13X 9619   3.170   1.385   3.854 -1.2557  0.7806  0.6529
   97SAPC  H13Y 9620   3.242   1.257   3.942  0.4845  0.2452  1.0595
   97SAPC  C314 9621   3.049   1.328   4.030 -0.5859  0.1987 -0.0546
   97SAPC  H14X 9622   3.119   1.383   4.097  0.8994  1.2620 -2.3427
   97SAPC  H14Y 9623   3.034   1.229   4.078 -0.2404  0.5272  0.7468
   97SAPC  C315 9624   2.928   1.420   4.008 -0.1952  0.4385 -0.1857
   97SAPC  H15X 9625   2.859   1.382   3.931 -1.2900 -0.2418  1.0902
   97SAPC  H15Y 9626   2.967   1.516   3.966 -0.5533 -0.0084 -1.5824
   97SAPC  C316 9627   2.848   1.454   4.133  0.3462  0.0977 -0.0325
   97SAPC  H16X 9628   2.916   1.473   4.219  1.4315  0.1290 -0.8685
   97SAPC  H16Y 9629   2.797   1.359   4.158 -2.6314  1.3713 -0.8105
   97SAPC  C317 9630   2.741   1.563   4.127 -0.3124  0.8879  0.3690
   97SAPC  H17X 9631   2.791   1.661   4.114  2.1198 -0.1345  1.4500
   97SAPC  H17Y 9632   2.696   1.549   4.228 -0.7121 -0.7376  0.0010
   97SAPC  C318 9633   2.636   1.542   4.018 -0.4900  0.7866  0.4550
   97SAPC  H18X 9634   2.568   1.630   4.013  0.4583  1.5921  1.3387
   97SAPC  H18Y 9635   2.579   1.447   4.024 -0.1316  0.5584  0.3234
   97SAPC  H18Z 9636   2.689   1.537   3.920 -1.2030 -1.1042  0.1245
   98SAPC     N 9637   6.660   0.985   2.092  0.5368 -0.9270 -0.1558
   98SAPC   C12 9638   6.695   1.075   1.979  0.0797  0.5124 -0.0897
   98SAPC  H12A 9639   6.612   1.139   1.956 -0.1268  0.2392 -0.1134
   98SAPC  H12B 9640   6.708   1.017   1.888 -0.8398 -0.9724  0.6975
   98SAPC   C13 9641   6.524   0.935   2.067  0.7952  0.1618 -0.1023
   98SAPC  H13A 9642   6.488   0.869   2.145  2.7473  1.3728  1.9298
   98SAPC  H13B 9643   6.456   1.017   2.048  0.5489  0.0198  0.1607
   98SAPC  H13C 9644   6.510   0.875   1.978 -1.3962 -0.3482  0.5099
   98SAPC   C14 9645   6.744   0.860   2.085  0.0348 -0.3396  0.6804
   98SAPC  H14A 9646   6.850   0.880   2.084 -0.1140  0.5359  1.0344
   98SAPC  H14B 9647   6.730   0.792   2.168 -1.3108 -0.1264  0.6618
   98SAPC  H14C 9648   6.723   0.804   1.995 -0.6749 -1.0773  1.2807
   98SAPC   C15 9649   6.665   1.051   2.233 -0.3332  0.1831  0.1314
   98SAPC  H15A 9650   6.762   1.091   2.258  0.8468 -3.4232  2.0466
   98SAPC  H15B 9651   6.595   1.132   2.246 -2.4235 -1.2167 -1.6363
   98SAPC  H15C 9652   6.647   0.980   2.312 -2.2158 -1.1257 -1.3831
   98SAPC   C11 9653   6.819   1.172   2.004  0.4440  0.5357 -0.0092
   98SAPC  H11A 9654   6.817   1.244   2.089  0.5663  0.5720 -0.0371
   98SAPC  H11B 9655   6.824   1.229   1.909 -0.2805 -0.2499 -0.5333
   98SAPC     P 9656   7.045   1.087   2.113  0.3367 -0.2771  0.2462
   98SAPC   O13 9657   7.092   0.954   2.133  0.0672 -0.2239  0.2924
   98SAPC   O14 9658   7.141   1.197   2.084 -0.2622 -0.0385  0.4707
   98SAPC   O12 9659   6.935   1.088   2.008 -0.1927  0.3514 -0.3380
   98SAPC   O11 9660   6.976   1.133   2.246 -0.0807  0.0277 -0.2770
   98SAPC    C1 9661   7.053   1.181   2.357 -0.0368 -0.2598  0.3746
   98SAPC    HA 9662   7.163   1.162   2.349 -0.1395 -1.2150  1.0193
   98SAPC    HB 9663   7.049   1.292   2.366  2.3315 -0.0035 -0.8443
   98SAPC    C2 9664   6.998   1.120   2.489  0.0212  0.0690 -0.1041
   98SAPC    HS 9665   6.893   1.156   2.488 -0.2328 -0.6458 -1.0736
   98SAPC   O21 9666   7.064   1.158   2.607  0.4149 -0.0047  0.1980
   98SAPC   C21 9667   6.994   1.195   2.714  0.0114 -0.0508 -0.3198
   98SAPC   O22 9668   6.873   1.197   2.716  0.3586 -0.4222  0.3332
   98SAPC   C22 9669   7.077   1.253   2.824 -0.6230 -0.1906 -0.5947
   98SAPC   H2R 9670   7.181   1.261   2.786  0.4213  0.7989  2.2224
   98SAPC   H2S 9671   7.033   1.354   2.828 -1.2300 -0.4112 -1.4659
   98SAPC    C3 9672   6.979   0.961   2.478 -0.2220 -0.5878 -0.1015
   98SAPC    HX 9673   7.081   0.927   2.450 -0.7096 -0.7788 -1.7562
   98SAPC    HY 9674   6.917   0.929   2.392 -1.2694 -0.0083  0.4165
   98SAPC   O31 9675   6.937   0.885   2.593  0.3934 -0.1988 -1.1352
   98SAPC   C31 9676   6.808   0.853   2.597 -0.0272 -0.3407 -0.1723
   98SAPC   O32 9677   6.726   0.870   2.506 -0.9586 -0.2026  0.1699
   98SAPC   C32 9678   6.770   0.759   2.712  0.5767 -0.7228  0.2894
   98SAPC   H2X 9679   6.788   0.654   2.682 -3.6020 -0.9330 -2.3345
   98SAPC   H2Y 9680   6.661   0.773   2.697  0.8890  0.5325 -1.0830
   98SAPC   C23 9681   7.076   1.173   2.954  0.9929 -0.4152  0.4086
   98SAPC   H3R 9682   7.125   1.073   2.952  0.2273 -0.8003  0.6954
   98SAPC   H3S 9683   6.969   1.158   2.977  1.2440 -1.3003  1.0254
   98SAPC   C24 9684   7.136   1.249   3.075  0.1431 -0.1196  0.2606
   98SAPC   H4R 9685   7.099   1.354   3.076  3.7097  1.2981 -0.1898
   98SAPC   H4S 9686   7.244   1.261   3.051  0.6411  1.0463  2.7606
   98SAPC   C25 9687   7.105   1.159   3.197  0.0650  0.1543  1.1445
   98SAPC   H5R 9688   7.151   1.059   3.203 -3.3819 -1.6136  0.6402
   98SAPC   C26 9689   7.015   1.198   3.292  0.0014  0.2088 -0.2982
   98SAPC   H6R 9690   7.014   1.141   3.386  1.0973  1.2267  0.3596
   98SAPC   C27 9691   6.941   1.330   3.292 -0.0667  0.2550 -0.4774
   98SAPC   H7R 9692   6.847   1.317   3.350 -0.7042  1.9410 -1.0438
   98SAPC   H7S 9693   6.903   1.343   3.188 -2.0352 -0.0706  0.1569
   98SAPC   C28 9694   7.009   1.453   3.350  0.0029  0.6842  0.4545
   98SAPC   H8R 9695   7.118   1.442   3.363 -0.1935 -0.3653  1.4193
   98SAPC   C29 9696   6.949   1.557   3.404  0.0416  0.5324  0.1987
   98SAPC   H9R 9697   7.010   1.629   3.461 -0.7333  0.6952  0.8512
   98SAPC  C210 9698   6.806   1.575   3.416  0.9464  0.0105  0.2978
   98SAPC  H10R 9699   6.768   1.528   3.509 -0.4695  1.3545  0.4393
   98SAPC  H10S 9700   6.751   1.533   3.329  0.1805 -0.1099  0.8325
   98SAPC  C211 9701   6.783   1.725   3.430 -0.1957 -0.0606  0.3994
   98SAPC  H11R 9702   6.868   1.789   3.403  0.6751 -1.8095 -1.2626
   98SAPC  C212 9703   6.666   1.779   3.471  0.8605 -0.4043  0.3310
   98SAPC  H12R 9704   6.659   1.889   3.469 -1.1649 -0.5155 -1.6396
   98SAPC  C213 9705   6.531   1.714   3.510 -0.6670  0.6210 -0.9150
   98SAPC  H13R 9706   6.546   1.683   3.616  0.6219  0.3440 -1.1583
   98SAPC  H13S 9707   6.512   1.627   3.444 -2.4367  0.2103  0.0606
   98SAPC  C214 9708   6.422   1.806   3.505 -0.0470 -0.1869 -0.5490
   98SAPC  H14R 9709   6.409   1.860   3.600  1.1408 -0.6344 -0.1154
   98SAPC  C215 9710   6.339   1.811   3.400  0.2282 -0.3535  0.6279
   98SAPC  H15R 9711   6.249   1.873   3.391  0.0917 -0.8453 -2.3450
   98SAPC  C216 9712   6.362   1.746   3.262 -0.0298  0.3615  0.5504
   98SAPC  H16R 9713   6.461   1.695   3.264  0.6087  1.5754  0.6317
   98SAPC  H16S 9714   6.364   1.828   3.187 -1.2340  0.0582  0.1529
   98SAPC  C217 9715   6.253   1.660   3.214 -0.1079  1.0372 -0.5786
   98SAPC  H17R 9716   6.168   1.731   3.206 -1.5810 -0.4272  1.1807
   98SAPC  H17S 9717   6.220   1.590   3.294 -0.5089  0.7132 -1.0185
   98SAPC  C218 9718   6.280   1.583   3.083  0.2767  0.0886 -0.5496
   98SAPC  H18R 9719   6.199   1.510   3.065 -0.6349  0.7948  0.5921
   98SAPC  H18S 9720   6.375   1.525   3.089  0.6980  0.7026 -1.0899
   98SAPC  C219 9721   6.300   1.658   2.954  0.1717 -0.0848 -0.2062
   98SAPC  H19R 9722   6.373   1.741   2.967 -1.0510  0.6665  2.6688
   98SAPC  H19S 9723   6.208   1.709   2.918 -0.6937 -2.2451 -1.2149
   98SAPC  C220 9724   6.332   1.565   2.837  0.4415 -0.3821 -0.4801
   98SAPC  H20R 9725   6.350   1.620   2.743  3.0738 -1.2935 -0.5926
   98SAPC  H20S 9726   6.243   1.501   2.819 -1.9536  2.2618  1.1630
   98SAPC  H20T 9727   6.414   1.496   2.866 -0.5125 -0.9835  0.9481
   98SAPC   C33 9728   6.841   0.798   2.847  0.0155  0.2627 -0.8074
   98SAPC   H3X 9729   6.944   0.820   2.814 -0.6480  1.5253 -2.1624
   98SAPC   H3Y 9730   6.845   0.714   2.919  0.4520  0.6808 -0.3376
   98SAPC   C34 9731   6.772   0.916   2.914  0.3815  0.9963 -0.3664
   98SAPC   H4X 9732   6.747   0.989   2.833 -3.0318 -1.1156 -1.4368
   98SAPC   H4Y 9733   6.843   0.951   2.992  0.2506 -1.7283  1.0919
   98SAPC   C35 9734   6.633   0.873   2.972 -0.5443 -0.4168  0.3872
   98SAPC   H5X 9735   6.611   0.768   2.942  1.4112 -0.5328 -0.8256
   98SAPC   H5Y 9736   6.562   0.937   2.915 -0.4969 -2.6409 -2.4227
   98SAPC   C36 9737   6.614   0.907   3.120  0.1022  0.0725 -0.3705
   98SAPC   H6X 9738   6.511   0.885   3.155 -0.6823 -0.5542 -2.9205
   98SAPC   H6Y 9739   6.639   1.013   3.142 -0.9501  0.7170 -2.1317
   98SAPC   C37 9740   6.710   0.819   3.197 -0.2062  0.4330  0.0463
   98SAPC   H7X 9741   6.815   0.843   3.168  0.2171 -1.4070 -0.0189
   98SAPC   H7Y 9742   6.687   0.712   3.177 -1.6770  0.3030  2.1409
   98SAPC   C38 9743   6.699   0.819   3.351 -0.1311 -0.2508  0.0316
   98SAPC   H8X 9744   6.774   0.751   3.398 -2.7299 -2.3008  1.5181
   98SAPC   H8Y 9745   6.598   0.782   3.379 -1.1351  0.6900 -2.1251
   98SAPC   C39 9746   6.712   0.956   3.419 -0.2603  0.5606  0.4326
   98SAPC   H9X 9747   6.631   1.025   3.387 -1.0285 -0.3623  0.3458
   98SAPC   H9Y 9748   6.809   1.007   3.397 -0.9028  1.3068 -0.7630
   98SAPC  C310 9749   6.693   0.960   3.565  0.4814 -0.2860  0.2410
   98SAPC  H10X 9750   6.769   0.894   3.611  0.5254 -0.2595  0.2061
   98SAPC  H10Y 9751   6.593   0.919   3.591  0.6595 -0.6287  0.3975
   98SAPC  C311 9752   6.715   1.097   3.626 -0.5186 -0.0881 -0.1013
   98SAPC  H11X 9753   6.669   1.100   3.726  1.3366 -0.9580  0.8243
   98SAPC  H11Y 9754   6.672   1.176   3.560 -0.2739 -0.4468 -0.7050
   98SAPC  C312 9755   6.864   1.133   3.657  0.1990  0.5267 -0.2974
   98SAPC  H12X 9756   6.885   1.241   3.672 -1.2561  0.8710 -0.5088
   98SAPC  H12Y 9757   6.921   1.097   3.569  0.9382  2.2916 -0.5791
   98SAPC  C313 9758   6.907   1.051   3.785 -0.6600  0.4638  0.0751
   98SAPC  H13X 9759   6.866   0.948   3.775  0.3625  0.0412  0.0536
   98SAPC  H13Y 9760   6.862   1.098   3.875 -0.4302 -1.6414  1.3598
   98SAPC  C314 9761   7.057   1.044   3.804  0.0024 -0.9967  0.0039
   98SAPC  H14X 9762   7.087   1.151   3.809 -3.9831  0.2732 -0.1390
   98SAPC  H14Y 9763   7.085   0.991   3.711  0.1902 -2.1452  0.6933
   98SAPC  C315 9764   7.115   0.964   3.926  0.5760 -0.2990  0.0799
   98SAPC  H15X 9765   7.202   0.910   3.883  0.9174  2.5874 -3.2631
   98SAPC  H15Y 9766   7.040   0.891   3.964  0.2356 -0.3175 -0.6223
   98SAPC  C316 9767   7.124   1.063   4.041 -0.2967 -0.3188  0.3133
   98SAPC  H16X 9768   7.022   1.097   4.069 -0.1688 -0.3017  0.7668
   98SAPC  H16Y 9769   7.185   1.151   4.014 -2.0402  0.8467 -0.0270
   98SAPC  C317 9770   7.196   1.000   4.159  0.2233  0.4222 -0.2268
   98SAPC  H17X 9771   7.150   0.899   4.170  1.8551 -0.0663  4.1923
   98SAPC  H17Y 9772   7.168   1.054   4.252  2.9038  1.5927 -0.0242
   98SAPC  C318 9773   7.348   0.991   4.130 -0.5611 -0.5878  0.5470
   98SAPC  H18X 9774   7.392   1.093   4.133 -0.8604 -0.4803  1.8824
   98SAPC  H18Y 9775   7.360   0.943   4.031 -0.0155 -0.7296  0.6802
   98SAPC  H18Z 9776   7.393   0.932   4.212  0.1509  0.1831  0.7253
   99SAPC     N 9777   5.246   5.281   2.145 -0.3109  0.0740 -0.3765
   99SAPC   C12 9778   5.219   5.278   2.300 -0.3690 -0.5000 -0.8219
   99SAPC  H12A 9779   5.274   5.192   2.335  1.7675  0.2688 -2.1518
   99SAPC  H12B 9780   5.114   5.254   2.311 -0.3507 -0.3457 -0.2872
   99SAPC   C13 9781   5.381   5.258   2.124 -0.5554 -0.1223 -0.1129
   99SAPC  H13A 9782   5.422   5.181   2.188 -1.3231 -0.8682 -0.4863
   99SAPC  H13B 9783   5.405   5.263   2.019 -0.3536 -1.0867 -0.1208
   99SAPC  H13C 9784   5.428   5.344   2.169 -0.3313  0.1459 -0.8542
   99SAPC   C14 9785   5.173   5.170   2.073 -0.2619  0.1481 -0.1074
   99SAPC  H14A 9786   5.067   5.187   2.086 -0.1589  0.3992  0.4354
   99SAPC  H14B 9787   5.207   5.168   1.970 -0.9934 -2.5222 -0.3609
   99SAPC  H14C 9788   5.197   5.074   2.116  0.6650 -0.2210 -1.3920
   99SAPC   C15 9789   5.189   5.408   2.091 -0.2825 -0.7710  0.3531
   99SAPC  H15A 9790   5.248   5.492   2.124  0.0352 -0.8989  0.1245
   99SAPC  H15B 9791   5.202   5.412   1.983  0.1325 -1.2796  0.3781
   99SAPC  H15C 9792   5.088   5.426   2.123 -1.1950 -2.2170 -1.5401
   99SAPC   C11 9793   5.250   5.402   2.402  0.4663 -0.3499 -0.4445
   99SAPC  H11A 9794   5.214   5.360   2.498 -1.1786  0.1331 -0.8165
   99SAPC  H11B 9795   5.202   5.500   2.382  0.0364 -0.0533  1.7993
   99SAPC     P 9796   5.485   5.355   2.497  0.2146  0.1950  0.2302
   99SAPC   O13 9797   5.429   5.220   2.522 -0.3610  0.4153  0.1851
   99SAPC   O14 9798   5.625   5.364   2.453  0.4772 -0.0325 -0.4292
   99SAPC   O12 9799   5.387   5.423   2.397 -0.7636 -0.0562 -0.1697
   99SAPC   O11 9800   5.461   5.441   2.627  0.0453  0.1287 -0.8677
   99SAPC    C1 9801   5.466   5.589   2.616 -0.0841  0.8560 -0.3840
   99SAPC    HA 9802   5.571   5.618   2.593 -0.9307  2.7859 -2.1209
   99SAPC    HB 9803   5.416   5.627   2.524  0.4028  1.3158 -0.4648
   99SAPC    C2 9804   5.405   5.665   2.739 -0.5758  0.0522  0.2562
   99SAPC    HS 9805   5.392   5.771   2.708 -3.6036 -0.5244 -0.8482
   99SAPC   O21 9806   5.480   5.654   2.859 -0.0830 -0.1113  0.1224
   99SAPC   C21 9807   5.597   5.718   2.865  0.6922 -1.1046  0.5343
   99SAPC   O22 9808   5.637   5.783   2.768 -0.0633  0.5131  0.1816
   99SAPC   C22 9809   5.664   5.688   3.002 -0.0615  0.1311  0.3083
   99SAPC   H2R 9810   5.635   5.582   3.018 -0.4169  0.2909  0.7352
   99SAPC   H2S 9811   5.775   5.690   2.999 -0.0912  0.7362 -1.3079
   99SAPC    C3 9812   5.251   5.629   2.761  1.1343 -0.5321  0.4445
   99SAPC    HX 9813   5.233   5.523   2.785  1.6359 -0.6835  0.1625
   99SAPC    HY 9814   5.215   5.655   2.659  0.1221 -0.0838  0.9008
   99SAPC   O31 9815   5.192   5.711   2.870 -0.8829 -0.3752  0.2530
   99SAPC   C31 9816   5.065   5.720   2.877  0.7216 -0.2701  0.2310
   99SAPC   O32 9817   4.984   5.692   2.791  0.4031  0.1449 -0.2905
   99SAPC   C32 9818   5.027   5.789   3.011 -0.3041 -0.3487  0.2714
   99SAPC   H2X 9819   5.035   5.899   2.995 -0.6662 -0.1360  1.4705
   99SAPC   H2Y 9820   5.101   5.761   3.089  2.0183 -0.3868 -1.8020
   99SAPC   C23 9821   5.609   5.789   3.115  0.2462 -0.0626 -0.3057
   99SAPC   H3R 9822   5.504   5.764   3.140  0.8882 -1.1004  1.5166
   99SAPC   H3S 9823   5.595   5.888   3.068 -0.9305  1.0102  2.1372
   99SAPC   C24 9824   5.696   5.791   3.241 -0.6320  0.7414 -0.2753
   99SAPC   H4R 9825   5.684   5.884   3.301 -0.4799  0.0899  0.7894
   99SAPC   H4S 9826   5.802   5.791   3.207 -1.0909 -0.1825 -1.8255
   99SAPC   C25 9827   5.690   5.664   3.324  0.3434 -0.6184 -0.0607
   99SAPC   H5R 9828   5.681   5.569   3.268  0.8777 -0.5994 -0.1822
   99SAPC   C26 9829   5.708   5.667   3.455 -0.4504 -0.4625  0.3300
   99SAPC   H6R 9830   5.722   5.570   3.504 -0.9577 -0.8138 -0.2102
   99SAPC   C27 9831   5.730   5.787   3.545 -0.1497 -0.2413  0.1723
   99SAPC   H7R 9832   5.679   5.763   3.641 -2.9183  0.8766 -0.9394
   99SAPC   H7S 9833   5.671   5.870   3.502 -2.4129 -2.6470 -1.6565
   99SAPC   C28 9834   5.873   5.831   3.574  0.3663  0.9496  0.6436
   99SAPC   H8R 9835   5.956   5.769   3.539 -0.8271  0.1953 -1.0362
   99SAPC   C29 9836   5.905   5.940   3.647 -0.7378  0.4833 -0.1026
   99SAPC   H9R 9837   6.011   5.964   3.665 -0.8892  0.4355  0.9133
   99SAPC  C210 9838   5.800   6.032   3.712  0.4337  0.3666 -0.6103
   99SAPC  H10R 9839   5.740   5.980   3.790 -0.1549 -0.2144 -1.4473
   99SAPC  H10S 9840   5.717   6.061   3.644 -0.5675  0.7075  0.7088
   99SAPC  C211 9841   5.857   6.162   3.775  0.4181  0.0674 -0.4443
   99SAPC  H11R 9842   5.847   6.250   3.710 -0.9682  0.6671  0.5341
   99SAPC  C212 9843   5.922   6.175   3.890  0.1122 -0.1766 -0.1675
   99SAPC  H12R 9844   5.962   6.274   3.914  3.4515 -1.1762 -1.1300
   99SAPC  C213 9845   5.955   6.058   3.984  0.1279  0.8568  0.3299
   99SAPC  H13R 9846   6.033   5.991   3.944  0.1590  0.0786  1.6490
   99SAPC  H13S 9847   5.865   5.993   3.984  1.1352 -0.6597 -1.7153
   99SAPC  C214 9848   6.008   6.111   4.115 -0.5357  0.2334  0.5278
   99SAPC  H14R 9849   6.118   6.115   4.117 -0.3963 -1.2562 -1.3256
   99SAPC  C215 9850   5.937   6.152   4.223 -0.0111  0.1996 -0.4064
   99SAPC  H15R 9851   5.997   6.179   4.311  0.2487 -3.7628  0.8261
   99SAPC  C216 9852   5.783   6.135   4.237 -0.3816 -0.2140  0.8643
   99SAPC  H16R 9853   5.762   6.123   4.346 -1.0264  0.6688  0.8486
   99SAPC  H16S 9854   5.757   6.050   4.171  3.1571 -1.0382  0.3106
   99SAPC  C217 9855   5.717   6.262   4.197 -0.1363  0.0976 -0.1279
   99SAPC  H17R 9856   5.757   6.300   4.101 -2.0490  1.5096 -0.4158
   99SAPC  H17S 9857   5.747   6.344   4.266 -1.8235  2.0640 -1.5926
   99SAPC  C218 9858   5.562   6.260   4.187 -0.0152  0.0694 -0.5309
   99SAPC  H18R 9859   5.523   6.227   4.285  0.3458 -1.2241 -0.7976
   99SAPC  H18S 9860   5.526   6.189   4.109 -1.0017  1.2585 -1.1882
   99SAPC  C219 9861   5.506   6.399   4.168  0.1413 -0.2311  0.2308
   99SAPC  H19R 9862   5.573   6.461   4.104  0.8121  0.1736  1.2961
   99SAPC  H19S 9863   5.510   6.433   4.274 -0.2987 -1.5001  0.6703
   99SAPC  C220 9864   5.365   6.392   4.109 -0.1935 -0.0782  0.0246
   99SAPC  H20R 9865   5.327   6.490   4.074  1.0054  0.1892 -0.5793
   99SAPC  H20S 9866   5.295   6.346   4.182 -0.7343  2.0070  0.8943
   99SAPC  H20T 9867   5.369   6.331   4.016 -0.5762 -0.4915  0.2751
   99SAPC   C33 9868   4.880   5.756   3.051 -0.3351  0.1973 -0.2127
   99SAPC   H3X 9869   4.866   5.646   3.062 -2.3208  0.4990  0.6850
   99SAPC   H3Y 9870   4.810   5.784   2.970 -2.3261 -0.4808  1.1976
   99SAPC   C34 9871   4.821   5.835   3.170 -0.5100  0.4760 -0.2529
   99SAPC   H4X 9872   4.723   5.785   3.187  0.3687 -1.5968 -0.9269
   99SAPC   H4Y 9873   4.815   5.941   3.141  0.3607  0.2735 -1.2196
   99SAPC   C35 9874   4.905   5.821   3.295  0.4279 -0.1673 -0.8459
   99SAPC   H5X 9875   5.010   5.855   3.279 -0.0887  0.8264 -2.3504
   99SAPC   H5Y 9876   4.904   5.713   3.322 -0.6304 -0.3316 -1.4960
   99SAPC   C36 9877   4.850   5.912   3.406 -0.4241 -0.1575 -0.3035
   99SAPC   H6X 9878   4.739   5.909   3.409 -0.4509  1.1546  1.0398
   99SAPC   H6Y 9879   4.887   6.015   3.389  2.0830 -0.3553  2.8446
   99SAPC   C37 9880   4.906   5.879   3.547 -0.7633 -0.3512  0.2842
   99SAPC   H7X 9881   5.004   5.929   3.561 -2.3511  2.7702  1.1844
   99SAPC   H7Y 9882   4.902   5.770   3.567  1.2630 -0.0130  3.1773
   99SAPC   C38 9883   4.805   5.939   3.649  0.1101  1.2243 -0.0081
   99SAPC   H8X 9884   4.705   5.903   3.615 -0.4863  3.4954 -0.8171
   99SAPC   H8Y 9885   4.794   6.049   3.645 -1.8386  1.1040  0.5767
   99SAPC   C39 9886   4.828   5.903   3.797  0.0993  0.1979  0.4261
   99SAPC   H9X 9887   4.936   5.919   3.815  0.2359  1.3244 -1.1537
   99SAPC   H9Y 9888   4.807   5.798   3.825 -3.4687  0.9817  1.1350
   99SAPC  C310 9889   4.740   5.993   3.888 -0.9582  0.0703  0.8059
   99SAPC  H10X 9890   4.729   5.953   3.991 -1.8963 -0.3169  0.5611
   99SAPC  H10Y 9891   4.645   6.001   3.832 -0.7132  1.4204  0.5543
   99SAPC  C311 9892   4.788   6.135   3.899 -0.9413 -0.4511  0.2404
   99SAPC  H11X 9893   4.707   6.211   3.908  0.2623  0.7577  1.3378
   99SAPC  H11Y 9894   4.855   6.166   3.815 -2.0795  0.5330 -0.3338
   99SAPC  C312 9895   4.868   6.171   4.031  0.5206  0.5169 -0.0941
   99SAPC  H12X 9896   4.927   6.265   4.021 -1.5352  1.7592 -1.3070
   99SAPC  H12Y 9897   4.953   6.100   4.038 -0.1699 -0.5390 -1.8675
   99SAPC  C313 9898   4.790   6.168   4.169  0.1983  0.1529  0.4109
   99SAPC  H13X 9899   4.858   6.215   4.243 -0.6945 -1.1392  2.1023
   99SAPC  H13Y 9900   4.785   6.061   4.199  4.0233 -0.4502 -0.5354
   99SAPC  C314 9901   4.655   6.240   4.180  0.7265 -0.2125  0.1104
   99SAPC  H14X 9902   4.574   6.187   4.125 -0.5450  1.4054  0.3583
   99SAPC  H14Y 9903   4.671   6.344   4.145  0.5492  0.2578  1.3960
   99SAPC  C315 9904   4.603   6.248   4.326  0.6241  0.0291  0.7605
   99SAPC  H15X 9905   4.507   6.304   4.325  0.9470  0.7198  2.8511
   99SAPC  H15Y 9906   4.668   6.316   4.386 -1.9201  3.1247  0.2890
   99SAPC  C316 9907   4.580   6.108   4.380 -0.0608  0.3331 -0.1553
   99SAPC  H16X 9908   4.682   6.063   4.373 -0.4271 -0.6127  0.5230
   99SAPC  H16Y 9909   4.513   6.052   4.311 -0.2013 -0.4211  0.5766
   99SAPC  C317 9910   4.527   6.118   4.525  0.2723 -0.3655 -0.9498
   99SAPC  H17X 9911   4.507   6.016   4.564 -1.2637 -0.0919 -0.9611
   99SAPC  H17Y 9912   4.431   6.174   4.524  1.7193  2.3144 -0.5842
   99SAPC  C318 9913   4.615   6.203   4.622  0.3903 -0.4453  0.2332
   99SAPC  H18X 9914   4.564   6.197   4.721 -0.3046  0.3802 -0.0634
   99SAPC  H18Y 9915   4.622   6.310   4.595 -1.0958 -0.4726 -0.3961
   99SAPC  H18Z 9916   4.714   6.157   4.641  0.2326 -0.5863  0.7200
  100SAPC     N 9917   2.308   4.117   1.401 -0.6198  0.0621  0.0501
  100SAPC   C12 9918   2.206   4.141   1.514 -0.0664 -0.5102  0.3612
  100SAPC  H12A 9919   2.108   4.110   1.482 -1.2994  1.8238  1.5588
  100SAPC  H12B 9920   2.189   4.248   1.523  0.4556 -0.0591 -2.8104
  100SAPC   C13 9921   2.435   4.197   1.422  0.1419 -0.1021 -0.1417
  100SAPC  H13A 9922   2.519   4.170   1.361  2.5301  1.7655  2.0714
  100SAPC  H13B 9923   2.418   4.304   1.419 -2.7871 -0.3520  2.6580
  100SAPC  H13C 9924   2.475   4.188   1.522  0.6145 -2.1707 -0.4764
  100SAPC   C14 9925   2.343   3.971   1.394  1.1279 -0.2835 -0.6568
  100SAPC  H14A 9926   2.259   3.906   1.378  0.3993  0.1046  1.3168
  100SAPC  H14B 9927   2.423   3.950   1.325  1.6698  1.4123 -0.5945
  100SAPC  H14C 9928   2.387   3.946   1.489  0.9008  2.9502  0.4502
  100SAPC   C15 9929   2.243   4.164   1.268  0.0739  0.5132 -0.1895
  100SAPC  H15A 9930   2.176   4.086   1.235  1.6945 -0.5937 -0.9529
  100SAPC  H15B 9931   2.171   4.243   1.282 -0.7776  0.1106 -2.0467
  100SAPC  H15C 9932   2.310   4.174   1.184  1.0037 -1.3677  0.2777
  100SAPC   C11 9933   2.220   4.076   1.655  0.2217  0.3338  0.5630
  100SAPC  H11A 9934   2.217   3.967   1.634 -2.9231  0.5248 -0.5905
  100SAPC  H11B 9935   2.126   4.088   1.713 -2.4320 -2.3001 -2.7234
  100SAPC     P 9936   2.327   4.222   1.831 -0.0941  0.2714  0.3935
  100SAPC   O13 9937   2.449   4.306   1.820 -0.0997 -0.7620 -1.0210
  100SAPC   O14 9938   2.203   4.298   1.812  0.1664 -0.0281 -0.1265
  100SAPC   O12 9939   2.337   4.110   1.721  0.2699  0.4852  0.0322
  100SAPC   O11 9940   2.328   4.138   1.970 -0.6965  0.1737  0.5801
  100SAPC    C1 9941   2.249   4.026   1.999 -0.1412 -0.3951 -0.0225
  100SAPC    HA 9942   2.164   4.009   1.929  1.2435  1.8654 -2.4339
  100SAPC    HB 9943   2.320   3.942   1.985 -0.0893 -0.1954 -1.0974
  100SAPC    C2 9944   2.191   4.028   2.139 -0.5805  0.2634 -0.3260
  100SAPC    HS 9945   2.126   4.118   2.141 -0.3576  0.4462 -0.9216
  100SAPC   O21 9946   2.285   4.048   2.251  0.4693  0.0543 -0.0294
  100SAPC   C21 9947   2.364   3.947   2.268 -0.1385 -0.7099 -0.3215
  100SAPC   O22 9948   2.357   3.839   2.211  0.0455  0.1833 -0.1369
  100SAPC   C22 9949   2.455   3.977   2.389  0.1831  0.4409 -0.6865
  100SAPC   H2R 9950   2.544   3.910   2.384 -0.0077  0.2022 -0.9062
  100SAPC   H2S 9951   2.494   4.081   2.387  0.5969  0.3141  0.2762
  100SAPC    C3 9952   2.087   3.912   2.168  0.0678 -0.8706  0.0574
  100SAPC    HX 9953   2.135   3.820   2.128  1.0524  0.1764 -1.2456
  100SAPC    HY 9954   1.996   3.928   2.106  0.7142  0.1765 -0.6552
  100SAPC   O31 9955   2.049   3.892   2.308 -0.0268 -0.3549 -0.4510
  100SAPC   C31 9956   1.973   3.985   2.355 -0.3154  0.8803 -0.1205
  100SAPC   O32 9957   1.941   4.094   2.311  0.4355 -0.3451  0.0788
  100SAPC   C32 9958   1.925   3.941   2.494 -0.0848  0.3599  0.2024
  100SAPC   H2X 9959   1.943   3.832   2.505 -0.8166 -0.1453 -2.7194
  100SAPC   H2Y 9960   1.819   3.974   2.495 -0.8711 -1.9405 -0.8839
  100SAPC   C23 9961   2.388   3.939   2.522  0.0513  1.0187 -1.0232
  100SAPC   H3R 9962   2.337   3.841   2.509  1.1353  0.5275 -1.6923
  100SAPC   H3S 9963   2.297   4.001   2.539 -0.4216  0.0958 -0.0478
  100SAPC   C24 9964   2.475   3.919   2.642 -0.3706  0.5321 -0.0211
  100SAPC   H4R 9965   2.560   3.990   2.647  0.1529 -0.1036  0.3007
  100SAPC   H4S 9966   2.523   3.820   2.630  1.7387  1.5203 -0.1536
  100SAPC   C25 9967   2.391   3.924   2.771  0.2553  0.1757  0.1076
  100SAPC   H5R 9968   2.284   3.901   2.761 -0.0837  0.0915  3.0039
  100SAPC   C26 9969   2.441   3.945   2.897  0.3288 -0.2443  0.5821
  100SAPC   H6R 9970   2.362   3.952   2.973  1.2417  1.8068  1.4023
  100SAPC   C27 9971   2.582   3.976   2.933  0.7589 -0.5414 -0.7327
  100SAPC   H7R 9972   2.630   4.033   2.852  3.3981 -1.0552  0.3768
  100SAPC   H7S 9973   2.652   3.893   2.957  2.9402  1.5615  0.5386
  100SAPC   C28 9974   2.584   4.060   3.055 -0.5407 -0.7405  0.0301
  100SAPC   H8R 9975   2.513   4.145   3.055 -0.4798 -0.5118  3.6452
  100SAPC   C29 9976   2.683   4.074   3.148  0.4515  0.1558 -0.2431
  100SAPC   H9R 9977   2.664   4.150   3.225  2.8828 -0.1367  0.7012
  100SAPC  C210 9978   2.809   3.992   3.176  0.4385 -0.1630  0.1554
  100SAPC  H10R 9979   2.893   4.053   3.214  2.3351 -2.5038 -0.0643
  100SAPC  H10S 9980   2.845   3.951   3.079 -2.1466 -0.2280 -0.8636
  100SAPC  C211 9981   2.788   3.879   3.274  0.8888 -0.8978 -0.2575
  100SAPC  H11R 9982   2.749   3.791   3.221  0.8255 -0.1603 -1.4808
  100SAPC  C212 9983   2.811   3.873   3.406  0.1632  0.4552  0.1492
  100SAPC  H12R 9984   2.792   3.777   3.456  0.3130 -1.6537 -3.4808
  100SAPC  C213 9985   2.861   3.988   3.488 -0.2157  1.0562 -0.4369
  100SAPC  H13R 9986   2.853   4.084   3.432  2.6124  1.6241 -0.0022
  100SAPC  H13S 9987   2.972   3.990   3.499 -0.4032  2.9579  1.9617
  100SAPC  C214 9988   2.781   3.996   3.614  0.0513  0.1626 -0.8413
  100SAPC  H14R 9989   2.672   3.997   3.601 -0.1246  0.6695  0.5236
  100SAPC  C215 9990   2.832   4.021   3.741  0.2892  0.5602  1.1272
  100SAPC  H15R 9991   2.767   4.046   3.825 -0.0855  0.2479  0.9297
  100SAPC  C216 9992   2.983   4.035   3.757 -0.1217 -0.2498  0.3170
  100SAPC  H16R 9993   3.015   4.109   3.681 -0.4719 -1.0629 -0.6384
  100SAPC  H16S 9994   3.031   3.938   3.732  0.4488  0.4475 -1.4723
  100SAPC  C217 9995   3.027   4.088   3.895  0.1006  0.5483  0.1817
  100SAPC  H17R 9996   2.998   4.023   3.980  0.8930 -0.0307  0.0146
  100SAPC  H17S 9997   2.979   4.185   3.921 -0.2271  0.7350 -1.0816
  100SAPC  C218 9998   3.174   4.109   3.901  0.6205  0.3627  0.3085
  100SAPC  H18R 9999   3.190   4.195   3.832 -1.4686  0.7851  0.2882
  100SAPC  H18S10000   3.224   4.023   3.852  0.6383  0.2592  0.5114
  100SAPC  C21910001   3.238   4.119   4.037  0.2337  0.3681 -0.7269
  100SAPC  H19R10002   3.349   4.122   4.034  0.2859  2.3648  0.7757
  100SAPC  H19S10003   3.216   4.027   4.095 -0.2067 -0.0709 -1.5793
  100SAPC  C22010004   3.178   4.237   4.110 -0.9974  0.1571  0.4847
  100SAPC  H20R10005   3.073   4.210   4.134 -1.0673 -0.8050 -0.7907
  100SAPC  H20S10006   3.160   4.322   4.040  3.4680 -0.8951 -2.3609
  100SAPC  H20T10007   3.245   4.284   4.185  0.7208 -1.5376  0.0623
  100SAPC   C3310008   1.986   4.019   2.613 -0.2204 -0.5741 -0.4416
  100SAPC   H3X10009   1.953   4.125   2.619 -0.7176 -0.5863 -2.2429
  100SAPC   H3Y10010   2.096   4.016   2.600 -0.0148  0.4718  0.8172
  100SAPC   C3410011   1.959   3.956   2.751 -0.4131  0.8112  0.1658
  100SAPC   H4X10012   1.988   3.849   2.744 -1.4224  0.5655 -0.4413
  100SAPC   H4Y10013   1.851   3.950   2.777 -0.4785  0.3003 -0.2086
  100SAPC   C3510014   2.029   4.034   2.860  0.4868 -0.4630  0.1701
  100SAPC   H5X10015   1.965   4.116   2.899 -1.7575 -0.8780 -2.3915
  100SAPC   H5Y10016   2.115   4.093   2.822 -1.0411  2.2625  0.6998
  100SAPC   C3610017   2.055   3.939   2.982  0.7244 -0.7898 -0.9850
  100SAPC   H6X10018   2.130   3.863   2.954  1.6982 -0.5486  0.8729
  100SAPC   H6Y10019   1.960   3.894   3.017 -0.2043  1.4232 -0.4466
  100SAPC   C3710020   2.112   4.017   3.100  0.4591  0.8266 -0.0025
  100SAPC   H7X10021   2.029   4.077   3.144 -0.7054  1.1790 -2.5467
  100SAPC   H7Y10022   2.197   4.084   3.075  1.5704 -0.3754  0.3839
  100SAPC   C3810023   2.164   3.918   3.209 -0.3734 -0.1771 -0.1318
  100SAPC   H8X10024   2.254   3.865   3.172  0.6620  1.8760 -0.7406
  100SAPC   H8Y10025   2.085   3.844   3.235 -1.1108 -0.2242 -2.2486
  100SAPC   C3910026   2.215   3.989   3.338 -0.1857 -0.5192 -0.2488
  100SAPC   H9X10027   2.248   3.911   3.409  0.8753 -0.3859 -0.5743
  100SAPC   H9Y10028   2.121   4.035   3.373  0.1140  0.6421 -0.8809
  100SAPC  C31010029   2.330   4.095   3.328 -0.2946  0.6053 -0.8848
  100SAPC  H10X10030   2.304   4.189   3.275  0.1025  1.7278  0.8214
  100SAPC  H10Y10031   2.404   4.036   3.270 -1.5414 -2.5990  0.5462
  100SAPC  C31110032   2.393   4.125   3.469 -0.1869 -0.2453  0.7432
  100SAPC  H11X10033   2.499   4.153   3.451 -0.3155 -0.3897 -0.2827
  100SAPC  H11Y10034   2.398   4.031   3.528 -0.7786  0.1470  1.4431
  100SAPC  C31210035   2.321   4.231   3.562 -0.6451  0.5036  0.3500
  100SAPC  H12X10036   2.223   4.185   3.588 -0.8713  0.6619 -0.2103
  100SAPC  H12Y10037   2.305   4.322   3.500  0.3578  1.1216  0.9589
  100SAPC  C31310038   2.383   4.285   3.686 -0.3763  0.9044  0.9706
  100SAPC  H13X10039   2.309   4.339   3.749 -0.9811  1.9116 -0.5531
  100SAPC  H13Y10040   2.467   4.351   3.658 -0.0638 -0.3705 -1.3740
  100SAPC  C31410041   2.451   4.172   3.770  0.9354 -0.4472  0.4816
  100SAPC  H14X10042   2.521   4.120   3.701  0.8207 -1.5598  1.1661
  100SAPC  H14Y10043   2.375   4.099   3.808  1.7862  0.2536  3.7840
  100SAPC  C31510044   2.520   4.221   3.898 -0.5156  0.3565  0.6153
  100SAPC  H15X10045   2.450   4.284   3.957 -0.7496 -1.1087  1.9653
  100SAPC  H15Y10046   2.609   4.278   3.863  0.6796 -0.6536  1.9315
  100SAPC  C31610047   2.557   4.107   3.990 -0.1726  0.1219  0.3326
  100SAPC  H16X10048   2.602   4.031   3.923  2.3161  1.4808  0.3364
  100SAPC  H16Y10049   2.465   4.067   4.037 -0.1806  0.0112  0.2224
  100SAPC  C31710050   2.663   4.150   4.095 -0.0758  0.1105  0.3085
  100SAPC  H17X10051   2.749   4.196   4.042  0.9782 -0.7138  1.2406
  100SAPC  H17Y10052   2.704   4.063   4.152  2.2328  1.5578  0.9760
  100SAPC  C31810053   2.606   4.256   4.188  0.4406  0.0095  0.3410
  100SAPC  H18X10054   2.570   4.350   4.142  2.2985  0.2831 -0.6505
  100SAPC  H18Y10055   2.671   4.281   4.275 -1.2865 -0.4071  1.8242
  100SAPC  H18Z10056   2.516   4.207   4.230  0.7833  0.1612  1.2800
  101OSM      N10057   5.477   5.025   6.847 -0.1625 -0.1259 -0.4114
  101OSM    C1510058   5.523   4.899   6.913 -0.0146 -0.0044  0.4245
  101OSM   H15A10059   5.571   4.833   6.843 -0.1278  1.2923 -0.9088
  101OSM   H15B10060   5.437   4.850   6.957  0.5294 -1.4881 -0.1182
  101OSM   H15C10061   5.594   4.924   6.991  0.5882  0.4816 -0.2755
  101OSM    C1410062   5.409   5.099   6.957  0.0756 -0.1486  0.0367
  101OSM   H14A10063   5.361   5.189   6.922 -0.7169 -0.6591 -0.2055
  101OSM   H14B10064   5.476   5.128   7.036 -0.0913  0.9899 -0.2232
  101OSM   H14C10065   5.331   5.040   7.002  1.0933 -1.5191  0.0607
  101OSM    C1310066   5.600   5.099   6.809 -0.5666  0.2061 -0.4717
  101OSM   H13A10067   5.669   5.046   6.745  0.4031  1.3394 -0.4118
  101OSM   H13B10068   5.660   5.112   6.898 -0.9682  1.0300 -0.3107
  101OSM   H13C10069   5.579   5.197   6.768  3.3693  0.4546 -2.3778
  101OSM    C1210070   5.393   4.994   6.727 -0.1720 -0.0464  0.4760
  101OSM   H12A10071   5.318   4.932   6.775 -0.5920  2.0124  2.6763
  101OSM   H12B10072   5.451   4.938   6.656  1.0805  0.2626  1.2216
  101OSM    C1110073   5.327   5.121   6.665 -0.6584  0.0159  0.1898
  101OSM   H11A10074   5.272   5.087   6.574  0.0271 -0.5534 -0.0224
  101OSM   H11B10075   5.414   5.185   6.639 -0.4207 -0.3562  0.0658
  101OSM      P10076   5.094   5.163   6.758 -0.0924  0.1686  0.3921
  101OSM    O1310077   5.064   5.020   6.734  0.1091  0.1630  0.0463
  101OSM    O1410078   5.042   5.221   6.886 -0.1688  0.5809  0.3930
  101OSM    O1110079   5.039   5.257   6.636  0.4346  0.2410 -0.3560
  101OSM    O1210080   5.243   5.196   6.752  0.6123 -0.3054 -0.0256
  101OSM    C1S10081   5.117   5.316   6.539 -0.6699  0.2659  0.6064
  101OSM    H1S10082   5.138   5.231   6.470 -4.3156 -0.1764 -0.1898
  101OSM    H1T10083   5.203   5.372   6.581 -0.9344 -0.5823  2.3703
  101OSM     NF10084   5.125   5.484   6.345  0.6291  0.2065  0.0258
  101OSM    HNF10085   5.175   5.569   6.354  1.2919 -0.0907 -0.7060
  101OSM    C2S10086   5.042   5.429   6.454  0.4355 -0.6754 -0.6803
  101OSM    H2S10087   4.956   5.383   6.400  0.6731 -0.3742 -1.3265
  101OSM    C3S10088   4.987   5.537   6.554 -0.1477 -0.0092 -0.1736
  101OSM    H3S10089   5.083   5.579   6.592  1.2656 -3.1385  0.0267
  101OSM     O310090   4.926   5.490   6.670 -0.0480  0.0905  0.1198
  101OSM    HO310091   4.957   5.401   6.684 -0.3122  0.0073  0.1787
  101OSM    C4S10092   4.895   5.632   6.479  0.2503 -0.2478  0.3277
  101OSM    H4S10093   4.802   5.580   6.452  0.7485 -0.6247 -0.7193
  101OSM    C5S10094   4.928   5.761   6.453  0.5133 -0.6616 -0.2083
  101OSM    H5S10095   5.024   5.801   6.488 -1.2370 -0.0376  4.6901
  101OSM    C6S10096   4.843   5.856   6.369  0.2038 -0.0574 -0.3725
  101OSM    H6S10097   4.796   5.934   6.433  0.3243  1.4015 -1.9884
  101OSM    H6T10098   4.760   5.798   6.322  0.8790 -2.2408  0.9794
  101OSM    C7S10099   4.942   5.928   6.269  0.6027  0.0434  0.1609
  101OSM    H7S10100   5.022   5.998   6.302  1.4830  0.6556 -2.9042
  101OSM    H7T10101   4.864   5.993   6.222  0.3935 -0.1957  0.1726
  101OSM    C8S10102   4.994   5.826   6.166 -0.1896  0.4771 -0.3286
  101OSM    H8S10103   4.914   5.754   6.137  1.2491 -0.5697 -1.8745
  101OSM    H8T10104   5.076   5.775   6.220  0.4201  2.9549  1.2404
  101OSM    C9S10105   5.052   5.890   6.039 -0.4774  0.2747 -0.2583
  101OSM    H9S10106   5.111   5.982   6.058 -0.2493  0.1812 -0.5182
  101OSM    H9T10107   4.960   5.930   5.991  0.0051  0.4770 -1.0297
  101OSM   C10S10108   5.133   5.797   5.947  0.1406 -0.0692 -0.0026
  101OSM   H10S10109   5.066   5.716   5.910 -0.6692  0.2658  0.6921
  101OSM   H10T10110   5.200   5.742   6.016 -0.3102 -1.9181 -0.9698
  101OSM   C11S10111   5.194   5.866   5.829 -0.3424  0.0148  0.4437
  101OSM   H11S10112   5.287   5.813   5.799  0.8327  1.5622  1.1777
  101OSM   H11T10113   5.225   5.970   5.855 -0.0150  0.0215  0.0399
  101OSM   C12S10114   5.101   5.864   5.709  0.5459 -0.2228 -0.1713
  101OSM   H12S10115   5.009   5.920   5.737 -0.3572 -2.0063  0.6243
  101OSM   H12T10116   5.081   5.759   5.677 -1.7071  0.5163 -1.3760
  101OSM   C13S10117   5.154   5.935   5.583 -0.4901 -0.6818  0.8968
  101OSM   H13S10118   5.256   5.901   5.555  0.2121  0.7496  1.5718
  101OSM   H13T10119   5.173   6.038   5.621 -1.2860  0.6814 -2.1515
  101OSM   C14S10120   5.083   5.946   5.455 -0.3939  0.3347  0.0496
  101OSM   H14S10121   4.992   6.010   5.461 -0.2068  0.4648  1.7464
  101OSM   H14T10122   5.053   5.843   5.425 -2.3385  0.5095  1.2325
  101OSM   C15S10123   5.160   6.004   5.335  0.1707 -0.3119  0.3417
  101OSM   H15S10124   5.236   5.928   5.309  0.5442 -0.0303  0.6093
  101OSM   H15T10125   5.215   6.092   5.372  0.3288  0.2615 -1.1690
  101OSM   C16S10126   5.075   6.035   5.208  0.0950  0.0179 -0.0420
  101OSM   H16S10127   4.998   6.113   5.224 -0.4934 -0.0912 -2.0796
  101OSM   H16T10128   5.026   5.939   5.178 -0.6844  0.2276  0.5365
  101OSM   C17S10129   5.165   6.101   5.105  0.8039  0.4380  0.1307
  101OSM   H17S10130   5.256   6.039   5.084  0.7308  0.2531  0.3531
  101OSM   H17T10131   5.191   6.201   5.144  0.4666  0.6797 -0.2566
  101OSM   C18S10132   5.098   6.116   4.971 -0.5626 -0.0284  0.9871
  101OSM   H18S10133   5.060   6.021   4.926  0.1632 -0.9593  2.2741
  101OSM   H18T10134   5.168   6.163   4.898 -0.9931 -0.6223  0.1760
  101OSM   H18U10135   5.011   6.182   4.988 -0.6817 -0.2311  1.1706
  101OSM    C1F10136   5.162   5.416   6.233  0.3713  0.5237  0.5662
  101OSM     OF10137   5.119   5.306   6.215  0.2111  0.9020 -0.2254
  101OSM    C2F10138   5.263   5.483   6.145 -0.5640 -0.2477 -0.0772
  101OSM    H2F10139   5.329   5.558   6.192 -0.8945  0.2856 -0.4548
  101OSM    H2G10140   5.202   5.540   6.071  0.1905  0.8113  0.1051
  101OSM    C3F10141   5.352   5.383   6.068  0.5713 -0.4394 -0.9069
  101OSM    H3F10142   5.299   5.285   6.062  0.5744 -0.5663  0.6778
  101OSM    H3G10143   5.446   5.352   6.120  0.1645 -3.0203 -1.5737
  101OSM    C4F10144   5.374   5.440   5.931  0.5043 -0.1353  0.4948
  101OSM    H4F10145   5.417   5.542   5.934 -0.1255  0.1187  1.3302
  101OSM    H4G10146   5.275   5.453   5.883  0.1816 -0.2389  1.1224
  101OSM    C5F10147   5.457   5.351   5.832 -1.0118 -0.1529  0.1703
  101OSM    H5F10148   5.399   5.265   5.793  1.2134 -1.8285  0.3086
  101OSM    H5G10149   5.536   5.306   5.896  2.0355  2.8823 -1.0996
  101OSM    C6F10150   5.512   5.428   5.708  0.4099 -0.1859  0.4859
  101OSM    H6F10151   5.508   5.355   5.624 -0.3288 -1.0600  1.2551
  101OSM    H6G10152   5.616   5.465   5.714 -0.0470  1.9723 -2.5369
  101OSM    C7F10153   5.421   5.549   5.669 -0.2435  0.4326 -0.1987
  101OSM    H7F10154   5.436   5.634   5.740 -0.8123  0.1808  0.2303
  101OSM    H7G10155   5.318   5.508   5.677 -0.5926  1.4308  0.6288
  101OSM    C8F10156   5.435   5.601   5.528 -0.5406 -0.3256  0.6293
  101OSM    H8F10157   5.368   5.687   5.505 -1.6749 -1.1868  0.6234
  101OSM    H8G10158   5.402   5.520   5.458 -1.4799 -1.6241  2.4892
  101OSM    C9F10159   5.579   5.632   5.483  0.7393  0.1963  0.0312
  101OSM    H9F10160   5.634   5.670   5.570 -0.2352 -0.1830  0.8292
  101OSM   C10F10161   5.650   5.613   5.374 -0.2908  0.1178  0.0671
  101OSM   H10F10162   5.747   5.663   5.361 -0.9738  1.6702  0.7257
  101OSM   C11F10163   5.606   5.536   5.245 -0.0444  0.0207 -0.2673
  101OSM   H11F10164   5.497   5.524   5.227  0.3901 -0.5261 -3.0768
  101OSM   H11G10165   5.636   5.429   5.253  1.9090  0.0781 -4.2366
  101OSM   C12F10166   5.672   5.589   5.117  0.1012 -0.0325  0.1880
  101OSM   H12F10167   5.782   5.594   5.132  0.2596  1.5615 -1.1494
  101OSM   H12G10168   5.633   5.692   5.099  2.4925  1.0900  1.0855
  101OSM   C13F10169   5.656   5.488   5.002 -0.4423  0.2133 -0.5117
  101OSM   H13F10170   5.550   5.461   4.985  0.4731 -3.3665 -1.2496
  101OSM   H13G10171   5.703   5.392   5.032 -2.0632 -0.8485 -1.2029
  101OSM   C14F10172   5.734   5.537   4.880  1.4261  0.0845  0.9211
  101OSM   H14F10173   5.844   5.531   4.885  1.4570 -0.5683 -0.2690
  101OSM   H14G10174   5.717   5.645   4.861  0.9847 -0.1437 -0.0202
  101OSM   C15F10175   5.704   5.449   4.757  0.4716 -0.5005 -0.1712
  101OSM   H15F10176   5.597   5.465   4.729  0.7636 -0.1359 -1.1360
  101OSM   H15G10177   5.723   5.340   4.768 -1.2340 -0.8883 -0.7822
  101OSM   C16F10178   5.770   5.510   4.626 -0.5012 -0.3155  0.4411
  101OSM   H16F10179   5.874   5.472   4.630 -0.0458  0.7908 -0.3817
  101OSM   H16G10180   5.779   5.619   4.643  2.3882 -0.1934 -1.2569
  101OSM   C17F10181   5.708   5.462   4.497 -0.1484  0.2136 -0.5452
  101OSM   H17F10182   5.611   5.515   4.486  0.8764  2.3138 -0.0113
  101OSM   H17G10183   5.682   5.356   4.515  2.1755 -0.4505 -0.8053
  101OSM   C18F10184   5.798   5.462   4.372  0.1380  0.0849 -0.2031
  101OSM   H18F10185   5.899   5.418   4.390 -0.3386 -1.0463 -0.1978
  101OSM   H18G10186   5.818   5.571   4.363 -0.1612  0.3347  1.7384
  101OSM   H18H10187   5.746   5.428   4.280  0.7460 -0.8315 -0.2235
  102OSM      N10188   4.365   3.290   6.958  0.3234 -0.8279  0.1052
  102OSM    C1510189   4.277   3.373   7.054 -0.0667  0.1414 -0.0866
  102OSM   H15A10190   4.260   3.315   7.143 -0.3640 -2.9427 -1.9753
  102OSM   H15B10191   4.181   3.396   7.011 -0.2082 -1.2225 -0.5436
  102OSM   H15C10192   4.332   3.465   7.064  2.3617 -1.0749 -1.3018
  102OSM    C1410193   4.414   3.380   6.843 -0.1234 -0.2361 -0.4445
  102OSM   H14A10194   4.478   3.326   6.775 -0.6632 -1.2163 -0.1951
  102OSM   H14B10195   4.467   3.464   6.886 -2.3831  0.8043  0.4403
  102OSM   H14C10196   4.333   3.418   6.783  0.7886 -0.2476 -1.7537
  102OSM    C1310197   4.480   3.244   7.036  0.1790  0.7795  0.0137
  102OSM   H13A10198   4.532   3.327   7.083 -0.1099  2.1891 -2.0244
  102OSM   H13B10199   4.561   3.199   6.981 -1.6287 -3.9992  0.8236
  102OSM   H13C10200   4.457   3.169   7.110  1.4367  0.6099  0.2496
  102OSM    C1210201   4.286   3.178   6.897 -0.3105  0.7227 -0.1796
  102OSM   H12A10202   4.188   3.212   6.868 -0.2706  0.6230 -0.4294
  102OSM   H12B10203   4.271   3.107   6.978  0.4563  1.1114  0.3239
  102OSM    C1110204   4.355   3.099   6.777 -0.1796  0.1095  0.6428
  102OSM   H11A10205   4.364   3.164   6.688 -0.3999 -0.9914 -0.2091
  102OSM   H11B10206   4.277   3.023   6.754  0.1513 -0.5766  1.7143
  102OSM      P10207   4.609   3.058   6.749  0.0176  0.1537 -0.1712
  102OSM    O1310208   4.661   3.188   6.803  0.7179 -0.1576  0.0767
  102OSM    O1410209   4.703   2.944   6.758 -0.1159 -0.0132  0.2556
  102OSM    O1110210   4.572   3.074   6.596  0.4268 -0.0603  0.3937
  102OSM    O1210211   4.468   3.022   6.820 -0.3122  0.3365 -0.2395
  102OSM    C1S10212   4.615   3.195   6.528 -0.5641 -0.6778  0.1358
  102OSM    H1S10213   4.726   3.200   6.527 -0.5538 -0.9129 -0.6081
  102OSM    H1T10214   4.573   3.291   6.566 -0.5328 -0.6932  0.2103
  102OSM     NF10215   4.626   3.322   6.308 -0.1572  0.3497  0.3314
  102OSM    HNF10216   4.566   3.398   6.284  0.8725  0.3993 -2.3931
  102OSM    C2S10217   4.570   3.208   6.383  0.3417 -0.2306 -0.2659
  102OSM    H2S10218   4.608   3.112   6.343 -0.7814 -2.2904  3.2085
  102OSM    C3S10219   4.411   3.196   6.364  0.0337  0.0360  0.8348
  102OSM    H3S10220   4.358   3.285   6.405 -0.0657  1.1075 -1.4560
  102OSM     O310221   4.352   3.096   6.443  0.1343  0.6183  0.1016
  102OSM    HO310222   4.421   3.059   6.499  0.2131  0.3688 -0.1585
  102OSM    C4S10223   4.382   3.180   6.221  0.5594  0.4619  0.4272
  102OSM    H4S10224   4.349   3.271   6.168  0.0489 -0.0447 -0.1403
  102OSM    C5S10225   4.388   3.060   6.163  0.0661 -0.0300  0.3971
  102OSM    H5S10226   4.411   2.975   6.229  0.3711 -0.0406  0.2799
  102OSM    C6S10227   4.357   3.010   6.024 -0.8252  0.2925  0.7687
  102OSM    H6S10228   4.270   2.942   6.033  0.6201 -1.5127  1.7219
  102OSM    H6T10229   4.439   2.943   5.990 -1.8727 -1.0847  0.8845
  102OSM    C7S10230   4.337   3.128   5.916  0.5444  1.2292 -0.0498
  102OSM    H7S10231   4.424   3.197   5.929  0.1769  1.5367  0.8389
  102OSM    H7T10232   4.249   3.185   5.952 -0.8224 -1.0070  0.3307
  102OSM    C8S10233   4.324   3.083   5.772  0.0419 -0.7125 -0.0544
  102OSM    H8S10234   4.284   3.167   5.712  5.0473  1.6002 -0.6948
  102OSM    H8T10235   4.249   3.002   5.759  1.2895 -1.8947 -0.1571
  102OSM    C9S10236   4.449   3.044   5.702  0.0226  0.4881 -0.4729
  102OSM    H9S10237   4.489   2.960   5.763  0.7145  0.7610 -0.5504
  102OSM    H9T10238   4.518   3.130   5.693 -0.3817  0.7534 -1.1806
  102OSM   C10S10239   4.410   3.000   5.553 -0.3157  0.2147  0.0539
  102OSM   H10S10240   4.342   3.068   5.497  2.7632  1.5798 -2.3805
  102OSM   H10T10241   4.359   2.903   5.567  0.9286 -0.4891 -0.0726
  102OSM   C11S10242   4.536   2.965   5.465  0.4064 -0.0424  1.2593
  102OSM   H11S10243   4.503   2.926   5.366 -1.2497  0.9568  1.3807
  102OSM   H11T10244   4.598   2.881   5.503  1.3615 -1.4024 -2.8274
  102OSM   C12S10245   4.615   3.089   5.416  0.2589 -0.7134  0.2279
  102OSM   H12S10246   4.636   3.162   5.497 -0.1038  1.1087 -1.2163
  102OSM   H12T10247   4.548   3.151   5.351  0.5693 -1.7081 -1.0794
  102OSM   C13S10248   4.744   3.058   5.333 -0.2814  0.8009 -0.8486
  102OSM   H13S10249   4.826   3.025   5.400 -0.7346  0.9769 -0.1915
  102OSM   H13T10250   4.781   3.142   5.271  0.6574  0.9434 -0.1211
  102OSM   C14S10251   4.724   2.953   5.232 -0.0537  0.5156  1.0086
  102OSM   H14S10252   4.694   2.855   5.277  1.4685  0.2900  1.6212
  102OSM   H14T10253   4.819   2.922   5.183  0.3816 -0.6332  2.4755
  102OSM   C15S10254   4.635   3.001   5.113 -0.1438  0.2049  0.5721
  102OSM   H15S10255   4.689   3.091   5.076 -0.1299  0.7732  1.9353
  102OSM   H15T10256   4.531   3.025   5.142 -0.1871 -0.2472  0.8044
  102OSM   C16S10257   4.642   2.898   5.007 -0.2770  0.7838  0.3267
  102OSM   H16S10258   4.605   2.803   5.052  2.7174 -0.5466  0.3001
  102OSM   H16T10259   4.748   2.888   4.974 -0.8897  0.9887 -1.8544
  102OSM   C17S10260   4.569   2.932   4.873  0.4344 -0.2815  0.1840
  102OSM   H17S10261   4.593   2.850   4.803  0.9962  0.1610 -0.1542
  102OSM   H17T10262   4.620   3.025   4.838  0.9098 -0.5805  0.0661
  102OSM   C18S10263   4.421   2.970   4.890  0.8107  0.0682 -0.0223
  102OSM   H18S10264   4.383   2.891   4.959 -0.6506 -2.0278 -3.0006
  102OSM   H18T10265   4.370   2.969   4.791 -1.0375 -0.3534  0.8794
  102OSM   H18U10266   4.414   3.073   4.932  0.7361 -0.5058  1.4359
  102OSM    C1F10267   4.757   3.320   6.272 -0.4198  0.0424  0.2880
  102OSM     OF10268   4.834   3.224   6.293 -0.0402 -0.3859  0.2686
  102OSM    C2F10269   4.808   3.436   6.195 -0.2606  0.1994  0.4626
  102OSM    H2F10270   4.894   3.479   6.250 -0.2124  0.2729  0.3290
  102OSM    H2G10271   4.732   3.518   6.197 -1.1639 -0.6173  0.3214
  102OSM    C3F10272   4.848   3.398   6.047 -0.7086  0.9918 -0.0495
  102OSM    H3F10273   4.920   3.316   6.069 -1.9841 -0.0228  0.4092
  102OSM    H3G10274   4.908   3.478   5.998  0.1237  1.7997  2.1654
  102OSM    C4F10275   4.739   3.338   5.960 -0.4633 -0.9882  0.6610
  102OSM    H4F10276   4.667   3.410   5.915 -0.4957 -0.8517  0.9289
  102OSM    H4G10277   4.683   3.261   6.017  1.3461 -1.6015  1.7184
  102OSM    C5F10278   4.794   3.257   5.844 -0.1708  0.2118 -0.4977
  102OSM    H5F10279   4.727   3.180   5.801 -0.9252  0.5986 -0.0369
  102OSM    H5G10280   4.878   3.196   5.884 -0.6072 -1.6728 -2.3028
  102OSM    C6F10281   4.845   3.344   5.729  0.1920  0.5042 -1.1435
  102OSM    H6F10282   4.910   3.427   5.765  0.5218  0.3265 -1.3262
  102OSM    H6G10283   4.760   3.392   5.676  0.2058  2.9546  0.9038
  102OSM    C7F10284   4.920   3.257   5.629 -0.0392  0.0134  0.7322
  102OSM    H7F10285   4.866   3.162   5.607  0.5432 -0.4316  1.2045
  102OSM    H7G10286   5.017   3.225   5.671  0.6895  1.2651  0.0475
  102OSM    C8F10287   4.942   3.330   5.501 -0.1819  0.7624  0.2800
  102OSM    H8F10288   4.961   3.430   5.546  3.4494 -0.5045  1.9141
  102OSM    H8G10289   4.847   3.343   5.443 -0.4464  0.0880  0.5553
  102OSM    C9F10290   5.067   3.301   5.421 -0.4103  0.5393  0.1074
  102OSM    H9F10291   5.149   3.272   5.488 -0.9657  0.6868  0.8659
  102OSM   C10F10292   5.088   3.325   5.290  0.5798  0.3371 -1.1981
  102OSM   H10F10293   5.178   3.283   5.243  0.2362  0.0100 -1.5654
  102OSM   C11F10294   4.988   3.389   5.195  0.4658  0.0106  0.2099
  102OSM   H11F10295   4.894   3.423   5.244 -1.0051 -3.6026  0.2467
  102OSM   H11G10296   4.956   3.306   5.127 -1.5467 -0.1775  1.3300
  102OSM   C12F10297   5.047   3.510   5.124 -0.6186  0.3654 -0.1850
  102OSM   H12F10298   5.130   3.474   5.060 -2.3921  0.1382 -2.4780
  102OSM   H12G10299   5.091   3.583   5.195 -0.9076 -0.6382  1.0546
  102OSM   C13F10300   4.954   3.594   5.036  0.0268  0.5450 -0.8677
  102OSM   H13F10301   4.861   3.623   5.088 -0.5555 -1.2215 -0.8772
  102OSM   H13G10302   4.922   3.535   4.947 -1.5296 -1.1250  0.7177
  102OSM   C14F10303   5.034   3.725   4.991  0.0323  0.6086  0.4140
  102OSM   H14F10304   5.088   3.771   5.076 -2.1528 -1.5770  3.1742
  102OSM   H14G10305   4.955   3.798   4.964  0.0953  1.2871  1.9487
  102OSM   C15F10306   5.140   3.705   4.883 -0.7354  0.5945  0.0401
  102OSM   H15F10307   5.098   3.666   4.788  1.7000 -0.8138 -0.5238
  102OSM   H15G10308   5.201   3.619   4.918 -0.1134  1.2321  0.5670
  102OSM   C16F10309   5.237   3.826   4.869  0.1169 -0.0137  0.3369
  102OSM   H16F10310   5.282   3.810   4.769 -3.5504 -0.4869 -1.3808
  102OSM   H16G10311   5.311   3.811   4.951 -0.0635 -2.7636  0.0856
  102OSM   C17F10312   5.179   3.968   4.858  0.6636 -0.2570 -0.2237
  102OSM   H17F10313   5.248   4.055   4.864 -2.0455  2.0218 -0.1171
  102OSM   H17G10314   5.121   3.995   4.949 -0.2963  2.8338 -1.6030
  102OSM   C18F10315   5.105   3.976   4.725 -0.0707  0.4260 -0.4091
  102OSM   H18F10316   5.007   3.925   4.739 -1.0295  2.4878  0.8510
  102OSM   H18G10317   5.161   3.944   4.634  2.7758  1.4534  0.8632
  102OSM   H18H10318   5.064   4.079   4.720 -0.5346  0.3259  0.9195
  103OSM      N10319   4.689   4.977   6.836 -0.5412  0.7131 -0.5672
  103OSM    C1510320   4.731   5.121   6.871  0.4611  0.5373  0.6164
  103OSM   H15A10321   4.821   5.127   6.930  0.9787 -0.3037 -0.0669
  103OSM   H15B10322   4.656   5.169   6.932  0.1074  0.7975 -0.0024
  103OSM   H15C10323   4.748   5.184   6.784 -0.4703  0.2881  0.2310
  103OSM    C1410324   4.694   4.906   6.969 -0.2288  0.8631  0.6096
  103OSM   H14A10325   4.664   4.804   6.947 -0.5458  0.7775  1.3945
  103OSM   H14B10326   4.621   4.943   7.039 -0.6075  1.0376  0.1264
  103OSM   H14C10327   4.793   4.900   7.012  0.2402  0.1323 -0.5399
  103OSM    C1310328   4.545   4.979   6.786  0.1478  0.4392 -0.3784
  103OSM   H13A10329   4.505   4.882   6.763 -1.5271  0.9490  0.2403
  103OSM   H13B10330   4.536   5.036   6.695 -0.6047 -1.4756 -1.5490
  103OSM   H13C10331   4.492   5.029   6.866 -3.9177 -2.1015 -1.2100
  103OSM    C1210332   4.784   4.912   6.740  0.8455 -1.4122  0.3080
  103OSM   H12A10333   4.884   4.916   6.781  0.4731  0.6830  1.1398
  103OSM   H12B10334   4.784   4.951   6.640 -1.9163  1.3770  1.2392
  103OSM    C1110335   4.753   4.763   6.717 -0.6536 -0.2717 -0.9408
  103OSM   H11A10336   4.650   4.753   6.676 -1.2878 -0.3291  0.6005
  103OSM   H11B10337   4.752   4.703   6.810 -2.7784 -0.0138 -0.7444
  103OSM      P10338   4.837   4.721   6.465 -0.1630 -0.2047 -0.0797
  103OSM    O1310339   4.959   4.662   6.412  0.1793 -0.0644 -0.4022
  103OSM    O1410340   4.706   4.663   6.431  0.4110  0.4448 -0.8131
  103OSM    O1110341   4.838   4.872   6.432 -0.5135  0.3671  0.7556
  103OSM    O1210342   4.845   4.717   6.623 -0.1756  0.4522 -0.5140
  103OSM    C1S10343   4.948   4.956   6.428  0.3864 -0.3714  0.0646
  103OSM    H1S10344   5.041   4.927   6.481  1.0363  1.7157  0.1590
  103OSM    H1T10345   4.931   5.057   6.471  0.6857 -0.5786  0.6755
  103OSM     NF10346   5.120   5.041   6.274 -0.2876  0.2347 -0.1698
  103OSM    HNF10347   5.123   5.139   6.259  1.7450  0.4007  1.0072
  103OSM    C2S10348   4.992   4.981   6.284  0.8272  0.0758  0.3470
  103OSM    H2S10349   4.995   4.884   6.230 -1.4808  0.4789 -0.6458
  103OSM    C3S10350   4.881   5.059   6.205  0.0845  0.5055 -0.0360
  103OSM    H3S10351   4.889   5.161   6.247 -0.2801  0.0840  1.1085
  103OSM     O310352   4.750   5.006   6.227 -0.4045  0.0612  0.2081
  103OSM    HO310353   4.761   4.951   6.305  0.2908  0.2728  0.2677
  103OSM    C4S10354   4.911   5.055   6.059 -0.1469 -0.0147  0.2065
  103OSM    H4S10355   4.934   4.963   6.004  1.5900  0.5774 -0.1113
  103OSM    C5S10356   4.930   5.157   5.982 -0.2344 -0.4683 -0.1005
  103OSM    H5S10357   4.922   5.258   6.026 -1.1088 -0.8613  0.6710
  103OSM    C6S10358   4.964   5.145   5.835 -0.4696  0.1310  0.1883
  103OSM    H6S10359   4.882   5.193   5.777 -0.3729  0.9280  0.6940
  103OSM    H6T10360   4.967   5.040   5.798  0.3189  0.2507 -0.1000
  103OSM    C7S10361   5.102   5.201   5.792 -0.5487 -0.0197 -0.3030
  103OSM    H7S10362   5.179   5.126   5.821  1.2701  2.1368  0.6900
  103OSM    H7T10363   5.117   5.290   5.857  1.0862 -0.6931  0.3057
  103OSM    C8S10364   5.109   5.248   5.644  0.0890 -0.2562 -0.3835
  103OSM    H8S10365   5.077   5.158   5.587 -0.8033 -0.1509 -0.0610
  103OSM    H8T10366   5.212   5.273   5.609 -0.3359  2.5578  0.1825
  103OSM    C9S10367   5.028   5.372   5.613  1.0505 -0.0628  0.0556
  103OSM    H9S10368   5.039   5.439   5.701  2.3138 -1.9240  1.4121
  103OSM    H9T10369   4.921   5.347   5.600  1.2416  0.3780 -2.9973
  103OSM   C10S10370   5.082   5.460   5.497 -0.2061  0.9173 -0.0379
  103OSM   H10S10371   5.188   5.487   5.516 -0.2689  1.5037 -0.5108
  103OSM   H10T10372   5.016   5.545   5.471 -1.0458  0.4677  0.5839
  103OSM   C11S10373   5.086   5.371   5.375 -0.1192  0.4828  1.1287
  103OSM   H11S10374   4.996   5.307   5.377  0.1231  0.1394  1.0798
  103OSM   H11T10375   5.168   5.298   5.388 -0.9276 -0.5524  0.5728
  103OSM   C12S10376   5.084   5.433   5.238 -0.1548 -0.7775 -0.7991
  103OSM   H12S10377   4.990   5.492   5.229 -0.2146 -0.6556  0.4461
  103OSM   H12T10378   5.073   5.350   5.165  0.4597 -1.7943  0.2300
  103OSM   C13S10379   5.199   5.524   5.193  0.2567 -0.1655 -0.0164
  103OSM   H13S10380   5.297   5.472   5.207  0.9541  0.6328 -1.5958
  103OSM   H13T10381   5.190   5.617   5.252 -1.5368 -0.4376  0.1779
  103OSM   C14S10382   5.179   5.574   5.048  0.2119 -0.1788 -0.3845
  103OSM   H14S10383   5.078   5.620   5.038  1.1514  1.5988 -2.4160
  103OSM   H14T10384   5.190   5.495   4.971  1.7143  1.3175 -1.7877
  103OSM   C15S10385   5.288   5.680   5.015  0.1328 -0.3139  0.4373
  103OSM   H15S10386   5.392   5.643   5.026  1.5190  3.1551  0.4959
  103OSM   H15T10387   5.275   5.762   5.088 -0.6495 -0.2725  0.2620
  103OSM   C16S10388   5.265   5.752   4.878 -0.0358  0.3049 -0.3188
  103OSM   H16S10389   5.366   5.783   4.843 -0.6523  1.6401 -0.9909
  103OSM   H16T10390   5.187   5.827   4.902 -2.0835 -1.1933 -1.9811
  103OSM   C17S10391   5.216   5.667   4.766  0.2648  0.7813  0.8646
  103OSM   H17S10392   5.113   5.641   4.799  0.5020  1.4162  2.1635
  103OSM   H17T10393   5.278   5.575   4.766  0.1063  0.6620 -0.3539
  103OSM   C18S10394   5.211   5.745   4.633  0.6273  0.3297  0.1702
  103OSM   H18S10395   5.170   5.678   4.554  0.1518  0.5606  0.2200
  103OSM   H18T10396   5.314   5.770   4.599  1.0278 -0.8392  0.4762
  103OSM   H18U10397   5.144   5.834   4.637  0.9830  0.6049  0.0200
  103OSM    C1F10398   5.231   4.969   6.294  0.9709  0.2782  0.0778
  103OSM     OF10399   5.226   4.853   6.337 -0.0820 -0.2105 -0.4303
  103OSM    C2F10400   5.363   5.042   6.265 -0.7210  0.0595 -0.4865
  103OSM    H2F10401   5.418   5.053   6.360  0.2185  1.4248 -1.1504
  103OSM    H2G10402   5.342   5.148   6.239  1.4562  0.1726 -2.0497
  103OSM    C3F10403   5.456   4.977   6.163 -0.8670  0.1889  0.1713
  103OSM    H3F10404   5.474   4.870   6.187  2.0927  0.5309 -0.1340
  103OSM    H3G10405   5.549   5.037   6.173  0.5936 -1.6918 -1.2891
  103OSM    C4F10406   5.401   4.984   6.011  0.1614 -0.4676 -0.3897
  103OSM    H4F10407   5.339   5.075   5.998  1.1369  0.0159 -1.9149
  103OSM    H4G10408   5.342   4.892   5.991 -1.0355  0.1469  0.2012
  103OSM    C5F10409   5.518   4.986   5.917 -0.2800  0.8211 -0.0200
  103OSM    H5F10410   5.593   4.907   5.935  2.2046  2.6323 -1.6891
  103OSM    H5G10411   5.581   5.073   5.944  0.2454  1.0574 -1.8333
  103OSM    C6F10412   5.466   4.972   5.770 -0.0297 -0.1000 -0.1251
  103OSM    H6F10413   5.375   5.033   5.755  0.0805  0.0901 -0.0243
  103OSM    H6G10414   5.448   4.863   5.755  0.8274 -0.3813  0.8141
  103OSM    C7F10415   5.589   5.018   5.681  1.1218 -0.5400 -0.5154
  103OSM    H7F10416   5.678   4.955   5.704  1.2801 -0.4779 -0.9558
  103OSM    H7G10417   5.624   5.119   5.712  3.1252 -1.2675 -0.2890
  103OSM    C8F10418   5.574   5.017   5.533  0.5323  0.1791 -0.4770
  103OSM    H8F10419   5.550   4.913   5.501 -0.0770  0.5524 -1.2799
  103OSM    H8G10420   5.668   5.045   5.481  0.5619 -1.5879 -1.4435
  103OSM    C9F10421   5.470   5.106   5.472 -0.5822  0.2125  0.3505
  103OSM    H9F10422   5.390   5.134   5.541 -2.1518 -2.7443 -0.1109
  103OSM   C10F10423   5.459   5.144   5.336 -0.0103 -0.9786 -0.4872
  103OSM   H10F10424   5.385   5.216   5.297 -0.3654 -1.0012  0.1286
  103OSM   C11F10425   5.541   5.073   5.234  0.5056 -0.1227  0.2069
  103OSM   H11F10426   5.563   4.972   5.274  1.6942  1.5355  4.2472
  103OSM   H11G10427   5.632   5.133   5.215  2.2790 -2.4942  0.6985
  103OSM   C12F10428   5.481   5.048   5.092 -0.2481  0.4326  0.6462
  103OSM   H12F10429   5.374   5.021   5.107 -0.1520 -0.3681 -0.0392
  103OSM   H12G10430   5.536   4.967   5.040  0.6875  0.1967  1.9660
  103OSM   C13F10431   5.472   5.176   5.008  0.7221 -0.6721  0.1726
  103OSM   H13F10432   5.571   5.216   4.979  0.7549 -0.7212  0.2172
  103OSM   H13G10433   5.419   5.255   5.065  0.1895 -0.9003 -0.0019
  103OSM   C14F10434   5.388   5.175   4.875 -0.7265 -0.1784 -0.3870
  103OSM   H14F10435   5.376   5.282   4.847  3.4525  0.4918 -0.2818
  103OSM   H14G10436   5.290   5.123   4.880 -1.2548  0.5476 -2.2978
  103OSM   C15F10437   5.437   5.129   4.734  0.0676 -0.0121 -0.4485
  103OSM   H15F10438   5.450   5.019   4.725 -1.0568 -0.2952  0.9488
  103OSM   H15G10439   5.536   5.181   4.730  0.5765 -0.7579  1.2902
  103OSM   C16F10440   5.345   5.179   4.622  0.2692 -0.0805 -0.1448
  103OSM   H16F10441   5.317   5.286   4.631  0.6603  0.0674 -0.6588
  103OSM   H16G10442   5.253   5.118   4.607  1.1766 -1.8667  1.1070
  103OSM   C17F10443   5.420   5.168   4.489 -0.0504  1.0933 -0.0292
  103OSM   H17F10444   5.458   5.064   4.480 -0.7722  0.7701  0.4979
  103OSM   H17G10445   5.506   5.236   4.477  0.5551  0.1224 -1.5370
  103OSM   C18F10446   5.338   5.192   4.362 -0.0314  0.5384  0.2865
  103OSM   H18F10447   5.251   5.124   4.361  0.3575  0.0460 -0.3474
  103OSM   H18G10448   5.400   5.187   4.270 -0.7817  0.3862 -0.2129
  103OSM   H18H10449   5.293   5.294   4.365 -0.1521  0.5360 -1.0480
  104OSM      N10450   5.700   4.155   7.095  0.2157  0.3696  0.0011
  104OSM    C1510451   5.704   4.006   7.069 -0.6648  0.2764  0.0500
  104OSM   H15A10452   5.649   3.943   7.139  0.0094 -0.2645  0.1040
  104OSM   H15B10453   5.805   3.973   7.049 -0.6400  0.3212  0.1004
  104OSM   H15C10454   5.651   3.993   6.976 -2.1605 -0.4365  0.9522
  104OSM    C1410455   5.562   4.206   7.100  0.2081 -0.2721 -0.7031
  104OSM   H14A10456   5.513   4.201   7.004 -0.8287 -1.6059 -0.1286
  104OSM   H14B10457   5.555   4.311   7.127 -2.0349 -0.4386 -0.4630
  104OSM   H14C10458   5.499   4.148   7.166  0.0943 -0.7288 -1.2039
  104OSM    C1310459   5.772   4.159   7.228  0.0306 -0.0603  0.3282
  104OSM   H13A10460   5.798   4.259   7.259 -0.1053 -0.8226  3.2035
  104OSM   H13B10461   5.845   4.079   7.224  0.9142  0.6619  1.3904
  104OSM   H13C10462   5.703   4.110   7.296  0.9077 -1.3481  0.3206
  104OSM    C1210463   5.783   4.235   6.993  0.3057  0.5335 -0.0016
  104OSM   H12A10464   5.884   4.196   6.996  0.2925  0.5625  1.6037
  104OSM   H12B10465   5.796   4.336   7.028 -0.6699  2.4952 -4.5035
  104OSM    C1110466   5.734   4.229   6.849 -0.4181 -0.7564 -0.1788
  104OSM   H11A10467   5.721   4.125   6.812  0.5903  0.2825 -3.8573
  104OSM   H11B10468   5.807   4.272   6.777 -1.5195 -1.1450 -1.5686
  104OSM      P10469   5.532   4.302   6.698  0.5351  0.0159 -0.2763
  104OSM    O1310470   5.431   4.194   6.720  0.7766 -0.3528  0.5537
  104OSM    O1410471   5.483   4.441   6.682 -0.2441 -0.1554 -0.3642
  104OSM    O1110472   5.654   4.260   6.606 -0.1253 -0.1126  0.4435
  104OSM    O1210473   5.615   4.308   6.832  0.3515  0.5253 -0.0327
  104OSM    C1S10474   5.624   4.193   6.479 -0.9704 -0.6653 -0.9945
  104OSM    H1S10475   5.520   4.198   6.442 -1.3251 -1.2725 -0.0875
  104OSM    H1T10476   5.660   4.088   6.472 -0.8562 -0.7902  0.9216
  104OSM     NF10477   5.673   4.238   6.233 -0.4163 -0.0479 -0.2932
  104OSM    HNF10478   5.703   4.152   6.193 -1.5553 -2.8196  4.1125
  104OSM    C2S10479   5.720   4.262   6.376 -0.4697  0.7526 -0.4729
  104OSM    H2S10480   5.706   4.368   6.406  0.5952  0.9778 -0.7038
  104OSM    C3S10481   5.879   4.235   6.405  0.1383 -0.0322  0.3171
  104OSM    H3S10482   5.893   4.125   6.404 -1.1149 -0.2070 -0.8509
  104OSM     O310483   5.926   4.280   6.539  0.3718  0.5904  0.3078
  104OSM    HO310484   5.846   4.281   6.593  0.6335 -2.3424  0.9156
  104OSM    C4S10485   5.955   4.299   6.298 -0.8603  0.5183  0.5807
  104OSM    H4S10486   5.978   4.405   6.309  0.6082  0.0183  2.9444
  104OSM    C5S10487   6.002   4.227   6.193  0.1056  0.5466  0.0513
  104OSM    H5S10488   5.968   4.124   6.178  0.2772  0.8029 -2.5880
  104OSM    C6S10489   6.083   4.272   6.081  0.3942  0.4034 -0.1191
  104OSM    H6S10490   6.188   4.236   6.087  0.5951  1.1369  3.7620
  104OSM    H6T10491   6.083   4.383   6.077 -2.5918  0.4434 -1.9699
  104OSM    C7S10492   6.014   4.240   5.948  0.0285 -0.0163  0.8208
  104OSM    H7S10493   5.906   4.269   5.954  0.3599  2.4816 -2.4175
  104OSM    H7T10494   6.021   4.130   5.938 -3.6475 -0.4965  1.8210
  104OSM    C8S10495   6.072   4.321   5.830  0.2395  0.0417  0.1779
  104OSM    H8S10496   6.180   4.297   5.820  0.3278  0.5642 -0.1240
  104OSM    H8T10497   6.070   4.430   5.848  2.0220 -0.2394  2.6521
  104OSM    C9S10498   6.007   4.288   5.694  0.0304 -0.3637 -0.3689
  104OSM    H9S10499   5.908   4.339   5.695  1.3714  2.4821 -1.1052
  104OSM    H9T10500   5.996   4.178   5.685 -1.5945 -0.1312 -1.8180
  104OSM   C10S10501   6.093   4.342   5.578  0.5090  0.1838  0.5162
  104OSM   H10S10502   6.184   4.280   5.566 -2.1095 -4.6644  2.6453
  104OSM   H10T10503   6.122   4.449   5.586  0.3498  0.3076 -0.4484
  104OSM   C11S10504   6.014   4.337   5.446 -0.4972 -0.3691 -0.2873
  104OSM   H11S10505   5.914   4.385   5.451  0.7073  2.1472  1.4842
  104OSM   H11T10506   5.997   4.228   5.432 -0.0905 -0.5750  0.7333
  104OSM   C12S10507   6.084   4.395   5.328 -0.6804  0.1744 -0.0323
  104OSM   H12S10508   6.163   4.324   5.296 -2.6272 -1.9456 -0.4505
  104OSM   H12T10509   6.130   4.495   5.337  0.7397 -0.5052  0.4897
  104OSM   C13S10510   5.992   4.395   5.209 -0.2745 -0.7539 -0.1777
  104OSM   H13S10511   5.905   4.459   5.235 -0.4414 -0.8952 -0.3896
  104OSM   H13T10512   5.950   4.294   5.192 -2.9134  0.5522 -2.0708
  104OSM   C14S10513   6.054   4.444   5.078  0.3604 -0.6705 -0.2993
  104OSM   H14S10514   6.149   4.389   5.060  1.2853  0.6080  0.5168
  104OSM   H14T10515   6.094   4.546   5.093 -1.3621  0.2925 -1.8386
  104OSM   C15S10516   5.963   4.445   4.950  0.5411  0.1610  0.3351
  104OSM   H15S10517   5.879   4.513   4.972  1.2948  1.3513 -0.3789
  104OSM   H15T10518   5.920   4.343   4.939  0.9352  0.1944 -2.1456
  104OSM   C16S10519   6.034   4.498   4.820 -0.0882 -0.1422 -0.4293
  104OSM   H16S10520   6.114   4.435   4.775  0.7009  2.0903 -2.3664
  104OSM   H16T10521   6.098   4.586   4.844 -0.6925 -0.0411  0.9020
  104OSM   C17S10522   5.945   4.512   4.699  0.7156  0.5852  0.4439
  104OSM   H17S10523   5.888   4.607   4.700  1.7527  1.2362  0.0134
  104OSM   H17T10524   5.871   4.429   4.706  0.7349  0.4505 -0.7066
  104OSM   C18S10525   6.008   4.487   4.563 -0.1356  0.0812 -0.2101
  104OSM   H18S10526   6.072   4.397   4.562 -0.6423 -0.2859  0.2224
  104OSM   H18T10527   6.073   4.571   4.529 -1.3248  1.1023 -0.0718
  104OSM   H18U10528   5.925   4.469   4.492 -0.7458 -1.1547  0.7911
  104OSM    C1F10529   5.578   4.299   6.179 -0.2567  0.3804 -0.3495
  104OSM     OF10530   5.502   4.379   6.241  0.2920  0.4375 -0.1940
  104OSM    C2F10531   5.563   4.271   6.035 -0.4149 -1.0110  0.0343
  104OSM    H2F10532   5.524   4.168   6.018  0.2507 -0.8100 -3.4759
  104OSM    H2G10533   5.666   4.287   5.997 -0.3844  2.2251  1.1325
  104OSM    C3F10534   5.471   4.372   5.962 -1.1322 -0.6787  0.7125
  104OSM    H3F10535   5.498   4.475   5.991  0.5636 -0.0622 -2.5152
  104OSM    H3G10536   5.367   4.361   6.000 -1.2647  1.4469  1.0675
  104OSM    C4F10537   5.491   4.363   5.807  0.2666  0.2454 -0.0052
  104OSM    H4F10538   5.403   4.394   5.747  1.6621  3.3291 -0.6642
  104OSM    H4G10539   5.501   4.255   5.785  0.3034 -0.1489  1.7801
  104OSM    C5F10540   5.610   4.439   5.743 -1.1166  0.9755  0.2280
  104OSM    H5F10541   5.701   4.401   5.795 -1.3189  0.7758  0.4398
  104OSM    H5G10542   5.607   4.548   5.766  1.3282  1.4451 -1.3243
  104OSM    C6F10543   5.634   4.422   5.594 -1.2736  0.6334  0.4023
  104OSM    H6F10544   5.606   4.320   5.559 -0.4461  0.7258 -0.5889
  104OSM    H6G10545   5.739   4.446   5.566 -1.6977  0.9634 -0.9673
  104OSM    C7F10546   5.560   4.535   5.515 -0.7196  0.0454  0.7323
  104OSM    H7F10547   5.607   4.634   5.532  1.1409 -0.5792 -0.5222
  104OSM    H7G10548   5.460   4.541   5.563 -1.0093  1.4358 -0.0033
  104OSM    C8F10549   5.561   4.506   5.362  0.5558 -0.1430 -0.3193
  104OSM    H8F10550   5.507   4.410   5.346  0.2315 -0.0652  0.2836
  104OSM    H8G10551   5.668   4.494   5.335  0.9079  2.5615 -0.3378
  104OSM    C9F10552   5.468   4.606   5.291 -0.0913  0.0925 -0.5346
  104OSM    H9F10553   5.409   4.677   5.350 -1.7331  1.4369 -3.5392
  104OSM   C10F10554   5.466   4.621   5.156  0.5090 -0.3934  0.2303
  104OSM   H10F10555   5.401   4.695   5.109  1.2195 -0.0767 -0.2707
  104OSM   C11F10556   5.554   4.530   5.067  0.6595 -0.2967 -0.2800
  104OSM   H11F10557   5.553   4.421   5.086  3.8178 -0.1564  1.3286
  104OSM   H11G10558   5.660   4.528   5.101  0.6371  2.5582  0.2679
  104OSM   C12F10559   5.524   4.564   4.925  0.0450 -0.1581 -0.6738
  104OSM   H12F10560   5.564   4.667   4.917 -1.9403  0.5814 -2.0124
  104OSM   H12G10561   5.415   4.575   4.906 -0.0382  0.7398  0.2454
  104OSM   C13F10562   5.588   4.468   4.822  0.4528  0.1558  0.8527
  104OSM   H13F10563   5.608   4.371   4.872  1.8250  0.6170  1.2549
  104OSM   H13G10564   5.682   4.510   4.780 -1.2013  2.0149 -1.2401
  104OSM   C14F10565   5.491   4.439   4.703  0.0249 -0.1691  0.5402
  104OSM   H14F10566   5.451   4.534   4.661  0.6200 -0.0871  0.1389
  104OSM   H14G10567   5.397   4.389   4.736 -1.0171  0.1517 -1.7181
  104OSM   C15F10568   5.567   4.350   4.599  1.0186  0.6652  0.3776
  104OSM   H15F10569   5.630   4.288   4.666 -0.3231  1.0843  2.0860
  104OSM   H15G10570   5.638   4.399   4.530 -1.2233  1.2181 -1.6786
  104OSM   C16F10571   5.458   4.255   4.529 -0.4110 -0.6156  0.8510
  104OSM   H16F10572   5.382   4.328   4.496 -0.7541 -0.6568  1.5310
  104OSM   H16G10573   5.409   4.184   4.599  0.7846 -0.7960  1.5400
  104OSM   C17F10574   5.516   4.175   4.413  0.2560 -0.4879 -0.0065
  104OSM   H17F10575   5.577   4.091   4.453 -0.6130 -1.5691 -0.9005
  104OSM   H17G10576   5.576   4.244   4.351 -1.0149 -0.2935 -1.0710
  104OSM   C18F10577   5.417   4.117   4.314 -0.2659  0.2323 -0.5805
  104OSM   H18F10578   5.365   4.203   4.265 -0.6266 -0.4258 -1.3752
  104OSM   H18G10579   5.351   4.046   4.368  0.8069  0.1620  0.6772
  104OSM   H18H10580   5.470   4.056   4.238  1.0240  0.6253 -0.0088
  105OSM      N10581   5.142   3.952   6.559 -0.5365 -0.9230 -0.3939
  105OSM    C1510582   5.033   4.012   6.476 -0.0423 -0.1713 -0.6279
  105OSM   H15A10583   5.022   3.963   6.380  0.4218  1.8882 -1.7767
  105OSM   H15B10584   5.062   4.115   6.461 -2.2833  0.6577  0.2052
  105OSM   H15C10585   4.935   4.003   6.522  0.7423 -1.9874  0.8414
  105OSM    C1410586   5.103   3.992   6.697  0.3093 -0.1937 -0.4419
  105OSM   H14A10587   5.105   4.100   6.703 -0.5929 -0.1117 -1.3638
  105OSM   H14B10588   5.182   3.955   6.760 -0.5975  1.4639  1.8268
  105OSM   H14C10589   5.015   3.942   6.736  0.0463 -0.8186 -1.7865
  105OSM    C1310590   5.150   3.802   6.544 -0.6895  0.5535 -0.5411
  105OSM   H13A10591   5.203   3.773   6.455  1.3745  1.6084  0.2650
  105OSM   H13B10592   5.052   3.756   6.548 -0.2979 -0.2495  0.0684
  105OSM   H13C10593   5.210   3.755   6.620 -1.2216  0.5237 -0.1293
  105OSM    C1210594   5.280   4.015   6.530  0.2125 -0.1154 -0.4018
  105OSM   H12A10595   5.345   3.998   6.615 -0.4657  0.5824  0.2760
  105OSM   H12B10596   5.260   4.121   6.528  0.2823 -0.1080 -2.0817
  105OSM    C1110597   5.352   3.965   6.403  0.2633  0.2710  0.4787
  105OSM   H11A10598   5.445   4.022   6.381  1.2286 -1.6072 -0.5868
  105OSM   H11B10599   5.292   3.979   6.311  0.9418 -0.6751 -0.1271
  105OSM      P10600   5.521   3.787   6.507 -0.5492  0.1569 -0.2400
  105OSM    O1310601   5.517   3.845   6.643 -0.0916  0.3704  0.6022
  105OSM    O1410602   5.532   3.637   6.494  0.2943  0.6608 -0.0111
  105OSM    O1110603   5.636   3.851   6.418  0.0563 -0.4176 -0.1349
  105OSM    O1210604   5.393   3.824   6.417 -0.3265  0.5040  0.0034
  105OSM    C1S10605   5.673   3.797   6.293 -0.3761  0.4553  0.4707
  105OSM    H1S10606   5.609   3.847   6.218  1.4489  2.1930 -0.0038
  105OSM    H1T10607   5.675   3.687   6.276 -1.1146  0.5520 -0.3177
  105OSM     NF10608   5.839   3.810   6.103  0.3204 -0.4042  0.1006
  105OSM    HNF10609   5.869   3.721   6.071 -1.2785 -1.4513  1.3428
  105OSM    C2S10610   5.816   3.828   6.251 -0.2055 -0.4917  0.9889
  105OSM    H2S10611   5.832   3.936   6.271 -0.2663 -0.5026  1.0962
  105OSM    C3S10612   5.918   3.746   6.335  0.5761 -0.3973 -0.6914
  105OSM    H3S10613   5.927   3.641   6.300  0.2896 -0.7770  0.3529
  105OSM     O310614   5.895   3.751   6.473 -0.4289 -0.0766 -0.5311
  105OSM    HO310615   5.820   3.811   6.478  0.7350  1.3475  0.7109
  105OSM    C4S10616   6.051   3.811   6.315 -0.7600  0.9469 -0.5039
  105OSM    H4S10617   6.075   3.910   6.357  1.5788 -0.5831  2.0826
  105OSM    C5S10618   6.154   3.749   6.257 -0.1728 -0.0991  0.3385
  105OSM    H5S10619   6.133   3.649   6.217  1.1133  0.3389 -1.5742
  105OSM    C6S10620   6.290   3.806   6.225 -1.0605 -0.5442 -0.1130
  105OSM    H6S10621   6.361   3.721   6.218  0.9589  0.9787  1.0736
  105OSM    H6T10622   6.314   3.869   6.313 -0.4241  0.4978 -1.0048
  105OSM    C7S10623   6.288   3.900   6.110  0.1496  0.7529  1.0402
  105OSM    H7S10624   6.389   3.946   6.112 -0.1882  1.5690  0.0294
  105OSM    H7T10625   6.215   3.982   6.125  0.0999  0.8202  0.4560
  105OSM    C8S10626   6.251   3.831   5.966 -0.3692 -0.8711 -0.8982
  105OSM    H8S10627   6.144   3.800   5.974 -1.3006  2.4408  1.2942
  105OSM    H8T10628   6.321   3.747   5.949  0.3770 -0.2502 -0.9376
  105OSM    C9S10629   6.277   3.940   5.860 -0.2167  0.1453 -0.2261
  105OSM    H9S10630   6.386   3.954   5.846  0.3372 -2.0031  1.3999
  105OSM    H9T10631   6.235   4.040   5.884 -1.5165 -1.1226  3.4867
  105OSM   C10S10632   6.222   3.895   5.717  0.4799 -0.2843 -0.1496
  105OSM   H10S10633   6.112   3.899   5.703  0.6035 -1.0252 -1.4421
  105OSM   H10T10634   6.249   3.789   5.698  1.6256  0.3319 -2.2761
  105OSM   C11S10635   6.294   3.986   5.614 -0.4137 -0.4834  0.0296
  105OSM   H11S10636   6.398   3.947   5.618 -0.4423 -0.4579  2.0389
  105OSM   H11T10637   6.295   4.087   5.658  3.1162  0.4188 -1.7178
  105OSM   C12S10638   6.242   3.967   5.477  0.4347 -0.0229 -0.1106
  105OSM   H12S10639   6.131   3.969   5.474  0.4225 -1.0769 -1.5447
  105OSM   H12T10640   6.249   3.859   5.451 -0.2943 -0.4247  1.2391
  105OSM   C13S10641   6.293   4.069   5.371  0.1953  0.4141  0.1189
  105OSM   H13S10642   6.399   4.044   5.350 -0.3708 -1.2327 -0.9962
  105OSM   H13T10643   6.288   4.166   5.425 -1.6993 -1.0078  2.7301
  105OSM   C14S10644   6.210   4.072   5.245  0.8142  0.0250 -0.2318
  105OSM   H14S10645   6.262   4.145   5.179  0.1952  0.4887 -0.2205
  105OSM   H14T10646   6.113   4.123   5.265  1.0663 -0.5221  2.8462
  105OSM   C15S10647   6.199   3.947   5.166  0.3333 -0.1655 -0.0614
  105OSM   H15S10648   6.105   3.897   5.200  0.7599 -0.0162  1.3881
  105OSM   H15T10649   6.287   3.883   5.187  1.8867  1.9618  0.1552
  105OSM   C16S10650   6.195   3.966   5.013 -1.3216 -0.2797  0.0119
  105OSM   H16S10651   6.172   3.862   4.980  1.0757 -1.1499  0.8104
  105OSM   H16T10652   6.296   3.998   4.979 -1.5809  1.8778  1.0959
  105OSM   C17S10653   6.083   4.070   4.975  0.4406 -0.4992  1.0508
  105OSM   H17S10654   6.118   4.174   4.990  0.0846 -0.1132 -0.5828
  105OSM   H17T10655   5.999   4.050   5.046 -0.1239 -0.8889  0.2874
  105OSM   C18S10656   6.029   4.065   4.837 -0.3163  0.3013  0.7882
  105OSM   H18S10657   5.979   4.157   4.800  0.8232 -0.0091 -1.7405
  105OSM   H18T10658   5.974   3.970   4.818  2.0239 -0.9986  0.1925
  105OSM   H18U10659   6.114   4.050   4.767 -0.4299 -0.9774  0.9031
  105OSM    C1F10660   5.793   3.896   6.015 -0.4519  0.8853  0.3829
  105OSM     OF10661   5.731   3.994   6.053 -0.3771 -0.5536  0.3193
  105OSM    C2F10662   5.815   3.860   5.874 -0.7054  0.4237  0.5613
  105OSM    H2F10663   5.741   3.783   5.842 -0.3178 -0.8576  2.6016
  105OSM    H2G10664   5.914   3.815   5.855 -0.6272  0.6486  0.4280
  105OSM    C3F10665   5.800   3.981   5.775 -0.2241 -0.2622 -0.0196
  105OSM    H3F10666   5.884   4.048   5.805  1.7984 -1.4566 -2.6693
  105OSM    H3G10667   5.701   4.028   5.792 -0.2829 -0.4210  0.0769
  105OSM    C4F10668   5.809   3.946   5.629  0.3788 -0.8492  0.8710
  105OSM    H4F10669   5.735   3.869   5.598 -0.3510  0.9953 -2.5048
  105OSM    H4G10670   5.908   3.909   5.595  0.2070 -1.4371  1.0091
  105OSM    C5F10671   5.758   4.070   5.539 -0.4947 -0.0776 -0.2234
  105OSM    H5F10672   5.840   4.144   5.550 -0.9393  0.1744  1.6737
  105OSM    H5G10673   5.663   4.111   5.579  0.1127  0.7254  0.4363
  105OSM    C6F10674   5.749   4.024   5.397  0.4639 -0.7103  0.3239
  105OSM    H6F10675   5.687   3.932   5.391 -1.3212  0.4784 -0.2177
  105OSM    H6G10676   5.851   4.003   5.360  1.2967 -1.2332  2.7221
  105OSM    C7F10677   5.679   4.125   5.295 -0.2219 -0.0710 -0.8980
  105OSM    H7F10678   5.741   4.209   5.258 -0.5354  0.1798 -0.8612
  105OSM    H7G10679   5.600   4.174   5.356  0.6375  0.6566 -0.3414
  105OSM    C8F10680   5.624   4.047   5.178  0.0379 -0.3597 -0.2586
  105OSM    H8F10681   5.568   3.960   5.219  2.4814 -1.7159  0.3971
  105OSM    H8G10682   5.713   3.997   5.132  0.2902 -0.6510  0.5388
  105OSM    C9F10683   5.528   4.126   5.087 -0.4925  0.2160 -0.2761
  105OSM    H9F10684   5.450   4.183   5.139  0.7862  0.5530  1.3628
  105OSM   C10F10685   5.538   4.122   4.953  0.1286 -0.4993  1.1480
  105OSM   H10F10686   5.460   4.176   4.898  1.8974  1.7396  0.6876
  105OSM   C11F10687   5.636   4.049   4.861 -0.4557 -0.4354  0.8628
  105OSM   H11F10688   5.715   4.000   4.922 -0.9485 -2.8008 -0.2699
  105OSM   H11G10689   5.689   4.119   4.793  1.2042 -1.6296  0.8584
  105OSM   C12F10690   5.573   3.944   4.775 -0.4138 -0.0884  0.3883
  105OSM   H12F10691   5.501   4.007   4.718  0.4778 -0.4007 -1.1505
  105OSM   H12G10692   5.515   3.878   4.844  0.2401  0.2563  1.2731
  105OSM   C13F10693   5.681   3.869   4.694  0.7269 -0.0139  0.4815
  105OSM   H13F10694   5.726   3.796   4.764  1.8933  0.2219  0.0054
  105OSM   H13G10695   5.750   3.946   4.654 -0.9788  2.1449  1.4302
  105OSM   C14F10696   5.616   3.789   4.579  0.0242  0.5431 -0.3515
  105OSM   H14F10697   5.562   3.870   4.526  0.3505  0.6703 -0.4941
  105OSM   H14G10698   5.546   3.707   4.605  0.1614  0.2978 -0.7430
  105OSM   C15F10699   5.722   3.727   4.484 -0.2975 -0.3354  0.3280
  105OSM   H15F10700   5.791   3.659   4.539  0.3463 -1.2083 -1.4479
  105OSM   H15G10701   5.782   3.812   4.445 -0.1813 -1.1860 -1.4715
  105OSM   C16F10702   5.670   3.635   4.364 -0.3067 -0.4129 -0.7235
  105OSM   H16F10703   5.588   3.692   4.315  0.8754  1.1812 -0.9100
  105OSM   H16G10704   5.631   3.543   4.413  2.8530 -0.3188  2.4191
  105OSM   C17F10705   5.787   3.611   4.264 -0.6554 -0.1441 -0.1059
  105OSM   H17F10706   5.879   3.601   4.326 -1.2966 -0.8362  0.7744
  105OSM   H17G10707   5.810   3.699   4.201  1.4737  0.0157  0.8300
  105OSM   C18F10708   5.763   3.497   4.166  0.2049 -0.5846 -0.1529
  105OSM   H18F10709   5.740   3.404   4.222 -2.3201 -0.5817 -1.0479
  105OSM   H18G10710   5.843   3.470   4.094 -0.1849 -0.1486 -0.7607
  105OSM   H18H10711   5.668   3.527   4.118 -1.8766  1.0324  4.4288
  106OSM      N10712   4.813   2.496   6.942  0.2647  0.5239  0.0050
  106OSM    C1510713   4.919   2.435   7.020 -0.0874 -0.5276 -0.5086
  106OSM   H15A10714   4.952   2.513   7.087  0.8520 -0.3279 -1.1809
  106OSM   H15B10715   4.999   2.399   6.956 -0.6138 -0.2443 -1.3412
  106OSM   H15C10716   4.880   2.350   7.074 -0.0945  1.0202  2.0748
  106OSM    C1410717   4.708   2.535   7.045 -0.2598  0.1607  0.5290
  106OSM   H14A10718   4.631   2.593   6.996 -1.7309 -0.3724  2.1123
  106OSM   H14B10719   4.758   2.605   7.111  0.5868 -0.8820  1.0154
  106OSM   H14C10720   4.669   2.450   7.098  2.0258 -1.5328 -0.3327
  106OSM    C1310721   4.857   2.614   6.867  0.1508  0.7499  0.8988
  106OSM   H13A10722   4.788   2.648   6.791 -0.6361 -0.6816  0.9217
  106OSM   H13B10723   4.940   2.575   6.810 -1.2362 -1.1699  0.0615
  106OSM   H13C10724   4.885   2.698   6.928  1.8802 -0.1540  1.4010
  106OSM    C1210725   4.768   2.380   6.853  0.6764  0.1522  0.0321
  106OSM   H12A10726   4.741   2.299   6.919  0.2969  0.9393  0.8573
  106OSM   H12B10727   4.848   2.337   6.795  1.3970 -0.5645  1.5136
  106OSM    C1110728   4.643   2.406   6.761  0.0985 -0.1609 -0.9492
  106OSM   H11A10729   4.623   2.320   6.694 -1.3638  1.2677 -2.4540
  106OSM   H11B10730   4.671   2.487   6.690  1.9555  0.1603  0.0704
  106OSM      P10731   4.406   2.348   6.845  0.0770 -0.0135  0.1542
  106OSM    O1310732   4.455   2.243   6.939 -0.2612 -0.7393 -0.4279
  106OSM    O1410733   4.289   2.432   6.886  0.3835 -0.2534 -0.5141
  106OSM    O1110734   4.380   2.278   6.701  0.0760 -0.1069 -0.0157
  106OSM    O1210735   4.526   2.453   6.822 -0.4527 -0.3133  0.0317
  106OSM    C1S10736   4.363   2.370   6.589  0.9525  0.1218 -0.6834
  106OSM    H1S10737   4.459   2.392   6.539  0.7726  2.8278  0.0016
  106OSM    H1T10738   4.315   2.463   6.625 -1.8681 -1.5352  0.2052
  106OSM     NF10739   4.280   2.413   6.367 -0.6729 -0.0324 -0.4837
  106OSM    HNF10740   4.206   2.479   6.364  0.3158  1.3075  1.9573
  106OSM    C2S10741   4.267   2.316   6.477  0.5728 -0.2562  0.0326
  106OSM    H2S10742   4.304   2.219   6.438  2.1781  0.4331 -0.2507
  106OSM    C3S10743   4.126   2.311   6.530 -0.3396  0.0894  0.2826
  106OSM    H3S10744   4.105   2.416   6.561  2.2423  0.7079  0.1071
  106OSM     O310745   4.110   2.228   6.644  0.4013 -0.3976  0.0239
  106OSM    HO310746   4.202   2.213   6.668  0.6107 -2.5262 -1.8274
  106OSM    C4S10747   4.028   2.269   6.419 -0.5459 -0.2809  0.2458
  106OSM    H4S10748   3.987   2.365   6.383 -1.3246 -0.4916  0.5426
  106OSM    C5S10749   3.978   2.143   6.388 -0.0815  0.3875 -0.2495
  106OSM    H5S10750   4.011   2.059   6.452 -0.6515  1.7091  1.8675
  106OSM    C6S10751   3.863   2.114   6.297  0.0545  0.3587  0.3358
  106OSM    H6S10752   3.768   2.127   6.354  0.7302 -2.7062  2.4509
  106OSM    H6T10753   3.859   2.005   6.273 -1.2684 -0.0059  2.0231
  106OSM    C7S10754   3.875   2.190   6.162  0.4819  0.3607  0.1013
  106OSM    H7S10755   3.905   2.294   6.189  0.2497  0.2194  0.9229
  106OSM    H7T10756   3.779   2.189   6.106  1.7814  1.6298 -2.3093
  106OSM    C8S10757   4.005   2.157   6.081 -0.4216 -0.2424  0.0044
  106OSM    H8S10758   4.004   2.049   6.053  1.3920 -0.4718  0.6981
  106OSM    H8T10759   4.097   2.173   6.142 -0.6910  0.2478  0.2841
  106OSM    C9S10760   4.003   2.213   5.936  0.3931 -0.0683 -0.0690
  106OSM    H9S10761   3.916   2.169   5.883 -0.4542 -1.1565  2.0946
  106OSM    H9T10762   4.090   2.169   5.883 -0.4194  0.3502 -1.8515
  106OSM   C10S10763   3.992   2.364   5.932 -0.3594 -0.1672  0.6440
  106OSM   H10S10764   4.080   2.414   5.977 -0.6268 -0.9306  2.0528
  106OSM   H10T10765   3.907   2.404   5.992  1.0426  1.6906  1.4702
  106OSM   C11S10766   3.954   2.422   5.797  0.0025 -0.7782 -0.5493
  106OSM   H11S10767   3.955   2.533   5.801  3.5316 -0.6668 -0.7914
  106OSM   H11T10768   3.855   2.384   5.766 -1.4637  0.4914  2.2527
  106OSM   C12S10769   4.045   2.370   5.687  0.2068 -1.0705  0.0469
  106OSM   H12S10770   4.039   2.260   5.675 -2.6600 -1.1172  1.0115
  106OSM   H12T10771   4.154   2.386   5.701  0.1161  0.6667 -0.8918
  106OSM   C13S10772   4.016   2.430   5.549  0.2535 -0.1864  0.0257
  106OSM   H13S10773   3.992   2.538   5.560  0.0530 -0.3498  1.3079
  106OSM   H13T10774   3.933   2.375   5.502  2.4520 -1.9144 -2.0950
  106OSM   C14S10775   4.133   2.436   5.447  0.5072 -0.3543  0.5155
  106OSM   H14S10776   4.223   2.493   5.481 -0.8487  1.3517  1.4066
  106OSM   H14T10777   4.089   2.492   5.362  1.9506  1.6585  1.0087
  106OSM   C15S10778   4.174   2.303   5.390  0.1972  0.1880  0.2822
  106OSM   H15S10779   4.189   2.235   5.476 -1.5331  1.4228  1.6184
  106OSM   H15T10780   4.271   2.311   5.336 -1.1084 -1.9169 -2.6716
  106OSM   C16S10781   4.073   2.233   5.299 -0.4689 -0.5767  0.7650
  106OSM   H16S10782   3.965   2.232   5.329 -0.4982 -0.2069  0.6688
  106OSM   H16T10783   4.098   2.125   5.302 -1.7816 -0.9266  0.0410
  106OSM   C17S10784   4.085   2.264   5.151 -0.3172  0.4083 -0.1169
  106OSM   H17S10785   4.181   2.246   5.098 -0.8778  1.0507 -1.4179
  106OSM   H17T10786   4.059   2.372   5.144 -1.2627  0.5101  3.2201
  106OSM   C18S10787   3.981   2.186   5.069  0.2622  0.0685 -0.5107
  106OSM   H18S10788   3.994   2.077   5.089  1.2968  0.0877 -1.0147
  106OSM   H18T10789   3.994   2.196   4.960  0.4359 -1.3132 -0.6403
  106OSM   H18U10790   3.884   2.226   5.106  0.2176 -0.0718 -0.4743
  106OSM    C1F10791   4.391   2.418   6.289 -0.4143  0.0230  0.1882
  106OSM     OF10792   4.483   2.337   6.305  0.2685 -0.4124  0.2565
  106OSM    C2F10793   4.415   2.536   6.187  0.8741  0.6220 -0.4996
  106OSM    H2F10794   4.513   2.582   6.211  1.5592 -0.4261 -1.2090
  106OSM    H2G10795   4.329   2.606   6.198  1.2877  1.0880 -0.1952
  106OSM    C3F10796   4.410   2.487   6.042 -0.5034 -0.0366 -0.1821
  106OSM    H3F10797   4.314   2.448   6.001 -1.7489  0.3253  2.2446
  106OSM    H3G10798   4.485   2.407   6.025  3.1174  3.4088 -2.2920
  106OSM    C4F10799   4.451   2.602   5.937  0.5058  0.9882 -0.4997
  106OSM    H4F10800   4.546   2.645   5.977  0.4581  0.5588  0.0854
  106OSM    H4G10801   4.377   2.685   5.934  1.2322  1.6199 -1.9656
  106OSM    C5F10802   4.475   2.548   5.795 -0.3668 -0.6217 -0.7268
  106OSM    H5F10803   4.483   2.642   5.736  0.2483 -0.5498 -0.5419
  106OSM    H5G10804   4.388   2.485   5.768 -1.2813  0.4578 -0.3864
  106OSM    C6F10805   4.618   2.479   5.778  0.0361 -0.7557 -0.2256
  106OSM    H6F10806   4.622   2.387   5.840 -0.8235  0.3305  1.5341
  106OSM    H6G10807   4.704   2.539   5.816 -0.7944  1.0949 -1.1328
  106OSM    C7F10808   4.642   2.444   5.630  0.5634 -0.5090 -0.5636
  106OSM    H7F10809   4.742   2.397   5.623  0.0047 -2.0616  1.1141
  106OSM    H7G10810   4.643   2.539   5.571 -2.1680 -0.0398 -0.0131
  106OSM    C8F10811   4.537   2.362   5.554 -0.0000  0.0854  0.0116
  106OSM    H8F10812   4.461   2.438   5.527  1.4965  0.9081 -2.1429
  106OSM    H8G10813   4.501   2.283   5.625  1.1910 -0.7618 -0.3028
  106OSM    C9F10814   4.588   2.298   5.425  0.0752 -0.2100 -0.2956
  106OSM    H9F10815   4.645   2.208   5.451 -2.8684 -2.1327 -0.0837
  106OSM   C10F10816   4.574   2.346   5.298 -0.2080 -0.2218 -0.9007
  106OSM   H10F10817   4.607   2.292   5.208  0.9459 -0.7797 -0.1730
  106OSM   C11F10818   4.491   2.469   5.266  0.7709 -0.3226 -0.1689
  106OSM   H11F10819   4.565   2.553   5.262 -0.8207  1.0918 -2.7139
  106OSM   H11G10820   4.410   2.499   5.335  0.3959  0.3997 -0.9099
  106OSM   C12F10821   4.428   2.459   5.120  0.1452 -0.4723 -0.0983
  106OSM   H12F10822   4.358   2.544   5.110 -1.4103 -1.8226 -1.1708
  106OSM   H12G10823   4.370   2.365   5.111 -1.4034  0.2315  1.7471
  106OSM   C13F10824   4.537   2.463   5.011 -0.1405 -0.2946  0.6357
  106OSM   H13F10825   4.594   2.368   5.008 -0.6983 -0.5984 -1.1475
  106OSM   H13G10826   4.597   2.556   5.024  0.6861 -0.7045 -0.1314
  106OSM   C14F10827   4.462   2.488   4.875  0.2795  0.1707  0.7755
  106OSM   H14F10828   4.407   2.584   4.880  0.5515  0.2951  1.3797
  106OSM   H14G10829   4.397   2.399   4.860  1.8876 -0.8129 -0.7221
  106OSM   C15F10830   4.562   2.496   4.755 -1.2638  0.2866  0.9858
  106OSM   H15F10831   4.602   2.393   4.744 -1.3458  0.2772  0.7729
  106OSM   H15G10832   4.650   2.559   4.779 -2.1656  1.6428  0.8578
  106OSM   C16F10833   4.502   2.549   4.626  0.1098 -0.7217  0.5457
  106OSM   H16F10834   4.440   2.639   4.644  1.4000  0.0025  1.4560
  106OSM   H16G10835   4.438   2.473   4.576 -0.3464 -1.1542  1.7530
  106OSM   C17F10836   4.601   2.597   4.515 -0.0655 -0.0071 -0.5804
  106OSM   H17F10837   4.532   2.606   4.428  0.4841 -0.3265 -1.0613
  106OSM   H17G10838   4.677   2.516   4.513  0.9316  0.8980 -0.0729
  106OSM   C18F10839   4.669   2.725   4.544 -0.7457 -0.0365 -0.0663
  106OSM   H18F10840   4.721   2.718   4.642 -0.5792  0.2565 -0.1326
  106OSM   H18G10841   4.595   2.807   4.554 -0.2321  0.2123  2.1290
  106OSM   H18H10842   4.736   2.764   4.465 -1.1211  2.3364  0.7203
  107OSM      N10843   6.061   0.821   7.054  0.4898 -0.0917 -0.0862
  107OSM    C1510844   5.985   0.952   7.051 -0.0653  0.5232 -0.1068
  107OSM   H15A10845   5.910   0.946   6.974 -2.1979  2.2065  1.6919
  107OSM   H15B10846   6.043   1.028   7.000 -0.3647  1.2696  0.6370
  107OSM   H15C10847   5.952   0.978   7.150 -0.6863  1.7779 -0.6202
  107OSM    C1410848   6.173   0.845   7.147 -0.4615  0.5604 -1.0554
  107OSM   H14A10849   6.243   0.919   7.112 -1.4830  1.4649 -1.2363
  107OSM   H14B10850   6.222   0.749   7.145  0.1593  0.8503 -0.3746
  107OSM   H14C10851   6.132   0.857   7.246 -1.9289 -0.2619 -1.5346
  107OSM    C1310852   5.966   0.716   7.109 -0.5514  0.3837  0.5734
  107OSM   H13A10853   6.011   0.618   7.107  0.5883  0.8610  1.5067
  107OSM   H13B10854   5.876   0.716   7.048  1.3796 -2.2849 -2.6366
  107OSM   H13C10855   5.936   0.730   7.212 -0.6871  0.6026  0.5053
  107OSM    C1210856   6.110   0.785   6.914  0.4974 -0.0102  0.3779
  107OSM   H12A10857   6.190   0.714   6.929 -0.2615 -0.8353  0.6350
  107OSM   H12B10858   6.159   0.874   6.878  2.1444 -0.7882  0.6115
  107OSM    C1110859   6.011   0.736   6.801 -0.2588  0.3963  0.2011
  107OSM   H11A10860   6.080   0.728   6.714  0.2296 -2.4058  0.7517
  107OSM   H11B10861   5.936   0.818   6.791  0.6304  1.2389  0.2796
  107OSM      P10862   5.839   0.566   6.746  0.2473  0.0587  0.2306
  107OSM    O1310863   5.801   0.435   6.802 -0.2477  0.5171 -0.3203
  107OSM    O1410864   5.732   0.668   6.750  0.2018  0.3218  0.4013
  107OSM    O1110865   5.899   0.554   6.599  0.0908 -0.3237  0.0651
  107OSM    O1210866   5.960   0.612   6.829 -0.1763 -0.4364 -0.7455
  107OSM    C1S10867   6.005   0.463   6.564  0.0975  0.3908 -0.1210
  107OSM    H1S10868   5.972   0.359   6.586  0.4768 -0.0237 -1.4020
  107OSM    H1T10869   6.096   0.484   6.624 -0.3451 -0.4478  0.8731
  107OSM     NF10870   6.122   0.341   6.395  0.1485  0.3246 -0.0830
  107OSM    HNF10871   6.219   0.341   6.415  0.2746 -2.4260 -0.2920
  107OSM    C2S10872   6.050   0.464   6.419 -0.3448 -0.4940  0.9496
  107OSM    H2S10873   5.961   0.464   6.353 -0.4166  0.1829  1.0354
  107OSM    C3S10874   6.128   0.598   6.383  0.6446 -0.2028 -0.3098
  107OSM    H3S10875   6.207   0.629   6.454  0.3110  2.2548 -0.9399
  107OSM     O310876   6.040   0.713   6.372  0.3497  0.4444  0.3272
  107OSM    HO310877   5.961   0.668   6.403  0.4376  0.1348  0.1073
  107OSM    C4S10878   6.202   0.595   6.244  0.1237 -0.2473  0.1067
  107OSM    H4S10879   6.142   0.606   6.153  0.8944  0.5592 -0.3202
  107OSM    C5S10880   6.335   0.595   6.228 -0.4962  0.9742  0.0310
  107OSM    H5S10881   6.400   0.620   6.313  1.6517 -4.2035  0.2780
  107OSM    C6S10882   6.410   0.605   6.098 -0.1219  0.5089 -0.2756
  107OSM    H6S10883   6.509   0.557   6.112 -0.3617  0.7534  2.9073
  107OSM    H6T10884   6.426   0.714   6.087  1.2949  0.3318 -0.1707
  107OSM    C7S10885   6.352   0.537   5.973  0.8227 -0.0736 -0.7000
  107OSM    H7S10886   6.245   0.552   5.948 -0.0015 -3.1706  0.3960
  107OSM    H7T10887   6.364   0.430   6.001 -0.6785 -0.3373 -0.9603
  107OSM    C8S10888   6.440   0.571   5.857 -0.0793  0.3227 -0.0070
  107OSM    H8S10889   6.535   0.514   5.849  0.5729  1.0377  2.0263
  107OSM    H8T10890   6.461   0.679   5.846 -1.0150  0.4519 -0.6511
  107OSM    C9S10891   6.374   0.524   5.728  0.8013 -0.4547  0.7020
  107OSM    H9S10892   6.275   0.575   5.723  0.3151 -1.3178  1.3651
  107OSM    H9T10893   6.352   0.417   5.745 -1.8492  0.1072  1.2677
  107OSM   C10S10894   6.448   0.548   5.595 -0.7796  0.5971 -0.4838
  107OSM   H10S10895   6.531   0.475   5.588 -0.6313  0.5589  1.3636
  107OSM   H10T10896   6.499   0.646   5.602  0.6065 -0.2133  1.3303
  107OSM   C11S10897   6.372   0.521   5.463 -0.1831 -0.5167 -0.0066
  107OSM   H11S10898   6.289   0.592   5.445 -0.5657 -1.1093 -0.6346
  107OSM   H11T10899   6.325   0.420   5.464 -0.8992 -0.1913  0.2689
  107OSM   C12S10900   6.464   0.506   5.341  0.2140 -0.1277  0.4506
  107OSM   H12S10901   6.525   0.414   5.349 -1.6219 -1.5583 -1.0359
  107OSM   H12T10902   6.525   0.597   5.325 -1.3502  0.5606 -2.4546
  107OSM   C13S10903   6.386   0.477   5.208 -0.0199  0.3074 -0.0635
  107OSM   H13S10904   6.330   0.572   5.191  1.9855  1.5664  0.0461
  107OSM   H13T10905   6.310   0.397   5.224  0.3453 -0.1032 -0.3768
  107OSM   C14S10906   6.474   0.446   5.093  0.1345 -0.3780  0.3912
  107OSM   H14S10907   6.523   0.348   5.109 -0.5947 -0.8001  0.1284
  107OSM   H14T10908   6.546   0.527   5.070 -0.6783 -0.1139 -1.4581
  107OSM   C15S10909   6.400   0.426   4.953  0.3775  0.0382 -0.3928
  107OSM   H15S10910   6.350   0.517   4.914 -2.4341 -1.8925 -1.6821
  107OSM   H15T10911   6.307   0.373   4.984 -0.9379  2.4824  0.0963
  107OSM   C16S10912   6.484   0.355   4.844 -0.7425  0.5207  1.0858
  107OSM   H16S10913   6.513   0.256   4.885 -0.6820  1.0658  2.4176
  107OSM   H16T10914   6.576   0.417   4.835 -0.9775  1.0159  1.8944
  107OSM   C17S10915   6.415   0.348   4.709  0.1452  0.1232 -0.0859
  107OSM   H17S10916   6.306   0.344   4.732 -0.7128 -0.9170 -3.6778
  107OSM   H17T10917   6.435   0.253   4.655 -2.0929  0.6571 -2.0681
  107OSM   C18S10918   6.443   0.465   4.617 -0.2317 -0.1841 -0.0067
  107OSM   H18S10919   6.402   0.556   4.667 -3.5577 -0.8275 -1.2672
  107OSM   H18T10920   6.389   0.450   4.521  0.1448  0.6663 -0.3646
  107OSM   H18U10921   6.552   0.473   4.598  0.1930 -3.0650  0.8694
  107OSM    C1F10922   6.064   0.220   6.394 -0.2689  0.7279  0.6957
  107OSM     OF10923   5.945   0.211   6.379 -0.7001  0.1187 -0.1606
  107OSM    C2F10924   6.154   0.100   6.413 -0.0938 -0.4616  0.0122
  107OSM    H2F10925   6.171   0.099   6.523  0.5135 -0.1192 -0.0723
  107OSM    H2G10926   6.249   0.123   6.360 -0.9276  2.9751 -0.2496
  107OSM    C3F10927   6.084  -0.023   6.362  0.1694  0.2574 -0.3008
  107OSM    H3F10928   5.983  -0.037   6.407 -0.2332  2.3708 -0.4362
  107OSM    H3G10929   6.145  -0.107   6.402 -0.3875  0.7380  1.7156
  107OSM    C4F10930   6.074  -0.043   6.214 -0.0463 -0.1620  0.1428
  107OSM    H4F10931   6.179  -0.049   6.178  0.2658  1.2419  0.7759
  107OSM    H4G10932   6.015   0.035   6.162  3.2292  3.0179  0.8031
  107OSM    C5F10933   6.020  -0.188   6.167 -0.1776 -0.0244  0.4471
  107OSM    H5F10934   5.913  -0.199   6.195 -0.0688 -2.3914  0.1278
  107OSM    H5G10935   6.081  -0.264   6.221  3.0423  1.4258 -0.8945
  107OSM    C6F10936   6.050  -0.223   6.020 -0.5371 -0.7244 -0.1581
  107OSM    H6F10937   6.011  -0.325   6.000  0.7003 -1.1603 -0.4534
  107OSM    H6G10938   6.160  -0.222   6.005 -0.3815  0.8097  0.7653
  107OSM    C7F10939   5.985  -0.132   5.918  0.0449  0.3067 -0.1215
  107OSM    H7F10940   6.004  -0.174   5.817 -0.1635 -1.0080  0.3575
  107OSM    H7G10941   6.027  -0.031   5.936  0.2268  0.1033  0.6293
  107OSM    C8F10942   5.835  -0.106   5.932  0.1869  0.2754 -0.1992
  107OSM    H8F10943   5.813  -0.049   5.840  0.0058 -2.1516 -1.7460
  107OSM    H8G10944   5.816  -0.041   6.021 -1.4985 -1.2162  0.5985
  107OSM    C9F10945   5.747  -0.228   5.944  0.0094 -0.2418  0.2974
  107OSM    H9F10946   5.712  -0.244   6.047 -1.2720  0.9436  0.0683
  107OSM   C10F10947   5.700  -0.297   5.839 -0.4085 -0.8425 -0.1277
  107OSM   H10F10948   5.634  -0.384   5.855 -1.5408  0.0626  0.2831
  107OSM   C11F10949   5.725  -0.261   5.694 -0.0545  0.1848  0.7737
  107OSM   H11F10950   5.752  -0.154   5.676 -0.8377 -0.1182 -2.8387
  107OSM   H11G10951   5.628  -0.268   5.642 -0.3727 -1.0702  1.5013
  107OSM   C12F10952   5.822  -0.353   5.622 -0.1607  0.0079 -0.5235
  107OSM   H12F10953   5.786  -0.458   5.627 -1.3638  0.4616  3.1353
  107OSM   H12G10954   5.925  -0.340   5.663 -0.5728  0.2970  0.4364
  107OSM   C13F10955   5.831  -0.335   5.464  0.5220  0.5763 -0.5076
  107OSM   H13F10956   5.891  -0.243   5.446  0.0566  0.7090 -1.4111
  107OSM   H13G10957   5.729  -0.328   5.421  0.7387  1.4199 -0.9269
  107OSM   C14F10958   5.912  -0.447   5.392 -0.2548  0.3245  0.1129
  107OSM   H14F10959   5.873  -0.550   5.407  1.4217 -0.5216 -0.9770
  107OSM   H14G10960   6.016  -0.438   5.430  0.0689  1.6190 -0.9928
  107OSM   C15F10961   5.914  -0.420   5.239 -0.5670  0.2308 -0.0567
  107OSM   H15F10962   5.961  -0.320   5.228  0.0302 -0.2280 -2.3097
  107OSM   H15G10963   5.811  -0.410   5.199 -1.6853  2.1333  2.9245
  107OSM   C16F10964   6.010  -0.521   5.161 -0.0653 -0.7590 -0.2334
  107OSM   H16F10965   5.955  -0.616   5.182 -0.9151 -0.1418  0.4446
  107OSM   H16G10966   6.110  -0.520   5.209  2.2779  0.1367 -4.6803
  107OSM   C17F10967   6.036  -0.485   5.018  0.0677  0.2159  0.2655
  107OSM   H17F10968   5.928  -0.482   4.994  0.2131  2.3600 -0.3771
  107OSM   H17G10969   6.090  -0.569   4.970 -0.8488 -0.4575  0.3962
  107OSM   C18F10970   6.101  -0.350   4.995  0.0538 -0.3651  0.4353
  107OSM   H18F10971   6.210  -0.369   4.990 -0.3359 -2.7835 -0.3120
  107OSM   H18G10972   6.075  -0.268   5.066 -1.5690  0.2540 -0.8159
  107OSM   H18H10973   6.059  -0.307   4.902  0.2849 -1.4894 -0.1975
  108OSM      N10974   0.206   6.677   6.700  0.1447 -0.3175 -0.3906
  108OSM    C1510975   0.085   6.709   6.792 -0.5622  0.3267 -0.1622
  108OSM   H15A10976   0.096   6.808   6.834  2.7050  1.2316 -2.7481
  108OSM   H15B10977   0.077   6.638   6.872 -0.0493 -0.8273 -1.1047
  108OSM   H15C10978  -0.003   6.697   6.731  0.6112 -0.4057 -1.7795
  108OSM    C1410979   0.341   6.689   6.774  0.0089 -0.4033  0.6252
  108OSM   H14A10980   0.426   6.691   6.707 -1.0523 -0.6889 -0.7868
  108OSM   H14B10981   0.362   6.614   6.848 -0.8592  0.6469  1.9608
  108OSM   H14C10982   0.342   6.781   6.830  0.1898  1.2845 -1.9385
  108OSM    C1310983   0.189   6.529   6.662 -0.4304 -0.0739 -0.0107
  108OSM   H13A10984   0.174   6.467   6.749 -2.1667 -0.5793 -0.6332
  108OSM   H13B10985   0.274   6.481   6.615 -0.9952 -0.7663 -0.3431
  108OSM   H13C10986   0.101   6.517   6.601 -2.0240  1.2650  1.8949
  108OSM    C1210987   0.214   6.759   6.574  0.0654  0.1914  0.6129
  108OSM   H12A10988   0.300   6.730   6.515 -0.5925 -1.0268  0.2151
  108OSM   H12B10989   0.228   6.863   6.598 -1.4211  0.7248 -0.6886
  108OSM    C1110990   0.092   6.749   6.469  0.0663  0.0824 -0.6910
  108OSM   H11A10991   0.076   6.640   6.454 -0.5360  0.0590  0.0689
  108OSM   H11B10992   0.119   6.799   6.373 -0.9454 -1.1084 -1.6257
  108OSM      P10993  -0.023   6.969   6.547 -0.1664  0.4558  0.0525
  108OSM    O1310994  -0.163   7.009   6.576  0.2684 -0.0551  0.3759
  108OSM    O1410995   0.080   6.998   6.648  0.1793 -0.1625 -0.0966
  108OSM    O1110996   0.022   7.040   6.412 -0.8210  0.5393  0.4843
  108OSM    O1210997  -0.028   6.815   6.518 -0.6247 -0.0250  0.0287
  108OSM    C1S10998   0.160   7.072   6.387 -0.2759 -0.0645  0.2765
  108OSM    H1S10999   0.231   6.999   6.431  0.8969  1.7211  1.4727
  108OSM    H1T11000   0.174   7.172   6.434 -1.5719 -0.3756  1.4121
  108OSM     NF11001   0.332   7.084   6.219  0.4358  0.3178  0.6636
  108OSM    HNF11002   0.374   7.174   6.213 -0.3628  0.7966  1.8985
  108OSM    C2S11003   0.184   7.083   6.237  0.8224 -0.1517  0.0344
  108OSM    H2S11004   0.126   6.998   6.196  0.9801 -0.4982  0.5293
  108OSM    C3S11005   0.114   7.207   6.171 -0.0215 -0.3626  0.1989
  108OSM    H3S11006   0.173   7.299   6.191  0.4176 -1.1155  2.6519
  108OSM     O311007  -0.020   7.235   6.218  0.2017 -0.1863 -0.0207
  108OSM    HO311008  -0.027   7.186   6.300  2.3474  0.4446  0.5932
  108OSM    C4S11009   0.122   7.193   6.020  0.3498  0.0746  0.3764
  108OSM    H4S11010   0.223   7.208   5.980  0.5771 -0.6495  0.6672
  108OSM    C5S11011   0.016   7.180   5.941  0.2143  0.2695 -0.0468
  108OSM    H5S11012  -0.082   7.167   5.990  1.1002 -1.0392  1.4385
  108OSM    C6S11013   0.001   7.171   5.790 -0.4064  0.2825 -0.5049
  108OSM    H6S11014  -0.084   7.238   5.763 -0.0065  0.7044 -0.7304
  108OSM    H6T11015  -0.028   7.066   5.767 -0.9310 -0.6591  3.6010
  108OSM    C7S11016   0.128   7.213   5.709 -0.1178  0.3465 -1.1659
  108OSM    H7S11017   0.214   7.158   5.752 -0.8288  0.6860  0.7728
  108OSM    H7T11018   0.143   7.322   5.726  0.8728  0.6107 -3.3362
  108OSM    C8S11019   0.108   7.197   5.558  0.1771  0.3221  0.7816
  108OSM    H8S11020   0.015   7.256   5.544  0.9509  0.9865 -2.1907
  108OSM    H8T11021   0.103   7.090   5.526  1.3482 -0.1367  2.0048
  108OSM    C9S11022   0.226   7.256   5.484  0.2543  0.1374  1.2016
  108OSM    H9S11023   0.312   7.191   5.513 -1.0974 -2.2185  0.2133
  108OSM    H9T11024   0.262   7.355   5.518 -0.7623  0.6380  0.8608
  108OSM   C10S11025   0.215   7.232   5.327 -0.1135  0.4254 -0.3193
  108OSM   H10S11026   0.142   7.307   5.288  0.8783  1.5343 -0.0648
  108OSM   H10T11027   0.176   7.131   5.302 -0.7697  0.3854  0.8164
  108OSM   C11S11028   0.346   7.249   5.245  0.0051 -0.5770 -0.1930
  108OSM   H11S11029   0.428   7.186   5.284  1.7912  2.0024  0.5252
  108OSM   H11T11030   0.385   7.352   5.260 -0.3842 -0.3781 -0.5282
  108OSM   C12S11031   0.342   7.222   5.092  0.2566 -0.0143 -0.0555
  108OSM   H12S11032   0.422   7.280   5.042 -1.2135  1.4167 -0.8431
  108OSM   H12T11033   0.242   7.267   5.071  0.0288  0.4460  1.8175
  108OSM   C13S11034   0.346   7.079   5.056  0.3759  0.5536 -0.4934
  108OSM   H13S11035   0.294   7.034   5.143  1.4804  0.6090  0.2183
  108OSM   H13T11036   0.448   7.036   5.067  0.2756  0.6423  0.8956
  108OSM   C14S11037   0.300   7.039   4.914 -0.7839 -0.4589 -0.4731
  108OSM   H14S11038   0.209   7.099   4.889 -0.4293 -0.5016 -1.8985
  108OSM   H14T11039   0.276   6.931   4.912  2.0816 -1.1347 -1.8510
  108OSM   C15S11040   0.412   7.060   4.808  0.1884 -0.6421 -0.5898
  108OSM   H15S11041   0.496   6.988   4.821  2.2768  1.7629  0.2060
  108OSM   H15T11042   0.449   7.164   4.823 -0.7143 -0.3607 -0.2656
  108OSM   C16S11043   0.352   7.045   4.662 -0.0526 -0.3853 -0.0039
  108OSM   H16S11044   0.295   6.949   4.658  1.6920 -1.5428  1.3328
  108OSM   H16T11045   0.431   7.046   4.584 -1.0533 -1.1413 -1.0666
  108OSM   C17S11046   0.256   7.160   4.621 -0.1431 -0.2827  0.3571
  108OSM   H17S11047   0.306   7.257   4.645  1.5258 -0.6154 -1.4901
  108OSM   H17T11048   0.158   7.168   4.673 -1.0719  0.0164 -1.3376
  108OSM   C18S11049   0.209   7.159   4.475 -0.3609 -0.3191  0.1962
  108OSM   H18S11050   0.294   7.201   4.416  0.3260 -1.3901  0.3999
  108OSM   H18T11051   0.111   7.207   4.458 -0.5948 -1.0171 -0.4711
  108OSM   H18U11052   0.197   7.057   4.434 -0.3461  0.8106 -2.9238
  108OSM    C1F11053   0.400   6.966   6.241 -0.2914 -0.5392 -0.9682
  108OSM     OF11054   0.350   6.859   6.275  0.0972 -0.6268 -0.0934
  108OSM    C2F11055   0.546   6.968   6.228  0.9608 -0.0568 -1.0753
  108OSM    H2F11056   0.582   6.941   6.329  0.8471  3.9701  0.2321
  108OSM    H2G11057   0.585   7.067   6.195  0.3972  0.5922  0.1148
  108OSM    C3F11058   0.597   6.860   6.134 -0.7231 -0.1510 -0.2509
  108OSM    H3F11059   0.543   6.767   6.162  1.1400 -0.3040  3.3260
  108OSM    H3G11060   0.705   6.844   6.156 -0.3259  2.0789 -0.3290
  108OSM    C4F11061   0.573   6.885   5.983  0.2886  0.3544  0.1490
  108OSM    H4F11062   0.630   6.976   5.956 -0.0740  0.9544  1.3258
  108OSM    H4G11063   0.468   6.913   5.962  0.0488  0.1802  1.0422
  108OSM    C5F11064   0.612   6.764   5.889  0.0004 -0.1025  0.1007
  108OSM    H5F11065   0.548   6.674   5.900  0.1029 -0.2655 -0.6345
  108OSM    H5G11066   0.717   6.747   5.920  0.1734 -0.0011 -0.4322
  108OSM    C6F11067   0.614   6.793   5.742 -0.4487  0.4407  0.3164
  108OSM    H6F11068   0.701   6.858   5.716 -0.8718 -0.0122 -2.5321
  108OSM    H6G11069   0.526   6.851   5.707 -1.6766 -0.9663  0.9607
  108OSM    C7F11070   0.622   6.670   5.652 -0.4657  0.2956  0.1919
  108OSM    H7F11071   0.582   6.577   5.697 -0.8177  0.7547  0.8548
  108OSM    H7G11072   0.731   6.647   5.650 -0.3542  0.7952  0.3330
  108OSM    C8F11073   0.561   6.692   5.512 -0.4229 -0.1345 -0.0253
  108OSM    H8F11074   0.450   6.698   5.519 -0.3430  2.6859 -0.2977
  108OSM    H8G11075   0.571   6.599   5.452 -0.1239 -0.9790  1.2736
  108OSM    C9F11076   0.598   6.810   5.429  0.7739  0.1043 -0.8553
  108OSM    H9F11077   0.605   6.903   5.488  0.8080 -0.9208  0.8212
  108OSM   C10F11078   0.612   6.820   5.298 -0.5442  0.2820 -0.7144
  108OSM   H10F11079   0.638   6.919   5.258 -1.0648 -0.1182 -2.1007
  108OSM   C11F11080   0.602   6.705   5.205  0.2541 -0.3115  0.7752
  108OSM   H11F11081   0.536   6.623   5.242 -1.3287 -0.3362 -1.8396
  108OSM   H11G11082   0.698   6.668   5.165 -0.3759 -0.7700 -0.3531
  108OSM   C12F11083   0.511   6.749   5.080  0.2337  0.4267 -0.8938
  108OSM   H12F11084   0.554   6.833   5.022  0.7486  0.8898  0.1331
  108OSM   H12G11085   0.409   6.784   5.108  0.6834 -0.0543  1.6164
  108OSM   C13F11086   0.486   6.634   4.988  0.4697 -0.6016 -0.0471
  108OSM   H13F11087   0.454   6.543   5.044  1.0823 -0.1839  1.0266
  108OSM   H13G11088   0.584   6.595   4.953  0.5113 -1.2675  0.7727
  108OSM   C14F11089   0.402   6.687   4.872  0.2131 -0.8691 -0.2170
  108OSM   H14F11090   0.451   6.773   4.823  0.3966 -0.7226  0.2194
  108OSM   H14G11091   0.314   6.743   4.909  2.0676  1.1043  1.4574
  108OSM   C15F11092   0.381   6.582   4.761 -0.2779 -0.9585 -0.6577
  108OSM   H15F11093   0.335   6.490   4.803 -0.2822 -0.6890 -0.0666
  108OSM   H15G11094   0.485   6.562   4.727  0.8793  0.7051  1.5776
  108OSM   C16F11095   0.289   6.622   4.640  0.2336  0.1028 -0.3397
  108OSM   H16F11096   0.339   6.694   4.572 -0.4770 -0.4218 -1.4501
  108OSM   H16G11097   0.187   6.644   4.678 -1.3946 -5.3194 -0.6519
  108OSM   C17F11098   0.284   6.502   4.539  0.8268  0.5403 -0.0485
  108OSM   H17F11099   0.249   6.413   4.597 -1.7220  1.0068 -0.7168
  108OSM   H17G11100   0.387   6.493   4.500  1.1370  0.2478  0.8177
  108OSM   C18F11101   0.190   6.526   4.427  0.6978 -0.3835 -0.0842
  108OSM   H18F11102   0.197   6.630   4.390 -2.5815 -0.1087 -0.1747
  108OSM   H18G11103   0.085   6.510   4.460  0.3444  2.4718  0.4028
  108OSM   H18H11104   0.210   6.449   4.350  0.1886  0.5045 -1.1180
  109OSM      N11105   3.264   2.958   6.831 -0.0107 -0.4031  0.9678
  109OSM    C1511106   3.292   3.093   6.894 -0.6495  0.0225  0.6435
  109OSM   H15A11107   3.268   3.175   6.829  0.0355 -0.8759 -0.8005
  109OSM   H15B11108   3.396   3.104   6.922 -0.6811  0.7472  0.4918
  109OSM   H15C11109   3.239   3.094   6.988 -1.9274 -1.9113  0.0132
  109OSM    C1411110   3.279   2.865   6.939  0.1685  0.5503 -0.2138
  109OSM   H14A11111   3.200   2.866   7.012  1.0974 -2.2965  0.9585
  109OSM   H14B11112   3.375   2.892   6.982  1.0231 -1.3297 -0.8462
  109OSM   H14C11113   3.281   2.765   6.899  0.1346  0.6323 -0.4220
  109OSM    C1311114   3.129   2.949   6.778  0.5541  0.2081  0.0851
  109OSM   H13A11115   3.051   2.968   6.850  0.0941  1.9146 -0.8066
  109OSM   H13B11116   3.111   2.850   6.739 -0.0036  0.1302  0.5235
  109OSM   H13C11117   3.125   3.022   6.699  3.3708  1.7363  1.1810
  109OSM    C1211118   3.361   2.917   6.720 -0.0122  0.3651  0.8194
  109OSM   H12A11119   3.350   2.819   6.677 -0.2337  0.4321  0.7174
  109OSM   H12B11120   3.462   2.913   6.757  0.7844  1.2872 -1.1340
  109OSM    C1111121   3.378   3.019   6.600  0.5185  0.2424 -0.5461
  109OSM   H11A11122   3.468   2.986   6.543  1.3095  0.1647  0.7136
  109OSM   H11B11123   3.411   3.117   6.642  1.5850 -0.2839 -0.1047
  109OSM      P11124   3.207   2.893   6.440 -0.3470  0.1239 -0.1731
  109OSM    O1311125   3.269   2.765   6.489  0.7022  0.4723 -0.5735
  109OSM    O1411126   3.061   2.904   6.427 -0.1135  0.0782 -0.0441
  109OSM    O1111127   3.273   2.910   6.296 -0.3096  0.6633  0.6618
  109OSM    O1211128   3.264   3.023   6.515  0.2233  0.1540  0.1400
  109OSM    C1S11129   3.381   3.004   6.270  0.0493  0.8155 -0.3831
  109OSM    H1S11130   3.460   2.983   6.345 -0.8798 -0.9370  0.1717
  109OSM    H1T11131   3.354   3.111   6.281 -0.9620  0.4611  0.9636
  109OSM     NF11132   3.561   3.007   6.102 -0.2210  0.3893 -0.3711
  109OSM    HNF11133   3.592   3.079   6.041  2.5255 -0.7924 -0.5161
  109OSM    C2S11134   3.422   2.978   6.125 -0.2792  0.1143  0.4877
  109OSM    H2S11135   3.405   2.870   6.103 -2.0181  0.9214 -2.6988
  109OSM    C3S11136   3.331   3.054   6.030  0.2521  0.2740 -0.3185
  109OSM    H3S11137   3.344   3.163   6.044  0.3667  0.1185  0.9191
  109OSM     O311138   3.195   3.031   6.059 -0.3241  0.2142 -0.2554
  109OSM    HO311139   3.195   2.987   6.144 -0.0338  2.3223  0.9264
  109OSM    C4S11140   3.361   3.012   5.888  0.9275  0.4960  0.3242
  109OSM    H4S11141   3.341   2.905   5.878  1.0198  0.2619  2.2229
  109OSM    C5S11142   3.388   3.092   5.784  0.4767  0.8684  0.3571
  109OSM    H5S11143   3.381   3.200   5.804  1.9814  0.8794  0.9169
  109OSM    C6S11144   3.397   3.041   5.644 -0.2104  0.0853  0.9173
  109OSM    H6S11145   3.358   3.124   5.581  0.2475  0.8418  1.6245
  109OSM    H6T11146   3.335   2.955   5.609  1.3187 -0.2151 -1.2953
  109OSM    C7S11147   3.545   3.018   5.608  0.2564 -0.4820 -0.1528
  109OSM    H7S11148   3.589   2.946   5.680  2.6710 -0.2699 -1.3155
  109OSM    H7T11149   3.605   3.112   5.613  0.1503 -0.4700  1.2396
  109OSM    C8S11150   3.563   2.967   5.468 -0.5335  0.5687  0.3382
  109OSM    H8S11151   3.475   2.908   5.433 -0.3517 -0.1919  1.1164
  109OSM    H8T11152   3.647   2.895   5.463  0.6843  2.0478 -1.1789
  109OSM    C9S11153   3.609   3.079   5.375 -0.1210 -1.2549 -0.5325
  109OSM    H9S11154   3.697   3.127   5.424 -1.9559  0.0148  1.7364
  109OSM    H9T11155   3.531   3.157   5.360  1.7979  1.1721  1.2367
  109OSM   C10S11156   3.651   3.021   5.234  0.7050  0.4767  0.5940
  109OSM   H10S11157   3.737   2.951   5.246 -1.0650 -1.9029  0.0743
  109OSM   H10T11158   3.667   3.111   5.171  0.5349  0.7673  0.9589
  109OSM   C11S11159   3.524   2.948   5.172 -0.0536 -0.8284 -0.5875
  109OSM   H11S11160   3.441   3.022   5.173  0.9118  0.3025 -1.4246
  109OSM   H11T11161   3.491   2.862   5.233  1.4678 -0.8660  0.2139
  109OSM   C12S11162   3.548   2.897   5.035  0.8130 -0.1233  0.3206
  109OSM   H12S11163   3.610   2.806   5.050 -2.4659 -2.4645  0.5731
  109OSM   H12T11164   3.604   2.970   4.974  2.2873  0.2993  2.0764
  109OSM   C13S11165   3.419   2.849   4.954  0.1236  0.0730  0.5040
  109OSM   H13S11166   3.330   2.910   4.977 -0.5356 -0.2609 -1.0290
  109OSM   H13T11167   3.397   2.745   4.986  1.5401 -1.3668 -2.7019
  109OSM   C14S11168   3.433   2.838   4.807  0.3433  0.1708  0.3543
  109OSM   H14S11169   3.454   2.936   4.758 -1.6802  0.3796 -0.1751
  109OSM   H14T11170   3.342   2.795   4.761 -0.0803 -0.7760  1.9876
  109OSM   C15S11171   3.549   2.752   4.763 -0.3156 -0.9645  0.5109
  109OSM   H15S11172   3.551   2.650   4.807  0.5995 -0.8800  0.6768
  109OSM   H15T11173   3.643   2.805   4.788 -0.4364 -0.9346  0.9065
  109OSM   C16S11174   3.561   2.724   4.612  0.5961  0.3332 -0.3289
  109OSM   H16S11175   3.551   2.818   4.554 -1.0913  1.4848  1.7002
  109OSM   H16T11176   3.475   2.660   4.583  0.7556 -1.7397  3.1875
  109OSM   C17S11177   3.686   2.646   4.580  0.5859 -0.0648 -0.2075
  109OSM   H17S11178   3.665   2.549   4.631 -2.0335  0.1494 -0.7297
  109OSM   H17T11179   3.768   2.698   4.632  1.2296 -1.3639  0.1191
  109OSM   C18S11180   3.707   2.632   4.425 -0.1457 -0.3481 -0.0838
  109OSM   H18S11181   3.779   2.552   4.396  0.0911 -1.4592  3.1842
  109OSM   H18T11182   3.735   2.733   4.390 -1.0969 -0.1908 -0.4385
  109OSM   H18U11183   3.606   2.608   4.385 -0.1678 -0.0639 -0.1999
  109OSM    C1F11184   3.660   2.947   6.169 -0.0021  0.2201  0.1546
  109OSM     OF11185   3.639   2.846   6.237  0.0273 -0.2127  0.0272
  109OSM    C2F11186   3.797   3.000   6.160  0.7411 -0.3893 -0.2728
  109OSM    H2F11187   3.826   3.001   6.267  0.6944  1.1570 -0.2397
  109OSM    H2G11188   3.784   3.100   6.113  1.3707  0.3076  0.9792
  109OSM    C3F11189   3.898   2.913   6.077  0.1968  0.4998  0.0137
  109OSM    H3F11190   3.934   2.821   6.128 -1.2722 -0.3288 -0.4132
  109OSM    H3G11191   3.992   2.973   6.078  1.2037 -1.0272  1.1710
  109OSM    C4F11192   3.850   2.873   5.936 -0.2644 -0.4521 -0.9512
  109OSM    H4F11193   3.783   2.953   5.896  2.2457  1.0894 -2.3763
  109OSM    H4G11194   3.780   2.787   5.946  0.2238 -0.7470  0.0365
  109OSM    C5F11195   3.964   2.852   5.834 -0.9349  0.1460 -0.0791
  109OSM    H5F11196   4.009   2.752   5.852  2.1816  1.1146 -1.7150
  109OSM    H5G11197   4.048   2.922   5.854 -0.0662 -1.0305  0.5055
  109OSM    C6F11198   3.936   2.855   5.687 -0.3205 -0.5504 -0.0832
  109OSM    H6F11199   3.893   2.951   5.650  1.2453  0.2217  0.0003
  109OSM    H6G11200   3.861   2.779   5.659 -0.9653 -0.4156  1.2161
  109OSM    C7F11201   4.053   2.833   5.600  0.3137  0.4882  0.3833
  109OSM    H7F11202   4.115   2.745   5.630 -1.1886 -0.2793  1.3616
  109OSM    H7G11203   4.121   2.920   5.599 -0.6628  1.2665 -1.2430
  109OSM    C8F11204   3.998   2.813   5.460 -0.5999  0.0679  0.2081
  109OSM    H8F11205   3.931   2.894   5.425  1.4709  1.5123 -0.5880
  109OSM    H8G11206   3.928   2.727   5.464 -2.5235  1.6033  1.8036
  109OSM    C9F11207   4.115   2.783   5.369  0.4737 -0.4699 -0.3880
  109OSM    H9F11208   4.207   2.786   5.430 -0.8952 -0.9845  1.8295
  109OSM   C10F11209   4.104   2.741   5.246  0.6346  0.3051  0.0360
  109OSM   H10F11210   4.192   2.718   5.185  2.4068 -2.1879  3.1687
  109OSM   C11F11211   3.965   2.725   5.189  0.6057  0.6781 -0.1765
  109OSM   H11F11212   3.881   2.748   5.258 -0.0602  0.5409 -0.9314
  109OSM   H11G11213   3.961   2.631   5.131  2.6507  1.2858 -1.4276
  109OSM   C12F11214   3.949   2.832   5.081 -0.1780 -0.1221  1.5069
  109OSM   H12F11215   3.977   2.928   5.129 -1.1845  0.1985  1.4618
  109OSM   H12G11216   3.840   2.830   5.059  0.2293 -0.8746 -0.6300
  109OSM   C13F11217   4.031   2.805   4.950  0.8247  0.4749 -0.2960
  109OSM   H13F11218   4.140   2.804   4.971  1.1766 -1.3338 -1.9833
  109OSM   H13G11219   4.021   2.883   4.872  0.1743 -2.0606 -2.8880
  109OSM   C14F11220   4.006   2.673   4.874 -0.2019 -0.1647  0.0985
  109OSM   H14F11221   3.901   2.659   4.843  0.5588 -1.3273 -2.2014
  109OSM   H14G11222   4.008   2.589   4.947 -2.0387  0.6837  1.1745
  109OSM   C15F11223   4.103   2.647   4.757 -0.3859 -0.9071  0.1497
  109OSM   H15F11224   4.099   2.547   4.711  2.5929 -0.0902 -2.1883
  109OSM   H15G11225   4.201   2.654   4.810 -1.2898 -0.0942  1.8066
  109OSM   C16F11226   4.077   2.737   4.638 -0.1938  0.1372 -0.3495
  109OSM   H16F11227   4.065   2.842   4.673 -0.8813 -0.3358  0.9053
  109OSM   H16G11228   3.975   2.714   4.598 -2.3196  0.2377  4.3658
  109OSM   C17F11229   4.187   2.760   4.540  0.4799 -0.1522 -0.3331
  109OSM   H17F11230   4.289   2.773   4.581  1.5050 -4.3416 -1.0614
  109OSM   H17G11231   4.160   2.853   4.485  0.3155  0.1060  0.1817
  109OSM   C18F11232   4.194   2.654   4.433 -0.2571  0.4726 -0.9752
  109OSM   H18F11233   4.094   2.625   4.393 -1.5643  1.9375  0.9887
  109OSM   H18G11234   4.227   2.557   4.478  1.5973  0.6405 -1.8873
  109OSM   H18H11235   4.265   2.683   4.354  0.1269  1.1116 -0.4068
  110OSM      N11236   1.689   0.691   6.727  0.5008 -0.1333 -0.3727
  110OSM    C1511237   1.831   0.648   6.714  0.5558 -0.4962 -0.3207
  110OSM   H15A11238   1.827   0.542   6.698 -0.5879 -1.0559  2.8131
  110OSM   H15B11239   1.890   0.659   6.804  0.4532  0.2509 -0.3316
  110OSM   H15C11240   1.876   0.693   6.627  0.7420  0.4288  0.2282
  110OSM    C1411241   1.699   0.836   6.761  0.7149 -0.5686 -0.1413
  110OSM   H14A11242   1.734   0.900   6.681  2.4342 -2.1282 -0.7097
  110OSM   H14B11243   1.768   0.846   6.844  0.6465 -0.7458 -0.0624
  110OSM   H14C11244   1.603   0.874   6.790  0.5038  0.0150 -1.5406
  110OSM    C1311245   1.626   0.669   6.594  0.1403 -0.1359 -0.2770
  110OSM   H13A11246   1.667   0.739   6.523 -0.7341  2.2148  1.3980
  110OSM   H13B11247   1.520   0.685   6.609  0.4103  1.2730  0.3364
  110OSM   H13C11248   1.641   0.567   6.563  0.2218 -1.5532  3.7426
  110OSM    C1211249   1.621   0.617   6.840  0.3681  0.1087 -0.9659
  110OSM   H12A11250   1.680   0.630   6.929  0.1698 -2.0277 -0.4512
  110OSM   H12B11251   1.637   0.510   6.830  0.1858 -0.5824  3.8462
  110OSM    C1111252   1.471   0.649   6.864 -0.6263 -0.0571 -0.0933
  110OSM   H11A11253   1.453   0.756   6.889 -0.2417  0.2664 -1.1574
  110OSM   H11B11254   1.441   0.599   6.958 -1.1110  2.0238  0.9259
  110OSM      P11255   1.323   0.490   6.748  0.1095  0.0687  0.1793
  110OSM    O1311256   1.424   0.386   6.724 -0.3905 -0.3281  0.3536
  110OSM    O1411257   1.233   0.479   6.865 -0.1803  0.0325 -0.7416
  110OSM    O1111258   1.226   0.489   6.620 -0.4270  0.0292 -0.0607
  110OSM    O1211259   1.384   0.636   6.748  0.4498  0.2487 -0.0565
  110OSM    C1S11260   1.251   0.572   6.504 -1.0464  0.1969  0.2311
  110OSM    H1S11261   1.351   0.620   6.501 -0.2170 -1.4602  0.0360
  110OSM    H1T11262   1.183   0.658   6.517 -2.3085 -0.4110 -1.7970
  110OSM     NF11263   1.304   0.570   6.257 -0.2725  0.6813 -0.1955
  110OSM    HNF11264   1.262   0.639   6.198 -1.3428  2.4895  2.4867
  110OSM    C2S11265   1.229   0.500   6.367  0.5076 -0.7687  0.1675
  110OSM    H2S11266   1.256   0.393   6.377 -3.1043 -1.8027  0.1033
  110OSM    C3S11267   1.073   0.502   6.347 -0.4458 -0.6264 -0.3000
  110OSM    H3S11268   1.047   0.609   6.332 -1.3483 -0.9081 -0.8047
  110OSM     O311269   0.993   0.477   6.463  0.0459  0.4105  0.3867
  110OSM    HO311270   1.065   0.457   6.523 -0.0866  0.5448  0.5912
  110OSM    C4S11271   1.035   0.426   6.230 -0.2390 -0.6429  0.2382
  110OSM    H4S11272   1.053   0.318   6.238  0.5673 -0.3911  2.4195
  110OSM    C5S11273   0.968   0.466   6.115 -0.8280 -0.1391 -0.2728
  110OSM    H5S11274   0.923   0.566   6.111 -1.1640 -0.2875 -0.2335
  110OSM    C6S11275   0.933   0.373   5.995  0.1943  0.0406 -0.0164
  110OSM    H6S11276   0.921   0.434   5.903 -2.9025 -1.0241 -0.4255
  110OSM    H6T11277   0.835   0.326   6.017 -0.3466  1.1602  0.0230
  110OSM    C7S11278   1.038   0.261   5.964 -0.3020  0.0064  0.3103
  110OSM    H7S11279   1.035   0.178   6.038  0.2886  1.6699  2.2575
  110OSM    H7T11280   1.140   0.306   5.967 -0.6205  0.9727 -1.7740
  110OSM    C8S11281   1.017   0.191   5.827  0.6101  0.1114  0.7515
  110OSM    H8S11282   0.913   0.154   5.814  0.7100 -0.8187  2.3621
  110OSM    H8T11283   1.069   0.093   5.824 -0.3116 -0.6377  4.2734
  110OSM    C9S11284   1.060   0.272   5.706 -0.5692  0.0928  0.5721
  110OSM    H9S11285   1.164   0.306   5.727  0.0448 -1.4701  0.2034
  110OSM    H9T11286   1.004   0.368   5.709  0.7296  1.0169 -1.8720
  110OSM   C10S11287   1.046   0.201   5.571  0.2511  0.6859 -0.9183
  110OSM   H10S11288   0.949   0.147   5.564  0.6763 -0.2387  0.0139
  110OSM   H10T11289   1.130   0.129   5.580  0.1187  0.5098 -1.0805
  110OSM   C11S11290   1.067   0.297   5.453 -0.3187  0.2296 -0.4548
  110OSM   H11S11291   1.154   0.365   5.462 -2.3424  2.8087  1.1507
  110OSM   H11T11292   0.981   0.366   5.436  1.2472  2.4749  0.3022
  110OSM   C12S11293   1.088   0.222   5.324  0.8414  0.1761 -0.0479
  110OSM   H12S11294   0.993   0.168   5.305 -0.8696  2.8899  0.2387
  110OSM   H12T11295   1.168   0.146   5.339  0.2491  0.0181  2.6492
  110OSM   C13S11296   1.125   0.310   5.205  0.0679  0.4957 -0.0676
  110OSM   H13S11297   1.225   0.354   5.222  0.3054  0.0872 -0.3726
  110OSM   H13T11298   1.048   0.388   5.188 -0.5010 -0.1127 -0.3103
  110OSM   C14S11299   1.144   0.225   5.083  0.3930  0.3963  0.5248
  110OSM   H14S11300   1.041   0.197   5.049  0.2435  0.8944  0.5616
  110OSM   H14T11301   1.209   0.136   5.097  0.8280  0.8873  1.6501
  110OSM   C15S11302   1.182   0.308   4.962  0.0261  0.1992 -0.2606
  110OSM   H15S11303   1.291   0.325   4.957  0.0191 -0.0278 -1.2305
  110OSM   H15T11304   1.127   0.405   4.950 -0.3455 -0.1942 -1.9657
  110OSM   C16S11305   1.163   0.237   4.837  0.0159  0.6256  0.4799
  110OSM   H16S11306   1.058   0.200   4.835 -0.6712  2.4100 -1.9449
  110OSM   H16T11307   1.225   0.147   4.852  0.2996  0.8239  0.5051
  110OSM   C17S11308   1.195   0.301   4.702  0.2615  1.1376 -0.3585
  110OSM   H17S11309   1.121   0.382   4.687  0.0758  1.0715  0.2131
  110OSM   H17T11310   1.176   0.218   4.631  0.5509  2.3243 -1.9018
  110OSM   C18S11311   1.340   0.343   4.681  0.1439 -0.1281 -0.5600
  110OSM   H18S11312   1.417   0.265   4.696 -0.9207 -0.8510  1.4314
  110OSM   H18T11313   1.368   0.420   4.757  2.4701  0.5763 -2.0034
  110OSM   H18U11314   1.352   0.392   4.582 -0.9775 -0.8873 -1.0782
  110OSM    C1F11315   1.432   0.534   6.249  0.3201 -0.3882  0.0852
  110OSM     OF11316   1.488   0.469   6.333  0.0752  0.3279 -0.4334
  110OSM    C2F11317   1.504   0.584   6.127 -0.5253  0.0798  0.1103
  110OSM    H2F11318   1.484   0.682   6.078  0.4153 -0.9948 -2.6246
  110OSM    H2G11319   1.464   0.512   6.052 -2.8550 -1.2896  2.4994
  110OSM    C3F11320   1.656   0.566   6.145 -0.6685 -0.2456 -1.0528
  110OSM    H3F11321   1.674   0.467   6.192 -0.2092 -0.6026 -1.9466
  110OSM    H3G11322   1.691   0.653   6.204  1.3715 -1.1083 -0.8969
  110OSM    C4F11323   1.744   0.558   6.018 -0.1292 -0.3853 -0.2339
  110OSM    H4F11324   1.732   0.462   5.963  1.4078 -0.9825  0.4288
  110OSM    H4G11325   1.849   0.555   6.054 -0.3463 -0.3050  0.4014
  110OSM    C5F11326   1.732   0.678   5.918  0.5612 -0.3188  0.2592
  110OSM    H5F11327   1.818   0.748   5.929  1.4325 -1.1215 -1.0910
  110OSM    H5G11328   1.634   0.725   5.939  0.4356 -0.5807  0.2681
  110OSM    C6F11329   1.737   0.631   5.770 -0.1001 -0.0809 -0.3966
  110OSM    H6F11330   1.695   0.528   5.766  0.7203 -0.5842  2.0789
  110OSM    H6G11331   1.844   0.632   5.739  0.7923  1.7228  2.3603
  110OSM    C7F11332   1.658   0.712   5.667 -0.9862 -0.3083  0.1962
  110OSM    H7F11333   1.699   0.815   5.663 -2.6081  0.3497  0.0959
  110OSM    H7G11334   1.554   0.720   5.704 -0.3071 -0.4557  2.2671
  110OSM    C8F11335   1.651   0.648   5.529 -0.3737 -0.4000  0.1565
  110OSM    H8F11336   1.621   0.541   5.522  1.2323 -0.7697 -2.2261
  110OSM    H8G11337   1.754   0.654   5.488 -0.5383  0.6610 -0.1425
  110OSM    C9F11338   1.569   0.734   5.435  0.0057 -0.1113  0.6227
  110OSM    H9F11339   1.533   0.832   5.469 -0.4510 -0.3601  0.8713
  110OSM   C10F11340   1.530   0.683   5.313 -0.1703 -0.3292 -0.1016
  110OSM   H10F11341   1.459   0.738   5.249  0.9491 -0.5005 -1.5523
  110OSM   C11F11342   1.559   0.547   5.256  0.4087  0.1800 -0.7837
  110OSM   H11F11343   1.485   0.482   5.307  3.2656 -1.4185  1.6048
  110OSM   H11G11344   1.660   0.511   5.282  0.2403  0.5841  0.4905
  110OSM   C12F11345   1.532   0.529   5.106 -0.0321 -0.1681  0.3803
  110OSM   H12F11346   1.433   0.574   5.084 -0.5542 -1.2773  0.3783
  110OSM   H12G11347   1.524   0.421   5.079  0.6546 -0.4191  1.1498
  110OSM   C13F11348   1.640   0.578   5.009 -0.1871  0.0844  1.0467
  110OSM   H13F11349   1.729   0.518   5.037  0.0149  0.1224  0.4907
  110OSM   H13G11350   1.663   0.682   5.041  1.2336  0.0753  0.0991
  110OSM   C14F11351   1.606   0.578   4.858 -0.1992 -0.3605  0.0372
  110OSM   H14F11352   1.517   0.641   4.833 -1.1621 -1.2281  1.1754
  110OSM   H14G11353   1.589   0.477   4.817 -0.8682 -0.2233 -0.0361
  110OSM   C15F11354   1.719   0.639   4.770  0.5352  0.0329 -0.1869
  110OSM   H15F11355   1.792   0.556   4.760  0.0345 -0.5163  0.5779
  110OSM   H15G11356   1.781   0.716   4.820 -0.2787 -0.4220  1.6220
  110OSM   C16F11357   1.680   0.695   4.632 -0.1067 -0.5111 -0.0107
  110OSM   H16F11358   1.768   0.736   4.579 -0.9751  1.3586 -0.1046
  110OSM   H16G11359   1.614   0.781   4.655 -0.3890 -0.9764  0.9727
  110OSM   C17F11360   1.613   0.602   4.534  0.0495 -0.2966  0.3477
  110OSM   H17F11361   1.579   0.662   4.447 -0.9213  1.7748  2.0947
  110OSM   H17G11362   1.520   0.557   4.574  1.0737 -2.5546  0.3526
  110OSM   C18F11363   1.701   0.482   4.485  0.0775 -0.4170 -0.9704
  110OSM   H18F11364   1.803   0.516   4.456  1.4693 -1.2112  2.4717
  110OSM   H18G11365   1.642   0.428   4.408 -1.3789  1.5235 -1.2870
  110OSM   H18H11366   1.708   0.408   4.567 -1.5680 -2.1152 -2.2811
  111OSM      N11367   0.959   4.539   6.805 -0.0622  0.2080  0.3765
  111OSM    C1511368   0.812   4.532   6.780  1.0109  0.8406  0.3918
  111OSM   H15A11369   0.772   4.486   6.869 -1.4927  0.4924 -0.8320
  111OSM   H15B11370   0.786   4.462   6.702 -0.9843  1.7437  0.1705
  111OSM   H15C11371   0.763   4.626   6.758  0.6696  0.6395  0.2913
  111OSM    C1411372   0.981   4.631   6.918 -0.3472 -0.5502 -0.2527
  111OSM   H14A11373   0.947   4.593   7.013 -0.4645 -0.1936 -0.1507
  111OSM   H14B11374   0.937   4.729   6.914 -0.9238 -0.7354  1.0822
  111OSM   H14C11375   1.085   4.659   6.926 -0.3864  0.0318 -1.5572
  111OSM    C1311376   1.018   4.406   6.835  0.5942 -0.8120 -0.1382
  111OSM   H13A11377   1.124   4.416   6.822  0.6204 -1.5944 -0.5835
  111OSM   H13B11378   0.981   4.333   6.764  0.3428 -0.5603 -0.2667
  111OSM   H13C11379   1.003   4.373   6.937  0.9042 -3.4517 -0.8707
  111OSM    C1211380   1.021   4.607   6.684 -0.1657 -0.6161  0.5959
  111OSM   H12A11381   0.977   4.705   6.676  0.4947 -0.4142 -0.9941
  111OSM   H12B11382   0.985   4.551   6.598 -2.1580  0.2586  0.7994
  111OSM    C1111383   1.177   4.633   6.683  1.3517 -0.4321 -0.0687
  111OSM   H11A11384   1.200   4.706   6.763  0.9759 -0.6685  0.2586
  111OSM   H11B11385   1.202   4.698   6.596  0.6028 -2.6494 -2.0588
  111OSM      P11386   1.304   4.430   6.571  0.2147 -0.0704 -0.0736
  111OSM    O1311387   1.407   4.345   6.626 -0.0701 -0.2144 -0.2761
  111OSM    O1411388   1.197   4.371   6.492  0.0704  1.0652  0.0951
  111OSM    O1111389   1.372   4.533   6.475 -0.5137  0.0687 -0.2146
  111OSM    O1211390   1.249   4.514   6.693  0.5041  0.0758 -0.2243
  111OSM    C1S11391   1.472   4.618   6.542 -0.0117  0.3557 -1.1379
  111OSM    H1S11392   1.551   4.568   6.601 -0.0452  0.8121 -0.6933
  111OSM    H1T11393   1.424   4.698   6.602  1.3988  1.2522 -1.1488
  111OSM     NF11394   1.680   4.748   6.465  0.2280 -0.0597 -0.4035
  111OSM    HNF11395   1.677   4.848   6.458  0.5861 -0.0327 -0.1807
  111OSM    C2S11396   1.552   4.684   6.426 -0.0928 -0.4979  0.2098
  111OSM    H2S11397   1.583   4.594   6.369  3.7536 -0.6784  2.2791
  111OSM    C3S11398   1.457   4.774   6.332  0.4815  0.8277 -0.2428
  111OSM    H3S11399   1.420   4.857   6.396  2.3721  1.6910 -0.2019
  111OSM     O311400   1.327   4.715   6.294  0.0931  0.0615  0.8146
  111OSM    HO311401   1.318   4.647   6.361  0.7768  1.7088  2.6606
  111OSM    C4S11402   1.526   4.834   6.213 -0.0824 -0.0298  0.0685
  111OSM    H4S11403   1.567   4.932   6.239 -0.3801  0.2939 -0.6423
  111OSM    C5S11404   1.534   4.794   6.085  0.5438  0.0401 -0.2118
  111OSM    H5S11405   1.482   4.702   6.056  0.1903  0.3860 -0.6965
  111OSM    C6S11406   1.599   4.875   5.976 -0.6193  0.6716  0.1977
  111OSM    H6S11407   1.673   4.807   5.928 -1.1741 -1.5049  2.2075
  111OSM    H6T11408   1.658   4.959   6.018  0.2662 -0.5416  1.5045
  111OSM    C7S11409   1.515   4.932   5.864 -0.7648 -0.6992  0.4006
  111OSM    H7S11410   1.566   5.018   5.816  0.2571 -1.1427  0.6477
  111OSM    H7T11411   1.413   4.967   5.889 -1.4628 -2.2939 -0.1133
  111OSM    C8S11412   1.495   4.831   5.744  0.0137  0.2361  0.8662
  111OSM    H8S11413   1.388   4.816   5.720  0.7612 -0.3759 -2.5961
  111OSM    H8T11414   1.535   4.736   5.785  0.0576 -0.4844 -0.7733
  111OSM    C9S11415   1.577   4.868   5.624  0.3786  0.4374 -0.0244
  111OSM    H9S11416   1.686   4.858   5.644  0.3665  1.1286  0.4287
  111OSM    H9T11417   1.570   4.975   5.594 -1.6547 -0.0537 -1.4982
  111OSM   C10S11418   1.533   4.774   5.508 -0.3224 -0.1613 -1.0998
  111OSM   H10S11419   1.423   4.781   5.496 -0.0662  3.0613 -2.5686
  111OSM   H10T11420   1.559   4.668   5.529  0.1403  0.2486  0.6282
  111OSM   C11S11421   1.593   4.823   5.378 -0.5439 -0.4560 -0.5962
  111OSM   H11S11422   1.690   4.869   5.404  0.0469 -1.5215 -0.8817
  111OSM   H11T11423   1.532   4.905   5.334 -1.4200  0.4268  2.0695
  111OSM   C12S11424   1.618   4.712   5.275  0.3445  0.1424  0.0835
  111OSM   H12S11425   1.539   4.634   5.276  0.3442  0.1457  1.3191
  111OSM   H12T11426   1.710   4.653   5.295 -0.3092 -1.4698 -1.3961
  111OSM   C13S11427   1.620   4.759   5.134  0.2823  0.6224 -0.3494
  111OSM   H13S11428   1.518   4.797   5.109 -0.5890 -0.2107  1.6804
  111OSM   H13T11429   1.651   4.674   5.070  1.3334 -0.7669  1.9044
  111OSM   C14S11430   1.733   4.866   5.117 -0.0394 -0.5735 -0.5164
  111OSM   H14S11431   1.819   4.816   5.166 -1.0140 -4.6381 -2.4937
  111OSM   H14T11432   1.702   4.955   5.175  0.1352 -1.0878  0.3881
  111OSM   C15S11433   1.770   4.901   4.974  0.4173 -0.1551  0.2725
  111OSM   H15S11434   1.847   4.980   4.969 -0.9254  1.2753  1.4970
  111OSM   H15T11435   1.680   4.943   4.925 -0.7954 -1.9805  0.8182
  111OSM   C16S11436   1.826   4.787   4.882 -0.2325  0.2871  0.0509
  111OSM   H16S11437   1.755   4.702   4.895 -0.7797  0.8308  0.7566
  111OSM   H16T11438   1.926   4.749   4.913 -0.9697 -1.0796  0.8801
  111OSM   C17S11439   1.819   4.805   4.732 -0.2831  0.3744  0.7122
  111OSM   H17S11440   1.864   4.902   4.703 -0.0188  0.0078 -0.1474
  111OSM   H17T11441   1.717   4.797   4.687  0.4304 -1.2039 -0.7681
  111OSM   C18S11442   1.888   4.687   4.658  0.1485  0.0902 -0.2012
  111OSM   H18S11443   1.842   4.597   4.704  0.2143 -0.6636 -1.5504
  111OSM   H18T11444   1.997   4.683   4.680 -0.1468  0.3728  1.4320
  111OSM   H18U11445   1.858   4.690   4.551  4.3996 -0.5327 -1.6037
  111OSM    C1F11446   1.785   4.692   6.522 -0.0476  0.3793 -1.1224
  111OSM     OF11447   1.787   4.578   6.563  0.6308  0.2706 -0.3551
  111OSM    C2F11448   1.895   4.790   6.555  0.2654  0.5150  0.7517
  111OSM    H2F11449   1.983   4.731   6.589 -1.0449 -2.5672 -0.8251
  111OSM    H2G11450   1.857   4.859   6.633 -0.1936  1.7119 -0.4862
  111OSM    C3F11451   1.936   4.880   6.441  0.0131  0.9039  0.3675
  111OSM    H3F11452   2.021   4.944   6.472  2.3397 -1.1988 -1.2340
  111OSM    H3G11453   1.851   4.947   6.412 -0.5077  0.2373  0.3301
  111OSM    C4F11454   1.964   4.813   6.306  0.1047 -0.1912 -0.5112
  111OSM    H4F11455   1.865   4.782   6.268 -0.3783 -0.7392  1.1347
  111OSM    H4G11456   2.030   4.728   6.335 -1.5516 -1.3897 -0.1108
  111OSM    C5F11457   2.021   4.909   6.206 -0.3214  0.4464  0.0521
  111OSM    H5F11458   2.120   4.952   6.234  0.4756 -0.8502 -0.6997
  111OSM    H5G11459   1.948   4.992   6.192 -2.7960 -1.0738  2.7952
  111OSM    C6F11460   2.042   4.842   6.072 -1.0786  0.3884 -0.1307
  111OSM    H6F11461   1.957   4.775   6.046 -0.7286  0.0408 -0.3741
  111OSM    H6G11462   2.130   4.776   6.088 -0.1180  1.4177 -1.0976
  111OSM    C7F11463   2.059   4.938   5.947 -0.9155  0.2052  0.1308
  111OSM    H7F11464   2.158   4.987   5.938 -0.0774 -1.1921  1.2841
  111OSM    H7G11465   1.973   5.007   5.961 -3.2436 -2.6211  0.6185
  111OSM    C8F11466   2.028   4.872   5.814  0.0427  0.6956  0.6566
  111OSM    H8F11467   1.940   4.807   5.831  0.5634 -0.0046  0.7130
  111OSM    H8G11468   2.111   4.803   5.787 -0.8824  0.0303 -0.5820
  111OSM    C9F11469   1.998   4.966   5.704  0.2632 -0.4136 -0.3653
  111OSM    H9F11470   1.913   5.025   5.740  1.0320  0.3374  0.2517
  111OSM   C10F11471   2.057   5.000   5.591 -0.1168  0.3769  0.4895
  111OSM   H10F11472   2.020   5.076   5.520  1.2058 -0.7505 -1.5082
  111OSM   C11F11473   2.182   4.927   5.541 -0.2185  0.5198  0.3234
  111OSM   H11F11474   2.225   4.851   5.609  0.6565 -1.0060 -1.8126
  111OSM   H11G11475   2.259   5.005   5.523  1.3467 -1.4399 -2.3311
  111OSM   C12F11476   2.158   4.856   5.405  0.0818 -0.9998 -0.3542
  111OSM   H12F11477   2.070   4.789   5.420 -0.5122  0.0838  1.2686
  111OSM   H12G11478   2.250   4.795   5.391  1.2416  1.0495 -2.2494
  111OSM   C13F11479   2.129   4.950   5.275 -0.4183 -0.1499 -0.2058
  111OSM   H13F11480   2.211   5.025   5.279  0.8524 -1.5364  3.0437
  111OSM   H13G11481   2.035   5.005   5.299  1.1515  2.1313  1.1108
  111OSM   C14F11482   2.155   4.878   5.148 -0.5981 -0.2876 -0.2690
  111OSM   H14F11483   2.086   4.795   5.124 -0.3952 -0.4843 -0.1681
  111OSM   H14G11484   2.260   4.844   5.155 -0.0550  0.6065 -2.9987
  111OSM   C15F11485   2.154   4.981   5.026 -0.5201 -0.1701  0.3185
  111OSM   H15F11486   2.221   5.066   5.053 -0.3561  0.2000 -1.1884
  111OSM   H15G11487   2.051   5.022   5.036  0.0050  0.7715  2.7134
  111OSM   C16F11488   2.204   4.914   4.897 -0.5131  0.4616 -0.5096
  111OSM   H16F11489   2.146   4.821   4.877  0.5392  0.0452 -1.7783
  111OSM   H16G11490   2.307   4.880   4.920 -0.2178  1.7957  0.1978
  111OSM   C17F11491   2.201   4.996   4.773 -0.5488  0.9681  0.2859
  111OSM   H17F11492   2.273   5.079   4.789  0.8304  0.1221 -1.1944
  111OSM   H17G11493   2.094   5.028   4.767 -0.7271  0.1957 -0.9448
  111OSM   C18F11494   2.233   4.925   4.644 -0.5695 -0.1624  0.5790
  111OSM   H18F11495   2.341   4.900   4.648 -0.6586 -0.4483  1.3225
  111OSM   H18G11496   2.224   4.989   4.553 -1.3742 -0.7732  0.2080
  111OSM   H18H11497   2.199   4.819   4.637  0.7565 -0.5749  0.0434
  112OSM      N11498   4.168   1.435   6.573  0.0621 -0.0078 -0.7000
  112OSM    C1511499   4.198   1.345   6.683  0.0409  0.6867 -0.7356
  112OSM   H15A11500   4.297   1.304   6.669 -0.6532 -0.5274 -2.3459
  112OSM   H15B11501   4.132   1.261   6.698  0.9693  0.0068 -0.3278
  112OSM   H15C11502   4.199   1.388   6.782  0.8866 -2.1298  0.5813
  112OSM    C1411503   4.032   1.486   6.585 -0.6026  0.5998 -0.1041
  112OSM   H14A11504   4.016   1.580   6.533  0.3293  0.9042  0.1380
  112OSM   H14B11505   4.015   1.520   6.686 -4.2130 -1.0911  0.0166
  112OSM   H14C11506   3.958   1.415   6.551  0.2071 -0.5103  0.3943
  112OSM    C1311507   4.260   1.551   6.584 -0.0296 -0.9916 -0.0242
  112OSM   H13A11508   4.238   1.601   6.677  1.5510  0.0400 -0.1620
  112OSM   H13B11509   4.230   1.627   6.512  1.3525 -0.4752 -0.0786
  112OSM   H13C11510   4.366   1.531   6.583  0.3447  0.7632 -0.9528
  112OSM    C1211511   4.178   1.369   6.438 -0.4119  0.3095  0.0639
  112OSM   H12A11512   4.276   1.323   6.435 -1.5855 -2.4658  1.0242
  112OSM   H12B11513   4.176   1.442   6.359 -2.1239 -1.0296 -1.1985
  112OSM    C1111514   4.081   1.252   6.415  1.6731  0.7361 -0.3635
  112OSM   H11A11515   4.083   1.181   6.500 -1.1104  1.7687  0.6649
  112OSM   H11B11516   4.113   1.188   6.329  1.9907  0.6439 -0.1768
  112OSM      P11517   3.829   1.197   6.416  0.4579  0.1593 -0.1355
  112OSM    O1311518   3.878   1.062   6.376  0.2126  0.4517 -0.4712
  112OSM    O1411519   3.776   1.208   6.552 -0.2390  0.3539 -0.0486
  112OSM    O1111520   3.721   1.248   6.317 -0.5502 -0.5143  0.0771
  112OSM    O1211521   3.945   1.304   6.399  0.4472  0.2740  0.3686
  112OSM    C1S11522   3.666   1.385   6.320  0.2778  0.7363 -1.1370
  112OSM    H1S11523   3.736   1.455   6.370 -0.8453 -0.1993  1.9976
  112OSM    H1T11524   3.576   1.374   6.384  0.6201  0.7080 -0.6541
  112OSM     NF11525   3.563   1.583   6.194 -1.0987  0.8099 -0.3191
  112OSM    HNF11526   3.466   1.596   6.175 -0.5655  0.7819 -3.7465
  112OSM    C2S11527   3.625   1.445   6.180  0.1068  0.2198 -0.3721
  112OSM    H2S11528   3.724   1.451   6.131  0.6742 -2.5044  0.3036
  112OSM    C3S11529   3.523   1.355   6.107  0.5815  0.9541 -0.0395
  112OSM    H3S11530   3.434   1.373   6.171 -0.2606 -1.0612 -0.5643
  112OSM     O311531   3.532   1.213   6.108 -0.2370  0.0023 -0.1236
  112OSM    HO311532   3.590   1.194   6.183  2.1006  1.5316 -1.4238
  112OSM    C4S11533   3.498   1.407   5.967  1.1001 -0.2984  0.1854
  112OSM    H4S11534   3.433   1.495   5.957 -1.1156 -2.0839 -2.6750
  112OSM    C5S11535   3.565   1.369   5.860  0.2903  0.7466  0.5257
  112OSM    H5S11536   3.646   1.296   5.874  0.0791 -0.0913 -2.2112
  112OSM    C6S11537   3.547   1.428   5.722  0.4498 -0.5858  0.0844
  112OSM    H6S11538   3.615   1.515   5.705  0.8400 -1.3004 -2.3447
  112OSM    H6T11539   3.450   1.479   5.704  1.1278  0.5777 -0.3645
  112OSM    C7S11540   3.593   1.327   5.614 -0.5895 -0.0650 -0.1943
  112OSM    H7S11541   3.531   1.235   5.623  1.0026 -1.0419  1.4070
  112OSM    H7T11542   3.698   1.293   5.629 -1.1212 -2.0664 -0.6553
  112OSM    C8S11543   3.565   1.362   5.465 -0.3694 -0.6092 -0.0936
  112OSM    H8S11544   3.455   1.356   5.449 -0.5165  1.5289 -0.1820
  112OSM    H8T11545   3.598   1.274   5.407  0.3699  0.9389 -2.1342
  112OSM    C9S11546   3.608   1.505   5.426  0.0083 -0.1525 -0.8347
  112OSM    H9S11547   3.704   1.528   5.479 -1.0486 -2.1888  2.2362
  112OSM    H9T11548   3.533   1.581   5.458  0.3893 -0.5634  1.1980
  112OSM   C10S11549   3.639   1.514   5.272 -0.3459  0.0483  0.2883
  112OSM   H10S11550   3.654   1.620   5.241  0.5948 -0.3767 -0.7598
  112OSM   H10T11551   3.554   1.468   5.217 -0.9373  1.0830  0.3049
  112OSM   C11S11552   3.752   1.427   5.213  0.3606 -0.1491 -0.0363
  112OSM   H11S11553   3.757   1.326   5.259 -0.4238  0.5166  1.5774
  112OSM   H11T11554   3.853   1.473   5.221 -0.7438  2.4160  0.0913
  112OSM   C12S11555   3.731   1.403   5.058 -0.3072 -0.1243 -0.1236
  112OSM   H12S11556   3.723   1.497   5.000 -1.1674  0.4258  0.8565
  112OSM   H12T11557   3.629   1.359   5.057  0.0780 -1.3646  2.9505
  112OSM   C13S11558   3.832   1.315   4.988 -0.1605 -0.5384  0.2301
  112OSM   H13S11559   3.820   1.211   5.025  0.0714 -0.3538  0.8371
  112OSM   H13T11560   3.927   1.349   5.034 -0.9455  0.5285  1.1367
  112OSM   C14S11561   3.838   1.331   4.834  0.8186 -0.3124 -0.1187
  112OSM   H14S11562   3.827   1.438   4.806  0.5253 -0.5569 -0.9628
  112OSM   H14T11563   3.755   1.282   4.780  0.0783  1.5401 -0.7437
  112OSM   C15S11564   3.975   1.291   4.776  0.5364  0.8083  0.1064
  112OSM   H15S11565   3.970   1.183   4.799 -4.3984  0.4607 -1.2555
  112OSM   H15T11566   4.054   1.351   4.826  0.3587  2.2593 -1.2544
  112OSM   C16S11567   3.985   1.315   4.626 -0.7186  0.2357  0.6321
  112OSM   H16S11568   3.959   1.422   4.609  0.7270  0.5769  0.4149
  112OSM   H16T11569   3.903   1.255   4.581 -0.4020  0.3995 -0.1900
  112OSM   C17S11570   4.120   1.298   4.561 -0.1778 -0.0949 -0.0788
  112OSM   H17S11571   4.163   1.196   4.570  2.5857  0.8595 -1.3413
  112OSM   H17T11572   4.182   1.366   4.623 -2.0269  0.0809  1.6532
  112OSM   C18S11573   4.123   1.345   4.415 -0.6140 -0.6585 -0.0189
  112OSM   H18S11574   4.070   1.262   4.363 -1.1740 -0.6268  0.4929
  112OSM   H18T11575   4.219   1.359   4.361 -0.7416  0.8530  0.1074
  112OSM   H18U11576   4.058   1.434   4.406 -1.8634 -1.4913  0.5810
  112OSM    C1F11577   3.624   1.685   6.254 -0.2755  0.9790 -0.0668
  112OSM     OF11578   3.747   1.677   6.265 -0.1967  0.0569  0.0515
  112OSM    C2F11579   3.548   1.794   6.313 -0.3711  0.2343 -0.1276
  112OSM    H2F11580   3.602   1.815   6.408  1.4515 -1.1080 -0.8067
  112OSM    H2G11581   3.446   1.758   6.337 -0.5078 -4.6868 -5.8909
  112OSM    C3F11582   3.553   1.923   6.228 -0.6093  0.3979 -0.0070
  112OSM    H3F11583   3.650   1.929   6.174 -0.2204  1.6920  0.7963
  112OSM    H3G11584   3.561   2.011   6.295 -1.0550  1.0052 -0.7365
  112OSM    C4F11585   3.435   1.927   6.135 -0.0387 -0.2886  0.1349
  112OSM    H4F11586   3.342   1.942   6.194  0.1020  2.2036 -0.1500
  112OSM    H4G11587   3.421   1.842   6.065 -0.1735  0.5448 -0.8903
  112OSM    C5F11588   3.431   2.043   6.035 -0.4345  0.7007  0.2397
  112OSM    H5F11589   3.350   2.005   5.969  1.3079 -1.0246 -1.0215
  112OSM    H5G11590   3.522   2.030   5.972 -0.5788  0.4880  0.0721
  112OSM    C6F11591   3.408   2.182   6.098  0.5405 -0.7465 -0.3207
  112OSM    H6F11592   3.494   2.206   6.164 -0.1277 -0.6875  0.5327
  112OSM    H6G11593   3.312   2.177   6.153  0.4203  2.0825 -0.1254
  112OSM    C7F11594   3.390   2.282   5.984  0.0564 -0.1119 -0.0437
  112OSM    H7F11595   3.308   2.245   5.919  1.5990  0.4137 -2.3654
  112OSM    H7G11596   3.477   2.281   5.915  0.5188  0.3469  0.5157
  112OSM    C8F11597   3.379   2.434   6.021  0.2185  0.2499  0.0855
  112OSM    H8F11598   3.302   2.450   6.100  1.0851 -1.3734  1.3201
  112OSM    H8G11599   3.351   2.483   5.925 -1.1097 -0.3091  0.1585
  112OSM    C9F11600   3.502   2.509   6.076  0.6599 -0.3305  0.5181
  112OSM    H9F11601   3.543   2.473   6.171 -1.6555 -0.1395  1.6703
  112OSM   C10F11602   3.565   2.611   6.015  0.5282 -0.2154  0.1178
  112OSM   H10F11603   3.640   2.670   6.070  0.8329 -0.0600 -0.4574
  112OSM   C11F11604   3.528   2.672   5.884  0.3509  0.0092 -0.7413
  112OSM   H11F11605   3.559   2.778   5.872 -0.3879 -0.0245 -3.7834
  112OSM   H11G11606   3.417   2.677   5.874  0.0945 -0.6237  1.3786
  112OSM   C12F11607   3.581   2.578   5.768  0.0588  0.0847 -0.2347
  112OSM   H12F11608   3.497   2.506   5.760  0.1163 -0.1374  0.8913
  112OSM   H12G11609   3.678   2.535   5.799 -0.5716  0.6996  3.0615
  112OSM   C13F11610   3.582   2.630   5.623 -0.0273 -0.5762 -0.0249
  112OSM   H13F11611   3.635   2.728   5.621 -0.9321  0.0268  2.3574
  112OSM   H13G11612   3.480   2.655   5.587  0.4746  1.3995 -0.1554
  112OSM   C14F11613   3.645   2.530   5.521  0.1646  0.1577  0.2668
  112OSM   H14F11614   3.595   2.432   5.518 -0.1440  0.3193  0.1011
  112OSM   H14G11615   3.755   2.525   5.538  0.2459  0.7898 -0.0052
  112OSM   C15F11616   3.627   2.588   5.375 -0.2625 -0.0581  0.8539
  112OSM   H15F11617   3.689   2.679   5.361  1.2071 -1.0831  0.3620
  112OSM   H15G11618   3.522   2.621   5.360  0.3856  1.3318 -1.0204
  112OSM   C16F11619   3.670   2.488   5.256 -0.7491 -0.8634  0.0895
  112OSM   H16F11620   3.595   2.406   5.262 -0.2437 -1.2984  0.5054
  112OSM   H16G11621   3.771   2.444   5.274 -0.2335 -1.3315 -3.2144
  112OSM   C17F11622   3.656   2.562   5.127 -0.6191  0.2193 -0.6371
  112OSM   H17F11623   3.714   2.657   5.127 -1.3677  0.6873 -1.2342
  112OSM   H17G11624   3.547   2.583   5.123 -1.0176 -0.8286  2.2298
  112OSM   C18F11625   3.699   2.486   5.007 -0.0607 -0.2684 -0.0827
  112OSM   H18F11626   3.796   2.435   5.028 -0.2900  0.1861  2.3217
  112OSM   H18G11627   3.713   2.549   4.916  0.4483  1.8911  1.4186
  112OSM   H18H11628   3.624   2.405   4.993 -2.8229  2.3092 -1.3344
  113OSM      N11629   1.550   2.717   7.215  0.4246  0.3514  0.4608
  113OSM    C1511630   1.698   2.747   7.192  0.2279  0.5005 -0.0280
  113OSM   H15A11631   1.755   2.655   7.193 -3.1866 -1.8349 -1.6877
  113OSM   H15B11632   1.738   2.824   7.257  0.5681 -0.4286  0.8862
  113OSM   H15C11633   1.714   2.796   7.096 -0.6673  2.2437  0.6624
  113OSM    C1411634   1.525   2.657   7.347  0.2189  0.7907  0.3422
  113OSM   H14A11635   1.424   2.621   7.345  0.5340 -0.4781 -4.1827
  113OSM   H14B11636   1.547   2.718   7.433  1.0609 -1.5631  1.9135
  113OSM   H14C11637   1.584   2.567   7.358 -1.0499  0.0154  0.9656
  113OSM    C1311638   1.484   2.847   7.201  0.5007 -0.4550 -0.5521
  113OSM   H13A11639   1.382   2.853   7.237  0.5078 -0.4964 -0.5255
  113OSM   H13B11640   1.479   2.871   7.096 -0.6785 -0.4044 -0.5001
  113OSM   H13C11641   1.556   2.914   7.245 -0.6529  0.9608 -0.7194
  113OSM    C1211642   1.508   2.611   7.113 -0.4972  0.0645 -0.7147
  113OSM   H12A11643   1.403   2.589   7.127 -0.4389  0.6504  0.9866
  113OSM   H12B11644   1.556   2.518   7.136  1.8433  0.7639 -2.4562
  113OSM    C1111645   1.538   2.643   6.965  0.3337  0.3782 -0.6986
  113OSM   H11A11646   1.514   2.553   6.906 -1.3888  0.8558 -0.7706
  113OSM   H11B11647   1.645   2.667   6.946  0.7790  0.6035  1.6916
  113OSM      P11648   1.298   2.715   6.899  0.1793  0.1185  0.0014
  113OSM    O1311649   1.271   2.571   6.930 -0.2308  0.7444  0.0510
  113OSM    O1411650   1.224   2.812   6.984  0.3112 -0.3139  0.2703
  113OSM    O1111651   1.262   2.733   6.740 -0.7810 -0.0159 -0.5160
  113OSM    O1211652   1.453   2.746   6.920  0.4626 -0.3499  0.0958
  113OSM    C1S11653   1.346   2.661   6.647 -0.4582 -0.5432 -0.9234
  113OSM    H1S11654   1.364   2.555   6.677 -2.0152 -0.5701  0.0644
  113OSM    H1T11655   1.446   2.708   6.646 -1.3191  1.3733 -0.7728
  113OSM     NF11656   1.357   2.565   6.429 -0.5116  0.5252  0.2266
  113OSM    HNF11657   1.430   2.593   6.367  0.4607 -2.0427  0.0521
  113OSM    C2S11658   1.294   2.668   6.504  0.3817  0.1650  0.2458
  113OSM    H2S11659   1.185   2.645   6.497  0.3716 -0.0076  0.9572
  113OSM    C3S11660   1.315   2.809   6.450 -0.1093  0.4920  0.3032
  113OSM    H3S11661   1.423   2.832   6.468 -0.3238  0.4862  1.7230
  113OSM     O311662   1.250   2.915   6.524  0.0925  0.3004 -0.1846
  113OSM    HO311663   1.205   2.873   6.597  1.1317 -1.2778 -0.4298
  113OSM    C4S11664   1.297   2.823   6.301  0.1484 -0.1732  0.0098
  113OSM    H4S11665   1.382   2.784   6.243 -2.0109 -2.1495 -2.0302
  113OSM    C5S11666   1.183   2.862   6.239 -0.4412  0.1486 -0.5195
  113OSM    H5S11667   1.096   2.889   6.300 -0.0173  0.6382 -0.1242
  113OSM    C6S11668   1.160   2.860   6.087  0.0850  0.2074 -1.0795
  113OSM    H6S11669   1.247   2.904   6.033 -0.6076  1.7526 -1.0084
  113OSM    H6T11670   1.072   2.919   6.054 -1.1202 -1.0830 -0.2895
  113OSM    C7S11671   1.142   2.724   6.021  0.5646 -0.3418  0.2653
  113OSM    H7S11672   1.043   2.686   6.054  0.6695 -0.0450  0.9311
  113OSM    H7T11673   1.228   2.660   6.050  1.2165 -0.3343 -1.5242
  113OSM    C8S11674   1.141   2.722   5.868 -0.6836 -0.4327  0.6898
  113OSM    H8S11675   1.237   2.734   5.814 -1.6403  1.4411 -0.7146
  113OSM    H8T11676   1.074   2.810   5.852 -1.0782 -0.4497  2.1480
  113OSM    C9S11677   1.074   2.598   5.816  0.4581  0.6927  0.0743
  113OSM    H9S11678   0.978   2.586   5.871  0.2800 -1.9776 -0.6460
  113OSM    H9T11679   1.132   2.508   5.848 -1.8493 -1.2529 -0.8685
  113OSM   C10S11680   1.056   2.580   5.666  0.4404  0.1135  0.1804
  113OSM   H10S11681   1.158   2.580   5.622  0.8931  0.5950  1.1995
  113OSM   H10T11682   1.010   2.672   5.622  1.2826  1.8230  2.6523
  113OSM   C11S11683   0.988   2.450   5.627  0.4599 -1.1970  0.4422
  113OSM   H11S11684   0.883   2.473   5.656  0.4694  1.7136 -1.3627
  113OSM   H11T11685   1.025   2.372   5.696  1.8186 -1.4763 -0.5555
  113OSM   C12S11686   0.983   2.417   5.478 -0.5148 -0.6011  1.3810
  113OSM   H12S11687   0.949   2.509   5.426 -0.9014 -0.3698  2.0324
  113OSM   H12T11688   0.904   2.339   5.475 -1.2267  0.0931 -1.3615
  113OSM   C13S11689   1.117   2.373   5.419 -0.4388 -0.4095 -0.2235
  113OSM   H13S11690   1.169   2.314   5.498 -1.0620  2.1205  2.2321
  113OSM   H13T11691   1.182   2.459   5.392  0.2454 -0.6310  0.6588
  113OSM   C14S11692   1.100   2.303   5.282  0.6902  0.6862 -0.4593
  113OSM   H14S11693   1.036   2.366   5.216  0.3344  0.7794 -0.0288
  113OSM   H14T11694   1.041   2.209   5.288  2.3260 -0.7331 -3.8605
  113OSM   C15S11695   1.235   2.263   5.213 -0.5627  0.0560 -0.5353
  113OSM   H15S11696   1.279   2.174   5.262 -0.0479  0.4621 -0.2485
  113OSM   H15T11697   1.313   2.342   5.215 -0.2121 -0.2920  1.5294
  113OSM   C16S11698   1.203   2.224   5.070  0.5962  0.9023 -0.2583
  113OSM   H16S11699   1.157   2.307   5.012  1.4445  0.3548 -1.7683
  113OSM   H16T11700   1.129   2.140   5.066  1.1881  0.4042 -1.2756
  113OSM   C17S11701   1.333   2.186   4.992 -0.2903 -0.2197  0.4140
  113OSM   H17S11702   1.396   2.108   5.040 -0.8676 -1.0782 -0.1889
  113OSM   H17T11703   1.402   2.272   4.985  0.2264 -0.7582 -1.9979
  113OSM   C18S11704   1.296   2.152   4.839 -0.4072 -0.2619  0.4493
  113OSM   H18S11705   1.204   2.090   4.834 -1.2320  0.7336  2.2206
  113OSM   H18T11706   1.376   2.087   4.797  3.1479  3.3676  0.9239
  113OSM   H18U11707   1.287   2.242   4.774 -0.2224  0.6052  1.5856
  113OSM    C1F11708   1.330   2.433   6.453  0.4219  0.2042 -0.5187
  113OSM     OF11709   1.252   2.395   6.542 -0.1356  0.5142  0.0755
  113OSM    C2F11710   1.397   2.328   6.371  1.1143  0.3067  0.3512
  113OSM    H2F11711   1.359   2.230   6.404  2.3486 -0.5159 -0.5691
  113OSM    H2G11712   1.507   2.323   6.389  1.2917 -2.5594 -0.9209
  113OSM    C3F11713   1.366   2.341   6.218 -0.4816 -0.4113  0.5360
  113OSM    H3F11714   1.441   2.411   6.177 -0.4270 -0.4802  0.5183
  113OSM    H3G11715   1.272   2.392   6.188 -0.8928 -2.4141 -1.9257
  113OSM    C4F11716   1.380   2.210   6.134  0.0163 -0.5898 -0.2501
  113OSM    H4F11717   1.302   2.143   6.175  1.1210 -0.2868  2.5387
  113OSM    H4G11718   1.481   2.167   6.151  1.7358 -0.0135 -6.3648
  113OSM    C5F11719   1.361   2.237   5.981  0.1944 -0.6942 -0.6927
  113OSM    H5F11720   1.409   2.334   5.957  2.6996 -0.1822  4.8546
  113OSM    H5G11721   1.251   2.238   5.969 -0.2490 -0.0933  2.5158
  113OSM    C6F11722   1.417   2.130   5.888  0.4160 -0.2918 -0.5832
  113OSM    H6F11723   1.374   2.036   5.927 -2.0637  1.0380  0.0869
  113OSM    H6G11724   1.528   2.123   5.892  0.9296  4.3445 -0.5728
  113OSM    C7F11725   1.359   2.142   5.745 -0.4153  0.1509  0.1602
  113OSM    H7F11726   1.251   2.167   5.751 -0.8923 -1.1868 -1.9406
  113OSM    H7G11727   1.359   2.039   5.703 -0.6376  0.9575 -1.9264
  113OSM    C8F11728   1.429   2.238   5.642  0.0188  0.2690 -0.5074
  113OSM    H8F11729   1.425   2.342   5.681 -1.6820  0.5536 -1.3685
  113OSM    H8G11730   1.353   2.244   5.562 -1.9255  4.1259  1.3906
  113OSM    C9F11731   1.570   2.200   5.602  0.2392 -0.1544 -0.2491
  113OSM    H9F11732   1.644   2.236   5.675 -1.8894 -1.8339  2.9196
  113OSM   C10F11733   1.614   2.132   5.494 -0.0743 -0.9084 -0.0079
  113OSM   H10F11734   1.718   2.096   5.500  1.2676  2.7533  1.2269
  113OSM   C11F11735   1.529   2.065   5.388 -0.4836 -0.7279  0.2721
  113OSM   H11F11736   1.446   2.136   5.368  0.8444  0.5443 -0.9336
  113OSM   H11G11737   1.490   1.971   5.432  2.2084 -1.2659  1.7270
  113OSM   C12F11738   1.606   2.042   5.253  0.5717  0.2258  0.0497
  113OSM   H12F11739   1.527   1.993   5.191  0.9809 -0.3825 -0.0109
  113OSM   H12G11740   1.686   1.969   5.278  1.2122  1.4671  1.7158
  113OSM   C13F11741   1.656   2.173   5.197  1.1849  0.3684  0.2629
  113OSM   H13F11742   1.732   2.196   5.274  2.8719 -1.7864 -0.6489
  113OSM   H13G11743   1.591   2.263   5.203 -0.3063 -0.5622 -1.1411
  113OSM   C14F11744   1.695   2.152   5.056  0.1702 -0.1414 -0.2913
  113OSM   H14F11745   1.615   2.135   4.981  1.5385 -0.6327 -1.6964
  113OSM   H14G11746   1.763   2.064   5.056  0.2511 -0.1139  1.1509
  113OSM   C15F11747   1.763   2.274   4.998 -0.5308 -0.4822 -0.3760
  113OSM   H15F11748   1.858   2.291   5.052 -0.6793  0.2337 -0.3281
  113OSM   H15G11749   1.695   2.360   5.016 -1.3513 -1.3138  0.6781
  113OSM   C16F11750   1.805   2.262   4.850 -0.0229 -0.8472  0.0015
  113OSM   H16F11751   1.789   2.160   4.808 -2.2326 -0.6001  0.1225
  113OSM   H16G11752   1.913   2.289   4.852 -0.9060  3.6113 -1.6880
  113OSM   C17F11753   1.744   2.366   4.741  0.3654 -0.4265  0.6248
  113OSM   H17F11754   1.768   2.471   4.766 -0.5055  0.0456 -0.4456
  113OSM   H17G11755   1.634   2.348   4.740  0.0802  1.1567  1.1775
  113OSM   C18F11756   1.807   2.346   4.606  0.0476 -0.3641 -0.8306
  113OSM   H18F11757   1.918   2.349   4.609  0.0272  0.1370  0.6261
  113OSM   H18G11758   1.761   2.432   4.553 -1.7280 -1.1662 -0.6662
  113OSM   H18H11759   1.772   2.255   4.553  0.3862 -0.7984 -0.3203
  114OSM      N11760   0.288   1.712   6.809  0.0168  0.1700  0.1618
  114OSM    C1511761   0.329   1.593   6.893  0.2521 -0.1924  0.2698
  114OSM   H15A11762   0.410   1.537   6.848 -0.3148 -1.5282  0.8513
  114OSM   H15B11763   0.248   1.523   6.909  0.9666 -1.2494 -0.5110
  114OSM   H15C11764   0.366   1.636   6.985 -1.7160 -0.2432  1.1142
  114OSM    C1411765   0.188   1.789   6.895 -0.1862 -0.0749 -0.5306
  114OSM   H14A11766   0.129   1.858   6.837 -0.8605 -0.2646 -0.0816
  114OSM   H14B11767   0.231   1.837   6.983 -2.3626 -0.9002  1.0661
  114OSM   H14C11768   0.109   1.725   6.930  0.9588 -0.2182  2.0148
  114OSM    C1311769   0.399   1.801   6.784  0.3763 -0.2815 -0.8178
  114OSM   H13A11770   0.428   1.828   6.884 -2.8452 -0.8165  0.3539
  114OSM   H13B11771   0.381   1.890   6.724  0.5660  0.9948  0.9294
  114OSM   H13C11772   0.475   1.736   6.743  2.6853  2.4249 -1.2099
  114OSM    C1211773   0.227   1.653   6.691 -0.2092 -0.5192  0.0192
  114OSM   H12A11774   0.154   1.577   6.715  0.2300 -1.3371 -1.1870
  114OSM   H12B11775   0.310   1.605   6.643  1.3196  1.1293  0.9123
  114OSM    C1111776   0.155   1.753   6.597 -0.6657  0.1388 -0.5428
  114OSM   H11A11777   0.133   1.705   6.499 -1.7866  0.1799 -0.3258
  114OSM   H11B11778   0.233   1.831   6.581 -0.0852 -0.6732 -1.8676
  114OSM      P11779  -0.111   1.743   6.621 -0.0383 -0.1529  0.0506
  114OSM    O1311780  -0.101   1.593   6.611 -0.2336  0.2689 -0.0617
  114OSM    O1411781  -0.200   1.798   6.726  0.0657 -0.3020 -0.4066
  114OSM    O1111782  -0.166   1.790   6.484 -0.2018  0.1682  0.0536
  114OSM    O1211783   0.029   1.806   6.643  0.9405 -0.3104 -0.1053
  114OSM    C1S11784  -0.142   1.911   6.417  0.5305 -0.8724 -0.3998
  114OSM    H1S11785  -0.103   1.986   6.489  0.5066 -1.8527  0.6683
  114OSM    H1T11786  -0.242   1.951   6.389  0.4949  0.3199  1.3308
  114OSM     NF11787  -0.009   2.025   6.245  0.0342  0.1392 -0.2704
  114OSM    HNF11788  -0.065   2.075   6.180 -1.3692 -0.6797  0.2629
  114OSM    C2S11789  -0.056   1.895   6.288 -0.4355 -0.1117 -0.9242
  114OSM    H2S11790   0.036   1.844   6.324 -0.4647  0.9970  0.8251
  114OSM    C3S11791  -0.128   1.801   6.185 -0.9299  0.1919  0.3922
  114OSM    H3S11792  -0.229   1.834   6.152 -0.3412  0.2858 -1.4267
  114OSM     O311793  -0.148   1.668   6.227  0.1282  0.4804  0.0808
  114OSM    HO311794  -0.166   1.670   6.321 -0.8718  0.0278 -0.0927
  114OSM    C4S11795  -0.036   1.787   6.062 -0.2939 -0.0990 -0.9146
  114OSM    H4S11796   0.056   1.732   6.084  0.2622  0.9286 -0.5879
  114OSM    C5S11797  -0.075   1.814   5.941  0.8622 -0.7061 -0.9848
  114OSM    H5S11798  -0.176   1.856   5.932 -0.6998 -2.2828  4.7870
  114OSM    C6S11799   0.005   1.797   5.815 -0.6741 -0.2562 -0.2421
  114OSM    H6S11800   0.107   1.754   5.825  0.2719  1.3447 -2.3089
  114OSM    H6T11801   0.034   1.898   5.780  0.9082 -0.6778 -0.2291
  114OSM    C7S11802  -0.075   1.728   5.697 -0.6293 -0.2961  0.5756
  114OSM    H7S11803  -0.173   1.780   5.691 -0.7795 -0.4799  1.3141
  114OSM    H7T11804  -0.085   1.621   5.728 -0.4117 -1.1376 -2.0198
  114OSM    C8S11805  -0.002   1.705   5.564 -0.4740 -0.0708  1.0356
  114OSM    H8S11806  -0.059   1.655   5.483  2.8363 -0.3821 -1.3270
  114OSM    H8T11807   0.092   1.646   5.574 -0.7832 -0.4883  1.5023
  114OSM    C9S11808   0.033   1.837   5.489  0.2261 -0.4198 -0.8077
  114OSM    H9S11809   0.092   1.900   5.558  0.7780  0.3002 -1.8997
  114OSM    H9T11810  -0.063   1.890   5.467 -0.9233 -1.5790  1.1058
  114OSM   C10S11811   0.120   1.811   5.365  0.0051  0.5570  0.0541
  114OSM   H10S11812   0.176   1.716   5.375 -0.9982  0.0096  0.7147
  114OSM   H10T11813   0.189   1.897   5.350 -0.2101  0.8879  0.9021
  114OSM   C11S11814   0.041   1.785   5.232 -0.6353  0.2506  0.0389
  114OSM   H11S11815  -0.008   1.881   5.204  0.6692  0.9101 -0.0797
  114OSM   H11T11816  -0.032   1.705   5.259  0.4251  0.2045  3.1807
  114OSM   C12S11817   0.123   1.740   5.108 -0.4200 -0.1553  0.4879
  114OSM   H12S11818   0.176   1.645   5.134  1.2706  0.3559 -0.9128
  114OSM   H12T11819   0.209   1.809   5.101  0.5391 -1.2692  1.0077
  114OSM   C13S11820   0.041   1.738   4.983 -0.3330 -0.0016  0.8375
  114OSM   H13S11821  -0.011   1.830   4.951 -1.1258 -0.1675  1.6142
  114OSM   H13T11822  -0.039   1.662   5.001 -0.0378 -0.3841  0.5712
  114OSM   C14S11823   0.113   1.682   4.862 -1.0030 -0.2768  0.6422
  114OSM   H14S11824   0.153   1.579   4.876  0.5560 -0.0027 -1.4166
  114OSM   H14T11825   0.200   1.746   4.839  0.3403 -2.1472  0.2810
  114OSM   C15S11826   0.026   1.683   4.744  0.2165 -0.3069  0.1635
  114OSM   H15S11827  -0.038   1.773   4.730 -1.5201 -1.7795 -2.2234
  114OSM   H15T11828  -0.053   1.608   4.764  1.2549 -1.0262  1.7440
  114OSM   C16S11829   0.093   1.660   4.617  0.2177 -0.2523  0.0852
  114OSM   H16S11830   0.020   1.623   4.543  1.1343 -1.0571 -0.4310
  114OSM   H16T11831   0.172   1.582   4.623  2.9881  2.4021  0.8262
  114OSM   C17S11832   0.147   1.783   4.548  0.8089  0.0206  0.2632
  114OSM   H17S11833   0.218   1.837   4.614  0.5571 -0.2949  0.8024
  114OSM   H17T11834   0.059   1.846   4.521 -0.5331 -1.3500  1.2367
  114OSM   C18S11835   0.221   1.738   4.418 -0.3753 -0.5154  0.0174
  114OSM   H18S11836   0.267   1.825   4.366 -1.0287 -0.0254  0.2447
  114OSM   H18T11837   0.148   1.688   4.352  0.4755  0.8231 -2.0197
  114OSM   H18U11838   0.305   1.672   4.449 -0.3383 -0.2340  0.5443
  114OSM    C1F11839   0.087   2.086   6.303 -1.0226  0.0406  0.2811
  114OSM     OF11840   0.168   2.022   6.375 -0.3303 -0.6961 -0.2704
  114OSM    C2F11841   0.083   2.231   6.280  0.6176 -0.1091 -0.3301
  114OSM    H2F11842   0.069   2.289   6.373 -0.8997  0.4997 -0.8997
  114OSM    H2G11843  -0.015   2.257   6.235  0.0181 -0.6771  0.6147
  114OSM    C3F11844   0.205   2.275   6.193  0.2611  0.1332  0.0047
  114OSM    H3F11845   0.297   2.229   6.235 -0.2407  0.5516  1.6542
  114OSM    H3G11846   0.211   2.385   6.203  0.0031 -0.0085  2.0833
  114OSM    C4F11847   0.188   2.228   6.046 -0.7652  0.3721 -0.7284
  114OSM    H4F11848   0.164   2.120   6.036 -0.6653  0.2521  0.2777
  114OSM    H4G11849   0.294   2.237   6.012 -0.3589  1.3039  0.7034
  114OSM    C5F11850   0.110   2.331   5.963  0.0813  0.5222 -0.5413
  114OSM    H5F11851   0.171   2.424   5.959  0.1509  0.4882 -0.2482
  114OSM    H5G11852   0.009   2.352   6.006  0.2806 -1.6207  1.1237
  114OSM    C6F11853   0.102   2.280   5.818 -0.0734  0.0885 -0.0965
  114OSM    H6F11854   0.029   2.348   5.770 -0.6104  0.1753  0.8373
  114OSM    H6G11855   0.056   2.178   5.817 -0.5115  0.1419  3.4822
  114OSM    C7F11856   0.233   2.273   5.739 -0.4381 -0.0283  0.5261
  114OSM    H7F11857   0.299   2.200   5.791  0.9789 -0.1254 -1.3259
  114OSM    H7G11858   0.276   2.373   5.716 -2.2893  0.2073 -2.4553
  114OSM    C8F11859   0.211   2.219   5.593  0.4767  0.4677  0.0965
  114OSM    H8F11860   0.167   2.297   5.527 -0.6036 -2.4167 -2.8656
  114OSM    H8G11861   0.148   2.128   5.603 -0.4648  1.2664  1.8397
  114OSM    C9F11862   0.348   2.180   5.538  0.5459  0.0346  0.4455
  114OSM    H9F11863   0.423   2.158   5.615  2.5529  1.6866 -0.9271
  114OSM   C10F11864   0.374   2.175   5.405 -0.0039  0.3572 -0.3103
  114OSM   H10F11865   0.481   2.165   5.382  0.2220 -0.0313  0.8564
  114OSM   C11F11866   0.284   2.212   5.284  0.2740 -0.2545 -1.1582
  114OSM   H11F11867   0.283   2.323   5.285 -0.3329 -0.2209  1.4125
  114OSM   H11G11868   0.176   2.189   5.296 -0.2322  2.3148 -0.0166
  114OSM   C12F11869   0.343   2.167   5.148  1.2218  0.0993 -0.9485
  114OSM   H12F11870   0.323   2.060   5.126  1.6062  0.0682 -1.1550
  114OSM   H12G11871   0.450   2.193   5.131  1.0131  1.7416 -0.0035
  114OSM   C13F11872   0.268   2.240   5.035 -0.0540 -0.5268 -0.4906
  114OSM   H13F11873   0.269   2.348   5.060 -2.5555 -0.0971 -1.9224
  114OSM   H13G11874   0.160   2.214   5.032 -0.3449  0.7322 -1.9116
  114OSM   C14F11875   0.332   2.218   4.902  0.4919  0.4802  0.2909
  114OSM   H14F11876   0.374   2.115   4.909 -0.5023  0.1406  1.9096
  114OSM   H14G11877   0.408   2.297   4.882  0.3255  1.0072  1.6274
  114OSM   C15F11878   0.226   2.209   4.791  0.5775  0.5525 -0.4481
  114OSM   H15F11879   0.187   2.311   4.771 -0.1756  0.8118  2.0459
  114OSM   H15G11880   0.145   2.143   4.829 -0.0078  1.7914  0.5350
  114OSM   C16F11881   0.275   2.140   4.659  0.5706  0.2436 -0.7300
  114OSM   H16F11882   0.200   2.126   4.579 -0.4645  1.1021  0.0506
  114OSM   H16G11883   0.283   2.031   4.679 -2.1584  0.0970 -0.0289
  114OSM   C17F11884   0.402   2.201   4.598 -0.1302 -0.1360 -0.4963
  114OSM   H17F11885   0.485   2.170   4.665  0.7009  2.2996 -0.3279
  114OSM   H17G11886   0.400   2.312   4.601  2.1314 -0.0728  1.1730
  114OSM   C18F11887   0.449   2.136   4.467  0.4829 -0.0136 -0.9077
  114OSM   H18F11888   0.532   2.195   4.424  0.8960 -0.4588 -0.7319
  114OSM   H18G11889   0.367   2.138   4.392 -0.0919 -1.6608 -0.3760
  114OSM   H18H11890   0.480   2.031   4.489 -1.8727 -0.7227 -0.6059
  115OSM      N11891   6.547   3.026   6.423  0.1450  0.4824  0.0179
  115OSM    C1511892   6.509   2.894   6.370 -0.3218  0.0517 -0.3715
  115OSM   H15A11893   6.561   2.885   6.276  1.9389  2.3284  0.5487
  115OSM   H15B11894   6.407   2.874   6.342 -1.0571 -0.3751  2.3312
  115OSM   H15C11895   6.564   2.817   6.422  3.2781  1.2880 -1.9860
  115OSM    C1411896   6.462   3.074   6.539  0.4363 -0.0903 -0.6111
  115OSM   H14A11897   6.376   3.127   6.501 -0.7651  0.9311  3.1387
  115OSM   H14B11898   6.520   3.144   6.596 -1.2570  1.1107 -0.2955
  115OSM   H14C11899   6.421   3.001   6.608 -0.6023  2.6369  1.8385
  115OSM    C1311900   6.688   3.005   6.468 -0.3741 -0.3097  0.0864
  115OSM   H13A11901   6.748   3.090   6.499 -0.4041  0.3311 -1.5489
  115OSM   H13B11902   6.752   2.959   6.393  0.6501 -0.0543  0.7712
  115OSM   H13C11903   6.684   2.929   6.545 -0.8925 -0.1221  0.2433
  115OSM    C1211904   6.545   3.122   6.305  0.2814 -0.5139 -0.0788
  115OSM   H12A11905   6.610   3.095   6.223 -0.1158 -1.2056 -0.1732
  115OSM   H12B11906   6.588   3.215   6.339 -2.8592  1.4028 -0.8446
  115OSM    C1111907   6.407   3.169   6.249 -0.0034  0.6457  0.0493
  115OSM   H11A11908   6.354   3.091   6.190 -1.4012  3.0482 -2.0813
  115OSM   H11B11909   6.434   3.255   6.183 -0.2287  0.6924  0.0162
  115OSM      P11910   6.274   3.367   6.366  0.0657 -0.0325 -0.2558
  115OSM    O1311911   6.153   3.365   6.450 -0.2866 -0.6067  0.0009
  115OSM    O1411912   6.393   3.435   6.418  0.3282 -0.0322  0.0894
  115OSM    O1111913   6.260   3.424   6.220 -0.1057  0.1634  0.0871
  115OSM    O1211914   6.310   3.211   6.339  0.1182  0.2562 -0.6166
  115OSM    C1S11915   6.170   3.373   6.121 -0.1469 -0.4043  0.2888
  115OSM    H1S11916   6.065   3.385   6.155 -0.6012  0.2295 -1.2715
  115OSM    H1T11917   6.193   3.269   6.091  0.7821 -0.1343  0.0157
  115OSM     NF11918   6.061   3.423   5.908 -0.2566 -0.2650  0.1561
  115OSM    HNF11919   6.073   3.352   5.839  3.2881 -0.8910  1.2023
  115OSM    C2S11920   6.181   3.453   5.986 -0.3194  0.6428 -0.2711
  115OSM    H2S11921   6.179   3.561   6.010 -1.8496  0.4276  0.7331
  115OSM    C3S11922   6.318   3.424   5.920  0.3275 -0.1287  0.2068
  115OSM    H3S11923   6.333   3.315   5.903  1.3699  0.0519 -0.1363
  115OSM     O311924   6.426   3.469   6.006  0.0587 -0.4423  0.3840
  115OSM    HO311925   6.375   3.479   6.087  0.9720 -0.4726  0.9763
  115OSM    C4S11926   6.325   3.494   5.785  0.2548 -0.3163 -0.7171
  115OSM    H4S11927   6.302   3.601   5.789  1.0654 -0.1744  1.7952
  115OSM    C5S11928   6.360   3.437   5.669 -0.1006  0.5035 -0.1710
  115OSM    H5S11929   6.409   3.338   5.663  1.7015  1.0125  3.4081
  115OSM    C6S11930   6.370   3.510   5.535 -1.2809  0.0897 -0.0292
  115OSM    H6S11931   6.370   3.619   5.556  0.1091  0.1369 -0.1899
  115OSM    H6T11932   6.271   3.499   5.485 -0.6448 -1.2629 -1.0418
  115OSM    C7S11933   6.488   3.479   5.444 -0.2255  0.5553 -0.0690
  115OSM    H7S11934   6.478   3.378   5.400  1.2549 -0.0453  0.8763
  115OSM    H7T11935   6.582   3.475   5.504 -0.6120  0.2588  0.5192
  115OSM    C8S11936   6.515   3.577   5.327  0.3507  0.2849 -0.1396
  115OSM    H8S11937   6.597   3.533   5.267 -1.2924 -3.5806  0.1786
  115OSM    H8T11938   6.542   3.669   5.384  1.4161 -1.2128  1.8963
  115OSM    C9S11939   6.398   3.604   5.233 -0.5970  0.0956 -0.0661
  115OSM    H9S11940   6.421   3.683   5.159 -2.9739  0.8928 -0.0471
  115OSM    H9T11941   6.312   3.638   5.295  0.9868  0.7518  1.8760
  115OSM   C10S11942   6.351   3.481   5.160 -0.3403  0.5399  0.3345
  115OSM   H10S11943   6.304   3.415   5.235  1.0031 -2.4249 -1.2746
  115OSM   H10T11944   6.433   3.415   5.125 -3.1351 -1.6500 -2.6120
  115OSM   C11S11945   6.272   3.511   5.037  0.0413 -0.1455  0.3781
  115OSM   H11S11946   6.201   3.590   5.070 -1.1972 -1.8713  2.0338
  115OSM   H11T11947   6.210   3.423   5.009  1.3284 -0.4945 -1.5303
  115OSM   C12S11948   6.361   3.561   4.926 -0.5719 -0.6127 -0.5552
  115OSM   H12S11949   6.428   3.477   4.898 -1.2654 -0.9402 -1.2447
  115OSM   H12T11950   6.432   3.641   4.958 -0.7055 -0.1588 -1.3857
  115OSM   C13S11951   6.285   3.608   4.804  0.0552  0.4303  0.2713
  115OSM   H13S11952   6.357   3.660   4.738  1.4959  1.4546  2.5230
  115OSM   H13T11953   6.212   3.690   4.824  0.5434  0.6774  1.1225
  115OSM   C14S11954   6.223   3.494   4.719  0.0058 -0.4477  0.4944
  115OSM   H14S11955   6.189   3.413   4.788 -0.2107 -1.5462 -0.8590
  115OSM   H14T11956   6.311   3.459   4.661 -1.7428  0.8672 -3.2101
  115OSM   C15S11957   6.110   3.552   4.636 -0.0860  0.1903  0.0546
  115OSM   H15S11958   6.145   3.640   4.578 -0.7070  0.9178  0.7379
  115OSM   H15T11959   6.031   3.601   4.698  1.1974  0.1403  1.7996
  115OSM   C16S11960   6.050   3.445   4.542  0.2098 -0.2840 -0.1217
  115OSM   H16S11961   6.138   3.383   4.516  0.4947 -0.4383  1.1635
  115OSM   H16T11962   6.018   3.503   4.452 -1.5716  0.3485  0.8536
  115OSM   C17S11963   5.935   3.368   4.591  0.2005 -0.1353 -0.0777
  115OSM   H17S11964   5.844   3.431   4.605  0.0084 -0.4433  0.0571
  115OSM   H17T11965   5.960   3.323   4.690 -1.9632  0.0094  0.5881
  115OSM   C18S11966   5.898   3.247   4.498  0.6171 -0.1801  0.1379
  115OSM   H18S11967   5.982   3.174   4.504  1.1047  0.4428  0.8768
  115OSM   H18T11968   5.891   3.277   4.391 -0.2932 -0.7248  0.0288
  115OSM   H18U11969   5.802   3.203   4.534  1.3161 -0.7974  1.2904
  115OSM    C1F11970   5.938   3.468   5.944 -0.1214  0.3599  0.0215
  115OSM     OF11971   5.925   3.547   6.039 -0.1659  0.0450  0.0893
  115OSM    C2F11972   5.833   3.422   5.853 -0.0441 -0.0865  0.3137
  115OSM    H2F11973   5.831   3.311   5.863  1.6972 -0.0282  1.9384
  115OSM    H2G11974   5.869   3.456   5.754 -1.6655  0.7531 -0.0158
  115OSM    C3F11975   5.693   3.477   5.888 -0.9232 -0.2918 -0.7293
  115OSM    H3F11976   5.685   3.587   5.904  0.3973  0.0108 -1.9309
  115OSM    H3G11977   5.668   3.429   5.985 -1.6480 -0.9099 -1.2111
  115OSM    C4F11978   5.603   3.433   5.778  0.3742  0.3362  0.8554
  115OSM    H4F11979   5.497   3.447   5.809  0.0115  0.5787 -0.4203
  115OSM    H4G11980   5.615   3.326   5.748  1.1870  0.5212  0.5007
  115OSM    C5F11981   5.618   3.510   5.649  0.7409 -0.6217  1.2477
  115OSM    H5F11982   5.723   3.514   5.612  0.6597 -1.3660  0.9273
  115OSM    H5G11983   5.587   3.613   5.676 -2.6795 -1.0069 -0.5627
  115OSM    C6F11984   5.518   3.461   5.537 -0.5032 -0.0345  0.5009
  115OSM    H6F11985   5.414   3.465   5.577 -0.1041 -2.8882  2.0875
  115OSM    H6G11986   5.542   3.355   5.512 -0.1637  0.4756 -1.5601
  115OSM    C7F11987   5.531   3.542   5.406  0.8993 -0.2860 -0.0591
  115OSM    H7F11988   5.628   3.534   5.353  0.4314 -1.5798 -0.7641
  115OSM    H7G11989   5.526   3.648   5.439 -1.3860  0.1650 -1.6115
  115OSM    C8F11990   5.428   3.519   5.298 -0.0270 -0.2699  0.3777
  115OSM    H8F11991   5.435   3.605   5.228 -2.3454  0.5809  1.0733
  115OSM    H8G11992   5.324   3.519   5.339 -0.0232 -0.0610  0.3921
  115OSM    C9F11993   5.451   3.387   5.236 -0.5683  0.4427  0.1943
  115OSM    H9F11994   5.457   3.302   5.305  1.9755  0.2609 -0.1679
  115OSM   C10F11995   5.484   3.352   5.109  0.1288  0.0720 -0.9320
  115OSM   H10F11996   5.514   3.247   5.094  2.9077  0.8608 -1.4650
  115OSM   C11F11997   5.490   3.445   4.991  0.2027 -0.5537 -0.6082
  115OSM   H11F11998   5.433   3.535   5.023  1.5265 -0.5404  2.0189
  115OSM   H11G11999   5.429   3.413   4.904 -0.6577  0.5708 -0.4514
  115OSM   C12F12000   5.628   3.475   4.942  0.0653 -0.0369 -0.1884
  115OSM   H12F12001   5.614   3.515   4.839 -1.0570  0.1513  0.0195
  115OSM   H12G12002   5.679   3.378   4.924 -0.2892 -0.4440  0.9360
  115OSM   C13F12003   5.700   3.571   5.029 -0.0846 -1.2258 -0.1423
  115OSM   H13F12004   5.676   3.552   5.136 -2.8504 -1.4531 -0.7316
  115OSM   H13G12005   5.658   3.672   5.008 -0.6641 -1.4006  0.1649
  115OSM   C14F12006   5.844   3.580   5.003  0.0101  0.4014  0.1700
  115OSM   H14F12007   5.859   3.620   4.901  0.7481  2.0600  0.8934
  115OSM   H14G12008   5.882   3.476   4.999 -1.0403  0.0402 -1.4181
  115OSM   C15F12009   5.913   3.662   5.107 -0.4865 -0.6424  0.0157
  115OSM   H15F12010   5.850   3.751   5.126  0.1780 -0.4497  1.4356
  115OSM   H15G12011   6.009   3.696   5.061 -0.8434  0.6383  0.1881
  115OSM   C16F12012   5.931   3.594   5.241 -0.1353  0.4360 -0.9692
  115OSM   H16F12013   6.026   3.537   5.233  0.1946  1.2259 -3.4406
  115OSM   H16G12014   5.857   3.512   5.248 -0.6597  1.0117  0.5154
  115OSM   C17F12015   5.924   3.690   5.353 -0.0370  0.0706  0.3591
  115OSM   H17F12016   5.816   3.710   5.368 -0.5633  1.0902 -3.6904
  115OSM   H17G12017   5.979   3.784   5.329 -0.2290  0.2773  0.7110
  115OSM   C18F12018   5.991   3.644   5.482  0.2028  0.2240 -0.2015
  115OSM   H18F12019   6.003   3.729   5.552 -1.5411 -0.3328  0.8402
  115OSM   H18G12020   6.082   3.583   5.460 -0.1052 -0.1004 -0.5981
  115OSM   H18H12021   5.916   3.573   5.524  1.2274 -0.4946  0.4896
  116OSM      N12022   2.305   2.614   6.913  0.2342  0.8297  0.3007
  116OSM    C1512023   2.208   2.711   6.972  0.3539  0.0582 -0.3287
  116OSM   H15A12024   2.163   2.668   7.061  0.3248 -1.5913 -1.0930
  116OSM   H15B12025   2.133   2.736   6.899  0.7061  1.5169 -0.2166
  116OSM   H15C12026   2.255   2.802   7.007 -0.0059 -0.4266  1.5428
  116OSM    C1412027   2.384   2.685   6.809 -0.4515  0.2803 -0.1115
  116OSM   H14A12028   2.418   2.782   6.843 -0.9772  0.4151  0.0347
  116OSM   H14B12029   2.327   2.710   6.721 -0.5308 -0.8662 -0.4090
  116OSM   H14C12030   2.479   2.642   6.778 -0.3228  0.5463 -0.0901
  116OSM    C1312031   2.400   2.577   7.029  0.3369  0.2679  1.0039
  116OSM   H13A12032   2.460   2.662   7.058  0.2038  0.5168  0.5646
  116OSM   H13B12033   2.470   2.498   7.007 -0.6065 -0.3694  0.1990
  116OSM   H13C12034   2.341   2.551   7.115 -1.7399  0.8390 -0.1813
  116OSM    C1212035   2.235   2.490   6.854  0.1646  0.0611  0.6899
  116OSM   H12A12036   2.195   2.436   6.939  0.5716 -0.0450  0.8144
  116OSM   H12B12037   2.308   2.422   6.813  0.6315  0.7783  0.3260
  116OSM    C1112038   2.123   2.504   6.742 -0.5250  0.2449 -0.1211
  116OSM   H11A12039   2.037   2.568   6.772 -2.8886 -2.4810 -0.6016
  116OSM   H11B12040   2.082   2.406   6.708 -0.1910 -0.1120  0.4893
  116OSM      P12041   2.267   2.466   6.524  0.5982 -0.0330 -0.3418
  116OSM    O1312042   2.344   2.558   6.438 -0.1670  0.2708 -0.0125
  116OSM    O1412043   2.347   2.359   6.593 -0.0133 -0.1490  0.2628
  116OSM    O1112044   2.156   2.398   6.435  0.0964  0.4009 -0.5790
  116OSM    O1212045   2.192   2.556   6.633  0.2345 -0.1192 -0.2585
  116OSM    C1S12046   2.103   2.463   6.318 -0.0446 -0.5866 -0.4692
  116OSM    H1S12047   2.177   2.509   6.249 -1.4998 -1.1064 -2.4559
  116OSM    H1T12048   2.035   2.548   6.342  0.1591 -0.2276 -1.1491
  116OSM     NF12049   2.005   2.440   6.095 -0.1903  0.3542  0.4427
  116OSM    HNF12050   1.916   2.481   6.081 -0.2920  0.4971  1.4350
  116OSM    C2S12051   2.031   2.371   6.221 -0.4601 -0.0285  0.3630
  116OSM    H2S12052   2.100   2.286   6.203 -0.8755 -0.6133  1.4470
  116OSM    C3S12053   1.906   2.306   6.292 -0.2135 -0.1408  0.0302
  116OSM    H3S12054   1.837   2.381   6.336  0.0399 -0.6689  1.3854
  116OSM     O312055   1.954   2.226   6.399  0.2358  0.5497  0.2230
  116OSM    HO312056   2.029   2.270   6.440 -0.1620 -1.4014  3.3345
  116OSM    C4S12057   1.834   2.215   6.197  0.7641 -0.5745  0.1772
  116OSM    H4S12058   1.766   2.275   6.134  2.2250  0.0449 -0.8535
  116OSM    C5S12059   1.837   2.084   6.174  0.0359 -0.0990 -0.8544
  116OSM    H5S12060   1.897   2.025   6.244  0.5176  0.5999 -0.6668
  116OSM    C6S12061   1.743   2.015   6.077 -0.3289 -0.1909  0.1985
  116OSM    H6S12062   1.677   2.095   6.036  1.6194  1.8851  0.9319
  116OSM    H6T12063   1.677   1.943   6.130 -1.3975 -0.6993 -1.7049
  116OSM    C7S12064   1.805   1.949   5.959 -0.3048  0.1638 -0.3976
  116OSM    H7S12065   1.896   1.892   5.986  0.5376  1.3716 -0.5622
  116OSM    H7T12066   1.830   2.024   5.880 -1.5416  0.8128 -0.2015
  116OSM    C8S12067   1.704   1.854   5.896  0.5821  0.5384  0.2063
  116OSM    H8S12068   1.622   1.922   5.863 -0.0486 -0.8807 -1.3049
  116OSM    H8T12069   1.661   1.782   5.970 -0.7067  1.9385  0.8682
  116OSM    C9S12070   1.764   1.785   5.779 -0.0985  0.5340  0.2549
  116OSM    H9S12071   1.820   1.694   5.812  1.7291  1.9916  1.3790
  116OSM    H9T12072   1.838   1.845   5.721  0.0784 -0.0965 -0.1845
  116OSM   C10S12073   1.659   1.740   5.668 -0.4424 -0.2143 -0.1273
  116OSM   H10S12074   1.597   1.826   5.637 -0.6251 -0.1781  0.3378
  116OSM   H10T12075   1.609   1.648   5.706 -0.5097 -0.2781 -0.3660
  116OSM   C11S12076   1.723   1.692   5.534  0.2278 -0.0416 -0.2596
  116OSM   H11S12077   1.788   1.603   5.550 -0.5919 -0.9326 -1.6795
  116OSM   H11T12078   1.797   1.771   5.509 -2.1769  2.1652 -0.8470
  116OSM   C12S12079   1.630   1.664   5.421 -0.2215 -0.3589  0.6162
  116OSM   H12S12080   1.555   1.746   5.423 -0.4231 -0.4746 -1.0095
  116OSM   H12T12081   1.575   1.568   5.430  0.1916 -0.7512 -0.8172
  116OSM   C13S12082   1.707   1.656   5.289 -0.8038 -0.2867  0.3428
  116OSM   H13S12083   1.758   1.557   5.283 -2.0692 -0.8921 -1.2960
  116OSM   H13T12084   1.782   1.738   5.296 -0.3414 -0.6053 -0.6780
  116OSM   C14S12085   1.611   1.666   5.173  0.1688 -0.2870 -0.4620
  116OSM   H14S12086   1.532   1.743   5.187  0.2969 -0.2283 -0.0565
  116OSM   H14T12087   1.559   1.568   5.162  0.8987 -0.6757 -0.5098
  116OSM   C15S12088   1.687   1.703   5.040 -0.1816  0.7633 -0.4594
  116OSM   H15S12089   1.715   1.608   4.988 -2.0594 -0.7774  1.1976
  116OSM   H15T12090   1.771   1.769   5.068 -1.5486  2.8005 -0.9824
  116OSM   C16S12091   1.595   1.772   4.943 -0.0419 -0.2214  0.1402
  116OSM   H16S12092   1.559   1.866   4.990 -0.6846 -0.5933  0.3972
  116OSM   H16T12093   1.512   1.707   4.909 -1.4950  1.6702 -0.0847
  116OSM   C17S12094   1.666   1.832   4.820 -0.3127 -0.3567  0.1056
  116OSM   H17S12095   1.683   1.744   4.753  1.6655 -0.2798  0.4536
  116OSM   H17T12096   1.767   1.868   4.849  0.8787 -1.9649 -1.7324
  116OSM   C18S12097   1.592   1.956   4.749 -0.2624 -0.2087 -0.2713
  116OSM   H18S12098   1.646   1.998   4.662  1.0121  0.5593  0.8577
  116OSM   H18T12099   1.575   2.039   4.820 -0.8372 -2.5282  2.4909
  116OSM   H18U12100   1.489   1.927   4.719 -0.5540  0.0846  0.4335
  116OSM    C1F12101   2.108   2.471   6.011  0.3042 -0.0370 -0.2587
  116OSM     OF12102   2.226   2.437   6.030  0.0078 -0.5442  0.2266
  116OSM    C2F12103   2.084   2.548   5.890  0.5121 -0.3884  0.8545
  116OSM    H2F12104   1.994   2.614   5.895  0.3092 -0.5327 -0.5373
  116OSM    H2G12105   2.051   2.468   5.821  1.5165 -0.4334  0.4119
  116OSM    C3F12106   2.196   2.631   5.816 -0.7776 -0.5232  0.4086
  116OSM    H3F12107   2.283   2.571   5.781 -0.1129  1.0730 -0.7903
  116OSM    H3G12108   2.247   2.702   5.884 -0.1780 -0.2517 -0.3086
  116OSM    C4F12109   2.147   2.720   5.696  0.3081 -0.3525  0.6841
  116OSM    H4F12110   2.230   2.778   5.651  1.3789 -1.5730  0.9999
  116OSM    H4G12111   2.095   2.804   5.746  2.9907  0.3897  2.4522
  116OSM    C5F12112   2.069   2.651   5.593 -0.1629 -0.2652 -0.5282
  116OSM    H5F12113   1.982   2.601   5.642  0.7780 -2.4965 -1.0356
  116OSM    H5G12114   2.106   2.558   5.546 -2.5009 -0.8590 -1.3460
  116OSM    C6F12115   2.041   2.752   5.482  0.3798 -0.1061 -0.0274
  116OSM    H6F12116   2.133   2.784   5.427 -0.3626  3.0281  0.3421
  116OSM    H6G12117   1.996   2.841   5.531  0.0410  0.8271 -1.9068
  116OSM    C7F12118   1.948   2.702   5.368 -0.1335 -0.2872  0.0643
  116OSM    H7F12119   1.931   2.790   5.303 -1.6388 -0.0828  0.6900
  116OSM    H7G12120   1.846   2.682   5.408 -0.5249  0.1458 -0.7141
  116OSM    C8F12121   2.002   2.574   5.293 -0.1089 -0.0503 -0.1636
  116OSM    H8F12122   2.008   2.485   5.359  1.2779  0.3315  0.2585
  116OSM    H8G12123   2.102   2.608   5.260 -0.5644  1.0236 -0.4878
  116OSM    C9F12124   1.912   2.547   5.169 -0.7660 -0.3639  0.1406
  116OSM    H9F12125   1.831   2.473   5.184 -1.2811  0.2961  0.6844
  116OSM   C10F12126   1.922   2.602   5.046  0.2441 -0.0129  0.1264
  116OSM   H10F12127   1.863   2.566   4.961 -0.8366  0.3695  0.6875
  116OSM   C11F12128   2.028   2.703   5.005 -0.1691  0.5520  0.3228
  116OSM   H11F12129   2.124   2.657   5.038 -1.5578 -0.8430  2.7334
  116OSM   H11G12130   2.010   2.802   5.053 -1.8550  0.3080  0.2458
  116OSM   C12F12131   2.014   2.714   4.853  0.1090  0.1624  0.3620
  116OSM   H12F12132   2.020   2.615   4.802 -0.6875  0.2359  0.1087
  116OSM   H12G12133   2.105   2.768   4.820  0.9603 -1.3417  0.1497
  116OSM   C13F12134   1.901   2.812   4.823  0.2725 -0.7146 -0.0976
  116OSM   H13F12135   1.913   2.905   4.883 -3.5461  0.6949 -1.1970
  116OSM   H13G12136   1.803   2.771   4.855  0.7730 -2.3559 -0.5945
  116OSM   C14F12137   1.882   2.854   4.672  0.0821 -0.4427 -0.1809
  116OSM   H14F12138   1.874   2.761   4.611  1.6397 -0.5620 -0.2402
  116OSM   H14G12139   1.983   2.896   4.650 -0.4761  1.7826  1.2718
  116OSM   C15F12140   1.771   2.959   4.644  0.5666  0.3790 -0.1880
  116OSM   H15F12141   1.795   3.058   4.689  0.0464  0.8701 -0.9571
  116OSM   H15G12142   1.681   2.913   4.689 -1.1410  1.1724 -2.5819
  116OSM   C16F12143   1.745   2.971   4.492  0.4829 -1.2736  0.3321
  116OSM   H16F12144   1.695   2.883   4.446 -0.9628 -0.1382 -0.3362
  116OSM   H16G12145   1.843   2.979   4.440  0.1854  0.0340 -0.0501
  116OSM   C17F12146   1.656   3.089   4.449 -0.5367 -0.3715  0.7979
  116OSM   H17F12147   1.702   3.187   4.477 -0.6253 -0.6352  1.9487
  116OSM   H17G12148   1.561   3.085   4.506  0.5357  0.5950  2.7847
  116OSM   C18F12149   1.636   3.090   4.293  0.2730  0.3870 -0.0071
  116OSM   H18F12150   1.562   3.167   4.263 -1.5241 -0.6856  1.4417
  116OSM   H18G12151   1.615   2.991   4.247  0.2745  1.4473 -2.4807
  116OSM   H18H12152   1.736   3.119   4.256  0.9265  0.1582  1.5270
  117OSM      N12153   0.615   5.453   6.996 -0.4145 -0.7539 -0.8563
  117OSM    C1512154   0.572   5.315   6.991  0.3825 -0.4485  0.0239
  117OSM   H15A12155   0.467   5.306   7.014  0.4778 -0.2359  0.5568
  117OSM   H15B12156   0.623   5.237   7.045 -0.3636 -0.0922  1.2923
  117OSM   H15C12157   0.572   5.292   6.886 -2.4432 -1.0564  0.0836
  117OSM    C1412158   0.585   5.521   7.126  0.2157  0.5494  0.1843
  117OSM   H14A12159   0.609   5.627   7.128 -1.0870  0.8455  1.2440
  117OSM   H14B12160   0.659   5.480   7.193  0.5502  0.4291 -0.2533
  117OSM   H14C12161   0.482   5.501   7.150 -0.5558  1.2487 -2.2976
  117OSM    C1312162   0.767   5.462   6.975  0.7098 -0.5326  0.4568
  117OSM   H13A12163   0.826   5.399   7.040  0.9423 -0.0320  0.7405
  117OSM   H13B12164   0.798   5.564   6.989  1.8298 -0.5334 -1.6473
  117OSM   H13C12165   0.788   5.449   6.870  1.5714  3.4451 -0.0054
  117OSM    C1212166   0.545   5.526   6.878 -0.6714 -0.1395  0.0656
  117OSM   H12A12167   0.439   5.516   6.892 -0.7248  1.2858  0.8590
  117OSM   H12B12168   0.571   5.483   6.782 -0.0912  2.5277 -1.0524
  117OSM    C1112169   0.572   5.669   6.838  0.6730 -0.4583 -0.2244
  117OSM   H11A12170   0.532   5.728   6.924 -0.7547  0.5368 -1.5289
  117OSM   H11B12171   0.507   5.696   6.753  0.5379 -1.4324 -0.4463
  117OSM      P12172   0.785   5.683   6.685  0.2331  0.5094  0.1148
  117OSM    O1312173   0.925   5.714   6.714 -0.0706  0.1089  0.2240
  117OSM    O1412174   0.764   5.543   6.652 -0.4694  0.0666 -0.5046
  117OSM    O1112175   0.706   5.769   6.575 -0.0199 -0.5579 -0.5285
  117OSM    O1212176   0.709   5.698   6.820 -0.0836  0.2090  0.9365
  117OSM    C1S12177   0.747   5.894   6.523 -0.1184 -0.9690  0.4189
  117OSM    H1S12178   0.846   5.869   6.479 -0.2872  0.0761 -0.6206
  117OSM    H1T12179   0.766   5.977   6.594  2.3100 -0.2717 -0.9040
  117OSM     NF12180   0.744   6.046   6.331  0.1539  0.3581 -0.0404
  117OSM    HNF12181   0.743   6.143   6.357 -0.4250  0.4136 -0.2507
  117OSM    C2S12182   0.663   5.956   6.407 -0.1432  0.6394  0.3617
  117OSM    H2S12183   0.636   5.875   6.336  0.6656  0.2565  0.4781
  117OSM    C3S12184   0.529   6.016   6.462  0.0432  0.0170 -0.2047
  117OSM    H3S12185   0.547   6.106   6.524  2.3366 -1.5725  1.5750
  117OSM     O312186   0.470   5.933   6.563  0.1453  0.2937  0.0447
  117OSM    HO312187   0.545   5.875   6.579 -1.6121 -1.5325  2.4247
  117OSM    C4S12188   0.433   6.045   6.347 -0.7315 -0.6114  0.5056
  117OSM    H4S12189   0.454   6.143   6.302 -0.2484  0.1286  2.2653
  117OSM    C5S12190   0.335   5.961   6.297  0.3415  0.1323  0.5128
  117OSM    H5S12191   0.321   5.858   6.334  2.0099  0.5558  2.5016
  117OSM    C6S12192   0.255   6.002   6.178  0.5326  0.0453 -0.0004
  117OSM    H6S12193   0.261   6.113   6.182  2.3380 -0.0074  4.4188
  117OSM    H6T12194   0.149   5.973   6.188  0.0668  0.6036 -2.6328
  117OSM    C7S12195   0.296   5.954   6.041  0.3961 -0.4267 -0.7386
  117OSM    H7S12196   0.278   5.845   6.028  0.3553 -0.2008 -2.9322
  117OSM    H7T12197   0.403   5.980   6.025 -0.2330  3.2740  0.0249
  117OSM    C8S12198   0.215   6.031   5.940 -0.1671 -0.2484 -0.6680
  117OSM    H8S12199   0.208   6.140   5.958 -3.9691  0.0957 -3.1671
  117OSM    H8T12200   0.110   5.999   5.955 -1.5373  3.0004 -2.3337
  117OSM    C9S12201   0.259   5.984   5.799 -0.3586  0.2620 -0.6291
  117OSM    H9S12202   0.246   5.873   5.799 -1.0031  0.2813  1.5943
  117OSM    H9T12203   0.368   6.002   5.789 -0.2996 -0.6709 -2.0065
  117OSM   C10S12204   0.170   6.044   5.684  0.0085 -0.1373 -1.0529
  117OSM   H10S12205   0.208   6.148   5.677 -0.8541  0.3593  0.7598
  117OSM   H10T12206   0.064   6.037   5.717 -0.1490  1.0664 -1.2811
  117OSM   C11S12207   0.203   5.994   5.547  0.2669  0.9365  0.3502
  117OSM   H11S12208   0.195   5.885   5.529 -1.2921  1.0531  0.2107
  117OSM   H11T12209   0.310   6.018   5.525  0.9494 -1.8119  0.2732
  117OSM   C12S12210   0.122   6.078   5.435  0.0210 -0.0805 -0.0952
  117OSM   H12S12211   0.149   6.186   5.431 -0.4837  0.1264  1.3392
  117OSM   H12T12212   0.015   6.071   5.466  0.1034 -1.5590 -0.0751
  117OSM   C13S12213   0.146   6.031   5.287 -0.4246  0.0356  0.2882
  117OSM   H13S12214   0.070   6.080   5.223 -1.2997 -0.7179  0.7173
  117OSM   H13T12215   0.128   5.922   5.276  0.2638 -0.4320  2.9834
  117OSM   C14S12216   0.288   6.064   5.239 -0.3124  1.2502 -0.6306
  117OSM   H14S12217   0.360   6.005   5.301 -1.2802 -1.8633 -2.2372
  117OSM   H14T12218   0.318   6.169   5.258  3.2826  0.4987 -1.4539
  117OSM   C15S12219   0.318   6.039   5.092  0.5168  0.4510  0.5003
  117OSM   H15S12220   0.320   5.930   5.071 -2.4267  0.2660  0.7865
  117OSM   H15T12221   0.420   6.073   5.065  0.6903 -0.9132 -0.6709
  117OSM   C16S12222   0.227   6.114   4.992 -0.4422  0.0336 -0.0746
  117OSM   H16S12223   0.215   6.220   5.024  0.8250  0.6481 -1.5634
  117OSM   H16T12224   0.124   6.074   5.007 -0.9618  1.2298 -0.2966
  117OSM   C17S12225   0.244   6.093   4.842 -0.1835  0.0757 -0.1313
  117OSM   H17S12226   0.252   5.984   4.825  1.9663  0.2467 -0.4996
  117OSM   H17T12227   0.337   6.135   4.799  1.0585 -0.8929  1.4925
  117OSM   C18S12228   0.122   6.147   4.765  0.0023  0.3604 -0.1345
  117OSM   H18S12229   0.105   6.257   4.768  1.7600  0.6999 -1.0505
  117OSM   H18T12230   0.026   6.103   4.798  0.3861 -0.0281  0.4871
  117OSM   H18U12231   0.145   6.132   4.657 -0.9103 -1.3104 -0.1286
  117OSM    C1F12232   0.843   6.008   6.247 -0.1897  0.2993  0.7667
  117OSM     OF12233   0.840   5.898   6.191  0.1529  0.3466  0.0479
  117OSM    C2F12234   0.949   6.105   6.216  0.1324 -1.1637 -0.0175
  117OSM    H2F12235   0.985   6.150   6.311 -3.0135 -0.2116  0.8363
  117OSM    H2G12236   0.904   6.187   6.157  0.4674 -0.3770  0.8011
  117OSM    C3F12237   1.078   6.052   6.147  0.0718  0.4420 -0.3426
  117OSM    H3F12238   1.127   5.971   6.205  1.0171 -0.8109 -2.7330
  117OSM    H3G12239   1.153   6.134   6.149  1.2002 -0.5785  0.5937
  117OSM    C4F12240   1.064   5.993   6.009 -1.0163 -0.3036  0.7661
  117OSM    H4F12241   0.992   5.908   6.006 -1.0815 -0.2318  0.1204
  117OSM    H4G12242   1.165   5.953   5.984 -1.6343 -0.0120 -2.7493
  117OSM    C5F12243   1.019   6.089   5.903  0.1696  0.1974  0.0177
  117OSM    H5F12244   1.080   6.182   5.911  0.9003 -0.2910  0.2122
  117OSM    H5G12245   0.914   6.121   5.919  0.6835  1.3010  1.3708
  117OSM    C6F12246   1.040   6.050   5.755 -0.3692  0.2601  0.8526
  117OSM    H6F12247   0.997   5.948   5.741  2.5761 -1.1888  1.5572
  117OSM    H6G12248   1.146   6.034   5.726 -0.6275  0.9775 -0.5723
  117OSM    C7F12249   0.981   6.136   5.650  0.1793  0.0522  0.0308
  117OSM    H7F12250   1.045   6.226   5.645  2.3662 -1.4675 -2.1511
  117OSM    H7G12251   0.876   6.162   5.675 -0.4070  0.0928 -2.2987
  117OSM    C8F12252   0.962   6.057   5.516  0.3763  0.2914  0.8586
  117OSM    H8F12253   0.905   6.129   5.453  0.3752  0.3147  0.8864
  117OSM    H8G12254   0.888   5.975   5.526  0.4659  0.1605  0.4635
  117OSM    C9F12255   1.091   6.004   5.446  0.3665 -1.0752  0.0512
  117OSM    H9F12256   1.160   5.959   5.519  0.0479 -1.4975  0.0970
  117OSM   C10F12257   1.131   6.025   5.319 -0.2957  0.3072  0.3794
  117OSM   H10F12258   1.223   5.973   5.289 -1.1489  0.3334 -2.5776
  117OSM   C11F12259   1.078   6.103   5.201 -0.6193  0.6223 -0.5412
  117OSM   H11F12260   1.130   6.201   5.197  0.0510  0.3355  0.8865
  117OSM   H11G12261   0.970   6.123   5.216 -0.3970  1.0054  0.6376
  117OSM   C12F12262   1.115   6.032   5.068  0.6762  1.0308  0.6376
  117OSM   H12F12263   1.223   6.004   5.066  0.0277 -2.0193  2.2718
  117OSM   H12G12264   1.096   6.116   4.997 -1.8149  1.5511  1.8328
  117OSM   C13F12265   1.023   5.917   5.031 -0.9434 -0.5130  0.4539
  117OSM   H13F12266   0.920   5.956   5.042 -0.4609  0.5314  1.5140
  117OSM   H13G12267   1.039   5.840   5.110 -2.4975  0.2173  1.5304
  117OSM   C14F12268   1.040   5.866   4.889 -0.2755 -0.6118 -0.0204
  117OSM   H14F12269   1.018   5.949   4.819  0.0707 -1.3146 -0.9861
  117OSM   H14G12270   0.955   5.796   4.874 -2.2946  1.9761 -1.5466
  117OSM   C15F12271   1.168   5.785   4.871  0.0055 -0.0889  0.1005
  117OSM   H15F12272   1.166   5.706   4.949  1.3422  0.3818  0.6466
  117OSM   H15G12273   1.252   5.857   4.881  0.6938 -0.5865 -1.7031
  117OSM   C16F12274   1.153   5.718   4.735  0.0594  0.3422  0.3031
  117OSM   H16F12275   1.073   5.641   4.729 -0.3408  0.7494  0.3878
  117OSM   H16G12276   1.248   5.661   4.743 -0.4333 -0.3566  1.5429
  117OSM   C17F12277   1.169   5.823   4.624 -0.0374 -0.0289  0.0848
  117OSM   H17F12278   1.253   5.892   4.648  1.6917 -1.5678 -1.2194
  117OSM   H17G12279   1.073   5.876   4.606 -0.9909 -1.5404  0.5235
  117OSM   C18F12280   1.204   5.758   4.491 -0.0775 -0.4402  0.2506
  117OSM   H18F12281   1.256   5.660   4.496 -1.0871 -1.0001  0.0425
  117OSM   H18G12282   1.262   5.835   4.436  0.6683  0.1806  1.8642
  117OSM   H18H12283   1.112   5.729   4.435 -0.3888  0.2927  0.3644
  118OSM      N12284   0.234   5.027   6.724 -0.4320 -0.2874  0.2112
  118OSM    C1512285   0.303   5.054   6.843  0.6529 -0.2013 -0.3380
  118OSM   H15A12286   0.252   5.013   6.929 -2.0243  1.7566 -0.8651
  118OSM   H15B12287   0.312   5.159   6.868 -3.0523 -0.4692  3.2587
  118OSM   H15C12288   0.397   5.001   6.835  1.0679  0.3387  0.7256
  118OSM    C1412289   0.188   4.885   6.710  0.1526  1.1164 -0.1827
  118OSM   H14A12290   0.268   4.820   6.741 -1.4572 -0.4417  0.9850
  118OSM   H14B12291   0.158   4.855   6.611 -3.1038  0.6758  0.7945
  118OSM   H14C12292   0.110   4.864   6.783 -0.3294  1.2056 -0.6664
  118OSM    C1312293   0.110   5.109   6.738  0.0734 -0.5506  0.1851
  118OSM   H13A12294   0.055   5.085   6.828 -0.4852  2.3387  0.7175
  118OSM   H13B12295   0.039   5.102   6.657  0.2867  1.9805 -0.2948
  118OSM   H13C12296   0.134   5.213   6.754  0.4691 -0.4614 -0.9157
  118OSM    C1212297   0.311   5.078   6.606 -0.0713 -0.2905  0.2988
  118OSM   H12A12298   0.317   5.186   6.606 -0.0598 -0.2376  2.3545
  118OSM   H12B12299   0.243   5.059   6.524 -1.0244 -1.3856  1.3030
  118OSM    C1112300   0.456   5.021   6.582  1.0837  0.4932  0.5918
  118OSM   H11A12301   0.524   5.065   6.659  0.7819  1.1893  0.4639
  118OSM   H11B12302   0.490   5.062   6.485  2.0178  0.6255  0.9594
  118OSM      P12303   0.527   4.781   6.683 -0.1724 -0.0228  0.0933
  118OSM    O1312304   0.568   4.853   6.806 -0.1467  0.2716 -0.0219
  118OSM    O1412305   0.432   4.673   6.696 -0.1933 -0.7763 -0.3276
  118OSM    O1112306   0.663   4.734   6.609  0.7402  0.0873 -0.2322
  118OSM    O1212307   0.460   4.880   6.582  0.3794  0.2401  0.4084
  118OSM    C1S12308   0.656   4.682   6.473 -0.3585 -0.0906 -0.3044
  118OSM    H1S12309   0.554   4.654   6.439 -0.0815  0.0309 -1.2516
  118OSM    H1T12310   0.709   4.584   6.478  0.9948  0.5372 -1.5828
  118OSM     NF12311   0.736   4.730   6.247  0.2014  0.1294 -0.4639
  118OSM    HNF12312   0.827   4.724   6.207  0.1100 -1.2782 -0.5009
  118OSM    C2S12313   0.729   4.785   6.376  0.2885  0.5916  0.0775
  118OSM    H2S12314   0.663   4.874   6.381 -0.6484  0.0364 -1.6577
  118OSM    C3S12315   0.874   4.834   6.429 -0.0254  0.4949  0.7372
  118OSM    H3S12316   0.952   4.757   6.415  1.5037  1.7252  2.1496
  118OSM     O312317   0.884   4.864   6.569  0.4777 -0.4220 -0.6625
  118OSM    HO312318   0.803   4.817   6.592  0.0537 -0.6018 -2.3372
  118OSM    C4S12319   0.917   4.952   6.349  0.3285 -0.3032 -0.3367
  118OSM    H4S12320   0.930   4.941   6.240 -1.0366  2.1983 -0.8281
  118OSM    C5S12321   0.908   5.083   6.387  0.3923 -0.3205  0.0029
  118OSM    H5S12322   0.867   5.112   6.484  2.2506  0.6618  0.5467
  118OSM    C6S12323   0.935   5.189   6.289  0.1214  0.0381 -0.1574
  118OSM    H6S12324   0.961   5.146   6.190  0.4941 -1.3343  0.5144
  118OSM    H6T12325   1.026   5.244   6.321  1.5772 -1.6280 -1.2110
  118OSM    C7S12326   0.832   5.300   6.289  0.6291  0.2092  0.2368
  118OSM    H7S12327   0.853   5.389   6.226 -2.0696 -0.0194 -1.1508
  118OSM    H7T12328   0.830   5.340   6.392 -0.8287 -2.7041  1.4646
  118OSM    C8S12329   0.687   5.244   6.253  0.0950 -0.1454  0.5680
  118OSM    H8S12330   0.614   5.327   6.266 -0.8192 -0.7016 -0.8046
  118OSM    H8T12331   0.649   5.171   6.328 -3.0049  1.7716  1.0594
  118OSM    C9S12332   0.678   5.194   6.113 -0.6763  0.2753  0.0385
  118OSM    H9S12333   0.770   5.136   6.093  1.1005  1.6342  3.4596
  118OSM    H9T12334   0.680   5.279   6.042 -1.6440  0.7227  0.5217
  118OSM   C10S12335   0.551   5.122   6.085  0.3508  0.7707  0.7399
  118OSM   H10S12336   0.458   5.180   6.101 -1.0742 -1.2153  0.0471
  118OSM   H10T12337   0.553   5.033   6.151 -0.8886  1.7414  2.1471
  118OSM   C11S12338   0.550   5.066   5.942 -0.4769  0.6210 -0.2004
  118OSM   H11S12339   0.492   4.971   5.950 -0.1694  0.3201 -1.4683
  118OSM   H11T12340   0.648   5.034   5.902 -0.8719 -0.2942 -0.4745
  118OSM   C12S12341   0.489   5.156   5.835 -0.8064  0.3110 -0.1774
  118OSM   H12S12342   0.525   5.260   5.853 -0.1560 -0.3396  3.0408
  118OSM   H12T12343   0.381   5.167   5.858 -0.3823  0.3283  2.1154
  118OSM   C13S12344   0.524   5.114   5.692  0.8258  0.5714 -0.4742
  118OSM   H13S12345   0.485   5.011   5.675 -1.7889  0.9419  2.3980
  118OSM   H13T12346   0.635   5.123   5.684  0.8753 -0.1795 -0.6916
  118OSM   C14S12347   0.457   5.200   5.584  0.8278  0.3401  0.3743
  118OSM   H14S12348   0.515   5.293   5.566  2.6357 -0.5992  1.1421
  118OSM   H14T12349   0.357   5.229   5.621 -0.3667 -2.2206 -0.5668
  118OSM   C15S12350   0.436   5.112   5.456 -0.0048  0.0518  0.5019
  118OSM   H15S12351   0.365   5.168   5.392 -1.8280 -0.3186  2.1112
  118OSM   H15T12352   0.390   5.018   5.492  1.1202 -1.6563 -2.2149
  118OSM   C16S12353   0.576   5.088   5.403  0.5006 -0.1371 -0.1631
  118OSM   H16S12354   0.639   5.016   5.460  0.7156  1.5265  1.8460
  118OSM   H16T12355   0.630   5.184   5.417 -0.7781  0.5106  0.5067
  118OSM   C17S12356   0.576   5.033   5.261  0.2302 -0.4995  0.4118
  118OSM   H17S12357   0.483   5.067   5.212  0.8151  1.9076  0.8304
  118OSM   H17T12358   0.564   4.923   5.266 -2.5690 -0.2345  0.7360
  118OSM   C18S12359   0.699   5.073   5.177  0.8513 -0.4355 -0.5825
  118OSM   H18S12360   0.683   5.049   5.070 -1.3197 -0.5474 -0.2671
  118OSM   H18T12361   0.796   5.028   5.208  1.6030  1.5294  0.0843
  118OSM   H18U12362   0.720   5.181   5.191  0.6903 -0.5731  0.9930
  118OSM    C1F12363   0.628   4.698   6.183 -0.2699 -0.8681 -0.3549
  118OSM     OF12364   0.525   4.757   6.216 -0.4542  0.4931  0.1260
  118OSM    C2F12365   0.649   4.608   6.070 -0.4389  0.1913  0.2219
  118OSM    H2F12366   0.555   4.555   6.043  0.2132 -1.1739  0.5527
  118OSM    H2G12367   0.731   4.538   6.096  0.0816  0.9776  0.7247
  118OSM    C3F12368   0.687   4.688   5.940  1.2026 -0.2582  0.8094
  118OSM    H3F12369   0.796   4.708   5.948  1.1678 -0.3124  1.5127
  118OSM    H3G12370   0.638   4.787   5.931  2.1075  0.0595 -1.0452
  118OSM    C4F12371   0.668   4.608   5.810  0.7386 -0.8867 -0.1930
  118OSM    H4F12372   0.567   4.562   5.807  0.0917  0.4502  0.2209
  118OSM    H4G12373   0.738   4.522   5.808  4.1707  1.6735 -1.6695
  118OSM    C5F12374   0.692   4.689   5.678  0.4010 -0.1142 -0.7364
  118OSM    H5F12375   0.799   4.719   5.678  0.4902 -0.4349 -0.6234
  118OSM    H5G12376   0.634   4.783   5.689  0.5452 -0.0449 -0.5632
  118OSM    C6F12377   0.642   4.612   5.556 -0.2777 -0.9641  0.0152
  118OSM    H6F12378   0.534   4.602   5.580 -0.4031 -1.9571 -0.8343
  118OSM    H6G12379   0.682   4.509   5.546  1.7403 -0.1426 -0.8409
  118OSM    C7F12380   0.658   4.690   5.428 -0.1886  0.0802 -0.6099
  118OSM    H7F12381   0.761   4.725   5.411 -0.4168  0.7648 -0.6058
  118OSM    H7G12382   0.598   4.783   5.436  1.8148  1.3972 -0.3162
  118OSM    C8F12383   0.601   4.615   5.306 -0.1857  1.0007 -0.2485
  118OSM    H8F12384   0.562   4.695   5.239 -0.6082 -1.1828 -2.7721
  118OSM    H8G12385   0.500   4.578   5.334  0.7129 -1.1225  0.3751
  118OSM    C9F12386   0.692   4.518   5.224  0.4576 -0.7169 -0.2230
  118OSM    H9F12387   0.763   4.462   5.287 -0.1576 -0.6861  0.5044
  118OSM   C10F12388   0.695   4.502   5.096 -0.4284 -0.5305 -0.2211
  118OSM   H10F12389   0.783   4.452   5.053 -0.1446  1.6702 -2.4209
  118OSM   C11F12390   0.617   4.574   4.997  0.0116 -0.3004 -0.0082
  118OSM   H11F12391   0.512   4.593   5.029 -0.1555 -1.2962  0.0832
  118OSM   H11G12392   0.600   4.504   4.911 -3.0301  1.1928 -0.7652
  118OSM   C12F12393   0.663   4.712   4.937  0.9859 -0.7708 -0.2392
  118OSM   H12F12394   0.670   4.779   5.025  1.0769  0.7991 -1.3910
  118OSM   H12G12395   0.585   4.749   4.866 -0.1152 -0.2452  1.1986
  118OSM   C13F12396   0.797   4.696   4.870 -0.0126 -0.5603 -0.4645
  118OSM   H13F12397   0.790   4.607   4.804  0.3374 -0.5965 -0.4526
  118OSM   H13G12398   0.866   4.674   4.955  0.8807  3.1219 -0.0521
  118OSM   C14F12399   0.846   4.827   4.805  0.1320  0.8291 -0.8525
  118OSM   H14F12400   0.848   4.902   4.887 -2.1368  2.1562 -1.9196
  118OSM   H14G12401   0.769   4.858   4.732  0.6464  1.3957 -1.1568
  118OSM   C15F12402   0.987   4.831   4.744  0.1809 -0.3351 -0.6992
  118OSM   H15F12403   1.047   4.788   4.827 -1.1552  1.0860  1.0891
  118OSM   H15G12404   1.015   4.936   4.720 -2.1645  0.6292  0.4221
  118OSM   C16F12405   1.000   4.747   4.624  0.5340 -0.1782 -0.1942
  118OSM   H16F12406   0.940   4.656   4.649  2.6663 -1.0365  2.1745
  118OSM   H16G12407   1.103   4.707   4.626  0.6160  0.0791  0.9872
  118OSM   C17F12408   0.953   4.805   4.487 -0.7472  0.0713  0.1997
  118OSM   H17F12409   1.021   4.863   4.421 -2.0848  1.0314 -0.3806
  118OSM   H17G12410   0.867   4.873   4.508 -0.4884  0.9425 -1.4254
  118OSM   C18F12411   0.900   4.687   4.406  0.5978  0.5464 -0.2521
  118OSM   H18F12412   0.968   4.601   4.393 -0.7473 -0.5932 -0.0221
  118OSM   H18G12413   0.870   4.713   4.302 -1.0808 -0.1471  0.0201
  118OSM   H18H12414   0.810   4.647   4.459  2.4728 -2.1846  1.1040
  119OSM      N12415   2.635   6.683   7.021 -0.0405 -0.3958 -0.4801
  119OSM    C1512416   2.502   6.687   7.090 -0.0206 -0.0308  0.4007
  119OSM   H15A12417   2.523   6.681   7.196  1.1613 -4.1616  0.1182
  119OSM   H15B12418   2.445   6.599   7.063  0.5783  0.0905 -1.3987
  119OSM   H15C12419   2.449   6.776   7.059  1.8839  0.9630 -0.1010
  119OSM    C1412420   2.709   6.803   7.068 -0.6803 -0.3515 -0.1637
  119OSM   H14A12421   2.808   6.809   7.026 -0.2142  2.0466  1.1140
  119OSM   H14B12422   2.713   6.805   7.176 -0.2305 -0.1784 -0.1814
  119OSM   H14C12423   2.651   6.893   7.054 -1.2034  0.1950  4.3041
  119OSM    C1312424   2.700   6.560   7.074  0.1777 -0.0508  0.7109
  119OSM   H13A12425   2.649   6.472   7.038  0.3541  0.2803 -0.3644
  119OSM   H13B12426   2.701   6.547   7.181 -0.5029  0.7263  0.8179
  119OSM   H13C12427   2.802   6.544   7.040 -0.4940 -0.6525 -1.1013
  119OSM    C1212428   2.622   6.673   6.869  0.2091  0.3119  0.0040
  119OSM   H12A12429   2.580   6.578   6.840 -0.3399  0.4011  0.4776
  119OSM   H12B12430   2.716   6.669   6.817  0.4724  0.5245  0.4611
  119OSM    C1112431   2.542   6.787   6.795 -0.0056 -0.4844  0.1448
  119OSM   H11A12432   2.434   6.795   6.818 -0.4480  1.3027 -2.1639
  119OSM   H11B12433   2.542   6.752   6.689  0.2945  1.7538 -0.6440
  119OSM      P12434   2.730   6.970   6.748  0.0618 -0.3823  0.1232
  119OSM    O1312435   2.714   7.114   6.725 -0.4808 -0.0806  0.1684
  119OSM    O1412436   2.848   6.917   6.820 -0.7995 -0.1344  0.2951
  119OSM    O1112437   2.720   6.907   6.599  0.1785  0.1094  0.1988
  119OSM    O1212438   2.601   6.918   6.820 -0.1835  0.6903  0.4460
  119OSM    C1S12439   2.794   6.790   6.555  0.3550  0.4200  0.3492
  119OSM    H1S12440   2.751   6.702   6.607  0.0473  1.4963  1.9768
  119OSM    H1T12441   2.899   6.813   6.582  0.4971  0.3846 -0.1484
  119OSM     NF12442   2.815   6.650   6.359 -0.2943  0.1242 -0.4862
  119OSM    HNF12443   2.906   6.643   6.317 -0.9154  1.0034 -2.0291
  119OSM    C2S12444   2.773   6.779   6.402  0.1565  0.3969  0.0401
  119OSM    H2S12445   2.664   6.797   6.390  0.3890  4.5598  2.3313
  119OSM    C3S12446   2.847   6.899   6.331 -0.9451 -1.0966 -0.6361
  119OSM    H3S12447   2.949   6.874   6.368 -0.9379  0.9671  0.8495
  119OSM     O312448   2.814   7.031   6.385  0.2886  0.0255 -0.2659
  119OSM    HO312449   2.775   7.010   6.469 -1.3479 -3.0358 -1.6079
  119OSM    C4S12450   2.830   6.889   6.187 -0.0850  0.6237  0.3260
  119OSM    H4S12451   2.906   6.833   6.131  0.3730  0.9355  0.6369
  119OSM    C5S12452   2.715   6.922   6.127 -0.3562 -0.4564 -0.0167
  119OSM    H5S12453   2.634   6.965   6.187 -0.9388 -1.0511 -0.3668
  119OSM    C6S12454   2.687   6.911   5.976  0.0751  0.5452 -0.3293
  119OSM    H6S12455   2.694   7.015   5.937  0.0615  1.1918  1.3262
  119OSM    H6T12456   2.578   6.893   5.966 -0.1622  1.5352  0.3094
  119OSM    C7S12457   2.778   6.820   5.888  0.1715  0.0920 -0.1737
  119OSM    H7S12458   2.769   6.717   5.928  4.2079  0.8723  3.4685
  119OSM    H7T12459   2.882   6.856   5.899  0.6000 -1.6671  2.2978
  119OSM    C8S12460   2.734   6.826   5.739 -0.0934 -0.3234 -0.4050
  119OSM    H8S12461   2.624   6.832   5.720  0.2011  0.2295 -2.1677
  119OSM    H8T12462   2.774   6.731   5.699  2.0675  1.3279 -2.5345
  119OSM    C9S12463   2.816   6.929   5.658 -0.6134 -0.0998 -0.7636
  119OSM    H9S12464   2.917   6.886   5.641 -0.5359 -0.3243  0.2240
  119OSM    H9T12465   2.822   7.023   5.715 -0.8205 -0.2899 -0.4242
  119OSM   C10S12466   2.742   6.961   5.531  0.0641 -0.1240 -0.6908
  119OSM   H10S12467   2.658   7.022   5.570 -0.0945  0.3943 -1.8064
  119OSM   H10T12468   2.691   6.875   5.483  0.2329 -0.6914  0.1163
  119OSM   C11S12469   2.829   7.024   5.429 -0.1802 -0.0657 -0.4238
  119OSM   H11S12470   2.914   6.959   5.398  0.7131  0.8250  0.0847
  119OSM   H11T12471   2.871   7.122   5.461  0.7858 -0.0226 -1.7462
  119OSM   C12S12472   2.749   7.029   5.297  0.1576  0.2220 -0.6653
  119OSM   H12S12473   2.658   7.088   5.323 -0.4390 -0.6378 -0.7600
  119OSM   H12T12474   2.719   6.930   5.257 -1.9340  1.0493 -1.3079
  119OSM   C13S12475   2.840   7.088   5.192 -0.3601 -0.8313 -0.5829
  119OSM   H13S12476   2.934   7.031   5.180  0.4306  0.4966 -0.8315
  119OSM   H13T12477   2.874   7.188   5.227 -0.3446 -0.2939 -2.0427
  119OSM   C14S12478   2.776   7.096   5.057 -0.1995 -0.1153 -0.5223
  119OSM   H14S12479   2.711   7.186   5.051 -4.1782 -2.8137 -1.9532
  119OSM   H14T12480   2.703   7.013   5.046 -1.9483  0.8824  2.3660
  119OSM   C15S12481   2.880   7.089   4.943 -0.0958  0.9187  0.0525
  119OSM   H15S12482   2.960   7.164   4.965  0.8052  0.5768 -1.8148
  119OSM   H15T12483   2.819   7.127   4.858  1.2847 -0.6375 -1.7171
  119OSM   C16S12484   2.922   6.943   4.917  0.2531  0.2201 -0.0954
  119OSM   H16S12485   2.834   6.875   4.912  1.9669 -2.6331  3.4703
  119OSM   H16T12486   2.957   6.906   5.016  0.0048 -1.6054 -0.6601
  119OSM   C17S12487   3.029   6.926   4.816 -0.4949 -0.1579 -0.0484
  119OSM   H17S12488   3.055   6.818   4.806 -0.1215 -0.1116  0.3913
  119OSM   H17T12489   3.121   6.971   4.858 -0.9389 -0.1516  0.9467
  119OSM   C18S12490   3.000   6.990   4.678 -0.0210 -0.3521 -0.8139
  119OSM   H18S12491   2.921   6.937   4.621 -0.6716 -0.3850  0.1033
  119OSM   H18T12492   3.086   6.996   4.607  1.4497  1.7786  0.9969
  119OSM   H18U12493   2.963   7.093   4.699 -3.7045 -1.8926  1.1711
  119OSM    C1F12494   2.747   6.536   6.370  0.3226  0.0017  0.5494
  119OSM     OF12495   2.627   6.546   6.398 -0.1520  0.5979  0.0503
  119OSM    C2F12496   2.822   6.408   6.354 -0.1231  0.3187  0.6620
  119OSM    H2F12497   2.811   6.340   6.441 -1.2533 -1.8120 -1.0575
  119OSM    H2G12498   2.927   6.442   6.363 -0.4151  1.4214  0.0734
  119OSM    C3F12499   2.778   6.335   6.221  0.0962  0.1838  0.4745
  119OSM    H3F12500   2.667   6.334   6.230 -0.0949  3.9419  0.0497
  119OSM    H3G12501   2.825   6.234   6.216 -1.3458 -0.5813  1.4769
  119OSM    C4F12502   2.832   6.394   6.092  0.2221 -0.5223 -0.4238
  119OSM    H4F12503   2.941   6.410   6.108  0.4050 -1.2115 -0.9596
  119OSM    H4G12504   2.792   6.494   6.066  0.5440 -0.3691 -0.3465
  119OSM    C5F12505   2.819   6.296   5.970 -0.2873  0.4552 -0.7255
  119OSM    H5F12506   2.717   6.252   5.974  0.3580 -1.0126  1.4027
  119OSM    H5G12507   2.889   6.213   5.994  0.2942  1.7675  2.8990
  119OSM    C6F12508   2.846   6.375   5.835  0.0092 -0.1853 -0.3692
  119OSM    H6F12509   2.955   6.400   5.829  0.0833 -0.4891 -0.3124
  119OSM    H6G12510   2.781   6.464   5.841 -2.3733 -1.7334 -1.8780
  119OSM    C7F12511   2.811   6.288   5.725  0.6095  0.0734 -0.1961
  119OSM    H7F12512   2.720   6.225   5.737  0.8125  0.1013  1.9827
  119OSM    H7G12513   2.885   6.205   5.714 -0.5328 -1.6246  3.2380
  119OSM    C8F12514   2.816   6.376   5.596  0.4669  0.1352 -0.5142
  119OSM    H8F12515   2.746   6.460   5.612 -0.3274 -0.5702 -0.1932
  119OSM    H8G12516   2.760   6.310   5.526 -0.5270  1.4674 -0.9998
  119OSM    C9F12517   2.949   6.420   5.545  0.0427 -0.3655 -0.5665
  119OSM    H9F12518   3.027   6.345   5.561 -0.3065 -0.1886  2.5509
  119OSM   C10F12519   2.978   6.525   5.460  0.0149 -0.4145  0.1902
  119OSM   H10F12520   3.083   6.534   5.432 -0.5417  0.1210 -1.8868
  119OSM   C11F12521   2.879   6.625   5.405  0.2275  0.2162  0.6880
  119OSM   H11F12522   2.861   6.716   5.467  0.2063  2.2406 -2.0877
  119OSM   H11G12523   2.784   6.568   5.409  1.4542 -2.0121  0.1199
  119OSM   C12F12524   2.890   6.662   5.256  0.1606 -0.4537 -0.1543
  119OSM   H12F12525   2.982   6.724   5.250  0.5198 -0.6681  1.9885
  119OSM   H12G12526   2.802   6.715   5.214 -0.5030 -1.4986 -0.1313
  119OSM   C13F12527   2.896   6.536   5.163 -0.9616  0.1310 -0.4029
  119OSM   H13F12528   2.804   6.476   5.181 -0.9529  0.8706  2.6611
  119OSM   H13G12529   2.989   6.480   5.187 -0.8896  0.0745 -0.7985
  119OSM   C14F12530   2.921   6.579   5.014 -0.2935  0.3295  0.1361
  119OSM   H14F12531   3.001   6.655   5.013 -1.4945  1.6312 -0.1896
  119OSM   H14G12532   2.828   6.617   4.966 -0.4196  1.9915  1.6231
  119OSM   C15F12533   2.970   6.473   4.916  1.2237  0.3973  0.3217
  119OSM   H15F12534   3.065   6.427   4.951  0.5531 -2.4687 -1.2623
  119OSM   H15G12535   2.987   6.524   4.819 -2.6597  0.6918 -0.3502
  119OSM   C16F12536   2.862   6.355   4.896 -0.6688  0.6986  0.1810
  119OSM   H16F12537   2.763   6.388   4.857 -0.2928  1.4916 -0.1203
  119OSM   H16G12538   2.845   6.299   4.990  0.5249  2.4942  1.5342
  119OSM   C17F12539   2.925   6.262   4.781  0.2042  0.3669 -0.1223
  119OSM   H17F12540   3.020   6.210   4.807  1.0245  1.2918 -1.2096
  119OSM   H17G12541   2.945   6.313   4.685  0.9802 -0.5403 -0.4530
  119OSM   C18F12542   2.832   6.146   4.753  0.1320 -0.6136 -0.8681
  119OSM   H18F12543   2.815   6.110   4.857  0.7520  3.5917  0.9166
  119OSM   H18G12544   2.872   6.070   4.683  1.5904 -0.2383 -0.4669
  119OSM   H18H12545   2.739   6.192   4.713  0.2639  0.1680 -0.2906
  120OSM      N12546   0.045   0.575   6.789  1.1601 -0.3183 -0.4350
  120OSM    C1512547   0.010   0.472   6.895  0.6312  0.1251 -0.0937
  120OSM   H15A12548   0.096   0.409   6.906  0.0913 -0.5744  0.2060
  120OSM   H15B12549  -0.079   0.416   6.869  1.6390 -0.8099 -1.7571
  120OSM   H15C12550  -0.002   0.524   6.989 -1.3545 -0.2566 -0.0891
  120OSM    C1412551   0.019   0.514   6.655 -0.3232  0.0476  0.5480
  120OSM   H14A12552   0.068   0.572   6.578  0.3120 -0.5370  0.4977
  120OSM   H14B12553  -0.087   0.493   6.647 -0.1686 -0.2878 -1.1079
  120OSM   H14C12554   0.067   0.417   6.646 -1.9798 -0.7667  0.0770
  120OSM    C1312555  -0.059   0.682   6.803  0.9114  0.3806  0.1975
  120OSM   H13A12556  -0.024   0.756   6.874  0.6554  1.5561 -0.8806
  120OSM   H13B12557  -0.157   0.646   6.831  0.5273 -0.3323 -1.9306
  120OSM   H13C12558  -0.067   0.733   6.708  1.0783 -0.9088 -0.5288
  120OSM    C1212559   0.187   0.625   6.806  0.2652 -0.4712  0.0250
  120OSM   H12A12560   0.212   0.684   6.719 -1.0541 -0.0008 -0.0484
  120OSM   H12B12561   0.255   0.541   6.797  0.2317 -0.4122 -0.9331
  120OSM    C1112562   0.225   0.712   6.928  0.8156  0.1535 -0.4306
  120OSM   H11A12563   0.331   0.744   6.939  0.2002  1.5061  2.8485
  120OSM   H11B12564   0.194   0.656   7.019  1.6856 -0.5801 -0.5723
  120OSM      P12565   0.178   0.955   6.832 -0.1958 -0.0943  0.0947
  120OSM    O1312566   0.057   1.035   6.812 -0.2738  0.0008 -0.7499
  120OSM    O1412567   0.288   1.039   6.885  0.2893 -0.0123  0.0771
  120OSM    O1112568   0.220   0.892   6.697 -0.2552 -0.3216 -0.1232
  120OSM    O1212569   0.150   0.833   6.924 -0.4532  0.2360 -0.3083
  120OSM    C1S12570   0.195   0.956   6.571 -0.0911  0.2904  0.0367
  120OSM    H1S12571   0.218   1.064   6.581  0.0885  0.3133 -0.5732
  120OSM    H1T12572   0.088   0.949   6.541 -0.2979  0.9134  0.5971
  120OSM     NF12573   0.256   1.000   6.336 -0.4875 -0.0482 -0.2117
  120OSM    HNF12574   0.183   0.976   6.273 -1.7334 -1.6943  1.7068
  120OSM    C2S12575   0.290   0.907   6.453  0.1611 -0.2837  0.2208
  120OSM    H2S12576   0.396   0.933   6.476  0.2529  1.1030 -1.5299
  120OSM    C3S12577   0.278   0.754   6.428 -0.1058  0.1372 -0.2691
  120OSM    H3S12578   0.172   0.724   6.418  0.3081 -0.6409 -3.9492
  120OSM     O312579   0.344   0.678   6.534  0.2203  0.3409 -0.6901
  120OSM    HO312580   0.353   0.743   6.604  0.1069  0.9360 -1.2181
  120OSM    C4S12581   0.344   0.713   6.297 -0.0900  0.2571 -0.1333
  120OSM    H4S12582   0.273   0.674   6.223  2.1848 -1.5692 -1.5154
  120OSM    C5S12583   0.475   0.720   6.269  0.4776  0.3365 -0.4971
  120OSM    H5S12584   0.537   0.756   6.353 -1.2016  1.5626  0.2719
  120OSM    C6S12585   0.539   0.667   6.143  0.4169  0.1402 -0.9718
  120OSM    H6S12586   0.609   0.588   6.177 -1.3532 -1.3702 -0.6883
  120OSM    H6T12587   0.608   0.744   6.104  0.3689 -0.9668 -3.4426
  120OSM    C7S12588   0.444   0.620   6.039 -1.0036  0.0129 -0.1402
  120OSM    H7S12589   0.362   0.695   6.033 -1.2861  0.2123  3.7741
  120OSM    H7T12590   0.399   0.522   6.067 -0.2569  0.3341  2.3424
  120OSM    C8S12591   0.506   0.601   5.897  0.7328  0.2279  0.5407
  120OSM    H8S12592   0.581   0.674   5.859  0.8970 -0.9275 -1.5239
  120OSM    H8T12593   0.425   0.587   5.823  0.9835 -1.6533  0.5661
  120OSM    C9S12594   0.580   0.465   5.907  0.5984  0.6693 -0.5341
  120OSM    H9S12595   0.506   0.386   5.931  0.7002  0.6166 -0.3869
  120OSM    H9T12596   0.655   0.472   5.989  0.4876 -0.8476 -0.2600
  120OSM   C10S12597   0.648   0.422   5.780  0.2161 -0.3016 -0.5812
  120OSM   H10S12598   0.709   0.332   5.804  1.8032  0.0301 -3.0665
  120OSM   H10T12599   0.727   0.497   5.757 -1.6377  1.2937 -2.1145
  120OSM   C11S12600   0.564   0.404   5.657  0.1299 -0.6961 -0.1897
  120OSM   H11S12601   0.511   0.500   5.638  0.9210 -0.2818 -0.3754
  120OSM   H11T12602   0.485   0.329   5.673  0.1558 -0.3665  1.6788
  120OSM   C12S12603   0.641   0.371   5.525  0.1328 -0.4630  0.1920
  120OSM   H12S12604   0.574   0.310   5.460 -0.7873 -1.0840  1.6750
  120OSM   H12T12605   0.729   0.306   5.543  0.5207  0.1282  0.4634
  120OSM   C13S12606   0.672   0.494   5.428  0.2994  0.0571  0.7158
  120OSM   H13S12607   0.735   0.568   5.483  0.6847  0.5341 -0.3353
  120OSM   H13T12608   0.571   0.537   5.418  0.4164  0.4173  1.0786
  120OSM   C14S12609   0.727   0.451   5.287 -0.8775  0.5221 -0.4090
  120OSM   H14S12610   0.665   0.372   5.240  0.3348  0.5857 -2.2133
  120OSM   H14T12611   0.831   0.412   5.294 -1.0220  0.3269  0.8816
  120OSM   C15S12612   0.721   0.566   5.189  1.0304  0.3556  0.4075
  120OSM   H15S12613   0.755   0.658   5.241 -0.0247 -0.6082  2.9825
  120OSM   H15T12614   0.620   0.587   5.148  1.5947  0.2078 -1.1160
  120OSM   C16S12615   0.801   0.537   5.057 -0.5073 -0.0731  0.0750
  120OSM   H16S12616   0.902   0.498   5.082 -1.0353 -0.5890  1.5051
  120OSM   H16T12617   0.808   0.632   5.000  1.2823 -0.8976 -1.1812
  120OSM   C17S12618   0.732   0.426   4.980  0.3704  0.7449  0.1111
  120OSM   H17S12619   0.625   0.456   4.974  0.2846  0.7293  1.2886
  120OSM   H17T12620   0.723   0.333   5.041 -1.6936 -0.4473 -1.8544
  120OSM   C18S12621   0.791   0.408   4.834 -0.0556  0.2521 -0.1221
  120OSM   H18S12622   0.717   0.349   4.776  1.0895  0.6067 -2.0266
  120OSM   H18T12623   0.891   0.360   4.836  1.0212  2.4233  1.5094
  120OSM   H18U12624   0.799   0.502   4.775  0.0052 -0.6010 -1.5295
  120OSM    C1F12625   0.304   1.116   6.330  0.3024  0.1202  0.5015
  120OSM     OF12626   0.385   1.151   6.410 -0.3623  0.2203 -0.0752
  120OSM    C2F12627   0.271   1.201   6.209 -0.0585  0.0801 -0.2353
  120OSM    H2F12628   0.196   1.281   6.229 -0.5581 -0.2965 -0.5690
  120OSM    H2G12629   0.234   1.135   6.129  5.0049 -1.1610 -1.8784
  120OSM    C3F12630   0.393   1.273   6.157  0.3370 -0.7975  0.6368
  120OSM    H3F12631   0.471   1.194   6.147 -0.2736 -1.1889 -1.3536
  120OSM    H3G12632   0.412   1.340   6.243  1.0501 -1.7975  1.2882
  120OSM    C4F12633   0.369   1.374   6.040 -0.2755  0.2574  0.0459
  120OSM    H4F12634   0.466   1.414   6.005  0.1161  0.6469  1.5375
  120OSM    H4G12635   0.307   1.458   6.076  1.5240  0.7546  2.1816
  120OSM    C5F12636   0.285   1.297   5.936 -0.7113 -0.1233  0.3175
  120OSM    H5F12637   0.190   1.258   5.979 -0.3651 -2.5723 -0.9262
  120OSM    H5G12638   0.342   1.205   5.908  1.1766  0.8750  0.7442
  120OSM    C6F12639   0.247   1.373   5.804 -0.1342 -0.3763 -0.0967
  120OSM    H6F12640   0.199   1.467   5.837  0.0005  0.4864 -2.1735
  120OSM    H6G12641   0.179   1.306   5.747  1.4357 -1.1110 -1.1905
  120OSM    C7F12642   0.370   1.400   5.723 -0.0837  0.8679 -1.0428
  120OSM    H7F12643   0.420   1.307   5.689 -1.2545 -0.4644  0.7424
  120OSM    H7G12644   0.447   1.455   5.780  1.9629 -2.3973 -0.4108
  120OSM    C8F12645   0.333   1.471   5.594 -0.4830 -0.6000 -0.0485
  120OSM    H8F12646   0.428   1.505   5.547 -0.0838  0.5249  1.4846
  120OSM    H8G12647   0.298   1.568   5.637  1.1719  0.0269 -0.0363
  120OSM    C9F12648   0.238   1.408   5.498  1.1029  0.3417  0.3101
  120OSM    H9F12649   0.131   1.405   5.526  0.7917 -0.4622 -0.9279
  120OSM   C10F12650   0.267   1.352   5.381  0.5884  0.4668  0.3617
  120OSM   H10F12651   0.186   1.321   5.314 -0.3026 -1.2959  2.1596
  120OSM   C11F12652   0.395   1.349   5.315  0.8219  0.0337  0.6825
  120OSM   H11F12653   0.465   1.300   5.387  1.9693  2.8138  1.5829
  120OSM   H11G12654   0.425   1.455   5.309 -1.6184  0.6774 -2.8483
  120OSM   C12F12655   0.396   1.293   5.170  0.0743  0.2344  0.3173
  120OSM   H12F12656   0.398   1.182   5.172  1.1560  0.0266 -3.4867
  120OSM   H12G12657   0.491   1.325   5.122  1.1658  0.3228  2.4219
  120OSM   C13F12658   0.289   1.355   5.075 -0.6745  0.4518  0.1477
  120OSM   H13F12659   0.292   1.466   5.086  0.2166  0.4683 -0.2150
  120OSM   H13G12660   0.194   1.304   5.102  0.8241 -2.5526  0.1527
  120OSM   C14F12661   0.314   1.305   4.925  0.0585  0.1062 -0.3997
  120OSM   H14F12662   0.230   1.311   4.853  0.7187 -1.3870 -1.3407
  120OSM   H14G12663   0.328   1.195   4.936  0.1575 -0.0074 -1.5304
  120OSM   C15F12664   0.439   1.371   4.865 -0.2802 -0.3717  0.4348
  120OSM   H15F12665   0.539   1.336   4.899  0.0799  0.2365  0.0234
  120OSM   H15G12666   0.445   1.478   4.894  0.1790 -0.0732 -0.7346
  120OSM   C16F12667   0.427   1.375   4.709 -0.0983  0.2009 -0.6780
  120OSM   H16F12668   0.487   1.459   4.668 -3.4899  2.0410 -2.2873
  120OSM   H16G12669   0.321   1.384   4.677 -0.7598  1.2992  1.6166
  120OSM   C17F12670   0.490   1.248   4.641 -0.0745 -0.2908  0.7187
  120OSM   H17F12671   0.442   1.153   4.671 -0.1973 -0.2981  0.4995
  120OSM   H17G12672   0.595   1.246   4.677  1.0148  0.7953 -2.1477
  120OSM   C18F12673   0.488   1.245   4.493 -1.0529 -0.9727 -0.3734
  120OSM   H18F12674   0.551   1.329   4.457 -1.4382 -0.4115  0.2437
  120OSM   H18G12675   0.387   1.263   4.451 -2.5038 -1.9314  2.4647
  120OSM   H18H12676   0.526   1.149   4.451 -1.9641 -1.9126  0.8821
  121OSM      N12677   6.222   1.773   6.693  0.0634 -0.0549 -0.7644
  121OSM    C1512678   6.194   1.903   6.767  0.7067  0.2138 -0.1062
  121OSM   H15A12679   6.275   1.927   6.835  0.2892  0.1240  0.4336
  121OSM   H15B12680   6.105   1.899   6.829  0.0252  4.3896 -0.5182
  121OSM   H15C12681   6.196   1.987   6.700  0.4140  1.1388  1.0140
  121OSM    C1412682   6.291   1.677   6.789  0.3698 -0.0307 -0.3879
  121OSM   H14A12683   6.376   1.721   6.839 -1.1721 -0.6904  3.1472
  121OSM   H14B12684   6.318   1.591   6.730 -0.2043 -0.9284  0.5974
  121OSM   H14C12685   6.217   1.653   6.865 -1.2133  1.8734 -1.2406
  121OSM    C1312686   6.086   1.716   6.636  0.3085 -0.7915  0.4626
  121OSM   H13A12687   6.062   1.766   6.544  1.4263 -1.6224 -0.3129
  121OSM   H13B12688   6.012   1.726   6.714 -1.5798  0.7861 -1.4301
  121OSM   H13C12689   6.107   1.612   6.615  1.1163 -0.7427  0.9559
  121OSM    C1212690   6.309   1.805   6.571  0.0440 -0.0116 -0.5595
  121OSM   H12A12691   6.352   1.722   6.517  1.1756  1.3318 -1.7902
  121OSM   H12B12692   6.397   1.852   6.612 -1.3246  2.2659 -0.0775
  121OSM    C1112693   6.254   1.901   6.458  0.5000  0.5372  0.2556
  121OSM   H11A12694   6.156   1.871   6.413  0.0870  3.1106 -0.7129
  121OSM   H11B12695   6.327   1.884   6.376 -1.2809 -1.3350 -1.0633
  121OSM      P12696   6.348   2.153   6.484  0.2216  0.1578 -0.3965
  121OSM    O1312697   6.287   2.283   6.524  0.2194 -0.3482 -0.6129
  121OSM    O1412698   6.467   2.110   6.560 -0.1076 -0.1619  0.3363
  121OSM    O1112699   6.379   2.149   6.327  0.8753  0.5182 -0.5978
  121OSM    O1212700   6.232   2.041   6.504 -0.1507 -0.0420 -0.0165
  121OSM    C1S12701   6.266   2.133   6.240  0.1330 -0.4104 -0.0268
  121OSM    H1S12702   6.172   2.175   6.283  1.2440  2.0251  0.1920
  121OSM    H1T12703   6.241   2.026   6.222 -1.7463  0.5116 -3.8158
  121OSM     NF12704   6.176   2.224   6.040  0.2629 -0.0785 -0.1667
  121OSM    HNF12705   6.162   2.162   5.964 -1.0191  0.4025 -0.3533
  121OSM    C2S12706   6.299   2.209   6.114  0.2962 -0.5163  0.8522
  121OSM    H2S12707   6.330   2.313   6.139  0.3007  1.0144 -4.4484
  121OSM    C3S12708   6.409   2.133   6.034  0.5697  0.2945 -0.7939
  121OSM    H3S12709   6.378   2.026   6.035 -0.3926  0.5535 -1.9060
  121OSM     O312710   6.541   2.134   6.101 -0.4729  0.6801  0.0253
  121OSM    HO312711   6.514   2.136   6.194 -2.3249  0.5798 -0.4626
  121OSM    C4S12712   6.431   2.193   5.900  0.5242  0.4895 -0.1775
  121OSM    H4S12713   6.464   2.298   5.901  0.2383  0.5959 -0.9466
  121OSM    C5S12714   6.438   2.118   5.789  0.0274 -0.0414 -0.9889
  121OSM    H5S12715   6.440   2.010   5.807  0.8950 -0.5739 -3.7150
  121OSM    C6S12716   6.472   2.163   5.652  0.1711  0.2425  0.2508
  121OSM    H6S12717   6.485   2.274   5.653 -3.4746  0.7870  0.7565
  121OSM    H6T12718   6.383   2.154   5.586  0.9223  1.2610 -0.9587
  121OSM    C7S12719   6.602   2.098   5.596  0.4430 -0.0349 -0.1412
  121OSM    H7S12720   6.578   1.993   5.567 -0.6870  0.8135 -2.5687
  121OSM    H7T12721   6.677   2.089   5.676 -0.1504  2.8252  0.8268
  121OSM    C8S12722   6.666   2.158   5.472 -0.3165 -0.5650 -0.6370
  121OSM    H8S12723   6.768   2.115   5.458  0.1977  0.5295 -0.3362
  121OSM    H8T12724   6.675   2.267   5.490 -0.0192 -0.5658 -0.7710
  121OSM    C9S12725   6.585   2.142   5.349 -0.4653 -0.0974 -0.0043
  121OSM    H9S12726   6.501   2.215   5.362 -0.4121 -0.1728  0.7892
  121OSM    H9T12727   6.536   2.043   5.339  0.0751 -0.3981  0.3501
  121OSM   C10S12728   6.658   2.162   5.219 -0.2597 -0.3450  0.4980
  121OSM   H10S12729   6.735   2.082   5.208  0.7731  0.5389  1.0924
  121OSM   H10T12730   6.722   2.251   5.237 -0.9121 -0.0327  1.3108
  121OSM   C11S12731   6.572   2.191   5.088  0.1259  0.9627 -0.0685
  121OSM   H11S12732   6.469   2.224   5.112  0.0277  1.1868 -0.7761
  121OSM   H11T12733   6.553   2.095   5.035  3.4632 -0.0956  0.3963
  121OSM   C12S12734   6.646   2.262   4.976  0.9744  0.2919  0.5138
  121OSM   H12S12735   6.712   2.182   4.936 -1.0970 -1.7425  0.9591
  121OSM   H12T12736   6.719   2.345   4.991  2.4971 -0.7921 -0.5869
  121OSM   C13S12737   6.542   2.294   4.863 -0.6786 -0.2722  0.0749
  121OSM   H13S12738   6.484   2.385   4.892  0.7024  0.2559  1.3061
  121OSM   H13T12739   6.476   2.205   4.864 -0.5184 -0.4845 -2.2218
  121OSM   C14S12740   6.596   2.296   4.718 -0.4426 -0.0233 -0.0516
  121OSM   H14S12741   6.667   2.212   4.703  0.7016  0.9878 -0.4715
  121OSM   H14T12742   6.656   2.389   4.706  0.7746 -0.5901  1.3092
  121OSM   C15S12743   6.474   2.287   4.622  0.0558  0.5217  0.6485
  121OSM   H15S12744   6.442   2.181   4.619 -0.1058  0.5508 -3.1102
  121OSM   H15T12745   6.523   2.310   4.525 -0.7991  1.9326  0.5306
  121OSM   C16S12746   6.359   2.389   4.646  0.6527 -0.1105  0.0701
  121OSM   H16S12747   6.413   2.486   4.650  1.6586 -0.6811  1.0176
  121OSM   H16T12748   6.303   2.360   4.737  0.1586 -0.3009 -0.2929
  121OSM   C17S12749   6.257   2.380   4.531 -0.3721 -0.1353 -0.2348
  121OSM   H17S12750   6.252   2.273   4.501  2.7272  0.0699 -1.8885
  121OSM   H17T12751   6.299   2.442   4.449  2.3803 -1.0293  0.3709
  121OSM   C18S12752   6.130   2.444   4.561  0.2451 -0.2253  0.6758
  121OSM   H18S12753   6.121   2.554   4.549 -3.6694 -0.5583 -1.2069
  121OSM   H18T12754   6.102   2.408   4.662  1.5498  0.8266  1.4367
  121OSM   H18U12755   6.053   2.412   4.488  1.5272  0.2847 -0.9662
  121OSM    C1F12756   6.074   2.304   6.072  0.2297 -0.6268 -0.3236
  121OSM     OF12757   6.055   2.347   6.184 -0.3262 -0.5129  0.1158
  121OSM    C2F12758   5.969   2.336   5.969  0.0466 -0.7379  0.1768
  121OSM    H2F12759   5.877   2.314   6.026 -0.3358 -0.5409 -0.3600
  121OSM    H2G12760   5.986   2.271   5.881  2.5342 -0.0112  0.0387
  121OSM    C3F12761   5.965   2.486   5.937 -0.8619 -0.2799 -0.1400
  121OSM    H3F12762   5.961   2.537   6.036  1.5812  0.5212 -0.3930
  121OSM    H3G12763   5.875   2.523   5.883 -2.0325 -1.0473  1.2142
  121OSM    C4F12764   6.084   2.535   5.853 -0.5413  0.9735 -0.0741
  121OSM    H4F12765   6.181   2.515   5.904 -1.0270 -2.3842 -0.2557
  121OSM    H4G12766   6.087   2.646   5.859  0.8578  0.9001  1.0439
  121OSM    C5F12767   6.076   2.482   5.716 -0.0939  0.6155 -0.0052
  121OSM    H5F12768   5.968   2.494   5.694 -0.3239 -0.2181  0.6070
  121OSM    H5G12769   6.099   2.373   5.713 -0.5156  0.5306 -2.2226
  121OSM    C6F12770   6.170   2.566   5.621  0.1290  0.1588 -0.6489
  121OSM    H6F12771   6.272   2.564   5.666 -0.9791  0.6917  2.1227
  121OSM    H6G12772   6.123   2.666   5.623 -1.1407 -0.3642 -2.1918
  121OSM    C7F12773   6.189   2.499   5.482 -0.6210  0.1399  0.1703
  121OSM    H7F12774   6.216   2.393   5.505 -0.9758  0.1010  0.4089
  121OSM    H7G12775   6.280   2.540   5.433  1.1324 -2.9525  0.5476
  121OSM    C8F12776   6.070   2.495   5.392  0.7950 -0.1166  0.4999
  121OSM    H8F12777   5.979   2.477   5.453  1.1999  1.7240  1.7301
  121OSM    H8G12778   6.090   2.407   5.326 -0.4294 -0.9925  1.2697
  121OSM    C9F12779   6.050   2.627   5.325 -0.6608 -0.3834 -0.0835
  121OSM    H9F12780   6.003   2.708   5.382  0.8125 -0.4368  1.2721
  121OSM   C10F12781   6.096   2.652   5.200 -0.3744 -0.0153 -0.6331
  121OSM   H10F12782   6.093   2.754   5.160 -1.2887  1.6951  3.2886
  121OSM   C11F12783   6.161   2.554   5.109 -1.3746 -0.3407 -1.1579
  121OSM   H11F12784   6.130   2.447   5.112  0.3412 -0.8540 -0.0250
  121OSM   H11G12785   6.264   2.568   5.149 -1.7277 -0.6463 -0.0990
  121OSM   C12F12786   6.148   2.602   4.961 -0.1245 -0.1693  0.4589
  121OSM   H12F12787   6.044   2.600   4.921  0.3148 -0.2440 -0.7077
  121OSM   H12G12788   6.198   2.529   4.894 -0.7922 -0.0459 -0.1985
  121OSM   C13F12789   6.206   2.742   4.929 -0.3012 -0.0122 -0.2543
  121OSM   H13F12790   6.308   2.750   4.972  0.3969 -0.7782 -1.7343
  121OSM   H13G12791   6.147   2.823   4.978 -1.7663 -1.5712  0.6741
  121OSM   C14F12792   6.211   2.790   4.783 -0.5184 -0.4173  0.5746
  121OSM   H14F12793   6.112   2.796   4.733  0.5901 -0.0984 -1.7306
  121OSM   H14G12794   6.268   2.717   4.721  0.1454  1.3988 -1.0423
  121OSM   C15F12795   6.262   2.935   4.765  0.3130  0.0759 -0.2594
  121OSM   H15F12796   6.365   2.944   4.806  0.8943 -1.6229 -1.2396
  121OSM   H15G12797   6.195   2.994   4.832 -0.7837  0.0997 -1.3299
  121OSM   C16F12798   6.272   2.978   4.621  0.0405 -0.0340  0.2416
  121OSM   H16F12799   6.168   2.988   4.582  0.1581 -0.4336 -0.1805
  121OSM   H16G12800   6.325   2.909   4.552  0.3176 -0.7373  1.1503
  121OSM   C17F12801   6.330   3.112   4.603 -0.0563 -0.7054  0.0409
  121OSM   H17F12802   6.272   3.191   4.656  2.1872  1.5807 -0.7254
  121OSM   H17G12803   6.326   3.133   4.494  0.7206 -0.8559 -0.0232
  121OSM   C18F12804   6.467   3.143   4.660  0.4210 -0.5565  0.5446
  121OSM   H18F12805   6.504   3.244   4.633 -1.6378  0.5693  1.7260
  121OSM   H18G12806   6.534   3.064   4.619  0.2527 -1.4280  1.9075
  121OSM   H18H12807   6.463   3.144   4.770  0.2012 -0.3405  0.5327
  122OSM      N12808   0.034   4.408   7.235 -0.0899  1.3387  0.1231
  122OSM    C1512809   0.091   4.273   7.202  0.3580  0.2414  0.5699
  122OSM   H15A12810   0.148   4.273   7.110 -0.1924 -1.1993  0.1964
  122OSM   H15B12811   0.023   4.189   7.197  0.1416  0.4272  0.3295
  122OSM   H15C12812   0.169   4.258   7.275  1.7929  1.1375 -0.7142
  122OSM    C1412813  -0.015   4.402   7.376 -0.3072  0.0031  0.4034
  122OSM   H14A12814  -0.065   4.493   7.407 -0.6234 -0.1751  0.4267
  122OSM   H14B12815   0.065   4.385   7.447  0.3915  1.5862  0.0379
  122OSM   H14C12816  -0.084   4.321   7.396  0.7705 -0.4790  2.5150
  122OSM    C1312817   0.146   4.506   7.227  0.9926 -0.0832  0.4801
  122OSM   H13A12818   0.104   4.604   7.243 -0.2666 -0.4062 -0.6388
  122OSM   H13B12819   0.183   4.508   7.125  1.6007  3.4183  0.6469
  122OSM   H13C12820   0.229   4.485   7.293 -0.0081 -1.2879  1.3956
  122OSM    C1212821  -0.080   4.445   7.149  0.3409  0.3986  0.2216
  122OSM   H12A12822  -0.124   4.538   7.182  1.9573  0.7558  1.5046
  122OSM   H12B12823  -0.151   4.365   7.166  1.1469 -0.2060  0.8147
  122OSM    C1112824  -0.061   4.462   7.002  0.2126  0.4804 -0.3410
  122OSM   H11A12825  -0.155   4.444   6.945 -0.6547 -2.1030  1.7096
  122OSM   H11B12826   0.014   4.388   6.968  0.4841  0.3274  0.5680
  122OSM      P12827  -0.097   4.722   6.973 -0.1066 -0.1452 -0.1632
  122OSM    O1312828  -0.203   4.716   7.076  0.3349 -0.0858 -0.0285
  122OSM    O1412829  -0.006   4.836   6.974  0.0325  0.1808 -0.1185
  122OSM    O1112830  -0.155   4.725   6.829  0.2995 -0.0835  0.4530
  122OSM    O1212831  -0.005   4.594   6.969 -0.0122  0.3328 -0.3951
  122OSM    C1S12832  -0.110   4.647   6.721 -0.1043  0.0856 -0.0553
  122OSM    H1S12833  -0.150   4.545   6.737  1.1505 -0.3812  0.2632
  122OSM    H1T12834   0.000   4.649   6.707  0.0735 -0.0560  1.2006
  122OSM     NF12835  -0.172   4.597   6.479  0.2655 -0.6550 -0.0431
  122OSM    HNF12836  -0.107   4.617   6.406  0.9364 -0.3771  0.6213
  122OSM    C2S12837  -0.193   4.696   6.593 -0.0384 -0.5778 -0.1111
  122OSM    H2S12838  -0.301   4.689   6.619 -0.5046  1.4664 -1.3194
  122OSM    C3S12839  -0.154   4.846   6.560 -0.4844  0.7598 -0.4579
  122OSM    H3S12840  -0.046   4.833   6.538 -0.3301  0.3636  0.4981
  122OSM     O312841  -0.169   4.933   6.672 -0.6984 -0.6653 -0.2728
  122OSM    HO312842  -0.188   4.868   6.740  0.0573 -2.9513 -2.1014
  122OSM    C4S12843  -0.236   4.894   6.444 -0.5578  0.7482  0.4854
  122OSM    H4S12844  -0.342   4.882   6.472  0.1111 -0.0592  2.9354
  122OSM    C5S12845  -0.191   4.921   6.315 -0.6563 -0.3238 -0.7642
  122OSM    H5S12846  -0.083   4.914   6.293  0.1080 -0.6801  2.5826
  122OSM    C6S12847  -0.291   4.938   6.209  0.2707 -0.0475  0.0719
  122OSM    H6S12848  -0.394   4.910   6.239  0.1426  1.5197  1.1947
  122OSM    H6T12849  -0.266   4.867   6.127 -1.1863  0.5394 -0.9480
  122OSM    C7S12850  -0.282   5.080   6.147 -0.2425 -0.8241  0.2542
  122OSM    H7S12851  -0.183   5.130   6.143 -1.1033  0.8905 -1.1235
  122OSM    H7T12852  -0.353   5.139   6.209  1.5460  0.5126  1.1325
  122OSM    C8S12853  -0.343   5.078   6.004  0.4392  0.4139 -0.5305
  122OSM    H8S12854  -0.435   5.017   6.006  1.8703 -1.8510 -0.2679
  122OSM    H8T12855  -0.265   5.032   5.940 -0.7334 -0.6992 -1.1929
  122OSM    C9S12856  -0.352   5.220   5.941 -0.4324 -0.5034  0.5437
  122OSM    H9S12857  -0.253   5.270   5.930 -1.0599  0.7250  0.3354
  122OSM    H9T12858  -0.416   5.287   6.001  0.5579  1.0424 -0.0509
  122OSM   C10S12859  -0.419   5.215   5.798 -0.2745 -0.0611 -0.5317
  122OSM   H10S12860  -0.454   5.319   5.782  2.3793  1.1289  0.7111
  122OSM   H10T12861  -0.503   5.145   5.819  0.6781 -0.5536  2.1161
  122OSM   C11S12862  -0.325   5.191   5.674 -0.0017 -0.0945  0.0319
  122OSM   H11S12863  -0.317   5.081   5.661  1.4864 -0.2062  1.4639
  122OSM   H11T12864  -0.224   5.230   5.701 -0.4149  1.2138 -0.2234
  122OSM   C12S12865  -0.381   5.253   5.541 -0.2205 -0.3697 -0.8436
  122OSM   H12S12866  -0.483   5.215   5.521 -0.0394 -0.6461 -1.2547
  122OSM   H12T12867  -0.319   5.213   5.458 -0.0194  1.0903 -1.4353
  122OSM   C13S12868  -0.384   5.407   5.529 -0.1517 -0.3662  0.0176
  122OSM   H13S12869  -0.284   5.455   5.539 -1.0204  2.0707 -1.8218
  122OSM   H13T12870  -0.458   5.459   5.594  1.5638 -0.2823  2.0034
  122OSM   C14S12871  -0.411   5.448   5.384 -0.2148  0.1330 -0.2216
  122OSM   H14S12872  -0.431   5.557   5.388  3.5121  0.9138  0.7016
  122OSM   H14T12873  -0.508   5.400   5.357  0.2898  0.0367 -1.9717
  122OSM   C15S12874  -0.294   5.412   5.294  0.4492  0.1917 -0.0885
  122OSM   H15S12875  -0.275   5.306   5.268  0.3619  0.3996 -1.0242
  122OSM   H15T12876  -0.194   5.454   5.319  1.4064 -0.9952 -1.7140
  122OSM   C16S12877  -0.325   5.486   5.165 -0.6320  0.2556  0.1449
  122OSM   H16S12878  -0.239   5.467   5.098 -1.3156 -1.4120 -0.3125
  122OSM   H16T12879  -0.343   5.596   5.175  1.0736  0.4707  1.3622
  122OSM   C17S12880  -0.452   5.429   5.101 -0.4907 -0.4888  0.6463
  122OSM   H17S12881  -0.542   5.443   5.164 -0.8886 -0.6245  0.1073
  122OSM   H17T12882  -0.448   5.318   5.093 -0.5963 -0.4406 -0.2182
  122OSM   C18S12883  -0.468   5.479   4.960  0.8907 -0.5567  0.4094
  122OSM   H18S12884  -0.480   5.589   4.949 -0.7686 -0.7453  0.1007
  122OSM   H18T12885  -0.555   5.435   4.907  0.5630  1.4163 -0.8259
  122OSM   H18U12886  -0.385   5.447   4.893 -1.0522  2.5925 -4.0366
  122OSM    C1F12887  -0.225   4.474   6.490 -0.1571 -0.5303 -0.2741
  122OSM     OF12888  -0.305   4.446   6.582  0.2662 -0.2896  0.6404
  122OSM    C2F12889  -0.168   4.375   6.403 -0.0989  0.2063  0.9326
  122OSM    H2F12890  -0.098   4.308   6.458 -1.7620 -0.3612  2.4622
  122OSM    H2G12891  -0.112   4.433   6.327 -1.4862  0.3683  0.0004
  122OSM    C3F12892  -0.274   4.283   6.341 -0.3545 -1.3878  0.1891
  122OSM    H3F12893  -0.359   4.349   6.315 -0.1269 -0.8277  0.8290
  122OSM    H3G12894  -0.313   4.215   6.420  0.8056 -2.6723 -0.3111
  122OSM    C4F12895  -0.218   4.199   6.224  0.3616  0.2380 -0.3752
  122OSM    H4F12896  -0.276   4.106   6.241 -2.1529  1.8944  0.5300
  122OSM    H4G12897  -0.107   4.188   6.226  0.2577 -0.8701  1.7923
  122OSM    C5F12898  -0.253   4.263   6.093  0.0081 -0.1978 -0.2978
  122OSM    H5F12899  -0.197   4.358   6.080  1.0584 -0.6379  0.9398
  122OSM    H5G12900  -0.360   4.295   6.094 -0.0754 -0.3981  2.1818
  122OSM    C6F12901  -0.236   4.171   5.972  0.5538  0.5584 -0.0826
  122OSM    H6F12902  -0.302   4.085   5.994 -2.8855  3.3309  1.3762
  122OSM    H6G12903  -0.131   4.135   5.972  0.5846  0.6464 -0.2072
  122OSM    C7F12904  -0.271   4.248   5.844  0.0637  0.4050  0.4502
  122OSM    H7F12905  -0.371   4.292   5.863 -0.7725 -0.5267 -1.5259
  122OSM    H7G12906  -0.278   4.171   5.765 -0.0591  0.6621  0.2071
  122OSM    C8F12907  -0.168   4.355   5.806 -0.1490 -0.1882 -0.4285
  122OSM    H8F12908  -0.070   4.311   5.777  1.0067  3.7763 -3.6022
  122OSM    H8G12909  -0.147   4.413   5.899 -2.7725  0.3587 -0.0890
  122OSM    C9F12910  -0.217   4.441   5.693  0.1202  0.7893  0.3279
  122OSM    H9F12911  -0.275   4.530   5.723  0.4201  1.6648 -1.5707
  122OSM   C10F12912  -0.207   4.406   5.565 -0.2459  0.3862  0.8868
  122OSM   H10F12913  -0.248   4.471   5.486 -2.8970 -1.5059  0.5666
  122OSM   C11F12914  -0.135   4.280   5.513  0.0730  0.0991  0.1622
  122OSM   H11F12915  -0.196   4.187   5.511  0.7449 -0.3894 -3.4231
  122OSM   H11G12916  -0.054   4.242   5.579 -0.1372 -0.6640 -0.0003
  122OSM   C12F12917  -0.089   4.314   5.367  0.0918 -0.5910 -0.0310
  122OSM   H12F12918  -0.027   4.225   5.344  1.0968 -0.0461  0.5127
  122OSM   H12G12919  -0.025   4.404   5.374 -1.3283  0.3996  1.0995
  122OSM   C13F12920  -0.206   4.332   5.266 -0.1116  0.3210  0.0961
  122OSM   H13F12921  -0.279   4.406   5.306  0.4239  0.2283  1.2790
  122OSM   H13G12922  -0.250   4.231   5.258  3.4246 -1.4650  1.2616
  122OSM   C14F12923  -0.169   4.369   5.127 -0.0481 -0.4346  0.5382
  122OSM   H14F12924  -0.101   4.291   5.086 -0.8932 -0.2822 -1.2609
  122OSM   H14G12925  -0.114   4.466   5.130  1.6387 -1.2543 -1.2587
  122OSM   C15F12926  -0.297   4.385   5.033 -0.0093  0.3643 -0.3575
  122OSM   H15F12927  -0.375   4.455   5.071 -0.6899 -0.2612 -0.5815
  122OSM   H15G12928  -0.349   4.287   5.027  1.4862 -0.4622 -0.3772
  122OSM   C16F12929  -0.257   4.426   4.887  0.6266  0.4553 -0.0755
  122OSM   H16F12930  -0.196   4.345   4.842 -1.6999 -1.9070  0.6966
  122OSM   H16G12931  -0.191   4.515   4.888  1.7145 -0.3107  1.6864
  122OSM   C17F12932  -0.387   4.425   4.800 -0.4561  0.0254  0.4340
  122OSM   H17F12933  -0.455   4.504   4.838  1.1757  1.7655 -0.1482
  122OSM   H17G12934  -0.428   4.322   4.797  0.5643 -0.4039 -3.0185
  122OSM   C18F12935  -0.361   4.467   4.660 -0.0154 -0.5608 -0.3933
  122OSM   H18F12936  -0.304   4.562   4.668 -0.7375 -0.0446 -1.1637
  122OSM   H18G12937  -0.454   4.491   4.606  1.7581 -0.3168 -3.5884
  122OSM   H18H12938  -0.294   4.401   4.601  1.4640 -0.4317  1.0432
  123OSM      N12939   3.524   3.092   1.925  0.4012  0.9109 -0.2751
  123OSM    C1512940   3.621   3.012   2.002 -0.0876 -0.6210 -0.2785
  123OSM   H15A12941   3.682   3.081   2.059 -0.5493  0.7882 -1.4183
  123OSM   H15B12942   3.689   2.948   1.947 -1.1583 -0.0299 -2.4295
  123OSM   H15C12943   3.568   2.950   2.072 -0.0704 -1.1709 -0.7489
  123OSM    C1412944   3.604   3.181   1.843 -0.1769  0.7830 -0.5003
  123OSM   H14A12945   3.548   3.241   1.773  0.6135  3.2662  0.8618
  123OSM   H14B12946   3.678   3.122   1.791 -0.7008 -2.3828  2.0206
  123OSM   H14C12947   3.648   3.260   1.902 -0.7738  0.1720  0.8078
  123OSM    C1312948   3.455   2.988   1.836  0.2062 -0.4925 -0.5847
  123OSM   H13A12949   3.393   3.043   1.766 -3.2031 -2.7551  0.4276
  123OSM   H13B12950   3.401   2.911   1.889  1.4869 -1.4026 -0.5579
  123OSM   H13C12951   3.526   2.942   1.769  1.3908 -0.2627  0.4776
  123OSM    C1212952   3.438   3.171   2.019  0.3044 -0.1395  0.2834
  123OSM   H12A12953   3.364   3.228   1.966  0.4745  2.3802  2.5463
  123OSM   H12B12954   3.495   3.250   2.065  0.1213  0.8298 -1.0911
  123OSM    C1112955   3.348   3.094   2.118  0.0463 -0.2327  0.2947
  123OSM   H11A12956   3.286   3.166   2.174  0.0238  0.5506 -0.7097
  123OSM   H11B12957   3.422   3.051   2.189  2.3695 -0.4663 -2.0969
  123OSM      P12958   3.138   3.037   1.978  0.0585  0.1310 -0.3521
  123OSM    O1312959   3.165   3.166   1.907 -0.3004  0.6807 -0.1610
  123OSM    O1412960   3.091   2.922   1.897 -0.0028  0.8132  0.4021
  123OSM    O1112961   3.043   3.072   2.100  0.3620 -0.6748  0.7015
  123OSM    O1212962   3.264   2.991   2.053  0.2678  0.2106  0.1712
  123OSM    C1S12963   3.035   2.991   2.216  0.6055 -0.4152  0.1710
  123OSM    H1S12964   3.103   2.903   2.204 -1.3305 -2.4865  2.9374
  123OSM    H1T12965   2.928   2.962   2.217 -0.4247  2.9609 -0.3677
  123OSM     NF12966   3.063   2.974   2.469 -0.7675 -0.0387  0.2187
  123OSM    HNF12967   2.978   2.971   2.520 -0.9897  0.8932 -0.0795
  123OSM    C2S12968   3.060   3.071   2.353  0.2579 -0.0085 -0.3573
  123OSM    H2S12969   3.157   3.125   2.349  0.6840 -0.3578  2.7070
  123OSM    C3S12970   2.954   3.193   2.367 -0.1456 -0.0504 -0.6274
  123OSM    H3S12971   2.850   3.153   2.368 -1.3851  2.8735  0.8834
  123OSM     O312972   2.957   3.291   2.260  0.1991  0.7604 -0.4900
  123OSM    HO312973   3.014   3.237   2.204  0.0278  1.1002 -0.9994
  123OSM    C4S12974   2.962   3.265   2.499 -0.4312  0.5295 -0.5443
  123OSM    H4S12975   2.880   3.233   2.565 -0.3459  1.9016  0.2592
  123OSM    C5S12976   3.040   3.361   2.548  0.5801  0.5789 -0.3573
  123OSM    H5S12977   3.113   3.415   2.485  3.7452 -0.3210  2.2329
  123OSM    C6S12978   3.009   3.443   2.677 -0.2384  0.3174  0.0994
  123OSM    H6S12979   2.917   3.505   2.669 -0.9842 -0.7318  0.3117
  123OSM    H6T12980   3.095   3.510   2.698 -0.0839  0.7533 -1.7914
  123OSM    C7S12981   2.983   3.345   2.802  0.1772 -0.1202 -0.2604
  123OSM    H7S12982   3.059   3.266   2.819  0.8777  0.6997  0.6245
  123OSM    H7T12983   2.888   3.289   2.798  0.8618 -1.2131 -1.6356
  123OSM    C8S12984   2.978   3.432   2.919  0.0485  0.0743  0.2455
  123OSM    H8S12985   2.902   3.512   2.911  0.6669  0.5530 -1.1333
  123OSM    H8T12986   3.070   3.486   2.950 -2.9439  3.8021  3.7618
  123OSM    C9S12987   2.946   3.356   3.050 -0.2046  0.5663 -0.1280
  123OSM    H9S12988   3.028   3.282   3.061  0.2129  0.7857 -1.5934
  123OSM    H9T12989   2.853   3.296   3.045  0.4057 -0.6394  1.7386
  123OSM   C10S12990   2.941   3.458   3.165 -0.4252  0.1695 -0.4037
  123OSM   H10S12991   2.846   3.516   3.168 -0.2439  0.4347  1.7018
  123OSM   H10T12992   3.024   3.530   3.153 -1.5365  0.9991 -4.8314
  123OSM   C11S12993   2.946   3.390   3.301  0.2631 -0.1939 -0.2849
  123OSM   H11S12994   3.016   3.304   3.304 -1.4619 -1.6686 -0.8748
  123OSM   H11T12995   2.842   3.353   3.313 -1.4109  4.0081  0.1002
  123OSM   C12S12996   2.998   3.475   3.417  0.2142  0.3497 -0.2714
  123OSM   H12S12997   2.942   3.570   3.427  0.3494  0.4931 -0.8309
  123OSM   H12T12998   3.104   3.504   3.404 -0.3590  1.9815 -1.6580
  123OSM   C13S12999   2.992   3.395   3.554 -0.3731  0.3281  0.2990
  123OSM   H13S13000   3.062   3.310   3.539 -0.9242 -0.0581 -0.1353
  123OSM   H13T13001   2.893   3.346   3.568 -0.3729  0.0331 -0.6847
  123OSM   C14S13002   3.042   3.472   3.673  0.4154 -0.2488 -1.1976
  123OSM   H14S13003   3.145   3.509   3.655  0.4395  1.3089  1.6125
  123OSM   H14T13004   3.044   3.419   3.770 -0.7139  1.5596 -0.1329
  123OSM   C15S13005   2.959   3.596   3.713 -0.2377 -0.9487  0.0290
  123OSM   H15S13006   2.949   3.647   3.614  1.2622 -0.9604 -0.1498
  123OSM   H15T13007   3.010   3.667   3.781 -2.7163  1.4169 -0.4039
  123OSM   C16S13008   2.817   3.562   3.762 -0.0916  0.0990  0.3975
  123OSM   H16S13009   2.781   3.470   3.710  0.0225  1.6628 -2.6654
  123OSM   H16T13010   2.757   3.647   3.723  1.9533  1.4688  0.0722
  123OSM   C17S13011   2.810   3.537   3.913 -0.0973 -0.2449 -0.1156
  123OSM   H17S13012   2.851   3.619   3.975  0.4856  0.0801 -0.9048
  123OSM   H17T13013   2.854   3.441   3.946  0.2434 -0.7041 -1.7716
  123OSM   C18S13014   2.661   3.532   3.967  0.6218 -0.0497  0.0235
  123OSM   H18S13015   2.655   3.517   4.077 -1.5640  1.2783  0.1620
  123OSM   H18T13016   2.610   3.447   3.918  1.8687  0.7773 -2.9570
  123OSM   H18U13017   2.611   3.627   3.937 -2.0226 -1.4358 -0.1904
  123OSM    C1F13018   3.168   2.891   2.482  0.0853 -0.5034  0.0170
  123OSM     OF13019   3.262   2.866   2.401  0.1379  0.0920 -0.4967
  123OSM    C2F13020   3.157   2.803   2.599  0.4891  0.0396  0.3143
  123OSM    H2F13021   3.251   2.747   2.613  1.0336  0.9957  0.5362
  123OSM    H2G13022   3.075   2.733   2.571  0.9295  0.3341 -1.9062
  123OSM    C3F13023   3.117   2.880   2.729 -0.2142  0.3114 -0.1391
  123OSM    H3F13024   3.012   2.917   2.732  0.1837  1.4342  0.7002
  123OSM    H3G13025   3.182   2.971   2.723  0.2088  0.0168 -0.0615
  123OSM    C4F13026   3.149   2.805   2.857 -0.2534 -0.1916  0.0523
  123OSM    H4F13027   3.258   2.785   2.861 -0.2031  0.0172 -0.2197
  123OSM    H4G13028   3.092   2.710   2.854 -1.7326  0.6465  0.3552
  123OSM    C5F13029   3.125   2.865   2.993  0.4893  0.3289 -0.2502
  123OSM    H5F13030   3.016   2.882   3.000  0.6743  1.3280  0.4201
  123OSM    H5G13031   3.168   2.968   2.991 -1.2180  1.1000 -3.9496
  123OSM    C6F13032   3.185   2.774   3.095 -0.8090 -0.2954  0.1226
  123OSM    H6F13033   3.286   2.737   3.068 -0.5002 -0.2695  1.1905
  123OSM    H6G13034   3.127   2.678   3.090 -0.7562 -0.2885 -0.6896
  123OSM    C7F13035   3.182   2.836   3.238 -0.3918  0.1754 -0.4129
  123OSM    H7F13036   3.077   2.871   3.245 -0.1628  1.2728 -2.0195
  123OSM    H7G13037   3.242   2.929   3.251  0.9289 -0.8750  1.6446
  123OSM    C8F13038   3.234   2.734   3.337 -1.0130 -0.3285  0.7566
  123OSM    H8F13039   3.275   2.780   3.429 -0.4109  1.0057 -0.1435
  123OSM    H8G13040   3.321   2.689   3.285 -0.6547  1.1026  0.0399
  123OSM    C9F13041   3.120   2.636   3.379  0.7735 -0.0228 -0.6403
  123OSM    H9F13042   3.080   2.565   3.305  0.1863 -2.4990  1.8770
  123OSM   C10F13043   3.063   2.621   3.500 -0.4168 -0.9022  0.4108
  123OSM   H10F13044   2.979   2.552   3.516 -2.4000  1.1913 -0.3457
  123OSM   C11F13045   3.102   2.694   3.628  0.6734  0.2320  0.4238
  123OSM   H11F13046   3.190   2.759   3.610  1.2993 -0.7767 -0.2377
  123OSM   H11G13047   3.133   2.610   3.694 -1.8595 -1.8124 -0.7822
  123OSM   C12F13048   2.993   2.784   3.688 -0.2324 -0.6801 -0.1694
  123OSM   H12F13049   2.926   2.719   3.749 -1.3357  1.7614  1.3441
  123OSM   H12G13050   2.947   2.858   3.619 -0.5596  1.7149  2.4457
  123OSM   C13F13051   3.054   2.864   3.810 -0.1050 -0.2727 -0.4751
  123OSM   H13F13052   3.137   2.926   3.769 -0.6402  2.0395  1.7135
  123OSM   H13G13053   3.102   2.788   3.875  1.7783 -0.4986 -2.0177
  123OSM   C14F13054   2.960   2.957   3.878  0.0632 -0.7237 -0.4943
  123OSM   H14F13055   2.876   2.997   3.817 -0.6190  1.7855  1.9339
  123OSM   H14G13056   3.019   3.043   3.914  1.6552 -1.5566 -0.9988
  123OSM   C15F13057   2.908   2.893   4.006  0.4535 -0.6814  0.0600
  123OSM   H15F13058   2.996   2.852   4.060 -0.2659 -2.9115 -0.3750
  123OSM   H15G13059   2.842   2.807   3.986 -0.4307 -0.0288  0.1230
  123OSM   C16F13060   2.848   2.995   4.100 -0.1917  0.3072  0.3577
  123OSM   H16F13061   2.744   3.031   4.082 -0.9688 -0.9441  2.0088
  123OSM   H16G13062   2.907   3.089   4.100 -0.1245  0.2821  1.3903
  123OSM   C17F13063   2.849   2.958   4.247 -0.6204 -0.9283  0.6272
  123OSM   H17F13064   2.957   2.934   4.253 -0.3891 -0.6560 -1.6018
  123OSM   H17G13065   2.794   2.862   4.257 -0.4355 -1.0733  0.2284
  123OSM   C18F13066   2.788   3.059   4.348  0.1823  0.1583  0.6184
  123OSM   H18F13067   2.779   3.012   4.448 -1.3569  0.5482  0.6875
  123OSM   H18G13068   2.694   3.099   4.304  1.0134 -0.9728 -2.3888
  123OSM   H18H13069   2.860   3.143   4.360 -0.2166  0.9279 -1.8390
  124OSM      N13070   3.646   4.284   1.752  0.3117 -0.6134  0.3187
  124OSM    C1513071   3.525   4.225   1.684 -0.3476  0.9735  0.4384
  124OSM   H15A13072   3.523   4.118   1.701 -3.3521  0.5200 -1.8035
  124OSM   H15B13073   3.518   4.229   1.576 -0.2944  0.2709  0.4015
  124OSM   H15C13074   3.432   4.259   1.726 -1.5438  0.8921 -1.9553
  124OSM    C1413075   3.776   4.211   1.716 -0.1332 -0.0780 -0.7609
  124OSM   H14A13076   3.862   4.267   1.752  1.5853 -1.6747 -2.2103
  124OSM   H14B13077   3.774   4.211   1.608 -1.7988 -1.0202 -0.7663
  124OSM   H14C13078   3.785   4.107   1.743  1.1660 -0.6703 -3.1978
  124OSM    C1313079   3.660   4.433   1.699 -0.6833  0.0710  0.0051
  124OSM   H13A13080   3.668   4.439   1.592  1.7338 -0.0349  0.1238
  124OSM   H13B13081   3.746   4.483   1.741  0.5794 -2.0083  0.0545
  124OSM   H13C13082   3.572   4.491   1.724 -1.1104  0.3953 -2.0722
  124OSM    C1213083   3.625   4.291   1.901 -0.5227 -0.4843 -0.1214
  124OSM   H12A13084   3.590   4.196   1.937 -3.7346  0.3079 -0.8623
  124OSM   H12B13085   3.557   4.373   1.921  2.0349  1.9905 -0.8441
  124OSM    C1113086   3.749   4.334   1.994  0.2144 -0.0051 -0.2833
  124OSM   H11A13087   3.833   4.262   1.987  1.6805  1.7002 -0.7443
  124OSM   H11B13088   3.704   4.332   2.096 -2.0110 -2.5574 -1.1766
  124OSM      P13089   3.844   4.582   2.056 -0.2836  0.0947  0.4454
  124OSM    O1313090   3.945   4.663   1.982  0.3840 -0.0040 -0.1197
  124OSM    O1413091   3.732   4.663   2.102  0.1754 -0.8640 -0.7052
  124OSM    O1113092   3.907   4.499   2.175  0.4812 -0.1065  0.4322
  124OSM    O1213093   3.793   4.468   1.959 -0.2423  0.2016 -0.1936
  124OSM    C1S13094   3.977   4.573   2.275  0.1933 -0.4961 -0.6173
  124OSM    H1S13095   3.906   4.648   2.316 -0.8382 -0.9156 -1.5752
  124OSM    H1T13096   4.064   4.624   2.228  0.8768 -0.5917  0.5119
  124OSM     NF13097   4.119   4.550   2.466 -0.2731 -0.0204 -0.2139
  124OSM    HNF13098   4.214   4.521   2.467  0.6204  2.7129  1.0793
  124OSM    C2S13099   4.026   4.479   2.385  0.0954  0.4354  0.7272
  124OSM    H2S13100   3.937   4.445   2.441 -2.2377 -0.0369 -2.9048
  124OSM    C3S13101   4.075   4.343   2.321  0.0407 -0.1554 -0.0841
  124OSM    H3S13102   4.152   4.375   2.248  0.4637 -0.7279  0.1059
  124OSM     O313103   3.980   4.275   2.237  0.8554  0.1278 -0.4420
  124OSM    HO313104   3.928   4.354   2.219 -0.0468 -0.5674 -0.9833
  124OSM    C4S13105   4.136   4.240   2.412  0.1570  0.4800 -0.2733
  124OSM    H4S13106   4.245   4.248   2.411  0.1778  0.1635 -1.3471
  124OSM    C5S13107   4.068   4.153   2.498  0.2196 -0.3884  0.0322
  124OSM    H5S13108   3.958   4.153   2.504  0.2746 -1.0971  1.6270
  124OSM    C6S13109   4.135   4.058   2.598 -0.8176  0.1560  0.1035
  124OSM    H6S13110   4.241   4.041   2.570 -1.3272  0.6761 -2.3529
  124OSM    H6T13111   4.089   3.957   2.591  1.1556 -0.8653  1.0194
  124OSM    C7S13112   4.116   4.102   2.736 -0.1168  0.1778 -0.4779
  124OSM    H7S13113   4.009   4.125   2.753  0.0242  0.4764  0.0472
  124OSM    H7T13114   4.159   4.203   2.756  0.1947 -0.0061 -0.2179
  124OSM    C8S13115   4.162   4.005   2.841 -0.0376 -0.9541 -0.1077
  124OSM    H8S13116   4.270   3.983   2.852  0.1146 -0.1400  0.0818
  124OSM    H8T13117   4.111   3.908   2.825  0.6644 -1.9028  2.8744
  124OSM    C9S13118   4.105   4.039   2.980  0.4237 -0.1261  0.2110
  124OSM    H9S13119   4.006   4.088   2.967  1.8911  2.4169 -2.8339
  124OSM    H9T13120   4.175   4.102   3.039  0.9384 -0.3626 -0.1460
  124OSM   C10S13121   4.094   3.916   3.073 -0.4858  0.3747 -0.3182
  124OSM   H10S13122   4.200   3.881   3.071 -1.1907 -1.9029 -0.5727
  124OSM   H10T13123   4.033   3.844   3.015  1.0474 -0.9668 -0.3314
  124OSM   C11S13124   4.036   3.948   3.216  0.3875 -0.3426 -0.0022
  124OSM   H11S13125   4.006   3.851   3.262  0.1735 -0.1047  0.3665
  124OSM   H11T13126   3.940   4.004   3.211  0.7652  0.2864 -0.2275
  124OSM   C12S13127   4.124   4.030   3.300 -0.1446  0.3026  0.6986
  124OSM   H12S13128   4.139   4.129   3.252  0.0314 -0.2291 -0.3691
  124OSM   H12T13129   4.217   3.972   3.320  0.4737  0.6395 -1.0157
  124OSM   C13S13130   4.063   4.071   3.432  0.0144 -0.1657  0.1203
  124OSM   H13S13131   4.022   3.981   3.483 -0.4515 -0.8267 -1.3477
  124OSM   H13T13132   3.974   4.137   3.417  0.4490  0.2521 -0.7155
  124OSM   C14S13133   4.151   4.151   3.533 -0.7193 -0.0967  0.0634
  124OSM   H14S13134   4.094   4.169   3.626  0.1125  0.6856  0.4331
  124OSM   H14T13135   4.159   4.249   3.481  0.6254 -1.0562 -1.6602
  124OSM   C15S13136   4.295   4.089   3.548  0.5593 -0.1945  0.3699
  124OSM   H15S13137   4.349   4.154   3.620 -1.6120  2.0856  0.0853
  124OSM   H15T13138   4.344   4.096   3.448 -0.0594  0.1500  0.0814
  124OSM   C16S13139   4.299   3.941   3.594 -0.0651 -0.0143  0.5031
  124OSM   H16S13140   4.395   3.888   3.581 -0.3001 -0.3327  0.0370
  124OSM   H16T13141   4.219   3.890   3.535 -1.4680  3.4110 -0.8037
  124OSM   C17S13142   4.261   3.914   3.746 -0.1702 -0.0475  0.0567
  124OSM   H17S13143   4.160   3.956   3.765 -0.4063 -1.0155  1.0699
  124OSM   H17T13144   4.328   3.971   3.814 -0.4800 -0.9427  1.1508
  124OSM   C18S13145   4.250   3.772   3.782  0.4342 -0.0974 -0.2300
  124OSM   H18S13146   4.195   3.759   3.878 -0.4244  1.4636 -0.4804
  124OSM   H18T13147   4.355   3.734   3.789  0.1789 -0.9976 -1.0336
  124OSM   H18U13148   4.197   3.726   3.696  2.2102  1.0495 -2.0174
  124OSM    C1F13149   4.087   4.660   2.531  0.0872 -0.7374 -0.4032
  124OSM     OF13150   3.966   4.696   2.543 -0.7469 -0.1228 -0.3661
  124OSM    C2F13151   4.196   4.725   2.610  0.7999 -0.3200  0.1599
  124OSM    H2F13152   4.228   4.816   2.555 -2.8614  0.8858 -0.2450
  124OSM    H2G13153   4.277   4.648   2.618 -0.4535 -1.6521  0.4323
  124OSM    C3F13154   4.134   4.777   2.741  0.4354 -0.3576  0.2250
  124OSM    H3F13155   4.070   4.703   2.793  0.6291  0.0262  1.0183
  124OSM    H3G13156   4.067   4.864   2.727 -0.0406 -0.6257  0.7645
  124OSM    C4F13157   4.240   4.824   2.840  0.4455 -0.4451 -0.0255
  124OSM    H4F13158   4.313   4.900   2.804 -0.2190  0.6265  0.8253
  124OSM    H4G13159   4.291   4.731   2.875 -1.1032 -0.7643  1.5516
  124OSM    C5F13160   4.170   4.888   2.972 -0.0479  0.1740  0.4123
  124OSM    H5F13161   4.116   4.805   3.024 -0.2124 -1.4859 -2.1969
  124OSM    H5G13162   4.099   4.969   2.944  0.1538  0.5231  0.9087
  124OSM    C6F13163   4.265   4.951   3.071  0.2551 -0.0391 -0.0012
  124OSM    H6F13164   4.207   4.990   3.157 -2.7035 -1.4423 -1.2101
  124OSM    H6G13165   4.297   5.043   3.017 -3.6254  1.4016 -0.2074
  124OSM    C7F13166   4.382   4.871   3.108 -0.1763  1.0138 -0.3280
  124OSM    H7F13167   4.454   4.858   3.024  1.1532 -2.1678  1.1234
  124OSM    H7G13168   4.337   4.771   3.122 -1.4447  1.8887  2.4028
  124OSM    C8F13169   4.462   4.912   3.233  0.2408  0.2609  0.5117
  124OSM    H8F13170   4.383   4.953   3.300 -0.6198  0.9174 -0.8552
  124OSM    H8G13171   4.529   4.998   3.211 -0.4153  0.5507 -0.3728
  124OSM    C9F13172   4.541   4.810   3.304 -0.2693 -0.3369  0.0604
  124OSM    H9F13173   4.518   4.709   3.267  0.7695  0.0149 -1.6102
  124OSM   C10F13174   4.633   4.818   3.396  0.6711 -0.5610 -0.9067
  124OSM   H10F13175   4.672   4.727   3.445 -1.1567 -0.7500  0.2866
  124OSM   C11F13176   4.664   4.951   3.462 -0.6312  0.0701  0.1282
  124OSM   H11F13177   4.603   5.032   3.417 -0.9199 -0.7522 -0.9916
  124OSM   H11G13178   4.772   4.974   3.467 -0.9828  1.6573  2.0786
  124OSM   C12F13179   4.640   4.921   3.611 -0.2074 -0.2026 -0.2449
  124OSM   H12F13180   4.697   4.834   3.652 -1.3740 -0.9333 -0.1115
  124OSM   H12G13181   4.533   4.898   3.634 -0.0827  0.2873  0.8634
  124OSM   C13F13182   4.663   5.044   3.703  0.6045  0.5199 -0.2338
  124OSM   H13F13183   4.603   5.132   3.668  1.2240  1.1926  0.3633
  124OSM   H13G13184   4.770   5.071   3.693  1.2545 -1.7956  0.0636
  124OSM   C14F13185   4.644   5.014   3.853  0.1230  0.2647 -0.5069
  124OSM   H14F13186   4.654   4.905   3.872  0.5512  0.3154 -0.4463
  124OSM   H14G13187   4.536   5.027   3.877  0.3254  0.6174  0.2661
  124OSM   C15F13188   4.728   5.091   3.950  0.1045 -0.0122  0.4079
  124OSM   H15F13189   4.739   5.199   3.925  1.5927 -0.4574 -0.9911
  124OSM   H15G13190   4.829   5.050   3.931  0.0730  0.1949 -0.2404
  124OSM   C16F13191   4.696   5.078   4.096 -0.0104 -0.6738  0.1879
  124OSM   H16F13192   4.724   4.974   4.125  2.6001 -0.5077 -1.4181
  124OSM   H16G13193   4.592   5.099   4.126  0.2049  1.4328 -0.3589
  124OSM   C17F13194   4.783   5.177   4.179 -0.3444  0.1291  0.2672
  124OSM   H17F13195   4.754   5.280   4.150  2.5780  0.7367 -0.9332
  124OSM   H17G13196   4.891   5.167   4.155 -0.1790 -0.0393  1.0563
  124OSM   C18F13197   4.779   5.162   4.329  0.4335  0.8058  0.1031
  124OSM   H18F13198   4.674   5.163   4.367  1.0825  1.0870  2.0203
  124OSM   H18G13199   4.829   5.247   4.379 -0.9914  1.2601  0.8262
  124OSM   H18H13200   4.819   5.069   4.375 -0.1665  0.6527  0.3297
  125OSM      N13201   4.793   0.162   1.816 -0.4704  0.2238  0.0503
  125OSM    C1513202   4.655   0.104   1.847  0.5793 -0.3302  0.4055
  125OSM   H15A13203   4.614   0.158   1.931 -0.4484 -0.1771 -0.1641
  125OSM   H15B13204   4.659  -0.001   1.874 -0.0636 -0.5056 -0.1449
  125OSM   H15C13205   4.592   0.108   1.759  0.6000 -0.2738  0.3931
  125OSM    C1413206   4.866   0.094   1.703  0.8701  0.1359 -0.1536
  125OSM   H14A13207   4.812   0.129   1.616 -0.0658  1.5584  0.9679
  125OSM   H14B13208   4.871  -0.014   1.705 -1.0056 -0.1274 -2.9488
  125OSM   H14C13209   4.968   0.127   1.700  0.7185  0.5864 -0.5339
  125OSM    C1313210   4.765   0.304   1.774  0.2881 -1.3135  0.0393
  125OSM   H13A13211   4.708   0.314   1.682  0.1500  2.8515  0.3952
  125OSM   H13B13212   4.858   0.354   1.754 -1.0838  0.9833 -1.0431
  125OSM   H13C13213   4.705   0.362   1.843 -0.2368 -2.0982  0.2574
  125OSM    C1213214   4.884   0.156   1.934 -0.3471  0.5711 -0.4749
  125OSM   H12A13215   4.840   0.228   2.001 -1.7943 -1.6831  1.1403
  125OSM   H12B13216   4.979   0.192   1.896  0.8439  0.3077  2.0295
  125OSM    C1113217   4.931   0.029   2.016  0.1285 -0.3479 -0.2780
  125OSM   H11A13218   4.835  -0.027   2.026  0.3889 -0.8590 -0.6001
  125OSM   H11B13219   4.971   0.056   2.116  0.3937  0.7972 -0.6772
  125OSM      P13220   5.014  -0.191   1.901 -0.2849  0.0863  0.2523
  125OSM    O1313221   4.921  -0.202   1.789  0.2260 -0.0723  0.2530
  125OSM    O1413222   5.145  -0.255   1.889  0.0998  0.2289 -0.1330
  125OSM    O1113223   4.941  -0.260   2.025  0.2024 -0.3853 -0.1396
  125OSM    O1213224   5.033  -0.038   1.944 -0.4806  0.3163 -0.1731
  125OSM    C1S13225   4.994  -0.271   2.155 -0.4365  0.4333  0.3074
  125OSM    H1S13226   5.097  -0.229   2.163 -0.6650  0.9524  0.5963
  125OSM    H1T13227   5.016  -0.377   2.178  4.5115  1.3856  1.2051
  125OSM     NF13228   4.967  -0.250   2.385  0.0275 -0.0131 -0.4244
  125OSM    HNF13229   4.933  -0.328   2.437 -0.6117  0.9151  0.5750
  125OSM    C2S13230   4.906  -0.215   2.261  0.4759 -0.0466 -0.1067
  125OSM    H2S13231   4.909  -0.104   2.250  0.2110 -0.0272  0.0110
  125OSM    C3S13232   4.759  -0.266   2.243  0.5937 -0.5648 -0.0636
  125OSM    H3S13233   4.746  -0.377   2.246 -3.2046 -0.2530  2.2656
  125OSM     O313234   4.693  -0.238   2.115 -0.2105  0.1925 -0.3510
  125OSM    HO313235   4.776  -0.234   2.068 -0.6436 -0.3045 -1.1893
  125OSM    C4S13236   4.675  -0.216   2.361  0.7013  0.2868  0.2428
  125OSM    H4S13237   4.675  -0.106   2.371 -0.8752  0.7592 -3.3190
  125OSM    C5S13238   4.623  -0.296   2.457  0.7248  0.4279 -0.1664
  125OSM    H5S13239   4.638  -0.404   2.470 -3.3622 -0.4739 -1.5906
  125OSM    C6S13240   4.566  -0.237   2.581 -0.1541 -0.7758 -0.0435
  125OSM    H6S13241   4.456  -0.247   2.593 -0.2130  0.6992  0.9950
  125OSM    H6T13242   4.586  -0.128   2.594 -0.3450 -0.9066  1.7117
  125OSM    C7S13243   4.636  -0.295   2.711  0.5000 -0.8318  0.3220
  125OSM    H7S13244   4.743  -0.315   2.692 -0.0693 -4.4938  0.3172
  125OSM    H7T13245   4.596  -0.394   2.742  0.7858 -1.1452 -0.2990
  125OSM    C8S13246   4.618  -0.203   2.838 -0.3529  0.3431  0.7839
  125OSM    H8S13247   4.508  -0.194   2.856 -0.2720  0.8969  1.0505
  125OSM    H8T13248   4.650  -0.099   2.814 -0.1253  0.2756  0.7941
  125OSM    C9S13249   4.672  -0.271   2.967 -0.3946 -0.3305  0.0670
  125OSM    H9S13250   4.783  -0.272   2.964 -0.3146  0.4699  1.6466
  125OSM    H9T13251   4.636  -0.376   2.973 -0.2576 -0.3746  0.1124
  125OSM   C10S13252   4.626  -0.195   3.092 -0.0737  0.2044  0.8454
  125OSM   H10S13253   4.521  -0.165   3.075  0.1172  1.0172  1.0400
  125OSM   H10T13254   4.675  -0.097   3.106 -2.3237  1.6283 -0.6208
  125OSM   C11S13255   4.651  -0.285   3.214  0.0045 -0.1278  0.2967
  125OSM   H11S13256   4.760  -0.306   3.209  0.2619  1.3232 -1.3350
  125OSM   H11T13257   4.601  -0.384   3.205  1.1299 -0.5989 -1.3472
  125OSM   C12S13258   4.610  -0.228   3.355 -0.8004  0.7852  0.6118
  125OSM   H12S13259   4.503  -0.198   3.355 -0.5393  1.7596  1.3888
  125OSM   H12T13260   4.671  -0.137   3.372 -0.6796  0.4840  1.9054
  125OSM   C13S13261   4.638  -0.324   3.470  1.0271  0.2864  0.6409
  125OSM   H13S13262   4.748  -0.333   3.454  0.7012 -1.5483 -0.8573
  125OSM   H13T13263   4.593  -0.423   3.449  0.0382  0.5311  1.5140
  125OSM   C14S13264   4.604  -0.264   3.605  0.2749  1.0174 -0.2560
  125OSM   H14S13265   4.494  -0.256   3.613 -0.2699 -2.7277 -1.7667
  125OSM   H14T13266   4.639  -0.160   3.619 -2.4641  2.0281 -0.2866
  125OSM   C15S13267   4.648  -0.362   3.721  0.2681  0.3527 -0.0304
  125OSM   H15S13268   4.753  -0.395   3.707  1.3773  3.8449 -1.0748
  125OSM   H15T13269   4.576  -0.446   3.707  0.2207  0.1173  1.4594
  125OSM   C16S13270   4.608  -0.316   3.863 -0.3990  0.8419 -0.2988
  125OSM   H16S13271   4.703  -0.269   3.897  1.6119 -1.7890 -1.9545
  125OSM   H16T13272   4.590  -0.403   3.929  2.3053 -1.3219 -2.1620
  125OSM   C17S13273   4.492  -0.214   3.869 -0.7226 -0.4916  0.0255
  125OSM   H17S13274   4.411  -0.263   3.811  0.4188 -2.1360 -0.2675
  125OSM   H17T13275   4.517  -0.113   3.830  4.0954 -0.8319  1.6086
  125OSM   C18S13276   4.443  -0.186   4.012  0.0680 -0.2487  0.2653
  125OSM   H18S13277   4.408  -0.278   4.063 -1.9784 -0.3077 -1.1393
  125OSM   H18T13278   4.354  -0.121   4.001 -0.3484 -0.5167  1.7994
  125OSM   H18U13279   4.520  -0.144   4.080  0.8892 -2.5823  0.8804
  125OSM    C1F13280   5.069  -0.186   2.441  0.9237  0.7672  0.4956
  125OSM     OF13281   5.110  -0.087   2.376 -0.0064  0.3025 -0.3546
  125OSM    C2F13282   5.120  -0.235   2.568  0.0733 -0.5184  0.3105
  125OSM    H2F13283   5.215  -0.293   2.567  0.0326 -0.5851  0.2678
  125OSM    H2G13284   5.043  -0.303   2.611  0.2658 -2.0326 -1.5968
  125OSM    C3F13285   5.149  -0.124   2.660  0.0447 -0.0688 -0.3001
  125OSM    H3F13286   5.125  -0.023   2.620  0.0422 -0.0526 -0.2574
  125OSM    H3G13287   5.260  -0.123   2.660  0.0783  0.1496  1.9260
  125OSM    C4F13288   5.105  -0.144   2.809  0.9350  0.2556  0.5999
  125OSM    H4F13289   5.143  -0.242   2.846 -1.2845 -0.4995  1.0264
  125OSM    H4G13290   4.995  -0.154   2.804  0.8884  0.6810  0.7226
  125OSM    C5F13291   5.139  -0.026   2.898 -0.4996  0.5575 -0.2124
  125OSM    H5F13292   5.077   0.060   2.863 -0.0997  0.5954 -0.8532
  125OSM    H5G13293   5.247  -0.001   2.895  0.2178 -1.6592  2.9389
  125OSM    C6F13294   5.095  -0.060   3.043 -0.3045 -0.5273  0.4256
  125OSM    H6F13295   5.150  -0.149   3.080 -1.3975 -0.7048  1.6999
  125OSM    H6G13296   4.986  -0.077   3.037 -0.4254  0.5493 -1.2843
  125OSM    C7F13297   5.124   0.048   3.145  0.0591 -0.1361 -0.2704
  125OSM    H7F13298   5.084   0.144   3.107  1.8850  2.1904  3.1852
  125OSM    H7G13299   5.231   0.058   3.171  0.1628 -1.1241 -0.2869
  125OSM    C8F13300   5.054   0.024   3.283 -0.6950 -0.0955  0.3159
  125OSM    H8F13301   4.955  -0.021   3.260 -0.4865 -1.1453  1.3523
  125OSM    H8G13302   5.023   0.116   3.337  0.5322  1.0293 -0.8488
  125OSM    C9F13303   5.143  -0.073   3.368  0.4837  0.0383  0.0946
  125OSM    H9F13304   5.139  -0.182   3.352 -1.6800 -0.3416  2.5993
  125OSM   C10F13305   5.224  -0.028   3.460 -0.3123  0.5707 -0.4335
  125OSM   H10F13306   5.281  -0.107   3.511  1.5122 -0.0955 -3.2494
  125OSM   C11F13307   5.263   0.119   3.494  0.0366  0.3714  0.2193
  125OSM   H11F13308   5.226   0.191   3.418  0.7805  0.4079 -0.1087
  125OSM   H11G13309   5.374   0.124   3.492  0.1002  1.8246  2.8226
  125OSM   C12F13310   5.207   0.162   3.631  0.3753  0.0011  0.4857
  125OSM   H12F13311   5.240   0.082   3.701  1.3168 -0.6197 -0.6304
  125OSM   H12G13312   5.096   0.153   3.627  0.3343 -0.9221  2.4351
  125OSM   C13F13313   5.256   0.299   3.676 -0.0667 -0.2687  0.6350
  125OSM   H13F13314   5.227   0.379   3.605  0.6205 -0.7144 -0.1762
  125OSM   H13G13315   5.367   0.303   3.684 -0.0404  0.6604 -0.0620
  125OSM   C14F13316   5.191   0.328   3.812 -0.0468  0.5039  0.9675
  125OSM   H14F13317   5.215   0.242   3.879 -0.5467  0.4836  1.1226
  125OSM   H14G13318   5.082   0.345   3.797 -0.7311 -2.8418  1.2197
  125OSM   C15F13319   5.254   0.451   3.878 -0.4543  0.2414  0.1325
  125OSM   H15F13320   5.257   0.527   3.797 -2.3782  1.1902  0.8708
  125OSM   H15G13321   5.359   0.434   3.911 -0.2913  1.5980  0.3719
  125OSM   C16F13322   5.182   0.499   4.006  0.4532  0.5246  0.1699
  125OSM   H16F13323   5.072   0.508   3.993  0.4175  1.3680  0.9746
  125OSM   H16G13324   5.208   0.605   4.025  0.3594  0.6558 -0.4046
  125OSM   C17F13325   5.216   0.420   4.135  0.3372 -0.1830  0.8173
  125OSM   H17F13326   5.320   0.382   4.123  0.9983  2.3764 -3.1035
  125OSM   H17G13327   5.150   0.331   4.145  1.9889 -1.6751 -0.7957
  125OSM   C18F13328   5.205   0.512   4.254 -0.1807  0.0961  0.4254
  125OSM   H18F13329   5.103   0.545   4.283  0.4525  0.2146  2.7015
  125OSM   H18G13330   5.267   0.599   4.225  0.3449 -0.5518 -0.4544
  125OSM   H18H13331   5.240   0.460   4.346  0.3758 -0.8189 -0.2795
  126OSM      N13332   3.693   2.560   2.090 -0.7456  0.2390 -0.1447
  126OSM    C1513333   3.765   2.442   2.034  0.9160  0.4631  0.9720
  126OSM   H15A13334   3.837   2.471   1.959 -0.3136 -2.7795 -1.7653
  126OSM   H15B13335   3.697   2.382   1.974 -0.8888  1.4636  1.9234
  126OSM   H15C13336   3.814   2.377   2.105  1.6545 -0.8662 -0.6853
  126OSM    C1413337   3.780   2.635   2.183 -0.4696  0.4031  0.0370
  126OSM   H14A13338   3.852   2.572   2.233 -0.7949 -0.2243 -0.2646
  126OSM   H14B13339   3.723   2.684   2.261  2.0014  2.8033  0.4644
  126OSM   H14C13340   3.839   2.708   2.130  1.5273 -1.5126 -0.5364
  126OSM    C1313341   3.647   2.655   1.979  0.0563  0.3878  0.4503
  126OSM   H13A13342   3.729   2.710   1.934 -0.9049  1.1263 -0.4433
  126OSM   H13B13343   3.571   2.724   2.009 -0.5909 -0.2687  0.3543
  126OSM   H13C13344   3.616   2.587   1.900  1.3904 -1.4629  1.4393
  126OSM    C1213345   3.562   2.513   2.156 -0.3752  0.1500  0.9071
  126OSM   H12A13346   3.504   2.599   2.185 -0.7200  0.3683 -0.3823
  126OSM   H12B13347   3.581   2.450   2.242  0.1697  0.3933  0.9711
  126OSM    C1113348   3.467   2.434   2.069 -0.7553  0.4540 -0.1792
  126OSM   H11A13349   3.438   2.490   1.978  0.7539 -0.9405 -1.5610
  126OSM   H11B13350   3.376   2.426   2.133  0.9798 -1.3205  2.2670
  126OSM      P13351   3.474   2.172   2.092  0.0121 -0.0520 -0.3269
  126OSM    O1313352   3.334   2.150   2.073  0.0361 -0.4507  0.4730
  126OSM    O1413353   3.566   2.059   2.059  0.2834  0.0451  0.2366
  126OSM    O1113354   3.493   2.218   2.246  0.1441 -0.4125 -0.1956
  126OSM    O1213355   3.516   2.305   2.021  0.8979  0.4454 -0.2622
  126OSM    C1S13356   3.422   2.133   2.339 -0.6741  0.6606 -0.3032
  126OSM    H1S13357   3.471   2.034   2.343 -0.6301  0.6888 -0.0911
  126OSM    H1T13358   3.317   2.110   2.310 -0.9744  1.6222 -0.0303
  126OSM     NF13359   3.346   2.094   2.571 -0.1451 -0.0204 -0.0823
  126OSM    HNF13360   3.256   2.121   2.606  0.7149  1.5534  1.0217
  126OSM    C2S13361   3.412   2.190   2.489 -0.3310  0.1537  0.5368
  126OSM    H2S13362   3.519   2.197   2.519  0.4602 -1.9580 -1.5247
  126OSM    C3S13363   3.360   2.331   2.503  0.3582 -0.5715 -0.2945
  126OSM    H3S13364   3.260   2.343   2.457 -0.0343 -0.1913  0.6272
  126OSM     O313365   3.423   2.427   2.413 -0.2489  0.1270 -0.4069
  126OSM    HO313366   3.467   2.375   2.345 -2.9862 -0.4254 -1.9151
  126OSM    C4S13367   3.358   2.387   2.644  0.5927 -0.6011  0.7188
  126OSM    H4S13368   3.449   2.368   2.702  0.1456 -2.4433  0.9023
  126OSM    C5S13369   3.238   2.436   2.704 -0.8928  0.2123 -0.2308
  126OSM    H5S13370   3.140   2.413   2.659 -1.1154  2.0552 -0.7808
  126OSM    C6S13371   3.244   2.460   2.856 -0.2086  0.3712 -0.2306
  126OSM    H6S13372   3.139   2.452   2.891  0.1624 -0.7745  0.6787
  126OSM    H6T13373   3.281   2.564   2.871  0.7045  0.1514 -0.8953
  126OSM    C7S13374   3.333   2.368   2.939 -0.3557  0.9140  0.3517
  126OSM    H7S13375   3.437   2.402   2.922 -0.3634  0.1756 -1.3841
  126OSM    H7T13376   3.322   2.263   2.905  1.1924  1.4518 -2.1157
  126OSM    C8S13377   3.301   2.376   3.085  0.7867 -0.0010 -0.1405
  126OSM    H8S13378   3.200   2.334   3.105  1.0915  0.2113  2.1218
  126OSM    H8T13379   3.298   2.484   3.111 -1.2222 -0.3910  1.4272
  126OSM    C9S13380   3.396   2.302   3.172 -0.4548  0.0737  0.0694
  126OSM    H9S13381   3.499   2.339   3.158  0.1137 -1.5239 -0.1784
  126OSM    H9T13382   3.389   2.195   3.144 -0.7930 -0.2891  1.4192
  126OSM   C10S13383   3.348   2.318   3.317  0.0728  0.1257  0.1496
  126OSM   H10S13384   3.259   2.256   3.340 -1.2195  0.4186 -3.4468
  126OSM   H10T13385   3.305   2.420   3.317 -2.1894 -0.6951 -2.4213
  126OSM   C11S13386   3.446   2.285   3.428  0.7102 -0.3210 -0.6128
  126OSM   H11S13387   3.535   2.350   3.420 -0.3508  1.3567  0.4982
  126OSM   H11T13388   3.478   2.179   3.416 -0.9617 -1.0656  0.9291
  126OSM   C12S13389   3.391   2.303   3.572  0.5316 -0.4156  0.4399
  126OSM   H12S13390   3.314   2.227   3.595 -0.2333  0.1981 -0.0630
  126OSM   H12T13391   3.353   2.406   3.588 -0.9117 -0.9611  0.6848
  126OSM   C13S13392   3.494   2.283   3.686  0.0006  0.1914 -0.0978
  126OSM   H13S13393   3.572   2.362   3.679 -0.4011  0.6816  0.7599
  126OSM   H13T13394   3.544   2.184   3.682 -0.0998  0.0549  1.4785
  126OSM   C14S13395   3.430   2.308   3.821 -0.5260  0.1092  0.7440
  126OSM   H14S13396   3.363   2.227   3.856 -1.3599  1.0044  1.2576
  126OSM   H14T13397   3.382   2.406   3.799 -0.9684 -0.9587 -4.3293
  126OSM   C15S13398   3.544   2.312   3.925  0.2310 -0.1194 -0.5862
  126OSM   H15S13399   3.634   2.362   3.883  0.0698  0.6577 -0.0431
  126OSM   H15T13400   3.567   2.207   3.953 -1.6639 -0.0570  1.5395
  126OSM   C16S13401   3.503   2.385   4.052  0.2955 -0.1694 -0.3163
  126OSM   H16S13402   3.402   2.344   4.071  1.6215 -3.3453  0.5642
  126OSM   H16T13403   3.487   2.492   4.029 -0.8043 -0.6033 -1.7661
  126OSM   C17S13404   3.604   2.364   4.163 -0.0793 -0.3656 -0.4575
  126OSM   H17S13405   3.624   2.255   4.171  0.4693 -0.3722 -1.6490
  126OSM   H17T13406   3.564   2.407   4.257  1.4639  2.6919 -1.0714
  126OSM   C18S13407   3.738   2.434   4.138  0.3325  0.5111 -0.0148
  126OSM   H18S13408   3.811   2.437   4.222  1.4431 -0.4958 -0.9145
  126OSM   H18T13409   3.708   2.534   4.099 -2.1034  0.2942  1.1200
  126OSM   H18U13410   3.785   2.378   4.055 -2.3860  1.0385 -2.0626
  126OSM    C1F13411   3.394   1.974   2.602  0.4805  0.0256 -0.7289
  126OSM     OF13412   3.502   1.934   2.564 -0.0523  0.2919 -0.1935
  126OSM    C2F13413   3.311   1.886   2.688 -0.8839 -0.0920  0.1308
  126OSM    H2F13414   3.202   1.901   2.674 -0.8852  1.7643  1.6368
  126OSM    H2G13415   3.317   1.921   2.794 -0.4190 -0.0073  0.0812
  126OSM    C3F13416   3.377   1.749   2.705  1.0370  0.2060  0.0956
  126OSM    H3F13417   3.484   1.751   2.733  0.9626 -1.8993  0.7715
  126OSM    H3G13418   3.367   1.701   2.605  0.2772  1.4519 -0.4424
  126OSM    C4F13419   3.294   1.659   2.804 -0.6647  0.5135 -0.1056
  126OSM    H4F13420   3.187   1.668   2.774 -0.5904  0.5969 -0.3529
  126OSM    H4G13421   3.313   1.698   2.906  2.1130  1.6437 -0.9519
  126OSM    C5F13422   3.325   1.508   2.790 -0.3636  0.4408 -0.3701
  126OSM    H5F13423   3.431   1.486   2.813 -0.9149  0.0802  2.1304
  126OSM    H5G13424   3.294   1.483   2.686 -2.0939 -0.9818  0.4193
  126OSM    C6F13425   3.247   1.414   2.878 -0.1270  0.3212 -0.3579
  126OSM    H6F13426   3.296   1.314   2.873 -1.8565 -0.5644 -0.4726
  126OSM    H6G13427   3.143   1.406   2.840 -1.1319  0.6984  2.1544
  126OSM    C7F13428   3.235   1.462   3.030  0.1549 -0.1242  0.3837
  126OSM    H7F13429   3.180   1.558   3.038 -0.6649 -0.7503  4.4935
  126OSM    H7G13430   3.333   1.494   3.071  0.6265  0.4836 -1.1531
  126OSM    C8F13431   3.160   1.360   3.119 -0.5288  0.3472 -0.2126
  126OSM    H8F13432   3.174   1.259   3.075 -1.9689  0.6604 -1.4524
  126OSM    H8G13433   3.055   1.389   3.101 -1.2467 -1.4907  0.6939
  126OSM    C9F13434   3.190   1.363   3.266 -0.9970  0.0504 -0.1982
  126OSM    H9F13435   3.297   1.347   3.289 -0.9119  0.3054 -0.4153
  126OSM   C10F13436   3.110   1.394   3.364  0.2396 -0.1140  0.1880
  126OSM   H10F13437   3.140   1.406   3.469  0.4251  1.6192 -0.0348
  126OSM   C11F13438   2.957   1.409   3.355 -0.4813  0.5319  0.3509
  126OSM   H11F13439   2.917   1.316   3.399  1.2324  0.7413  2.5185
  126OSM   H11G13440   2.918   1.414   3.251 -0.1583  1.8035  0.2729
  126OSM   C12F13441   2.903   1.526   3.434  0.0378 -0.4458  0.6908
  126OSM   H12F13442   2.794   1.526   3.411  0.4330  0.8137 -1.4524
  126OSM   H12G13443   2.951   1.619   3.395  1.4744 -0.8921  1.3268
  126OSM   C13F13444   2.910   1.515   3.589  0.0861 -0.1461  0.6069
  126OSM   H13F13445   3.004   1.459   3.612  0.2072 -1.1197 -1.9266
  126OSM   H13G13446   2.836   1.446   3.635  0.5429 -2.5310 -1.9032
  126OSM   C14F13447   2.934   1.653   3.658 -0.5109  0.2490 -0.3429
  126OSM   H14F13448   3.005   1.713   3.597 -0.5107 -2.5454 -3.4181
  126OSM   H14G13449   2.991   1.633   3.751 -1.4487 -1.3816 -0.0873
  126OSM   C15F13450   2.806   1.724   3.694  0.1768  0.0816  0.2108
  126OSM   H15F13451   2.738   1.646   3.735 -0.3579  1.2197  1.5683
  126OSM   H15G13452   2.758   1.757   3.599 -0.2007 -1.9140 -0.3401
  126OSM   C16F13453   2.835   1.844   3.785 -0.0430  0.0995 -0.0047
  126OSM   H16F13454   2.900   1.924   3.743  0.6728 -0.6181 -0.2859
  126OSM   H16G13455   2.895   1.805   3.870 -1.9677 -0.3015  1.2314
  126OSM   C17F13456   2.709   1.917   3.854 -0.0255 -0.2481 -0.9734
  126OSM   H17F13457   2.652   1.838   3.908  0.2798 -0.7416 -1.3626
  126OSM   H17G13458   2.640   1.956   3.776 -2.3276 -2.7847 -0.3700
  126OSM   C18F13459   2.744   2.023   3.959  0.2572 -0.3840 -0.2074
  126OSM   H18F13460   2.814   1.987   4.037  1.7198 -1.8833 -2.1249
  126OSM   H18G13461   2.658   2.071   4.011  0.1153  1.9958 -2.4248
  126OSM   H18H13462   2.814   2.099   3.918  0.5609  0.1247  1.2028
  127OSM      N13463   3.007   3.833   1.583  0.0928  0.6426  0.0430
  127OSM    C1513464   3.043   3.685   1.566  0.5178 -0.4667 -0.3097
  127OSM   H15A13465   2.998   3.649   1.474 -2.1202  3.1123 -0.6297
  127OSM   H15B13466   3.007   3.623   1.647 -1.3113 -0.7531 -1.2631
  127OSM   H15C13467   3.148   3.668   1.551  1.0188  1.5571  0.6950
  127OSM    C1413468   3.056   3.911   1.465 -0.0452  0.2978 -0.4424
  127OSM   H14A13469   3.161   3.931   1.484 -0.0267  1.1414 -1.3600
  127OSM   H14B13470   3.002   4.004   1.462  1.5152  1.2984  0.5619
  127OSM   H14C13471   3.044   3.869   1.367 -1.5694 -3.3132  1.1132
  127OSM    C1313472   2.854   3.847   1.588 -0.1663  0.4432 -0.5006
  127OSM   H13A13473   2.812   3.790   1.669 -0.8361  3.2960  1.2718
  127OSM   H13B13474   2.798   3.817   1.500 -0.8547 -0.0969  0.1106
  127OSM   H13C13475   2.830   3.951   1.601 -1.0516  0.5249 -2.4299
  127OSM    C1213476   3.063   3.881   1.713  0.1141 -0.0963 -0.5786
  127OSM   H12A13477   3.162   3.836   1.716 -0.5380 -1.5866 -0.7175
  127OSM   H12B13478   3.012   3.827   1.791  2.2427 -2.1903 -0.5195
  127OSM    C1113479   3.058   4.031   1.759 -0.1305  0.0147  0.5272
  127OSM   H11A13480   3.102   4.099   1.683  1.0509 -0.9288  0.3428
  127OSM   H11B13481   3.124   4.047   1.847  1.1564  1.9672 -0.6996
  127OSM      P13482   2.860   4.050   1.919 -0.0472  0.2153  0.0930
  127OSM    O1313483   2.914   4.159   2.002  0.1943  0.0109 -0.2543
  127OSM    O1413484   2.711   4.044   1.915 -0.0158 -0.2245  0.0351
  127OSM    O1113485   2.907   3.910   1.972 -0.3026 -0.0426 -0.0891
  127OSM    O1213486   2.919   4.066   1.771  0.7785  0.0175 -0.4416
  127OSM    C1S13487   2.929   3.876   2.106 -0.1405  0.1853 -0.5331
  127OSM    H1S13488   2.958   3.959   2.175 -1.8880 -0.3974  0.9799
  127OSM    H1T13489   3.020   3.813   2.114 -0.0236 -0.0774 -3.1922
  127OSM     NF13490   2.833   3.780   2.310 -0.2179  0.0626 -0.2884
  127OSM    HNF13491   2.869   3.694   2.347 -0.3461  0.8193  1.7252
  127OSM    C2S13492   2.814   3.803   2.169 -0.2918  0.5381 -0.7297
  127OSM    H2S13493   2.727   3.870   2.154 -0.5992 -0.0352 -1.5706
  127OSM    C3S13494   2.779   3.671   2.095 -0.0883 -0.5654 -0.4241
  127OSM    H3S13495   2.865   3.601   2.086  0.1927 -0.3403  0.4342
  127OSM     O313496   2.734   3.687   1.961 -0.5958  0.5034 -0.4079
  127OSM    HO313497   2.768   3.773   1.935  1.7167  0.3672  1.8669
  127OSM    C4S13498   2.662   3.601   2.153 -0.0904 -0.4361 -0.1507
  127OSM    H4S13499   2.562   3.643   2.135 -0.0145  0.2330  0.8759
  127OSM    C5S13500   2.683   3.477   2.217 -0.1144 -0.7758  0.7483
  127OSM    H5S13501   2.785   3.439   2.234  0.5196  1.0530  1.3220
  127OSM    C6S13502   2.569   3.396   2.269 -0.0726 -0.2890  0.2048
  127OSM    H6S13503   2.576   3.296   2.221  2.0028  0.6406 -1.5808
  127OSM    H6T13504   2.466   3.430   2.243  0.2372 -0.8455 -1.9653
  127OSM    C7S13505   2.579   3.350   2.419 -0.1497 -0.2927 -0.3244
  127OSM    H7S13506   2.623   3.251   2.444 -1.3723 -0.2053  2.5175
  127OSM    H7T13507   2.471   3.331   2.441  0.1081 -1.2487  0.2171
  127OSM    C8S13508   2.628   3.452   2.521  0.0361 -0.3870  0.4029
  127OSM    H8S13509   2.570   3.545   2.503 -1.8334 -1.7997 -1.3447
  127OSM    H8T13510   2.736   3.474   2.504  0.1706 -1.1453  0.2392
  127OSM    C9S13511   2.592   3.398   2.657 -0.2939  0.0782 -0.3780
  127OSM    H9S13512   2.661   3.316   2.683 -0.1627  0.5542  0.8414
  127OSM    H9T13513   2.488   3.360   2.646  0.0526 -0.4998 -1.8454
  127OSM   C10S13514   2.596   3.514   2.771  0.9498 -1.3118  0.5438
  127OSM   H10S13515   2.510   3.584   2.765  2.9447  1.1751 -1.8046
  127OSM   H10T13516   2.694   3.567   2.769  0.1781  0.3898  3.0922
  127OSM   C11S13517   2.586   3.442   2.903 -0.0602  0.1194 -0.6904
  127OSM   H11S13518   2.680   3.385   2.921 -0.0093  0.8798  1.8721
  127OSM   H11T13519   2.499   3.374   2.894  0.9082 -1.4166  0.8976
  127OSM   C12S13520   2.573   3.533   3.028  0.3318 -0.1623  0.5560
  127OSM   H12S13521   2.492   3.604   3.002  1.4139  0.2842 -1.8526
  127OSM   H12T13522   2.662   3.598   3.039  1.4805 -2.0307  3.4210
  127OSM   C13S13523   2.547   3.463   3.160 -0.3981  0.3348 -0.4106
  127OSM   H13S13524   2.628   3.388   3.167  1.1507  1.8576 -1.0949
  127OSM   H13T13525   2.447   3.415   3.156 -0.1292 -0.1872 -1.4768
  127OSM   C14S13526   2.553   3.566   3.279 -0.9921 -0.4477 -0.5596
  127OSM   H14S13527   2.469   3.638   3.270 -0.9249 -0.0563  1.4392
  127OSM   H14T13528   2.654   3.611   3.289 -0.3673 -2.2493  2.1924
  127OSM   C15S13529   2.536   3.495   3.410 -0.2528  0.6306  0.4968
  127OSM   H15S13530   2.622   3.427   3.426  0.0177  1.1088  1.0964
  127OSM   H15T13531   2.445   3.432   3.399  0.5391 -0.3209 -0.9349
  127OSM   C16S13532   2.529   3.596   3.524  0.1757 -0.0033 -0.0987
  127OSM   H16S13533   2.597   3.682   3.512 -0.2304  0.3793  0.3410
  127OSM   H16T13534   2.554   3.544   3.619 -2.8008 -2.2464 -0.3715
  127OSM   C17S13535   2.394   3.655   3.546 -0.4248 -0.7453 -0.1505
  127OSM   H17S13536   2.321   3.571   3.538  0.7148 -1.6243 -2.2965
  127OSM   H17T13537   2.364   3.718   3.459 -0.2354 -0.8524 -0.2928
  127OSM   C18S13538   2.399   3.741   3.682 -0.0321 -0.1427 -0.2800
  127OSM   H18S13539   2.297   3.781   3.704 -0.2554 -0.2138 -1.1695
  127OSM   H18T13540   2.464   3.830   3.670 -0.0559  0.3974  2.7700
  127OSM   H18U13541   2.427   3.677   3.768 -0.8148 -1.3515 -0.8881
  127OSM    C1F13542   2.840   3.882   2.398  0.0545  0.1843  0.4969
  127OSM     OF13543   2.789   3.995   2.377 -0.0382 -0.0554 -0.3369
  127OSM    C2F13544   2.916   3.856   2.523 -0.1601 -0.0622 -0.4584
  127OSM    H2F13545   3.009   3.815   2.479 -0.9636 -0.4149 -1.8887
  127OSM    H2G13546   2.866   3.777   2.583 -1.3880  0.7579 -0.3580
  127OSM    C3F13547   2.938   3.980   2.614  0.6101  0.4003 -0.6920
  127OSM    H3F13548   2.842   4.027   2.645  0.2953 -0.0791 -0.9358
  127OSM    H3G13549   2.989   4.059   2.555  1.7726  0.8491  0.8601
  127OSM    C4F13550   3.025   3.955   2.741  0.4818 -0.0225 -0.4184
  127OSM    H4F13551   3.008   4.036   2.816 -1.2152  0.2047 -1.0113
  127OSM    H4G13552   3.130   3.963   2.707  1.2528  1.5070  2.0178
  127OSM    C5F13553   3.001   3.817   2.819 -0.7234  0.2069  0.1703
  127OSM    H5F13554   3.038   3.730   2.761  1.1689  1.5575 -0.7539
  127OSM    H5G13555   2.892   3.798   2.827 -0.4876 -0.8868  0.9936
  127OSM    C6F13556   3.065   3.814   2.950  0.6274 -0.5079 -0.1471
  127OSM    H6F13557   3.024   3.727   3.008  1.0933  0.5523  1.8845
  127OSM    H6G13558   3.031   3.910   2.994  0.3008 -1.5632  2.0893
  127OSM    C7F13559   3.212   3.815   2.959  0.0399  0.3752  0.3845
  127OSM    H7F13560   3.248   3.911   2.915 -1.3042  0.4445 -0.6295
  127OSM    H7G13561   3.249   3.727   2.901 -1.9503 -0.5436  0.4511
  127OSM    C8F13562   3.268   3.816   3.103  0.2509 -0.7020  0.0674
  127OSM    H8F13563   3.378   3.811   3.089  0.3961  0.9238  0.4717
  127OSM    H8G13564   3.237   3.725   3.158  0.4801 -0.4237  0.6574
  127OSM    C9F13565   3.229   3.940   3.181 -0.4031  0.2250  0.6629
  127OSM    H9F13566   3.169   4.013   3.126 -2.6080 -0.9683  1.3616
  127OSM   C10F13567   3.248   3.959   3.313 -0.3372 -0.0300 -0.2954
  127OSM   H10F13568   3.217   4.057   3.353 -2.7336 -0.1190 -1.7296
  127OSM   C11F13569   3.321   3.866   3.411 -0.3617 -0.4519  0.1588
  127OSM   H11F13570   3.425   3.902   3.431 -1.0305  0.8871  1.4408
  127OSM   H11G13571   3.329   3.766   3.364 -3.4480 -0.8262  0.2337
  127OSM   C12F13572   3.253   3.851   3.537  0.5268 -0.5803 -0.2176
  127OSM   H12F13573   3.146   3.826   3.525  0.3564 -0.0068  0.0523
  127OSM   H12G13574   3.246   3.944   3.599 -0.8874 -1.4421  0.9637
  127OSM   C13F13575   3.314   3.744   3.630 -0.5920 -0.6784  0.7133
  127OSM   H13F13576   3.317   3.642   3.587  0.7355 -0.6737  0.7444
  127OSM   H13G13577   3.260   3.737   3.727 -1.6671  0.0285  0.1855
  127OSM   C14F13578   3.464   3.776   3.669 -0.2218  0.5589  0.4912
  127OSM   H14F13579   3.458   3.883   3.701 -0.5805 -0.0336  2.5138
  127OSM   H14G13580   3.530   3.782   3.580  0.8316  0.8162  1.2732
  127OSM   C15F13581   3.527   3.704   3.789 -0.2853  0.2016 -0.6062
  127OSM   H15F13582   3.636   3.723   3.802  0.4966 -2.2734 -2.7801
  127OSM   H15G13583   3.535   3.598   3.757  0.2907 -0.1536  0.6545
  127OSM   C16F13584   3.470   3.711   3.930 -0.5347 -0.5663 -0.3112
  127OSM   H16F13585   3.361   3.690   3.923 -0.5780  0.1687 -2.7375
  127OSM   H16G13586   3.481   3.815   3.968  0.8982 -1.1068  0.8649
  127OSM   C17F13587   3.535   3.621   4.038  0.1971 -0.6982  0.4875
  127OSM   H17F13588   3.642   3.648   4.046  0.2406 -0.4686 -0.6847
  127OSM   H17G13589   3.531   3.516   4.002  4.2136 -1.3120  1.4186
  127OSM   C18F13590   3.470   3.641   4.174 -0.1394 -0.0555  0.0798
  127OSM   H18F13591   3.457   3.744   4.214  0.7743  0.1709 -0.1923
  127OSM   H18G13592   3.528   3.589   4.253  1.4200 -1.0020 -1.6213
  127OSM   H18H13593   3.376   3.581   4.169  1.1089 -2.2441  1.3383
  128OSM      N13594   2.687   2.349   2.048 -0.3243 -0.1863 -0.7286
  128OSM    C1513595   2.596   2.374   1.931  0.0066 -0.0878 -0.0318
  128OSM   H15A13596   2.527   2.455   1.948  1.4979  1.6209 -1.6264
  128OSM   H15B13597   2.534   2.288   1.912  0.5616 -0.2609 -1.1758
  128OSM   H15C13598   2.652   2.394   1.840 -0.2569  0.5704 -0.0534
  128OSM    C1413599   2.795   2.248   2.020 -0.5175  0.0282 -0.0696
  128OSM   H14A13600   2.874   2.247   2.094 -1.0073  3.8443  0.7691
  128OSM   H14B13601   2.844   2.247   1.924  0.7540 -0.6717  0.5739
  128OSM   H14C13602   2.740   2.155   2.017 -0.2184 -0.1302 -0.8053
  128OSM    C1313603   2.760   2.483   2.064  0.3347 -0.3038 -0.4742
  128OSM   H13A13604   2.693   2.567   2.073  0.3957 -0.3834  1.0233
  128OSM   H13B13605   2.820   2.492   1.974 -0.4480  1.5508 -0.8453
  128OSM   H13C13606   2.822   2.489   2.152 -3.2228 -0.7310  2.2745
  128OSM    C1213607   2.604   2.312   2.166 -0.1150  0.3961  0.1032
  128OSM   H12A13608   2.562   2.215   2.141 -0.0447  0.4268 -0.1353
  128OSM   H12B13609   2.526   2.386   2.170 -1.7685 -1.2747  2.9719
  128OSM    C1113610   2.671   2.309   2.303  0.0936  0.5182  0.0729
  128OSM   H11A13611   2.588   2.324   2.376 -0.8814 -0.3743 -0.8193
  128OSM   H11B13612   2.751   2.386   2.308 -0.4626  1.3717 -2.6157
  128OSM      P13613   2.866   2.134   2.336  0.5590  0.0946 -0.1448
  128OSM    O1313614   2.898   2.014   2.260  0.3685 -0.6997 -0.5022
  128OSM    O1413615   2.946   2.255   2.320  0.0941 -0.5084  0.9927
  128OSM    O1113616   2.875   2.111   2.486  0.1295  0.0447  0.4132
  128OSM    O1213617   2.720   2.173   2.324  0.1489 -0.1903 -0.9790
  128OSM    C1S13618   2.796   2.179   2.589 -0.2641  0.7671  0.0172
  128OSM    H1S13619   2.687   2.161   2.572 -0.4125 -0.1238  1.6407
  128OSM    H1T13620   2.806   2.290   2.586 -2.3366  0.9977 -0.2835
  128OSM     NF13621   2.738   2.139   2.834 -0.2897 -0.4257  0.6178
  128OSM    HNF13622   2.768   2.216   2.889 -1.2877  1.7060 -1.6651
  128OSM    C2S13623   2.833   2.119   2.724  0.7199 -0.8152 -0.4700
  128OSM    H2S13624   2.830   2.009   2.707 -3.5772 -0.8714 -0.6218
  128OSM    C3S13625   2.973   2.167   2.756 -0.3137  0.0939  0.0478
  128OSM    H3S13626   2.982   2.276   2.774  1.0983  0.0768 -0.3874
  128OSM     O313627   3.068   2.127   2.656  0.0837 -0.2370  0.3944
  128OSM    HO313628   3.013   2.083   2.591 -2.0714  0.0369  1.8941
  128OSM    C4S13629   3.006   2.090   2.882  0.5905  0.1274  0.4614
  128OSM    H4S13630   2.975   1.986   2.864 -0.7639  0.9982 -3.1297
  128OSM    C5S13631   3.056   2.134   3.002  1.1920  0.0753  0.1042
  128OSM    H5S13632   3.074   2.243   3.002 -2.3533  0.7933 -0.1506
  128OSM    C6S13633   3.068   2.058   3.129  0.5246  0.0754  0.1095
  128OSM    H6S13634   2.973   2.004   3.150 -1.0295  1.7810 -2.0740
  128OSM    H6T13635   3.092   2.119   3.219 -0.5924 -0.3028  0.6877
  128OSM    C7S13636   3.175   1.952   3.114  0.0229 -0.5955 -0.4149
  128OSM    H7S13637   3.269   1.996   3.074 -0.5710  2.8622  1.5222
  128OSM    H7T13638   3.150   1.866   3.049 -0.4655 -0.3387 -0.5686
  128OSM    C8S13639   3.202   1.862   3.242 -0.1990  0.1224  0.0388
  128OSM    H8S13640   3.281   1.790   3.212 -1.2816 -1.5203  0.9606
  128OSM    H8T13641   3.106   1.812   3.268 -0.5231  0.8610  0.3104
  128OSM    C9S13642   3.257   1.935   3.363  0.0544  0.0176 -0.7601
  128OSM    H9S13643   3.176   2.007   3.388  0.4121 -0.5819  2.5561
  128OSM    H9T13644   3.350   1.994   3.346 -0.7904  2.0305  1.0283
  128OSM   C10S13645   3.274   1.845   3.484 -0.2165  0.1280  0.4081
  128OSM   H10S13646   3.366   1.784   3.474 -0.8786 -0.8147 -0.0308
  128OSM   H10T13647   3.177   1.790   3.488 -0.3694  0.4611  1.5018
  128OSM   C11S13648   3.293   1.924   3.619 -0.5596 -0.0654 -0.0057
  128OSM   H11S13649   3.203   1.988   3.634 -0.4880  0.0823 -0.2066
  128OSM   H11T13650   3.373   2.000   3.608 -0.9255  0.1385 -1.4673
  128OSM   C12S13651   3.304   1.833   3.743 -0.0924  0.4643 -0.5014
  128OSM   H12S13652   3.409   1.805   3.767 -0.8472 -0.3383  2.1233
  128OSM   H12T13653   3.256   1.732   3.737 -1.0314  0.8353  0.5343
  128OSM   C13S13654   3.237   1.888   3.866 -0.1007 -0.4187  0.1768
  128OSM   H13S13655   3.126   1.886   3.861 -0.0613 -0.3720 -1.3274
  128OSM   H13T13656   3.269   1.993   3.881 -0.1811 -0.2522 -0.7418
  128OSM   C14S13657   3.306   1.822   3.989  0.5533 -0.2958 -0.0173
  128OSM   H14S13658   3.413   1.847   3.977  0.3482  0.6520  0.0135
  128OSM   H14T13659   3.294   1.711   3.992 -1.5335 -0.1113  0.3558
  128OSM   C15S13660   3.258   1.873   4.125  0.3520 -0.7052  0.5294
  128OSM   H15S13661   3.319   1.830   4.207  1.2394  1.4018  1.0476
  128OSM   H15T13662   3.152   1.842   4.133 -0.4256  1.4440 -0.6020
  128OSM   C16S13663   3.256   2.023   4.140 -0.5146 -0.1756 -0.4479
  128OSM   H16S13664   3.202   2.098   4.078  0.0197  1.4787  1.0034
  128OSM   H16T13665   3.360   2.061   4.146 -1.0922  1.2904  0.6839
  128OSM   C17S13666   3.203   2.061   4.285 -0.2017  0.4789  0.8293
  128OSM   H17S13667   3.251   1.989   4.355 -2.9411  0.1060  2.4710
  128OSM   H17T13668   3.098   2.025   4.277 -0.3726  0.9975  0.7308
  128OSM   C18S13669   3.211   2.212   4.313 -0.6604 -0.1533 -0.2811
  128OSM   H18S13670   3.157   2.245   4.405 -1.4417 -0.2794 -0.6830
  128OSM   H18T13671   3.175   2.271   4.225 -0.2967  2.0464  0.9735
  128OSM   H18U13672   3.319   2.235   4.327 -0.4809 -1.2644  0.2170
  128OSM    C1F13673   2.619   2.083   2.840 -0.3490 -0.6317  0.3403
  128OSM     OF13674   2.570   2.030   2.743 -0.3573 -0.1602  0.1091
  128OSM    C2F13675   2.547   2.094   2.972 -0.6598 -0.5055 -0.3257
  128OSM    H2F13676   2.532   2.201   2.998  0.4237 -0.2671 -0.5980
  128OSM    H2G13677   2.623   2.061   3.045 -0.7161  0.0115 -0.0270
  128OSM    C3F13678   2.416   2.003   2.981  0.0473 -0.4274  0.2090
  128OSM    H3F13679   2.444   1.896   2.985 -1.4111 -0.8452 -0.1384
  128OSM    H3G13680   2.360   2.025   2.888 -1.0794 -2.0707  0.4769
  128OSM    C4F13681   2.324   2.029   3.102 -0.5592 -0.4134  0.5816
  128OSM    H4F13682   2.380   2.012   3.196  0.5157 -0.2617 -0.0168
  128OSM    H4G13683   2.237   1.962   3.081 -0.5367  0.6829 -4.3026
  128OSM    C5F13684   2.264   2.174   3.101 -0.2255 -0.4010 -0.0501
  128OSM    H5F13685   2.245   2.210   2.998  0.8687  3.5105  0.9547
  128OSM    H5G13686   2.336   2.247   3.143 -0.8742  1.1429 -1.4914
  128OSM    C6F13687   2.144   2.203   3.192 -0.1727 -0.7819  0.3260
  128OSM    H6F13688   2.067   2.129   3.159  1.5120 -1.9753 -1.0676
  128OSM    H6G13689   2.097   2.302   3.173  0.4093 -0.2075  1.7560
  128OSM    C7F13690   2.161   2.203   3.344 -0.1221  0.2090  0.4678
  128OSM    H7F13691   2.249   2.270   3.358 -0.0510  0.3766 -0.6888
  128OSM    H7G13692   2.195   2.102   3.376  0.9072  0.6445  0.8067
  128OSM    C8F13693   2.037   2.259   3.421  0.5233  0.7204 -0.6596
  128OSM    H8F13694   1.998   2.353   3.377  0.6171  1.4219  0.6944
  128OSM    H8G13695   2.065   2.280   3.527 -2.3071  1.7266 -0.0054
  128OSM    C9F13696   1.931   2.145   3.422  0.3889  0.4107 -0.0004
  128OSM    H9F13697   1.875   2.142   3.327 -1.6191  3.6456  0.9210
  128OSM   C10F13698   1.877   2.081   3.526  0.2294 -0.2666  0.5748
  128OSM   H10F13699   1.815   1.992   3.507  0.2879 -0.4106  1.0417
  128OSM   C11F13700   1.931   2.094   3.668  0.1624 -0.9401 -0.0876
  128OSM   H11F13701   2.040   2.115   3.666  0.2089 -1.2200 -0.8209
  128OSM   H11G13702   1.920   1.998   3.723  0.2265 -1.3906 -0.8501
  128OSM   C12F13703   1.855   2.186   3.760  0.5830 -0.2940  0.2130
  128OSM   H12F13704   1.755   2.141   3.780  1.0208 -0.3282  2.5089
  128OSM   H12G13705   1.844   2.285   3.709  3.9231  0.6694  1.1126
  128OSM   C13F13706   1.921   2.208   3.895  0.3083  0.0617 -0.0167
  128OSM   H13F13707   2.005   2.275   3.868 -1.3324  1.1874 -2.6660
  128OSM   H13G13708   1.970   2.113   3.925  1.7134  0.5710 -0.6085
  128OSM   C14F13709   1.832   2.272   3.998  0.1993  0.7844 -0.5629
  128OSM   H14F13710   1.881   2.256   4.096  0.1357  0.9417 -0.5062
  128OSM   H14G13711   1.730   2.229   3.995  0.7830 -0.6933 -3.1528
  128OSM   C15F13712   1.820   2.417   3.997 -0.7815  0.2326  0.6690
  128OSM   H15F13713   1.752   2.447   3.915  0.0804  0.3700 -0.0165
  128OSM   H15G13714   1.917   2.459   3.961 -0.7165 -2.1009 -2.2891
  128OSM   C16F13715   1.778   2.484   4.127 -0.0565  0.4310  0.2241
  128OSM   H16F13716   1.864   2.468   4.196  0.6689  2.4565 -0.1388
  128OSM   H16G13717   1.688   2.439   4.174 -1.6892  4.2931  1.2354
  128OSM   C17F13718   1.747   2.637   4.126 -0.4412 -0.7484 -0.3667
  128OSM   H17F13719   1.659   2.644   4.057 -0.4247 -1.5689 -0.4901
  128OSM   H17G13720   1.827   2.706   4.092 -0.5472 -0.5342 -0.1844
  128OSM   C18F13721   1.700   2.692   4.262 -0.2336 -0.3968  0.1616
  128OSM   H18F13722   1.792   2.708   4.323 -0.3644  0.1004  0.2351
  128OSM   H18G13723   1.624   2.627   4.309 -0.2419 -1.1012 -0.8000
  128OSM   H18H13724   1.659   2.794   4.247 -0.0904  0.0591  2.5069
  129OSM      N13725   3.705   1.334   1.747 -0.1747  0.7741  0.7381
  129OSM    C1513726   3.686   1.227   1.849 -0.2944 -0.6526  0.0650
  129OSM   H15A13727   3.721   1.134   1.806 -0.5395  0.0200 -1.6845
  129OSM   H15B13728   3.583   1.217   1.879 -0.6077  0.0073 -0.7495
  129OSM   H15C13729   3.746   1.248   1.936  0.3076 -0.7755 -0.3131
  129OSM    C1413730   3.610   1.291   1.632  0.2321  0.0208 -0.2524
  129OSM   H14A13731   3.628   1.336   1.536  0.5080 -1.7390 -1.0654
  129OSM   H14B13732   3.511   1.283   1.675  0.5683  0.0805  0.5523
  129OSM   H14C13733   3.636   1.188   1.611 -2.0115 -1.1257  2.1194
  129OSM    C1313734   3.669   1.465   1.807 -0.3717 -0.1558 -0.8895
  129OSM   H13A13735   3.740   1.491   1.885 -1.5991  1.0705 -0.1328
  129OSM   H13B13736   3.566   1.463   1.840 -0.4085 -2.6692 -1.0175
  129OSM   H13C13737   3.691   1.548   1.741 -1.7053  2.1480  1.3627
  129OSM    C1213738   3.849   1.334   1.694 -0.0114 -0.3066  0.5356
  129OSM   H12A13739   3.867   1.414   1.624  0.7679  1.4673  2.6140
  129OSM   H12B13740   3.882   1.240   1.653  0.8512 -0.5128  1.6349
  129OSM    C1113741   3.959   1.359   1.798 -0.6307 -0.4668 -0.8452
  129OSM   H11A13742   3.962   1.464   1.833  3.1379 -0.1744 -1.6278
  129OSM   H11B13743   4.049   1.344   1.734 -0.9942 -0.3140 -1.4007
  129OSM      P13744   4.037   1.298   2.041  0.0707  0.3817 -0.1411
  129OSM    O1313745   4.028   1.189   2.141  0.4927 -0.5135 -0.1750
  129OSM    O1413746   4.171   1.339   2.004  0.4111 -0.6962 -0.0353
  129OSM    O1113747   3.957   1.425   2.093 -0.4209 -0.3635  0.3969
  129OSM    O1213748   3.954   1.265   1.907  0.1115  0.7338  0.8430
  129OSM    C1S13749   3.823   1.427   2.133  0.1075 -0.8558  0.1087
  129OSM    H1S13750   3.771   1.331   2.111  0.1689 -0.7280 -0.6309
  129OSM    H1T13751   3.764   1.495   2.069 -3.2484 -0.0396  3.6745
  129OSM     NF13752   3.664   1.477   2.318  0.6022  0.4811 -0.1406
  129OSM    HNF13753   3.634   1.563   2.359  0.5789 -0.1974  1.3262
  129OSM    C2S13754   3.798   1.458   2.290 -0.7846  0.6973  0.0278
  129OSM    H2S13755   3.831   1.373   2.354 -3.6664 -1.5124 -1.1945
  129OSM    C3S13756   3.883   1.582   2.327  0.4481 -0.2951 -0.4149
  129OSM    H3S13757   3.844   1.661   2.260 -1.3292  0.6283  1.5898
  129OSM     O313758   4.026   1.568   2.309  0.5052 -0.6430  0.0581
  129OSM    HO313759   4.041   1.494   2.249 -0.5077 -0.0642 -0.9745
  129OSM    C4S13760   3.852   1.632   2.468  0.2994 -0.1096 -0.8249
  129OSM    H4S13761   3.800   1.728   2.473 -2.5524 -1.5937  0.1044
  129OSM    C5S13762   3.907   1.582   2.579 -0.1817 -0.3188  0.8984
  129OSM    H5S13763   3.989   1.508   2.578 -1.0546 -1.3122 -0.1220
  129OSM    C6S13764   3.890   1.641   2.714 -0.0723  0.3653 -1.2836
  129OSM    H6S13765   3.915   1.750   2.713  2.0514 -0.0892 -1.3282
  129OSM    H6T13766   3.968   1.598   2.780 -0.8192  0.9167  0.0075
  129OSM    C7S13767   3.748   1.620   2.771 -0.1711  0.1652 -0.0414
  129OSM    H7S13768   3.714   1.516   2.749 -1.5724  0.3021  1.2958
  129OSM    H7T13769   3.671   1.681   2.718 -0.2125  0.7712  0.7121
  129OSM    C8S13770   3.756   1.643   2.917  0.5494  0.2103  0.2261
  129OSM    H8S13771   3.776   1.752   2.926 -0.6217  0.9665 -4.1152
  129OSM    H8T13772   3.834   1.584   2.968  0.4455  1.8248  2.3834
  129OSM    C9S13773   3.635   1.593   2.998  0.8201  0.5807  0.1347
  129OSM    H9S13774   3.619   1.485   2.979 -0.7362  0.7609  0.3238
  129OSM    H9T13775   3.543   1.646   2.964  0.9964  1.7579  1.3890
  129OSM   C10S13776   3.639   1.610   3.149 -0.5561  0.5909 -0.3956
  129OSM   H10S13777   3.732   1.566   3.192  0.0615  1.6667 -0.5865
  129OSM   H10T13778   3.544   1.567   3.185 -0.3991  0.5930  0.0248
  129OSM   C11S13779   3.628   1.757   3.187 -0.2751  0.0787  1.0365
  129OSM   H11S13780   3.548   1.811   3.131 -1.0930 -0.5595  1.5723
  129OSM   H11T13781   3.722   1.807   3.155 -0.2767  0.6000  1.8129
  129OSM   C12S13782   3.622   1.776   3.343 -0.1291  0.1182 -0.0559
  129OSM   H12S13783   3.544   1.711   3.388 -1.9684  1.6589 -0.8537
  129OSM   H12T13784   3.582   1.880   3.347  0.8666  0.4746  2.4966
  129OSM   C13S13785   3.753   1.747   3.424 -0.5334 -0.4250  0.4205
  129OSM   H13S13786   3.836   1.805   3.377 -0.6826 -0.0682  0.5966
  129OSM   H13T13787   3.776   1.641   3.399  1.8762  0.3314 -0.9117
  129OSM   C14S13788   3.737   1.774   3.571  0.0534 -0.8365 -0.3737
  129OSM   H14S13789   3.695   1.876   3.586 -0.9714 -1.1427 -0.9886
  129OSM   H14T13790   3.840   1.783   3.610  1.0704 -2.1563 -2.5375
  129OSM   C15S13791   3.641   1.669   3.632  0.5494 -0.1176  0.0742
  129OSM   H15S13792   3.659   1.574   3.577 -1.1767  1.2414 -3.0824
  129OSM   H15T13793   3.535   1.698   3.614  0.3675 -0.6343  0.2859
  129OSM   C16S13794   3.676   1.639   3.778  0.1974 -0.5049  1.1370
  129OSM   H16S13795   3.684   1.733   3.836 -1.0063  2.1609 -2.6574
  129OSM   H16T13796   3.780   1.600   3.786  1.1361  1.6918  0.2867
  129OSM   C17S13797   3.574   1.549   3.840  0.1955 -0.0276 -0.7370
  129OSM   H17S13798   3.589   1.442   3.812  1.8939 -0.3230  1.0376
  129OSM   H17T13799   3.470   1.573   3.809 -0.0963  0.9698  0.9145
  129OSM   C18S13800   3.576   1.559   3.990  0.6033  0.0962  0.3042
  129OSM   H18S13801   3.673   1.531   4.036  0.6073  0.2300  0.3758
  129OSM   H18T13802   3.490   1.501   4.030  1.4692 -0.9618  0.7104
  129OSM   H18U13803   3.551   1.666   4.003 -1.1536 -0.3724  1.1101
  129OSM    C1F13804   3.577   1.376   2.301 -0.6288  0.5817 -0.8716
  129OSM     OF13805   3.621   1.260   2.296 -0.1960  0.0168 -0.3232
  129OSM    C2F13806   3.437   1.410   2.275 -0.0418 -0.9610 -0.3302
  129OSM    H2F13807   3.403   1.385   2.172  1.0164 -1.8338 -0.4908
  129OSM    H2G13808   3.422   1.519   2.290  0.8792 -0.3732 -3.0618
  129OSM    C3F13809   3.350   1.340   2.379 -0.0473  0.2105 -0.4843
  129OSM    H3F13810   3.377   1.379   2.480 -0.7162 -1.7265  0.4854
  129OSM    H3G13811   3.357   1.231   2.359  3.4204 -0.2108  2.1096
  129OSM    C4F13812   3.202   1.363   2.360  0.7775  0.1726  0.1192
  129OSM    H4F13813   3.163   1.334   2.260 -0.5572  2.0048  0.0603
  129OSM    H4G13814   3.187   1.471   2.378  0.3129 -0.0533  1.1417
  129OSM    C5F13815   3.122   1.295   2.469  0.1035  0.1851 -0.4615
  129OSM    H5F13816   3.170   1.312   2.568 -1.1422  0.0238  0.1792
  129OSM    H5G13817   3.125   1.185   2.451 -1.7789  0.3926 -2.5015
  129OSM    C6F13818   2.981   1.351   2.473  0.4169  0.1847 -0.6595
  129OSM    H6F13819   2.945   1.370   2.370 -1.9173 -0.1669  0.0138
  129OSM    H6G13820   2.982   1.446   2.532 -3.7255  0.8678 -1.3596
  129OSM    C7F13821   2.887   1.247   2.530  0.0285 -0.2027 -0.5819
  129OSM    H7F13822   2.943   1.202   2.615  1.1528  3.0731  0.5616
  129OSM    H7G13823   2.856   1.172   2.454 -2.7983  1.3005 -1.0672
  129OSM    C8F13824   2.762   1.312   2.595 -0.0548  0.8508 -0.1237
  129OSM    H8F13825   2.704   1.350   2.509 -1.3413 -1.6023 -0.4326
  129OSM    H8G13826   2.792   1.400   2.656 -1.4550  1.7754 -0.7278
  129OSM    C9F13827   2.689   1.211   2.681  0.6670  0.0905 -0.8220
  129OSM    H9F13828   2.591   1.191   2.635  0.7635  0.9067 -1.4030
  129OSM   C10F13829   2.728   1.158   2.800 -0.1039  0.8449 -0.3771
  129OSM   H10F13830   2.653   1.089   2.841  0.9824 -0.4870 -0.5822
  129OSM   C11F13831   2.855   1.192   2.881  0.7320  0.8963 -0.3282
  129OSM   H11F13832   2.880   1.301   2.882 -0.6237  1.2604  2.0747
  129OSM   H11G13833   2.937   1.132   2.836  0.3101  0.5243 -0.6070
  129OSM   C12F13834   2.856   1.148   3.036 -0.2709 -0.3435 -0.4855
  129OSM   H12F13835   2.952   1.183   3.078  0.4829 -1.6857 -1.0229
  129OSM   H12G13836   2.851   1.037   3.046  1.2229 -0.3982 -0.2359
  129OSM   C13F13837   2.734   1.202   3.101 -0.4765 -0.5747 -0.0729
  129OSM   H13F13838   2.644   1.186   3.039 -0.6184  1.2043 -0.3846
  129OSM   H13G13839   2.756   1.311   3.093  1.1446 -0.9896 -1.8537
  129OSM   C14F13840   2.721   1.163   3.248  0.2136 -0.0598 -0.5971
  129OSM   H14F13841   2.820   1.179   3.295 -0.4106 -0.6054  0.9539
  129OSM   H14G13842   2.700   1.055   3.236  0.1583  0.1042 -2.2047
  129OSM   C15F13843   2.612   1.234   3.322 -0.6379 -0.0970  0.1875
  129OSM   H15F13844   2.513   1.205   3.282 -0.9257  0.3231  0.5786
  129OSM   H15G13845   2.615   1.345   3.310  1.1864 -0.1530 -0.1901
  129OSM   C16F13846   2.632   1.196   3.470 -0.0493 -0.6064 -0.1534
  129OSM   H16F13847   2.731   1.240   3.492 -1.3841  2.1232  0.8795
  129OSM   H16G13848   2.632   1.086   3.485 -1.5746 -0.6472 -0.2069
  129OSM   C17F13849   2.517   1.252   3.552  0.1925  0.8740  0.5181
  129OSM   H17F13850   2.418   1.211   3.521  1.2483  0.4952 -2.7188
  129OSM   H17G13851   2.507   1.358   3.520 -1.1940  0.6547  0.1261
  129OSM   C18F13852   2.544   1.247   3.700  0.1722 -0.1752  0.6380
  129OSM   H18F13853   2.464   1.287   3.767 -0.9954 -2.0181  0.3995
  129OSM   H18G13854   2.639   1.304   3.710  1.2714 -2.0212  1.1396
  129OSM   H18H13855   2.564   1.143   3.734  1.7779 -0.3515 -0.7573
  130OSM      N13856   4.291   4.255   1.880 -0.1805  0.1063 -0.3880
  130OSM    C1513857   4.203   4.238   1.766 -0.1640 -0.2578  0.6304
  130OSM   H15A13858   4.177   4.336   1.728  1.9469  0.5848  1.2256
  130OSM   H15B13859   4.120   4.175   1.794 -0.9671  0.8444  0.7616
  130OSM   H15C13860   4.249   4.190   1.680  1.3388  1.0587  0.6382
  130OSM    C1413861   4.428   4.318   1.845 -0.0320 -0.1309 -0.0138
  130OSM   H14A13862   4.483   4.254   1.777 -0.2329 -1.2209  0.8202
  130OSM   H14B13863   4.490   4.331   1.933 -0.0384 -2.7707  0.4671
  130OSM   H14C13864   4.418   4.413   1.796  1.4604  0.1787  0.2465
  130OSM    C1313865   4.213   4.354   1.965 -0.8260  0.2370  0.1063
  130OSM   H13A13866   4.269   4.378   2.054 -1.3082  0.5550  0.3298
  130OSM   H13B13867   4.119   4.309   1.991 -0.7736 -1.1723 -1.9549
  130OSM   H13C13868   4.206   4.449   1.913  0.2217 -0.4148 -1.2731
  130OSM    C1213869   4.318   4.128   1.966  0.3142  0.1772  0.0660
  130OSM   H12A13870   4.362   4.052   1.904 -0.5860 -0.1718 -0.1596
  130OSM   H12B13871   4.224   4.090   2.003 -0.7636  2.5389 -0.0193
  130OSM    C1113872   4.420   4.145   2.083 -0.1361 -0.5503 -0.2521
  130OSM   H11A13873   4.420   4.066   2.161  3.1632 -1.8407 -1.3878
  130OSM   H11B13874   4.400   4.241   2.136 -1.8723 -1.1567  0.2511
  130OSM      P13875   4.617   4.026   1.943  0.0684 -0.2369 -0.4585
  130OSM    O1313876   4.532   3.983   1.838  0.5863 -0.5526  0.0401
  130OSM    O1413877   4.753   4.063   1.904 -0.6745  0.3066 -0.3884
  130OSM    O1113878   4.618   3.900   2.046  0.5055  0.3852  0.7851
  130OSM    O1213879   4.555   4.146   2.029 -1.0048 -0.1031 -0.1297
  130OSM    C1S13880   4.668   3.931   2.173 -0.0274 -0.1094  0.3000
  130OSM    H1S13881   4.598   4.007   2.215 -0.9013 -1.7424  1.9492
  130OSM    H1T13882   4.774   3.960   2.189  0.4923 -1.8883  0.3146
  130OSM     NF13883   4.684   3.849   2.402  0.3662 -0.6955  0.8910
  130OSM    HNF13884   4.777   3.829   2.429  1.2102  1.1126 -0.4518
  130OSM    C2S13885   4.642   3.812   2.262  0.3193 -0.5039 -0.4783
  130OSM    H2S13886   4.534   3.785   2.269  0.4105 -1.3353 -1.8106
  130OSM    C3S13887   4.723   3.683   2.207 -0.1026  0.2929  0.0335
  130OSM    H3S13888   4.829   3.714   2.220  0.1506 -0.8026  0.7324
  130OSM     O313889   4.704   3.656   2.071  0.4639 -0.1515  0.6799
  130OSM    HO313890   4.658   3.733   2.039  1.1477 -0.2326 -0.5373
  130OSM    C4S13891   4.685   3.568   2.295 -0.1844 -0.2884 -0.9152
  130OSM    H4S13892   4.758   3.541   2.372 -1.5964  1.0607  0.9888
  130OSM    C5S13893   4.576   3.485   2.287  0.1459 -0.7631  0.5222
  130OSM    H5S13894   4.511   3.504   2.200  1.8140 -1.8049 -1.0289
  130OSM    C6S13895   4.535   3.363   2.363  0.7007 -0.1622  0.6804
  130OSM    H6S13896   4.550   3.270   2.305 -0.0387 -0.7565  1.4186
  130OSM    H6T13897   4.427   3.373   2.385 -0.1216 -0.9833 -2.5886
  130OSM    C7S13898   4.613   3.350   2.489  0.0088  1.0519  0.0647
  130OSM    H7S13899   4.601   3.440   2.553  0.9142  1.4432 -0.2989
  130OSM    H7T13900   4.716   3.315   2.465 -0.4588  0.1373 -0.7010
  130OSM    C8S13901   4.565   3.241   2.587 -0.0238  0.2389  0.8170
  130OSM    H8S13902   4.562   3.134   2.554  0.1125  0.0504  1.4046
  130OSM    H8T13903   4.456   3.257   2.604  0.1860  0.9859  1.4808
  130OSM    C9S13904   4.639   3.244   2.709 -0.0627  0.8748  0.2857
  130OSM    H9S13905   4.600   3.317   2.784  1.2030  1.2800  0.5806
  130OSM    H9T13906   4.747   3.258   2.688  0.4591  0.2629  2.2860
  130OSM   C10S13907   4.650   3.110   2.784  0.6327  1.0932 -0.0124
  130OSM   H10S13908   4.707   3.042   2.717 -3.5112 -1.2604 -1.5648
  130OSM   H10T13909   4.557   3.049   2.792  1.9975 -1.1239 -0.0883
  130OSM   C11S13910   4.691   3.110   2.924 -1.3812 -0.5820  0.2244
  130OSM   H11S13911   4.780   3.177   2.925 -1.9064  0.1512 -0.7389
  130OSM   H11T13912   4.718   3.009   2.959  3.3360  0.4540  0.2296
  130OSM   C12S13913   4.604   3.181   3.027 -0.3058  0.0728 -0.2196
  130OSM   H12S13914   4.513   3.122   3.048 -0.8556  1.0516  0.1988
  130OSM   H12T13915   4.581   3.280   2.983  0.2588  1.0236  1.5302
  130OSM   C13S13916   4.686   3.201   3.157  0.1516 -0.0639 -0.4744
  130OSM   H13S13917   4.783   3.254   3.146  0.4519  0.2195  2.7030
  130OSM   H13T13918   4.682   3.099   3.202 -0.7068 -0.6727 -1.8646
  130OSM   C14S13919   4.596   3.274   3.259  0.4714  0.7130  0.7752
  130OSM   H14S13920   4.497   3.226   3.275  1.2874 -1.4429 -0.1971
  130OSM   H14T13921   4.580   3.376   3.219  2.1402  0.4624 -0.6910
  130OSM   C15S13922   4.661   3.301   3.398  0.2272 -0.1487  0.5680
  130OSM   H15S13923   4.745   3.370   3.374 -1.3349  1.3989 -0.7834
  130OSM   H15T13924   4.701   3.205   3.436 -1.0793 -0.0074  2.4842
  130OSM   C16S13925   4.564   3.367   3.505 -0.1034 -0.3169 -0.3742
  130OSM   H16S13926   4.465   3.321   3.489 -0.0259 -0.2117 -1.1909
  130OSM   H16T13927   4.541   3.475   3.489 -2.0708 -0.1775  2.5518
  130OSM   C17S13928   4.603   3.343   3.651 -0.5123  0.7858 -0.1326
  130OSM   H17S13929   4.699   3.394   3.669  1.5330 -2.8543  0.2802
  130OSM   H17T13930   4.638   3.238   3.661 -0.7485  0.7907  0.7827
  130OSM   C18S13931   4.484   3.375   3.744 -0.0827 -0.1630 -0.3534
  130OSM   H18S13932   4.519   3.349   3.846 -0.4165 -0.8063 -0.3923
  130OSM   H18T13933   4.400   3.304   3.726 -0.8854  0.9772 -1.2709
  130OSM   H18U13934   4.449   3.479   3.727 -4.1047 -1.2538 -0.0108
  130OSM    C1F13935   4.607   3.916   2.483  1.3480  0.0021  0.6012
  130OSM     OF13936   4.497   3.970   2.447  0.0377 -0.0231 -0.2397
  130OSM    C2F13937   4.661   3.942   2.619  0.2892  0.2747  0.4835
  130OSM    H2F13938   4.757   3.996   2.612  1.1173 -1.3079 -1.0932
  130OSM    H2G13939   4.681   3.852   2.682 -0.6710  1.6649  2.9058
  130OSM    C3F13940   4.561   4.020   2.702  0.1517 -0.3568  0.4409
  130OSM    H3F13941   4.472   3.953   2.705  0.8264 -1.3439 -0.6247
  130OSM    H3G13942   4.525   4.115   2.656 -0.1345 -0.2654  0.8428
  130OSM    C4F13943   4.604   4.036   2.845  0.1169 -0.2230 -0.0357
  130OSM    H4F13944   4.619   3.938   2.895  0.1703  0.6295  1.6820
  130OSM    H4G13945   4.514   4.079   2.894  0.1667 -0.0197 -0.1239
  130OSM    C5F13946   4.724   4.130   2.873 -0.2261 -0.6451 -0.1410
  130OSM    H5F13947   4.706   4.234   2.838  1.0416 -0.2252  0.4065
  130OSM    H5G13948   4.814   4.092   2.820 -0.0113 -0.4238  0.0673
  130OSM    C6F13949   4.763   4.157   3.014  0.1125  0.0391  0.0193
  130OSM    H6F13950   4.674   4.192   3.070  0.1815 -0.3975  0.4108
  130OSM    H6G13951   4.858   4.215   3.012 -0.0367  0.3521  1.4967
  130OSM    C7F13952   4.805   4.032   3.083 -0.2653 -0.3444  0.2389
  130OSM    H7F13953   4.877   3.971   3.024  1.2218  1.1186  0.4390
  130OSM    H7G13954   4.716   3.967   3.097 -0.5848  0.5415  2.9568
  130OSM    C8F13955   4.859   4.055   3.223 -0.1724 -0.8171 -0.5910
  130OSM    H8F13956   4.845   3.951   3.261 -1.3897 -0.2073  0.7360
  130OSM    H8G13957   4.778   4.113   3.273 -0.9550 -2.2132 -0.1911
  130OSM    C9F13958   5.000   4.114   3.230  0.4657  0.0008 -0.1563
  130OSM    H9F13959   5.049   4.162   3.144  1.5911 -1.1769 -0.2068
  130OSM   C10F13960   5.084   4.087   3.338  0.1755  0.1636 -0.0091
  130OSM   H10F13961   5.180   4.137   3.353 -0.9810  2.8634 -0.8895
  130OSM   C11F13962   5.032   4.017   3.461 -0.8410  0.3824  0.3346
  130OSM   H11F13963   5.067   3.915   3.486 -1.3383  0.6082  2.1387
  130OSM   H11G13964   4.922   4.005   3.470 -0.7534 -2.0555 -1.0795
  130OSM   C12F13965   5.068   4.111   3.579  0.3949  0.5004 -0.3000
  130OSM   H12F13966   5.005   4.203   3.566 -0.8831  0.4288  3.8636
  130OSM   H12G13967   5.175   4.141   3.572 -0.1530  2.6922 -0.2419
  130OSM   C13F13968   5.028   4.040   3.710  0.4481 -0.1471 -0.4365
  130OSM   H13F13969   5.088   3.947   3.716  1.2134  0.3924  0.4831
  130OSM   H13G13970   4.923   4.002   3.707  0.1567  0.6537 -0.6979
  130OSM   C14F13971   5.036   4.137   3.829 -0.3050  0.4943 -0.3263
  130OSM   H14F13972   4.947   4.202   3.841  1.3046  2.4616  1.7470
  130OSM   H14G13973   5.124   4.202   3.811 -1.5354  2.2212 -0.3168
  130OSM   C15F13974   5.069   4.064   3.961  0.4751  0.2855 -0.5657
  130OSM   H15F13975   5.135   3.976   3.947 -0.2033 -0.5041  0.9101
  130OSM   H15G13976   4.976   4.022   4.004 -0.8468  1.3291 -2.2558
  130OSM   C16F13977   5.136   4.145   4.069 -0.6818  0.3868  0.5692
  130OSM   H16F13978   5.210   4.207   4.016 -0.8950 -0.7846 -1.1815
  130OSM   H16G13979   5.191   4.069   4.129 -0.5715 -0.3993 -0.4907
  130OSM   C17F13980   5.043   4.235   4.145 -0.5301 -0.0867 -0.2630
  130OSM   H17F13981   4.977   4.173   4.209 -0.3739 -1.8613 -1.7427
  130OSM   H17G13982   4.983   4.286   4.067 -0.4664 -0.3053 -0.4535
  130OSM   C18F13983   5.107   4.344   4.225 -0.4821  0.9148  0.0476
  130OSM   H18F13984   5.195   4.312   4.285 -0.8940 -1.3091 -0.4663
  130OSM   H18G13985   5.026   4.393   4.283 -1.5980 -0.7442 -0.0313
  130OSM   H18H13986   5.153   4.409   4.148  0.9373  0.4589  0.4738
  131OSM      N13987   2.279   1.281   2.121  0.4625  0.0857 -0.0913
  131OSM    C1513988   2.356   1.196   2.027  0.2316 -0.2825 -0.1392
  131OSM   H15A13989   2.458   1.229   2.032  1.9850 -5.1031  1.2459
  131OSM   H15B13990   2.316   1.214   1.928 -0.0956 -1.6344 -0.2741
  131OSM   H15C13991   2.339   1.091   2.047 -0.6095 -0.4956 -1.7645
  131OSM    C1413992   2.301   1.427   2.080  0.0285 -1.0906 -0.0035
  131OSM   H14A13993   2.277   1.439   1.975  3.4317 -2.2327 -1.0593
  131OSM   H14B13994   2.401   1.462   2.098 -0.6877  1.5852 -0.7951
  131OSM   H14C13995   2.238   1.489   2.141  0.4396 -1.3739  0.7181
  131OSM    C1313996   2.134   1.251   2.106  0.0662  0.0763 -0.4591
  131OSM   H13A13997   2.077   1.310   2.176 -2.1056 -1.0194 -1.1853
  131OSM   H13B13998   2.110   1.148   2.126  2.7555 -0.8721 -1.6015
  131OSM   H13C13999   2.106   1.280   2.005  1.2245  2.3733 -0.1804
  131OSM    C1214000   2.323   1.262   2.267 -0.1730 -0.1690  0.5526
  131OSM   H12A14001   2.358   1.160   2.267  0.4873  0.0341 -0.4526
  131OSM   H12B14002   2.234   1.269   2.327  0.5880  0.5672  1.6289
  131OSM    C1114003   2.438   1.350   2.328  0.2385 -0.8346 -0.1639
  131OSM   H11A14004   2.458   1.318   2.432 -1.6533  0.6650  0.7076
  131OSM   H11B14005   2.388   1.449   2.327  0.8797 -0.5018 -0.5736
  131OSM      P14006   2.648   1.479   2.235  0.0974 -0.2559  0.5888
  131OSM    O1314007   2.785   1.436   2.190  0.2293  0.0151 -0.5876
  131OSM    O1414008   2.579   1.573   2.147 -0.0966 -0.6055  0.5504
  131OSM    O1114009   2.653   1.539   2.384 -0.0647 -0.2328 -0.0034
  131OSM    O1214010   2.554   1.351   2.252  0.7211 -0.0128  0.3527
  131OSM    C1S14011   2.570   1.642   2.425 -0.2030 -0.5492  0.6206
  131OSM    H1S14012   2.466   1.603   2.419  0.9348 -3.5901 -2.1407
  131OSM    H1T14013   2.578   1.733   2.361 -1.3684  0.3589  1.7076
  131OSM     NF14014   2.474   1.789   2.609 -0.4195  0.1389  0.6883
  131OSM    HNF14015   2.507   1.883   2.619 -0.6610  0.2516  0.4636
  131OSM    C2S14016   2.578   1.687   2.573  0.0449  0.1152  0.2601
  131OSM    H2S14017   2.556   1.599   2.637 -0.6394  0.6978  0.8372
  131OSM    C3S14018   2.726   1.732   2.602  0.3725 -0.1747 -0.0785
  131OSM    H3S14019   2.733   1.839   2.575 -1.7272  0.6447  2.3009
  131OSM     O314020   2.825   1.649   2.539 -0.7612 -0.8266 -0.3101
  131OSM    HO314021   2.778   1.579   2.494 -0.5452 -0.3764 -1.2667
  131OSM    C4S14022   2.734   1.743   2.759 -0.1264 -0.1693  0.3571
  131OSM    H4S14023   2.643   1.769   2.816 -1.1189  2.1814 -2.1018
  131OSM    C5S14024   2.838   1.700   2.834 -0.1087  0.1808  0.6989
  131OSM    H5S14025   2.913   1.641   2.780  1.2833  1.2851  1.3672
  131OSM    C6S14026   2.868   1.702   2.983  0.8520 -0.5181 -0.0073
  131OSM    H6S14027   2.968   1.746   3.004  0.6061 -0.8905  2.2179
  131OSM    H6T14028   2.874   1.598   3.022  0.2856  0.2781  2.3999
  131OSM    C7S14029   2.765   1.783   3.069 -0.2744  0.4354  0.1513
  131OSM    H7S14030   2.665   1.745   3.043  0.2390 -0.4201 -0.6263
  131OSM    H7T14031   2.769   1.888   3.032  0.7867  0.4456  0.2525
  131OSM    C8S14032   2.767   1.774   3.224  0.3067  0.1033  0.1061
  131OSM    H8S14033   2.868   1.796   3.264  0.5907 -0.2034 -0.4194
  131OSM    H8T14034   2.741   1.670   3.255 -1.0501  0.9255  1.8952
  131OSM    C9S14035   2.663   1.860   3.303 -0.7272  0.3751  0.2239
  131OSM    H9S14036   2.665   1.831   3.410  0.9713 -1.2076 -0.1783
  131OSM    H9T14037   2.565   1.844   3.254 -0.7823  0.8416  0.1852
  131OSM   C10S14038   2.711   2.002   3.307  0.3649  0.3667  0.4410
  131OSM   H10S14039   2.618   2.057   3.334 -0.2144 -1.0813  1.5327
  131OSM   H10T14040   2.751   2.041   3.211  0.5006  1.2469  0.8452
  131OSM   C11S14041   2.798   2.045   3.423 -0.5647  0.0091  0.2696
  131OSM   H11S14042   2.883   1.974   3.431 -1.5067 -1.0213  1.9119
  131OSM   H11T14043   2.737   2.036   3.515 -1.5388  0.1350 -0.3471
  131OSM   C12S14044   2.859   2.184   3.405 -0.0328  0.9475 -0.4982
  131OSM   H12S14045   2.780   2.255   3.436 -0.2243  0.8689 -0.8098
  131OSM   H12T14046   2.898   2.196   3.301  0.0053  0.2579 -0.5705
  131OSM   C13S14047   2.976   2.208   3.507  0.7058  0.3956  0.8499
  131OSM   H13S14048   3.053   2.274   3.463  1.8929 -1.1027  0.5856
  131OSM   H13T14049   3.021   2.107   3.521 -2.0970 -1.2377 -0.8858
  131OSM   C14S14050   2.923   2.262   3.643 -0.0372 -0.2304 -0.7397
  131OSM   H14S14051   2.865   2.182   3.694 -0.0611  0.2492 -0.0010
  131OSM   H14T14052   2.856   2.350   3.627  1.0693  0.6110 -0.8407
  131OSM   C15S14053   3.026   2.311   3.742 -0.1168 -0.3266 -0.8469
  131OSM   H15S14054   3.111   2.360   3.689  1.4512 -1.1596  0.7947
  131OSM   H15T14055   3.063   2.217   3.788  3.1686  1.5986  0.8373
  131OSM   C16S14056   2.954   2.394   3.847 -0.1649 -0.2055  0.6685
  131OSM   H16S14057   2.873   2.333   3.893  0.2090 -0.9091  0.4202
  131OSM   H16T14058   2.911   2.483   3.796  0.1198 -1.0409 -1.1337
  131OSM   C17S14059   3.047   2.442   3.952 -0.3804  0.8135  0.1699
  131OSM   H17S14060   3.124   2.507   3.905  1.9971 -1.7325  0.2665
  131OSM   H17T14061   3.108   2.358   3.991  2.0171  1.1750 -2.5078
  131OSM   C18S14062   2.978   2.497   4.075  0.3706 -0.1160 -0.1127
  131OSM   H18S14063   2.909   2.578   4.042 -2.1686 -1.1410  2.2955
  131OSM   H18T14064   3.051   2.542   4.145 -1.0888 -0.1470  1.4943
  131OSM   H18U14065   2.916   2.422   4.130  0.2793 -0.4738 -0.6905
  131OSM    C1F14066   2.341   1.760   2.614 -0.5560  0.4237 -0.4943
  131OSM     OF14067   2.308   1.644   2.614  0.2202 -0.2279 -0.0787
  131OSM    C2F14068   2.247   1.872   2.609 -0.9332  0.4846  0.7230
  131OSM    H2F14069   2.274   1.941   2.526  2.3904 -0.9137  0.4944
  131OSM    H2G14070   2.251   1.937   2.700  0.7557  0.1269  0.9424
  131OSM    C3F14071   2.098   1.841   2.576  0.5731  0.5187  0.6860
  131OSM    H3F14072   2.101   1.761   2.499 -0.3262  0.7307  0.4281
  131OSM    H3G14073   2.039   1.929   2.542  1.4030  0.0827 -2.1971
  131OSM    C4F14074   2.018   1.767   2.681  0.5856  0.1717  0.3555
  131OSM    H4F14075   2.054   1.662   2.694 -0.1115  0.0363  1.2931
  131OSM    H4G14076   1.914   1.764   2.641  1.4105 -2.6922 -1.9524
  131OSM    C5F14077   2.022   1.838   2.816  1.6621 -0.2327 -0.2033
  131OSM    H5F14078   2.020   1.949   2.809  1.9998 -0.0823  1.6298
  131OSM    H5G14079   2.113   1.805   2.871  2.0790  1.5649  0.2565
  131OSM    C6F14080   1.887   1.798   2.888 -0.5863 -0.5282  0.2906
  131OSM    H6F14081   1.881   1.689   2.909  0.0237 -0.6437 -0.1224
  131OSM    H6G14082   1.809   1.818   2.811 -0.2726 -1.2108 -0.2103
  131OSM    C7F14083   1.843   1.869   3.012  0.1148  0.6774 -0.1374
  131OSM    H7F14084   1.852   1.980   3.019  2.1991  0.5658 -0.4296
  131OSM    H7G14085   1.905   1.845   3.101  2.0819  1.9665 -1.0995
  131OSM    C8F14086   1.696   1.837   3.054  0.3465 -0.2494 -0.5894
  131OSM    H8F14087   1.626   1.845   2.968 -0.9660  1.4617  0.5759
  131OSM    H8G14088   1.665   1.924   3.115  1.2034 -0.1639 -0.2645
  131OSM    C9F14089   1.665   1.708   3.120  0.7575  0.4658 -0.1581
  131OSM    H9F14090   1.670   1.623   3.050 -1.0692  0.5791 -0.4755
  131OSM   C10F14091   1.628   1.677   3.250 -0.0237  0.3059  0.0835
  131OSM   H10F14092   1.594   1.573   3.265 -0.1791 -0.1586 -2.9290
  131OSM   C11F14093   1.624   1.778   3.358  0.1946 -0.4945 -0.1541
  131OSM   H11F14094   1.666   1.878   3.337  2.9930 -0.7245  3.3403
  131OSM   H11G14095   1.690   1.738   3.438  2.6342  0.4400 -1.6055
  131OSM   C12F14096   1.481   1.805   3.412  0.5049  0.5630  0.4121
  131OSM   H12F14097   1.449   1.709   3.458  2.4144 -0.7190 -0.8171
  131OSM   H12G14098   1.410   1.842   3.335  1.1980 -1.1938 -1.1471
  131OSM   C13F14099   1.472   1.900   3.537 -0.0176  0.4021  0.5787
  131OSM   H13F14100   1.367   1.932   3.553 -0.9506 -1.6142 -0.9474
  131OSM   H13G14101   1.541   1.984   3.515  0.0770  0.3184  0.5508
  131OSM   C14F14102   1.528   1.822   3.657 -0.0756 -0.0917 -0.5830
  131OSM   H14F14103   1.629   1.781   3.638 -0.1663  0.6279 -2.9811
  131OSM   H14G14104   1.463   1.735   3.681  1.7888 -1.1203  0.9844
  131OSM   C15F14105   1.541   1.912   3.782 -0.6470  0.1285  0.1821
  131OSM   H15F14106   1.439   1.952   3.797 -0.9897  0.1814 -1.9578
  131OSM   H15G14107   1.617   1.989   3.756  0.1454  0.0467  2.0960
  131OSM   C16F14108   1.591   1.835   3.909 -0.4995  0.2742 -0.1694
  131OSM   H16F14109   1.524   1.749   3.933  0.2298 -0.4185 -0.5448
  131OSM   H16G14110   1.582   1.904   3.996 -0.5158 -1.3822  1.2027
  131OSM   C17F14111   1.738   1.786   3.896  0.3427 -0.3541  0.1799
  131OSM   H17F14112   1.795   1.875   3.861 -1.3231  1.1211  1.0351
  131OSM   H17G14113   1.742   1.702   3.823 -2.6778 -2.0082  1.7331
  131OSM   C18F14114   1.792   1.724   4.017 -0.0878 -0.5101  0.3541
  131OSM   H18F14115   1.833   1.799   4.087  0.1783  0.6070 -0.9622
  131OSM   H18G14116   1.878   1.657   3.995 -0.3512 -0.5193 -0.7317
  131OSM   H18H14117   1.716   1.662   4.069 -1.1411  0.6719  0.2494
  132OSM      N14118   2.110   2.578   1.585  0.5007 -0.0853  0.2549
  132OSM    C1514119   2.104   2.720   1.626  0.6123  0.0247 -0.6660
  132OSM   H15A14120   2.149   2.722   1.724  0.1121  0.1002 -0.4365
  132OSM   H15B14121   2.006   2.765   1.632  0.0642 -1.1883 -0.0331
  132OSM   H15C14122   2.172   2.774   1.561  3.5612  1.5065  3.2173
  132OSM    C1414123   2.056   2.564   1.443 -0.1410  0.2137 -0.3920
  132OSM   H14A14124   2.072   2.469   1.394  0.9733 -1.4926  2.9833
  132OSM   H14B14125   2.103   2.643   1.386 -1.2779  0.8605 -0.4572
  132OSM   H14C14126   1.949   2.580   1.444  0.0842  1.9705  1.1478
  132OSM    C1314127   2.254   2.529   1.579  0.5492  0.1326  0.0156
  132OSM   H13A14128   2.294   2.547   1.480  1.4090  1.8221  0.6228
  132OSM   H13B14129   2.271   2.425   1.604  3.4216  0.5720  0.3346
  132OSM   H13C14130   2.317   2.586   1.646  0.0452  0.4812  0.1917
  132OSM    C1214131   2.027   2.489   1.678 -0.1869 -0.2163 -0.0863
  132OSM   H12A14132   2.021   2.388   1.639 -2.0172 -0.4095  0.6036
  132OSM   H12B14133   1.923   2.516   1.682 -0.6758 -1.8869 -0.6890
  132OSM    C1114134   2.063   2.478   1.826  0.1659 -1.1310  0.1204
  132OSM   H11A14135   1.973   2.443   1.881 -0.6201  0.3660 -0.1701
  132OSM   H11B14136   2.083   2.579   1.867  0.0101  0.5699 -3.6102
  132OSM      P14137   2.171   2.250   1.900 -0.2452  0.0280 -0.0357
  132OSM    O1314138   2.053   2.183   1.838 -0.2937 -0.3538  0.8720
  132OSM    O1414139   2.303   2.186   1.883  0.1841 -0.0918 -0.4661
  132OSM    O1114140   2.144   2.269   2.053  0.8445  0.0475  0.1603
  132OSM    O1214141   2.180   2.401   1.842 -0.3324  0.0006 -0.4945
  132OSM    C1S14142   2.107   2.390   2.112 -0.0687 -0.2607 -0.6841
  132OSM    H1S14143   2.005   2.425   2.086 -1.5682 -3.8266 -0.1284
  132OSM    H1T14144   2.184   2.466   2.084  0.9162  0.2513  2.8778
  132OSM     NF14145   2.054   2.498   2.328  0.0438  0.1870  0.5470
  132OSM    HNF14146   2.115   2.566   2.366  1.6632 -0.4637 -0.7803
  132OSM    C2S14147   2.104   2.371   2.265  0.7221  0.3819 -0.1789
  132OSM    H2S14148   2.037   2.290   2.300 -0.8241  2.1083  1.0445
  132OSM    C3S14149   2.255   2.346   2.309 -0.1939  0.3527  0.2684
  132OSM    H3S14150   2.316   2.428   2.266  1.3293 -0.3123  1.1098
  132OSM     O314151   2.320   2.223   2.256  0.5918 -0.3797  0.0503
  132OSM    HO314152   2.270   2.181   2.186  1.5244 -0.8574 -0.3452
  132OSM    C4S14153   2.271   2.349   2.456 -0.3176 -0.3619 -0.4610
  132OSM    H4S14154   2.319   2.441   2.492  0.6765 -0.5945 -1.1715
  132OSM    C5S14155   2.241   2.249   2.544 -0.0642  0.3205  0.4793
  132OSM    H5S14156   2.227   2.154   2.491  1.5033  0.2827  0.0798
  132OSM    C6S14157   2.254   2.236   2.693  0.5939  0.2235  0.1498
  132OSM    H6S14158   2.324   2.155   2.721 -0.7386 -1.4571 -1.1424
  132OSM    H6T14159   2.152   2.209   2.729 -0.0484  4.3415  1.9873
  132OSM    C7S14160   2.288   2.371   2.765 -0.6509  0.5132 -0.2508
  132OSM    H7S14161   2.276   2.359   2.875 -1.2296  0.2938 -0.3344
  132OSM    H7T14162   2.241   2.464   2.725  0.8784  1.1551 -0.6136
  132OSM    C8S14163   2.435   2.413   2.750  0.0224 -0.1938  0.5291
  132OSM    H8S14164   2.456   2.447   2.646 -2.6423  0.5233  0.1391
  132OSM    H8T14165   2.514   2.336   2.763  1.3143  0.7540 -1.1372
  132OSM    C9S14166   2.468   2.532   2.847  0.2494 -0.2485 -0.1514
  132OSM    H9S14167   2.492   2.503   2.951  2.1886 -1.0402 -0.7640
  132OSM    H9T14168   2.373   2.586   2.868  0.8054  0.9547 -0.6569
  132OSM   C10S14169   2.565   2.633   2.795  0.1678  0.3839  0.3874
  132OSM   H10S14170   2.574   2.722   2.862  3.1383 -0.3837  1.1778
  132OSM   H10T14171   2.532   2.674   2.697  1.5444  1.9689  0.5302
  132OSM   C11S14172   2.710   2.578   2.784  0.3422 -0.1603  0.5692
  132OSM   H11S14173   2.789   2.651   2.757  1.0963 -1.2758 -0.3668
  132OSM   H11T14174   2.701   2.518   2.691  0.2880  0.9001 -0.1336
  132OSM   C12S14175   2.766   2.473   2.882 -0.8152 -0.6471  0.0365
  132OSM   H12S14176   2.857   2.432   2.833 -0.8161  0.9182 -1.3426
  132OSM   H12T14177   2.689   2.393   2.890 -0.3279 -1.1524 -0.2968
  132OSM   C13S14178   2.813   2.534   3.011 -0.3229 -0.0204 -0.2491
  132OSM   H13S14179   2.731   2.605   3.034 -0.2036 -0.4663  1.7105
  132OSM   H13T14180   2.911   2.585   3.000  0.3415 -0.9659  1.0744
  132OSM   C14S14181   2.819   2.439   3.128 -0.1939 -0.7405 -0.1428
  132OSM   H14S14182   2.872   2.492   3.210 -1.3803  0.2404  0.0324
  132OSM   H14T14183   2.876   2.350   3.095  0.6682  0.2762 -1.5067
  132OSM   C15S14184   2.683   2.395   3.189  0.7488  0.2024 -0.3754
  132OSM   H15S14185   2.706   2.321   3.269  0.5427  0.3570 -0.1706
  132OSM   H15T14186   2.610   2.359   3.114 -1.1085  1.2388  0.8767
  132OSM   C16S14187   2.608   2.501   3.275 -0.1454 -0.5191  0.1961
  132OSM   H16S14188   2.559   2.575   3.209 -0.6053 -1.3965 -0.4778
  132OSM   H16T14189   2.675   2.554   3.345 -2.5155  0.0876  2.1201
  132OSM   C17S14190   2.489   2.441   3.356 -0.5032 -0.5101 -0.0612
  132OSM   H17S14191   2.524   2.341   3.389 -1.3396 -0.9615 -0.4797
  132OSM   H17T14192   2.402   2.431   3.287 -0.8611 -0.8745  0.4333
  132OSM   C18S14193   2.456   2.523   3.480  0.5000  0.0363  0.0211
  132OSM   H18S14194   2.550   2.517   3.538 -1.2178 -0.5330  2.9628
  132OSM   H18T14195   2.370   2.472   3.528 -0.1484  2.0095  1.0660
  132OSM   H18U14196   2.421   2.626   3.456 -2.3284 -0.3076  2.1223
  132OSM    C1F14197   1.917   2.507   2.333 -0.2716 -0.4272  0.4075
  132OSM     OF14198   1.842   2.424   2.282  0.2770  0.1258 -0.1060
  132OSM    C2F14199   1.858   2.629   2.378  0.1784 -0.7347 -0.2406
  132OSM    H2F14200   1.774   2.660   2.312 -0.1016  0.7096  0.7606
  132OSM    H2G14201   1.939   2.704   2.375 -0.5888  0.1575  0.7924
  132OSM    C3F14202   1.807   2.634   2.522  0.4219 -0.1465 -0.5081
  132OSM    H3F14203   1.725   2.560   2.534 -0.4512  0.8470 -0.1816
  132OSM    H3G14204   1.773   2.740   2.532  1.1605  0.3811 -3.0553
  132OSM    C4F14205   1.916   2.613   2.627 -1.0466  0.7078  0.5291
  132OSM    H4F14206   1.982   2.701   2.612 -1.8364  1.0371 -1.4505
  132OSM    H4G14207   1.977   2.521   2.627 -0.0759  1.3401  0.7602
  132OSM    C5F14208   1.865   2.637   2.767 -0.9515 -0.1598 -0.1813
  132OSM    H5F14209   1.841   2.538   2.812  0.3458 -0.6390 -0.5004
  132OSM    H5G14210   1.778   2.705   2.776  0.0601  1.2763 -0.9629
  132OSM    C6F14211   1.972   2.701   2.854  0.2753  0.4574  0.4258
  132OSM    H6F14212   1.998   2.800   2.809 -0.3616  0.6630  0.5009
  132OSM    H6G14213   2.068   2.646   2.846  1.1948  2.1295 -0.6822
  132OSM    C7F14214   1.940   2.709   3.003 -0.3604  0.1977  0.4851
  132OSM    H7F14215   1.832   2.723   3.022 -0.6987  0.2854 -1.3341
  132OSM    H7G14216   1.997   2.796   3.042  2.6888 -2.0348  1.4369
  132OSM    C8F14217   1.980   2.580   3.082  0.5471 -0.0604  0.5031
  132OSM    H8F14218   1.943   2.487   3.035 -0.6252  1.4982 -1.8527
  132OSM    H8G14219   1.925   2.587   3.179  4.1382  0.4750  2.6820
  132OSM    C9F14220   2.125   2.569   3.113  0.2877 -0.1277 -0.2088
  132OSM    H9F14221   2.191   2.516   3.042  0.9788  1.4641 -0.8135
  132OSM   C10F14222   2.191   2.614   3.227  0.5550  0.3229 -0.0938
  132OSM   H10F14223   2.301   2.610   3.235  0.4792  0.1331  1.0181
  132OSM   C11F14224   2.133   2.695   3.338  1.2553  0.1714 -0.6331
  132OSM   H11F14225   2.055   2.758   3.290 -0.4943 -1.4109  0.0327
  132OSM   H11G14226   2.207   2.764   3.386  0.7057  0.6783 -0.4979
  132OSM   C12F14227   2.061   2.614   3.452  0.8206 -0.4263  0.4525
  132OSM   H12F14228   2.136   2.534   3.472  1.7289 -0.2042 -1.7471
  132OSM   H12G14229   1.973   2.577   3.396 -0.5328  1.4449  1.2319
  132OSM   C13F14230   2.021   2.697   3.573 -0.4529 -0.8009 -0.3081
  132OSM   H13F14231   1.959   2.788   3.554 -0.5910 -0.7017  0.5655
  132OSM   H13G14232   2.110   2.743   3.621 -1.1764 -0.9042  1.1995
  132OSM   C14F14233   1.956   2.608   3.679 -0.0672  0.2260 -0.4078
  132OSM   H14F14234   2.034   2.563   3.743 -0.4930  0.5083  0.3303
  132OSM   H14G14235   1.892   2.528   3.635 -1.0882  0.3463  0.7765
  132OSM   C15F14236   1.871   2.696   3.768  0.1518 -0.3109  0.8449
  132OSM   H15F14237   1.800   2.637   3.830 -0.9113  0.8922  0.8081
  132OSM   H15G14238   1.811   2.764   3.705  0.0215 -0.9169  0.3146
  132OSM   C16F14239   1.947   2.790   3.864 -0.0420  0.0587 -0.7911
  132OSM   H16F14240   2.038   2.836   3.820  0.5282  1.9796  2.1280
  132OSM   H16G14241   1.975   2.734   3.956 -0.8477  1.0828  0.1005
  132OSM   C17F14242   1.860   2.910   3.906  0.1475  0.0390 -0.2264
  132OSM   H17F14243   1.767   2.882   3.960  0.0787  1.4906  0.4647
  132OSM   H17G14244   1.843   2.979   3.821 -1.0652 -0.9770 -0.8471
  132OSM   C18F14245   1.924   3.001   4.012 -0.6958 -0.2205 -0.5429
  132OSM   H18F14246   2.035   2.997   4.003 -0.5475 -0.8204  1.1526
  132OSM   H18G14247   1.895   2.966   4.113 -0.7604  2.7429  0.5661
  132OSM   H18H14248   1.900   3.109   4.000 -2.8748 -0.5475  0.5137
  133OSM      N14249   6.534   1.758   1.991 -0.1800  0.2561  0.4325
  133OSM    C1514250   6.501   1.823   1.865 -0.6394 -0.3887  0.1321
  133OSM   H15A14251   6.525   1.929   1.869  0.7627 -0.7184  2.6623
  133OSM   H15B14252   6.396   1.812   1.846 -0.6444 -1.4624  0.7229
  133OSM   H15C14253   6.564   1.787   1.785  1.1211 -1.1600  1.7871
  133OSM    C1414254   6.668   1.797   2.040 -0.5878  0.3115  0.0995
  133OSM   H14A14255   6.682   1.751   2.137 -0.2472 -2.0503 -0.9993
  133OSM   H14B14256   6.659   1.904   2.052 -4.0450  0.3610 -1.4869
  133OSM   H14C14257   6.747   1.765   1.974  1.0933  2.6330  0.8663
  133OSM    C1314258   6.429   1.802   2.091 -0.0232 -0.0505  0.1228
  133OSM   H13A14259   6.460   1.763   2.187  1.1621  1.4573  0.3859
  133OSM   H13B14260   6.330   1.770   2.060  0.0883 -1.0759  0.7550
  133OSM   H13C14261   6.424   1.909   2.097 -3.1494  0.0180 -1.6554
  133OSM    C1214262   6.524   1.600   1.975  0.5809  0.4854  0.2507
  133OSM   H12A14263   6.587   1.570   1.893 -0.2190  1.7827 -0.8984
  133OSM   H12B14264   6.422   1.569   1.958  0.2953  1.2503  0.5005
  133OSM    C1114265   6.575   1.523   2.095 -0.5398 -0.0686  0.2010
  133OSM   H11A14266   6.682   1.549   2.112 -0.0755  0.5684 -3.0232
  133OSM   H11B14267   6.573   1.420   2.053 -2.8280  0.3572 -0.8888
  133OSM      P14268   6.410   1.407   2.266 -0.1169  0.0471 -0.1721
  133OSM    O1314269   6.323   1.441   2.380 -0.1115 -0.3410  0.2439
  133OSM    O1414270   6.338   1.339   2.153 -0.1460  0.2483 -0.1881
  133OSM    O1114271   6.525   1.303   2.320  0.2137 -0.6574  0.1362
  133OSM    O1214272   6.491   1.531   2.209 -0.2806 -0.0539  0.6399
  133OSM    C1S14273   6.616   1.364   2.415 -0.8365  0.6482 -0.2016
  133OSM    H1S14274   6.642   1.471   2.398  0.8204  0.5787  1.5601
  133OSM    H1T14275   6.710   1.307   2.412  0.0831  1.9286  1.7803
  133OSM     NF14276   6.689   1.389   2.646  0.1272 -0.9347  0.4843
  133OSM    HNF14277   6.754   1.321   2.679  0.8167 -1.2432 -1.3519
  133OSM    C2S14278   6.569   1.349   2.567  0.5190 -0.0958  0.3473
  133OSM    H2S14279   6.489   1.426   2.572  1.7446  1.3666 -1.3280
  133OSM    C3S14280   6.517   1.207   2.599 -0.0630  0.3901  0.0885
  133OSM    H3S14281   6.606   1.143   2.584  1.1927  2.4203 -1.6978
  133OSM     O314282   6.424   1.151   2.508  0.0876  0.2178  0.4138
  133OSM    HO314283   6.428   1.208   2.431  0.2348  1.1916  1.1299
  133OSM    C4S14284   6.473   1.191   2.744 -0.6389 -0.7187 -0.3896
  133OSM    H4S14285   6.560   1.189   2.812 -1.4949  0.9468  0.8260
  133OSM    C5S14286   6.350   1.175   2.800  0.4271  0.5988 -0.3086
  133OSM    H5S14287   6.257   1.156   2.745 -0.5688 -0.5063  1.6126
  133OSM    C6S14288   6.305   1.180   2.949  0.2568 -0.0653  0.1630
  133OSM    H6S14289   6.273   1.077   2.975 -0.3942 -1.1246 -3.9804
  133OSM    H6T14290   6.210   1.235   2.965  0.0520 -0.5872  0.7880
  133OSM    C7S14291   6.415   1.232   3.039  0.2219 -0.0416  0.5463
  133OSM    H7S14292   6.425   1.337   3.005 -0.3116  0.1318  0.9254
  133OSM    H7T14293   6.509   1.174   3.028  0.7141  1.0936 -2.1578
  133OSM    C8S14294   6.364   1.235   3.183  0.3983 -0.0441 -0.0520
  133OSM    H8S14295   6.365   1.131   3.222 -1.9918 -1.6184 -3.6939
  133OSM    H8T14296   6.255   1.261   3.179  0.5802  0.8013  0.1893
  133OSM    C9S14297   6.446   1.328   3.279 -0.5163  0.6743 -0.3631
  133OSM    H9S14298   6.456   1.429   3.234  0.3622  0.3068 -1.0230
  133OSM    H9T14299   6.548   1.283   3.283 -0.4024  0.6774 -2.4275
  133OSM   C10S14300   6.385   1.344   3.416  0.2955  0.8826 -0.2708
  133OSM   H10S14301   6.278   1.374   3.409  0.5536  1.8035 -0.4102
  133OSM   H10T14302   6.422   1.425   3.483  3.0206 -0.8005  0.4041
  133OSM   C11S14303   6.360   1.210   3.500  0.3026  0.3673  0.2577
  133OSM   H11S14304   6.458   1.158   3.496  0.2965  0.3231  0.6845
  133OSM   H11T14305   6.290   1.138   3.452  0.7706  0.2654 -0.2822
  133OSM   C12S14306   6.332   1.229   3.649 -0.8713  0.1701 -0.2639
  133OSM   H12S14307   6.431   1.240   3.698 -1.9341 -0.4533  2.1805
  133OSM   H12T14308   6.284   1.137   3.689 -1.2286  0.3516 -0.2757
  133OSM   C13S14309   6.232   1.340   3.692  0.1693  0.7854 -0.5176
  133OSM   H13S14310   6.150   1.351   3.617  0.1830 -0.7757 -0.7840
  133OSM   H13T14311   6.301   1.427   3.683  0.6619  0.3385 -1.0888
  133OSM   C14S14312   6.174   1.307   3.832 -0.2518  0.2085 -0.9959
  133OSM   H14S14313   6.139   1.202   3.844 -0.2461  0.2175 -0.9024
  133OSM   H14T14314   6.087   1.371   3.857  0.3072  0.3021  0.7883
  133OSM   C15S14315   6.289   1.342   3.934  0.0155  0.3240 -0.2892
  133OSM   H15S14316   6.300   1.453   3.935  1.1316  0.2370 -0.7222
  133OSM   H15T14317   6.389   1.303   3.905 -0.3114  0.5356 -1.7777
  133OSM   C16S14318   6.261   1.310   4.082  0.2624 -0.4223 -0.4738
  133OSM   H16S14319   6.247   1.200   4.091 -0.8046 -0.2702 -0.1676
  133OSM   H16T14320   6.176   1.359   4.133 -0.3469  0.9788 -2.6996
  133OSM   C17S14321   6.389   1.353   4.157  0.8200 -0.2859  0.6012
  133OSM   H17S14322   6.413   1.454   4.119 -1.8412  0.2354  0.1190
  133OSM   H17T14323   6.474   1.284   4.137 -1.1242 -2.3670 -1.1406
  133OSM   C18S14324   6.369   1.356   4.309  0.7754 -0.0121 -0.3049
  133OSM   H18S14325   6.310   1.266   4.338  1.1798 -1.7439 -4.2760
  133OSM   H18T14326   6.321   1.450   4.345  3.1001  0.5145  1.6657
  133OSM   H18U14327   6.470   1.340   4.353  1.1735  1.2648 -0.6975
  133OSM    C1F14328   6.720   1.524   2.648  0.1823  0.0553  0.0534
  133OSM     OF14329   6.645   1.600   2.594 -0.0367 -0.0908  0.4540
  133OSM    C2F14330   6.847   1.556   2.716  0.5600  0.1811 -0.1626
  133OSM    H2F14331   6.895   1.459   2.742  0.4716 -0.2397 -1.4883
  133OSM    H2G14332   6.835   1.619   2.807  3.4605  2.0386 -0.9310
  133OSM    C3F14333   6.957   1.622   2.628  0.1610  0.0326  0.0846
  133OSM    H3F14334   6.968   1.563   2.535  2.5743 -0.2507  0.4928
  133OSM    H3G14335   7.055   1.614   2.680  1.0327 -1.1646 -1.6614
  133OSM    C4F14336   6.930   1.767   2.588  0.6953  0.3850 -0.2374
  133OSM    H4F14337   6.854   1.821   2.648 -0.9861  0.2657 -2.1571
  133OSM    H4G14338   6.864   1.766   2.499 -0.3950  3.5241  0.3862
  133OSM    C5F14339   7.062   1.840   2.561  0.2241  0.0697  0.4689
  133OSM    H5F14340   7.036   1.929   2.500  1.4350 -0.5954 -1.0867
  133OSM    H5G14341   7.129   1.780   2.496  1.0889 -1.3171  2.5371
  133OSM    C6F14342   7.149   1.877   2.681  0.0307  0.3762 -0.2585
  133OSM    H6F14343   7.140   1.796   2.757 -1.8589 -0.3773 -1.2335
  133OSM    H6G14344   7.109   1.969   2.728 -0.2094 -1.3060  3.1246
  133OSM    C7F14345   7.296   1.900   2.641 -0.6540  0.0981 -0.5824
  133OSM    H7F14346   7.309   1.965   2.552 -0.2637 -0.0008 -0.6034
  133OSM    H7G14347   7.344   1.804   2.611  1.6302  1.2220 -0.7564
  133OSM    C8F14348   7.384   1.935   2.768  0.4194  0.7068  0.4024
  133OSM    H8F14349   7.351   1.866   2.849  1.3235  0.2155  0.3699
  133OSM    H8G14350   7.364   2.041   2.792 -1.1495  0.6482 -0.5375
  133OSM    C9F14351   7.529   1.917   2.741 -0.3405 -0.8378 -0.0492
  133OSM    H9F14352   7.556   1.930   2.635 -0.5371  2.2961  0.1993
  133OSM   C10F14353   7.625   1.901   2.829  0.0782 -0.0027  0.3583
  133OSM   H10F14354   7.729   1.898   2.792 -0.3259 -0.8119 -0.7331
  133OSM   C11F14355   7.611   1.883   2.975 -0.5183 -0.7770  0.1229
  133OSM   H11F14356   7.642   1.778   2.995 -1.4075 -0.9966  0.4152
  133OSM   H11G14357   7.506   1.894   3.009 -0.1534  3.8372  0.4806
  133OSM   C12F14358   7.697   1.982   3.064 -0.3488  0.3408  0.3668
  133OSM   H12F14359   7.652   2.084   3.069 -0.1450  0.5660 -1.5776
  133OSM   H12G14360   7.797   1.990   3.017 -0.6713 -0.1525 -0.4330
  133OSM   C13F14361   7.727   1.927   3.203 -0.1428 -0.2200 -0.0398
  133OSM   H13F14362   7.814   1.986   3.239 -0.2852 -0.2793  0.3990
  133OSM   H13G14363   7.764   1.823   3.190  4.8307  1.5096 -2.2291
  133OSM   C14F14364   7.612   1.942   3.299 -0.3160  0.0618 -0.4106
  133OSM   H14F14365   7.519   1.889   3.271 -0.8380  1.1011 -0.6642
  133OSM   H14G14366   7.601   2.051   3.317  0.0975 -0.0697  0.7863
  133OSM   C15F14367   7.648   1.883   3.435  0.2299  0.7932 -0.2682
  133OSM   H15F14368   7.739   1.928   3.481  0.7575 -0.9538  0.4694
  133OSM   H15G14369   7.684   1.778   3.425  0.3382  0.7469  0.5110
  133OSM   C16F14370   7.525   1.873   3.532  0.0596  0.6832 -0.4957
  133OSM   H16F14371   7.438   1.840   3.472  0.6122  0.3513 -1.1327
  133OSM   H16G14372   7.498   1.975   3.567 -0.2698  0.7119 -0.8356
  133OSM   C17F14373   7.544   1.785   3.650  0.1840  0.0831  0.5502
  133OSM   H17F14374   7.609   1.829   3.729  0.5694  0.0627  0.2489
  133OSM   H17G14375   7.580   1.685   3.618 -0.8680  0.1825 -1.0840
  133OSM   C18F14376   7.405   1.767   3.718 -0.2002 -0.3048 -0.4344
  133OSM   H18F14377   7.358   1.864   3.744 -0.5515 -0.8288  0.9888
  133OSM   H18G14378   7.406   1.714   3.816 -0.0631 -1.6173 -1.1227
  133OSM   H18H14379   7.336   1.704   3.659 -0.7876  1.0216 -1.2060
  134OSM      N14380   4.554   5.417   1.927 -0.3824 -0.2307 -0.2425
  134OSM    C1514381   4.605   5.501   1.818 -0.3646 -0.1819 -0.3195
  134OSM   H15A14382   4.713   5.506   1.821 -0.3662 -0.3668  0.0778
  134OSM   H15B14383   4.567   5.602   1.828 -2.1543 -0.7639 -0.9420
  134OSM   H15C14384   4.582   5.463   1.720 -0.0470 -3.0942  0.6410
  134OSM    C1414385   4.412   5.401   1.930  0.4609 -0.0551  0.5385
  134OSM   H14A14386   4.380   5.375   1.830  1.3389 -1.1005  0.5019
  134OSM   H14B14387   4.354   5.490   1.949 -2.4877 -0.8700 -3.4629
  134OSM   H14C14388   4.373   5.324   1.995  0.2568 -0.5793 -0.1959
  134OSM    C1314389   4.609   5.278   1.894 -0.1689 -0.6465 -0.2481
  134OSM   H13A14390   4.714   5.288   1.872  0.1837  2.5828  2.2698
  134OSM   H13B14391   4.571   5.226   1.807  1.8306 -0.4068 -1.3188
  134OSM   H13C14392   4.615   5.213   1.981 -0.0325 -0.8720 -0.4234
  134OSM    C1214393   4.610   5.475   2.056  0.0156 -0.2443 -0.1146
  134OSM   H12A14394   4.551   5.565   2.071  0.3389  0.1947 -1.3038
  134OSM   H12B14395   4.714   5.502   2.045 -0.6265  2.1841 -1.0699
  134OSM    C1114396   4.603   5.387   2.184  0.7958  0.0269  1.2910
  134OSM   H11A14397   4.501   5.344   2.183  1.0745 -0.6447  1.3833
  134OSM   H11B14398   4.614   5.443   2.279  3.9419 -0.6233  1.4132
  134OSM      P14399   4.828   5.299   2.234 -0.6350 -0.2867 -0.0930
  134OSM    O1314400   4.900   5.168   2.205  0.6203  0.5681 -0.2627
  134OSM    O1414401   4.877   5.425   2.164  0.1942  0.1871 -0.3308
  134OSM    O1114402   4.812   5.329   2.382  0.1493 -0.1489  0.5655
  134OSM    O1214403   4.686   5.268   2.176  0.3424 -0.6987  0.6114
  134OSM    C1S14404   4.848   5.452   2.450  0.1026 -0.3276  0.4456
  134OSM    H1S14405   4.806   5.541   2.398  2.3884 -0.6022 -2.0598
  134OSM    H1T14406   4.958   5.461   2.459  0.0833  1.6975 -0.8055
  134OSM     NF14407   4.774   5.580   2.644 -0.0860  0.4216 -0.5090
  134OSM    HNF14408   4.855   5.625   2.682 -0.4916  0.0941  0.8109
  134OSM    C2S14409   4.797   5.447   2.594 -0.3329 -0.2259 -0.1245
  134OSM    H2S14410   4.695   5.405   2.579 -0.1334 -1.3665  1.4521
  134OSM    C3S14411   4.893   5.354   2.675  0.6856  0.1479  0.1983
  134OSM    H3S14412   4.991   5.404   2.664 -0.0720  1.7167  0.3258
  134OSM     O314413   4.927   5.236   2.606  0.1513 -0.4901  0.0847
  134OSM    HO314414   4.890   5.237   2.518  0.5919 -1.1974 -0.1199
  134OSM    C4S14415   4.858   5.323   2.819  0.1579 -0.4429 -0.5292
  134OSM    H4S14416   4.919   5.382   2.889 -1.9684  1.0446  0.1501
  134OSM    C5S14417   4.783   5.223   2.870 -0.3178 -0.6620  0.0203
  134OSM    H5S14418   4.750   5.146   2.799 -0.4449 -0.9272  0.3620
  134OSM    C6S14419   4.755   5.185   3.013 -0.5128 -0.3606 -0.0630
  134OSM    H6S14420   4.823   5.106   3.051 -0.7426  0.2490  1.7225
  134OSM    H6T14421   4.656   5.137   3.026  0.8363 -3.0227  1.3170
  134OSM    C7S14422   4.772   5.309   3.113  0.4868  0.0854 -0.3930
  134OSM    H7S14423   4.720   5.404   3.088 -1.5949 -0.4173  1.6953
  134OSM    H7T14424   4.881   5.331   3.118  0.9232 -2.0269  0.1973
  134OSM    C8S14425   4.733   5.270   3.247  0.1846 -0.1891 -0.4452
  134OSM    H8S14426   4.813   5.205   3.290  1.7734  3.0573  1.9118
  134OSM    H8T14427   4.643   5.205   3.241 -0.0150 -0.0313  0.6743
  134OSM    C9S14428   4.704   5.390   3.339 -0.3388 -0.7607 -0.2635
  134OSM    H9S14429   4.631   5.448   3.278 -1.9569 -2.1458  0.2565
  134OSM    H9T14430   4.800   5.444   3.350 -0.5674 -0.3314 -0.3462
  134OSM   C10S14431   4.634   5.355   3.466 -0.1230  0.2287 -0.0955
  134OSM   H10S14432   4.696   5.277   3.516 -0.0170  0.7575  0.6095
  134OSM   H10T14433   4.535   5.310   3.444 -0.0838  0.3846 -0.5913
  134OSM   C11S14434   4.614   5.476   3.555  0.5975 -0.4268  0.8828
  134OSM   H11S14435   4.537   5.539   3.506  1.2251 -0.0791  0.3325
  134OSM   H11T14436   4.710   5.532   3.548  1.6543 -2.3652 -1.1866
  134OSM   C12S14437   4.581   5.442   3.703 -0.1119 -0.4382  0.6649
  134OSM   H12S14438   4.639   5.357   3.744  0.1041  0.1833  1.6730
  134OSM   H12T14439   4.477   5.405   3.702 -0.6038  0.8061  2.1155
  134OSM   C13S14440   4.593   5.563   3.791 -0.0094  0.4351 -0.1983
  134OSM   H13S14441   4.534   5.650   3.755  0.5519  0.7282 -0.4190
  134OSM   H13T14442   4.702   5.583   3.783  0.5490 -1.7523  1.2521
  134OSM   C14S14443   4.553   5.528   3.937  0.0822  0.8280  0.2496
  134OSM   H14S14444   4.638   5.464   3.971 -0.1004  1.6571  2.4412
  134OSM   H14T14445   4.457   5.474   3.945 -1.1790  2.9259 -0.1455
  134OSM   C15S14446   4.559   5.649   4.026  0.4830 -0.2978 -0.1787
  134OSM   H15S14447   4.647   5.709   3.993  1.1597 -1.8220 -1.2827
  134OSM   H15T14448   4.580   5.622   4.132  0.7070 -0.3956 -0.2467
  134OSM   C16S14449   4.425   5.722   4.023 -0.2167  0.1174  0.3989
  134OSM   H16S14450   4.344   5.650   4.048 -1.3790  0.9389 -0.8562
  134OSM   H16T14451   4.407   5.759   3.920  2.6695 -2.1430 -1.0515
  134OSM   C17S14452   4.414   5.828   4.131 -0.3157  0.6006 -0.0405
  134OSM   H17S14453   4.482   5.915   4.117 -0.2502  0.5247 -0.1954
  134OSM   H17T14454   4.438   5.776   4.227 -0.8884 -3.3815 -1.8884
  134OSM   C18S14455   4.269   5.881   4.141  0.6470  0.0679  0.2836
  134OSM   H18S14456   4.263   5.958   4.221 -3.6118  1.0382 -0.7049
  134OSM   H18T14457   4.194   5.801   4.159  0.4825  0.4332  1.3371
  134OSM   H18U14458   4.247   5.940   4.050  1.3939  1.0123  0.6903
  134OSM    C1F14459   4.674   5.663   2.612 -0.5348 -0.5868  0.2678
  134OSM     OF14460   4.590   5.628   2.528 -0.2236  0.7402 -0.8665
  134OSM    C2F14461   4.675   5.804   2.669 -0.1991 -0.4369  0.0690
  134OSM    H2F14462   4.700   5.880   2.591  0.9949 -1.9474 -1.0905
  134OSM    H2G14463   4.757   5.804   2.743  2.0093  0.1135 -2.2334
  134OSM    C3F14464   4.533   5.841   2.730  0.4652  0.2349  0.4807
  134OSM    H3F14465   4.459   5.786   2.668  0.0674 -3.4210  3.8588
  134OSM    H3G14466   4.522   5.951   2.720  1.5750  0.1549 -3.7640
  134OSM    C4F14467   4.519   5.793   2.879 -0.3337 -0.2645 -0.1108
  134OSM    H4F14468   4.446   5.863   2.925 -0.9737 -1.5477  0.8907
  134OSM    H4G14469   4.621   5.805   2.923 -0.7595  2.3301  0.3154
  134OSM    C5F14470   4.478   5.649   2.889 -0.7058  0.2776 -0.1480
  134OSM    H5F14471   4.558   5.597   2.832 -1.8370  0.3946 -1.9563
  134OSM    H5G14472   4.384   5.635   2.831 -0.6694 -1.4830  0.1761
  134OSM    C6F14473   4.460   5.594   3.031 -0.1462 -0.4928  0.1299
  134OSM    H6F14474   4.395   5.667   3.083  1.5230  0.5615  0.8434
  134OSM    H6G14475   4.555   5.592   3.089 -0.2748 -1.5561  0.3335
  134OSM    C7F14476   4.402   5.453   3.049 -0.3804  0.7808  0.2648
  134OSM    H7F14477   4.471   5.382   3.000 -0.0522  0.0583  1.7151
  134OSM    H7G14478   4.311   5.447   2.986  0.0769 -0.6145 -0.2951
  134OSM    C8F14479   4.353   5.399   3.185 -0.4719  0.4388 -0.1875
  134OSM    H8F14480   4.437   5.346   3.235 -2.3239 -1.6470  0.8817
  134OSM    H8G14481   4.281   5.317   3.165  0.0362  0.0749 -0.5608
  134OSM    C9F14482   4.288   5.508   3.270  0.0202  0.5273 -0.6938
  134OSM    H9F14483   4.346   5.601   3.269  0.4852  0.3584  2.2039
  134OSM   C10F14484   4.177   5.496   3.346  0.1879  0.4255  0.0162
  134OSM   H10F14485   4.138   5.581   3.404 -1.0633 -0.9816  1.3140
  134OSM   C11F14486   4.091   5.372   3.352  0.2870  0.5330  0.0576
  134OSM   H11F14487   4.153   5.287   3.316  0.4760  0.8549 -0.3862
  134OSM   H11G14488   3.997   5.370   3.294  1.2326  3.4184 -1.7985
  134OSM   C12F14489   4.053   5.347   3.496 -0.4314  0.2433 -0.9865
  134OSM   H12F14490   3.971   5.413   3.532 -0.8076 -0.9820  0.4641
  134OSM   H12G14491   4.143   5.365   3.558 -0.0807 -2.9541 -0.3897
  134OSM   C13F14492   3.994   5.204   3.524 -0.9102  0.8617  0.4571
  134OSM   H13F14493   4.029   5.111   3.474  0.4816  0.8600  1.3753
  134OSM   H13G14494   3.889   5.207   3.487 -0.1830  2.1468 -1.6824
  134OSM   C14F14495   3.995   5.172   3.677  0.1927  0.4934  0.5369
  134OSM   H14F14496   3.920   5.095   3.706  0.2103  0.7936  1.4256
  134OSM   H14G14497   3.951   5.266   3.717  0.4534 -0.0962  2.3177
  134OSM   C15F14498   4.131   5.149   3.730 -0.0321  0.0855 -0.3481
  134OSM   H15F14499   4.195   5.233   3.694  0.2198 -0.2189 -0.6126
  134OSM   H15G14500   4.176   5.052   3.701  2.7253  1.4340 -0.9659
  134OSM   C16F14501   4.133   5.145   3.889  0.8812  0.3750  0.2174
  134OSM   H16F14502   4.086   5.049   3.918  0.6183  0.5498  0.3878
  134OSM   H16G14503   4.072   5.220   3.945 -0.3117 -1.1073  0.9963
  134OSM   C17F14504   4.273   5.150   3.947 -0.4782 -0.5602 -0.7110
  134OSM   H17F14505   4.312   5.254   3.942 -0.1513 -0.5546  1.2618
  134OSM   H17G14506   4.330   5.087   3.876  0.6223  1.6908 -1.9427
  134OSM   C18F14507   4.283   5.110   4.093  0.3475  0.5597  0.3784
  134OSM   H18F14508   4.258   5.002   4.107 -0.6520  0.3785 -2.1305
  134OSM   H18G14509   4.213   5.168   4.156 -0.2355  0.0464  0.2158
  134OSM   H18H14510   4.382   5.139   4.132  0.1254  1.8380  0.0169
  135OSM      N14511   0.893   4.016   2.140  0.2853 -0.2366  0.5022
  135OSM    C1514512   0.842   4.121   2.052 -0.7438 -0.3438 -0.4103
  135OSM   H15A14513   0.801   4.081   1.960  0.6146  0.3977 -1.3679
  135OSM   H15B14514   0.920   4.192   2.029  1.2606 -1.8511  1.4796
  135OSM   H15C14515   0.757   4.171   2.097  0.8242 -0.1445  2.5019
  135OSM    C1414516   0.783   3.920   2.176  0.3407 -0.0914 -0.4845
  135OSM   H14A14517   0.818   3.845   2.246 -0.3350  0.0970  0.0577
  135OSM   H14B14518   0.756   3.877   2.080  0.5496 -2.4912  0.4606
  135OSM   H14C14519   0.697   3.967   2.220  0.3795  1.1504 -1.6826
  135OSM    C1314520   1.007   3.952   2.073  0.0095 -0.0722  0.2999
  135OSM   H13A14521   1.094   4.016   2.066  1.5153 -2.1309 -0.7530
  135OSM   H13B14522   0.978   3.929   1.971 -2.0323  0.3452  0.7408
  135OSM   H13C14523   1.044   3.870   2.133 -2.6530 -2.4715 -1.0868
  135OSM    C1214524   0.937   4.074   2.272  0.1209 -0.3181 -0.1364
  135OSM   H12A14525   0.845   4.098   2.322 -0.1118 -0.1340 -0.6433
  135OSM   H12B14526   0.991   4.165   2.249 -0.2990 -0.0324  0.0058
  135OSM    C1114527   1.028   3.993   2.356  0.6476  0.5315 -0.1752
  135OSM   H11A14528   1.046   4.054   2.447  1.1169 -0.5823  0.4899
  135OSM   H11B14529   1.130   3.995   2.311  0.8437  2.4727  0.2834
  135OSM      P14530   1.047   3.732   2.376 -0.2756 -0.1065  0.5860
  135OSM    O1314531   0.945   3.628   2.401  0.5133 -0.3361  0.4180
  135OSM    O1414532   1.126   3.736   2.250 -0.0155  0.0527  0.5694
  135OSM    O1114533   1.145   3.728   2.495  0.2699  0.6961  0.0402
  135OSM    O1214534   0.971   3.867   2.389 -0.1967 -0.4265  0.1838
  135OSM    C1S14535   1.102   3.786   2.623  0.4959 -0.0924  0.2654
  135OSM    H1S14536   1.046   3.717   2.690  0.2306  0.7393  0.9268
  135OSM    H1T14537   1.023   3.863   2.607 -0.7794 -1.0875  1.5312
  135OSM     NF14538   1.156   3.922   2.823 -0.2486  0.1529 -0.1684
  135OSM    HNF14539   1.123   4.016   2.824 -0.2118  0.2041 -1.6194
  135OSM    C2S14540   1.214   3.866   2.702  0.0334  0.0516  0.5180
  135OSM    H2S14541   1.288   3.789   2.732 -1.9762 -1.9022  0.7231
  135OSM    C3S14542   1.274   3.985   2.610 -1.0314 -0.9404 -0.3991
  135OSM    H3S14543   1.185   4.045   2.582 -0.2302  0.7806  0.6072
  135OSM     O314544   1.340   3.928   2.492 -0.4438  0.2671 -0.1251
  135OSM    HO314545   1.314   3.835   2.492 -2.4758  0.7909  0.7090
  135OSM    C4S14546   1.353   4.084   2.689 -0.2004  0.6216 -0.2961
  135OSM    H4S14547   1.298   4.150   2.758 -0.6398  0.3482 -0.3818
  135OSM    C5S14548   1.489   4.078   2.703  0.2025  0.5105  0.7380
  135OSM    H5S14549   1.545   4.009   2.639 -4.1395 -1.8664 -0.8817
  135OSM    C6S14550   1.571   4.161   2.790  0.1165  0.3665 -0.3265
  135OSM    H6S14551   1.520   4.258   2.804 -0.3365 -0.1133  1.7223
  135OSM    H6T14552   1.663   4.197   2.739  0.9755 -1.5958 -0.2661
  135OSM    C7S14553   1.604   4.101   2.928 -0.5106  0.2624 -0.2808
  135OSM    H7S14554   1.680   4.022   2.910 -2.0434 -1.3627  0.0892
  135OSM    H7T14555   1.514   4.057   2.976 -1.2276  2.1054  0.1373
  135OSM    C8S14556   1.672   4.200   3.024  0.0594 -0.4885 -0.2198
  135OSM    H8S14557   1.603   4.284   3.049 -0.3779 -0.9239  0.0489
  135OSM    H8T14558   1.767   4.250   2.997 -0.5783  2.4358  2.3929
  135OSM    C9S14559   1.705   4.126   3.154  0.5325 -0.7818 -0.5780
  135OSM    H9S14560   1.758   4.030   3.133  2.3665  0.2379 -0.8530
  135OSM    H9T14561   1.603   4.105   3.191  0.4279  0.7802  0.0808
  135OSM   C10S14562   1.782   4.208   3.255  0.2139 -0.1093  0.0076
  135OSM   H10S14563   1.727   4.302   3.274  1.2567  0.6963 -0.8389
  135OSM   H10T14564   1.883   4.234   3.217 -0.0756  1.4576  0.2248
  135OSM   C11S14565   1.804   4.140   3.391  0.0819 -0.4830 -0.2697
  135OSM   H11S14566   1.844   4.036   3.381 -1.3296 -1.0034 -0.7438
  135OSM   H11T14567   1.701   4.131   3.431  0.9853 -2.4108  1.9379
  135OSM   C12S14568   1.876   4.232   3.493 -0.4166  0.0039 -0.0706
  135OSM   H12S14569   1.849   4.340   3.490 -1.2952 -0.1952  0.3753
  135OSM   H12T14570   1.983   4.230   3.461 -0.5259 -1.2538 -0.4173
  135OSM   C13S14571   1.879   4.165   3.637 -0.0219  0.1337 -0.4904
  135OSM   H13S14572   1.959   4.207   3.702 -0.4159 -2.0612  1.5736
  135OSM   H13T14573   1.908   4.058   3.626  1.5373  0.7703 -3.3760
  135OSM   C14S14574   1.742   4.186   3.715  0.2734  0.1464 -0.5670
  135OSM   H14S14575   1.665   4.155   3.641 -0.8012 -0.7690  0.8775
  135OSM   H14T14576   1.718   4.295   3.709  0.4830  0.3017  0.9826
  135OSM   C15S14577   1.721   4.116   3.851 -0.1393  0.4235  0.3131
  135OSM   H15S14578   1.801   4.132   3.927 -0.4023 -0.7412  0.8556
  135OSM   H15T14579   1.703   4.008   3.838 -1.6005  0.3634  2.3028
  135OSM   C16S14580   1.592   4.154   3.923 -0.3079 -0.3955 -0.4990
  135OSM   H16S14581   1.593   4.108   4.024 -2.6051 -0.4325 -0.4260
  135OSM   H16T14582   1.499   4.119   3.873  0.9884 -1.8757 -1.9748
  135OSM   C17S14583   1.579   4.308   3.931  0.2495  0.6276 -1.0374
  135OSM   H17S14584   1.528   4.341   3.838 -0.9950  0.3499 -0.4718
  135OSM   H17T14585   1.678   4.357   3.945  0.9334 -1.3209  2.0177
  135OSM   C18S14586   1.482   4.353   4.040  0.4599  0.4800  0.2709
  135OSM   H18S14587   1.512   4.299   4.132  0.5055  0.2860  0.1441
  135OSM   H18T14588   1.375   4.335   4.016  0.7398  0.2084 -0.8554
  135OSM   H18U14589   1.492   4.461   4.064  1.6653 -0.0826  2.5683
  135OSM    C1F14590   1.159   3.846   2.936  0.0483  0.3391  0.2502
  135OSM     OF14591   1.208   3.732   2.937  0.5138 -0.0767 -0.1345
  135OSM    C2F14592   1.082   3.910   3.051  0.1127  0.5708 -0.5368
  135OSM    H2F14593   1.078   3.829   3.127  1.9442 -2.7415 -3.6574
  135OSM    H2G14594   0.987   3.946   3.007  0.3915  1.8879 -0.1080
  135OSM    C3F14595   1.154   4.024   3.120  0.1265 -0.0575  0.3354
  135OSM    H3F14596   1.082   4.073   3.188  1.2988 -1.1106  2.4138
  135OSM    H3G14597   1.192   4.104   3.052  0.7770 -1.7017 -1.3060
  135OSM    C4F14598   1.273   3.982   3.206  0.0120  0.0588 -0.1089
  135OSM    H4F14599   1.350   3.937   3.140  0.4513 -1.1948  1.2025
  135OSM    H4G14600   1.240   3.904   3.277  0.7368  2.4573  3.1250
  135OSM    C5F14601   1.331   4.100   3.294  0.7026  1.1899  0.4137
  135OSM    H5F14602   1.337   4.184   3.221 -1.7165  0.5934 -0.5627
  135OSM    H5G14603   1.432   4.059   3.315  0.0341 -0.6591  0.2285
  135OSM    C6F14604   1.259   4.147   3.423  0.5517  0.1284  0.2950
  135OSM    H6F14605   1.253   4.059   3.489 -1.5546 -0.7621 -0.9708
  135OSM    H6G14606   1.155   4.181   3.402  0.2068 -0.8883  0.3100
  135OSM    C7F14607   1.331   4.264   3.483 -0.3891 -0.1325 -0.4024
  135OSM    H7F14608   1.302   4.363   3.441  1.7573  0.2645 -1.0970
  135OSM    H7G14609   1.440   4.247   3.470 -0.4539 -1.2848  0.4334
  135OSM    C8F14610   1.298   4.273   3.631  0.2974 -0.2892 -0.2029
  135OSM    H8F14611   1.334   4.374   3.659 -1.2383  0.1347  0.3465
  135OSM    H8G14612   1.351   4.198   3.694  0.8092  0.4596  0.2707
  135OSM    C9F14613   1.145   4.276   3.653 -0.1058 -0.0806 -0.1192
  135OSM    H9F14614   1.094   4.323   3.568  0.9699  3.9027  1.2186
  135OSM   C10F14615   1.075   4.224   3.755 -0.4494  0.5902  0.1713
  135OSM   H10F14616   0.965   4.223   3.753 -0.4822  0.9132  1.2003
  135OSM   C11F14617   1.134   4.157   3.883 -0.5301 -0.5469 -0.0607
  135OSM   H11F14618   1.242   4.181   3.878 -0.6756 -0.1367 -2.9604
  135OSM   H11G14619   1.132   4.048   3.861  1.2110 -1.0070  1.7232
  135OSM   C12F14620   1.068   4.208   4.011  0.7829  0.0925 -0.1991
  135OSM   H12F14621   0.964   4.169   4.014  0.0617  1.1565 -4.3108
  135OSM   H12G14622   1.061   4.319   4.000 -0.5791  0.3231  2.4220
  135OSM   C13F14623   1.134   4.191   4.144  0.3938  0.0765 -0.2819
  135OSM   H13F14624   1.081   4.252   4.221 -1.5743  0.4931 -1.8898
  135OSM   H13G14625   1.238   4.228   4.129  0.3195  0.9699  1.1762
  135OSM   C14F14626   1.151   4.046   4.191  0.2675  1.1636 -0.3155
  135OSM   H14F14627   1.174   3.984   4.102 -0.4526  0.6608 -0.1646
  135OSM   H14G14628   1.053   4.015   4.234  0.1695  0.4341 -1.0537
  135OSM   C15F14629   1.252   4.019   4.306 -0.8085 -0.4535  0.1034
  135OSM   H15F14630   1.355   4.038   4.269 -1.3325  0.7565 -0.7807
  135OSM   H15G14631   1.251   3.909   4.325 -1.5110 -0.6865 -1.1574
  135OSM   C16F14632   1.208   4.101   4.428 -0.6526 -0.3821  0.5936
  135OSM   H16F14633   1.107   4.065   4.457 -0.7311 -1.9551 -1.3660
  135OSM   H16G14634   1.209   4.209   4.402 -0.4039 -0.8874 -1.7668
  135OSM   C17F14635   1.300   4.077   4.554  0.4783 -0.3391  0.2015
  135OSM   H17F14636   1.385   4.144   4.532 -0.8124  1.0397 -0.7329
  135OSM   H17G14637   1.334   3.971   4.551 -2.1277 -1.2305 -1.5782
  135OSM   C18F14638   1.244   4.106   4.689  0.4314 -0.3792  0.2751
  135OSM   H18F14639   1.306   4.091   4.780 -0.3944 -1.8245  0.6305
  135OSM   H18G14640   1.158   4.036   4.699 -0.0777  0.1197 -0.4787
  135OSM   H18H14641   1.205   4.210   4.689  2.0840  0.2711 -0.2114
  136OSM      N14642   3.441   5.631   2.149 -0.7845  0.5268 -0.0283
  136OSM    C1514643   3.539   5.695   2.054 -0.6547 -0.0928 -1.2357
  136OSM   H15A14644   3.606   5.615   2.026 -2.3446 -2.1885  0.3804
  136OSM   H15B14645   3.588   5.779   2.101 -0.0573 -1.2521  0.2912
  136OSM   H15C14646   3.492   5.734   1.965  0.3788  3.3015 -0.4321
  136OSM    C1414647   3.365   5.519   2.089  0.0170  0.5188 -0.0315
  136OSM   H14A14648   3.285   5.481   2.152 -2.6019 -1.4012 -4.0885
  136OSM   H14B14649   3.438   5.441   2.074  0.1857  0.9223 -1.4664
  136OSM   H14C14650   3.314   5.549   1.999  1.6116  1.2950 -0.7171
  136OSM    C1314651   3.518   5.587   2.269 -0.2470  0.1219  0.5091
  136OSM   H13A14652   3.464   5.521   2.334 -2.3562  1.4728  0.2445
  136OSM   H13B14653   3.549   5.681   2.312  0.7095 -0.3594  0.8980
  136OSM   H13C14654   3.614   5.546   2.240 -0.1302 -0.7259  2.0403
  136OSM    C1214655   3.342   5.731   2.197 -0.7323 -0.7268 -0.2999
  136OSM   H12A14656   3.278   5.768   2.118  0.6516  1.3309 -0.5370
  136OSM   H12B14657   3.404   5.816   2.224  0.6120 -1.5811 -0.5666
  136OSM    C1114658   3.250   5.682   2.315 -0.2185 -0.1488 -0.9562
  136OSM   H11A14659   3.199   5.773   2.353 -0.2489 -0.2305 -0.8043
  136OSM   H11B14660   3.316   5.657   2.401 -0.9740  1.1978  0.0521
  136OSM      P14661   3.032   5.603   2.200  0.1072  0.0050  0.0467
  136OSM    O1314662   3.072   5.677   2.076  0.0267 -0.2793 -0.2584
  136OSM    O1414663   2.967   5.475   2.186 -0.4119  1.0702  0.4040
  136OSM    O1114664   2.948   5.696   2.285  0.5979  0.5931 -0.3024
  136OSM    O1214665   3.165   5.577   2.290 -0.1466  0.6918 -0.5436
  136OSM    C1S14666   2.865   5.657   2.400  0.7936 -0.1952  0.0381
  136OSM    H1S14667   2.847   5.548   2.390  0.2422  0.0141 -1.6734
  136OSM    H1T14668   2.770   5.713   2.391  0.5617 -0.9194 -4.4662
  136OSM     NF14669   2.894   5.639   2.658 -0.5746 -0.1017 -0.0743
  136OSM    HNF14670   2.837   5.696   2.717 -0.4179  0.2694 -0.2790
  136OSM    C2S14671   2.942   5.694   2.536  0.1638  0.3764  1.0900
  136OSM    H2S14672   3.041   5.645   2.524 -0.6575 -1.2976  0.7418
  136OSM    C3S14673   2.959   5.850   2.547 -0.1541 -0.0584 -1.2334
  136OSM    H3S14674   2.869   5.897   2.592  1.9099  3.7295 -0.6359
  136OSM     O314675   2.985   5.922   2.429 -0.0710 -0.0901  0.0096
  136OSM    HO314676   2.979   5.847   2.369 -1.4211  0.1862 -0.2348
  136OSM    C4S14677   3.058   5.892   2.665  0.4208 -1.1499 -0.0271
  136OSM    H4S14678   3.028   5.858   2.765 -0.5201  0.3145  0.2236
  136OSM    C5S14679   3.172   5.969   2.651  0.3000  0.6339  0.4354
  136OSM    H5S14680   3.193   6.011   2.551 -1.7957 -0.6454 -0.6208
  136OSM    C6S14681   3.258   6.011   2.763 -0.7304 -0.8530 -0.5310
  136OSM    H6S14682   3.247   6.121   2.762 -0.0200 -0.7774 -1.8464
  136OSM    H6T14683   3.365   5.992   2.739 -0.8131 -0.4525 -1.2281
  136OSM    C7S14684   3.230   5.949   2.902  0.6327 -0.0020 -0.0898
  136OSM    H7S14685   3.242   5.839   2.898  1.2631  0.0926 -1.0539
  136OSM    H7T14686   3.125   5.968   2.933  0.0592  1.1645 -2.4857
  136OSM    C8S14687   3.333   6.004   3.004 -0.1961  0.0015 -0.1862
  136OSM    H8S14688   3.357   6.109   2.979  2.1486 -0.9726 -2.5690
  136OSM    H8T14689   3.432   5.957   2.981 -0.1866 -0.7076  1.1755
  136OSM    C9S14690   3.299   5.977   3.151  0.3103 -0.0515 -0.4207
  136OSM    H9S14691   3.203   6.022   3.184  0.7833 -0.6940  2.0215
  136OSM    H9T14692   3.371   6.034   3.215  0.9740  0.2620 -1.4237
  136OSM   C10S14693   3.298   5.825   3.181 -0.2777 -0.3482 -0.5299
  136OSM   H10S14694   3.398   5.786   3.152  1.0399  0.1040  2.9098
  136OSM   H10T14695   3.222   5.773   3.119 -0.6327  1.0262 -1.2920
  136OSM   C11S14696   3.262   5.786   3.327 -0.3383 -0.3393  0.5553
  136OSM   H11S14697   3.240   5.677   3.336 -0.7018 -0.3068  0.0725
  136OSM   H11T14698   3.166   5.832   3.358 -1.3764  0.6374 -3.5216
  136OSM   C12S14699   3.370   5.836   3.421 -0.1511 -0.5406 -1.3206
  136OSM   H12S14700   3.377   5.946   3.408 -0.7772 -0.4989 -1.3204
  136OSM   H12T14701   3.472   5.796   3.403 -1.0384 -3.3106 -0.7913
  136OSM   C13S14702   3.334   5.816   3.572 -0.9362  0.4441  0.6600
  136OSM   H13S14703   3.316   5.710   3.602 -0.3953 -0.1475 -0.9868
  136OSM   H13T14704   3.239   5.863   3.605 -0.2962  2.9745 -0.8711
  136OSM   C14S14705   3.430   5.884   3.674 -0.0977  0.5463 -0.5408
  136OSM   H14S14706   3.448   5.989   3.644 -0.1030  0.1313 -2.0461
  136OSM   H14T14707   3.526   5.829   3.680 -0.7426 -0.5073  0.7329
  136OSM   C15S14708   3.377   5.875   3.823 -0.1901 -0.1212  0.2121
  136OSM   H15S14709   3.342   5.770   3.828 -0.9849  0.1881  1.9360
  136OSM   H15T14710   3.294   5.947   3.838 -0.0948  0.4982 -2.0183
  136OSM   C16S14711   3.483   5.898   3.931 -0.4262  0.4513 -0.3071
  136OSM   H16S14712   3.514   6.005   3.929 -1.3233  0.7495  0.6346
  136OSM   H16T14713   3.576   5.843   3.905 -0.6416 -0.5299  0.8695
  136OSM   C17S14714   3.444   5.847   4.074  0.0213  0.2019  0.0229
  136OSM   H17S14715   3.411   5.742   4.063  0.3336  0.2612 -1.6686
  136OSM   H17T14716   3.369   5.912   4.123  0.4802 -0.4352  1.6466
  136OSM   C18S14717   3.557   5.862   4.184  0.1076  0.5986 -0.1503
  136OSM   H18S14718   3.641   5.797   4.152 -0.1733 -0.5835  1.4220
  136OSM   H18T14719   3.506   5.827   4.276  1.6078 -3.4843 -0.6775
  136OSM   H18U14720   3.592   5.968   4.184  2.1490 -0.0276  0.8797
  136OSM    C1F14721   2.888   5.512   2.688  0.4175 -0.2956  0.8832
  136OSM     OF14722   2.956   5.437   2.617  0.1966  0.1549 -0.2966
  136OSM    C2F14723   2.795   5.464   2.791 -0.7562  0.2224  0.2140
  136OSM    H2F14724   2.747   5.548   2.847  0.6232  0.9833  0.2956
  136OSM    H2G14725   2.852   5.400   2.862  0.3532  0.5135 -0.4090
  136OSM    C3F14726   2.696   5.369   2.722  0.6027  0.3109  0.4731
  136OSM    H3F14727   2.758   5.302   2.658 -0.4536 -0.4509  0.2293
  136OSM    H3G14728   2.630   5.420   2.649 -1.1818  1.1233  2.5350
  136OSM    C4F14729   2.632   5.289   2.828  0.7057 -0.2628  0.1451
  136OSM    H4F14730   2.704   5.268   2.909  0.2798 -0.1004  0.5709
  136OSM    H4G14731   2.607   5.187   2.790  1.1944 -0.4472  0.3219
  136OSM    C5F14732   2.502   5.353   2.893 -0.5311  0.5494  0.1227
  136OSM    H5F14733   2.414   5.306   2.844  0.2931  3.5299 -4.8836
  136OSM    H5G14734   2.492   5.459   2.864  0.3113  0.6623  0.2048
  136OSM    C6F14735   2.480   5.343   3.047  0.1937 -0.4494  0.1849
  136OSM    H6F14736   2.516   5.242   3.075  2.5898  0.0359 -0.9344
  136OSM    H6G14737   2.370   5.354   3.063  0.2843  1.7124 -0.3893
  136OSM    C7F14738   2.537   5.451   3.132 -0.4416 -0.3426 -0.2888
  136OSM    H7F14739   2.487   5.547   3.105 -0.5727  0.1409  1.5325
  136OSM    H7G14740   2.645   5.442   3.107 -0.2893 -0.4464  0.3925
  136OSM    C8F14741   2.536   5.422   3.286  0.4692  0.0535 -0.0195
  136OSM    H8F14742   2.586   5.323   3.287  1.2780  0.4551  0.4658
  136OSM    H8G14743   2.433   5.415   3.326  0.8111  0.7410  1.0235
  136OSM    C9F14744   2.606   5.533   3.359  0.2401  0.0169 -0.6657
  136OSM    H9F14745   2.612   5.624   3.298  0.6134  0.7242  0.4060
  136OSM   C10F14746   2.623   5.527   3.493  0.0871  0.1182 -0.3525
  136OSM   H10F14747   2.663   5.617   3.543 -0.5358 -1.6516  3.7910
  136OSM   C11F14748   2.588   5.415   3.587 -0.3263  0.6240 -0.7687
  136OSM   H11F14749   2.654   5.413   3.676 -0.5256 -0.7530 -0.6332
  136OSM   H11G14750   2.603   5.315   3.542  1.9976  0.8243 -0.5258
  136OSM   C12F14751   2.440   5.419   3.638  0.0674  0.7907 -0.0579
  136OSM   H12F14752   2.424   5.321   3.689  0.5212  0.6589 -0.1654
  136OSM   H12G14753   2.370   5.434   3.552 -0.7786  1.6330  0.7472
  136OSM   C13F14754   2.406   5.525   3.750 -0.1038  0.1365  0.6204
  136OSM   H13F14755   2.422   5.626   3.706  1.3846 -1.0878 -1.8751
  136OSM   H13G14756   2.464   5.501   3.842  0.1891  0.5974  0.5555
  136OSM   C14F14757   2.249   5.519   3.782 -0.0600 -0.3548 -0.3365
  136OSM   H14F14758   2.230   5.416   3.820 -2.0881 -0.5281 -1.6640
  136OSM   H14G14759   2.198   5.530   3.684 -1.0834 -2.5814 -0.1268
  136OSM   C15F14760   2.206   5.633   3.879 -0.5588 -0.0336  0.2169
  136OSM   H15F14761   2.097   5.652   3.870 -0.8704 -1.9821 -0.7579
  136OSM   H15G14762   2.264   5.721   3.845 -1.9887  0.7753 -0.2321
  136OSM   C16F14763   2.237   5.596   4.027 -0.4705 -0.0785  0.9636
  136OSM   H16F14764   2.264   5.693   4.073  1.1497  0.4279 -0.9223
  136OSM   H16G14765   2.326   5.529   4.032  1.2467  2.0806  0.7319
  136OSM   C17F14766   2.117   5.531   4.098  0.3490  0.7304 -0.9426
  136OSM   H17F14767   2.086   5.440   4.042  0.0119  0.5968 -0.5367
  136OSM   H17G14768   2.033   5.602   4.088 -1.8417 -1.7891 -1.3303
  136OSM   C18F14769   2.148   5.484   4.243 -0.3274 -0.5704  1.1756
  136OSM   H18F14770   2.063   5.422   4.278 -2.0901  0.5667 -0.8645
  136OSM   H18G14771   2.150   5.569   4.314  0.3039 -0.6894  1.3037
  136OSM   H18H14772   2.248   5.436   4.252 -0.9314 -1.6257  2.4838
  137OSM      N14773   1.651   4.299   2.052 -0.3379  0.6364 -0.3175
  137OSM    C1514774   1.746   4.410   2.027  0.7981  0.0022  0.1488
  137OSM   H15A14775   1.847   4.374   2.017  0.6540 -0.4224  0.1740
  137OSM   H15B14776   1.746   4.477   2.112 -3.4866 -1.3022  1.4281
  137OSM   H15C14777   1.700   4.468   1.948  0.3571  0.6076  0.8403
  137OSM    C1414778   1.593   4.243   1.925  0.1246  0.0978 -0.5505
  137OSM   H14A14779   1.670   4.234   1.850  2.4428 -0.2672  1.7258
  137OSM   H14B14780   1.533   4.325   1.891 -2.2934 -0.9793  0.8274
  137OSM   H14C14781   1.532   4.156   1.947  0.4797 -0.0998 -0.3226
  137OSM    C1314782   1.723   4.184   2.118 -0.1304  0.3427 -0.7982
  137OSM   H13A14783   1.785   4.230   2.194  0.6320  0.0556 -1.2266
  137OSM   H13B14784   1.799   4.140   2.055  1.6243  0.9961  0.7546
  137OSM   H13C14785   1.657   4.110   2.162 -0.9539  1.1176 -0.7147
  137OSM    C1214786   1.539   4.355   2.142 -0.1962  0.7382 -0.4670
  137OSM   H12A14787   1.581   4.416   2.220  0.9138 -0.3511 -0.1753
  137OSM   H12B14788   1.497   4.277   2.204  2.3187  0.8629  1.5348
  137OSM    C1114789   1.430   4.432   2.067 -0.0997 -0.3445 -0.1292
  137OSM   H11A14790   1.476   4.498   1.990  2.7806  1.0280  2.5339
  137OSM   H11B14791   1.386   4.500   2.142  0.0722 -0.5910  0.1963
  137OSM      P14792   1.194   4.298   2.065  0.0008  0.0243  0.3746
  137OSM    O1314793   1.087   4.346   1.977  0.2186  0.2737 -0.0805
  137OSM    O1414794   1.214   4.154   2.070 -0.3877  0.4214  0.2723
  137OSM    O1114795   1.185   4.348   2.213  0.6164 -0.5024 -0.3906
  137OSM    O1214796   1.331   4.352   2.001 -0.5292 -0.1223 -0.0470
  137OSM    C1S14797   1.134   4.469   2.260  0.3145 -0.4691 -0.4218
  137OSM    H1S14798   1.031   4.493   2.227  0.7235  0.1026 -1.3152
  137OSM    H1T14799   1.203   4.552   2.232  1.2148 -1.1572 -0.2770
  137OSM     NF14800   1.074   4.584   2.481 -0.6352  0.2076  0.5055
  137OSM    HNF14801   1.132   4.664   2.491  0.1572 -0.3075  0.1711
  137OSM    C2S14802   1.138   4.464   2.420 -0.1103 -0.1590  0.3077
  137OSM    H2S14803   1.076   4.375   2.443  1.7597 -2.0217 -1.4545
  137OSM    C3S14804   1.290   4.432   2.467 -0.0444  0.0238  0.0765
  137OSM    H3S14805   1.359   4.508   2.424  1.0517 -0.7801  0.3707
  137OSM     O314806   1.334   4.306   2.425 -0.0140 -0.6455  0.5339
  137OSM    HO314807   1.283   4.291   2.345 -1.0117 -0.8030  1.1721
  137OSM    C4S14808   1.299   4.435   2.616  0.1266  0.6063  0.4636
  137OSM    H4S14809   1.215   4.383   2.665 -1.2221  0.4051 -1.9010
  137OSM    C5S14810   1.371   4.521   2.689  0.8312 -0.0625  0.0803
  137OSM    H5S14811   1.426   4.603   2.641 -0.2802 -0.9007 -2.8174
  137OSM    C6S14812   1.350   4.524   2.838 -0.7010  0.4042  0.5398
  137OSM    H6S14813   1.290   4.617   2.851 -1.0004  0.0761  1.5989
  137OSM    H6T14814   1.446   4.533   2.894 -0.0430 -0.3555 -0.4442
  137OSM    C7S14815   1.260   4.418   2.909  0.9738  0.2690  0.0581
  137OSM    H7S14816   1.287   4.311   2.894 -0.9115 -0.2503  0.1007
  137OSM    H7T14817   1.160   4.430   2.863  0.0456 -0.5845  1.7528
  137OSM    C8S14818   1.254   4.437   3.061  0.1616 -0.3583  0.8657
  137OSM    H8S14819   1.351   4.396   3.095  1.2621  1.5995  0.2250
  137OSM    H8T14820   1.167   4.377   3.097 -0.3090 -1.1366 -1.4041
  137OSM    C9S14821   1.231   4.581   3.104  0.0987  0.9072 -0.4833
  137OSM    H9S14822   1.155   4.632   3.041  0.5540 -1.0949 -2.7952
  137OSM    H9T14823   1.323   4.643   3.100  0.9408 -0.0105  2.2239
  137OSM   C10S14824   1.182   4.595   3.251  0.2975  0.0654 -0.3253
  137OSM   H10S14825   1.258   4.549   3.317 -0.3561 -0.2909  0.1879
  137OSM   H10T14826   1.085   4.542   3.246  0.0578  0.4682 -0.0172
  137OSM   C11S14827   1.171   4.745   3.289 -0.4402  0.1823 -0.0336
  137OSM   H11S14828   1.098   4.789   3.218  0.7493 -2.5317 -3.1961
  137OSM   H11T14829   1.269   4.794   3.269 -0.9493  1.8563  1.3243
  137OSM   C12S14830   1.138   4.771   3.432 -0.0639  0.5504 -0.5462
  137OSM   H12S14831   1.148   4.876   3.468  0.6756  1.0403 -2.0956
  137OSM   H12T14832   1.206   4.705   3.489 -0.8039 -0.5815 -0.9499
  137OSM   C13S14833   0.999   4.722   3.447  1.0755 -0.7669 -0.0405
  137OSM   H13S14834   0.990   4.614   3.422 -1.0107 -1.0126  1.4665
  137OSM   H13T14835   0.935   4.779   3.376  1.8850  0.0250 -0.1553
  137OSM   C14S14836   0.943   4.739   3.593 -0.3029 -0.0167  0.6275
  137OSM   H14S14837   0.940   4.849   3.611  0.8023  0.4022 -1.4572
  137OSM   H14T14838   1.022   4.714   3.668  1.7402  1.8410 -0.7465
  137OSM   C15S14839   0.808   4.663   3.604  0.0410  0.4892 -0.2920
  137OSM   H15S14840   0.822   4.553   3.599 -0.6140  0.4229 -0.8666
  137OSM   H15T14841   0.741   4.676   3.516 -3.0487  0.0127  1.8653
  137OSM   C16S14842   0.718   4.680   3.736  0.6275 -0.2178  1.0704
  137OSM   H16S14843   0.621   4.632   3.715  0.1351  1.0686  0.3034
  137OSM   H16T14844   0.702   4.790   3.745 -0.0339 -0.3466  1.5064
  137OSM   C17S14845   0.786   4.625   3.865  0.0623 -0.3461  0.9196
  137OSM   H17S14846   0.885   4.676   3.870  1.1844 -1.6368 -3.4217
  137OSM   H17T14847   0.816   4.519   3.854  2.3906  0.4974 -2.7048
  137OSM   C18S14848   0.707   4.642   3.990 -0.0745 -0.0285  0.5547
  137OSM   H18S14849   0.675   4.748   4.003 -0.1746  0.4746 -2.8922
  137OSM   H18T14850   0.771   4.615   4.077 -0.9722 -0.5495  1.0651
  137OSM   H18U14851   0.614   4.581   3.995 -1.2297  1.5868 -0.1896
  137OSM    C1F14852   0.943   4.597   2.482  0.5560  0.0088  0.4144
  137OSM     OF14853   0.868   4.516   2.426 -0.1649  0.0140 -0.1787
  137OSM    C2F14854   0.883   4.718   2.544 -0.2248  0.2549  1.0684
  137OSM    H2F14855   0.831   4.781   2.470 -0.6136 -2.4107 -1.0951
  137OSM    H2G14856   0.970   4.769   2.591  1.1839 -2.3004  1.4128
  137OSM    C3F14857   0.780   4.667   2.645  0.3119 -0.2754 -1.1253
  137OSM    H3F14858   0.711   4.588   2.609 -0.3413  0.7112 -2.0992
  137OSM    H3G14859   0.714   4.747   2.686 -0.5010 -0.8087 -1.3688
  137OSM    C4F14860   0.853   4.615   2.769  0.7663 -0.0623 -0.2835
  137OSM    H4F14861   0.914   4.696   2.814  1.2984 -1.1967  1.1237
  137OSM    H4G14862   0.933   4.545   2.736  2.7157  1.7665  0.3086
  137OSM    C5F14863   0.763   4.559   2.883 -0.2318 -0.0276  0.1996
  137OSM    H5F14864   0.680   4.489   2.858 -1.0289  0.2621  1.9065
  137OSM    H5G14865   0.713   4.647   2.930 -1.4934 -0.2802 -0.6262
  137OSM    C6F14866   0.851   4.496   2.990 -0.4051  0.6084 -0.5833
  137OSM    H6F14867   0.954   4.537   2.997 -0.0723 -0.1294 -0.9777
  137OSM    H6G14868   0.877   4.391   2.965 -3.0815 -0.4448  0.5801
  137OSM    C7F14869   0.779   4.486   3.132  0.2757  0.5154 -0.7633
  137OSM    H7F14870   0.670   4.467   3.122  0.5400 -2.3503  0.8430
  137OSM    H7G14871   0.795   4.577   3.194  0.5541 -0.6661  0.9391
  137OSM    C8F14872   0.840   4.369   3.223  0.4336 -0.2503  0.0030
  137OSM    H8F14873   0.794   4.377   3.324 -0.6141  0.8974 -0.5404
  137OSM    H8G14874   0.948   4.389   3.240  0.8507 -1.3915 -1.1590
  137OSM    C9F14875   0.818   4.225   3.184  0.1948 -0.3123  0.1496
  137OSM    H9F14876   0.815   4.203   3.076 -0.1919 -0.6319  0.2228
  137OSM   C10F14877   0.777   4.131   3.273 -0.4228  0.5888  0.0692
  137OSM   H10F14878   0.766   4.029   3.233 -1.0558  0.0300  1.5891
  137OSM   C11F14879   0.767   4.134   3.428 -0.5501 -0.1911 -0.0752
  137OSM   H11F14880   0.663   4.157   3.458 -0.1111 -0.3195  1.6471
  137OSM   H11G14881   0.831   4.218   3.463  0.7823 -1.8967  1.7782
  137OSM   C12F14882   0.800   3.998   3.487  0.4215  0.3771 -0.1751
  137OSM   H12F14883   0.749   3.918   3.430  2.0380 -1.4911  0.8613
  137OSM   H12G14884   0.775   3.993   3.595  0.8781  1.8320  0.0243
  137OSM   C13F14885   0.946   3.951   3.484  0.7550 -0.1082 -0.6511
  137OSM   H13F14886   1.011   4.032   3.522 -0.6105  1.4661 -1.5512
  137OSM   H13G14887   0.987   3.942   3.381  0.9686  2.3516 -0.8364
  137OSM   C14F14888   0.958   3.817   3.557 -0.1517 -0.5130  0.0523
  137OSM   H14F14889   0.892   3.754   3.494  0.1109  0.4602 -1.2373
  137OSM   H14G14890   0.917   3.823   3.660  1.6152 -1.3585  0.8519
  137OSM   C15F14891   1.098   3.759   3.566 -0.0149  0.2919  0.1451
  137OSM   H15F14892   1.146   3.772   3.466 -1.7403 -0.4265 -0.8193
  137OSM   H15G14893   1.093   3.650   3.587  1.5683 -0.2814 -2.0420
  137OSM   C16F14894   1.189   3.827   3.668 -0.1490  0.5437 -0.9634
  137OSM   H16F14895   1.137   3.826   3.767  1.8028 -0.8479  0.1009
  137OSM   H16G14896   1.200   3.936   3.649  0.2981  1.1230  2.1179
  137OSM   C17F14897   1.327   3.772   3.684 -0.8208 -0.2039  0.2509
  137OSM   H17F14898   1.307   3.663   3.692 -0.6784 -0.1473  1.6294
  137OSM   H17G14899   1.379   3.808   3.775 -1.3398  1.1202  0.0559
  137OSM   C18F14900   1.415   3.807   3.565  0.9895  0.2654 -0.0696
  137OSM   H18F14901   1.413   3.915   3.543  1.9055  0.1280 -0.8918
  137OSM   H18G14902   1.380   3.764   3.469  0.1695 -0.3340  0.4842
  137OSM   H18H14903   1.519   3.768   3.579  0.3497 -0.9748  1.5815
  138OSM      N14904   0.812   5.844   1.482 -0.2099  0.2093  0.1548
  138OSM    C1514905   0.954   5.899   1.518 -0.6796  0.1974 -0.0881
  138OSM   H15A14906   0.963   5.886   1.625 -2.6794  0.9686  0.2200
  138OSM   H15B14907   0.970   6.004   1.496  4.0363  0.0546  1.4195
  138OSM   H15C14908   1.025   5.842   1.458  0.7774 -0.0357  1.7653
  138OSM    C1414909   0.716   5.929   1.556  0.3151  0.2304 -0.2824
  138OSM   H14A14910   0.727   6.034   1.531  3.9317  0.5911  2.1268
  138OSM   H14B14911   0.748   5.939   1.658  0.8349  0.2467 -0.4446
  138OSM   H14C14912   0.610   5.910   1.559  0.1777  0.7625 -1.1986
  138OSM    C1314913   0.779   5.857   1.334 -0.1876  0.4015 -0.1026
  138OSM   H13A14914   0.825   5.786   1.266 -1.1182  1.4636 -1.9024
  138OSM   H13B14915   0.800   5.953   1.290  0.3228 -0.0312 -0.8184
  138OSM   H13C14916   0.672   5.849   1.322 -0.1935 -1.0296  0.6773
  138OSM    C1214917   0.793   5.702   1.524 -0.0457  0.1903 -0.1631
  138OSM   H12A14918   0.870   5.639   1.483  0.2729  0.5716 -0.1527
  138OSM   H12B14919   0.699   5.666   1.484  0.5503  0.5051 -1.9261
  138OSM    C1114920   0.790   5.679   1.683  0.9770  0.6851  1.3819
  138OSM   H11A14921   0.787   5.568   1.694  0.3298  0.6337  0.7482
  138OSM   H11B14922   0.699   5.723   1.729  0.7536  0.3775  1.2352
  138OSM      P14923   0.958   5.687   1.877  0.3868  0.0629  0.2521
  138OSM    O1314924   0.973   5.540   1.874  0.3671 -0.0678 -0.2336
  138OSM    O1414925   1.077   5.768   1.912 -0.1520 -0.7992 -0.1391
  138OSM    O1114926   0.832   5.730   1.966  0.1086  0.0391  0.3858
  138OSM    O1214927   0.908   5.734   1.737 -0.3403  0.2660  0.1520
  138OSM    C1S14928   0.853   5.755   2.102 -0.4441 -0.2911 -0.1140
  138OSM    H1S14929   0.931   5.833   2.116 -0.5606 -0.3359  0.8473
  138OSM    H1T14930   0.886   5.665   2.158  1.3064  0.6172  0.3882
  138OSM     NF14931   0.745   5.820   2.311 -0.4235 -0.0657 -0.1562
  138OSM    HNF14932   0.727   5.748   2.378  2.1822  1.4676  2.5033
  138OSM    C2S14933   0.720   5.804   2.173  0.0844 -0.0477 -0.0246
  138OSM    H2S14934   0.685   5.899   2.127 -0.5699 -0.7503 -1.0215
  138OSM    C3S14935   0.605   5.702   2.131  0.5988  0.4815  0.1514
  138OSM    H3S14936   0.637   5.597   2.149 -0.4879  0.1633  0.3315
  138OSM     O314937   0.565   5.712   1.991 -0.4293  0.1396  0.0094
  138OSM    HO314938   0.637   5.766   1.957 -1.4436  0.1664 -2.3628
  138OSM    C4S14939   0.484   5.718   2.216  0.0561 -0.3459  0.3206
  138OSM    H4S14940   0.494   5.661   2.309 -0.0857 -0.9917 -0.0523
  138OSM    C5S14941   0.370   5.790   2.194  0.6065  0.5521 -0.4053
  138OSM    H5S14942   0.362   5.844   2.099 -0.9917 -0.4998 -0.9180
  138OSM    C6S14943   0.266   5.805   2.303 -0.8853  0.3648  0.5326
  138OSM    H6S14944   0.183   5.732   2.291 -2.2008  2.0379 -1.1072
  138OSM    H6T14945   0.211   5.901   2.293  0.0581  1.0167  1.4477
  138OSM    C7S14946   0.320   5.799   2.448 -0.1615  0.3586  0.0072
  138OSM    H7S14947   0.407   5.867   2.457 -0.0097  0.2523 -0.6203
  138OSM    H7T14948   0.346   5.693   2.471 -4.0967 -1.1778 -1.6055
  138OSM    C8S14949   0.213   5.845   2.547  0.7784  0.6548  0.0253
  138OSM    H8S14950   0.127   5.776   2.539  1.9216 -0.8145 -0.0056
  138OSM    H8T14951   0.169   5.938   2.505 -0.6130 -0.3368 -0.7620
  138OSM    C9S14952   0.267   5.873   2.683  0.2625  0.3507 -0.1577
  138OSM    H9S14953   0.332   5.963   2.686 -0.3436  0.7751  0.8315
  138OSM    H9T14954   0.334   5.785   2.697 -2.4632 -1.8149  0.0267
  138OSM   C10S14955   0.157   5.874   2.791  0.2900  0.0335  0.4600
  138OSM   H10S14956   0.092   5.785   2.782  0.2017  0.0606  0.8204
  138OSM   H10T14957   0.088   5.961   2.784  0.7698  0.5558  1.8689
  138OSM   C11S14958   0.211   5.874   2.934 -0.2351  0.1947  0.1343
  138OSM   H11S14959   0.272   5.966   2.942 -1.8869  1.2748  0.7723
  138OSM   H11T14960   0.268   5.779   2.950  0.7371  1.1738  3.3473
  138OSM   C12S14961   0.114   5.897   3.052 -0.1380  0.1148 -0.8308
  138OSM   H12S14962   0.026   5.830   3.061  0.5228 -0.8862 -1.6173
  138OSM   H12T14963   0.069   5.999   3.045 -3.3076 -1.0180  0.9160
  138OSM   C13S14964   0.183   5.894   3.188  0.2211  1.0430  0.1943
  138OSM   H13S14965   0.225   5.794   3.211 -1.6105 -0.0891 -1.1394
  138OSM   H13T14966   0.103   5.905   3.265  0.8403  0.6021  0.9165
  138OSM   C14S14967   0.285   6.010   3.210  0.2209  0.2666 -0.3251
  138OSM   H14S14968   0.219   6.098   3.191 -0.7068 -0.2241  0.5321
  138OSM   H14T14969   0.369   5.994   3.138 -1.1007  1.5689 -2.2685
  138OSM   C15S14970   0.347   6.023   3.353 -0.1827  0.7632  0.3179
  138OSM   H15S14971   0.415   5.938   3.376  1.8062  2.3112  0.3815
  138OSM   H15T14972   0.267   6.028   3.431 -0.8298  0.2842 -0.3047
  138OSM   C16S14973   0.440   6.147   3.372 -0.1936 -0.5379  0.6632
  138OSM   H16S14974   0.461   6.162   3.480  0.2437  2.0387  0.2903
  138OSM   H16T14975   0.388   6.237   3.335 -1.6791 -0.5729  2.5335
  138OSM   C17S14976   0.569   6.157   3.286 -0.3084  0.3730  0.1511
  138OSM   H17S14977   0.610   6.259   3.269 -1.2602  0.8443  0.6003
  138OSM   H17T14978   0.544   6.126   3.182 -0.3263 -0.0047  0.2666
  138OSM   C18S14979   0.687   6.075   3.341 -0.3871 -0.0102  0.4690
  138OSM   H18S14980   0.781   6.078   3.283 -1.1588 -1.0472 -0.9047
  138OSM   H18T14981   0.660   5.968   3.357  0.6524 -0.6919 -1.9418
  138OSM   H18U14982   0.714   6.126   3.436  0.8462  0.2179  0.0128
  138OSM    C1F14983   0.813   5.929   2.353 -0.3262 -0.1002 -0.2593
  138OSM     OF14984   0.846   6.014   2.266  0.0513 -0.1338 -0.0213
  138OSM    C2F14985   0.853   5.934   2.496 -0.2355  0.3092  0.0808
  138OSM    H2F14986   0.833   5.833   2.538 -1.7852  1.3242  1.9036
  138OSM    H2G14987   0.810   6.017   2.555 -0.0723 -0.9002  1.9598
  138OSM    C3F14988   1.005   5.953   2.512  0.2886  0.4737  0.4812
  138OSM    H3F14989   1.055   6.042   2.467  1.1293  0.4177  1.2536
  138OSM    H3G14990   1.039   5.865   2.452 -1.9366 -0.9900  1.2570
  138OSM    C4F14991   1.048   5.934   2.659 -0.6881  0.1491  0.7553
  138OSM    H4F14992   1.158   5.920   2.655 -0.6231  0.8013  0.0307
  138OSM    H4G14993   0.997   5.838   2.684  0.1993 -0.7861 -0.8624
  138OSM    C5F14994   1.004   6.047   2.752  0.1044 -0.1999 -0.0594
  138OSM    H5F14995   0.893   6.055   2.744  0.2776  1.4803 -1.4057
  138OSM    H5G14996   1.044   6.142   2.712 -0.8453 -0.4096 -1.6386
  138OSM    C6F14997   1.041   6.023   2.897  0.5957  0.3478 -0.3546
  138OSM    H6F14998   1.106   6.109   2.921 -0.3931  1.4358 -1.3997
  138OSM    H6G14999   1.115   5.940   2.907  3.1569  2.6815  1.2190
  138OSM    C7F15000   0.922   6.004   2.995  0.8079  0.1656 -0.0553
  138OSM    H7F15001   0.836   6.071   2.977 -0.1658 -1.0828 -0.1871
  138OSM    H7G15002   0.962   6.032   3.095  1.6569 -0.7701 -0.1092
  138OSM    C8F15003   0.860   5.860   3.003  0.3500  0.3119  0.0878
  138OSM    H8F15004   0.795   5.855   3.093 -0.4455 -0.5660 -0.5116
  138OSM    H8G15005   0.944   5.788   3.010 -1.2024 -2.1157 -3.4318
  138OSM    C9F15006   0.771   5.825   2.889  0.3726  0.4028 -0.7051
  138OSM    H9F15007   0.720   5.907   2.838 -0.3148  2.2989  2.7340
  138OSM   C10F15008   0.742   5.702   2.841  1.2881 -0.7308  0.1780
  138OSM   H10F15009   0.662   5.703   2.766  2.6098 -0.7730 -1.3068
  138OSM   C11F15010   0.775   5.572   2.888 -0.6293 -0.1846 -0.0324
  138OSM   H11F15011   0.822   5.580   2.988 -3.8788 -1.6372  1.7455
  138OSM   H11G15012   0.859   5.534   2.826 -0.0909 -1.2154  1.2882
  138OSM   C12F15013   0.656   5.475   2.903  0.7815  0.4217  0.0736
  138OSM   H12F15014   0.691   5.378   2.944  0.0406  0.4235  0.7259
  138OSM   H12G15015   0.611   5.464   2.801  0.2387  0.8780  0.2581
  138OSM   C13F15016   0.543   5.520   3.001 -0.0371 -0.2585  0.0225
  138OSM   H13F15017   0.463   5.445   2.986 -0.6487  0.2379  0.7290
  138OSM   H13G15018   0.495   5.618   2.979  1.7400  0.5099 -0.6344
  138OSM   C14F15019   0.589   5.506   3.152  0.7848 -0.0322 -0.0808
  138OSM   H14F15020   0.681   5.568   3.160  1.8823 -1.4596 -1.1936
  138OSM   H14G15021   0.618   5.400   3.170 -1.9451 -0.6897  0.9019
  138OSM   C15F15022   0.482   5.543   3.256 -0.4932  0.0223  0.1783
  138OSM   H15F15023   0.387   5.486   3.244  0.4357 -1.9285  1.6094
  138OSM   H15G15024   0.451   5.647   3.228  0.2048  0.5495  1.2971
  138OSM   C16F15025   0.539   5.525   3.400  0.1440  0.5178  0.2178
  138OSM   H16F15026   0.577   5.422   3.416  2.3168  1.0134 -1.2129
  138OSM   H16G15027   0.458   5.544   3.473 -0.3155  3.7630 -0.9598
  138OSM   C17F15028   0.649   5.624   3.435 -0.2687  0.5367 -0.4726
  138OSM   H17F15029   0.608   5.719   3.395 -0.8393 -0.7968 -3.3364
  138OSM   H17G15030   0.744   5.609   3.378  0.0944 -0.5083  0.3707
  138OSM   C18F15031   0.670   5.622   3.584  0.5771 -0.4943  0.4868
  138OSM   H18F15032   0.590   5.578   3.648 -0.1642 -0.1252 -0.1624
  138OSM   H18G15033   0.707   5.720   3.620 -1.0545  1.1107 -1.9128
  138OSM   H18H15034   0.752   5.547   3.592  0.8113 -0.3322 -0.3439
  139OSM      N15035   2.760   3.153   1.876 -0.0585  0.3928 -0.7571
  139OSM    C1515036   2.767   3.011   1.916 -0.1954 -0.0873  0.0829
  139OSM   H15A15037   2.840   3.000   1.995 -0.3711 -0.9740  0.1321
  139OSM   H15B15038   2.801   2.946   1.837  1.9305 -0.0897  0.9193
  139OSM   H15C15039   2.669   2.978   1.948 -0.8847  1.1891 -0.6474
  139OSM    C1415040   2.804   3.235   1.993  0.2085  0.0638  0.5478
  139OSM   H14A15041   2.791   3.340   1.969  0.3988  0.6963  2.9872
  139OSM   H14B15042   2.906   3.208   2.012  0.7682  1.5720 -0.0631
  139OSM   H14C15043   2.738   3.206   2.073 -0.1069  0.2632  0.3654
  139OSM    C1315044   2.865   3.179   1.767  0.0150  0.6618  0.0307
  139OSM   H13A15045   2.962   3.156   1.810  0.6510  2.7064 -0.1991
  139OSM   H13B15046   2.867   3.282   1.737  0.9960 -0.0166 -2.5480
  139OSM   H13C15047   2.855   3.123   1.675  0.5376 -1.5515  1.2459
  139OSM    C1215048   2.618   3.196   1.824 -0.9495  0.5340 -0.1678
  139OSM   H12A15049   2.597   3.128   1.743 -0.0202  1.7049 -1.4302
  139OSM   H12B15050   2.627   3.296   1.786  1.8561  0.6292  0.5511
  139OSM    C1115051   2.505   3.176   1.929 -0.2045  0.2396  0.0372
  139OSM   H11A15052   2.425   3.236   1.881  0.3618  0.7324 -0.3121
  139OSM   H11B15053   2.522   3.233   2.023 -0.3790  1.4891 -0.6690
  139OSM      P15054   2.331   2.981   1.956  0.0400  0.0737 -0.1068
  139OSM    O1315055   2.253   2.978   1.828  0.1673 -0.3071  0.2958
  139OSM    O1415056   2.337   2.853   2.026  0.5624  0.2355 -0.1130
  139OSM    O1115057   2.267   3.077   2.055  0.2399  0.0925  0.6070
  139OSM    O1215058   2.480   3.036   1.950 -0.3585  0.0466 -0.0292
  139OSM    C1S15059   2.139   3.058   2.116  0.0211  0.8555 -0.0038
  139OSM    H1S15060   2.121   2.955   2.154 -0.2129  0.2727 -1.6369
  139OSM    H1T15061   2.056   3.061   2.043 -1.0529  1.5475  1.1926
  139OSM     NF15062   1.985   3.143   2.295 -0.6037  0.0740 -0.2927
  139OSM    HNF15063   1.905   3.201   2.287 -0.3136  0.3842 -1.0082
  139OSM    C2S15064   2.105   3.173   2.217 -0.2414  0.2483 -0.4494
  139OSM    H2S15065   2.189   3.175   2.289  0.2856  1.4091 -1.0530
  139OSM    C3S15066   2.124   3.312   2.150 -0.0597  0.6604  0.1440
  139OSM    H3S15067   2.048   3.318   2.069 -1.0171  1.6687  1.0731
  139OSM     O315068   2.254   3.346   2.099 -0.0602 -0.7486  0.4700
  139OSM    HO315069   2.280   3.258   2.070  1.8386 -0.2628  0.6047
  139OSM    C4S15070   2.083   3.423   2.250  0.1894  0.4162  1.5670
  139OSM    H4S15071   1.989   3.476   2.230 -1.1162 -1.7195  1.7777
  139OSM    C5S15072   2.160   3.464   2.359  0.3893 -0.2696  0.0876
  139OSM    H5S15073   2.263   3.425   2.363  1.4548  2.4300  0.7032
  139OSM    C6S15074   2.133   3.592   2.427  0.4012 -0.4276  0.1470
  139OSM    H6S15075   2.024   3.611   2.416  0.3384  0.4091  1.9811
  139OSM    H6T15076   2.199   3.664   2.374 -0.1074 -0.7522 -0.9618
  139OSM    C7S15077   2.178   3.605   2.576  0.4346  0.0813  0.0969
  139OSM    H7S15078   2.175   3.714   2.598 -0.2143  0.3040 -0.9849
  139OSM    H7T15079   2.284   3.574   2.588  0.6528  0.2182 -1.2754
  139OSM    C8S15080   2.083   3.528   2.664 -0.1762 -0.0962  0.0131
  139OSM    H8S15081   2.095   3.422   2.633 -1.6710 -0.2964  0.0674
  139OSM    H8T15082   1.977   3.560   2.662 -0.5988 -1.4397  0.2367
  139OSM    C9S15083   2.125   3.540   2.809  0.6269 -0.1708 -0.3554
  139OSM    H9S15084   2.132   3.648   2.834  0.3171 -0.3053  0.3331
  139OSM    H9T15085   2.228   3.499   2.811  1.7546  2.4360  0.4103
  139OSM   C10S15086   2.032   3.465   2.910  0.4511  0.6408  0.2578
  139OSM   H10S15087   2.022   3.357   2.887 -1.8162  1.0699 -1.0314
  139OSM   H10T15088   1.931   3.507   2.890 -0.3239 -0.9549  0.6854
  139OSM   C11S15089   2.066   3.504   3.056  0.6572 -0.0761 -0.0121
  139OSM   H11S15090   1.973   3.494   3.117 -0.4244  0.4857 -1.5236
  139OSM   H11T15091   2.096   3.609   3.075 -0.1860  0.5798 -2.1100
  139OSM   C12S15092   2.175   3.422   3.130 -0.1273 -0.9354 -0.5004
  139OSM   H12S15093   2.267   3.485   3.122 -1.4947  1.6051  1.8418
  139OSM   H12T15094   2.195   3.330   3.072  3.2679  1.0460 -2.8273
  139OSM   C13S15095   2.150   3.390   3.273  0.3950  0.4978  0.8512
  139OSM   H13S15096   2.121   3.483   3.327 -0.7130  1.3841 -1.1791
  139OSM   H13T15097   2.247   3.364   3.321  1.5499  1.5840 -0.7657
  139OSM   C14S15098   2.046   3.278   3.294  0.1285 -0.4235 -0.1777
  139OSM   H14S15099   2.079   3.182   3.248 -0.4826 -0.9449  0.4383
  139OSM   H14T15100   1.946   3.299   3.250  0.8633  1.3029 -1.0778
  139OSM   C15S15101   2.014   3.259   3.450 -0.3249 -0.1011 -0.2918
  139OSM   H15S15102   1.953   3.166   3.444 -0.2342 -0.0976 -1.6689
  139OSM   H15T15103   1.952   3.346   3.478 -0.3525 -0.0251 -0.5883
  139OSM   C16S15104   2.135   3.255   3.542  0.0265 -0.4470  0.8390
  139OSM   H16S15105   2.194   3.349   3.545 -1.1909  0.3115  2.2723
  139OSM   H16T15106   2.209   3.172   3.529  1.2239  0.8062 -0.8065
  139OSM   C17S15107   2.079   3.229   3.682  0.2282 -0.4615  0.5446
  139OSM   H17S15108   2.025   3.136   3.656 -0.2418  0.1360 -0.7133
  139OSM   H17T15109   2.003   3.303   3.714  0.7633  0.0613  0.6210
  139OSM   C18S15110   2.178   3.212   3.794 -0.1460  0.9305 -0.3539
  139OSM   H18S15111   2.141   3.210   3.899  0.6603  1.6185 -0.0403
  139OSM   H18T15112   2.259   3.288   3.781 -1.2820  2.3207  0.3949
  139OSM   H18U15113   2.233   3.116   3.784  0.2682  1.2179 -0.8885
  139OSM    C1F15114   1.979   3.036   2.375 -0.2156  0.3974 -0.1236
  139OSM     OF15115   2.076   2.970   2.412 -0.2465 -0.0382 -0.3753
  139OSM    C2F15116   1.850   2.997   2.431  0.2020  0.2993  0.3495
  139OSM    H2F15117   1.826   2.891   2.407 -0.0593 -0.5513  3.8446
  139OSM    H2G15118   1.769   3.057   2.384 -1.3879 -0.3103  2.1909
  139OSM    C3F15119   1.844   3.012   2.586  0.2056 -0.1530 -0.4768
  139OSM    H3F15120   1.942   2.985   2.631  0.9124 -0.1350 -1.9507
  139OSM    H3G15121   1.770   2.943   2.632  0.1706  0.3856  0.2829
  139OSM    C4F15122   1.801   3.153   2.628  0.2966 -0.0378 -0.8199
  139OSM    H4F15123   1.732   3.203   2.557  0.3977  1.7132  0.2464
  139OSM    H4G15124   1.892   3.215   2.613  0.1962 -0.2423 -2.3681
  139OSM    C5F15125   1.749   3.167   2.772 -0.2518  1.1410 -0.3289
  139OSM    H5F15126   1.658   3.103   2.776 -0.7808  1.8909 -0.0029
  139OSM    H5G15127   1.723   3.274   2.790 -0.2344  1.1011 -0.0584
  139OSM    C6F15128   1.845   3.125   2.890 -0.1418 -0.4876  0.0970
  139OSM    H6F15129   1.949   3.154   2.864 -0.0713 -1.3956 -0.6927
  139OSM    H6G15130   1.845   3.014   2.897 -0.3706 -0.4898  0.0671
  139OSM    C7F15131   1.811   3.199   3.021 -0.4660 -0.2347  0.3928
  139OSM    H7F15132   1.834   3.306   3.003  2.4991 -0.7773  0.4731
  139OSM    H7G15133   1.888   3.171   3.096 -0.1622  2.8995  1.3822
  139OSM    C8F15134   1.674   3.160   3.079  0.0325  0.2903 -0.2731
  139OSM    H8F15135   1.582   3.183   3.022  0.2008 -0.4132 -0.8479
  139OSM    H8G15136   1.671   3.201   3.182 -1.1539 -2.3709  0.8520
  139OSM    C9F15137   1.675   3.012   3.095  0.1381 -0.1362 -0.0250
  139OSM    H9F15138   1.643   2.961   3.003 -0.2774  0.4218 -0.2001
  139OSM   C10F15139   1.713   2.948   3.207  0.4920 -0.0785  0.0785
  139OSM   H10F15140   1.717   2.839   3.197 -0.2679  0.0305 -2.2216
  139OSM   C11F15141   1.773   3.009   3.326 -0.0457 -0.4515 -0.5723
  139OSM   H11F15142   1.779   3.118   3.307 -1.7535  0.1566  1.7990
  139OSM   H11G15143   1.874   2.970   3.351 -0.0955 -0.4467 -0.3610
  139OSM   C12F15144   1.677   3.004   3.449  0.1911  0.4483 -1.0614
  139OSM   H12F15145   1.672   2.897   3.481  1.4494  0.7148  0.1377
  139OSM   H12G15146   1.576   3.036   3.417  0.0971  1.6736  0.3506
  139OSM   C13F15147   1.722   3.097   3.567  0.2133  0.2921 -0.2094
  139OSM   H13F15148   1.736   3.192   3.512 -3.0045  1.1493  0.2560
  139OSM   H13G15149   1.819   3.069   3.614 -0.2634 -0.5924  0.2853
  139OSM   C14F15150   1.609   3.130   3.666 -0.1356  0.9363  0.7844
  139OSM   H14F15151   1.590   3.033   3.716 -1.8193 -0.0477 -1.5865
  139OSM   H14G15152   1.524   3.156   3.599  1.0507 -1.1289 -1.7190
  139OSM   C15F15153   1.647   3.235   3.769 -0.1338  0.4253  0.6699
  139OSM   H15F15154   1.660   3.338   3.728  1.7962 -0.2795 -0.5746
  139OSM   H15G15155   1.743   3.204   3.814  0.6521  1.6539 -0.1035
  139OSM   C16F15156   1.559   3.241   3.894  0.2785 -0.3950  0.7179
  139OSM   H16F15157   1.611   3.313   3.961  1.8631 -2.3683  1.7200
  139OSM   H16G15158   1.562   3.147   3.953  0.7369  0.0072  1.3567
  139OSM   C17F15159   1.416   3.296   3.858  0.0865 -0.1710  0.3416
  139OSM   H17F15160   1.364   3.291   3.956 -1.3974  1.5107 -0.3153
  139OSM   H17G15161   1.360   3.253   3.772 -1.1305  1.5959  0.2104
  139OSM   C18F15162   1.417   3.449   3.823 -0.8001  0.1479 -0.4086
  139OSM   H18F15163   1.500   3.474   3.753 -0.9928  0.2722 -0.5931
  139OSM   H18G15164   1.439   3.509   3.914  1.6001  1.3251 -1.6793
  139OSM   H18H15165   1.321   3.478   3.775 -0.3906  0.8773 -0.8061
  140OSM      N15166   0.498   0.910   1.801 -0.1761 -0.5972  0.4025
  140OSM    C1515167   0.501   1.057   1.839  0.1240  0.0529  0.2935
  140OSM   H15A15168   0.409   1.108   1.818  0.4881  0.5716 -0.0715
  140OSM   H15B15169   0.576   1.106   1.778  0.6538 -0.8342  0.2056
  140OSM   H15C15170   0.524   1.069   1.944 -0.1753  0.1239  0.3522
  140OSM    C1415171   0.365   0.851   1.841 -0.0635 -0.4074  0.2057
  140OSM   H14A15172   0.279   0.880   1.782 -1.3710  0.7784  2.5708
  140OSM   H14B15173   0.345   0.861   1.947 -1.5928 -1.6508  0.0806
  140OSM   H14C15174   0.368   0.745   1.822 -0.9769 -0.3586 -0.2940
  140OSM    C1315175   0.517   0.896   1.656 -0.0607 -0.3944 -0.4685
  140OSM   H13A15176   0.439   0.914   1.584  0.0752  0.1506 -0.4895
  140OSM   H13B15177   0.546   0.796   1.628 -2.6617 -1.2722 -0.2866
  140OSM   H13C15178   0.605   0.951   1.624 -0.0554  0.1797  0.4846
  140OSM    C1215179   0.613   0.845   1.867  0.6530  0.5451 -0.3741
  140OSM   H12A15180   0.625   0.742   1.840  0.1260  0.2697  0.4111
  140OSM   H12B15181   0.592   0.841   1.973 -1.5390  2.0573 -0.6814
  140OSM    C1115182   0.757   0.902   1.851  0.3756 -0.1639 -0.1307
  140OSM   H11A15183   0.757   1.008   1.885 -3.2082 -0.2154  0.4281
  140OSM   H11B15184   0.796   0.923   1.750 -0.7959  2.7855 -0.0681
  140OSM      P15185   0.892   0.685   1.859  0.1279  0.0923 -0.1091
  140OSM    O1315186   0.865   0.693   1.711  0.1369  0.4930  0.0689
  140OSM    O1415187   1.031   0.638   1.900  0.5313 -0.3133 -0.3149
  140OSM    O1115188   0.789   0.587   1.914  0.0208  0.5114  0.9583
  140OSM    O1215189   0.852   0.825   1.925  0.9515  0.3830 -0.3495
  140OSM    C1S15190   0.772   0.588   2.058  1.2482 -0.3835  0.4836
  140OSM    H1S15191   0.725   0.684   2.088  1.5751  0.1514 -0.6500
  140OSM    H1T15192   0.864   0.576   2.119  1.8746 -2.0026 -0.7063
  140OSM     NF15193   0.646   0.486   2.249 -0.3727 -0.3503  0.1887
  140OSM    HNF15194   0.693   0.442   2.326  0.2618 -0.4823 -0.2689
  140OSM    C2S15195   0.684   0.465   2.104  0.7784  0.2046  0.3998
  140OSM    H2S15196   0.589   0.471   2.045  0.2090  1.8999  1.4231
  140OSM    C3S15197   0.747   0.323   2.063  0.1234 -0.0596  0.3474
  140OSM    H3S15198   0.846   0.329   2.113 -0.2001 -0.5348  1.0611
  140OSM     O315199   0.779   0.316   1.920  1.0032 -0.2212  0.4371
  140OSM    HO315200   0.811   0.402   1.893  0.1312 -0.6300 -2.0736
  140OSM    C4S15201   0.665   0.207   2.108  0.5614 -0.1086 -0.0598
  140OSM    H4S15202   0.560   0.203   2.078  0.2717  1.2873  0.6502
  140OSM    C5S15203   0.714   0.098   2.169 -0.6324  0.1634 -1.1036
  140OSM    H5S15204   0.822   0.083   2.187 -0.3144  0.1956 -2.8225
  140OSM    C6S15205   0.638  -0.028   2.199  0.6883  0.0361  0.1839
  140OSM    H6S15206   0.693  -0.119   2.167 -1.6852 -2.0567  1.7098
  140OSM    H6T15207   0.540  -0.024   2.147  1.9749  2.6171 -2.2780
  140OSM    C7S15208   0.590  -0.033   2.345  0.4719  0.8440  0.1730
  140OSM    H7S15209   0.505  -0.103   2.356  0.5464  0.0483 -3.3247
  140OSM    H7T15210   0.538   0.053   2.393 -1.5824 -1.1342  1.7070
  140OSM    C8S15211   0.704  -0.066   2.440 -0.4947 -0.3263 -0.1169
  140OSM    H8S15212   0.791   0.005   2.442  1.9383 -3.0617 -1.3923
  140OSM    H8T15213   0.749  -0.158   2.398 -0.1519  0.0409 -0.5792
  140OSM    C9S15214   0.670  -0.089   2.588  0.0718 -0.2797 -0.6742
  140OSM    H9S15215   0.761  -0.129   2.638 -0.9620 -0.8274  0.8836
  140OSM    H9T15216   0.584  -0.158   2.602 -1.3428  1.6865  0.9743
  140OSM   C10S15217   0.622   0.039   2.667 -0.1841  0.3083  0.9038
  140OSM   H10S15218   0.546   0.106   2.621  0.1985  1.3671  1.7517
  140OSM   H10T15219   0.717   0.096   2.668 -0.5127  0.8743  1.7313
  140OSM   C11S15220   0.591   0.011   2.817  0.0728 -0.2484 -0.1088
  140OSM   H11S15221   0.689  -0.021   2.857 -0.1980 -2.8067 -1.3101
  140OSM   H11T15222   0.514  -0.069   2.821 -0.1019 -0.0391  1.4603
  140OSM   C12S15223   0.556   0.137   2.891 -0.2919 -0.6066 -0.0816
  140OSM   H12S15224   0.463   0.178   2.847 -1.5665  0.0123  2.9377
  140OSM   H12T15225   0.635   0.213   2.877  0.2169 -0.9441  0.8710
  140OSM   C13S15226   0.515   0.126   3.045  0.3317  0.1094 -0.0288
  140OSM   H13S15227   0.430   0.057   3.062  0.9752 -0.6273  0.2797
  140OSM   H13T15228   0.477   0.223   3.083 -0.9806 -0.5643  0.4581
  140OSM   C14S15229   0.638   0.066   3.124  0.8407  0.3067  0.3145
  140OSM   H14S15230   0.711   0.145   3.098 -0.2499  0.4436 -2.7695
  140OSM   H14T15231   0.674  -0.026   3.073 -2.4609 -1.9678  1.6800
  140OSM   C15S15232   0.617   0.039   3.273  0.3715  0.1207 -0.4955
  140OSM   H15S15233   0.523   0.076   3.319  0.5249 -2.9857  2.8617
  140OSM   H15T15234   0.687   0.091   3.343  0.1380 -1.8159  1.2910
  140OSM   C16S15235   0.618  -0.110   3.300 -0.0533 -0.0775 -0.1396
  140OSM   H16S15236   0.713  -0.158   3.270  0.2514 -0.1294  0.8612
  140OSM   H16T15237   0.531  -0.152   3.246 -0.8347 -1.7717  2.2534
  140OSM   C17S15238   0.594  -0.137   3.458 -0.3129 -0.6123  0.2012
  140OSM   H17S15239   0.490  -0.107   3.485 -0.5874 -0.5343 -0.9177
  140OSM   H17T15240   0.672  -0.087   3.519  0.3583 -2.3260  0.8200
  140OSM   C18S15241   0.609  -0.289   3.477  1.0404 -0.3468 -0.1817
  140OSM   H18S15242   0.511  -0.336   3.454  0.3686  0.1503  1.4969
  140OSM   H18T15243   0.640  -0.322   3.579  1.4806 -2.4331 -0.9544
  140OSM   H18U15244   0.681  -0.334   3.406  0.3720  1.0572 -1.8117
  140OSM    C1F15245   0.574   0.597   2.276  0.2556  0.1636 -0.4060
  140OSM     OF15246   0.508   0.638   2.189  0.1452 -0.2022  0.3513
  140OSM    C2F15247   0.552   0.637   2.422 -0.1889  0.5639  0.1454
  140OSM    H2F15248   0.559   0.748   2.416 -1.5689  0.6100 -1.5117
  140OSM    H2G15249   0.633   0.599   2.487 -0.2232 -1.3017 -0.8130
  140OSM    C3F15250   0.416   0.606   2.478  0.6280  0.8128 -0.2399
  140OSM    H3F15251   0.384   0.499   2.481  0.4348  0.8878  0.7857
  140OSM    H3G15252   0.343   0.652   2.409  0.5690  0.2964 -0.5326
  140OSM    C4F15253   0.388   0.676   2.611  0.2123 -0.8875  0.2759
  140OSM    H4F15254   0.277   0.666   2.618 -0.0596 -2.6760 -3.7996
  140OSM    H4G15255   0.407   0.785   2.599 -1.4298 -0.7049 -1.1426
  140OSM    C5F15256   0.467   0.616   2.731 -0.6777 -0.4158 -1.0781
  140OSM    H5F15257   0.576   0.634   2.717 -0.3549 -0.5072  1.0097
  140OSM    H5G15258   0.461   0.505   2.733 -1.3954 -0.3854  0.4799
  140OSM    C6F15259   0.409   0.668   2.869 -0.3334  0.2795  0.2165
  140OSM    H6F15260   0.352   0.760   2.844  1.2298  1.3919  0.6296
  140OSM    H6G15261   0.494   0.705   2.929  2.2628 -0.5126 -2.6963
  140OSM    C7F15262   0.320   0.567   2.937  0.2102  0.8130 -0.0763
  140OSM    H7F15263   0.392   0.485   2.959  1.1307  1.3080 -1.1040
  140OSM    H7G15264   0.234   0.543   2.872  0.9835 -1.6469 -0.2967
  140OSM    C8F15265   0.271   0.619   3.073 -0.2962 -0.9560 -0.5132
  140OSM    H8F15266   0.212   0.713   3.062 -1.9216 -2.0402 -1.5244
  140OSM    H8G15267   0.368   0.647   3.118  1.4394 -0.7877 -3.9999
  140OSM    C9F15268   0.193   0.523   3.153 -0.5093 -0.4828  0.7408
  140OSM    H9F15269   0.092   0.506   3.113 -0.7388 -0.9963  1.4936
  140OSM   C10F15270   0.251   0.443   3.246  0.3813  0.2923  0.5209
  140OSM   H10F15271   0.189   0.366   3.294 -0.7813  1.5637  1.1358
  140OSM   C11F15272   0.389   0.449   3.303  0.1361  0.3007 -0.1658
  140OSM   H11F15273   0.430   0.552   3.320 -1.1787  0.6809  0.8800
  140OSM   H11G15274   0.459   0.405   3.229 -0.9414 -2.3064  0.2826
  140OSM   C12F15275   0.407   0.377   3.439  0.6066  0.4887  0.8409
  140OSM   H12F15276   0.399   0.267   3.425  0.7217  0.5598  0.1706
  140OSM   H12G15277   0.336   0.409   3.517 -0.2525 -1.7558  1.0675
  140OSM   C13F15278   0.539   0.407   3.513 -0.1683 -0.2454 -0.0743
  140OSM   H13F15279   0.565   0.516   3.514 -2.1206  0.2529  0.7775
  140OSM   H13G15280   0.624   0.369   3.452 -0.1164  2.6718 -2.0154
  140OSM   C14F15281   0.537   0.358   3.654 -0.5633 -0.0060 -0.2899
  140OSM   H14F15282   0.470   0.413   3.723  0.8221 -0.3868  1.4410
  140OSM   H14G15283   0.638   0.377   3.697 -0.2977 -1.8609 -0.0302
  140OSM   C15F15284   0.498   0.210   3.661  0.1885  0.1280  0.1662
  140OSM   H15F15285   0.562   0.151   3.592  1.2499 -1.6766  2.5388
  140OSM   H15G15286   0.391   0.204   3.632  0.2525  1.5479 -0.4295
  140OSM   C16F15287   0.517   0.160   3.806  0.5733 -0.2051 -0.0271
  140OSM   H16F15288   0.469   0.239   3.867  0.7304  0.0828 -0.2713
  140OSM   H16G15289   0.627   0.165   3.821  0.7242  0.5746 -1.1709
  140OSM   C17F15290   0.464   0.017   3.828 -1.0564 -0.1596  0.3508
  140OSM   H17F15291   0.537  -0.050   3.777 -0.7781  0.3445  0.0685
  140OSM   H17G15292   0.373   0.013   3.764 -0.0961  0.2916 -1.1121
  140OSM   C18F15293   0.438  -0.016   3.971  0.2755 -0.5260 -0.2840
  140OSM   H18F15294   0.381   0.067   4.019  2.6253 -0.1348  2.0725
  140OSM   H18G15295   0.530  -0.013   4.034 -0.3100  2.0609  0.6081
  140OSM   H18H15296   0.381  -0.111   3.974 -2.9504  1.2733 -0.2160
  141OSM      N15297   0.992   4.980   1.815  0.4058  0.5250  0.0155
  141OSM    C1515298   1.099   4.910   1.740 -0.5802  0.6945  0.9087
  141OSM   H15A15299   1.182   4.978   1.722  1.8452 -1.9850  1.2669
  141OSM   H15B15300   1.064   4.874   1.644  1.9009  0.1885  0.1163
  141OSM   H15C15301   1.142   4.823   1.787 -1.1697 -0.1310 -0.0290
  141OSM    C1415302   0.926   5.078   1.725  0.0804  0.7356  0.4217
  141OSM   H14A15303   1.001   5.143   1.683 -1.2807  2.0597 -0.0231
  141OSM   H14B15304   0.858   5.140   1.780 -0.1323  0.4675  0.4598
  141OSM   H14C15305   0.871   5.026   1.648 -0.1483  0.1086  0.9941
  141OSM    C1315306   0.890   4.882   1.878 -0.2568 -0.2203 -0.0581
  141OSM   H13A15307   0.807   4.936   1.920 -1.2840 -0.9591 -1.1064
  141OSM   H13B15308   0.936   4.830   1.961 -2.1766 -3.3553 -0.8141
  141OSM   H13C15309   0.868   4.813   1.798  2.8427  0.4192 -1.6176
  141OSM    C1215310   1.060   5.052   1.937  0.2209 -0.5231  0.0236
  141OSM   H12A15311   0.988   5.096   2.004  0.3258  0.1937 -0.3280
  141OSM   H12B15312   1.123   5.133   1.905  0.4202 -0.6386  0.1258
  141OSM    C1115313   1.152   4.963   2.034 -0.2810 -0.7287  0.8207
  141OSM   H11A15314   1.093   4.872   2.058 -0.8675 -0.0752  1.9741
  141OSM   H11B15315   1.158   5.024   2.127  0.5010  0.7752 -0.1820
  141OSM      P15316   1.350   4.805   1.975 -0.3456  0.1583 -0.1792
  141OSM    O1315317   1.254   4.712   1.910  0.0340 -0.0441  0.2126
  141OSM    O1415318   1.475   4.836   1.899  0.2339  0.2303 -0.3776
  141OSM    O1115319   1.383   4.760   2.121 -0.6485  0.0606 -0.2188
  141OSM    O1215320   1.281   4.944   1.981  0.3629  0.0211  0.3954
  141OSM    C1S15321   1.387   4.850   2.226 -0.3556 -0.5229 -0.3291
  141OSM    H1S15322   1.283   4.877   2.257 -0.1226 -0.8650  0.7913
  141OSM    H1T15323   1.443   4.941   2.195  0.9277 -0.3883  2.1537
  141OSM     NF15324   1.464   4.888   2.453  0.8041 -0.3422  0.2290
  141OSM    HNF15325   1.547   4.937   2.476  1.0746 -0.6091 -0.1782
  141OSM    C2S15326   1.464   4.790   2.348  0.5669  0.1477 -0.1109
  141OSM    H2S15327   1.406   4.702   2.382 -1.7653  1.9640  0.9110
  141OSM    C3S15328   1.610   4.747   2.300 -0.2811 -0.4420 -0.2813
  141OSM    H3S15329   1.659   4.840   2.263 -0.3286  0.3197  1.4476
  141OSM     O315330   1.612   4.650   2.195 -0.1487 -0.2717 -0.1195
  141OSM    HO315331   1.532   4.665   2.144  1.5275 -0.8102 -3.1702
  141OSM    C4S15332   1.692   4.678   2.402 -0.4194 -0.1050  0.9391
  141OSM    H4S15333   1.656   4.575   2.419 -1.2869 -0.1559 -0.9377
  141OSM    C5S15334   1.793   4.736   2.474  0.0446  0.1760 -0.3700
  141OSM    H5S15335   1.849   4.826   2.443 -1.1697  0.6596 -1.2307
  141OSM    C6S15336   1.886   4.660   2.569  0.1384  0.5332 -0.8416
  141OSM    H6S15337   1.993   4.678   2.544  0.5784  0.3330  0.7704
  141OSM    H6T15338   1.865   4.551   2.562  0.8124  0.3497 -0.1750
  141OSM    C7S15339   1.872   4.697   2.716  0.4852  0.0568 -0.9945
  141OSM    H7S15340   1.889   4.806   2.732  0.0961 -0.0438  0.1753
  141OSM    H7T15341   1.955   4.650   2.772 -0.4185  1.2496  1.5080
  141OSM    C8S15342   1.747   4.640   2.781 -0.9192 -0.6293  0.4228
  141OSM    H8S15343   1.761   4.530   2.785  1.2481 -0.4255 -0.5473
  141OSM    H8T15344   1.658   4.660   2.717  0.1064  0.1610 -0.8148
  141OSM    C9S15345   1.720   4.700   2.919 -0.0672  0.7797 -0.1288
  141OSM    H9S15346   1.610   4.690   2.930  0.2400 -0.7714  2.4152
  141OSM    H9T15347   1.744   4.808   2.918  1.5545  0.4550 -1.6179
  141OSM   C10S15348   1.800   4.634   3.043 -0.6068  0.9147  0.1136
  141OSM   H10S15349   1.900   4.682   3.044 -0.0729 -0.1790  0.3061
  141OSM   H10T15350   1.815   4.524   3.041 -1.3210  0.6830  2.7589
  141OSM   C11S15351   1.738   4.663   3.183 -0.1480  0.4740  0.2931
  141OSM   H11S15352   1.746   4.771   3.207 -1.9322  0.7740 -0.2414
  141OSM   H11T15353   1.802   4.607   3.254 -1.3815  1.1652  2.0163
  141OSM   C12S15354   1.593   4.609   3.200  0.4182  0.1520 -0.0695
  141OSM   H12S15355   1.590   4.512   3.147  0.6957 -0.4527  1.0039
  141OSM   H12T15356   1.518   4.680   3.158  1.1103  1.5055  0.8940
  141OSM   C13S15357   1.559   4.569   3.345  0.3563  0.0439  0.1611
  141OSM   H13S15358   1.646   4.509   3.380  2.3139  1.7223 -1.5327
  141OSM   H13T15359   1.469   4.503   3.342 -0.3268  0.8866  1.4498
  141OSM   C14S15360   1.529   4.687   3.433  0.0608  0.3471 -0.1278
  141OSM   H14S15361   1.449   4.749   3.387  1.0197  2.4324  0.9009
  141OSM   H14T15362   1.613   4.757   3.452 -0.2663  1.8125 -3.4886
  141OSM   C15S15363   1.481   4.630   3.573  0.2700 -0.3365  0.5713
  141OSM   H15S15364   1.539   4.537   3.592  0.9513 -1.0219 -3.9093
  141OSM   H15T15365   1.375   4.600   3.564  0.2378 -0.1551  0.3338
  141OSM   C16S15366   1.480   4.746   3.673  0.8218  0.8783 -0.5426
  141OSM   H16S15367   1.400   4.817   3.641 -2.2419 -2.0916 -0.0874
  141OSM   H16T15368   1.582   4.791   3.671  2.0126 -1.5300  1.3468
  141OSM   C17S15369   1.470   4.701   3.822 -0.2495  0.5283  0.4682
  141OSM   H17S15370   1.482   4.776   3.902 -0.0053  0.5980  0.3675
  141OSM   H17T15371   1.542   4.617   3.834 -0.9715 -0.0441  0.8941
  141OSM   C18S15372   1.338   4.628   3.848 -0.2539 -0.7725  0.3544
  141OSM   H18S15373   1.312   4.637   3.956 -0.9812  1.3008  0.0474
  141OSM   H18T15374   1.348   4.522   3.819  0.7866 -0.2991 -1.1409
  141OSM   H18U15375   1.261   4.673   3.781 -1.2774 -1.9272  0.7250
  141OSM    C1F15376   1.355   4.903   2.535 -0.0197 -0.9862 -0.4575
  141OSM     OF15377   1.253   4.842   2.508 -0.0639  0.0760 -0.2331
  141OSM    C2F15378   1.370   4.981   2.662 -0.9686 -0.1626 -0.3760
  141OSM    H2F15379   1.274   5.024   2.699 -1.4293  0.4300 -2.1365
  141OSM    H2G15380   1.423   5.075   2.637 -1.9112  0.5909  0.3502
  141OSM    C3F15381   1.444   4.896   2.768 -0.0415  0.0615  0.1795
  141OSM    H3F15382   1.552   4.898   2.741  0.0426 -2.9603  0.0029
  141OSM    H3G15383   1.417   4.789   2.759 -2.3528  0.4843  1.3898
  141OSM    C4F15384   1.414   4.937   2.916 -0.3218 -0.0624 -0.1879
  141OSM    H4F15385   1.463   4.861   2.980  0.3528 -0.2993 -0.9705
  141OSM    H4G15386   1.304   4.928   2.929 -0.7140  1.9171 -1.6528
  141OSM    C5F15387   1.450   5.083   2.951  0.6100  0.7152 -0.0096
  141OSM    H5F15388   1.406   5.155   2.879 -1.2086  0.6826  1.0248
  141OSM    H5G15389   1.561   5.092   2.940  0.5042  1.8949 -0.3210
  141OSM    C6F15390   1.404   5.137   3.092 -0.2857  0.5000  0.0975
  141OSM    H6F15391   1.293   5.147   3.091 -0.4446 -0.6743  1.9715
  141OSM    H6G15392   1.447   5.239   3.100  1.4457 -0.2723  1.0536
  141OSM    C7F15393   1.457   5.053   3.212  0.1675  0.3145 -0.0271
  141OSM    H7F15394   1.564   5.038   3.186  0.3471  3.1977 -1.3944
  141OSM    H7G15395   1.417   4.951   3.231  0.8147 -0.2451 -1.5045
  141OSM    C8F15396   1.471   5.134   3.341 -0.6766 -0.2989  0.2487
  141OSM    H8F15397   1.533   5.223   3.319 -0.8098 -0.0936  0.7041
  141OSM    H8G15398   1.526   5.071   3.415  0.6875 -0.3133 -0.7336
  141OSM    C9F15399   1.347   5.173   3.405  0.9123 -0.0350  0.0420
  141OSM    H9F15400   1.269   5.216   3.339 -0.0817 -0.2678  1.0298
  141OSM   C10F15401   1.322   5.169   3.535  0.8528 -0.1873  0.0827
  141OSM   H10F15402   1.216   5.195   3.550  0.6923 -0.3228 -0.7262
  141OSM   C11F15403   1.417   5.149   3.650  0.4311 -0.0387  0.3587
  141OSM   H11F15404   1.516   5.185   3.615 -0.1331  1.9888  0.7032
  141OSM   H11G15405   1.434   5.041   3.670  2.1603 -0.4832 -2.8708
  141OSM   C12F15406   1.362   5.216   3.781  0.2115 -0.5158 -0.7432
  141OSM   H12F15407   1.275   5.162   3.825  0.6315 -0.2471  0.4671
  141OSM   H12G15408   1.330   5.317   3.748  1.1074 -0.4734 -1.5058
  141OSM   C13F15409   1.471   5.219   3.893  0.0469  0.2166  0.3638
  141OSM   H13F15410   1.447   5.284   3.980  0.1604  0.6593  0.0617
  141OSM   H13G15411   1.569   5.254   3.856 -0.1191 -2.0212 -2.6428
  141OSM   C14F15412   1.512   5.077   3.946  0.1609 -0.7593  0.4580
  141OSM   H14F15413   1.616   5.081   3.983 -0.2595  1.0613  1.5650
  141OSM   H14G15414   1.505   5.006   3.860 -0.5618  0.2703 -0.3629
  141OSM   C15F15415   1.416   5.038   4.056 -0.4096 -0.1702  0.0490
  141OSM   H15F15416   1.318   5.008   4.011 -0.8089 -0.6772  1.2127
  141OSM   H15G15417   1.399   5.127   4.121  2.0331  0.0778  0.4362
  141OSM   C16F15418   1.455   4.920   4.152 -0.1619 -0.2780 -1.0830
  141OSM   H16F15419   1.474   4.821   4.105 -0.0594 -1.6960  1.7211
  141OSM   H16G15420   1.360   4.895   4.205 -0.0673 -4.1165 -2.4047
  141OSM   C17F15421   1.562   4.967   4.257 -1.1744 -0.4529 -0.6801
  141OSM   H17F15422   1.544   5.064   4.309  0.2361 -0.6824  0.2756
  141OSM   H17G15423   1.654   4.987   4.198  1.3601 -1.5200  2.6403
  141OSM   C18F15424   1.592   4.859   4.359 -0.0420 -0.2818 -0.1305
  141OSM   H18F15425   1.534   4.862   4.454 -1.5789 -1.0500 -0.9912
  141OSM   H18G15426   1.698   4.844   4.387 -0.0819 -1.0667 -0.3467
  141OSM   H18H15427   1.565   4.765   4.305  0.2355  0.4835 -1.6572
  142OSM      N15428   2.879   6.002   1.947  0.5461  0.2484  0.2242
  142OSM    C1515429   2.820   6.068   1.831  0.3774  0.0174  0.7751
  142OSM   H15A15430   2.749   6.149   1.845 -1.2600 -0.6435 -2.5348
  142OSM   H15B15431   2.779   5.988   1.770  0.0858  0.2065  0.7187
  142OSM   H15C15432   2.893   6.117   1.769 -1.3482  0.8904 -0.6802
  142OSM    C1415433   2.913   6.112   2.047 -0.0470  0.0066 -0.5281
  142OSM   H14A15434   2.830   6.175   2.078 -0.8216 -0.7823 -0.9462
  142OSM   H14B15435   2.980   6.182   1.999 -1.2948  0.8310 -1.1520
  142OSM   H14C15436   2.956   6.072   2.138  0.3592 -0.0295 -0.7337
  142OSM    C1315437   2.774   5.920   2.018  0.1619  0.6514  0.3754
  142OSM   H13A15438   2.675   5.962   2.006 -0.9037 -1.8795 -0.6007
  142OSM   H13B15439   2.796   5.907   2.123  1.7930 -1.5531 -0.1715
  142OSM   H13C15440   2.773   5.823   1.969 -2.2798  0.0540  1.4155
  142OSM    C1215441   2.996   5.918   1.908 -0.0693  0.0234  0.0941
  142OSM   H12A15442   2.972   5.833   1.845  0.7021 -0.9723  1.0975
  142OSM   H12B15443   3.022   5.855   1.992  1.2166  0.0224 -0.2745
  142OSM    C1115444   3.123   5.986   1.834 -0.0019 -0.5441 -0.4768
  142OSM   H11A15445   3.093   6.006   1.729  0.7740 -0.0405 -0.6101
  142OSM   H11B15446   3.199   5.905   1.837 -1.0474 -1.5249  0.6723
  142OSM      P15447   3.199   6.236   1.819 -0.3534  0.2208 -0.1015
  142OSM    O1315448   3.293   6.213   1.707  0.2254 -0.2253 -0.6042
  142OSM    O1415449   3.069   6.295   1.792  0.4438  0.5815 -0.1300
  142OSM    O1115450   3.271   6.337   1.916 -0.0285 -0.4241 -0.0429
  142OSM    O1215451   3.182   6.102   1.896 -0.3710  0.5110 -0.4691
  142OSM    C1S15452   3.259   6.332   2.061  0.1671  0.4657  0.6061
  142OSM    H1S15453   3.352   6.285   2.099  0.8213  2.6351  1.8372
  142OSM    H1T15454   3.167   6.276   2.089  2.3013 -2.9274  1.5094
  142OSM     NF15455   3.234   6.454   2.263  0.4635 -0.3823  0.0645
  142OSM    HNF15456   3.143   6.435   2.299  0.2758  2.0629  1.0604
  142OSM    C2S15457   3.245   6.474   2.119 -0.9339 -0.1625 -0.2605
  142OSM    H2S15458   3.342   6.526   2.101 -0.4667 -0.0034  2.3192
  142OSM    C3S15459   3.147   6.569   2.037 -0.0106 -0.1312  0.0595
  142OSM    H3S15460   3.053   6.513   2.017 -1.7049  1.6572  2.5344
  142OSM     O315461   3.207   6.595   1.919  0.3599  0.1516 -0.0180
  142OSM    HO315462   3.277   6.529   1.920  1.7173  1.5045  2.2513
  142OSM    C4S15463   3.119   6.708   2.102  0.1521 -0.0692  0.0870
  142OSM    H4S15464   3.190   6.791   2.086  0.3083  0.2845  2.3761
  142OSM    C5S15465   3.007   6.747   2.173 -0.1080 -0.1812 -0.0606
  142OSM    H5S15466   2.927   6.675   2.194 -1.5825  0.8677 -1.8528
  142OSM    C6S15467   3.017   6.881   2.242  0.8423 -0.4558  0.3527
  142OSM    H6S15468   2.926   6.938   2.213 -0.1594 -0.2503  3.4922
  142OSM    H6T15469   3.106   6.942   2.215 -0.3567  1.3822  0.3636
  142OSM    C7S15470   3.011   6.865   2.390 -0.3284 -0.5498  1.1929
  142OSM    H7S15471   2.917   6.811   2.413 -1.3314  0.4350 -0.3747
  142OSM    H7T15472   3.005   6.968   2.431 -1.3630 -0.0533 -0.1535
  142OSM    C8S15473   3.125   6.796   2.452 -0.1758  0.9152 -0.5451
  142OSM    H8S15474   3.214   6.862   2.447  0.7734 -0.3878 -1.2863
  142OSM    H8T15475   3.140   6.705   2.391 -1.2446  0.5853 -0.3391
  142OSM    C9S15476   3.095   6.725   2.586 -0.3761  0.3859  0.1624
  142OSM    H9S15477   3.181   6.658   2.607 -0.0891  0.7076  0.0194
  142OSM    H9T15478   2.999   6.669   2.593  0.8717 -1.8557  0.3954
  142OSM   C10S15479   3.107   6.831   2.694  0.9760  0.2817  0.2266
  142OSM   H10S15480   3.036   6.915   2.679  1.0937  0.3682  0.1489
  142OSM   H10T15481   3.209   6.874   2.700  1.1323 -0.1849  1.1102
  142OSM   C11S15482   3.089   6.774   2.834  0.1964  0.4934 -0.4268
  142OSM   H11S15483   3.158   6.688   2.843  0.2889  0.4591 -1.4331
  142OSM   H11T15484   2.982   6.742   2.835  0.6655 -1.2472 -1.7087
  142OSM   C12S15485   3.122   6.873   2.945 -0.1533  0.2072 -0.0030
  142OSM   H12S15486   3.051   6.958   2.938  0.0244  0.2689 -1.2624
  142OSM   H12T15487   3.228   6.905   2.933  0.1331 -1.3535 -2.2707
  142OSM   C13S15488   3.109   6.820   3.095 -0.0642 -0.1478  0.0319
  142OSM   H13S15489   3.180   6.734   3.097  2.2798  1.6243 -1.7635
  142OSM   H13T15490   3.006   6.786   3.122 -0.7085  1.2731 -0.5179
  142OSM   C14S15491   3.143   6.927   3.185  0.3207 -0.5247 -0.1135
  142OSM   H14S15492   3.079   7.017   3.177 -0.1308 -0.7625  0.8033
  142OSM   H14T15493   3.248   6.961   3.167 -0.8074  2.4129 -1.7822
  142OSM   C15S15494   3.141   6.879   3.333  0.1153  0.0477  0.1346
  142OSM   H15S15495   3.172   6.773   3.331 -2.1197 -0.6819 -2.6466
  142OSM   H15T15496   3.034   6.874   3.362 -0.0457 -0.1064 -0.4786
  142OSM   C16S15497   3.226   6.970   3.426  0.4121 -0.2626 -0.1591
  142OSM   H16S15498   3.200   7.076   3.409  2.4007  0.5975  1.7369
  142OSM   H16T15499   3.333   6.959   3.396 -0.2583 -1.9105 -2.2419
  142OSM   C17S15500   3.221   6.937   3.576  0.1016  0.2151  0.5263
  142OSM   H17S15501   3.116   6.941   3.612 -1.0608 -0.9666 -2.4809
  142OSM   H17T15502   3.282   7.009   3.635 -0.3150 -0.4286  1.7806
  142OSM   C18S15503   3.269   6.795   3.599 -0.0581  0.8362  0.4082
  142OSM   H18S15504   3.205   6.720   3.548  0.9754  0.7539 -0.8245
  142OSM   H18T15505   3.276   6.775   3.708 -1.1755  1.6876  0.6516
  142OSM   H18U15506   3.371   6.773   3.561 -0.7726 -2.9696  0.3272
  142OSM    C1F15507   3.340   6.432   2.343 -0.1788  0.1329 -0.4702
  142OSM     OF15508   3.456   6.434   2.302 -0.2091 -0.0628 -0.0111
  142OSM    C2F15509   3.303   6.393   2.483 -0.0451 -0.3178 -0.0633
  142OSM    H2F15510   3.298   6.282   2.489 -4.0785 -0.3138 -0.4954
  142OSM    H2G15511   3.194   6.413   2.489 -0.1044  0.0303 -1.7217
  142OSM    C3F15512   3.379   6.461   2.598 -0.0974 -0.3894  0.0182
  142OSM    H3F15513   3.375   6.571   2.585 -0.2696 -0.3769  0.1762
  142OSM    H3G15514   3.485   6.433   2.579  0.0086  1.6690 -2.9453
  142OSM    C4F15515   3.324   6.427   2.745  0.5747  0.5724  0.3473
  142OSM    H4F15516   3.324   6.316   2.755  3.5579  0.3587 -0.8878
  142OSM    H4G15517   3.217   6.457   2.755 -0.0336 -1.2085 -0.3391
  142OSM    C5F15518   3.396   6.489   2.867 -0.6780 -0.6221 -0.0471
  142OSM    H5F15519   3.388   6.598   2.846 -1.0080 -0.1810  2.1956
  142OSM    H5G15520   3.503   6.460   2.875  0.1367  2.4798  2.7378
  142OSM    C6F15521   3.325   6.462   2.995  0.1453 -0.0871  0.4552
  142OSM    H6F15522   3.303   6.353   2.993 -2.6029  0.4006 -0.5895
  142OSM    H6G15523   3.222   6.503   2.999  0.3430  0.5626 -0.6845
  142OSM    C7F15524   3.402   6.509   3.122 -0.4073  0.2137 -0.2827
  142OSM    H7F15525   3.386   6.619   3.127 -0.7270  0.2740 -2.1082
  142OSM    H7G15526   3.510   6.493   3.104 -0.4218  1.2628 -1.5182
  142OSM    C8F15527   3.356   6.436   3.243  0.6318 -0.0177  0.1444
  142OSM    H8F15528   3.245   6.428   3.235  0.7016 -0.0581 -0.8929
  142OSM    H8G15529   3.390   6.504   3.323 -0.5664  0.9434 -0.1317
  142OSM    C9F15530   3.433   6.308   3.269 -0.0835 -0.1775 -0.1506
  142OSM    H9F15531   3.518   6.283   3.204  0.4364  1.3355 -0.0865
  142OSM   C10F15532   3.423   6.233   3.382  0.9061 -0.4720  0.0442
  142OSM   H10F15533   3.478   6.138   3.380  0.1301 -0.9812  1.4635
  142OSM   C11F15534   3.322   6.247   3.496 -0.4556  0.4947  0.0857
  142OSM   H11F15535   3.268   6.151   3.513 -0.7167  0.4065 -1.1664
  142OSM   H11G15536   3.254   6.333   3.479 -1.4378 -0.4617 -0.9700
  142OSM   C12F15537   3.394   6.286   3.632 -0.0680  0.4306  0.7434
  142OSM   H12F15538   3.453   6.377   3.605 -1.8167  0.7957 -2.3491
  142OSM   H12G15539   3.442   6.190   3.660 -0.9864 -0.6704 -1.1944
  142OSM   C13F15540   3.306   6.334   3.747  0.5476  0.2212 -0.3553
  142OSM   H13F15541   3.253   6.423   3.707 -2.2654 -1.0764  0.2496
  142OSM   H13G15542   3.362   6.369   3.837 -2.8768  0.4537  1.8783
  142OSM   C14F15543   3.195   6.245   3.794 -0.4154  0.7326 -0.3101
  142OSM   H14F15544   3.232   6.141   3.812  3.0895  1.9265  0.3271
  142OSM   H14G15545   3.116   6.240   3.717 -1.5935 -0.0426  0.9086
  142OSM   C15F15546   3.146   6.296   3.930  0.1143  0.2943 -0.3748
  142OSM   H15F15547   3.037   6.285   3.943  0.0188  1.8930  0.5394
  142OSM   H15G15548   3.159   6.406   3.944 -2.8832  0.5670  0.9816
  142OSM   C16F15549   3.223   6.232   4.058 -0.3414 -0.4255  0.4486
  142OSM   H16F15550   3.332   6.252   4.049 -0.7313  1.2756 -0.9835
  142OSM   H16G15551   3.207   6.122   4.060 -0.5116 -0.3974  0.6516
  142OSM   C17F15552   3.166   6.288   4.190 -1.3869 -0.6970  0.4041
  142OSM   H17F15553   3.056   6.273   4.189 -2.0627  2.8065  3.2713
  142OSM   H17G15554   3.179   6.398   4.189  1.7016 -0.9795 -0.6974
  142OSM   C18F15555   3.243   6.227   4.310 -0.2255  0.0938 -0.6220
  142OSM   H18F15556   3.225   6.270   4.411 -0.4256 -0.1620 -0.5476
  142OSM   H18G15557   3.351   6.223   4.287 -0.3681  1.2671 -1.6271
  142OSM   H18H15558   3.204   6.123   4.316 -1.7541  0.7262  2.2513
  143OSM      N15559   1.728   5.716   2.049  0.4308  0.0655 -0.1456
  143OSM    C1515560   1.852   5.692   2.124 -0.5032 -0.1594  0.7317
  143OSM   H15A15561   1.910   5.781   2.143  0.4176 -0.8803  1.3824
  143OSM   H15B15562   1.919   5.619   2.082 -0.7334 -0.0940  0.2458
  143OSM   H15C15563   1.823   5.649   2.219 -1.6204  0.1048  0.5295
  143OSM    C1415564   1.761   5.761   1.913  0.3097  0.4277 -0.4243
  143OSM   H14A15565   1.794   5.680   1.849 -0.4647 -1.3761  1.3486
  143OSM   H14B15566   1.826   5.846   1.920  0.9583 -0.1315  0.5024
  143OSM   H14C15567   1.671   5.796   1.864 -1.2097 -2.1880  0.3087
  143OSM    C1315568   1.650   5.586   2.048  0.2742 -0.8566  0.5627
  143OSM   H13A15569   1.559   5.606   1.994  1.6904  0.2601 -1.5934
  143OSM   H13B15570   1.637   5.539   2.144  1.2207 -0.0039  1.1223
  143OSM   H13C15571   1.703   5.516   1.984  0.8025 -0.7838  0.9103
  143OSM    C1215572   1.643   5.823   2.113  0.2217 -0.3347 -0.2387
  143OSM   H12A15573   1.637   5.801   2.218  1.6839 -0.3641 -0.1429
  143OSM   H12B15574   1.540   5.823   2.080  0.0578  0.3110  0.2645
  143OSM    C1115575   1.686   5.973   2.115  0.3638  0.1991  0.0568
  143OSM   H11A15576   1.782   5.980   2.170  0.3288 -0.9675  0.2912
  143OSM   H11B15577   1.606   6.023   2.175 -0.0951 -1.0981  0.5571
  143OSM      P15578   1.759   6.140   1.934  0.5831  0.1690 -0.0230
  143OSM    O1315579   1.894   6.092   1.900  0.1504  0.2869  0.3471
  143OSM    O1415580   1.679   6.209   1.825 -0.4502  0.3639 -0.0084
  143OSM    O1115581   1.758   6.237   2.061 -0.5560  0.3562  0.0613
  143OSM    O1215582   1.674   6.029   1.978 -0.5521 -0.9076 -0.3656
  143OSM    C1S15583   1.642   6.320   2.083 -0.2166  0.3653 -0.2744
  143OSM    H1S15584   1.551   6.257   2.075  0.0733 -0.0393 -0.4158
  143OSM    H1T15585   1.636   6.399   2.005  1.1078  0.5432 -0.2133
  143OSM     NF15586   1.525   6.433   2.270 -0.3998 -0.2213 -0.3274
  143OSM    HNF15587   1.506   6.530   2.287 -0.7416 -0.4870  0.9277
  143OSM    C2S15588   1.651   6.380   2.223  0.3465 -0.0546 -0.3499
  143OSM    H2S15589   1.681   6.299   2.293  3.4329  2.1824  1.1666
  143OSM    C3S15590   1.769   6.482   2.243  0.1214  0.0084 -0.0317
  143OSM    H3S15591   1.743   6.569   2.177  0.4300  1.9771  2.2974
  143OSM     O315592   1.892   6.426   2.197  0.1016  0.3960  0.3925
  143OSM    HO315593   1.856   6.341   2.168 -0.6932  1.1416 -0.8831
  143OSM    C4S15594   1.776   6.543   2.380 -0.4059 -0.4192  0.0094
  143OSM    H4S15595   1.700   6.621   2.392 -0.7814 -0.6401 -0.8507
  143OSM    C5S15596   1.853   6.504   2.480 -0.5673 -0.3805 -1.0691
  143OSM    H5S15597   1.907   6.409   2.466 -2.6607 -1.5878 -1.3605
  143OSM    C6S15598   1.853   6.570   2.618 -0.5733 -0.3328 -0.2844
  143OSM    H6S15599   1.788   6.657   2.639  0.7482  0.8516 -0.9444
  143OSM    H6T15600   1.960   6.596   2.635 -0.4687 -1.5985  1.2371
  143OSM    C7S15601   1.832   6.472   2.728  0.3797 -0.0258 -0.4544
  143OSM    H7S15602   1.890   6.379   2.711  1.3519  0.7335 -1.4044
  143OSM    H7T15603   1.727   6.434   2.732  1.3935 -3.0717  2.3053
  143OSM    C8S15604   1.853   6.528   2.870  0.2364 -0.5871  0.1331
  143OSM    H8S15605   1.798   6.623   2.886  3.3455  1.8241 -2.0665
  143OSM    H8T15606   1.961   6.547   2.888  0.2362 -0.2696 -0.2010
  143OSM    C9S15607   1.829   6.427   2.979  0.5747 -0.1709 -0.0768
  143OSM    H9S15608   1.881   6.329   2.972 -0.9896 -1.2427  2.2113
  143OSM    H9T15609   1.721   6.401   2.973  0.8610 -1.3580 -0.3935
  143OSM   C10S15610   1.856   6.487   3.121 -0.2263 -0.4405  0.5636
  143OSM   H10S15611   1.786   6.572   3.132 -1.3294 -1.1680 -0.5427
  143OSM   H10T15612   1.960   6.524   3.134 -0.2479 -0.6366  1.3286
  143OSM   C11S15613   1.814   6.390   3.229 -0.5870  0.8392  0.2697
  143OSM   H11S15614   1.889   6.308   3.221 -0.2091  1.1421  0.6331
  143OSM   H11T15615   1.713   6.348   3.211  0.2204 -0.9765 -0.2521
  143OSM   C12S15616   1.839   6.446   3.369  0.6870  0.0065 -0.3353
  143OSM   H12S15617   1.750   6.506   3.397  0.4007 -0.3899 -0.3766
  143OSM   H12T15618   1.921   6.518   3.349  0.3045 -0.0450 -2.2263
  143OSM   C13S15619   1.884   6.337   3.463  0.5558  0.5898 -0.2994
  143OSM   H13S15620   1.956   6.269   3.412  0.9198  0.1561  0.7640
  143OSM   H13T15621   1.794   6.275   3.486 -0.0110  0.1273 -3.2928
  143OSM   C14S15622   1.951   6.382   3.591  0.8687 -0.4244 -0.0280
  143OSM   H14S15623   2.029   6.456   3.566  1.2739 -0.6911  0.4325
  143OSM   H14T15624   2.005   6.294   3.630  1.4408 -0.2256 -0.3619
  143OSM   C15S15625   1.849   6.440   3.691 -0.9269  0.1518 -0.3474
  143OSM   H15S15626   1.774   6.362   3.717 -1.2086 -0.5427 -2.9662
  143OSM   H15T15627   1.795   6.528   3.650  0.1058  1.0102  0.0784
  143OSM   C16S15628   1.930   6.477   3.819 -0.3125  0.4077  0.4527
  143OSM   H16S15629   1.994   6.564   3.793 -0.7791  1.1127  1.6064
  143OSM   H16T15630   1.982   6.385   3.851  1.3609  0.2376 -2.3802
  143OSM   C17S15631   1.853   6.534   3.936 -0.3567  1.1347 -0.2948
  143OSM   H17S15632   1.806   6.624   3.892 -0.6191  1.2329  0.1784
  143OSM   H17T15633   1.915   6.579   4.017 -0.0258 -0.2403  0.2400
  143OSM   C18S15634   1.739   6.442   3.974 -0.1168 -0.8320  0.7962
  143OSM   H18S15635   1.674   6.486   4.053  0.7987 -0.8965  1.6004
  143OSM   H18T15636   1.763   6.335   3.994 -0.1291 -0.9435  0.2208
  143OSM   H18U15637   1.669   6.440   3.888  1.6824  0.5000 -0.7797
  143OSM    C1F15638   1.414   6.361   2.278 -0.6338  0.8150  0.4224
  143OSM     OF15639   1.417   6.238   2.271  0.0502  0.5317 -0.0141
  143OSM    C2F15640   1.278   6.427   2.287 -0.3845 -0.5992  0.1785
  143OSM    H2F15641   1.235   6.408   2.186 -1.0630 -1.6097  0.6409
  143OSM    H2G15642   1.304   6.534   2.302  0.9905 -0.8756 -0.0578
  143OSM    C3F15643   1.192   6.385   2.411  0.3081 -0.2860  0.2440
  143OSM    H3F15644   1.240   6.436   2.497 -3.3578  1.7436  1.3109
  143OSM    H3G15645   1.205   6.276   2.420 -1.5356 -0.4081  2.3315
  143OSM    C4F15646   1.044   6.416   2.400  0.2617  0.5540  0.2381
  143OSM    H4F15647   0.996   6.374   2.309 -0.1246  2.2085 -0.3663
  143OSM    H4G15648   1.042   6.527   2.401  1.9973  0.6189  0.6678
  143OSM    C5F15649   0.978   6.366   2.528  0.2792  0.3160  0.1146
  143OSM    H5F15650   0.992   6.256   2.531 -0.9265  0.1506  0.4174
  143OSM    H5G15651   0.867   6.373   2.528  0.2430  0.8482  2.4970
  143OSM    C6F15652   1.012   6.451   2.650  0.2141  0.0371 -0.4010
  143OSM    H6F15653   1.007   6.559   2.626  2.0222  1.2231  3.7352
  143OSM    H6G15654   1.120   6.432   2.670 -0.0842 -0.7081  0.5801
  143OSM    C7F15655   0.921   6.416   2.768  0.0413  0.0551 -0.2644
  143OSM    H7F15656   0.939   6.309   2.793  0.9084 -0.2569 -2.0305
  143OSM    H7G15657   0.814   6.430   2.743 -0.6662 -1.9947  1.3315
  143OSM    C8F15658   0.942   6.488   2.905 -0.0904 -0.1255  0.8859
  143OSM    H8F15659   0.946   6.596   2.879 -0.4169 -0.4294 -0.5602
  143OSM    H8G15660   1.041   6.466   2.951  2.1617  0.9675 -2.9537
  143OSM    C9F15661   0.821   6.480   3.000 -0.3043 -0.4110 -0.2607
  143OSM    H9F15662   0.732   6.539   2.974 -1.2499 -1.1097  1.3323
  143OSM   C10F15663   0.816   6.418   3.122 -0.1151 -0.2795  0.4498
  143OSM   H10F15664   0.730   6.436   3.189  0.4958  4.0108  0.3223
  143OSM   C11F15665   0.942   6.341   3.179  0.2719 -0.0614 -0.5629
  143OSM   H11F15666   1.001   6.290   3.100  1.4323  2.0725 -1.1567
  143OSM   H11G15667   0.910   6.269   3.258 -1.8347  1.1919 -0.2175
  143OSM   C12F15668   1.041   6.444   3.239 -0.3106 -0.0031  0.0127
  143OSM   H12F15669   1.068   6.536   3.182 -0.7456 -0.8823 -1.6704
  143OSM   H12G15670   1.139   6.394   3.247 -0.0347  0.6682  0.9172
  143OSM   C13F15671   0.993   6.500   3.379  0.4390  0.6628 -0.0380
  143OSM   H13F15672   0.890   6.541   3.366 -0.2110 -1.0228 -0.4881
  143OSM   H13G15673   1.064   6.574   3.420  1.4450 -0.7675  0.9046
  143OSM   C14F15674   0.988   6.396   3.493  0.4822 -0.1454 -0.2491
  143OSM   H14F15675   1.086   6.346   3.510  0.8013  1.0448  1.6955
  143OSM   H14G15676   0.916   6.316   3.465  1.2992 -1.1415  0.4104
  143OSM   C15F15677   0.946   6.480   3.621  0.1642 -0.0928 -0.1616
  143OSM   H15F15678   0.867   6.555   3.601  0.5598  0.5805  0.7402
  143OSM   H15G15679   1.036   6.529   3.665 -0.1143 -0.2168  0.5564
  143OSM   C16F15680   0.888   6.386   3.733  0.3658 -0.2805  0.1142
  143OSM   H16F15681   0.971   6.315   3.748  0.2736 -0.0701  1.7638
  143OSM   H16G15682   0.796   6.337   3.694  0.9735 -1.5254  0.2045
  143OSM   C17F15683   0.846   6.464   3.857 -0.3516 -0.3552  0.1887
  143OSM   H17F15684   0.933   6.522   3.895 -0.3442  0.8647 -1.5619
  143OSM   H17G15685   0.830   6.388   3.937  0.7930  1.9691  2.7871
  143OSM   C18F15686   0.724   6.552   3.840  0.9379 -0.5850  0.0072
  143OSM   H18F15687   0.631   6.503   3.802  0.6303  1.1854 -1.6679
  143OSM   H18G15688   0.746   6.631   3.765  0.0858 -0.8920 -0.5943
  143OSM   H18H15689   0.699   6.601   3.936  0.0180  0.3640 -0.6899
  144OSM      N15690   1.996   0.286   2.228  0.0216 -0.0399  0.5234
  144OSM    C1515691   1.986   0.147   2.186  0.2750  0.5201  0.2226
  144OSM   H15A15692   1.955   0.142   2.082  2.1264 -0.7141 -0.3203
  144OSM   H15B15693   1.925   0.081   2.245  1.6476 -0.7039  0.3138
  144OSM   H15C15694   2.082   0.098   2.185  1.1483  2.1443  0.7502
  144OSM    C1415695   2.048   0.291   2.365  0.4298 -0.6521 -0.3926
  144OSM   H14A15696   2.147   0.251   2.379  2.3234  3.2866 -0.8831
  144OSM   H14B15697   1.983   0.235   2.430 -0.0312  2.5207  2.1299
  144OSM   H14C15698   2.057   0.391   2.407  1.7709 -0.9529  0.0883
  144OSM    C1315699   2.094   0.353   2.137 -0.1130  0.2238  0.0246
  144OSM   H13A15700   2.132   0.444   2.182  1.8569 -0.0229 -1.0129
  144OSM   H13B15701   2.055   0.369   2.038  0.0003  0.3912  0.0063
  144OSM   H13C15702   2.184   0.293   2.129  1.8779  3.0856 -0.9118
  144OSM    C1215703   1.860   0.361   2.221 -0.1139 -0.2178  0.6987
  144OSM   H12A15704   1.781   0.304   2.266 -1.5235  0.1106 -1.2314
  144OSM   H12B15705   1.839   0.359   2.115 -0.9451  0.2599  0.8449
  144OSM    C1115706   1.855   0.509   2.274 -0.3002 -0.2040 -0.1447
  144OSM   H11A15707   1.952   0.560   2.254 -0.1553 -0.6180 -0.5336
  144OSM   H11B15708   1.840   0.508   2.384 -2.3874 -1.6554 -0.3930
  144OSM      P15709   1.597   0.545   2.234 -0.1173 -0.4432 -0.0247
  144OSM    O1315710   1.521   0.665   2.191  0.1704 -0.0116 -0.2170
  144OSM    O1415711   1.568   0.418   2.174  0.1535 -0.1888 -0.2478
  144OSM    O1115712   1.575   0.531   2.387  0.6640 -0.2420  0.1272
  144OSM    O1215713   1.749   0.579   2.214  0.4436 -0.2749  0.4061
  144OSM    C1S15714   1.508   0.415   2.443 -0.2446 -0.2444 -0.0824
  144OSM    H1S15715   1.571   0.329   2.413 -1.6582 -0.3867 -2.9441
  144OSM    H1T15716   1.407   0.404   2.398  0.3234  0.0430 -1.4597
  144OSM     NF15717   1.445   0.311   2.660  0.6240  0.3746 -0.1432
  144OSM    HNF15718   1.346   0.304   2.672  0.6259 -1.0240 -0.7472
  144OSM    C2S15719   1.486   0.434   2.598 -0.2771 -1.4212  0.7979
  144OSM    H2S15720   1.583   0.466   2.640 -0.3070 -0.2032 -0.0161
  144OSM    C3S15721   1.393   0.556   2.644 -0.2465  0.4035  0.3138
  144OSM    H3S15722   1.288   0.542   2.610 -0.4521 -1.3669  1.5402
  144OSM     O315723   1.439   0.677   2.591 -0.1090  0.3653 -0.6363
  144OSM    HO315724   1.503   0.648   2.526  1.1240 -1.0764  1.0916
  144OSM    C4S15725   1.392   0.565   2.792  0.1757  0.3065 -0.4756
  144OSM    H4S15726   1.488   0.595   2.837  0.4032 -3.6199  2.1590
  144OSM    C5S15727   1.306   0.513   2.885  0.7621 -0.6007  0.2013
  144OSM    H5S15728   1.222   0.450   2.852  0.4427 -0.2890  0.4014
  144OSM    C6S15729   1.335   0.513   3.033 -0.0585 -0.2446 -0.1069
  144OSM    H6S15730   1.259   0.570   3.090 -0.0386  1.4315 -1.6600
  144OSM    H6T15731   1.432   0.564   3.055 -0.7110  1.2967 -0.6507
  144OSM    C7S15732   1.333   0.364   3.082 -0.1875  0.6768 -1.2906
  144OSM    H7S15733   1.381   0.292   3.013 -0.5260 -0.2032 -0.6196
  144OSM    H7T15734   1.224   0.347   3.087 -0.0064 -0.2398  0.2644
  144OSM    C8S15735   1.391   0.342   3.227 -0.7141 -0.1230  0.7207
  144OSM    H8S15736   1.497   0.375   3.220 -0.9127  0.6074  1.1022
  144OSM    H8T15737   1.383   0.237   3.264  0.3656 -0.4862 -0.0238
  144OSM    C9S15738   1.324   0.432   3.332  0.0681  0.2906 -0.6462
  144OSM    H9S15739   1.221   0.398   3.354  0.7458 -1.8226 -0.5034
  144OSM    H9T15740   1.322   0.535   3.291 -2.1142 -0.0805 -1.5954
  144OSM   C10S15741   1.395   0.425   3.467 -0.2818 -0.0930  0.0976
  144OSM   H10S15742   1.488   0.487   3.462 -1.8613  2.5205  0.9467
  144OSM   H10T15743   1.424   0.319   3.485 -0.2658 -0.4136 -1.6700
  144OSM   C11S15744   1.313   0.490   3.573 -0.2058 -0.2071 -0.2245
  144OSM   H11S15745   1.206   0.462   3.568 -0.2233  0.0798 -3.0920
  144OSM   H11T15746   1.309   0.601   3.566  0.4332 -0.1220  0.5618
  144OSM   C12S15747   1.377   0.440   3.706  0.3866  0.1536 -0.6148
  144OSM   H12S15748   1.484   0.469   3.704 -0.2605  2.7129 -1.0673
  144OSM   H12T15749   1.359   0.330   3.708 -0.7338  0.3163 -1.2948
  144OSM   C13S15750   1.310   0.493   3.835 -0.1529  0.7216 -0.1202
  144OSM   H13S15751   1.201   0.482   3.817 -0.3160 -0.5765  1.3658
  144OSM   H13T15752   1.347   0.597   3.843  0.9860  0.3843 -0.8219
  144OSM   C14S15753   1.343   0.409   3.959 -0.0721 -0.3303  0.6161
  144OSM   H14S15754   1.452   0.424   3.975 -0.3368  0.9135  1.4336
  144OSM   H14T15755   1.324   0.305   3.927  0.0537 -0.4235  0.8421
  144OSM   C15S15756   1.277   0.446   4.082  0.1583 -0.2591 -0.0329
  144OSM   H15S15757   1.170   0.422   4.064  0.4635 -1.5974 -0.1599
  144OSM   H15T15758   1.285   0.556   4.099  0.8366 -0.3954  0.6195
  144OSM   C16S15759   1.317   0.375   4.210 -0.0828  0.4959 -0.0625
  144OSM   H16S15760   1.269   0.426   4.296  0.3716  0.6727  0.0878
  144OSM   H16T15761   1.426   0.385   4.231  0.4117 -2.2555 -0.8167
  144OSM   C17S15762   1.292   0.223   4.205 -0.0639 -0.4759  0.1065
  144OSM   H17S15763   1.339   0.181   4.113 -0.8932 -0.4331 -0.3444
  144OSM   H17T15764   1.182   0.214   4.196 -0.3809  1.0156  1.9355
  144OSM   C18S15765   1.340   0.155   4.329  0.4801  0.0729 -0.2116
  144OSM   H18S15766   1.307   0.218   4.414  2.2550  0.1708  0.4474
  144OSM   H18T15767   1.450   0.144   4.341  1.0776  4.2321 -0.3313
  144OSM   H18U15768   1.290   0.056   4.340 -0.2658  0.5407  0.8071
  144OSM    C1F15769   1.524   0.202   2.655  0.8879  0.7050  0.7991
  144OSM     OF15770   1.642   0.211   2.617 -0.0602  0.1424  1.1023
  144OSM    C2F15771   1.458   0.073   2.688 -0.3292  0.4410  0.0777
  144OSM    H2F15772   1.364   0.053   2.631 -0.6732  0.0855  0.7569
  144OSM    H2G15773   1.421   0.080   2.792  1.7594 -1.7745  1.0671
  144OSM    C3F15774   1.550  -0.050   2.669 -0.3148  0.2524  0.0819
  144OSM    H3F15775   1.624  -0.067   2.750 -0.7734 -1.7407  0.1399
  144OSM    H3G15776   1.605  -0.038   2.573  2.9323 -0.3733  1.6979
  144OSM    C4F15777   1.481  -0.188   2.655  0.1875 -0.2678 -0.6701
  144OSM    H4F15778   1.568  -0.257   2.649  2.6869  2.3778  1.5997
  144OSM    H4G15779   1.437  -0.193   2.553  0.0040 -3.4311 -0.5194
  144OSM    C5F15780   1.381  -0.223   2.771  0.3321 -0.0660  0.2389
  144OSM    H5F15781   1.355  -0.331   2.768 -2.6257  0.5686 -1.2786
  144OSM    H5G15782   1.288  -0.163   2.759 -0.0542 -0.4834  1.0793
  144OSM    C6F15783   1.434  -0.196   2.912  0.8936 -0.5474 -0.2576
  144OSM    H6F15784   1.422  -0.088   2.936 -1.7830  0.0499 -3.4809
  144OSM    H6G15785   1.538  -0.235   2.920  1.5697  1.4360  1.6469
  144OSM    C7F15786   1.347  -0.258   3.024 -0.4260  0.2779 -0.0686
  144OSM    H7F15787   1.320  -0.365   3.014  0.4620 -0.0161  0.5376
  144OSM    H7G15788   1.245  -0.212   3.021  0.0016  1.1817 -1.8935
  144OSM    C8F15789   1.418  -0.242   3.156 -0.2461  0.3437 -0.6829
  144OSM    H8F15790   1.521  -0.282   3.142 -1.4507 -2.4035 -2.6348
  144OSM    H8G15791   1.367  -0.311   3.227  0.6399 -0.8637 -1.1970
  144OSM    C9F15792   1.414  -0.097   3.204 -0.0301  0.4033  1.0093
  144OSM    H9F15793   1.446  -0.029   3.125 -0.3398 -0.5806  0.0157
  144OSM   C10F15794   1.389  -0.052   3.328 -0.0295 -0.1262  0.0729
  144OSM   H10F15795   1.396   0.056   3.350 -1.2747 -0.3021  1.5325
  144OSM   C11F15796   1.344  -0.133   3.451 -0.4731  0.1406  0.3450
  144OSM   H11F15797   1.261  -0.198   3.415 -0.7252  0.0391  1.0892
  144OSM   H11G15798   1.301  -0.064   3.527 -0.5998  0.5167 -0.0641
  144OSM   C12F15799   1.457  -0.216   3.519 -0.8604 -0.2990 -0.4354
  144OSM   H12F15800   1.545  -0.148   3.516 -0.8428 -0.3551 -1.8847
  144OSM   H12G15801   1.492  -0.300   3.454  0.5420  1.3886 -1.9721
  144OSM   C13F15802   1.428  -0.268   3.660  0.6786  0.0595 -0.4732
  144OSM   H13F15803   1.495  -0.356   3.678 -0.1098  0.0123  2.8223
  144OSM   H13G15804   1.319  -0.289   3.666  0.4608  1.3771  0.4443
  144OSM   C14F15805   1.460  -0.180   3.780  0.3319 -0.1827 -0.2860
  144OSM   H14F15806   1.414  -0.080   3.772 -1.9159 -1.1652 -0.5771
  144OSM   H14G15807   1.570  -0.167   3.787  0.0698  3.0193 -0.7682
  144OSM   C15F15808   1.404  -0.235   3.911  0.1166 -0.1327 -0.5460
  144OSM   H15F15809   1.459  -0.330   3.930  2.6180  0.6382 -3.2118
  144OSM   H15G15810   1.297  -0.260   3.892  0.7347 -1.3427 -2.6828
  144OSM   C16F15811   1.423  -0.141   4.035 -0.0979 -0.3584  0.8125
  144OSM   H16F15812   1.355  -0.054   4.025  0.8709  0.3209  0.0623
  144OSM   H16G15813   1.526  -0.099   4.039 -0.2016  0.3228 -1.9009
  144OSM   C17F15814   1.403  -0.205   4.173 -0.2350  0.4978 -0.1812
  144OSM   H17F15815   1.431  -0.132   4.251 -1.5557  2.3538 -1.3376
  144OSM   H17G15816   1.472  -0.291   4.185  0.1784  1.0556  1.6886
  144OSM   C18F15817   1.265  -0.246   4.191  0.4511 -0.0261  0.6110
  144OSM   H18F15818   1.223  -0.316   4.115  1.7176 -0.2399  0.0850
  144OSM   H18G15819   1.194  -0.161   4.190 -0.5549 -0.8085 -1.3737
  144OSM   H18H15820   1.255  -0.295   4.290  1.7555  0.2707  0.9091
  145SAPE     N15821   2.449   2.477   6.216  0.0643 -0.2435 -0.3751
  145SAPE   HN115822   2.404   2.520   6.299  0.3062 -1.0399  0.1659
  145SAPE   HN215823   2.539   2.523   6.191  1.2571 -2.3838 -0.1727
  145SAPE   HN315824   2.387   2.478   6.132 -0.6052  1.3687  0.0868
  145SAPE   C1215825   2.480   2.337   6.255  0.1427  0.2907 -0.9152
  145SAPE  H12A15826   2.522   2.285   6.166  0.4156 -1.7270  0.3356
  145SAPE  H12B15827   2.384   2.292   6.288  0.6255  0.5347  0.9090
  145SAPE   C1115828   2.577   2.317   6.372 -0.7846 -0.1019 -0.0935
  145SAPE  H11A15829   2.589   2.209   6.394 -1.7367 -0.8900 -2.9900
  145SAPE  H11B15830   2.533   2.370   6.459 -1.8726 -1.7550  0.4115
  145SAPE     P15831   2.765   2.499   6.413  0.0813 -0.1161  0.2229
  145SAPE   O1315832   2.719   2.621   6.340 -0.6587 -0.0234 -0.5849
  145SAPE   O1415833   2.722   2.483   6.556  0.7547  0.3409 -0.5884
  145SAPE   O1215834   2.707   2.368   6.335  0.0179 -0.4740 -0.5916
  145SAPE   O1115835   2.922   2.480   6.404  0.4557  0.2011 -0.0628
  145SAPE    C115836   2.999   2.580   6.346 -0.2081 -0.6916 -0.2697
  145SAPE    HA15837   2.974   2.684   6.375  5.2338  0.6082  0.8125
  145SAPE    HB15838   3.099   2.561   6.390 -0.0468 -0.6071 -0.5963
  145SAPE    C215839   3.007   2.572   6.191  0.1600  0.1243 -0.3402
  145SAPE    HS15840   2.906   2.608   6.163 -0.5315 -0.8621  0.8080
  145SAPE   O2115841   3.033   2.435   6.150  0.2943 -0.2525 -0.0442
  145SAPE   C2115842   2.958   2.394   6.050 -0.2503 -0.6239  0.2648
  145SAPE   O2215843   2.866   2.454   5.999  0.3572 -0.5428  0.3074
  145SAPE   C2215844   2.989   2.248   6.019  0.2617 -0.2403  0.7518
  145SAPE   H2R15845   3.080   2.259   5.955 -2.8130  2.2769 -3.6691
  145SAPE   H2S15846   3.009   2.177   6.102  1.7342  0.3722  0.9643
  145SAPE    C315847   3.107   2.670   6.132 -0.3165 -0.2059  0.0398
  145SAPE    HX15848   3.215   2.649   6.153 -0.6091 -0.2128  1.7298
  145SAPE    HY15849   3.093   2.766   6.186  2.4997 -0.5220  1.5417
  145SAPE   O3115850   3.092   2.677   5.987 -0.0109  0.3943 -0.0199
  145SAPE   C3115851   3.001   2.762   5.949  1.2074 -0.4561 -0.3737
  145SAPE   O3215852   2.900   2.798   6.013  0.0388  0.1461 -0.2149
  145SAPE   C3215853   3.055   2.824   5.825  1.1459 -0.3771  0.4279
  145SAPE   H2X15854   3.160   2.794   5.804  1.2576  1.0276 -1.2101
  145SAPE   H2Y15855   3.049   2.928   5.862 -0.4795 -1.2103  2.7428
  145SAPE   C2315856   2.887   2.181   5.927  0.3108 -0.1130  0.0310
  145SAPE   H3R15857   2.871   2.235   5.832 -2.7374  0.4776  0.7771
  145SAPE   H3S15858   2.792   2.171   5.984  1.0965 -0.8470  1.2710
  145SAPE   C2415859   2.935   2.040   5.891 -0.1820  0.4897 -0.0170
  145SAPE   H4R15860   2.967   1.994   5.987  2.1760  0.2657 -0.8339
  145SAPE   H4S15861   3.019   2.050   5.819 -0.3790 -1.5425 -0.5870
  145SAPE   C2515862   2.822   1.956   5.835 -0.3265 -0.1918  0.1072
  145SAPE   H5R15863   2.754   1.926   5.916 -1.5650  0.9272 -0.4610
  145SAPE   C2615864   2.783   1.919   5.710 -0.5426  0.1099  0.8851
  145SAPE   H6R15865   2.707   1.841   5.699 -0.0977 -0.1138 -0.9018
  145SAPE   C2715866   2.844   1.967   5.578  0.8613 -0.2284  0.2161
  145SAPE   H7R15867   2.900   1.885   5.526  1.9827  0.7263 -0.1255
  145SAPE   H7S15868   2.914   2.051   5.594 -0.5445  1.1864 -0.7712
  145SAPE   C2815869   2.733   2.015   5.488 -0.5097  0.0518  0.2127
  145SAPE   H8R15870   2.667   2.092   5.530  0.5919  0.4383  1.2967
  145SAPE   C2915871   2.700   1.975   5.367 -0.1140 -0.0360 -0.3843
  145SAPE   H9R15872   2.627   2.039   5.316  0.5054  0.5152 -0.5940
  145SAPE  C21015873   2.765   1.863   5.284  0.1286  0.3686 -0.3724
  145SAPE  H10R15874   2.691   1.780   5.275 -1.1064  1.1771  1.6145
  145SAPE  H10S15875   2.853   1.824   5.339  0.5112 -1.8999 -2.3895
  145SAPE  C21115876   2.801   1.905   5.146 -0.2718  0.0774  0.3034
  145SAPE  H11R15877   2.723   1.882   5.072  0.7079 -2.3136 -0.0723
  145SAPE  C21215878   2.915   1.970   5.107  0.1186 -0.1474  0.1991
  145SAPE  H12R15879   2.919   2.004   5.002  0.6428 -2.2116 -0.4981
  145SAPE  C21315880   3.027   2.006   5.190  0.4240  1.0663  0.0693
  145SAPE  H13R15881   3.119   1.982   5.132  0.9611 -0.6490  1.5251
  145SAPE  H13S15882   3.028   1.937   5.277  0.9037  2.8985  1.5699
  145SAPE  C21415883   3.035   2.153   5.233  0.2363  0.3531  0.3455
  145SAPE  H14R15884   2.996   2.155   5.336 -2.0898 -2.7370 -0.3243
  145SAPE  C21515885   3.071   2.259   5.153 -0.3611 -0.0383 -0.3730
  145SAPE  H15R15886   3.051   2.365   5.171  1.2477  0.1785  0.2878
  145SAPE  C21615887   3.137   2.248   5.018  0.1945  0.3493  0.3357
  145SAPE  H16R15888   3.057   2.253   4.940  1.5358  0.9779 -1.0526
  145SAPE  H16S15889   3.190   2.152   4.996 -0.9428  0.0386 -1.2666
  145SAPE  C21715890   3.241   2.350   4.976 -0.8229 -0.0682  0.1264
  145SAPE  H17R15891   3.324   2.341   5.050 -1.0254 -1.4095  0.2133
  145SAPE  H17S15892   3.189   2.449   4.972 -1.3200 -0.2920  0.8954
  145SAPE  C21815893   3.304   2.324   4.839  0.5241  0.0210  0.5462
  145SAPE  H18R15894   3.297   2.218   4.807  1.7772 -0.7653  2.6574
  145SAPE  H18S15895   3.411   2.351   4.851  0.3670  0.6437  0.5789
  145SAPE  C21915896   3.245   2.422   4.734  0.0822 -0.2343 -0.3751
  145SAPE  H19R15897   3.254   2.523   4.779  0.6963  0.3789 -1.8102
  145SAPE  H19S15898   3.135   2.409   4.730  0.0843  0.0095 -1.4158
  145SAPE  C22015899   3.316   2.414   4.595  0.4386  0.2183  0.1704
  145SAPE  H20R15900   3.244   2.463   4.526  0.1160 -0.9551 -0.3485
  145SAPE  H20S15901   3.323   2.308   4.560 -2.6553 -1.2496  3.3737
  145SAPE  H20T15902   3.418   2.458   4.588  1.0610 -0.9939  1.2739
  145SAPE   C3315903   2.960   2.824   5.704  0.1654  0.1652  1.3937
  145SAPE   H3X15904   2.867   2.879   5.732 -0.5945 -0.5458  0.3315
  145SAPE   H3Y15905   2.922   2.722   5.682  2.0288  0.1188 -2.4848
  145SAPE   C3415906   3.008   2.903   5.574  0.0322  0.1986 -0.2318
  145SAPE   H4X15907   3.041   3.003   5.610 -0.6177 -0.4585  2.4181
  145SAPE   H4Y15908   2.912   2.920   5.521 -0.4491  0.8782  0.8316
  145SAPE   C3515909   3.105   2.833   5.480 -0.6102  0.2013 -0.0436
  145SAPE   H5X15910   3.195   2.807   5.541 -1.0462  2.2516  1.5635
  145SAPE   H5Y15911   3.146   2.911   5.412 -0.4360  1.0510  1.0072
  145SAPE   C3615912   3.041   2.716   5.397 -0.7485 -0.4013 -0.3945
  145SAPE   H6X15913   2.959   2.759   5.336 -1.7371  0.1841  1.2831
  145SAPE   H6Y15914   3.005   2.637   5.467  0.2598 -2.1235 -1.7346
  145SAPE   C3715915   3.146   2.647   5.306  0.1372 -0.6936 -0.0244
  145SAPE   H7X15916   3.099   2.549   5.284  0.8266 -0.1313 -5.1831
  145SAPE   H7Y15917   3.244   2.632   5.356  0.0108 -0.9707  0.1437
  145SAPE   C3815918   3.158   2.712   5.167  0.4667 -0.0865  0.1939
  145SAPE   H8X15919   3.221   2.642   5.107 -0.5234 -0.3626 -0.5508
  145SAPE   H8Y15920   3.205   2.812   5.173  0.1069  0.0629  0.5015
  145SAPE   C3915921   3.033   2.724   5.090 -0.0241  0.6240  0.4542
  145SAPE   H9X15922   2.951   2.788   5.130 -1.3422  0.3920 -1.6574
  145SAPE   H9Y15923   2.996   2.619   5.088  1.6324  0.0161  0.1275
  145SAPE  C31015924   3.064   2.763   4.945  0.2542 -0.3962 -0.0309
  145SAPE  H10X15925   3.136   2.694   4.895  1.8225  0.9731  0.2727
  145SAPE  H10Y15926   3.110   2.863   4.932  1.4426 -0.9515 -0.2587
  145SAPE  C31115927   2.942   2.754   4.855  0.3933 -0.5291 -0.1384
  145SAPE  H11X15928   2.911   2.853   4.817 -1.1301 -1.6696 -1.9928
  145SAPE  H11Y15929   2.852   2.715   4.907  0.3800 -1.0750 -0.5595
  145SAPE  C31215930   2.968   2.655   4.735  0.0691  0.2319  1.1972
  145SAPE  H12X15931   2.979   2.548   4.763 -1.5316 -1.0062 -2.3164
  145SAPE  H12Y15932   3.068   2.675   4.689  0.0978 -1.6773  0.2939
  145SAPE  C31315933   2.862   2.662   4.616 -0.4140  0.4193 -0.0989
  145SAPE  H13X15934   2.903   2.736   4.543  0.6695  1.8825  1.8963
  145SAPE  H13Y15935   2.765   2.708   4.643  0.0024  2.2030 -1.4357
  145SAPE  C31415936   2.830   2.525   4.560  0.8800  0.1422  0.2251
  145SAPE  H14X15937   2.767   2.464   4.629  0.3966  0.1496 -0.2008
  145SAPE  H14Y15938   2.928   2.476   4.543  0.1963 -0.6598 -1.6782
  145SAPE  C31515939   2.757   2.531   4.428  0.1141  0.4367 -0.2869
  145SAPE  H15X15940   2.821   2.589   4.358 -0.7014 -0.0040 -1.4233
  145SAPE  H15Y15941   2.660   2.586   4.435 -0.7450 -1.1333  1.0726
  145SAPE  C31615942   2.721   2.398   4.350  0.3375 -0.6699  0.2684
  145SAPE  H16X15943   2.689   2.424   4.247  2.6520 -0.6607 -0.5194
  145SAPE  H16Y15944   2.641   2.344   4.405 -0.0544 -1.3828 -0.9638
  145SAPE  C31715945   2.839   2.309   4.345  0.8069 -0.8230  0.0302
  145SAPE  H17X15946   2.863   2.266   4.444  0.5572  0.8964  0.8852
  145SAPE  H17Y15947   2.926   2.369   4.310 -1.0070  1.4704 -0.8230
  145SAPE  C31815948   2.809   2.192   4.246  0.1485  0.3356 -0.3442
  145SAPE  H18X15949   2.802   2.244   4.148 -0.6218 -1.0610 -1.0565
  145SAPE  H18Y15950   2.711   2.147   4.274 -0.2215  0.5816 -1.2141
  145SAPE  H18Z15951   2.895   2.122   4.246  0.5732  0.8452  0.3551
  146SAPE     N15952   3.701   0.202   6.541 -0.0493  0.1632  0.3166
  146SAPE   HN115953   3.611   0.164   6.576  1.2381 -1.7616  1.7633
  146SAPE   HN215954   3.782   0.152   6.583  0.9708 -2.0768 -3.6780
  146SAPE   HN315955   3.721   0.295   6.581 -1.2903 -0.0924  1.6060
  146SAPE   C1215956   3.707   0.207   6.389  0.2976  0.7138  0.2166
  146SAPE  H12A15957   3.688   0.105   6.349  2.8076 -0.2813  1.3062
  146SAPE  H12B15958   3.812   0.234   6.362  0.5786 -1.2514 -0.8395
  146SAPE   C1115959   3.628   0.321   6.339 -0.8092 -0.5692  0.1549
  146SAPE  H11A15960   3.521   0.302   6.362 -0.6848 -0.0177  1.2914
  146SAPE  H11B15961   3.641   0.322   6.229 -1.3643  1.9457  0.0575
  146SAPE     P15962   3.582   0.576   6.363  0.1829  0.2849 -0.4776
  146SAPE   O1315963   3.461   0.582   6.441  0.2468  0.5431 -0.5721
  146SAPE   O1415964   3.675   0.695   6.373 -0.2927 -0.1137  0.5398
  146SAPE   O1215965   3.659   0.446   6.402 -0.6502 -0.3080  0.3585
  146SAPE   O1115966   3.537   0.566   6.211 -0.0687  0.4160 -0.1333
  146SAPE    C115967   3.634   0.571   6.105  0.2373 -0.3545 -0.1733
  146SAPE    HA15968   3.735   0.576   6.152 -0.7114  0.7961  1.8863
  146SAPE    HB15969   3.624   0.471   6.058 -0.3293 -0.4963  0.2422
  146SAPE    C215970   3.595   0.669   5.991  0.0017  0.6557 -0.2400
  146SAPE    HS15971   3.655   0.652   5.900  2.0969 -0.5430  1.2647
  146SAPE   O2115972   3.617   0.811   6.019  0.0704 -0.1204  0.4319
  146SAPE   C2115973   3.747   0.843   6.008  0.0064 -0.4561  0.3154
  146SAPE   O2215974   3.840   0.765   5.985  0.6161 -0.1552  0.7353
  146SAPE   C2215975   3.760   0.994   6.019  1.1317 -0.0275  0.4333
  146SAPE   H2R15976   3.702   1.050   5.943  3.8048  0.8577 -1.0652
  146SAPE   H2S15977   3.714   1.021   6.117 -0.1826  0.7313 -0.3669
  146SAPE    C315978   3.454   0.633   5.953 -0.1762 -0.0855 -0.0445
  146SAPE    HX15979   3.388   0.622   6.042 -4.5416  0.8230 -2.8483
  146SAPE    HY15980   3.449   0.527   5.917 -2.3027  0.4198 -1.4373
  146SAPE   O3115981   3.395   0.717   5.850 -0.1709 -0.0966 -0.2868
  146SAPE   C3115982   3.330   0.817   5.903  0.0540 -0.4553 -0.4300
  146SAPE   O3215983   3.302   0.838   6.015  0.4976 -0.5367  0.3069
  146SAPE   C3215984   3.298   0.912   5.790 -0.0058 -0.2091 -0.1111
  146SAPE   H2X15985   3.333   1.016   5.808 -0.2487  0.2790 -2.1996
  146SAPE   H2Y15986   3.187   0.918   5.783 -0.1383 -2.0151 -0.2287
  146SAPE   C2315987   3.900   1.053   6.009 -0.4166 -0.5759  0.0724
  146SAPE   H3R15988   3.952   1.005   5.923 -1.5632 -2.8915  0.6008
  146SAPE   H3S15989   3.951   1.032   6.105  1.8402 -1.1341 -1.1679
  146SAPE   C2415990   3.891   1.203   5.993 -0.5928  0.6936  0.7077
  146SAPE   H4R15991   3.826   1.235   6.077 -1.6042  0.5721 -0.0033
  146SAPE   H4S15992   3.837   1.242   5.904  2.2537  2.2552 -0.4434
  146SAPE   C2515993   4.028   1.270   6.003  0.5942  0.7047 -0.1562
  146SAPE   H5R15994   4.057   1.308   6.102  1.4076  1.4080 -0.6552
  146SAPE   C2615995   4.109   1.294   5.899  0.9330 -0.3426  0.4720
  146SAPE   H6R15996   4.204   1.344   5.922 -0.2080  0.8318  3.0812
  146SAPE   C2715997   4.089   1.233   5.756  0.3570 -0.5550  0.0784
  146SAPE   H7R15998   4.043   1.134   5.773 -1.1375  0.6153  3.7909
  146SAPE   H7S15999   4.197   1.217   5.736  0.3955 -0.1449 -0.0483
  146SAPE   C2816000   4.024   1.316   5.641 -0.0931  0.7391 -0.0125
  146SAPE   H8R16001   4.026   1.425   5.660  0.6209  0.3503  2.4369
  146SAPE   C2916002   3.977   1.263   5.524 -0.4434 -0.6763  0.0487
  146SAPE   H9R16003   3.936   1.335   5.451  0.6657  0.5368  0.5769
  146SAPE  C21016004   3.977   1.123   5.485 -0.4267  0.0843 -0.6216
  146SAPE  H10R16005   4.012   1.061   5.569  0.0578 -0.3223 -1.1195
  146SAPE  H10S16006   4.058   1.111   5.410 -0.9137 -1.6767 -0.8970
  146SAPE  C21116007   3.858   1.066   5.422  1.2912  0.0037  0.4399
  146SAPE  H11R16008   3.821   1.111   5.328  1.7597 -0.2684  0.1196
  146SAPE  C21216009   3.778   0.978   5.484  0.5542 -0.4825  0.0373
  146SAPE  H12R16010   3.692   0.926   5.439  0.8941 -2.6985  1.7543
  146SAPE  C21316011   3.788   0.910   5.613  0.2993  0.7417 -0.9621
  146SAPE  H13R16012   3.686   0.894   5.654  1.4755  1.2236  2.4937
  146SAPE  H13S16013   3.843   0.974   5.686  1.4391 -1.0002 -0.2329
  146SAPE  C21416014   3.871   0.783   5.612  0.1862 -1.0723  0.0695
  146SAPE  H14R16015   3.979   0.804   5.613  0.1125 -0.5444 -1.1434
  146SAPE  C21516016   3.822   0.664   5.570  0.4023  0.4495  0.0879
  146SAPE  H15R16017   3.884   0.573   5.571  1.9582  1.4580  1.7188
  146SAPE  C21616018   3.669   0.633   5.563  0.0964 -0.0832  0.6229
  146SAPE  H16R16019   3.607   0.722   5.588 -2.1379 -0.5626 -2.6247
  146SAPE  H16S16020   3.654   0.542   5.625  0.5772  0.2674  1.2755
  146SAPE  C21716021   3.625   0.595   5.423 -0.0338 -0.3463 -0.0936
  146SAPE  H17R16022   3.679   0.658   5.349  0.6139 -2.8996 -1.8961
  146SAPE  H17S16023   3.515   0.602   5.411 -0.5082 -3.4528  1.5361
  146SAPE  C21816024   3.646   0.447   5.394 -0.1297 -0.0496  0.6859
  146SAPE  H18R16025   3.579   0.384   5.456  0.5584 -0.0449  1.4496
  146SAPE  H18S16026   3.749   0.423   5.429  0.5391 -1.5756 -2.0022
  146SAPE  C21916027   3.617   0.413   5.242 -0.9923 -0.1630 -0.4116
  146SAPE  H19R16028   3.509   0.415   5.216 -1.3227  0.6509  0.9297
  146SAPE  H19S16029   3.651   0.307   5.239 -0.0017  0.1477 -0.3828
  146SAPE  C22016030   3.689   0.493   5.135 -0.2243 -0.4353 -0.4940
  146SAPE  H20R16031   3.796   0.503   5.164 -0.1710 -0.7904 -0.5676
  146SAPE  H20S16032   3.654   0.598   5.122  0.0707 -0.3103 -0.2915
  146SAPE  H20T16033   3.681   0.443   5.036 -0.7769 -1.1855 -0.0862
  146SAPE   C3316034   3.362   0.874   5.661 -0.2883  0.6476 -0.1552
  146SAPE   H3X16035   3.340   0.768   5.634  0.7579  0.7083 -1.3521
  146SAPE   H3Y16036   3.473   0.876   5.665 -0.2785  1.7585 -0.7222
  146SAPE   C3416037   3.329   0.970   5.552 -0.0327  0.1329 -0.2833
  146SAPE   H4X16038   3.357   1.073   5.580  1.0557  0.0373 -0.9807
  146SAPE   H4Y16039   3.220   0.972   5.531  0.2763  1.0668 -1.9540
  146SAPE   C3516040   3.392   0.924   5.423 -0.5830  0.7345  0.1092
  146SAPE   H5X16041   3.331   0.847   5.371  0.7324 -0.8792  0.8458
  146SAPE   H5Y16042   3.488   0.868   5.436  0.4588  1.8915 -1.9864
  146SAPE   C3616043   3.426   1.040   5.330  0.8258 -0.4031  0.0851
  146SAPE   H6X16044   3.521   1.077   5.374 -0.7755  1.2922  2.3733
  146SAPE   H6Y16045   3.345   1.115   5.342  1.3204  0.1745 -0.1108
  146SAPE   C3716046   3.440   1.011   5.184  0.4986 -0.9913 -0.0225
  146SAPE   H7X16047   3.345   0.971   5.142  1.1310 -0.3040 -2.2153
  146SAPE   H7Y16048   3.524   0.938   5.178  2.4719  0.9382  2.0619
  146SAPE   C3816049   3.480   1.138   5.110  0.0091 -0.0114 -0.8988
  146SAPE   H8X16050   3.573   1.175   5.158 -1.4449  2.2204  0.3485
  146SAPE   H8Y16051   3.406   1.220   5.117 -0.5395 -0.5380 -0.4090
  146SAPE   C3916052   3.500   1.116   4.958  0.2811 -0.3531 -0.1202
  146SAPE   H9X16053   3.568   1.029   4.945 -1.8154 -2.1386  0.3295
  146SAPE   H9Y16054   3.547   1.209   4.918  0.7843 -1.1423 -1.4210
  146SAPE  C31016055   3.375   1.095   4.880  0.5500  0.5610  0.5876
  146SAPE  H10X16056   3.307   1.181   4.899  0.0631  0.6904 -1.4984
  146SAPE  H10Y16057   3.326   0.998   4.904 -0.2724  0.2880 -1.9076
  146SAPE  C31116058   3.412   1.095   4.730  0.0503  0.1895  0.5737
  146SAPE  H11X16059   3.455   1.193   4.700  0.0376 -0.1079 -0.4796
  146SAPE  H11Y16060   3.330   1.074   4.658  1.9648  3.0945 -2.7680
  146SAPE  C31216061   3.503   0.983   4.689 -0.1119  0.7594 -0.4239
  146SAPE  H12X16062   3.456   0.886   4.717 -0.6548  1.5032  1.3472
  146SAPE  H12Y16063   3.597   0.997   4.746 -1.4463  1.4613  1.7302
  146SAPE  C31316064   3.550   0.988   4.541 -0.7248  0.0686 -0.5534
  146SAPE  H13X16065   3.610   1.078   4.517  2.1379 -1.7483 -0.7493
  146SAPE  H13Y16066   3.461   0.993   4.474 -0.9960  0.8493 -0.1482
  146SAPE  C31416067   3.648   0.881   4.493  0.0293  0.4975 -0.2090
  146SAPE  H14X16068   3.724   0.863   4.572  0.1659 -1.8579 -0.8081
  146SAPE  H14Y16069   3.708   0.922   4.408 -2.2539 -0.2940 -2.3302
  146SAPE  C31516070   3.577   0.752   4.445 -0.0351 -0.7377 -0.2602
  146SAPE  H15X16071   3.506   0.783   4.365 -0.7800 -1.4388  0.1101
  146SAPE  H15Y16072   3.514   0.718   4.530 -0.6132  0.2803 -0.2707
  146SAPE  C31616073   3.676   0.651   4.394 -0.0310  0.1978 -0.2063
  146SAPE  H16X16074   3.764   0.657   4.461  0.8946 -1.0708 -1.2562
  146SAPE  H16Y16075   3.715   0.690   4.298 -0.4857  2.0042  0.3101
  146SAPE  C31716076   3.618   0.511   4.379 -0.2560  0.2065 -0.2760
  146SAPE  H17X16077   3.563   0.493   4.474 -1.3027  1.6930 -0.5707
  146SAPE  H17Y16078   3.702   0.439   4.388 -0.2471  0.2969  0.4859
  146SAPE  C31816079   3.526   0.494   4.265  0.1844 -0.6125 -0.0799
  146SAPE  H18X16080   3.434   0.556   4.275  0.0223 -0.7552 -0.6780
  146SAPE  H18Y16081   3.490   0.389   4.267  0.5173 -0.9388 -3.8343
  146SAPE  H18Z16082   3.565   0.520   4.165 -2.3747  1.1360 -0.7138
  147SAPE     N16083   5.668   6.023   6.652  0.3082 -0.2765  0.0361
  147SAPE   HN116084   5.661   5.922   6.626  0.0251 -0.7723  1.9333
  147SAPE   HN216085   5.742   6.040   6.722 -0.4302  0.7879  0.5869
  147SAPE   HN316086   5.576   6.060   6.682  0.3695  0.0965 -0.2345
  147SAPE   C1216087   5.711   6.095   6.534  0.3131  0.5650 -0.1765
  147SAPE  H12A16088   5.748   6.197   6.561 -2.5618  1.5926  0.1810
  147SAPE  H12B16089   5.615   6.114   6.482 -0.5973  1.6289  1.7890
  147SAPE   C1116090   5.812   6.009   6.455 -0.9399 -0.1288 -0.4291
  147SAPE  H11A16091   5.822   6.049   6.352  0.6514  0.5731 -0.0369
  147SAPE  H11B16092   5.759   5.915   6.429 -1.8394  0.5211 -1.0326
  147SAPE     P16093   5.995   5.870   6.584  0.1365  0.0523 -0.1970
  147SAPE   O1316094   6.055   5.912   6.713  0.0259 -0.0736  0.2923
  147SAPE   O1416095   5.880   5.776   6.595 -0.2608  0.3380 -0.1293
  147SAPE   O1216096   5.944   5.999   6.509  0.5295 -0.2686 -0.3793
  147SAPE   O1116097   6.102   5.812   6.485  0.7850 -0.4796 -0.1039
  147SAPE    C116098   6.159   5.901   6.385  0.5394 -0.3485  0.0501
  147SAPE    HA16099   6.118   5.902   6.282  0.4050  0.3907  0.1073
  147SAPE    HB16100   6.163   6.004   6.426 -2.8282 -0.0131 -0.2431
  147SAPE    C216101   6.309   5.863   6.352  0.0891 -0.0711 -0.8954
  147SAPE    HS16102   6.369   5.857   6.446  0.9281  0.2634 -1.4031
  147SAPE   O2116103   6.356   5.964   6.267  1.0228  0.3419  0.0606
  147SAPE   C2116104   6.488   5.980   6.263  0.0352  0.1336 -0.2314
  147SAPE   O2216105   6.572   5.920   6.321 -0.0857 -0.0316 -0.4701
  147SAPE   C2216106   6.510   6.085   6.154 -0.5958 -0.2452 -0.5383
  147SAPE   H2R16107   6.462   6.061   6.056 -1.9598  0.3479 -0.0488
  147SAPE   H2S16108   6.463   6.177   6.197 -1.1829 -0.5337 -0.5532
  147SAPE    C316109   6.341   5.722   6.295 -0.7541  0.0883  0.0705
  147SAPE    HX16110   6.312   5.648   6.372 -0.4636  0.7552  0.8383
  147SAPE    HY16111   6.451   5.708   6.289 -0.6764  0.0713  1.2600
  147SAPE   O3116112   6.272   5.688   6.174  0.0295  0.1138  0.0400
  147SAPE   C3116113   6.309   5.580   6.109 -0.6082  0.3547  0.1538
  147SAPE   O3216114   6.384   5.497   6.153  0.1207 -0.0082  0.4431
  147SAPE   C3216115   6.244   5.585   5.968  0.1860  0.4203 -0.0036
  147SAPE   H2X16116   6.151   5.645   5.973 -0.9137 -1.1082 -1.2794
  147SAPE   H2Y16117   6.230   5.479   5.937  0.7383  0.9951 -2.3827
  147SAPE   C2316118   6.657   6.131   6.143  0.1598  0.0308 -0.2518
  147SAPE   H3R16119   6.718   6.038   6.137 -0.5019 -0.5478  1.3954
  147SAPE   H3S16120   6.706   6.183   6.229 -0.1134  0.9516 -0.6405
  147SAPE   C2416121   6.681   6.212   6.015 -0.3163  0.1659 -0.2894
  147SAPE   H4R16122   6.658   6.134   5.939  0.7575  0.4361 -0.9152
  147SAPE   H4S16123   6.788   6.238   5.999  0.2403  0.9186  3.6818
  147SAPE   C2516124   6.603   6.340   6.000  0.0819 -0.1689  0.1554
  147SAPE   H5R16125   6.602   6.404   6.090  1.5629  1.2327 -0.7675
  147SAPE   C2616126   6.530   6.377   5.892  0.1153 -0.2397 -0.0675
  147SAPE   H6R16127   6.480   6.475   5.903  0.2400 -0.2730  0.8963
  147SAPE   C2716128   6.518   6.321   5.751 -0.0530 -0.2264 -0.2557
  147SAPE   H7R16129   6.526   6.211   5.766  1.7341 -0.1345 -0.3005
  147SAPE   H7S16130   6.606   6.363   5.696 -0.9580  1.2818 -0.6010
  147SAPE   C2816131   6.388   6.352   5.686  0.9598 -0.6001 -0.0609
  147SAPE   H8R16132   6.311   6.398   5.749 -0.0281 -1.6966 -0.4313
  147SAPE   C2916133   6.342   6.333   5.555  0.0224 -0.1244 -0.6127
  147SAPE   H9R16134   6.236   6.358   5.540 -0.5637 -0.9612  1.7097
  147SAPE  C21016135   6.410   6.259   5.444  0.1888  0.7508  0.0435
  147SAPE  H10R16136   6.345   6.254   5.354 -2.4915 -1.1477  1.9245
  147SAPE  H10S16137   6.424   6.152   5.470  0.8040  0.6522 -0.6556
  147SAPE  C21116138   6.549   6.317   5.400 -0.3712  0.4773 -0.1439
  147SAPE  H11R16139   6.614   6.366   5.474 -0.6325  0.5984  0.0071
  147SAPE  C21216140   6.597   6.314   5.278  0.0082  0.6411 -0.2739
  147SAPE  H12R16141   6.700   6.351   5.267 -0.6899  2.6886 -0.5628
  147SAPE  C21316142   6.532   6.264   5.155  0.5983 -0.1803  0.1654
  147SAPE  H13R16143   6.456   6.189   5.184 -0.7009  1.8353  2.2921
  147SAPE  H13S16144   6.621   6.213   5.110  0.0408  0.1145 -1.3468
  147SAPE  C21416145   6.478   6.378   5.068  0.1533  0.2646  0.1380
  147SAPE  H14R16146   6.428   6.461   5.119 -0.1705  0.4936 -0.5469
  147SAPE  C21516147   6.491   6.381   4.934  0.2988 -0.4387 -0.4603
  147SAPE  H15R16148   6.445   6.463   4.877  1.1848  0.6723  0.3781
  147SAPE  C21616149   6.541   6.263   4.854 -0.9205  0.3963 -0.3279
  147SAPE  H16R16150   6.555   6.169   4.912  0.7796  0.3991 -0.6869
  147SAPE  H16S16151   6.641   6.282   4.810 -1.4542  0.5916 -1.5076
  147SAPE  C21716152   6.433   6.240   4.743 -0.2679 -0.1372 -0.3947
  147SAPE  H17R16153   6.334   6.229   4.792  0.0451 -0.7555  0.1001
  147SAPE  H17S16154   6.441   6.137   4.703 -0.3982  0.5755 -2.4255
  147SAPE  C21816155   6.434   6.343   4.622  0.4177  1.2444 -0.2623
  147SAPE  H18R16156   6.534   6.348   4.573  0.2610 -0.1794 -0.7740
  147SAPE  H18S16157   6.407   6.442   4.664 -0.2204  0.8011  0.3851
  147SAPE  C21916158   6.340   6.303   4.510  0.1457  0.0428 -0.0299
  147SAPE  H19R16159   6.237   6.290   4.551  1.0521 -0.8417  2.1124
  147SAPE  H19S16160   6.370   6.205   4.467 -2.1292 -1.0566  0.7009
  147SAPE  C22016161   6.339   6.415   4.401  0.2574 -0.1728 -0.0003
  147SAPE  H20R16162   6.264   6.399   4.321  0.8938 -2.8055 -0.1507
  147SAPE  H20S16163   6.438   6.443   4.359  1.2965 -1.3743  1.5569
  147SAPE  H20T16164   6.303   6.504   4.458 -2.7319 -1.7747  0.7990
  147SAPE   C3316165   6.330   5.647   5.861 -1.4292 -0.2718 -0.2208
  147SAPE   H3X16166   6.311   5.587   5.769 -2.7599  0.9454 -0.7906
  147SAPE   H3Y16167   6.435   5.619   5.885 -1.5385 -0.5139 -0.0328
  147SAPE   C3416168   6.303   5.795   5.832  0.2049  0.2149 -0.3535
  147SAPE   H4X16169   6.282   5.836   5.933  2.7653 -0.5893  0.5958
  147SAPE   H4Y16170   6.219   5.818   5.763  0.1192  0.5210 -0.1506
  147SAPE   C3516171   6.437   5.848   5.773 -0.1314  0.1195  0.4098
  147SAPE   H5X16172   6.518   5.830   5.847  0.7289  0.6171 -0.3874
  147SAPE   H5Y16173   6.435   5.959   5.776 -1.3026  0.0880  1.2396
  147SAPE   C3616174   6.478   5.805   5.636  0.3983 -0.2429 -0.4149
  147SAPE   H6X16175   6.382   5.826   5.583 -0.6256  1.4567  1.9413
  147SAPE   H6Y16176   6.501   5.696   5.627  0.2926 -0.2570 -0.5338
  147SAPE   C3716177   6.594   5.889   5.574  0.1733  0.1752  0.7493
  147SAPE   H7X16178   6.677   5.881   5.648  0.8595  1.4478  0.1362
  147SAPE   H7Y16179   6.562   5.995   5.579 -0.7980 -0.1471  4.2393
  147SAPE   C3816180   6.627   5.825   5.435 -0.1115  0.1456  0.2364
  147SAPE   H8X16181   6.623   5.715   5.446  0.0818  0.3531  3.0952
  147SAPE   H8Y16182   6.734   5.852   5.418 -0.6107  1.8007 -0.5545
  147SAPE   C3916183   6.551   5.884   5.317  0.7114  0.2605 -0.7811
  147SAPE   H9X16184   6.556   5.995   5.328  0.9763  0.1384  0.4623
  147SAPE   H9Y16185   6.445   5.851   5.321  0.2493  1.7495  0.8079
  147SAPE  C31016186   6.617   5.858   5.182  0.9456 -0.1000 -0.1820
  147SAPE  H10X16187   6.663   5.757   5.179  0.7417 -0.3906  2.8642
  147SAPE  H10Y16188   6.702   5.923   5.153  0.9580  0.0199  0.1217
  147SAPE  C31116189   6.513   5.875   5.072  0.3902 -0.0322  1.2328
  147SAPE  H11X16190   6.464   5.974   5.063  0.9233  0.0592 -2.9243
  147SAPE  H11Y16191   6.428   5.805   5.091 -0.9472  0.8620 -0.9401
  147SAPE  C31216192   6.587   5.838   4.938  0.6854 -0.1916 -0.1099
  147SAPE  H12X16193   6.628   5.735   4.948  1.6827  0.1519 -0.5295
  147SAPE  H12Y16194   6.669   5.912   4.940  0.2423  0.2910  1.2377
  147SAPE  C31316195   6.498   5.859   4.812 -0.2104  1.2866 -0.2314
  147SAPE  H13X16196   6.482   5.969   4.809 -0.6681  1.3433  2.0587
  147SAPE  H13Y16197   6.403   5.810   4.845  1.1606  0.2742  2.5839
  147SAPE  C31416198   6.560   5.807   4.678 -0.0804  0.0046  0.1013
  147SAPE  H14X16199   6.557   5.696   4.681  0.4951 -0.0104  0.2642
  147SAPE  H14Y16200   6.668   5.833   4.673 -0.0793 -0.0467 -0.1463
  147SAPE  C31516201   6.480   5.860   4.562 -0.1875  0.0898  0.9085
  147SAPE  H15X16202   6.525   5.840   4.463 -0.7675  2.3345  0.1345
  147SAPE  H15Y16203   6.470   5.970   4.568  4.3356  0.8019 -0.7355
  147SAPE  C31616204   6.336   5.795   4.566 -0.5280  0.0572 -0.3124
  147SAPE  H16X16205   6.270   5.861   4.507 -1.1311  1.3009  1.6359
  147SAPE  H16Y16206   6.296   5.791   4.670 -0.5896 -4.5104 -0.3116
  147SAPE  C31716207   6.336   5.652   4.514  0.2779  0.2258  0.1217
  147SAPE  H17X16208   6.412   5.586   4.562  0.5028  1.3583  1.3937
  147SAPE  H17Y16209   6.377   5.652   4.410 -0.7499 -1.1970 -0.3024
  147SAPE  C31816210   6.200   5.585   4.510  0.0018  0.2127 -0.1140
  147SAPE  H18X16211   6.126   5.607   4.590 -2.7379  2.2248 -2.9256
  147SAPE  H18Y16212   6.209   5.475   4.499  1.4657  0.5379 -3.3255
  147SAPE  H18Z16213   6.148   5.629   4.421 -0.5200 -1.6317 -0.7723
  148SAPE     N16214   3.195   0.511   6.428  0.5637  0.2586  0.2411
  148SAPE   HN116215   3.177   0.562   6.517  1.6828 -0.9362  1.1813
  148SAPE   HN216216   3.291   0.475   6.441  0.1998 -0.6378  0.4943
  148SAPE   HN316217   3.196   0.582   6.352  0.3083  0.6859  0.6305
  148SAPE   C1216218   3.106   0.390   6.395 -0.3143  0.2740  0.2858
  148SAPE  H12A16219   3.018   0.415   6.332  0.5004  1.1391 -0.5535
  148SAPE  H12B16220   3.057   0.348   6.486  0.3703 -3.8038 -1.0228
  148SAPE   C1116221   3.195   0.281   6.331 -0.1343 -0.0410 -0.5704
  148SAPE  H11A16222   3.246   0.325   6.243 -0.2114 -0.9305 -1.0776
  148SAPE  H11B16223   3.134   0.191   6.309 -1.1683  1.0890 -2.5929
  148SAPE     P16224   3.311   0.110   6.490  0.3818 -0.0917 -0.3163
  148SAPE   O1316225   3.442   0.092   6.558  0.2538 -0.2091  0.2890
  148SAPE   O1416226   3.194   0.079   6.573  0.6238 -0.2389 -0.6861
  148SAPE   O1216227   3.296   0.259   6.428 -0.0002 -0.0437  0.0265
  148SAPE   O1116228   3.302   0.017   6.366 -0.4381  0.1037 -0.4133
  148SAPE    C116229   3.417   0.022   6.270  0.5245  0.9892 -0.6581
  148SAPE    HA16230   3.435   0.127   6.237 -0.3812  1.2984 -0.2011
  148SAPE    HB16231   3.508  -0.019   6.319  0.5527  2.1849  0.3521
  148SAPE    C216232   3.388  -0.074   6.152  0.2988 -0.3365  0.4045
  148SAPE    HS16233   3.351  -0.171   6.193  0.7594  0.0986  1.9204
  148SAPE   O2116234   3.506  -0.084   6.071  0.5355  0.1103 -0.5625
  148SAPE   C2116235   3.545  -0.199   6.028  0.5765  0.7728  0.0379
  148SAPE   O2216236   3.491  -0.308   6.057 -0.2568  0.8969  0.6413
  148SAPE   C2216237   3.664  -0.188   5.927  0.1696 -0.0448  0.2296
  148SAPE   H2R16238   3.620  -0.168   5.827  1.4400 -1.6883 -0.7079
  148SAPE   H2S16239   3.741  -0.115   5.959  0.4321  0.5228 -1.6019
  148SAPE    C316240   3.282  -0.013   6.063 -0.1634 -0.0324  0.5146
  148SAPE    HX16241   3.319   0.084   6.024 -2.7776  0.8561  0.0171
  148SAPE    HY16242   3.191   0.005   6.124 -0.1280 -2.5316  1.4020
  148SAPE   O3116243   3.254  -0.107   5.956  0.1682 -0.2970  0.4353
  148SAPE   C3116244   3.218  -0.050   5.841  0.8588  0.7573  0.7143
  148SAPE   O3216245   3.180   0.066   5.832 -0.5172 -0.1589 -0.0231
  148SAPE   C3216246   3.218  -0.148   5.722  0.1351 -0.6358 -0.0014
  148SAPE   H2X16247   3.195  -0.082   5.636 -0.2074  0.4801  0.9286
  148SAPE   H2Y16248   3.135  -0.221   5.732 -0.2825 -0.0603  0.7899
  148SAPE   C2316249   3.743  -0.323   5.906  0.1803 -0.3219 -0.6654
  148SAPE   H3R16250   3.684  -0.416   5.890 -0.4306 -0.2968  1.2519
  148SAPE   H3S16251   3.789  -0.340   6.005  1.0333  0.8180 -0.8494
  148SAPE   C2416252   3.858  -0.311   5.799  0.5609 -0.2601  0.3033
  148SAPE   H4R16253   3.809  -0.270   5.708  0.0616 -1.9305 -0.2171
  148SAPE   H4S16254   3.888  -0.412   5.766  1.1490  0.3126 -0.9826
  148SAPE   C2516255   3.984  -0.227   5.828  0.1189  0.4020 -0.1170
  148SAPE   H5R16256   4.046  -0.255   5.915 -0.8090  1.0792  0.7930
  148SAPE   C2616257   4.037  -0.128   5.752 -0.6484 -0.2387  0.4096
  148SAPE   H6R16258   4.131  -0.078   5.779 -0.2841 -0.0430 -1.1192
  148SAPE   C2716259   3.982  -0.077   5.620  0.6191  0.9841  0.0223
  148SAPE   H7R16260   3.880  -0.117   5.604  0.6809  0.5918  0.5643
  148SAPE   H7S16261   4.041  -0.133   5.544 -1.7391 -3.6430  1.2509
  148SAPE   C2816262   3.992   0.071   5.609 -0.6016  0.5469 -0.2185
  148SAPE   H8R16263   4.016   0.129   5.699 -3.6140 -0.0236  1.0946
  148SAPE   C2916264   3.977   0.130   5.489  0.3665 -0.3994 -0.7098
  148SAPE   H9R16265   4.002   0.237   5.485  0.2573 -0.4125 -2.0613
  148SAPE  C21016266   3.941   0.069   5.353 -0.3423  0.1420 -0.2518
  148SAPE  H10R16267   3.831   0.060   5.351 -0.3652  0.3715 -0.0892
  148SAPE  H10S16268   3.989  -0.030   5.341 -0.8764 -0.0983 -0.4063
  148SAPE  C21116269   3.987   0.161   5.247  0.1923  0.0331 -0.7423
  148SAPE  H11R16270   3.912   0.237   5.220 -1.0759 -0.6314  0.7626
  148SAPE  C21216271   4.088   0.141   5.160  0.0455  0.5607  0.7718
  148SAPE  H12R16272   4.109   0.215   5.080  1.1821 -1.0810 -0.5237
  148SAPE  C21316273   4.186   0.027   5.156 -0.6606  0.1063  0.7372
  148SAPE  H13R16274   4.219  -0.005   5.055 -0.2503 -1.2683  1.2887
  148SAPE  H13S16275   4.134  -0.067   5.186 -0.9680  0.2325  0.6075
  148SAPE  C21416276   4.295   0.055   5.258  0.3251  0.9956  0.0893
  148SAPE  H14R16277   4.265   0.069   5.363  4.3678  0.5618  1.4715
  148SAPE  C21516278   4.416   0.086   5.238  0.6968 -0.3495  0.8566
  148SAPE  H15R16279   4.478   0.109   5.326 -0.0091  0.7309  1.0924
  148SAPE  C21616280   4.472   0.102   5.099  0.4035  0.2339 -0.2244
  148SAPE  H16R16281   4.411   0.156   5.024  1.4057  0.1930 -1.0974
  148SAPE  H16S16282   4.483   0.001   5.054  0.0734  1.7780 -4.1687
  148SAPE  C21716283   4.612   0.169   5.097  0.2732  0.4276  1.0208
  148SAPE  H17R16284   4.679   0.102   5.156  1.5706  0.6891 -0.1127
  148SAPE  H17S16285   4.612   0.276   5.127 -2.8783  1.2830 -1.5326
  148SAPE  C21816286   4.670   0.176   4.951  0.7517 -0.2502  0.0357
  148SAPE  H18R16287   4.592   0.218   4.884  0.3703 -0.8122  0.1150
  148SAPE  H18S16288   4.698   0.075   4.914 -0.4435 -0.1415 -1.2509
  148SAPE  C21916289   4.792   0.273   4.932 -0.2342 -0.1923 -0.7426
  148SAPE  H19R16290   4.858   0.270   5.022  1.7093  3.0807 -1.8764
  148SAPE  H19S16291   4.754   0.377   4.941 -4.1714 -1.4890 -0.5742
  148SAPE  C22016292   4.872   0.262   4.806  0.0741 -0.5248 -0.8976
  148SAPE  H20R16293   4.956   0.335   4.800 -0.7485  0.3357 -3.2154
  148SAPE  H20S16294   4.809   0.271   4.715  0.2105  0.0595 -0.9380
  148SAPE  H20T16295   4.925   0.165   4.797  0.6819 -0.0924 -2.3604
  148SAPE   C3316296   3.349  -0.227   5.709 -0.4323  0.0353  0.1480
  148SAPE   H3X16297   3.351  -0.294   5.797 -1.1595 -0.2583 -0.0503
  148SAPE   H3Y16298   3.443  -0.168   5.701 -0.2461 -0.2917 -0.1032
  148SAPE   C3416299   3.350  -0.306   5.579 -0.7262 -0.1920  0.2444
  148SAPE   H4X16300   3.347  -0.247   5.485 -0.6044  0.1325  0.4460
  148SAPE   H4Y16301   3.263  -0.374   5.590 -1.7023  0.9669 -0.1398
  148SAPE   C3516302   3.486  -0.388   5.565 -0.2267  0.1631  0.4865
  148SAPE   H5X16303   3.456  -0.472   5.498 -1.3876  1.3034 -0.4791
  148SAPE   H5Y16304   3.505  -0.413   5.672 -1.2039  1.0416  0.8930
  148SAPE   C3616305   3.607  -0.314   5.513 -1.1145 -0.0953 -0.2215
  148SAPE   H6X16306   3.702  -0.369   5.530 -1.6553 -0.9311  0.1566
  148SAPE   H6Y16307   3.612  -0.220   5.572 -1.7379 -0.3306  0.2114
  148SAPE   C3716308   3.608  -0.281   5.365  0.9940 -0.3844  0.2060
  148SAPE   H7X16309   3.549  -0.189   5.348  0.7924 -0.5852 -0.2131
  148SAPE   H7Y16310   3.563  -0.374   5.324  0.4222  0.6749 -1.7123
  148SAPE   C3816311   3.749  -0.277   5.303  0.3743 -0.2497 -0.6687
  148SAPE   H8X16312   3.809  -0.359   5.346  1.1639  0.7595  0.2059
  148SAPE   H8Y16313   3.794  -0.181   5.336  3.3715 -1.9306  0.4185
  148SAPE   C3916314   3.748  -0.283   5.148  0.1538 -0.5184  0.3533
  148SAPE   H9X16315   3.667  -0.220   5.106  2.5123  1.8502 -1.0444
  148SAPE   H9Y16316   3.721  -0.386   5.118 -3.1641  0.5380 -0.7144
  148SAPE  C31016317   3.877  -0.225   5.083  0.1017  0.1226 -0.4029
  148SAPE  H10X16318   3.951  -0.307   5.103  1.1394  0.5379 -2.2614
  148SAPE  H10Y16319   3.910  -0.137   5.141 -0.1145 -1.0949  1.6664
  148SAPE  C31116320   3.872  -0.193   4.926  0.0523 -0.5322 -0.8288
  148SAPE  H11X16321   3.807  -0.273   4.884  1.1244 -1.0338 -1.5798
  148SAPE  H11Y16322   3.973  -0.186   4.881  0.2094  2.1969 -0.2148
  148SAPE  C31216323   3.796  -0.058   4.904 -0.5413  0.4870 -0.3578
  148SAPE  H12X16324   3.857  -0.003   4.979 -0.5773 -1.1333  0.8870
  148SAPE  H12Y16325   3.692  -0.062   4.944 -0.2502  2.3305  0.6865
  148SAPE  C31316326   3.796   0.005   4.761  0.2824  0.3298  0.0675
  148SAPE  H13X16327   3.898   0.040   4.734  0.2890  0.7388  0.5985
  148SAPE  H13Y16328   3.730   0.094   4.766 -1.5711 -1.0397  1.8106
  148SAPE  C31416329   3.751  -0.089   4.651  0.7911  0.3046 -0.3721
  148SAPE  H14X16330   3.712  -0.030   4.566  1.4401 -1.3004 -1.8346
  148SAPE  H14Y16331   3.672  -0.150   4.700  3.0440 -2.5547 -0.0111
  148SAPE  C31516332   3.863  -0.187   4.597 -0.5075  0.0095 -0.3505
  148SAPE  H15X16333   3.913  -0.250   4.673 -1.2708 -0.5977 -0.3403
  148SAPE  H15Y16334   3.938  -0.133   4.534  0.2816  0.6734  1.0949
  148SAPE  C31616335   3.797  -0.296   4.501 -0.4289  0.0254 -0.0817
  148SAPE  H16X16336   3.722  -0.344   4.568 -0.0253 -0.0944  0.2860
  148SAPE  H16Y16337   3.887  -0.358   4.481 -0.3450  0.2716 -0.4718
  148SAPE  C31716338   3.745  -0.269   4.361  0.9858  0.5220  0.1550
  148SAPE  H17X16339   3.721  -0.368   4.316  0.2355  1.5479 -1.8481
  148SAPE  H17Y16340   3.826  -0.220   4.302 -0.3594 -0.3605 -2.6269
  148SAPE  C31816341   3.611  -0.195   4.352  0.8359 -0.4250  0.3720
  148SAPE  H18X16342   3.541  -0.250   4.418  0.7191  0.8409  1.3392
  148SAPE  H18Y16343   3.567  -0.194   4.250 -0.0443  0.1062  0.7495
  148SAPE  H18Z16344   3.614  -0.090   4.389 -1.1703 -0.4188  0.6165
  149SAPE     N16345   2.811   3.597   6.477  0.4416  0.2582  0.0370
  149SAPE   HN116346   2.900   3.645   6.502  0.6634 -0.1101 -0.0416
  149SAPE   HN216347   2.736   3.668   6.464  0.0914 -0.5179 -2.9839
  149SAPE   HN316348   2.783   3.554   6.567  0.3132  3.3465  1.6028
  149SAPE   C1216349   2.823   3.504   6.362  0.5038  0.3604  0.0853
  149SAPE  H12A16350   2.725   3.473   6.321  1.6301 -3.4775 -0.0327
  149SAPE  H12B16351   2.872   3.411   6.397 -3.4595 -2.0843 -0.3798
  149SAPE   C1116352   2.927   3.562   6.263  0.3924  0.1745  0.0080
  149SAPE  H11A16353   2.890   3.648   6.204 -0.5136 -0.1703  0.0585
  149SAPE  H11B16354   2.932   3.480   6.189 -3.3009 -2.1992  2.0478
  149SAPE     P16355   3.171   3.506   6.328  0.4352  0.3326 -0.0167
  149SAPE   O1316356   3.286   3.582   6.374  0.3788 -0.8756 -0.3140
  149SAPE   O1416357   3.148   3.380   6.406 -0.2022  0.0762  0.0988
  149SAPE   O1216358   3.050   3.592   6.327  0.9176  0.4686 -0.3144
  149SAPE   O1116359   3.192   3.476   6.175  0.3165  0.9407 -0.1185
  149SAPE    C116360   3.210   3.594   6.087  0.3444 -0.0769 -0.1523
  149SAPE    HA16361   3.125   3.626   6.024  2.1465  0.3678 -2.5291
  149SAPE    HB16362   3.232   3.686   6.144 -1.4967 -0.2621  0.9208
  149SAPE    C216363   3.326   3.572   5.986 -0.3026  0.0726  0.7378
  149SAPE    HS16364   3.338   3.669   5.932 -1.3087 -0.1756  0.0362
  149SAPE   O2116365   3.295   3.461   5.893 -0.0951  0.1468  0.4038
  149SAPE   C2116366   3.211   3.501   5.798 -0.4081  0.0757 -0.0208
  149SAPE   O2216367   3.164   3.620   5.788 -0.7008 -0.2339 -0.2323
  149SAPE   C2216368   3.171   3.393   5.701  0.4045 -0.4629 -0.4165
  149SAPE   H2R16369   3.266   3.348   5.665  0.6264 -0.7620  0.5144
  149SAPE   H2S16370   3.102   3.320   5.749 -0.8595  0.1307 -1.2976
  149SAPE    C316371   3.456   3.532   6.061 -0.1213 -0.6139  0.3914
  149SAPE    HX16372   3.452   3.441   6.125 -0.2634 -0.1340  1.0751
  149SAPE    HY16373   3.471   3.619   6.129  0.2769  0.1398 -0.6323
  149SAPE   O3116374   3.569   3.518   5.965 -0.0592  0.2888 -0.3988
  149SAPE   C3116375   3.597   3.397   5.925 -0.0891 -0.5885  0.1206
  149SAPE   O3216376   3.577   3.293   5.984 -0.1612  0.3029 -0.1245
  149SAPE   C3216377   3.658   3.395   5.785 -0.5099  0.1884 -0.6857
  149SAPE   H2X16378   3.704   3.293   5.779  0.7596  0.5898  1.3296
  149SAPE   H2Y16379   3.739   3.470   5.788 -2.5359  2.4410  0.4421
  149SAPE   C2316380   3.107   3.455   5.576 -0.2263 -0.2596 -0.3215
  149SAPE   H3R16381   3.188   3.503   5.518  0.7118 -1.6375 -0.1961
  149SAPE   H3S16382   3.038   3.535   5.610 -0.2383 -0.6567  0.6024
  149SAPE   C2416383   3.040   3.350   5.483 -0.3848  0.2953  0.5203
  149SAPE   H4R16384   2.980   3.412   5.412 -3.1558 -0.9142  1.6780
  149SAPE   H4S16385   2.963   3.291   5.536 -1.5623  0.9911 -0.3614
  149SAPE   C2516386   3.140   3.244   5.433  0.2035  0.0411 -0.2267
  149SAPE   H5R16387   3.188   3.178   5.506 -1.3572 -2.9489 -1.7211
  149SAPE   C2616388   3.188   3.233   5.314  0.1204 -0.5912  0.2120
  149SAPE   H6R16389   3.259   3.152   5.295  0.4559 -0.9492  2.7653
  149SAPE   C2716390   3.156   3.326   5.204  0.2521 -0.5469  0.8528
  149SAPE   H7R16391   3.152   3.428   5.248  0.4554 -0.7271  1.2932
  149SAPE   H7S16392   3.056   3.309   5.159  0.7120  2.4694 -1.6613
  149SAPE   C2816393   3.246   3.317   5.085 -0.2115  0.4643 -0.6611
  149SAPE   H8R16394   3.338   3.377   5.090 -1.9124  3.1765  0.1201
  149SAPE   C2916395   3.222   3.266   4.965 -0.1101  0.3731  0.4496
  149SAPE   H9R16396   3.301   3.267   4.889  1.2553  0.3976  1.8355
  149SAPE  C21016397   3.096   3.192   4.919 -0.7661 -0.0186  0.0701
  149SAPE  H10R16398   3.019   3.180   4.998 -1.8608  1.7868 -0.6655
  149SAPE  H10S16399   3.134   3.095   4.881  0.9883  1.2200 -1.5260
  149SAPE  C21116400   3.028   3.270   4.809  0.6779  0.5711  0.0454
  149SAPE  H11R16401   2.989   3.371   4.829 -2.5509 -0.0809 -2.1696
  149SAPE  C21216402   3.015   3.227   4.683  0.1090  0.4388 -0.2631
  149SAPE  H12R16403   2.967   3.296   4.612 -0.1188  0.0582 -0.4752
  149SAPE  C21316404   3.069   3.110   4.614 -0.0260  0.8808  0.5552
  149SAPE  H13R16405   2.976   3.060   4.578 -0.4989  1.8439  0.4106
  149SAPE  H13S16406   3.126   3.040   4.679 -1.0881 -0.1314  0.4329
  149SAPE  C21416407   3.161   3.160   4.501 -0.3782  0.5676  0.1277
  149SAPE  H14R16408   3.153   3.264   4.466  0.3137  0.7381  0.4513
  149SAPE  C21516409   3.255   3.082   4.443 -0.0882  0.5727 -0.1651
  149SAPE  H15R16410   3.328   3.126   4.374  0.9966 -0.0467  0.5691
  149SAPE  C21616411   3.275   2.937   4.468 -0.5971 -0.2099  0.3109
  149SAPE  H16R16412   3.177   2.889   4.489 -0.6631  0.2164  0.9835
  149SAPE  H16S16413   3.336   2.940   4.561 -2.3189  1.1747  1.4565
  149SAPE  C21716414   3.343   2.863   4.356  0.2777 -0.2290 -0.0582
  149SAPE  H17R16415   3.332   2.754   4.375  1.3656 -0.2387  0.6058
  149SAPE  H17S16416   3.448   2.896   4.341 -0.3603  1.6844 -0.6128
  149SAPE  C21816417   3.278   2.870   4.219  0.5121 -0.4895 -0.5693
  149SAPE  H18R16418   3.283   2.975   4.184  0.5765 -0.0758  0.6359
  149SAPE  H18S16419   3.171   2.844   4.230  0.6220  0.0872  3.1476
  149SAPE  C21916420   3.333   2.778   4.110 -0.2528  0.1884 -0.4030
  149SAPE  H19R16421   3.261   2.776   4.025  0.2300 -0.0007 -0.8158
  149SAPE  H19S16422   3.336   2.673   4.146 -1.8015  0.0298 -0.6979
  149SAPE  C22016423   3.473   2.813   4.045  0.6917  0.6056 -0.0201
  149SAPE  H20R16424   3.489   2.750   3.955  1.9622  0.4837  0.2696
  149SAPE  H20S16425   3.557   2.795   4.116  0.8447  2.3372  0.2969
  149SAPE  H20T16426   3.477   2.919   4.011  1.8268  0.4498 -0.3994
  149SAPE   C3316427   3.576   3.437   5.668 -0.0227  0.6078  0.6492
  149SAPE   H3X16428   3.535   3.540   5.675 -0.0532  0.6536 -0.1870
  149SAPE   H3Y16429   3.486   3.374   5.655  0.2558  0.1780  0.7842
  149SAPE   C3416430   3.635   3.438   5.527  0.0529  0.6444  0.1964
  149SAPE   H4X16431   3.671   3.340   5.488 -1.8587 -0.2366  0.5056
  149SAPE   H4Y16432   3.729   3.496   5.531  0.6689 -0.3535  0.8637
  149SAPE   C3516433   3.535   3.489   5.423 -0.8544 -0.5754 -0.3798
  149SAPE   H5X16434   3.485   3.575   5.472 -1.3561 -0.5434 -0.9324
  149SAPE   H5Y16435   3.444   3.425   5.417 -1.4545  0.1050  1.0444
  149SAPE   C3616436   3.608   3.520   5.293  0.9302 -0.3878  0.3291
  149SAPE   H6X16437   3.703   3.576   5.303  0.8682 -0.1656 -0.3266
  149SAPE   H6Y16438   3.539   3.588   5.239  1.5338 -0.3747 -0.4329
  149SAPE   C3716439   3.620   3.395   5.198  0.5597  0.5255  0.0334
  149SAPE   H7X16440   3.533   3.332   5.226  0.0045  1.6992  1.0460
  149SAPE   H7Y16441   3.705   3.328   5.222 -0.1756 -0.0549  1.0576
  149SAPE   C3816442   3.633   3.431   5.051  0.6568  0.1313  0.0860
  149SAPE   H8X16443   3.732   3.480   5.046  0.8132 -0.0229  1.3586
  149SAPE   H8Y16444   3.553   3.506   5.031  1.6161  0.7273 -1.6766
  149SAPE   C3916445   3.629   3.312   4.953 -0.5148  0.2251  0.1353
  149SAPE   H9X16446   3.535   3.258   4.977 -0.6436  1.4412  2.7376
  149SAPE   H9Y16447   3.706   3.234   4.968 -1.6976 -1.1410 -0.5735
  149SAPE  C31016448   3.621   3.358   4.805 -0.3876  0.0904  0.7844
  149SAPE  H10X16449   3.711   3.420   4.786 -1.3726  1.3410  0.0198
  149SAPE  H10Y16450   3.527   3.417   4.797  0.3875  1.3190  0.3356
  149SAPE  C31116451   3.606   3.256   4.691  0.1825 -0.0788 -0.1311
  149SAPE  H11X16452   3.499   3.229   4.696 -0.1034  1.1870  1.8227
  149SAPE  H11Y16453   3.675   3.179   4.732  0.0007 -1.5908 -2.5288
  149SAPE  C31216454   3.642   3.315   4.553  0.1663  0.4292 -0.3494
  149SAPE  H12X16455   3.746   3.353   4.563 -0.1168  1.2931 -0.6130
  149SAPE  H12Y16456   3.569   3.396   4.531 -0.3225 -0.1323 -0.8304
  149SAPE  C31316457   3.633   3.218   4.435 -1.0971 -0.2139 -0.6853
  149SAPE  H13X16458   3.604   3.269   4.341 -0.6469  1.6450  0.1501
  149SAPE  H13Y16459   3.549   3.153   4.468  1.5555 -1.7493  3.9675
  149SAPE  C31416460   3.753   3.122   4.420 -0.4077  0.2924  1.2147
  149SAPE  H14X16461   3.765   3.073   4.519  0.3076  0.0117  1.0001
  149SAPE  H14Y16462   3.844   3.184   4.403 -0.8150  0.6566  0.2939
  149SAPE  C31516463   3.726   3.038   4.294  0.1446 -0.5975  0.2530
  149SAPE  H15X16464   3.699   3.093   4.201  3.3132  2.0628  0.7447
  149SAPE  H15Y16465   3.648   2.964   4.322  0.1552  0.2373  2.7566
  149SAPE  C31616466   3.847   2.954   4.262 -0.2262 -0.8912 -0.1212
  149SAPE  H16X16467   3.878   2.906   4.357  0.2281  0.6471  0.5331
  149SAPE  H16Y16468   3.933   3.015   4.227  0.6178 -0.7413  2.0707
  149SAPE  C31716469   3.824   2.838   4.161  0.1322 -0.0979  0.0681
  149SAPE  H17X16470   3.762   2.875   4.076 -0.7791  1.2126  1.2618
  149SAPE  H17Y16471   3.771   2.754   4.210 -1.2366  1.7744  1.9485
  149SAPE  C31816472   3.953   2.783   4.109 -0.3675 -0.4781  0.0309
  149SAPE  H18X16473   3.940   2.702   4.034  0.4413  0.3172 -0.9933
  149SAPE  H18Y16474   4.007   2.740   4.195  0.9395  0.2803 -0.3822
  149SAPE  H18Z16475   4.032   2.849   4.068  0.5325 -1.1897  0.5849
  150SAPE     N16476   4.654   2.151   6.193 -0.6621  0.1661 -0.6328
  150SAPE   HN116477   4.602   2.229   6.239  1.2623  0.2875  1.5325
  150SAPE   HN216478   4.732   2.199   6.146  0.2940  2.4465  2.9440
  150SAPE   HN316479   4.587   2.099   6.132 -1.9098 -1.3273  1.8384
  150SAPE   C1216480   4.705   2.062   6.302  0.3407  0.1285  0.7973
  150SAPE  H12A16481   4.768   1.985   6.253 -0.3107 -0.6419  1.1375
  150SAPE  H12B16482   4.625   2.011   6.360 -0.2876  1.4802  1.1767
  150SAPE   C1116483   4.796   2.139   6.406 -0.2291  0.0739 -0.0270
  150SAPE  H11A16484   4.853   2.062   6.462  0.5022  3.1298  3.8753
  150SAPE  H11B16485   4.730   2.202   6.469  1.4892  1.0716  0.8568
  150SAPE     P16486   4.996   2.311   6.424 -0.2149  0.5809 -0.3129
  150SAPE   O1316487   5.015   2.255   6.556  0.2982 -0.5087 -0.9529
  150SAPE   O1416488   5.114   2.340   6.344  0.2620  0.0783 -0.1754
  150SAPE   O1216489   4.891   2.223   6.345 -0.1286  0.2653 -0.4728
  150SAPE   O1116490   4.930   2.441   6.444 -0.2098  0.1019 -0.4733
  150SAPE    C116491   4.803   2.488   6.397  0.8005  0.2265 -0.4877
  150SAPE    HA16492   4.737   2.404   6.364  2.3909 -0.7923 -1.1853
  150SAPE    HB16493   4.761   2.546   6.482  2.3213  0.2656  0.2607
  150SAPE    C216494   4.825   2.581   6.266  0.1358 -0.4975 -1.2051
  150SAPE    HS16495   4.723   2.584   6.223 -0.0039  1.3539 -0.8339
  150SAPE   O2116496   4.916   2.525   6.176  0.2436  0.3985  0.4434
  150SAPE   C2116497   4.879   2.425   6.087  0.0274 -0.3182 -0.5499
  150SAPE   O2216498   4.768   2.376   6.099 -0.2228  0.0231  0.0851
  150SAPE   C2216499   4.984   2.398   5.980  0.2956  0.3689 -0.4999
  150SAPE   H2R16500   5.035   2.491   5.947  1.7219 -0.3960 -0.5480
  150SAPE   H2S16501   5.071   2.359   6.038 -0.6054  1.0033  1.3700
  150SAPE    C316502   4.864   2.717   6.325  0.0229  0.1735  0.3470
  150SAPE    HX16503   4.964   2.702   6.372  0.2962  0.4559 -0.1318
  150SAPE    HY16504   4.795   2.748   6.406 -0.9124 -1.5127  0.2489
  150SAPE   O3116505   4.868   2.818   6.213 -0.4042  0.0936 -0.3977
  150SAPE   C3116506   4.748   2.870   6.191 -0.0603 -0.8275  0.4493
  150SAPE   O3216507   4.646   2.838   6.249  0.7848 -0.2087  0.1433
  150SAPE   C3216508   4.754   2.957   6.074 -0.2188  0.0291 -0.1438
  150SAPE   H2X16509   4.833   3.034   6.085  0.4672 -0.7491  0.5022
  150SAPE   H2Y16510   4.653   3.003   6.071 -0.4789 -0.4306  1.0072
  150SAPE   C2316511   4.939   2.307   5.865  0.4843 -0.1413  0.1040
  150SAPE   H3R16512   4.863   2.372   5.816  0.6466  0.9246  1.2323
  150SAPE   H3S16513   4.895   2.216   5.911  3.8339 -1.7140  0.4935
  150SAPE   C2416514   5.046   2.264   5.768  0.0458  0.5172 -0.0725
  150SAPE   H4R16515   5.005   2.189   5.697  0.6115  0.2360 -0.1094
  150SAPE   H4S16516   5.125   2.212   5.828 -0.3571 -2.7018 -2.1143
  150SAPE   C2516517   5.089   2.389   5.695 -0.6668 -0.6936  0.5856
  150SAPE   H5R16518   5.015   2.412   5.617 -1.0330  1.2461  1.4534
  150SAPE   C2616519   5.208   2.459   5.697  0.0903 -0.6780 -0.3200
  150SAPE   H6R16520   5.220   2.549   5.635 -1.8098 -0.3558 -0.2551
  150SAPE   C2716521   5.319   2.431   5.793  0.5453 -0.0826 -0.2774
  150SAPE   H7R16522   5.401   2.382   5.736  1.6165  0.3608  0.8362
  150SAPE   H7S16523   5.280   2.357   5.866  1.6829  1.3400  1.8556
  150SAPE   C2816524   5.373   2.547   5.864 -1.1278 -0.5172  0.4405
  150SAPE   H8R16525   5.344   2.559   5.970 -1.6915 -0.3698  0.2730
  150SAPE   C2916526   5.473   2.633   5.827 -0.3013  1.3119  0.3929
  150SAPE   H9R16527   5.504   2.715   5.892  4.0300 -0.1829  0.5541
  150SAPE  C21016528   5.541   2.631   5.691  0.7735  0.1966 -0.3279
  150SAPE  H10R16529   5.618   2.711   5.681  3.7489 -2.4981 -0.7944
  150SAPE  H10S16530   5.461   2.633   5.614  0.0657  1.1297  0.4264
  150SAPE  C21116531   5.620   2.502   5.657  0.0312 -0.2369 -0.2909
  150SAPE  H11R16532   5.675   2.467   5.746 -1.0593 -0.1495  0.4468
  150SAPE  C21216533   5.630   2.440   5.534  0.0299  0.1516  0.0950
  150SAPE  H12R16534   5.684   2.345   5.532 -0.1852 -0.0172  1.4320
  150SAPE  C21316535   5.585   2.484   5.394 -0.1316  0.0023 -0.5700
  150SAPE  H13R16536   5.669   2.478   5.322 -0.7653 -0.8446 -1.2651
  150SAPE  H13S16537   5.552   2.589   5.404 -0.1364 -0.0445 -0.0752
  150SAPE  C21416538   5.473   2.394   5.336 -0.0758  0.1250 -0.1383
  150SAPE  H14R16539   5.448   2.309   5.401  1.1473  2.1388  3.2603
  150SAPE  C21516540   5.456   2.381   5.208 -0.8941  0.1430  0.3939
  150SAPE  H15R16541   5.394   2.303   5.162 -1.9163  0.7628  0.6929
  150SAPE  C21616542   5.509   2.474   5.105 -0.1457 -0.3633  0.4702
  150SAPE  H16R16543   5.526   2.574   5.149  2.9432  0.0497 -1.3744
  150SAPE  H16S16544   5.435   2.481   5.022  0.2661 -0.0792  0.1284
  150SAPE  C21716545   5.645   2.419   5.045 -0.4767 -0.3684  0.0426
  150SAPE  H17R16546   5.714   2.400   5.129 -0.9941  2.3787  1.1869
  150SAPE  H17S16547   5.685   2.494   4.974 -1.1922 -0.5066 -0.5258
  150SAPE  C21816548   5.645   2.296   4.959  0.3389 -0.6628 -0.1644
  150SAPE  H18R16549   5.549   2.300   4.902  0.2969  0.0203 -0.0547
  150SAPE  H18S16550   5.643   2.213   5.033 -0.2777  0.8665  1.6077
  150SAPE  C21916551   5.769   2.262   4.873  0.5641  0.2435 -0.0723
  150SAPE  H19R16552   5.740   2.166   4.825  1.1722  0.2682 -0.4986
  150SAPE  H19S16553   5.850   2.240   4.945 -0.0610  1.2648  0.9842
  150SAPE  C22016554   5.816   2.356   4.768 -0.3130 -0.9506  0.0594
  150SAPE  H20R16555   5.910   2.324   4.720  0.2882  2.3721 -1.3048
  150SAPE  H20S16556   5.846   2.454   4.812  2.4158 -0.9018 -1.6920
  150SAPE  H20T16557   5.747   2.366   4.681  0.6614 -2.4542 -0.9298
  150SAPE   C3316558   4.784   2.882   5.943  0.3944 -0.2117  0.3443
  150SAPE   H3X16559   4.741   2.942   5.860  0.0842 -0.7291  0.1282
  150SAPE   H3Y16560   4.728   2.786   5.943  0.0441 -0.0485  1.9492
  150SAPE   C3416561   4.930   2.860   5.924 -0.3774  0.1390 -0.0072
  150SAPE   H4X16562   4.961   2.777   5.992  1.8832  1.9131  1.2684
  150SAPE   H4Y16563   4.985   2.945   5.968 -0.7486  0.2959  0.1554
  150SAPE   C3516564   4.968   2.856   5.773 -0.0465  0.5534 -0.5961
  150SAPE   H5X16565   5.079   2.843   5.773 -0.0597 -0.1875 -3.4007
  150SAPE   H5Y16566   4.945   2.956   5.730 -2.1293  0.8650  1.0771
  150SAPE   C3616567   4.898   2.745   5.694  0.7013  0.1380 -0.7368
  150SAPE   H6X16568   4.790   2.766   5.676  0.3146  0.1552  1.4163
  150SAPE   H6Y16569   4.908   2.644   5.739  1.2580 -0.5999 -2.4243
  150SAPE   C3716570   4.960   2.733   5.554  0.5268 -0.4806  0.0143
  150SAPE   H7X16571   5.066   2.702   5.564  0.4673 -0.3587  1.1686
  150SAPE   H7Y16572   4.939   2.836   5.518 -1.7776 -0.1685  1.9811
  150SAPE   C3816573   4.892   2.633   5.459 -0.4067 -0.3234 -0.1834
  150SAPE   H8X16574   4.789   2.668   5.437  0.0736  1.6326  0.4592
  150SAPE   H8Y16575   4.886   2.533   5.507 -2.9950 -0.5060 -0.7944
  150SAPE   C3916576   4.974   2.623   5.325 -0.1476 -0.4695 -0.1482
  150SAPE   H9X16577   5.068   2.567   5.348 -0.7348 -0.9498  1.2199
  150SAPE   H9Y16578   5.001   2.727   5.300 -0.6612 -0.1249  0.6828
  150SAPE  C31016579   4.897   2.561   5.204 -0.0824  0.2416  0.4208
  150SAPE  H10X16580   4.797   2.609   5.202 -0.0819  0.2205 -0.4767
  150SAPE  H10Y16581   4.900   2.450   5.209  0.4187  0.0668 -2.3913
  150SAPE  C31116582   4.965   2.598   5.074 -0.5964 -0.3425  0.9284
  150SAPE  H11X16583   5.062   2.549   5.054 -0.2926  0.8039 -0.6701
  150SAPE  H11Y16584   4.996   2.705   5.073 -3.0235  0.4489  1.6385
  150SAPE  C31216585   4.880   2.580   4.948  0.1610  0.0227  0.6394
  150SAPE  H12X16586   4.791   2.643   4.970 -1.7432 -1.2922 -2.5108
  150SAPE  H12Y16587   4.841   2.476   4.938 -2.3671  0.9898 -0.4406
  150SAPE  C31316588   4.942   2.632   4.817 -0.1428 -0.3678 -0.0783
  150SAPE  H13X16589   4.941   2.741   4.836 -0.5208 -0.3131 -0.3962
  150SAPE  H13Y16590   4.870   2.616   4.734 -1.0747  1.1234  0.4177
  150SAPE  C31416591   5.081   2.587   4.775 -1.0589 -0.0643 -0.9319
  150SAPE  H14X16592   5.163   2.605   4.848  1.3291 -1.5772 -3.0448
  150SAPE  H14Y16593   5.116   2.632   4.680  3.4937  1.9927  1.3903
  150SAPE  C31516594   5.100   2.430   4.758  0.3759 -0.3309 -0.2760
  150SAPE  H15X16595   5.024   2.400   4.683 -1.1826  2.8582 -0.1104
  150SAPE  H15Y16596   5.087   2.383   4.858 -1.4208  2.1199  0.7533
  150SAPE  C31616597   5.247   2.389   4.725 -0.1642 -0.5267 -0.4125
  150SAPE  H16X16598   5.264   2.281   4.744 -3.5249 -1.0139  0.4876
  150SAPE  H16Y16599   5.319   2.448   4.785 -0.9350  0.6215 -0.5751
  150SAPE  C31716600   5.282   2.429   4.581 -0.4068  0.0624 -0.5219
  150SAPE  H17X16601   5.250   2.534   4.562  1.9816  1.2391  1.4782
  150SAPE  H17Y16602   5.237   2.361   4.506 -1.2877  0.3456 -0.2604
  150SAPE  C31816603   5.427   2.411   4.544  0.1457  0.1170 -0.4440
  150SAPE  H18X16604   5.434   2.409   4.433 -0.7290 -0.9282 -0.4933
  150SAPE  H18Y16605   5.467   2.315   4.581 -0.3031  0.8715  2.1895
  150SAPE  H18Z16606   5.492   2.491   4.587 -0.0823  0.9556 -1.6180
  151SAPE     N16607   5.392   1.660   6.642 -0.5607  0.0146  1.0959
  151SAPE   HN116608   5.305   1.698   6.684 -0.6366  1.3666 -0.1958
  151SAPE   HN216609   5.417   1.562   6.669  0.8320 -0.3470 -1.1714
  151SAPE   HN316610   5.468   1.729   6.656 -1.4727  1.1840  0.4885
  151SAPE   C1216611   5.365   1.653   6.492  1.1592 -0.0917  0.4859
  151SAPE  H12A16612   5.452   1.603   6.444 -0.8262 -1.6949 -1.7176
  151SAPE  H12B16613   5.335   1.755   6.458 -1.6983 -1.3808 -1.3178
  151SAPE   C1116614   5.229   1.576   6.483 -0.6144  0.2244  0.5038
  151SAPE  H11A16615   5.251   1.477   6.528  1.3081  1.1841  1.8153
  151SAPE  H11B16616   5.213   1.560   6.374  1.7993  1.3262 -0.0943
  151SAPE     P16617   5.031   1.742   6.481 -0.4672  0.0916 -0.3387
  151SAPE   O1316618   4.895   1.709   6.511  0.5283  0.7629 -0.8163
  151SAPE   O1416619   5.061   1.880   6.529  0.3693  0.2885  0.2326
  151SAPE   O1216620   5.128   1.644   6.558 -0.2686 -0.1941 -0.0737
  151SAPE   O1116621   5.063   1.723   6.328  0.3141 -0.1706  0.0549
  151SAPE    C116622   5.142   1.809   6.248  0.8084 -0.0153  0.9007
  151SAPE    HA16623   5.213   1.872   6.307  1.5232 -1.0868  1.2114
  151SAPE    HB16624   5.213   1.743   6.193  0.4582  0.2624  0.1042
  151SAPE    C216625   5.048   1.896   6.154  0.7422  0.0326 -0.0856
  151SAPE    HS16626   4.985   1.948   6.230  0.6516 -0.8936  0.4847
  151SAPE   O2116627   4.969   1.820   6.062 -0.3865 -0.4960  0.5053
  151SAPE   C2116628   4.873   1.878   5.996 -0.7332  0.3718 -0.0684
  151SAPE   O2216629   4.836   1.991   6.018 -0.0565 -0.5097 -0.5374
  151SAPE   C2216630   4.810   1.779   5.892 -0.4773  0.0162  0.2524
  151SAPE   H2R16631   4.889   1.709   5.856  0.1629  0.2681  1.1226
  151SAPE   H2S16632   4.746   1.710   5.951 -2.0240 -0.8791 -2.3600
  151SAPE    C316633   5.127   2.009   6.080 -0.0207  0.6370  0.2566
  151SAPE    HX16634   5.191   2.053   6.159 -1.1342  2.4941  0.1791
  151SAPE    HY16635   5.065   2.094   6.045 -0.6749 -0.4059 -1.2184
  151SAPE   O3116636   5.196   1.957   5.961  0.4301 -0.7344  0.8375
  151SAPE   C3116637   5.306   2.023   5.931  0.3768 -0.2150 -0.4626
  151SAPE   O3216638   5.349   2.117   5.994 -0.0150  0.1257  0.2641
  151SAPE   C3216639   5.362   1.980   5.802 -0.7912 -0.6012 -0.0156
  151SAPE   H2X16640   5.274   1.933   5.753 -1.7154  2.2386 -1.2678
  151SAPE   H2Y16641   5.444   1.909   5.826 -0.7197 -0.0865  1.3292
  151SAPE   C2316642   4.732   1.839   5.771  0.2493  0.5338  0.0598
  151SAPE   H3R16643   4.692   1.752   5.716 -1.2996 -0.8666  3.1613
  151SAPE   H3S16644   4.793   1.895   5.697 -1.3977  1.3400 -0.7558
  151SAPE   C2416645   4.600   1.910   5.820 -0.5221  0.2905  0.6403
  151SAPE   H4R16646   4.617   1.991   5.894 -0.9923  1.1213 -0.1380
  151SAPE   H4S16647   4.526   1.834   5.853  1.3064 -2.4621 -1.2152
  151SAPE   C2516648   4.551   1.985   5.694  0.1148  0.5659 -0.4527
  151SAPE   H5R16649   4.624   2.063   5.666  0.5799  0.4608  0.4376
  151SAPE   C2616650   4.439   1.971   5.618 -0.7938 -0.2876 -0.1418
  151SAPE   H6R16651   4.429   2.037   5.531  1.9478 -0.5540 -0.7465
  151SAPE   C2716652   4.325   1.876   5.637  0.5858 -0.5737 -0.0884
  151SAPE   H7R16653   4.355   1.800   5.713 -1.6568 -1.9321 -0.4759
  151SAPE   H7S16654   4.303   1.818   5.545  0.9369 -2.2064  0.8267
  151SAPE   C2816655   4.200   1.953   5.668 -0.6181  0.1592  0.1533
  151SAPE   H8R16656   4.201   2.001   5.767 -1.2594  1.3378 -0.3966
  151SAPE   C2916657   4.085   1.963   5.599  0.4362  0.5391  0.8369
  151SAPE   H9R16658   4.007   2.029   5.639  0.2472 -0.2261  1.7726
  151SAPE  C21016659   4.052   1.907   5.468  0.2942  0.0522  0.0398
  151SAPE  H10R16660   4.137   1.918   5.397  1.9001 -0.4489  1.8224
  151SAPE  H10S16661   3.963   1.961   5.429  0.0981 -0.3826 -0.1232
  151SAPE  C21116662   4.024   1.759   5.481 -0.1651 -0.0983 -0.7410
  151SAPE  H11R16663   3.978   1.739   5.578  0.6177 -0.1338 -0.3686
  151SAPE  C21216664   4.056   1.664   5.397  0.4494  0.2762 -0.2626
  151SAPE  H12R16665   4.022   1.564   5.427  0.9685 -0.2351 -1.3232
  151SAPE  C21316666   4.134   1.677   5.267  0.7450 -0.2543 -0.9782
  151SAPE  H13R16667   4.243   1.665   5.286  0.7211 -1.5238 -1.5318
  151SAPE  H13S16668   4.116   1.779   5.226 -1.3952 -0.3795 -0.4505
  151SAPE  C21416669   4.096   1.576   5.159  0.4154  0.7363 -0.0259
  151SAPE  H14R16670   3.993   1.589   5.125 -0.4451 -0.1099  2.1018
  151SAPE  C21516671   4.178   1.479   5.115 -0.1819 -0.2572 -0.1843
  151SAPE  H15R16672   4.149   1.397   5.048 -0.3265 -0.9561  0.7208
  151SAPE  C21616673   4.322   1.452   5.152 -0.1690 -0.4281 -0.2912
  151SAPE  H16R16674   4.364   1.533   5.215  0.2565 -0.2277 -0.8241
  151SAPE  H16S16675   4.384   1.431   5.062  0.1122  1.0438 -0.4672
  151SAPE  C21716676   4.335   1.324   5.233  0.6966  0.5101  0.9283
  151SAPE  H17R16677   4.285   1.338   5.331  0.5780 -0.2508  0.9807
  151SAPE  H17S16678   4.441   1.304   5.260  0.4064 -3.8591 -0.4691
  151SAPE  C21816679   4.276   1.194   5.164 -0.7523 -0.5674 -0.9485
  151SAPE  H18R16680   4.166   1.206   5.151 -0.8223 -0.3123 -0.1566
  151SAPE  H18S16681   4.306   1.107   5.226  3.3433 -0.6771 -2.7372
  151SAPE  C21916682   4.347   1.164   5.028  0.0342  0.4487 -0.4844
  151SAPE  H19R16683   4.455   1.153   5.054 -0.0765  2.2340  0.8680
  151SAPE  H19S16684   4.352   1.241   4.948 -1.5764  1.6088  0.4734
  151SAPE  C22016685   4.295   1.030   4.967 -0.0962 -0.6002 -0.0086
  151SAPE  H20R16686   4.305   0.941   5.033  0.5839 -1.9477 -1.8055
  151SAPE  H20S16687   4.343   1.011   4.868 -0.7853  0.8126 -0.6391
  151SAPE  H20T16688   4.188   1.024   4.939 -0.9725 -1.3986  3.1602
  151SAPE   C3316689   5.429   2.090   5.706  0.3145 -0.0035  0.5304
  151SAPE   H3X16690   5.529   2.117   5.747  0.3218 -0.3667  0.7634
  151SAPE   H3Y16691   5.361   2.177   5.702 -1.3038 -1.2724 -1.2887
  151SAPE   C3416692   5.450   2.028   5.562 -0.0608  0.4199 -0.3118
  151SAPE   H4X16693   5.520   1.942   5.570 -0.5680  0.0292  0.0537
  151SAPE   H4Y16694   5.500   2.104   5.499 -0.7006  0.1535 -1.1676
  151SAPE   C3516695   5.330   1.974   5.480 -0.6186 -0.1354 -0.1245
  151SAPE   H5X16696   5.275   1.903   5.547 -1.6160  1.0653  0.3744
  151SAPE   H5Y16697   5.371   1.927   5.388 -0.8288  0.6841 -0.6391
  151SAPE   C3616698   5.241   2.092   5.438  0.1082 -0.0312  0.4078
  151SAPE   H6X16699   5.300   2.158   5.371 -0.4681  0.2114  0.1334
  151SAPE   H6Y16700   5.194   2.147   5.522 -0.7616 -3.0348  2.0497
  151SAPE   C3716701   5.132   2.030   5.355 -0.2660 -0.0079  0.1385
  151SAPE   H7X16702   5.032   2.012   5.400 -1.3866 -1.5983 -2.7922
  151SAPE   H7Y16703   5.178   1.939   5.313  1.9547  1.1079  0.0064
  151SAPE   C3816704   5.102   2.112   5.232  0.3500 -0.0339  0.5331
  151SAPE   H8X16705   5.201   2.133   5.187  0.5901  2.0233  1.9167
  151SAPE   H8Y16706   5.063   2.215   5.246  1.2449  0.2786  0.7526
  151SAPE   C3916707   5.025   2.032   5.122 -0.0258 -0.3669 -0.1972
  151SAPE   H9X16708   4.953   1.977   5.187  0.4301  0.5110  1.0787
  151SAPE   H9Y16709   5.090   1.962   5.065 -0.6168 -0.6489 -0.5259
  151SAPE  C31016710   4.939   2.107   5.028  0.3521 -0.3096  0.2159
  151SAPE  H10X16711   4.994   2.183   4.969  0.7671 -0.7799 -0.0106
  151SAPE  H10Y16712   4.864   2.156   5.094 -2.6491 -2.9487 -0.9656
  151SAPE  C31116713   4.860   2.029   4.926  0.3028  0.2396 -0.2855
  151SAPE  H11X16714   4.822   1.938   4.978 -0.6963  1.5649  1.4137
  151SAPE  H11Y16715   4.931   1.988   4.852  1.4272 -0.5486  1.1851
  151SAPE  C31216716   4.755   2.115   4.854  0.5404  0.6924  0.2298
  151SAPE  H12X16717   4.726   2.065   4.759 -2.2492  0.5779  1.0559
  151SAPE  H12Y16718   4.807   2.213   4.843  0.4556  0.8610  1.1808
  151SAPE  C31316719   4.616   2.120   4.920  0.0501 -0.3322 -0.0811
  151SAPE  H13X16720   4.568   2.209   4.873  0.2365  0.5930  1.4289
  151SAPE  H13Y16721   4.636   2.128   5.029  0.1149  1.9797 -0.2076
  151SAPE  C31416722   4.531   2.003   4.884  0.2988 -0.4029  0.1595
  151SAPE  H14X16723   4.568   1.907   4.926 -2.7785 -1.7483  0.0623
  151SAPE  H14Y16724   4.527   1.981   4.775 -1.6429 -1.8271  0.4596
  151SAPE  C31516725   4.381   2.009   4.927 -0.0807 -0.5817 -0.5587
  151SAPE  H15X16726   4.333   2.100   4.887  0.8417 -0.9650 -2.6844
  151SAPE  H15Y16727   4.368   2.008   5.037 -0.4449  3.1992 -0.4173
  151SAPE  C31616728   4.312   1.889   4.870  0.0174  0.2315 -0.3234
  151SAPE  H16X16729   4.357   1.794   4.905 -0.4686 -0.0124 -0.3614
  151SAPE  H16Y16730   4.318   1.900   4.759 -0.2898  1.5324 -0.2201
  151SAPE  C31716731   4.169   1.886   4.903  0.7736  0.1291 -0.0366
  151SAPE  H17X16732   4.115   1.973   4.859  1.5911 -0.5099 -2.4593
  151SAPE  H17Y16733   4.160   1.898   5.013 -0.2845 -1.2750  0.0560
  151SAPE  C31816734   4.098   1.771   4.842  0.0066  0.5566  0.5137
  151SAPE  H18X16735   3.988   1.787   4.842  0.0187  0.7189 -0.6711
  151SAPE  H18Y16736   4.135   1.681   4.896 -0.6710 -1.2097 -1.8297
  151SAPE  H18Z16737   4.120   1.758   4.734 -2.1923 -0.1112  0.0948
  152SAPE     N16738   1.212   3.455   6.439 -1.2697 -0.3582 -0.0074
  152SAPE   HN116739   1.300   3.490   6.482 -2.3002 -0.0573  2.0030
  152SAPE   HN216740   1.229   3.357   6.410 -2.1996 -0.6816  0.5105
  152SAPE   HN316741   1.205   3.506   6.348 -0.7219 -0.5807 -0.1769
  152SAPE   C1216742   1.097   3.488   6.531  0.4427  0.2053 -0.1423
  152SAPE  H12A16743   1.133   3.485   6.636  0.7521  2.0687 -0.1500
  152SAPE  H12B16744   1.025   3.409   6.502 -0.1205  0.4783  0.4727
  152SAPE   C1116745   1.036   3.625   6.502  0.1544 -0.5631 -0.1940
  152SAPE  H11A16746   1.084   3.705   6.562 -2.7190  0.5487  0.7917
  152SAPE  H11B16747   0.933   3.610   6.542  0.9143 -0.4108  1.8926
  152SAPE     P16748   1.014   3.775   6.277 -0.0994 -0.1281  0.3402
  152SAPE   O1316749   0.994   3.892   6.369 -0.4844  0.0017  0.0454
  152SAPE   O1416750   1.133   3.787   6.186  0.2207  0.1295  0.2552
  152SAPE   O1216751   1.031   3.642   6.362 -0.0010  0.0853 -0.2943
  152SAPE   O1116752   0.884   3.764   6.196 -0.4439  0.1172  0.1581
  152SAPE    C116753   0.850   3.644   6.127  0.4276 -0.0109 -0.2070
  152SAPE    HA16754   0.935   3.579   6.096 -1.5854 -2.7866 -0.2432
  152SAPE    HB16755   0.779   3.594   6.196  1.7492 -2.0614 -0.2703
  152SAPE    C216756   0.757   3.665   5.998  0.2536  0.7672 -0.1473
  152SAPE    HS16757   0.720   3.561   5.981 -2.0839  1.5168 -0.0088
  152SAPE   O2116758   0.821   3.726   5.880  0.4891  0.5654 -0.1036
  152SAPE   C2116759   0.901   3.645   5.823  0.2624  0.1122  0.2443
  152SAPE   O2216760   0.895   3.520   5.832  0.1302 -0.3221  0.0109
  152SAPE   C2216761   1.006   3.720   5.734 -0.0520  0.0103 -0.8883
  152SAPE   H2R16762   1.036   3.802   5.804 -2.5056 -0.2919  0.6374
  152SAPE   H2S16763   1.088   3.647   5.719 -0.7774 -0.7135 -1.3468
  152SAPE    C316764   0.640   3.753   6.046 -0.1544  0.3457  0.6355
  152SAPE    HX16765   0.673   3.853   6.080  1.7092  0.5525 -1.5320
  152SAPE    HY16766   0.604   3.704   6.139 -1.1720 -0.9591 -0.4154
  152SAPE   O3116767   0.536   3.756   5.945  0.6479  0.1277  0.3173
  152SAPE   C3116768   0.429   3.833   5.980 -0.7375  0.0351  0.8013
  152SAPE   O3216769   0.414   3.889   6.083  0.5607 -0.5664  0.3771
  152SAPE   C3216770   0.325   3.833   5.863 -0.2165  0.2776 -0.1851
  152SAPE   H2X16771   0.254   3.912   5.895 -0.5571 -0.2064  0.2733
  152SAPE   H2Y16772   0.285   3.730   5.859  1.1613 -0.2701 -0.5264
  152SAPE   C2316773   0.957   3.772   5.600 -0.2141 -0.0328 -0.4487
  152SAPE   H3R16774   0.874   3.840   5.629  0.9850  1.8749 -1.3102
  152SAPE   H3S16775   0.915   3.699   5.528  0.8090 -0.5096 -0.5844
  152SAPE   C2416776   1.063   3.847   5.514 -0.0216  0.2460 -0.1767
  152SAPE   H4R16777   1.116   3.927   5.570 -1.1058  0.1851  0.9977
  152SAPE   H4S16778   0.998   3.905   5.446  1.7324  1.6854 -0.6935
  152SAPE   C2516779   1.153   3.755   5.431  0.5551  0.4607  0.4795
  152SAPE   H5R16780   1.200   3.667   5.479  0.0248  0.2537  0.6241
  152SAPE   C2616781   1.171   3.766   5.296 -0.5963 -0.1907 -0.6390
  152SAPE   H6R16782   1.236   3.696   5.241  0.6881  1.2601 -1.0215
  152SAPE   C2716783   1.109   3.876   5.211 -0.8344  0.1126 -0.6090
  152SAPE   H7R16784   1.071   3.961   5.272 -0.3077 -0.0169 -0.0998
  152SAPE   H7S16785   1.016   3.842   5.160 -0.5382  0.5985 -1.4881
  152SAPE   C2816786   1.194   3.922   5.095 -0.1222  0.0806  0.4900
  152SAPE   H8R16787   1.252   4.013   5.115  1.0862 -0.4348 -0.4910
  152SAPE   C2916788   1.190   3.876   4.969  0.7731  0.5919 -0.0281
  152SAPE   H9R16789   1.252   3.905   4.883  1.7377 -1.4998 -0.1133
  152SAPE  C21016790   1.107   3.772   4.916  0.6901 -0.3678  0.5741
  152SAPE  H10R16791   1.016   3.762   4.979 -0.1725  1.8868 -0.2260
  152SAPE  H10S16792   1.165   3.678   4.930 -1.7065 -2.4727 -2.3811
  152SAPE  C21116793   1.063   3.785   4.773  0.1150 -0.3112 -0.0846
  152SAPE  H11R16794   0.964   3.833   4.767 -0.2072 -0.8521  0.7312
  152SAPE  C21216795   1.131   3.747   4.667 -0.2875  0.5962 -0.6939
  152SAPE  H12R16796   1.085   3.760   4.568 -0.3966 -2.3281 -1.0886
  152SAPE  C21316797   1.268   3.665   4.669  0.1857 -0.7892 -0.3097
  152SAPE  H13R16798   1.289   3.606   4.761  2.5999 -0.8889 -0.8641
  152SAPE  H13S16799   1.361   3.725   4.675 -0.4781  0.1323  1.3669
  152SAPE  C21416800   1.287   3.586   4.536  0.1218  0.2452  0.0691
  152SAPE  H14R16801   1.309   3.635   4.440 -0.9177 -1.0763 -0.8938
  152SAPE  C21516802   1.272   3.449   4.521 -0.1976 -0.9329 -0.4065
  152SAPE  H15R16803   1.264   3.398   4.424  0.3757 -0.7055 -0.5776
  152SAPE  C21616804   1.249   3.364   4.648  0.1878 -0.3513 -0.3033
  152SAPE  H16R16805   1.168   3.290   4.633 -2.9565  2.6103  0.6794
  152SAPE  H16S16806   1.232   3.412   4.747  0.0181 -1.8565  0.4185
  152SAPE  C21716807   1.382   3.281   4.665  0.0312 -0.1450 -0.3680
  152SAPE  H17R16808   1.471   3.347   4.663 -0.0950  0.2504  2.4935
  152SAPE  H17S16809   1.387   3.201   4.588  0.6746  0.3036 -0.7915
  152SAPE  C21816810   1.384   3.219   4.808  0.6634  0.3464 -0.2790
  152SAPE  H18R16811   1.441   3.124   4.807 -0.2205 -0.2705 -3.3847
  152SAPE  H18S16812   1.278   3.198   4.832  0.5873  0.8879 -0.1357
  152SAPE  C21916813   1.456   3.307   4.908  0.6174  0.2185  0.6487
  152SAPE  H19R16814   1.406   3.406   4.897  0.4963  0.2794  1.7018
  152SAPE  H19S16815   1.565   3.318   4.892  0.5274  1.0387  0.5440
  152SAPE  C22016816   1.453   3.272   5.057  1.0318 -0.1632 -0.1381
  152SAPE  H20R16817   1.482   3.360   5.118 -1.0226  1.1119 -0.9254
  152SAPE  H20S16818   1.533   3.198   5.079  1.3811 -0.3109 -1.7927
  152SAPE  H20T16819   1.357   3.227   5.088  0.9934 -1.1310 -1.5822
  152SAPE   C3316820   0.380   3.870   5.719 -0.4550  0.8508  0.8675
  152SAPE   H3X16821   0.438   3.964   5.728 -1.9219  1.5749  4.6074
  152SAPE   H3Y16822   0.293   3.896   5.655 -0.4892  0.8551  0.9158
  152SAPE   C3416823   0.455   3.757   5.641 -0.3215  0.2634  0.2620
  152SAPE   H4X16824   0.398   3.662   5.644  1.0318 -0.5746  0.5144
  152SAPE   H4Y16825   0.555   3.742   5.686  0.0247 -0.0511 -0.5863
  152SAPE   C3516826   0.470   3.781   5.493  0.6876 -0.1025 -0.3131
  152SAPE   H5X16827   0.371   3.816   5.456  0.6245 -1.5587 -1.6304
  152SAPE   H5Y16828   0.490   3.683   5.445 -0.2170  0.7230 -2.5461
  152SAPE   C3616829   0.575   3.886   5.476 -0.8543  0.0707  0.1535
  152SAPE   H6X16830   0.667   3.849   5.526 -1.2768  0.4226  1.2263
  152SAPE   H6Y16831   0.538   3.981   5.520  1.6094  0.9939  0.4117
  152SAPE   C3716832   0.609   3.906   5.327 -0.0137  0.4431  0.7508
  152SAPE   H7X16833   0.518   3.941   5.275 -0.1127  1.7618  1.7777
  152SAPE   H7Y16834   0.611   3.806   5.278 -1.7952  0.1164  1.2708
  152SAPE   C3816835   0.740   3.984   5.286 -0.3178 -0.5198 -0.7049
  152SAPE   H8X16836   0.827   3.930   5.329 -0.0846  1.8327  2.1204
  152SAPE   H8Y16837   0.740   4.084   5.334 -0.0424 -0.0797 -1.6008
  152SAPE   C3916838   0.764   4.002   5.132 -0.0673 -0.1792  0.1591
  152SAPE   H9X16839   0.665   3.982   5.086 -0.3346 -0.4957  0.8466
  152SAPE   H9Y16840   0.824   3.912   5.106 -1.2226 -0.9763  0.1502
  152SAPE  C31016841   0.839   4.131   5.105  0.3964  0.4873 -0.5587
  152SAPE  H10X16842   0.929   4.111   5.167  0.3704  0.5847 -0.4898
  152SAPE  H10Y16843   0.783   4.217   5.147 -0.2841 -0.5404  0.7312
  152SAPE  C31116844   0.876   4.147   4.959 -0.0863  0.0801 -0.2142
  152SAPE  H11X16845   0.929   4.059   4.916  0.5751  0.0504  0.6319
  152SAPE  H11Y16846   0.957   4.222   4.954  0.1189  0.0896  2.0951
  152SAPE  C31216847   0.756   4.184   4.876  0.1386 -0.2653  0.2544
  152SAPE  H12X16848   0.695   4.255   4.936  1.2920  0.2012  0.9119
  152SAPE  H12Y16849   0.691   4.098   4.851 -0.5302  0.3877 -0.3293
  152SAPE  C31316850   0.795   4.244   4.736  0.2319 -0.4674  1.1559
  152SAPE  H13X16851   0.901   4.231   4.708 -0.4087  2.0666 -3.3159
  152SAPE  H13Y16852   0.774   4.351   4.757 -2.7041 -0.8578  0.6541
  152SAPE  C31416853   0.702   4.179   4.627  0.5368 -0.3017 -0.2238
  152SAPE  H14X16854   0.600   4.202   4.665  0.3286 -0.8332 -0.4482
  152SAPE  H14Y16855   0.721   4.070   4.627  0.2695 -0.3509 -1.0658
  152SAPE  C31516856   0.719   4.237   4.487 -0.2622 -0.2563  0.2293
  152SAPE  H15X16857   0.829   4.245   4.472 -0.3607 -1.3321 -1.2596
  152SAPE  H15Y16858   0.667   4.333   4.468 -1.2102 -1.1632 -2.1508
  152SAPE  C31616859   0.657   4.139   4.384 -0.3235 -0.0184  0.6947
  152SAPE  H16X16860   0.586   4.072   4.438 -0.6076 -0.7196 -0.5046
  152SAPE  H16Y16861   0.742   4.074   4.353 -0.6732 -0.9242  1.5806
  152SAPE  C31716862   0.591   4.197   4.259 -0.3659  0.5138  0.5977
  152SAPE  H17X16863   0.518   4.273   4.292 -0.5017  1.3011 -1.3865
  152SAPE  H17Y16864   0.528   4.120   4.209 -1.0264  0.6606  1.1798
  152SAPE  C31816865   0.688   4.248   4.151 -0.3382  0.2063  0.0200
  152SAPE  H18X16866   0.617   4.272   4.069  1.5447 -0.9543 -2.0443
  152SAPE  H18Y16867   0.757   4.167   4.119 -0.7370 -1.3349  2.7129
  152SAPE  H18Z16868   0.734   4.342   4.188  0.0091 -0.1078  0.3883
  153SAPE     N16869   0.969   2.427   6.528  0.1327  0.5430  0.4533
  153SAPE   HN116870   0.962   2.518   6.579 -2.6873  0.7954 -0.2141
  153SAPE   HN216871   0.923   2.357   6.589 -0.7774 -0.3553 -1.2030
  153SAPE   HN316872   1.071   2.410   6.518 -0.0450 -0.6037  0.4475
  153SAPE   C1216873   0.892   2.449   6.406  0.6984 -0.2562  0.1106
  153SAPE  H12A16874   0.786   2.472   6.428  1.0116  0.6286  0.7562
  153SAPE  H12B16875   0.910   2.358   6.344  3.3714  1.0893 -1.2930
  153SAPE   C1116876   0.940   2.571   6.324  0.6172  0.1001  0.0288
  153SAPE  H11A16877   0.879   2.588   6.233  0.1827 -0.3627  0.2307
  153SAPE  H11B16878   1.043   2.548   6.288  1.1183  1.3440  0.6102
  153SAPE     P16879   0.814   2.757   6.449  0.1850  0.0634  0.2462
  153SAPE   O1316880   0.751   2.673   6.553 -0.2779  0.0801  0.2867
  153SAPE   O1416881   0.843   2.895   6.479  0.0164  0.3357 -0.2996
  153SAPE   O1216882   0.947   2.690   6.403 -0.1596  0.4840  0.5822
  153SAPE   O1116883   0.721   2.759   6.321  0.0339  0.2629  0.1126
  153SAPE    C116884   0.762   2.839   6.208  0.4170  0.5279  0.3913
  153SAPE    HA16885   0.747   2.946   6.232  1.1347  0.3213  1.9077
  153SAPE    HB16886   0.871   2.836   6.186  0.1381 -0.1788 -1.0026
  153SAPE    C216887   0.670   2.823   6.079  0.4974 -0.3894 -0.1591
  153SAPE    HS16888   0.568   2.847   6.116  0.8729  1.5440 -0.2801
  153SAPE   O2116889   0.694   2.694   6.028 -0.0515  0.0708 -0.3050
  153SAPE   C2116890   0.588   2.632   5.977  0.1147  0.9085 -0.3369
  153SAPE   O2216891   0.470   2.666   5.993  0.1044  0.2765  0.0914
  153SAPE   C2216892   0.637   2.493   5.932 -0.0773 -0.3057  0.5398
  153SAPE   H2R16893   0.622   2.483   5.823 -0.6506  0.3545  0.5489
  153SAPE   H2S16894   0.746   2.498   5.952  0.3848  1.9221 -1.9374
  153SAPE    C316895   0.721   2.922   5.969  0.1131  0.1598  0.4795
  153SAPE    HX16896   0.823   2.881   5.955  1.1153  2.6223  0.2250
  153SAPE    HY16897   0.733   3.022   6.014 -1.7106  0.2601  0.8194
  153SAPE   O3116898   0.649   2.906   5.847 -0.4397 -0.3918  0.4785
  153SAPE   C3116899   0.674   3.009   5.764  0.3567  0.3498 -0.1770
  153SAPE   O3216900   0.756   3.102   5.777  0.0459  0.3756  0.1765
  153SAPE   C3216901   0.589   2.991   5.639 -0.1322  0.2173 -0.8419
  153SAPE   H2X16902   0.651   2.981   5.547  1.3276 -0.6515  0.1988
  153SAPE   H2Y16903   0.528   3.084   5.627 -1.7957 -0.9901 -2.1601
  153SAPE   C2316904   0.593   2.373   6.014  0.1173  0.0216  0.0567
  153SAPE   H3R16905   0.621   2.276   5.969 -2.0508 -0.8450  0.4861
  153SAPE   H3S16906   0.483   2.364   6.027  0.1190  0.3045  0.2882
  153SAPE   C2416907   0.656   2.382   6.154  0.2924 -0.1873  0.6716
  153SAPE   H4R16908   0.620   2.471   6.208 -0.0926 -0.8916  1.6033
  153SAPE   H4S16909   0.763   2.398   6.129 -0.5804  1.3457 -2.7665
  153SAPE   C2516910   0.643   2.258   6.242  0.0299 -0.3334 -0.4382
  153SAPE   H5R16911   0.565   2.264   6.319 -0.1638 -1.5002 -0.5395
  153SAPE   C2616912   0.716   2.144   6.243 -0.4881 -0.5697  0.5484
  153SAPE   H6R16913   0.695   2.067   6.318  0.7916 -0.9382  0.5485
  153SAPE   C2716914   0.807   2.100   6.130 -0.2643  0.1359  0.5525
  153SAPE   H7R16915   0.829   2.189   6.068  1.3309 -0.7281 -0.1776
  153SAPE   H7S16916   0.738   2.037   6.070 -0.4273  0.4171  0.4408
  153SAPE   C2816917   0.928   2.015   6.158 -0.0789  0.4248 -0.3987
  153SAPE   H8R16918   0.947   1.980   6.261 -1.6256  0.6693 -0.0081
  153SAPE   C2916919   1.027   1.986   6.072  0.5928 -0.6306  0.4823
  153SAPE   H9R16920   1.100   1.912   6.107  1.1714  0.0411  0.7084
  153SAPE  C21016921   1.033   2.013   5.922 -0.3862 -1.5383  0.6551
  153SAPE  H10R16922   1.094   2.105   5.906 -1.2220 -1.2807 -1.4242
  153SAPE  H10S16923   0.933   2.031   5.878  0.3905  0.4987 -0.4773
  153SAPE  C21116924   1.099   1.897   5.849 -0.6413 -0.4538  0.3645
  153SAPE  H11R16925   1.168   1.839   5.912  0.8989  0.8088 -0.0822
  153SAPE  C21216926   1.077   1.859   5.721  0.2697 -0.6591  0.1916
  153SAPE  H12R16927   1.131   1.773   5.678 -0.7211 -0.9421 -0.5223
  153SAPE  C21316928   0.986   1.937   5.621 -1.2857  0.0802 -0.4207
  153SAPE  H13R16929   0.949   2.030   5.668  4.9704  2.1161  1.4856
  153SAPE  H13S16930   0.905   1.869   5.585 -0.3033 -0.1824 -2.2967
  153SAPE  C21416931   1.069   1.986   5.507 -0.2369  0.0868  0.0639
  153SAPE  H14R16932   1.121   2.081   5.531  1.8369 -1.2584  1.2624
  153SAPE  C21516933   1.085   1.939   5.383 -0.4553 -0.4859  0.2288
  153SAPE  H15R16934   1.144   1.998   5.310 -1.0674  1.0273  0.9091
  153SAPE  C21616935   1.007   1.829   5.319  0.7254  0.3245 -0.1693
  153SAPE  H16R16936   0.906   1.815   5.363  0.2666 -0.2670 -1.3775
  153SAPE  H16S16937   1.058   1.733   5.339 -3.6012 -1.6641  3.0202
  153SAPE  C21716938   0.985   1.848   5.171  0.0976  0.3633 -0.4487
  153SAPE  H17R16939   0.959   1.951   5.139 -2.5890 -0.3805 -0.9428
  153SAPE  H17S16940   0.910   1.772   5.140  0.7747 -0.5540  0.1045
  153SAPE  C21816941   1.095   1.785   5.085  0.0903 -0.8063 -0.0374
  153SAPE  H18R16942   1.126   1.681   5.109  1.2321 -0.7329 -1.0790
  153SAPE  H18S16943   1.183   1.849   5.109 -0.9839  0.7606 -0.1803
  153SAPE  C21916944   1.084   1.825   4.935 -0.4556  0.8117  0.1740
  153SAPE  H19R16945   1.050   1.929   4.914  1.3524  0.9451 -2.5816
  153SAPE  H19S16946   1.014   1.751   4.890  0.4248 -1.1072  1.8103
  153SAPE  C22016947   1.224   1.814   4.880  0.1326 -0.3326 -0.1285
  153SAPE  H20R16948   1.223   1.841   4.772 -1.4403 -1.0036 -0.3077
  153SAPE  H20S16949   1.276   1.716   4.886  1.2268  0.1442 -1.3447
  153SAPE  H20T16950   1.282   1.890   4.936 -0.9711 -1.2044  2.3036
  153SAPE   C3316951   0.476   2.883   5.642  0.1101 -0.4331  0.0249
  153SAPE   H3X16952   0.394   2.911   5.573  0.6481 -2.1896 -1.4080
  153SAPE   H3Y16953   0.423   2.884   5.739  0.1203 -0.8171  0.0357
  153SAPE   C3416954   0.525   2.742   5.593 -0.6759  0.0018 -0.1828
  153SAPE   H4X16955   0.468   2.658   5.638 -0.8171 -1.2401 -2.5604
  153SAPE   H4Y16956   0.629   2.729   5.630  0.3204 -1.2483 -3.1765
  153SAPE   C3516957   0.523   2.727   5.434  0.1286 -0.4305 -1.2107
  153SAPE   H5X16958   0.577   2.816   5.397  0.0525  0.3503  0.4904
  153SAPE   H5Y16959   0.417   2.718   5.402  0.4560 -1.7083 -2.0535
  153SAPE   C3616960   0.592   2.599   5.383 -0.3462  0.5196  1.2949
  153SAPE   H6X16961   0.532   2.516   5.426 -0.4943 -0.3662 -0.5006
  153SAPE   H6Y16962   0.698   2.591   5.416 -0.1458 -2.8355  0.2355
  153SAPE   C3716963   0.564   2.584   5.228 -0.0659 -0.3627 -0.4166
  153SAPE   H7X16964   0.626   2.655   5.169  1.5527  0.9925  2.6356
  153SAPE   H7Y16965   0.457   2.605   5.211 -0.0626  1.5534  1.4748
  153SAPE   C3816966   0.588   2.448   5.164  0.0136  0.7249 -0.6310
  153SAPE   H8X16967   0.552   2.450   5.059 -0.1023  2.4059 -0.5727
  153SAPE   H8Y16968   0.534   2.369   5.221  0.4639  0.8430 -0.0384
  153SAPE   C3916969   0.733   2.412   5.169  0.3665 -0.0159  0.4352
  153SAPE   H9X16970   0.779   2.435   5.267  2.8009  0.0312 -0.6401
  153SAPE   H9Y16971   0.790   2.489   5.112  2.9523 -2.8158 -1.0727
  153SAPE  C31016972   0.767   2.276   5.108  0.1581  0.2622  1.0953
  153SAPE  H10X16973   0.701   2.199   5.154 -1.8333  0.2953 -1.4535
  153SAPE  H10Y16974   0.874   2.255   5.130 -0.1777 -1.1145  1.4871
  153SAPE  C31116975   0.746   2.272   4.955 -0.2719 -0.0635 -0.0623
  153SAPE  H11X16976   0.791   2.360   4.904 -0.0197  0.2566  0.6989
  153SAPE  H11Y16977   0.639   2.293   4.934 -0.3876 -0.2513  0.3219
  153SAPE  C31216978   0.804   2.142   4.897  0.3340  0.2310  0.7758
  153SAPE  H12X16979   0.737   2.064   4.938  0.7968  0.0374  1.1827
  153SAPE  H12Y16980   0.907   2.127   4.936 -0.1901 -1.1344  1.7265
  153SAPE  C31316981   0.811   2.136   4.747 -0.1586 -0.3299  0.6062
  153SAPE  H13X16982   0.827   2.237   4.704  2.3923 -1.1370 -0.5464
  153SAPE  H13Y16983   0.717   2.095   4.705  0.7600 -4.7728  2.3507
  153SAPE  C31416984   0.919   2.045   4.692 -0.1742 -0.2209  0.3626
  153SAPE  H14X16985   0.911   1.940   4.727 -0.5424 -0.5177 -0.5569
  153SAPE  H14Y16986   1.018   2.082   4.726  0.6540 -2.5965  0.6789
  153SAPE  C31516987   0.911   2.044   4.534  0.1877  0.1567 -0.0215
  153SAPE  H15X16988   0.947   2.135   4.481  0.8808  1.0689  1.9021
  153SAPE  H15Y16989   0.803   2.032   4.514  0.5667 -1.4940 -1.2338
  153SAPE  C31616990   0.995   1.931   4.470 -0.5005  0.4529  0.7856
  153SAPE  H16X16991   1.003   1.838   4.529  0.3542 -1.7860 -2.5494
  153SAPE  H16Y16992   1.099   1.965   4.447  0.0138 -1.7920 -0.5707
  153SAPE  C31716993   0.943   1.887   4.327 -0.1349  0.1320 -0.3631
  153SAPE  H17X16994   0.934   1.980   4.266  3.8842  1.0122  0.1125
  153SAPE  H17Y16995   0.846   1.836   4.340  0.5298 -1.2701 -0.7736
  153SAPE  C31816996   1.035   1.793   4.252  0.1614  0.7086  0.1911
  153SAPE  H18X16997   0.985   1.769   4.156 -0.0630 -0.1395  0.5093
  153SAPE  H18Y16998   1.055   1.695   4.301  0.4649  1.0985  0.8626
  153SAPE  H18Z16999   1.135   1.842   4.253 -0.6345  2.3946  1.2275
  154SAPE     N17000   4.051   6.465   6.875 -0.1112  0.1761  0.3343
  154SAPE   HN117001   3.969   6.403   6.855 -1.2188  1.6905 -0.0798
  154SAPE   HN217002   4.109   6.422   6.950 -1.5964 -0.9710  0.8787
  154SAPE   HN317003   4.019   6.559   6.905  1.8822  1.1917 -0.5561
  154SAPE   C1217004   4.125   6.494   6.753 -0.1000 -0.3590 -0.5022
  154SAPE  H12A17005   4.052   6.524   6.675 -0.3886 -0.9207 -0.4541
  154SAPE  H12B17006   4.180   6.405   6.715 -1.9124 -1.5326 -0.4998
  154SAPE   C1117007   4.233   6.607   6.780  0.1097  0.0321  0.3334
  154SAPE  H11A17008   4.316   6.566   6.841  2.1146  4.0363  0.6440
  154SAPE  H11B17009   4.182   6.688   6.835 -0.4665  0.6936 -1.1113
  154SAPE     P17010   4.204   6.763   6.572  0.4145 -0.0017  0.1074
  154SAPE   O1317011   4.135   6.857   6.666  0.3467 -0.0290 -0.7643
  154SAPE   O1417012   4.296   6.822   6.473  0.3833 -0.4057  0.0183
  154SAPE   O1217013   4.285   6.661   6.662  0.2623  0.1954  0.6688
  154SAPE   O1117014   4.097   6.671   6.495 -0.4962 -0.1180  0.2343
  154SAPE    C117015   4.139   6.565   6.413 -0.7288  0.0307  0.4266
  154SAPE    HA17016   4.231   6.514   6.449  0.3662  0.5604 -1.4900
  154SAPE    HB17017   4.057   6.491   6.413 -0.9291  0.2343 -0.5810
  154SAPE    C217018   4.151   6.602   6.258 -0.3440 -1.1785  0.0700
  154SAPE    HS17019   4.232   6.679   6.254 -0.5276 -1.0306 -1.2687
  154SAPE   O2117020   4.027   6.665   6.211  0.8269 -0.3926 -0.1223
  154SAPE   C2117021   4.047   6.766   6.121 -0.1547  0.0531 -0.6530
  154SAPE   O2217022   4.151   6.789   6.065 -0.0716  0.0980 -0.5679
  154SAPE   C2217023   3.917   6.851   6.116 -0.7192 -0.1943  0.2995
  154SAPE   H2R17024   3.839   6.772   6.121  1.4029 -2.3370  2.3646
  154SAPE   H2S17025   3.924   6.915   6.207 -0.5867  2.6945 -1.6391
  154SAPE    C317026   4.187   6.478   6.171 -0.1290  0.0292  0.3116
  154SAPE    HX17027   4.092   6.420   6.160  0.5095 -2.0570  3.9506
  154SAPE    HY17028   4.259   6.419   6.232  0.5263 -1.8221 -2.1074
  154SAPE   O3117029   4.244   6.517   6.043 -0.0775  0.1646  0.3343
  154SAPE   C3117030   4.357   6.456   6.011  0.1872 -0.4773 -0.1702
  154SAPE   O3217031   4.428   6.391   6.086  0.1605  0.6916 -0.2779
  154SAPE   C3217032   4.386   6.487   5.863  0.8238  0.2909  0.4150
  154SAPE   H2X17033   4.329   6.569   5.815 -1.2199 -1.3916 -0.1711
  154SAPE   H2Y17034   4.358   6.390   5.816  0.3911  0.7401 -0.2624
  154SAPE   C2317035   3.914   6.937   5.987 -0.4361  0.0785 -0.1624
  154SAPE   H3R17036   3.915   6.868   5.900 -0.8955  0.0030 -0.1115
  154SAPE   H3S17037   4.008   6.995   5.983 -0.4958  0.2136  0.3550
  154SAPE   C2417038   3.797   7.039   5.981 -0.2746 -0.2915 -0.3085
  154SAPE   H4R17039   3.819   7.107   5.895  1.0280 -0.8959 -0.4652
  154SAPE   H4S17040   3.798   7.099   6.075  2.9890 -0.5494 -0.0869
  154SAPE   C2517041   3.667   6.969   5.962 -0.3195  0.0419 -0.0043
  154SAPE   H5R17042   3.620   6.920   6.049 -1.2644 -0.8339 -0.9731
  154SAPE   C2617043   3.614   6.942   5.841  0.0036 -0.6443  0.1059
  154SAPE   H6R17044   3.515   6.893   5.841 -0.2309 -0.1777  0.5452
  154SAPE   C2717045   3.657   7.002   5.711 -0.4012 -0.7380 -0.4614
  154SAPE   H7R17046   3.761   7.041   5.706  0.2204 -2.2954 -0.4133
  154SAPE   H7S17047   3.600   7.097   5.698  0.6126  0.2921  1.8941
  154SAPE   C2817048   3.626   6.896   5.615 -1.0343  0.6911  0.9097
  154SAPE   H8R17049   3.694   6.811   5.623 -1.4499  0.2076 -0.4722
  154SAPE   C2917050   3.517   6.880   5.539  0.1630  0.1195 -0.3695
  154SAPE   H9R17051   3.510   6.792   5.473 -1.5226 -0.2640  0.2554
  154SAPE  C21017052   3.410   6.982   5.505  0.2294 -0.0224  0.5611
  154SAPE  H10R17053   3.445   7.027   5.410 -1.2268  0.9239  0.4364
  154SAPE  H10S17054   3.398   7.076   5.563 -1.5721 -0.3160  0.7231
  154SAPE  C21117055   3.267   6.934   5.480  0.5525  0.6782 -0.3909
  154SAPE  H11R17056   3.214   6.939   5.576  0.9011 -0.6571 -0.1030
  154SAPE  C21217057   3.213   6.890   5.360 -0.2112 -0.1038 -0.5466
  154SAPE  H12R17058   3.108   6.859   5.349 -0.6259  1.4320 -1.1677
  154SAPE  C21317059   3.301   6.874   5.240 -0.3025 -1.0296  0.2972
  154SAPE  H13R17060   3.269   6.790   5.175  1.4281  0.9791 -3.5802
  154SAPE  H13S17061   3.406   6.858   5.272  0.0058  0.4900  0.1394
  154SAPE  C21417062   3.306   6.996   5.148  0.1861 -0.1673 -0.6577
  154SAPE  H14R17063   3.255   7.086   5.185  0.1594 -1.1696  1.9767
  154SAPE  C21517064   3.354   7.007   5.017 -0.1469  0.1848 -0.8493
  154SAPE  H15R17065   3.339   7.101   4.962  2.3208  0.3702 -1.3371
  154SAPE  C21617066   3.438   6.899   4.944  0.1202 -0.4601  0.1874
  154SAPE  H16R17067   3.454   6.812   5.010  4.0295  0.5565  0.8515
  154SAPE  H16S17068   3.540   6.944   4.935  0.0538 -0.1514  0.9299
  154SAPE  C21717069   3.395   6.848   4.801 -0.2575  0.6582  0.3350
  154SAPE  H17R17070   3.286   6.824   4.794 -0.4189  1.2385  0.7366
  154SAPE  H17S17071   3.450   6.754   4.780 -2.0404  0.0624 -2.1227
  154SAPE  C21817072   3.417   6.945   4.688 -0.3754 -0.3033 -0.0700
  154SAPE  H18R17073   3.527   6.959   4.680 -0.4542 -0.3117 -1.5158
  154SAPE  H18S17074   3.376   7.048   4.696  0.5446  0.1335 -0.7395
  154SAPE  C21917075   3.390   6.881   4.556  0.1135 -0.4233 -0.0439
  154SAPE  H19R17076   3.282   6.861   4.539  0.3407 -0.7536 -1.1814
  154SAPE  H19S17077   3.440   6.782   4.549 -1.5385 -1.1812 -2.0888
  154SAPE  C22017078   3.441   6.974   4.438  0.0096 -0.3801 -0.1965
  154SAPE  H20R17079   3.416   7.082   4.439  1.6729  0.0903  3.1545
  154SAPE  H20S17080   3.419   6.923   4.342  0.5966 -0.6096 -0.2127
  154SAPE  H20T17081   3.552   6.975   4.438  0.0175  0.1138  1.1283
  154SAPE   C3317082   4.537   6.507   5.841 -0.9599 -0.3051 -0.1066
  154SAPE   H3X17083   4.593   6.413   5.860 -0.7489  0.2887  2.6632
  154SAPE   H3Y17084   4.574   6.572   5.924 -1.7972 -0.8580  0.7205
  154SAPE   C3417085   4.571   6.558   5.698 -1.0415  0.9128 -0.0698
  154SAPE   H4X17086   4.497   6.640   5.685 -2.8702 -0.2959  1.9246
  154SAPE   H4Y17087   4.555   6.490   5.612 -0.1624  0.3127  0.2316
  154SAPE   C3517088   4.717   6.596   5.682  0.0570  0.3763 -0.1015
  154SAPE   H5X17089   4.788   6.511   5.681  1.9401  1.8250 -2.5912
  154SAPE   H5Y17090   4.740   6.655   5.773  1.3398 -0.9267  0.4407
  154SAPE   C3617091   4.740   6.685   5.565  0.0606 -0.5207  0.2465
  154SAPE   H6X17092   4.678   6.776   5.572  1.0069  0.3547 -1.8122
  154SAPE   H6Y17093   4.713   6.628   5.474 -1.5385 -1.2898  1.1666
  154SAPE   C3717094   4.883   6.739   5.539  0.7008 -0.4182 -0.2959
  154SAPE   H7X17095   4.946   6.657   5.498  2.0770  0.0842  0.7034
  154SAPE   H7Y17096   4.933   6.759   5.636  3.9399 -3.2133 -1.1957
  154SAPE   C3817097   4.869   6.860   5.444 -0.4641 -0.5524  0.2154
  154SAPE   H8X17098   4.794   6.929   5.490 -0.2767 -0.3682  0.2456
  154SAPE   H8Y17099   4.836   6.809   5.351 -0.3243 -2.1907  1.0350
  154SAPE   C3917100   4.994   6.938   5.435 -0.0652  0.0896 -0.3867
  154SAPE   H9X17101   5.071   6.907   5.508 -0.9998 -1.2137  0.0879
  154SAPE   H9Y17102   4.983   7.044   5.467  0.2755  0.0143 -0.0155
  154SAPE  C31017103   5.051   6.942   5.288  0.0381  0.4604 -0.4560
  154SAPE  H10X17104   5.113   7.033   5.277 -0.4012  1.1631  2.3309
  154SAPE  H10Y17105   4.961   6.951   5.223 -0.0275  1.0996 -0.2833
  154SAPE  C31117106   5.134   6.818   5.253 -0.6150  0.1173  0.4555
  154SAPE  H11X17107   5.081   6.727   5.290 -0.3629 -0.6031 -0.9151
  154SAPE  H11Y17108   5.234   6.817   5.303  0.3779 -0.0260 -1.4277
  154SAPE  C31217109   5.159   6.796   5.102  0.0079 -0.0439 -0.2644
  154SAPE  H12X17110   5.061   6.820   5.053  1.6590  0.6193 -3.5597
  154SAPE  H12Y17111   5.190   6.691   5.084  0.4236 -0.2350  1.4158
  154SAPE  C31317112   5.285   6.878   5.054  0.0681  0.1870  0.7618
  154SAPE  H13X17113   5.368   6.807   5.072 -0.1197  0.1590  1.5492
  154SAPE  H13Y17114   5.309   6.968   5.114 -1.7382  1.1257  0.1495
  154SAPE  C31417115   5.296   6.924   4.908 -0.0176  0.6590  0.2898
  154SAPE  H14X17116   5.403   6.948   4.887  0.1845  0.5888  1.1874
  154SAPE  H14Y17117   5.236   7.016   4.890 -1.3095 -0.3183 -0.5823
  154SAPE  C31517118   5.244   6.834   4.789  0.1576  0.4904 -0.1745
  154SAPE  H15X17119   5.134   6.823   4.797  0.1860 -1.1954 -1.6135
  154SAPE  H15Y17120   5.300   6.739   4.797  0.6055  0.7551 -0.0904
  154SAPE  C31617121   5.270   6.897   4.652 -0.2600 -0.3383  0.4446
  154SAPE  H16X17122   5.379   6.917   4.658 -0.2681 -0.6385  1.8556
  154SAPE  H16Y17123   5.212   6.992   4.643 -0.2044 -0.1304  2.0637
  154SAPE  C31717124   5.241   6.794   4.545  0.9340 -0.1176 -0.3436
  154SAPE  H17X17125   5.135   6.764   4.555  0.1797  1.7220 -2.1320
  154SAPE  H17Y17126   5.300   6.700   4.558  2.1981  0.7640  0.5228
  154SAPE  C31817127   5.249   6.842   4.394 -0.0751  0.7743  0.4667
  154SAPE  H18X17128   5.346   6.894   4.380  0.1678  1.3343  3.4903
  154SAPE  H18Y17129   5.169   6.914   4.368  0.1134 -0.1119 -2.9973
  154SAPE  H18Z17130   5.247   6.752   4.329 -0.4947  1.2521 -0.1934
  155SAPE     N17131   5.573   0.860   6.599  0.6805  0.2997  0.1285
  155SAPE   HN117132   5.643   0.828   6.670  1.0337 -0.1676 -0.4214
  155SAPE   HN217133   5.612   0.851   6.503 -2.0668  0.4107 -1.0914
  155SAPE   HN317134   5.570   0.963   6.611  0.5147  0.4859 -1.3933
  155SAPE   C1217135   5.439   0.801   6.603  0.0444 -0.2253 -0.6136
  155SAPE  H12A17136   5.401   0.818   6.706  1.8684 -0.0390  0.0574
  155SAPE  H12B17137   5.451   0.691   6.590  0.3517 -0.0303 -2.2551
  155SAPE   C1117138   5.340   0.868   6.497  0.0325 -0.1789  0.6513
  155SAPE  H11A17139   5.263   0.792   6.471  1.0005 -1.4851  1.4764
  155SAPE  H11B17140   5.394   0.890   6.402 -2.3175 -0.7169 -0.8918
  155SAPE     P17141   5.335   1.128   6.562 -0.4663 -0.2075  0.1776
  155SAPE   O1317142   5.264   1.195   6.671  0.2496 -0.5644  0.6806
  155SAPE   O1417143   5.483   1.115   6.570 -0.1378 -0.2563  0.1511
  155SAPE   O1217144   5.272   0.983   6.540  0.3500 -0.1746 -0.7314
  155SAPE   O1117145   5.303   1.196   6.423  0.2210 -0.1647 -0.2081
  155SAPE    C117146   5.166   1.200   6.377  0.1091 -0.2616 -0.1875
  155SAPE    HA17147   5.094   1.178   6.459  2.6299  0.9570  2.5656
  155SAPE    HB17148   5.141   1.302   6.344  1.0003  0.0108 -0.0466
  155SAPE    C217149   5.156   1.110   6.253  0.8168 -0.2469  0.0020
  155SAPE    HS17150   5.173   1.005   6.287  0.8017 -0.3166 -0.2000
  155SAPE   O2117151   5.257   1.148   6.157 -0.5797  0.2481  0.1356
  155SAPE   C2117152   5.322   1.046   6.097 -0.0735 -0.9565 -0.5585
  155SAPE   O2217153   5.319   0.927   6.125  0.3987 -0.3024 -0.2446
  155SAPE   C2217154   5.396   1.104   5.978  0.0767 -1.1469 -0.4703
  155SAPE   H2R17155   5.326   1.120   5.894 -2.3947  2.8461  1.9808
  155SAPE   H2S17156   5.431   1.205   6.007 -0.4766 -1.3865  1.1511
  155SAPE    C317157   5.012   1.118   6.189  0.1940 -0.6227  0.3139
  155SAPE    HX17158   5.007   1.229   6.178  0.4526 -0.7151 -0.9512
  155SAPE    HY17159   4.925   1.090   6.252  0.1393 -2.2783 -0.4520
  155SAPE   O3117160   5.015   1.067   6.056 -0.1616 -0.4622 -0.5106
  155SAPE   C3117161   4.985   0.943   6.057 -0.8671 -0.6648 -0.2596
  155SAPE   O3217162   4.956   0.872   6.154  0.1027  0.3608  0.6026
  155SAPE   C3217163   5.015   0.881   5.915 -0.2339 -0.1832 -0.4958
  155SAPE   H2X17164   4.935   0.803   5.915  0.6197 -1.0807 -0.6323
  155SAPE   H2Y17165   5.108   0.821   5.919  1.4417  2.0555 -3.0144
  155SAPE   C2317166   5.518   1.025   5.919 -0.2803 -0.3657  0.2058
  155SAPE   H3R17167   5.500   0.916   5.918  2.9261 -1.0073  1.4624
  155SAPE   H3S17168   5.611   1.039   5.979  1.9274  0.9023 -3.2082
  155SAPE   C2417169   5.551   1.048   5.773 -0.3617 -0.8230 -0.3041
  155SAPE   H4R17170   5.458   1.024   5.717 -0.2782  0.6757 -1.1530
  155SAPE   H4S17171   5.620   0.981   5.718 -2.0153 -1.2554 -1.9929
  155SAPE   C2517172   5.607   1.187   5.752 -0.4992 -0.6095 -0.4092
  155SAPE   H5R17173   5.666   1.227   5.836 -0.5340 -0.6746 -0.3536
  155SAPE   C2617174   5.591   1.252   5.637  0.1868 -0.3276  0.1869
  155SAPE   H6R17175   5.611   1.360   5.639 -0.5053 -0.0692 -2.5993
  155SAPE   C2717176   5.539   1.201   5.504 -0.2576 -0.0993  0.8728
  155SAPE   H7R17177   5.508   1.286   5.440  0.6425 -1.3277 -1.3341
  155SAPE   H7S17178   5.445   1.144   5.524 -0.1595 -0.2213  0.9883
  155SAPE   C2817179   5.614   1.097   5.424 -0.3672 -1.0433  0.1220
  155SAPE   H8R17180   5.633   1.004   5.480  0.4499 -0.7947  0.2841
  155SAPE   C2917181   5.646   1.099   5.297 -0.1271  0.6635  0.1004
  155SAPE   H9R17182   5.715   1.019   5.266  0.1100  0.3676  1.3481
  155SAPE  C21017183   5.618   1.209   5.198 -0.0862  0.0633  0.0378
  155SAPE  H10R17184   5.597   1.301   5.256  2.0419 -1.0795  2.8922
  155SAPE  H10S17185   5.528   1.183   5.138  1.2529 -0.8241 -1.6884
  155SAPE  C21117186   5.742   1.222   5.104 -0.2765 -0.7924 -0.5547
  155SAPE  H11R17187   5.837   1.232   5.159 -1.3453 -0.5079  1.3522
  155SAPE  C21217188   5.745   1.200   4.970 -0.2912  0.2319 -0.2119
  155SAPE  H12R17189   5.837   1.212   4.911  0.7356  2.0160  1.6102
  155SAPE  C21317190   5.626   1.167   4.890  0.4004 -1.2073 -0.1803
  155SAPE  H13R17191   5.615   1.261   4.830  4.2552 -0.7109 -0.3271
  155SAPE  H13S17192   5.535   1.143   4.950  0.2969  0.7534  0.5391
  155SAPE  C21417193   5.648   1.066   4.785  0.5300 -0.3380  0.6345
  155SAPE  H14R17194   5.743   1.011   4.776  2.1229  2.3379  0.2317
  155SAPE  C21517195   5.559   1.039   4.684 -0.6464  0.4471 -0.2840
  155SAPE  H15R17196   5.585   0.952   4.621 -1.7940 -0.4378  0.4160
  155SAPE  C21617197   5.426   1.110   4.661  0.0994 -0.6308 -0.1963
  155SAPE  H16R17198   5.434   1.213   4.703 -0.1151 -1.3356  1.6993
  155SAPE  H16S17199   5.339   1.053   4.701 -2.4046  1.6968 -1.9304
  155SAPE  C21717200   5.401   1.121   4.513 -0.0801 -0.1770 -0.4380
  155SAPE  H17R17201   5.404   1.016   4.475  0.6369 -0.9388  1.5862
  155SAPE  H17S17202   5.476   1.185   4.462  0.5873 -0.8251 -0.2841
  155SAPE  C21817203   5.256   1.173   4.475  0.2976 -0.5462 -0.1391
  155SAPE  H18R17204   5.254   1.272   4.526 -0.4992 -0.3308 -0.5706
  155SAPE  H18S17205   5.170   1.110   4.506 -0.3226  1.0079  1.4561
  155SAPE  C21917206   5.264   1.189   4.320  0.2139  0.3034 -0.9083
  155SAPE  H19R17207   5.274   1.087   4.276  0.5648 -0.0998  0.0771
  155SAPE  H19S17208   5.355   1.248   4.298  0.1136  1.6142  1.7754
  155SAPE  C22017209   5.134   1.256   4.261  0.0520  0.5017 -0.3459
  155SAPE  H20R17210   5.056   1.177   4.268  0.8857 -0.2760  0.4785
  155SAPE  H20S17211   5.147   1.288   4.155  0.2172  1.5571 -0.0133
  155SAPE  H20T17212   5.102   1.339   4.328  1.7313 -0.8792  2.3524
  155SAPE   C3317213   5.022   0.973   5.792 -0.2465 -0.2807  0.6883
  155SAPE   H3X17214   5.098   1.048   5.823  0.3942 -1.4245  1.9873
  155SAPE   H3Y17215   4.923   1.020   5.774 -0.1821 -0.3329  0.1759
  155SAPE   C3417216   5.063   0.914   5.649 -0.3994  1.0263  0.0187
  155SAPE   H4X17217   4.969   0.882   5.600 -0.0391 -0.1582  0.0556
  155SAPE   H4Y17218   5.116   0.818   5.671 -1.0184  0.2822 -1.5647
  155SAPE   C3517219   5.154   1.006   5.571  0.8340 -0.1849 -1.0465
  155SAPE   H5X17220   5.223   1.046   5.649  0.0700  1.5601 -1.2081
  155SAPE   H5Y17221   5.108   1.102   5.538 -0.0308 -0.2673 -0.1539
  155SAPE   C3617222   5.228   0.938   5.455  0.2751 -0.5433  0.4473
  155SAPE   H6X17223   5.227   0.828   5.470 -0.6210 -0.3764  1.7908
  155SAPE   H6Y17224   5.337   0.961   5.462  0.5316 -1.9171  1.3768
  155SAPE   C3717225   5.171   0.995   5.321  0.5477 -0.5026  0.5883
  155SAPE   H7X17226   5.150   1.104   5.330 -0.4455 -0.3904 -2.1547
  155SAPE   H7Y17227   5.069   0.951   5.320  0.6972 -0.8755  1.4609
  155SAPE   C3817228   5.243   0.947   5.192  0.0601 -0.2773 -0.1813
  155SAPE   H8X17229   5.252   0.837   5.204  3.1464 -0.0406  0.5589
  155SAPE   H8Y17230   5.344   0.994   5.188 -0.6467  1.2262 -2.2232
  155SAPE   C3917231   5.159   0.969   5.064 -0.4175  1.2526 -0.2612
  155SAPE   H9X17232   5.144   1.079   5.055  0.6944  1.3826 -0.6239
  155SAPE   H9Y17233   5.062   0.921   5.091  1.3661 -0.7270  3.4229
  155SAPE  C31017234   5.218   0.899   4.939 -0.0739 -0.6279  0.1962
  155SAPE  H10X17235   5.243   0.796   4.970 -0.6969 -0.4939  1.1677
  155SAPE  H10Y17236   5.310   0.947   4.899  0.0921 -1.3028 -0.2367
  155SAPE  C31117237   5.120   0.885   4.826 -0.0105  0.0613 -0.2002
  155SAPE  H11X17238   5.149   0.975   4.769  1.1524  0.7332  1.3934
  155SAPE  H11Y17239   5.014   0.893   4.859 -0.5693 -1.5204 -1.4078
  155SAPE  C31217240   5.148   0.756   4.753  0.1067  0.4976 -0.1545
  155SAPE  H12X17241   5.148   0.661   4.810 -0.4538  0.2723 -0.5260
  155SAPE  H12Y17242   5.253   0.766   4.717 -0.1130  0.2563 -0.8543
  155SAPE  C31317243   5.043   0.726   4.643  0.3648  0.5805  0.1641
  155SAPE  H13X17244   5.074   0.642   4.578 -2.7701  0.2626 -1.0946
  155SAPE  H13Y17245   5.031   0.806   4.567 -2.1102 -0.8259 -1.0361
  155SAPE  C31417246   4.912   0.667   4.700 -0.5012  0.3625  0.4348
  155SAPE  H14X17247   4.865   0.745   4.763  1.8688  0.9216  1.6258
  155SAPE  H14Y17248   4.946   0.589   4.771  2.7933  2.1821  1.0388
  155SAPE  C31517249   4.833   0.596   4.587 -0.4755  0.3453  0.6954
  155SAPE  H15X17250   4.760   0.532   4.641  1.1074 -0.3114  2.1241
  155SAPE  H15Y17251   4.906   0.526   4.542  0.5680  1.2866  0.8893
  155SAPE  C31617252   4.775   0.678   4.477  0.2190  0.2028  0.1058
  155SAPE  H16X17253   4.853   0.737   4.424 -1.5197  2.5843  0.0071
  155SAPE  H16Y17254   4.713   0.757   4.525  3.0998  2.0906  0.9730
  155SAPE  C31717255   4.703   0.603   4.371  0.3194  0.0356 -0.7607
  155SAPE  H17X17256   4.656   0.653   4.284 -1.8809 -1.7274 -0.6823
  155SAPE  H17Y17257   4.617   0.555   4.423  2.3036 -0.9164  1.8709
  155SAPE  C31817258   4.776   0.481   4.325  0.1189  0.1094  0.4092
  155SAPE  H18X17259   4.762   0.390   4.389 -1.8183 -0.0523 -0.1729
  155SAPE  H18Y17260   4.884   0.499   4.342  1.0512 -3.3283 -1.0137
  155SAPE  H18Z17261   4.756   0.452   4.220  2.2397 -1.9782  0.4945
  156SAPE     N17262   1.113   1.046   6.735  0.0316  0.4546 -0.4083
  156SAPE   HN117263   1.102   1.015   6.637  0.1878 -0.5549 -0.1174
  156SAPE   HN217264   1.175   1.129   6.733 -0.6246  1.0443  1.2786
  156SAPE   HN317265   1.169   0.968   6.776 -0.1515  0.4635 -0.1353
  156SAPE   C1217266   0.982   1.073   6.802 -0.1275  0.6419  0.0040
  156SAPE  H12A17267   0.986   1.157   6.874 -2.4002  0.1053  0.8332
  156SAPE  H12B17268   0.941   0.980   6.847 -1.2465  0.4711 -1.2926
  156SAPE   C1117269   0.887   1.112   6.685 -0.2533 -0.1309 -0.2035
  156SAPE  H11A17270   0.780   1.118   6.715  0.4148  0.0310  2.3959
  156SAPE  H11B17271   0.889   1.026   6.615 -1.2687 -1.1727  0.9845
  156SAPE     P17272   0.899   1.370   6.677  0.3834  0.1651  0.0380
  156SAPE   O1317273   0.823   1.372   6.804  0.1061  0.6363 -0.3596
  156SAPE   O1417274   1.014   1.461   6.687  0.5708 -0.7304  0.1600
  156SAPE   O1217275   0.941   1.232   6.627  0.2986 -0.0806 -0.1970
  156SAPE   O1117276   0.819   1.427   6.562 -0.4671  0.9485  0.3757
  156SAPE    C117277   0.679   1.374   6.551  0.6217 -0.0617 -0.0558
  156SAPE    HA17278   0.679   1.271   6.510 -1.4674 -1.1133  2.3325
  156SAPE    HB17279   0.634   1.357   6.651  0.4122  0.8204  0.0090
  156SAPE    C217280   0.592   1.467   6.462 -0.2666 -0.9649  0.3474
  156SAPE    HS17281   0.505   1.407   6.428  0.3606 -0.7832 -1.6850
  156SAPE   O2117282   0.665   1.508   6.346  0.1227 -0.2033  0.1669
  156SAPE   C2117283   0.719   1.406   6.281  0.5924  0.0884  0.4813
  156SAPE   O2217284   0.673   1.289   6.284 -0.0590 -0.2214  0.3619
  156SAPE   C2217285   0.842   1.445   6.198 -0.5101 -0.5492  0.1635
  156SAPE   H2R17286   0.824   1.541   6.145  1.4364  1.0304  2.1591
  156SAPE   H2S17287   0.919   1.464   6.277 -1.4922  2.2044  0.5789
  156SAPE    C317288   0.544   1.592   6.534 -0.4871 -0.6261  0.8558
  156SAPE    HX17289   0.619   1.666   6.566  0.1773 -0.5792 -0.7344
  156SAPE    HY17290   0.498   1.557   6.630 -0.4381 -0.2089  1.0314
  156SAPE   O3117291   0.449   1.653   6.443  0.6275  0.0265 -0.4813
  156SAPE   C3117292   0.483   1.753   6.358 -0.0345 -0.1922 -0.4810
  156SAPE   O3217293   0.592   1.811   6.363  0.0380 -0.2500  0.4459
  156SAPE   C3217294   0.355   1.774   6.267 -0.4450 -0.5653 -0.4379
  156SAPE   H2X17295   0.266   1.791   6.331 -0.0762 -0.4165  0.0425
  156SAPE   H2Y17296   0.343   1.669   6.231 -1.3101 -1.1199  1.3443
  156SAPE   C2317297   0.871   1.330   6.104  0.0276  0.1461  0.4050
  156SAPE   H3R17298   0.788   1.315   6.032 -0.2713  1.2071  0.4992
  156SAPE   H3S17299   0.889   1.234   6.156  0.3523 -0.3128 -0.5439
  156SAPE   C2417300   0.997   1.353   6.018  0.2887  0.1054  0.4655
  156SAPE   H4R17301   1.018   1.259   5.964 -0.6116  0.0799  0.1456
  156SAPE   H4S17302   1.084   1.363   6.087  0.8153 -1.6921  0.0960
  156SAPE   C2517303   1.001   1.481   5.934 -0.5609  0.0670 -0.2853
  156SAPE   H5R17304   1.049   1.567   5.983 -1.4170  1.9315 -2.5150
  156SAPE   C2617305   0.966   1.484   5.802 -1.2969  0.0625  0.3622
  156SAPE   H6R17306   0.960   1.582   5.753 -0.1244 -0.7201 -1.4270
  156SAPE   C2717307   0.902   1.370   5.721  0.1332 -0.8910 -0.0228
  156SAPE   H7R17308   0.879   1.282   5.784 -1.0229 -1.6936 -1.4969
  156SAPE   H7S17309   0.979   1.334   5.650  0.3565  2.1854 -1.5085
  156SAPE   C2817310   0.773   1.396   5.644  0.6127  0.2660 -0.3269
  156SAPE   H8R17311   0.680   1.371   5.699  0.5537  1.2726  0.0412
  156SAPE   C2917312   0.759   1.458   5.525 -0.0387  0.7036  0.3014
  156SAPE   H9R17313   0.654   1.465   5.493  0.2163 -0.5029 -0.8710
  156SAPE  C21017314   0.862   1.536   5.440 -0.5705  0.2305  0.1827
  156SAPE  H10R17315   0.942   1.562   5.513 -0.9964 -1.5873  1.3637
  156SAPE  H10S17316   0.799   1.624   5.413 -1.6294 -0.1516  1.3086
  156SAPE  C21117317   0.928   1.461   5.327  0.4021 -0.0825  0.1086
  156SAPE  H11R17318   1.025   1.423   5.361  1.2232  3.4725  2.3757
  156SAPE  C21217319   0.890   1.420   5.203  0.6800 -0.4420 -0.2830
  156SAPE  H12R17320   0.968   1.369   5.146  1.0871 -1.8450  1.4503
  156SAPE  C21317321   0.761   1.457   5.138  0.1776  0.7419  0.3807
  156SAPE  H13R17322   0.716   1.524   5.214  0.5015  1.2588  0.1182
  156SAPE  H13S17323   0.687   1.376   5.119 -0.5460  1.1343  1.4850
  156SAPE  C21417324   0.781   1.546   5.014  0.1742  0.0470 -0.0678
  156SAPE  H14R17325   0.769   1.652   5.039 -0.4758  0.2351 -1.1308
  156SAPE  C21517326   0.814   1.506   4.886  0.4659 -0.4192  0.6300
  156SAPE  H15R17327   0.817   1.589   4.814 -2.4582 -0.2035  0.6196
  156SAPE  C21617328   0.848   1.368   4.832  0.3283  0.6572 -0.5175
  156SAPE  H16R17329   0.761   1.340   4.769  0.3963  0.3456 -0.4783
  156SAPE  H16S17330   0.858   1.298   4.918  1.1715  1.0875 -0.2467
  156SAPE  C21717331   0.978   1.367   4.744  0.0321  0.2069  0.0394
  156SAPE  H17R17332   0.979   1.456   4.677 -1.8858  0.5330  0.3974
  156SAPE  H17S17333   0.979   1.288   4.665 -0.7856  0.1742  0.0545
  156SAPE  C21817334   1.112   1.368   4.822  0.2311  0.6495 -0.2607
  156SAPE  H18R17335   1.104   1.269   4.871 -0.8192  0.5018 -0.6862
  156SAPE  H18S17336   1.107   1.450   4.897 -0.7344 -0.2742  0.7198
  156SAPE  C21917337   1.233   1.379   4.728 -0.2910  0.0225  0.2536
  156SAPE  H19R17338   1.229   1.296   4.654 -0.5423 -0.1676  0.4776
  156SAPE  H19S17339   1.329   1.378   4.783  0.2374  0.9584 -0.6018
  156SAPE  C22017340   1.247   1.508   4.643 -0.6843 -0.2192 -0.1947
  156SAPE  H20R17341   1.246   1.603   4.700  0.3430 -0.6992  0.6555
  156SAPE  H20S17342   1.165   1.514   4.568 -0.8170 -0.6823 -0.0928
  156SAPE  H20T17343   1.341   1.498   4.584 -0.8474  1.9011 -0.8776
  156SAPE   C3317344   0.367   1.883   6.155 -0.9414  0.4515 -0.3105
  156SAPE   H3X17345   0.387   1.985   6.195  0.7173 -0.2576  0.7942
  156SAPE   H3Y17346   0.272   1.873   6.098 -1.8675 -1.4383  1.4180
  156SAPE   C3417347   0.492   1.864   6.064 -0.0673  0.7143 -0.1261
  156SAPE   H4X17348   0.587   1.885   6.117 -0.5616  0.7991  0.7443
  156SAPE   H4Y17349   0.501   1.935   5.979 -0.0354 -1.4365 -2.0119
  156SAPE   C3517350   0.523   1.730   6.002  0.0938 -0.4625  0.2044
  156SAPE   H5X17351   0.444   1.693   5.933  0.5659 -1.5206  0.2087
  156SAPE   H5Y17352   0.523   1.670   6.096 -0.3855  1.7623  1.6919
  156SAPE   C3617353   0.658   1.707   5.936  0.6079  0.2478  0.0172
  156SAPE   H6X17354   0.679   1.599   5.919  2.0246  0.5136 -0.0525
  156SAPE   H6Y17355   0.735   1.747   6.005 -2.0532  2.0343  2.1506
  156SAPE   C3717356   0.671   1.772   5.798 -0.8482 -0.7583 -0.6485
  156SAPE   H7X17357   0.773   1.749   5.761  0.6914  0.6524  2.3504
  156SAPE   H7Y17358   0.684   1.882   5.805  1.2978 -0.5395 -4.9691
  156SAPE   C3817359   0.574   1.756   5.681 -0.7471 -0.0932 -1.2063
  156SAPE   H8X17360   0.466   1.782   5.685 -0.8130 -0.2551 -1.9340
  156SAPE   H8Y17361   0.574   1.646   5.669 -0.9990 -0.2290 -0.1098
  156SAPE   C3917362   0.624   1.831   5.565 -0.6207  0.5166  0.1134
  156SAPE   H9X17363   0.726   1.794   5.540  0.2219  2.3947  0.5714
  156SAPE   H9Y17364   0.628   1.942   5.566  0.7978  0.5695 -2.2386
  156SAPE  C31017365   0.534   1.800   5.435  0.4959 -0.4971 -0.4510
  156SAPE  H10X17366   0.427   1.821   5.451 -0.1557 -0.2117 -4.2142
  156SAPE  H10Y17367   0.547   1.690   5.426  1.5696 -0.6821  2.2877
  156SAPE  C31117368   0.576   1.865   5.312 -0.0649  0.2186  0.4289
  156SAPE  H11X17369   0.682   1.844   5.286  0.0647 -1.7344  2.2741
  156SAPE  H11Y17370   0.570   1.976   5.313  0.0939  0.2577  2.8610
  156SAPE  C31217371   0.507   1.816   5.185  0.3023 -0.4620 -0.1597
  156SAPE  H12X17372   0.397   1.825   5.197  0.2026 -1.0020 -0.6171
  156SAPE  H12Y17373   0.521   1.705   5.184 -0.5032 -0.5710 -0.5165
  156SAPE  C31317374   0.554   1.884   5.055  0.7338  0.2273 -0.4159
  156SAPE  H13X17375   0.663   1.868   5.043  0.7156 -1.9747  1.5138
  156SAPE  H13Y17376   0.536   1.992   5.074  0.6189  0.6163 -2.5440
  156SAPE  C31417377   0.484   1.812   4.937  0.1281 -0.0571 -0.3438
  156SAPE  H14X17378   0.377   1.842   4.937  0.3062  0.6577 -1.5321
  156SAPE  H14Y17379   0.491   1.702   4.948  2.1055 -0.0390 -1.0537
  156SAPE  C31517380   0.546   1.848   4.804  0.4330 -0.6516 -0.1185
  156SAPE  H15X17381   0.646   1.893   4.822 -0.7033  1.2133  1.9541
  156SAPE  H15Y17382   0.497   1.926   4.743  0.4377 -0.3565  0.2542
  156SAPE  C31617383   0.556   1.722   4.715 -0.0800 -0.6136  0.3098
  156SAPE  H16X17384   0.451   1.704   4.682 -0.5233  2.2386 -0.0865
  156SAPE  H16Y17385   0.596   1.635   4.770  1.6282 -2.6010 -3.6305
  156SAPE  C31717386   0.643   1.749   4.588 -0.1664  0.0765 -1.1538
  156SAPE  H17X17387   0.732   1.806   4.622 -0.5109 -0.6645  1.1866
  156SAPE  H17Y17388   0.593   1.809   4.508  0.8535  2.0651 -0.3838
  156SAPE  C31817389   0.687   1.617   4.522  0.1217  0.0424  0.1626
  156SAPE  H18X17390   0.749   1.550   4.585 -1.3025 -2.0341 -0.5147
  156SAPE  H18Y17391   0.742   1.641   4.429 -0.9291  0.0715 -0.4695
  156SAPE  H18Z17392   0.592   1.568   4.492  0.6532 -2.5949  2.4150
  157SAPE     N17393   2.432   6.378   6.520  0.2314 -0.3996 -0.0642
  157SAPE   HN117394   2.388   6.385   6.614  1.3991 -2.4604  0.6930
  157SAPE   HN217395   2.512   6.315   6.541  0.4352  0.0583  0.5867
  157SAPE   HN317396   2.471   6.470   6.490  1.2093 -0.6903  0.2816
  157SAPE   C1217397   2.342   6.304   6.430 -0.7339 -0.4888  0.7506
  157SAPE  H12A17398   2.385   6.289   6.329  2.9633  4.4695  1.1779
  157SAPE  H12B17399   2.262   6.374   6.396  0.4325  0.2137 -0.6693
  157SAPE   C1117400   2.283   6.176   6.496  0.0477 -0.0403 -0.0030
  157SAPE  H11A17401   2.355   6.097   6.524  1.5442  1.5499  0.8750
  157SAPE  H11B17402   2.214   6.132   6.421 -0.0750 -1.6551  1.0133
  157SAPE     P17403   2.063   6.258   6.623 -0.0638 -0.1851 -0.5429
  157SAPE   O1317404   2.021   6.266   6.767 -0.0032 -0.2147 -0.0948
  157SAPE   O1417405   2.047   6.387   6.555 -0.0217 -0.2445  0.0538
  157SAPE   O1217406   2.217   6.217   6.616  0.1985 -0.0890 -0.2636
  157SAPE   O1117407   1.981   6.145   6.565  0.0742  0.0136 -0.1732
  157SAPE    C117408   1.844   6.162   6.532 -0.2213 -0.1525 -0.6064
  157SAPE    HA17409   1.786   6.083   6.584  0.9742  0.1132  1.2369
  157SAPE    HB17410   1.806   6.262   6.564  1.4164  0.5196 -0.6662
  157SAPE    C217411   1.815   6.165   6.380 -0.1188  0.4031  0.0428
  157SAPE    HS17412   1.833   6.058   6.352  0.1634 -0.0435  1.8174
  157SAPE   O2117413   1.912   6.254   6.319 -0.8755 -0.8414  0.2464
  157SAPE   C2117414   1.986   6.210   6.224  0.0672  0.4192  0.0221
  157SAPE   O2217415   1.999   6.090   6.197  0.0627 -0.3716 -0.5175
  157SAPE   C2217416   2.043   6.332   6.150 -0.3148 -0.5821  0.8265
  157SAPE   H2R17417   1.969   6.414   6.142  0.2541 -0.0939  0.4521
  157SAPE   H2S17418   2.133   6.355   6.211  1.1240  1.0589 -1.7071
  157SAPE    C317419   1.669   6.205   6.337  0.0836  0.0057  0.1779
  157SAPE    HX17420   1.663   6.314   6.361 -0.1302  0.0458 -0.0578
  157SAPE    HY17421   1.595   6.151   6.399  0.7196 -1.2448 -0.1247
  157SAPE   O3117422   1.640   6.188   6.191  0.3113 -0.0441 -0.2889
  157SAPE   C3117423   1.520   6.213   6.152 -0.5458  0.3513  0.2050
  157SAPE   O3217424   1.426   6.262   6.218 -0.7694  0.1952 -0.5384
  157SAPE   C3217425   1.503   6.167   6.007  0.3614  0.0273 -0.3070
  157SAPE   H2X17426   1.459   6.065   6.009  2.0093 -0.6961  1.3770
  157SAPE   H2Y17427   1.598   6.181   5.952  0.3494  0.2063 -0.2834
  157SAPE   C2317428   2.112   6.313   6.013  0.0092 -0.1118 -1.3178
  157SAPE   H3R17429   2.197   6.245   6.031 -1.1146 -1.4533 -0.8877
  157SAPE   H3S17430   2.150   6.406   5.965 -1.1061  0.6143 -0.8463
  157SAPE   C2417431   2.019   6.266   5.895  0.9997 -0.1009 -0.2949
  157SAPE   H4R17432   1.984   6.164   5.923 -2.2911  0.8097 -0.7091
  157SAPE   H4S17433   2.082   6.244   5.806 -0.9064 -1.9026 -1.2989
  157SAPE   C2517434   1.910   6.362   5.843 -0.5197  0.2472 -0.3555
  157SAPE   H5R17435   1.865   6.424   5.923 -0.9058 -0.0952 -0.3062
  157SAPE   C2617436   1.874   6.395   5.711 -0.4657  0.4879  0.5424
  157SAPE   H6R17437   1.787   6.461   5.701  0.6579  1.9187 -0.1359
  157SAPE   C2717438   1.925   6.335   5.582  0.3776 -0.1581 -0.4242
  157SAPE   H7R17439   2.036   6.322   5.585  0.4076 -0.0423 -0.8510
  157SAPE   H7S17440   1.906   6.411   5.503 -1.7358 -0.1304  0.0653
  157SAPE   C2817441   1.862   6.204   5.537  0.2348 -0.6801 -0.9042
  157SAPE   H8R17442   1.847   6.133   5.619  0.2118  1.9191  1.4949
  157SAPE   C2917443   1.830   6.175   5.409  0.5353 -0.3649 -0.1044
  157SAPE   H9R17444   1.791   6.074   5.392  1.9508 -0.7062 -1.7174
  157SAPE  C21017445   1.843   6.263   5.288 -0.3644 -0.1446 -0.2614
  157SAPE  H10R17446   1.825   6.371   5.309 -2.5334 -0.7455  1.3356
  157SAPE  H10S17447   1.761   6.242   5.217  0.8086  2.0437 -2.4333
  157SAPE  C21117448   1.979   6.247   5.229  0.0744  0.1374  0.1503
  157SAPE  H11R17449   2.058   6.232   5.303  0.6798 -0.2776 -0.5768
  157SAPE  C21217450   2.014   6.258   5.096 -0.2702 -0.0729 -0.2625
  157SAPE  H12R17451   2.117   6.247   5.060 -0.2308 -1.2822  0.1863
  157SAPE  C21317452   1.909   6.281   4.996  1.1175  0.2079  0.3532
  157SAPE  H13R17453   1.832   6.202   5.001  2.3435 -1.0463 -0.0772
  157SAPE  H13S17454   1.950   6.262   4.894 -1.3646  0.0765 -0.7015
  157SAPE  C21417455   1.834   6.420   4.988  0.1745  0.2018 -0.2997
  157SAPE  H14R17456   1.728   6.427   5.017  0.4947 -0.2319  1.0323
  157SAPE  C21517457   1.893   6.531   4.947 -0.5936 -0.2750  1.0568
  157SAPE  H15R17458   1.835   6.625   4.946  2.9099  2.0731  1.3266
  157SAPE  C21617459   2.036   6.546   4.899 -0.5952 -0.7511 -0.4936
  157SAPE  H16R17460   2.099   6.455   4.909 -0.5576 -0.6493  0.2499
  157SAPE  H16S17461   2.085   6.626   4.958 -0.4968  0.0693 -1.6539
  157SAPE  C21717462   2.031   6.595   4.748 -0.7537 -0.7655 -0.1978
  157SAPE  H17R17463   1.966   6.685   4.742 -0.9414 -0.5524  3.1313
  157SAPE  H17S17464   2.000   6.510   4.685 -0.1794 -0.4394 -0.9363
  157SAPE  C21817465   2.174   6.640   4.706  0.9490 -0.3514 -0.2382
  157SAPE  H18R17466   2.259   6.573   4.731  2.9344  1.3146 -2.0418
  157SAPE  H18S17467   2.185   6.741   4.751 -3.6583  0.2792 -0.1200
  157SAPE  C21917468   2.196   6.668   4.555  0.1506  0.7908  0.4965
  157SAPE  H19R17469   2.265   6.754   4.550  0.5077  0.4585 -0.7096
  157SAPE  H19S17470   2.098   6.706   4.517  0.8443 -0.2465 -2.6316
  157SAPE  C22017471   2.262   6.555   4.481 -0.1023  0.0905 -0.2816
  157SAPE  H20R17472   2.272   6.573   4.372  0.8014  3.1386  0.2043
  157SAPE  H20S17473   2.198   6.468   4.507 -0.0628 -0.0796 -0.7494
  157SAPE  H20T17474   2.366   6.543   4.517  0.8530  5.2291 -0.5745
  157SAPE   C3317475   1.408   6.268   5.926 -0.3755 -0.1689 -0.2719
  157SAPE   H3X17476   1.466   6.360   5.909 -0.3356 -0.2721 -0.7345
  157SAPE   H3Y17477   1.316   6.302   5.978  0.0216 -0.2248  0.4810
  157SAPE   C3417478   1.367   6.223   5.785  0.6499 -0.3234 -0.0530
  157SAPE   H4X17479   1.320   6.311   5.736  1.9200  1.6227  1.9974
  157SAPE   H4Y17480   1.292   6.144   5.803 -0.4112  0.9950  1.5873
  157SAPE   C3517481   1.474   6.179   5.687 -0.4671 -0.6828 -0.0474
  157SAPE   H5X17482   1.544   6.099   5.719  0.9772  0.1825 -0.9284
  157SAPE   H5Y17483   1.541   6.268   5.687 -2.3738  0.9150  2.9843
  157SAPE   C3617484   1.424   6.167   5.546  0.7173  0.1784  0.5739
  157SAPE   H6X17485   1.320   6.128   5.542  1.4143 -1.8106  0.8376
  157SAPE   H6Y17486   1.478   6.089   5.490 -1.1812 -0.2610 -0.7582
  157SAPE   C3717487   1.445   6.289   5.448  0.2887  0.6419 -0.4485
  157SAPE   H7X17488   1.549   6.325   5.459  0.3776  0.4561 -0.6740
  157SAPE   H7Y17489   1.371   6.369   5.469  0.3241  0.2388  1.3487
  157SAPE   C3817490   1.432   6.235   5.308  0.2098  0.0482 -0.2282
  157SAPE   H8X17491   1.327   6.201   5.295 -0.3314  1.1510  1.0963
  157SAPE   H8Y17492   1.500   6.147   5.297  0.7731  0.3300  0.8816
  157SAPE   C3917493   1.466   6.336   5.197  0.3537  0.0966  0.2615
  157SAPE   H9X17494   1.574   6.363   5.192  0.2208  0.5233 -0.5189
  157SAPE   H9Y17495   1.407   6.427   5.224  1.3445  0.4551  1.2902
  157SAPE  C31017496   1.427   6.291   5.060  0.1401 -0.5574 -0.5450
  157SAPE  H10X17497   1.413   6.373   4.986 -1.5135  0.1027  0.4339
  157SAPE  H10Y17498   1.329   6.242   5.079  0.0763 -0.8349 -1.5155
  157SAPE  C31117499   1.509   6.175   4.995 -0.0961 -1.0030 -0.4832
  157SAPE  H11X17500   1.489   6.099   5.073 -0.1015  0.2262  0.7542
  157SAPE  H11Y17501   1.615   6.203   4.973 -0.7904  1.5890 -0.8477
  157SAPE  C31217502   1.448   6.110   4.870  0.0428 -0.0879  0.4936
  157SAPE  H12X17503   1.341   6.098   4.898 -0.1420 -0.2847 -0.2567
  157SAPE  H12Y17504   1.495   6.010   4.855  0.2837 -0.0009  0.6639
  157SAPE  C31317505   1.463   6.201   4.748  1.2782 -0.6336  0.3761
  157SAPE  H13X17506   1.404   6.295   4.750 -1.6998 -2.2586 -2.6422
  157SAPE  H13Y17507   1.422   6.145   4.661  2.2019  0.0331 -0.5176
  157SAPE  C31417508   1.604   6.233   4.690 -0.5551 -0.8151  0.6624
  157SAPE  H14X17509   1.673   6.148   4.707  0.0735 -0.8755 -1.8740
  157SAPE  H14Y17510   1.629   6.324   4.749 -0.7545 -0.8812  0.8528
  157SAPE  C31517511   1.610   6.274   4.540 -0.3696 -1.1018 -0.5464
  157SAPE  H15X17512   1.524   6.344   4.530 -0.9577 -1.5384  1.1681
  157SAPE  H15Y17513   1.611   6.194   4.464 -0.8950  0.0889 -1.8552
  157SAPE  C31617514   1.735   6.358   4.528 -0.8544  0.2525  0.0556
  157SAPE  H16X17515   1.834   6.311   4.545  0.1744  2.6074  0.9044
  157SAPE  H16Y17516   1.732   6.437   4.606  0.3658  2.4690 -1.9959
  157SAPE  C31717517   1.753   6.419   4.388 -0.0991 -0.1894 -0.1607
  157SAPE  H17X17518   1.716   6.522   4.405  0.5322  0.2288 -1.2399
  157SAPE  H17Y17519   1.680   6.374   4.318 -0.8162  0.6761  0.0242
  157SAPE  C31817520   1.892   6.435   4.338  0.0089  0.9295  0.4474
  157SAPE  H18X17521   1.939   6.334   4.346 -0.6337  0.5603 -0.3512
  157SAPE  H18Y17522   1.957   6.508   4.391 -0.5484  0.3891  1.9139
  157SAPE  H18Z17523   1.906   6.470   4.233 -0.0182 -0.9647 -0.2246
  158SAPE     N17524   4.521   4.699   6.254 -0.4205  0.6089 -0.1030
  158SAPE   HN117525   4.586   4.681   6.333 -1.6018 -0.6907  0.6115
  158SAPE   HN217526   4.571   4.676   6.165  1.8371  3.0460  0.4162
  158SAPE   HN317527   4.499   4.799   6.272 -0.9499  0.0795  2.5240
  158SAPE   C1217528   4.391   4.623   6.283 -0.3853 -0.2775 -0.4718
  158SAPE  H12A17529   4.353   4.663   6.379  1.0970  1.3556 -0.5198
  158SAPE  H12B17530   4.411   4.517   6.309  2.6793  0.7573  2.0603
  158SAPE   C1117531   4.306   4.627   6.154  0.5915 -0.4150 -1.0740
  158SAPE  H11A17532   4.341   4.559   6.073 -0.1594 -1.1487 -0.8036
  158SAPE  H11B17533   4.293   4.735   6.129 -0.8881 -0.0617  0.9545
  158SAPE     P17534   4.105   4.458   6.164 -0.3544  0.1038  0.1515
  158SAPE   O1317535   4.202   4.371   6.088  0.5131 -0.0980  0.5514
  158SAPE   O1417536   4.057   4.406   6.291 -0.0299  0.2525 -0.5481
  158SAPE   O1217537   4.170   4.597   6.187 -0.4139  0.0376  0.2853
  158SAPE   O1117538   3.990   4.496   6.068  0.4505 -0.3099  0.3492
  158SAPE    C117539   3.980   4.624   5.993 -0.4222 -0.3068 -0.9575
  158SAPE    HA17540   3.907   4.694   6.038  1.4587  1.7308 -0.8976
  158SAPE    HB17541   4.075   4.681   6.004 -0.4039 -0.7746  2.7734
  158SAPE    C217542   3.935   4.608   5.845  0.1511  0.0370 -0.1772
  158SAPE    HS17543   4.019   4.648   5.784 -0.9412  2.6595 -0.1064
  158SAPE   O2117544   3.811   4.673   5.812  0.0277  0.0993  0.0653
  158SAPE   C2117545   3.824   4.785   5.734  0.1161 -0.7987 -0.2000
  158SAPE   O2217546   3.922   4.861   5.733  0.7083  0.6468  0.5639
  158SAPE   C2217547   3.692   4.806   5.665  0.2458  0.2518 -0.0071
  158SAPE   H2R17548   3.613   4.731   5.687 -0.5897  1.5920  1.8239
  158SAPE   H2S17549   3.649   4.902   5.702 -0.5806  0.1203 -0.5927
  158SAPE    C317550   3.905   4.459   5.826  0.0461  0.0933 -0.2326
  158SAPE    HX17551   3.832   4.418   5.899 -0.7722  2.3060  0.2597
  158SAPE    HY17552   3.998   4.406   5.858  0.3253  0.7755  0.1194
  158SAPE   O3117553   3.871   4.427   5.689  0.0126 -0.4339  0.0383
  158SAPE   C3117554   3.744   4.389   5.664  1.0318  0.5346 -0.1887
  158SAPE   O3217555   3.659   4.390   5.753 -0.3712 -0.1891 -0.3229
  158SAPE   C3217556   3.726   4.326   5.512 -0.1679  0.3834  0.3756
  158SAPE   H2X17557   3.635   4.264   5.496 -0.2548  1.2021 -3.0097
  158SAPE   H2Y17558   3.817   4.268   5.490  0.5703  0.7597  2.2306
  158SAPE   C2317559   3.725   4.826   5.513  0.6968  0.2852  0.1558
  158SAPE   H3R17560   3.774   4.732   5.481 -0.9621 -1.1789  1.6665
  158SAPE   H3S17561   3.806   4.901   5.513  0.9932 -0.0103  1.3994
  158SAPE   C2417562   3.617   4.877   5.417 -0.9826  0.2294 -0.0623
  158SAPE   H4R17563   3.600   4.979   5.457  4.1555  0.2732  2.9526
  158SAPE   H4S17564   3.531   4.807   5.427 -0.2682 -0.6405  0.1995
  158SAPE   C2517565   3.667   4.870   5.274  0.1582  0.4350 -0.3629
  158SAPE   H5R17566   3.708   4.771   5.250  0.6221  0.2127  1.2572
  158SAPE   C2617567   3.674   4.967   5.181  0.4692 -0.5395  0.3429
  158SAPE   H6R17568   3.704   4.934   5.081  0.9459 -3.7532  1.4423
  158SAPE   C2717569   3.615   5.110   5.195 -0.5581 -0.0694 -0.2718
  158SAPE   H7R17570   3.546   5.112   5.282 -0.4880 -1.6929 -0.1302
  158SAPE   H7S17571   3.545   5.134   5.113 -0.3036  1.8084  0.0298
  158SAPE   C2817572   3.725   5.211   5.217 -1.0726  0.1421 -0.4472
  158SAPE   H8R17573   3.721   5.256   5.318  0.3212 -2.5509  0.9307
  158SAPE   C2917574   3.833   5.246   5.146  0.3305 -0.5912  0.6164
  158SAPE   H9R17575   3.900   5.317   5.196 -0.5753  1.0232 -0.3569
  158SAPE  C21017576   3.879   5.203   5.006  0.4806  0.4873 -0.4563
  158SAPE  H10R17577   3.901   5.299   4.954 -0.2207  0.0872 -1.5233
  158SAPE  H10S17578   3.795   5.154   4.953  2.0310 -1.5106 -1.1936
  158SAPE  C21117579   3.992   5.104   5.020 -0.1630 -0.0413  1.3688
  158SAPE  H11R17580   3.977   5.034   5.103  1.4914  0.2484  1.9378
  158SAPE  C21217581   4.102   5.106   4.938 -0.2757 -0.0860 -0.3000
  158SAPE  H12R17582   4.174   5.023   4.948 -1.0441 -0.9684 -1.6761
  158SAPE  C21317583   4.124   5.191   4.817  0.3645 -0.3592 -0.0371
  158SAPE  H13R17584   4.224   5.237   4.830  0.8114 -0.5747 -2.3427
  158SAPE  H13S17585   4.066   5.285   4.816  0.1104 -0.5121  0.1624
  158SAPE  C21417586   4.110   5.126   4.685 -0.6796 -0.5968  0.5233
  158SAPE  H14R17587   4.020   5.064   4.671 -0.7784 -0.3810  0.1805
  158SAPE  C21517588   4.197   5.131   4.580  0.5125 -0.4901  0.6850
  158SAPE  H15R17589   4.176   5.059   4.499  2.2302  0.2248 -0.4345
  158SAPE  C21617590   4.327   5.210   4.576 -0.6157  0.2841 -0.5206
  158SAPE  H16R17591   4.368   5.206   4.679  1.4128 -0.6252 -1.2970
  158SAPE  H16S17592   4.311   5.318   4.558 -0.6800  0.3203 -0.2447
  158SAPE  C21717593   4.446   5.173   4.482 -0.7523 -0.3637 -0.6026
  158SAPE  H17R17594   4.535   5.239   4.486  0.3081 -1.7916  0.7932
  158SAPE  H17S17595   4.420   5.174   4.374  0.5867  1.8935 -0.9559
  158SAPE  C21817596   4.488   5.028   4.505  1.0085  0.2101  0.3325
  158SAPE  H18R17597   4.535   4.986   4.413 -1.0372 -1.3768 -0.0491
  158SAPE  H18S17598   4.404   4.956   4.509  2.3840 -1.9779 -3.8580
  158SAPE  C21917599   4.589   5.000   4.623  0.5980  0.4721  0.2672
  158SAPE  H19R17600   4.543   5.028   4.720  0.8296  1.0407  0.2149
  158SAPE  H19S17601   4.677   5.066   4.609  1.3339 -0.9656 -2.6244
  158SAPE  C22017602   4.639   4.856   4.609  0.1870  0.2030 -0.0652
  158SAPE  H20R17603   4.566   4.798   4.550  0.5351 -0.4625  0.1446
  158SAPE  H20S17604   4.672   4.801   4.700 -1.3407  0.5461  0.7284
  158SAPE  H20T17605   4.731   4.849   4.546 -0.9880 -2.1741 -1.6487
  158SAPE   C3317606   3.716   4.441   5.407 -0.1242 -0.4004  0.0665
  158SAPE   H3X17607   3.810   4.500   5.410 -0.7930  0.7813 -0.9940
  158SAPE   H3Y17608   3.654   4.526   5.444 -0.3103 -0.5938  0.2015
  158SAPE   C3417609   3.695   4.400   5.271  0.6231  0.7414  0.3676
  158SAPE   H4X17610   3.717   4.482   5.200  2.9993 -1.5647 -1.7462
  158SAPE   H4Y17611   3.588   4.376   5.253  0.4185  1.6123  0.3455
  158SAPE   C3517612   3.782   4.285   5.214  0.0704  0.3999 -0.3928
  158SAPE   H5X17613   3.774   4.196   5.279 -0.5092 -0.2573 -1.3428
  158SAPE   H5Y17614   3.885   4.325   5.229  0.9379 -1.8489 -0.0265
  158SAPE   C3617615   3.760   4.250   5.071 -0.0232 -0.8190 -0.1856
  158SAPE   H6X17616   3.727   4.345   5.023 -1.6909 -0.5320  1.4116
  158SAPE   H6Y17617   3.675   4.180   5.063 -1.1022  0.3157  0.8385
  158SAPE   C3717618   3.880   4.195   4.995 -0.0874 -0.1295 -0.4681
  158SAPE   H7X17619   3.919   4.100   5.039 -0.3937 -1.3857 -2.7422
  158SAPE   H7Y17620   3.967   4.263   5.010 -1.5884  1.4045  1.8261
  158SAPE   C3817621   3.845   4.166   4.850 -0.0165 -0.3230 -0.6558
  158SAPE   H8X17622   3.817   4.265   4.808 -1.8387 -1.3662 -2.0635
  158SAPE   H8Y17623   3.763   4.094   4.829 -1.5126  1.5449 -1.5544
  158SAPE   C3917624   3.966   4.108   4.778  0.1638  0.1664 -0.1045
  158SAPE   H9X17625   3.977   4.002   4.810  1.0750  0.5322  0.8220
  158SAPE   H9Y17626   4.059   4.158   4.812 -0.5467  0.3048  1.7359
  158SAPE  C31017627   3.951   4.093   4.629 -0.4725 -0.2093  0.4581
  158SAPE  H10X17628   3.929   4.196   4.594  4.4172  0.4215 -1.6323
  158SAPE  H10Y17629   3.873   4.017   4.606 -1.0255  0.6663 -0.6820
  158SAPE  C31117630   4.080   4.069   4.552 -0.0062  0.1874  0.3673
  158SAPE  H11X17631   4.142   3.985   4.591  0.8814  0.1013 -1.1794
  158SAPE  H11Y17632   4.137   4.165   4.563  0.3763 -0.0490  0.4807
  158SAPE  C31217633   4.068   4.042   4.406  0.5849  0.2055 -0.7823
  158SAPE  H12X17634   4.009   4.121   4.354  2.5446  0.3386 -2.9790
  158SAPE  H12Y17635   4.026   3.940   4.398  1.3100 -0.2302  0.7046
  158SAPE  C31317636   4.198   4.049   4.334  0.3473  0.5146 -0.1442
  158SAPE  H13X17637   4.258   3.980   4.398  0.6240  0.5218 -0.3985
  158SAPE  H13Y17638   4.250   4.147   4.333  2.0689 -0.2676  2.0901
  158SAPE  C31417639   4.195   3.994   4.197 -0.5862  0.4200 -0.0630
  158SAPE  H14X17640   4.126   4.046   4.127 -0.1724 -1.0662 -1.6351
  158SAPE  H14Y17641   4.151   3.892   4.207  0.2485  0.0752  0.2202
  158SAPE  C31517642   4.336   3.985   4.132 -0.0294  0.4503  0.5991
  158SAPE  H15X17643   4.386   4.081   4.109  0.9662 -0.1418  0.1949
  158SAPE  H15Y17644   4.308   3.929   4.040  0.8937 -1.7765  1.6008
  158SAPE  C31617645   4.428   3.890   4.218  0.3568 -1.1713  0.1527
  158SAPE  H16X17646   4.364   3.804   4.246 -0.1135 -1.4254 -1.5857
  158SAPE  H16Y17647   4.473   3.941   4.306  0.7837 -4.6862  2.1876
  158SAPE  C31717648   4.536   3.828   4.129 -0.3157 -0.2075 -0.5703
  158SAPE  H17X17649   4.488   3.763   4.052 -0.9120  1.3905 -1.5990
  158SAPE  H17Y17650   4.587   3.749   4.188 -1.9472  0.0386  1.2619
  158SAPE  C31817651   4.638   3.925   4.064 -0.1496 -0.1369 -0.0289
  158SAPE  H18X17652   4.574   3.992   4.003 -0.6122 -0.1714  0.4167
  158SAPE  H18Y17653   4.699   3.868   3.990  2.7102  1.3053  1.0740
  158SAPE  H18Z17654   4.708   3.981   4.130  1.7605 -0.6113 -1.5562
  159SAPE     N17655   0.338   3.003   1.916 -0.3386 -0.1724 -0.4584
  159SAPE   HN117656   0.439   2.980   1.908 -0.6547 -1.1667 -1.9223
  159SAPE   HN217657   0.297   3.008   1.820 -0.0649 -1.2980 -0.6477
  159SAPE   HN317658   0.337   3.098   1.958  2.6317 -0.0615 -0.4431
  159SAPE   C1217659   0.288   2.885   2.001 -0.3711  0.3823  0.4545
  159SAPE  H12A17660   0.183   2.869   1.970  0.1769  0.3093 -1.5003
  159SAPE  H12B17661   0.296   2.924   2.105  1.5197 -0.8459  0.8234
  159SAPE   C1117662   0.377   2.760   1.982  0.2131 -0.6962  0.2598
  159SAPE  H11A17663   0.328   2.710   1.895 -0.8928 -0.4208  0.7060
  159SAPE  H11B17664   0.372   2.697   2.074 -0.8305 -2.2502 -0.8036
  159SAPE     P17665   0.597   2.733   1.848  0.3377  0.2248  1.0016
  159SAPE   O1317666   0.553   2.781   1.710  0.6330  0.3167  0.3096
  159SAPE   O1417667   0.741   2.760   1.872 -0.0348  0.0125  0.5099
  159SAPE   O1217668   0.510   2.802   1.959 -0.1516  0.2154  0.4777
  159SAPE   O1117669   0.560   2.577   1.863 -0.2752 -0.2283  0.0342
  159SAPE    C117670   0.662   2.483   1.885 -0.0585  0.3123  0.7186
  159SAPE    HA17671   0.623   2.387   1.847  0.0326  0.0939  1.1802
  159SAPE    HB17672   0.761   2.488   1.835 -0.7191 -1.7616 -0.9191
  159SAPE    C217673   0.671   2.446   2.034 -1.0238  0.3527 -0.9954
  159SAPE    HS17674   0.739   2.358   2.034 -1.3670  0.0834 -1.1718
  159SAPE   O2117675   0.531   2.421   2.077  0.1582 -0.0014 -0.5145
  159SAPE   C2117676   0.529   2.304   2.146  0.1184 -0.1795 -0.3330
  159SAPE   O2217677   0.622   2.229   2.155  0.1773 -0.0726 -0.5744
  159SAPE   C2217678   0.391   2.293   2.205  0.3431 -0.1638 -0.0954
  159SAPE   H2R17679   0.360   2.395   2.237 -0.5115 -1.2296  2.9152
  159SAPE   H2S17680   0.337   2.258   2.115  0.9809  0.3589 -0.6826
  159SAPE    C317681   0.736   2.551   2.135  0.9397  0.2683 -0.6482
  159SAPE    HX17682   0.681   2.648   2.130  3.1322  1.5854 -0.6656
  159SAPE    HY17683   0.839   2.580   2.107  1.5185 -0.2813  0.8147
  159SAPE   O3117684   0.722   2.503   2.272 -0.4571  0.5701 -0.4651
  159SAPE   C3117685   0.825   2.433   2.318  0.5795 -0.1637  0.2411
  159SAPE   O3217686   0.923   2.400   2.253 -0.3532  0.3510 -0.2904
  159SAPE   C3217687   0.803   2.393   2.464  1.5180  0.0037  0.2283
  159SAPE   H2X17688   0.798   2.482   2.530 -1.8090 -0.7017  1.1593
  159SAPE   H2Y17689   0.887   2.328   2.497  0.7247 -0.8824  0.5573
  159SAPE   C2317690   0.372   2.199   2.325  0.1441 -0.0665  0.0862
  159SAPE   H3R17691   0.438   2.218   2.412 -0.4490  0.1154  0.5049
  159SAPE   H3S17692   0.389   2.093   2.297 -1.7068 -0.5560  0.6506
  159SAPE   C2417693   0.231   2.205   2.383 -0.1783  0.0943 -0.0193
  159SAPE   H4R17694   0.222   2.126   2.461  0.7821 -1.3340 -1.3035
  159SAPE   H4S17695   0.155   2.184   2.305  0.8695  0.2774 -1.1080
  159SAPE   C2517696   0.214   2.332   2.454 -0.9154  0.6271 -0.0840
  159SAPE   H5R17697   0.228   2.423   2.393  1.0643  0.3375 -0.1163
  159SAPE   C2617698   0.174   2.350   2.583  0.6954  0.2406  0.0705
  159SAPE   H6R17699   0.163   2.454   2.616  0.9309  0.6021 -0.9531
  159SAPE   C2717700   0.120   2.247   2.677  0.3205 -0.1346  0.4010
  159SAPE   H7R17701   0.125   2.285   2.781 -1.3397  1.2473  0.0108
  159SAPE   H7S17702   0.190   2.160   2.677  0.4867 -0.0317 -1.0062
  159SAPE   C2817703  -0.012   2.191   2.642  0.8540  0.4890 -0.5909
  159SAPE   H8R17704  -0.072   2.223   2.556  2.3891  0.9248 -1.5491
  159SAPE   C2917705  -0.080   2.115   2.736 -0.0376 -0.3099  0.3356
  159SAPE   H9R17706  -0.174   2.073   2.697 -0.6734 -0.1922  1.7083
  159SAPE  C21017707  -0.026   2.069   2.862 -0.1712 -0.0820 -0.5987
  159SAPE  H10R17708  -0.085   2.126   2.937 -0.0621 -1.1621  0.3310
  159SAPE  H10S17709   0.085   2.081   2.865 -0.1722 -0.2064  1.4192
  159SAPE  C21117710  -0.056   1.929   2.890  0.3338 -0.1318  0.2037
  159SAPE  H11R17711  -0.121   1.871   2.822 -0.6207 -0.4999  1.3938
  159SAPE  C21217712  -0.029   1.882   3.009 -0.7497  0.0399  0.2356
  159SAPE  H12R17713  -0.054   1.782   3.048 -0.1521  0.0147  0.5613
  159SAPE  C21317714   0.035   1.966   3.118 -0.3660 -0.1001  0.6196
  159SAPE  H13R17715   0.032   1.902   3.208  1.6366  0.2798  0.9953
  159SAPE  H13S17716  -0.030   2.052   3.145  2.5503  2.7552 -0.6790
  159SAPE  C21417717   0.181   2.005   3.098  0.1029  0.3545 -0.3162
  159SAPE  H14R17718   0.233   1.954   3.016  0.5621 -1.9244  1.2594
  159SAPE  C21517719   0.254   2.066   3.191  0.1106  1.1234 -0.1120
  159SAPE  H15R17720   0.363   2.076   3.179  0.0968 -0.5364 -2.5575
  159SAPE  C21617721   0.209   2.116   3.326 -0.2879 -0.2750 -0.0202
  159SAPE  H16R17722   0.099   2.115   3.347 -0.7146  1.8797 -1.6920
  159SAPE  H16S17723   0.234   2.224   3.329 -1.4812  0.1114 -1.8105
  159SAPE  C21717724   0.277   2.041   3.445  0.3431  0.9067 -0.7035
  159SAPE  H17R17725   0.387   2.054   3.441  0.2432  1.7473 -4.6522
  159SAPE  H17S17726   0.257   1.933   3.431  4.4292  0.0250 -1.0691
  159SAPE  C21817727   0.222   2.092   3.582  1.1133  0.2534  0.0859
  159SAPE  H18R17728   0.120   2.051   3.562  1.3207 -0.5640  0.6822
  159SAPE  H18S17729   0.225   2.203   3.587 -1.6754  0.3771  0.7154
  159SAPE  C21917730   0.288   2.021   3.703  0.3112 -0.9508 -0.4891
  159SAPE  H19R17731   0.237   2.070   3.789 -0.4915  0.6532 -1.8137
  159SAPE  H19S17732   0.394   2.054   3.707 -0.6136  2.2943 -0.1125
  159SAPE  C22017733   0.269   1.865   3.702  0.2372  0.0838  0.6609
  159SAPE  H20R17734   0.163   1.835   3.695 -0.4243  2.4419 -0.3273
  159SAPE  H20S17735   0.317   1.816   3.789 -1.2951 -0.5874  1.1630
  159SAPE  H20T17736   0.313   1.824   3.608  2.8422  0.6726  1.5380
  159SAPE   C3317737   0.671   2.327   2.486  0.4671 -0.7062  0.1243
  159SAPE   H3X17738   0.660   2.240   2.418  0.0272 -0.5382 -0.0172
  159SAPE   H3Y17739   0.586   2.393   2.462  0.3876 -0.0419  2.0453
  159SAPE   C3417740   0.649   2.265   2.628 -0.5589 -0.2996 -0.1634
  159SAPE   H4X17741   0.737   2.207   2.664  1.2109  2.8647  0.9793
  159SAPE   H4Y17742   0.561   2.197   2.628  0.7683 -2.0862 -0.2436
  159SAPE   C3517743   0.626   2.370   2.741 -0.2799 -0.2213 -0.2091
  159SAPE   H5X17744   0.534   2.427   2.717 -1.0766 -1.1220  0.6033
  159SAPE   H5Y17745   0.714   2.438   2.739  0.3421 -0.7306  3.2636
  159SAPE   C3617746   0.622   2.310   2.879  0.0526  0.2780 -0.5158
  159SAPE   H6X17747   0.715   2.258   2.908 -1.4835 -2.4647 -0.1207
  159SAPE   H6Y17748   0.543   2.231   2.882 -0.1023  0.4545  0.8184
  159SAPE   C3717749   0.576   2.405   2.991 -0.0855  0.0936 -0.3266
  159SAPE   H7X17750   0.470   2.434   2.973  0.2645  1.1765 -0.7377
  159SAPE   H7Y17751   0.640   2.496   2.978  1.5276 -0.9328  0.1501
  159SAPE   C3817752   0.597   2.348   3.127 -0.1566 -0.1312 -0.0840
  159SAPE   H8X17753   0.703   2.321   3.142  0.2081  0.2420 -1.7880
  159SAPE   H8Y17754   0.540   2.253   3.138  0.6909 -0.8525 -1.7075
  159SAPE   C3917755   0.555   2.444   3.241  0.0320 -0.7990  0.1402
  159SAPE   H9X17756   0.454   2.471   3.203  0.3606 -0.7297 -0.7058
  159SAPE   H9Y17757   0.615   2.536   3.224 -1.4678  0.2703  0.4492
  159SAPE  C31017758   0.554   2.389   3.385 -0.9404 -0.2512  0.3321
  159SAPE  H10X17759   0.662   2.365   3.398 -0.1914  1.0071 -2.6269
  159SAPE  H10Y17760   0.505   2.289   3.390 -2.4651  0.3688 -1.0419
  159SAPE  C31117761   0.506   2.488   3.487 -0.1319  0.1880 -0.5921
  159SAPE  H11X17762   0.423   2.535   3.431  0.0431 -0.8197 -1.7509
  159SAPE  H11Y17763   0.591   2.555   3.511  1.2193 -1.6502  0.0057
  159SAPE  C31217764   0.444   2.422   3.615  0.7165  0.6595  0.1603
  159SAPE  H12X17765   0.387   2.336   3.575  0.7168  0.8348 -0.2237
  159SAPE  H12Y17766   0.372   2.500   3.649  0.2536  0.1568  0.3308
  159SAPE  C31317767   0.551   2.373   3.708 -0.5102  0.5683  0.5389
  159SAPE  H13X17768   0.619   2.456   3.734  0.8398 -0.3920  0.1810
  159SAPE  H13Y17769   0.611   2.301   3.648 -0.2465  2.9878 -2.3216
  159SAPE  C31417770   0.497   2.308   3.830 -0.2616 -0.4593 -0.6258
  159SAPE  H14X17771   0.400   2.261   3.809  0.1913 -1.2384 -0.9964
  159SAPE  H14Y17772   0.483   2.379   3.915  1.0605 -1.4320  0.4556
  159SAPE  C31517773   0.603   2.211   3.881  0.2392 -0.0989  0.1404
  159SAPE  H15X17774   0.698   2.258   3.915  0.0069 -0.6243  1.5753
  159SAPE  H15Y17775   0.630   2.135   3.804  0.3557  0.5681 -0.4942
  159SAPE  C31617776   0.552   2.113   3.994 -0.7955  0.1790  0.1475
  159SAPE  H16X17777   0.457   2.066   3.961 -1.0112  0.8363 -0.1825
  159SAPE  H16Y17778   0.530   2.184   4.076 -3.1912 -1.1145  0.7119
  159SAPE  C31717779   0.660   2.012   4.040 -0.3490  0.2373 -0.4955
  159SAPE  H17X17780   0.751   2.062   4.077 -0.0928 -0.1783 -0.5608
  159SAPE  H17Y17781   0.686   1.942   3.958 -3.5151  2.3944 -3.6257
  159SAPE  C31817782   0.609   1.930   4.158 -1.0750  0.0727 -0.5023
  159SAPE  H18X17783   0.597   2.008   4.235 -0.8223 -0.7906  0.4332
  159SAPE  H18Y17784   0.679   1.851   4.192  0.6202  0.9396 -1.8286
  159SAPE  H18Z17785   0.508   1.889   4.136 -0.3471 -1.2644 -1.5053
  160SAPE     N17786   5.662   2.241   2.030  0.1636 -0.1180  0.0715
  160SAPE   HN117787   5.645   2.214   2.129 -1.4169 -2.3962 -0.7371
  160SAPE   HN217788   5.732   2.175   1.990  0.9598 -0.7118  2.2801
  160SAPE   HN317789   5.703   2.337   2.018  0.4821 -0.3080 -0.4188
  160SAPE   C1217790   5.530   2.218   1.961 -0.2393  0.6671  0.1268
  160SAPE  H12A17791   5.535   2.258   1.858 -1.8539  0.0441 -0.2223
  160SAPE  H12B17792   5.451   2.267   2.022 -1.1153  0.2510 -0.6418
  160SAPE   C1117793   5.493   2.065   1.951 -0.0511  0.7075  0.3383
  160SAPE  H11A17794   5.569   2.014   1.889 -1.9481 -0.5290 -1.1008
  160SAPE  H11B17795   5.396   2.053   1.898  0.1400  0.5925  0.0167
  160SAPE     P17796   5.429   1.870   2.121  0.1813  0.4028 -0.2732
  160SAPE   O1317797   5.294   1.861   2.063 -0.1089  0.1127 -0.6845
  160SAPE   O1417798   5.511   1.755   2.081  0.2323 -0.2078  0.2625
  160SAPE   O1217799   5.493   2.010   2.078  0.0142 -0.5396  0.8383
  160SAPE   O1117800   5.426   1.882   2.282 -0.4660 -0.0310 -0.4766
  160SAPE    C117801   5.553   1.847   2.348  0.1104  0.4206 -0.2298
  160SAPE    HA17802   5.648   1.882   2.302 -0.7687  1.8867 -0.9596
  160SAPE    HB17803   5.562   1.895   2.448 -0.2030  0.9828 -0.4674
  160SAPE    C217804   5.574   1.690   2.384 -0.2591  0.7084  0.2601
  160SAPE    HS17805   5.614   1.640   2.294 -1.8050  1.2634 -0.7682
  160SAPE   O2117806   5.448   1.632   2.425  0.0602 -0.3366  0.8844
  160SAPE   C2117807   5.458   1.506   2.462  0.1472  0.2357 -0.3400
  160SAPE   O2217808   5.555   1.434   2.468  0.4360 -0.4118 -0.5878
  160SAPE   C2217809   5.310   1.458   2.484 -0.1233  0.4857  0.2651
  160SAPE   H2R17810   5.249   1.532   2.428 -0.7610  0.6734  1.1893
  160SAPE   H2S17811   5.297   1.363   2.428  0.6132  2.3091 -3.3014
  160SAPE    C317812   5.683   1.693   2.497 -0.0447  0.0459  0.0010
  160SAPE    HX17813   5.767   1.748   2.451  0.1370 -0.4892 -0.3224
  160SAPE    HY17814   5.726   1.592   2.514  1.7407  0.4495 -1.7804
  160SAPE   O3117815   5.648   1.749   2.625  0.0124  0.2729  0.5696
  160SAPE   C3117816   5.740   1.734   2.717  0.5172 -0.2467 -0.0864
  160SAPE   O3217817   5.841   1.664   2.698  0.3751  0.5468 -0.1785
  160SAPE   C3217818   5.698   1.808   2.840 -0.5656  0.1234  0.3958
  160SAPE   H2X17819   5.594   1.780   2.866 -0.7600 -0.1300 -0.6465
  160SAPE   H2Y17820   5.707   1.918   2.824  1.3088 -0.2631 -1.6818
  160SAPE   C2317821   5.271   1.473   2.630 -0.1807  0.1826  0.3772
  160SAPE   H3R17822   5.164   1.501   2.643 -0.2284 -0.3158  1.1040
  160SAPE   H3S17823   5.320   1.563   2.673 -0.1157  0.3919 -0.1247
  160SAPE   C2417824   5.294   1.348   2.713 -0.0904  0.0735  0.3942
  160SAPE   H4R17825   5.270   1.257   2.655  1.7810  0.7972 -1.6814
  160SAPE   H4S17826   5.228   1.347   2.802 -0.2532 -1.5969  0.2842
  160SAPE   C2517827   5.439   1.327   2.747  0.0165  0.2676  0.1972
  160SAPE   H5R17828   5.498   1.297   2.659  0.4697  0.7497  0.3312
  160SAPE   C2617829   5.504   1.327   2.868 -0.0021 -0.4810 -1.1084
  160SAPE   H6R17830   5.611   1.306   2.867  0.4901  1.6351  0.2659
  160SAPE   C2717831   5.443   1.361   3.002  0.0196 -0.0936 -0.3788
  160SAPE   H7R17832   5.501   1.321   3.087 -2.4635 -1.0561  0.9708
  160SAPE   H7S17833   5.345   1.310   3.008 -0.9216  1.8125  1.3390
  160SAPE   C2817834   5.414   1.512   3.010  0.1126 -0.4167 -0.3530
  160SAPE   H8R17835   5.352   1.560   2.933 -0.0490  0.2561  0.1834
  160SAPE   C2917836   5.445   1.590   3.120  0.7153  0.5579 -0.3548
  160SAPE   H9R17837   5.413   1.696   3.120  1.7889  0.9127  0.8048
  160SAPE  C21017838   5.526   1.569   3.245  0.7076 -0.2592 -0.2094
  160SAPE  H10R17839   5.608   1.644   3.251  0.5965 -0.2570  1.7085
  160SAPE  H10S17840   5.580   1.473   3.232  0.7024 -0.0900 -1.7767
  160SAPE  C21117841   5.459   1.583   3.380  0.2779 -0.0814  0.3440
  160SAPE  H11R17842   5.491   1.668   3.442  1.0457 -0.5325  0.5737
  160SAPE  C21217843   5.391   1.484   3.440  0.1034  0.2898  0.4130
  160SAPE  H12R17844   5.352   1.505   3.540  2.3464  1.5645  1.1045
  160SAPE  C21317845   5.361   1.353   3.381  0.0654  0.1950 -0.6505
  160SAPE  H13R17846   5.436   1.285   3.427 -0.3621 -2.0173 -2.9546
  160SAPE  H13S17847   5.377   1.350   3.271  1.8495  2.5089 -0.5190
  160SAPE  C21417848   5.231   1.285   3.413 -0.1130  0.4612 -0.0225
  160SAPE  H14R17849   5.154   1.339   3.470 -0.2345 -0.0443  0.3011
  160SAPE  C21517850   5.191   1.164   3.372 -0.4455 -0.3010 -0.2786
  160SAPE  H15R17851   5.094   1.127   3.408 -0.0159 -1.2198 -0.0568
  160SAPE  C21617852   5.263   1.069   3.286 -0.6966  0.3758  0.3798
  160SAPE  H16R17853   5.276   0.971   3.338 -0.5153 -2.2145 -4.0051
  160SAPE  H16S17854   5.365   1.107   3.263  0.5587 -2.2213  1.2035
  160SAPE  C21717855   5.198   1.054   3.145  0.0377  0.1375 -0.6330
  160SAPE  H17R17856   5.200   1.151   3.091  0.3245  0.3015 -0.3308
  160SAPE  H17S17857   5.091   1.028   3.163  0.2535 -0.9528 -0.8816
  160SAPE  C21817858   5.278   0.947   3.069  0.5459 -0.3757  0.6866
  160SAPE  H18R17859   5.240   0.843   3.080 -0.5553 -0.2497 -1.3752
  160SAPE  H18S17860   5.386   0.936   3.089  1.1764 -0.0282 -2.1182
  160SAPE  C21917861   5.265   0.972   2.912 -0.1472  0.1886 -0.2114
  160SAPE  H19R17862   5.301   1.075   2.889 -1.0527  0.9127  1.4168
  160SAPE  H19S17863   5.156   0.970   2.892 -0.3819 -0.1042  0.9698
  160SAPE  C22017864   5.356   0.873   2.832 -0.5031  1.0732  0.0915
  160SAPE  H20R17865   5.465   0.895   2.832 -0.5800  1.6623 -1.9017
  160SAPE  H20S17866   5.315   0.870   2.729 -2.7189  0.3995  0.9176
  160SAPE  H20T17867   5.347   0.768   2.867 -0.4687  0.3616 -1.8977
  160SAPE   C3317868   5.798   1.774   2.959  0.2231  0.3487 -0.3176
  160SAPE   H3X17869   5.907   1.788   2.944  0.4939 -0.6242  0.6413
  160SAPE   H3Y17870   5.775   1.671   2.994  0.7264 -0.3144 -1.8494
  160SAPE   C3417871   5.757   1.878   3.065 -0.0420 -0.3410  0.2180
  160SAPE   H4X17872   5.646   1.871   3.069  0.0088 -1.4462  0.0348
  160SAPE   H4Y17873   5.785   1.981   3.033 -0.5684 -0.7417 -1.7044
  160SAPE   C3517874   5.814   1.837   3.203 -0.4143  0.2686  0.0351
  160SAPE   H5X17875   5.922   1.862   3.207 -0.3953  0.3072 -0.6351
  160SAPE   H5Y17876   5.807   1.726   3.204  0.0137  0.1699 -2.3073
  160SAPE   C3617877   5.758   1.904   3.329  0.2164  0.1648  0.0655
  160SAPE   H6X17878   5.659   1.857   3.343  0.1171 -0.1913 -1.6951
  160SAPE   H6Y17879   5.730   2.005   3.294  3.0034  1.1469  0.3849
  160SAPE   C3717880   5.843   1.911   3.461  0.3108  0.4164  0.0437
  160SAPE   H7X17881   5.794   1.959   3.548  0.0446 -0.8065  0.5853
  160SAPE   H7Y17882   5.936   1.970   3.446  0.3160  0.6966  1.0925
  160SAPE   C3817883   5.888   1.771   3.510  0.3418 -1.0406  0.4078
  160SAPE   H8X17884   5.970   1.731   3.448  0.8492 -0.9969  1.0407
  160SAPE   H8Y17885   5.797   1.707   3.502 -3.0636  3.4934 -1.5512
  160SAPE   C3917886   5.944   1.766   3.655  0.4343 -0.5945 -0.1053
  160SAPE   H9X17887   5.955   1.658   3.678  1.8555 -0.2756  0.8387
  160SAPE   H9Y17888   5.871   1.800   3.731 -0.9857  1.0325 -2.0792
  160SAPE  C31017889   6.086   1.816   3.670 -0.8749  0.8756  0.6040
  160SAPE  H10X17890   6.101   1.908   3.609  2.2888  0.2733  0.3038
  160SAPE  H10Y17891   6.144   1.731   3.628 -0.4520  0.0528  2.7467
  160SAPE  C31117892   6.124   1.839   3.816 -0.9218 -0.1869 -0.0185
  160SAPE  H11X17893   6.047   1.901   3.866  0.0966  0.8591  0.2976
  160SAPE  H11Y17894   6.216   1.901   3.826 -0.2861 -1.1227  0.1142
  160SAPE  C31217895   6.145   1.710   3.896  0.0297  0.5880  0.4748
  160SAPE  H12X17896   6.233   1.652   3.859 -0.1611  0.6903 -0.1469
  160SAPE  H12Y17897   6.057   1.643   3.891 -1.5419  2.4583  1.6631
  160SAPE  C31317898   6.174   1.744   4.040  0.8713 -0.4688 -1.1372
  160SAPE  H13X17899   6.140   1.662   4.107  2.8904  0.6104  1.3730
  160SAPE  H13Y17900   6.125   1.840   4.068  1.1677  0.3185 -3.1307
  160SAPE  C31417901   6.333   1.744   4.061  0.2892 -0.2032 -0.2192
  160SAPE  H14X17902   6.382   1.826   4.004  0.0374  1.0441  1.2654
  160SAPE  H14Y17903   6.380   1.647   4.035 -0.0593  0.1364 -2.2668
  160SAPE  C31517904   6.347   1.768   4.213 -0.1117 -0.6335  0.2970
  160SAPE  H15X17905   6.317   1.680   4.274  0.8777  0.0598  1.8347
  160SAPE  H15Y17906   6.285   1.854   4.247 -1.8115 -0.4318 -2.9212
  160SAPE  C31617907   6.491   1.799   4.250 -0.0300 -0.0385  0.1771
  160SAPE  H16X17908   6.507   1.908   4.234  0.4071 -0.2419 -0.8497
  160SAPE  H16Y17909   6.557   1.740   4.183 -0.9874 -0.7781 -0.1389
  160SAPE  C31717910   6.516   1.770   4.398 -0.4615 -0.4020  0.1899
  160SAPE  H17X17911   6.624   1.744   4.407 -0.4044 -0.3806 -0.3926
  160SAPE  H17Y17912   6.469   1.674   4.428 -2.3910  0.2822 -0.4883
  160SAPE  C31817913   6.491   1.886   4.500 -0.3746 -0.4982 -0.1977
  160SAPE  H18X17914   6.550   1.865   4.592 -2.1567  0.5569  1.2667
  160SAPE  H18Y17915   6.381   1.889   4.517 -0.6667  3.1577 -1.7131
  160SAPE  H18Z17916   6.518   1.989   4.469  1.4725 -0.7836  0.3334
  161SAPE     N17917   4.832   4.340   2.024  0.2756  0.1719 -0.0778
  161SAPE   HN117918   4.922   4.298   2.056 -1.4335 -3.3663  0.5341
  161SAPE   HN217919   4.788   4.281   1.951 -0.3272 -0.9701  1.1760
  161SAPE   HN317920   4.848   4.433   1.980 -0.2557 -0.2037 -1.1020
  161SAPE   C1217921   4.737   4.333   2.145 -0.8469  0.3571  0.4677
  161SAPE  H12A17922   4.739   4.228   2.182  0.6193  0.4698  0.7729
  161SAPE  H12B17923   4.634   4.358   2.110 -1.0626 -1.6768 -0.4469
  161SAPE   C1117924   4.797   4.427   2.256 -0.1834 -0.1806  0.1195
  161SAPE  H11A17925   4.901   4.393   2.273 -0.1832 -0.3333 -0.2012
  161SAPE  H11B17926   4.738   4.421   2.350  1.5262 -1.5381  1.1746
  161SAPE     P17927   4.667   4.648   2.188  0.1558 -0.1537  0.4083
  161SAPE   O1317928   4.708   4.785   2.149  0.3415  0.3114  0.4151
  161SAPE   O1417929   4.587   4.572   2.084 -0.3471  0.0664  1.2412
  161SAPE   O1217930   4.799   4.565   2.204 -0.0063  0.1106 -0.6473
  161SAPE   O1117931   4.590   4.640   2.324 -0.2975 -0.3390 -0.1721
  161SAPE    C117932   4.651   4.662   2.455  0.2520  0.0478  0.1383
  161SAPE    HA17933   4.583   4.613   2.529  0.6714  0.0890  0.5574
  161SAPE    HB17934   4.751   4.615   2.453  0.6070  0.7342 -2.8853
  161SAPE    C217935   4.670   4.812   2.492  0.1431 -0.7401  0.3336
  161SAPE    HS17936   4.746   4.858   2.425 -0.1942 -1.6126 -0.6683
  161SAPE   O2117937   4.702   4.833   2.628 -0.2415  0.0651  0.2224
  161SAPE   C2117938   4.830   4.808   2.660 -0.1613 -0.0538  0.9355
  161SAPE   O2217939   4.919   4.784   2.581 -0.0593 -0.8131  0.5604
  161SAPE   C2217940   4.845   4.823   2.814  0.0018 -0.1404 -0.3451
  161SAPE   H2R17941   4.909   4.745   2.860 -1.6748 -1.3952 -0.0499
  161SAPE   H2S17942   4.895   4.921   2.826 -0.1363 -0.3071  2.2231
  161SAPE    C317943   4.531   4.889   2.466  0.2879 -0.3362  0.0520
  161SAPE    HX17944   4.440   4.832   2.496 -0.4841  0.2257 -1.1558
  161SAPE    HY17945   4.530   4.894   2.356 -0.0239  0.7137  0.0957
  161SAPE   O3117946   4.527   5.021   2.520 -0.2489  0.5222 -0.1617
  161SAPE   C3117947   4.468   5.113   2.449  0.2673  0.1185  0.2827
  161SAPE   O3217948   4.398   5.084   2.349  0.0329 -0.0852 -0.1243
  161SAPE   C3217949   4.487   5.244   2.526  1.0101  0.8314  0.4016
  161SAPE   H2X17950   4.529   5.306   2.444  0.6125 -0.0095 -0.4476
  161SAPE   H2Y17951   4.566   5.225   2.602  1.1975  0.5990  0.1501
  161SAPE   C2317952   4.706   4.817   2.885  0.5112  0.4606 -0.0350
  161SAPE   H3R17953   4.609   4.849   2.841  1.1213  1.2943 -0.8249
  161SAPE   H3S17954   4.717   4.879   2.976 -0.1489  0.1435  0.2681
  161SAPE   C2417955   4.676   4.678   2.958  0.4911  0.2237  0.0920
  161SAPE   H4R17956   4.593   4.682   3.032  1.1447  0.5245  0.8243
  161SAPE   H4S17957   4.764   4.659   3.022  1.9172  2.0584 -1.2063
  161SAPE   C2517958   4.658   4.568   2.860 -0.0749 -0.5151 -0.5412
  161SAPE   H5R17959   4.749   4.544   2.803 -1.6180  1.1257 -4.0231
  161SAPE   C2617960   4.556   4.483   2.835 -0.9371 -0.0377 -0.7940
  161SAPE   H6R17961   4.565   4.408   2.756 -2.3236 -2.1058  0.8964
  161SAPE   C2717962   4.421   4.478   2.898 -0.2311  0.1774 -0.1877
  161SAPE   H7R17963   4.351   4.488   2.812 -0.1542 -1.0006 -0.3993
  161SAPE   H7S17964   4.408   4.566   2.965 -2.4123 -0.4163  0.2344
  161SAPE   C2817965   4.381   4.351   2.960 -1.1083 -0.6665  0.8909
  161SAPE   H8R17966   4.361   4.274   2.884  2.6888 -1.6592  0.6777
  161SAPE   C2917967   4.386   4.330   3.090  0.4463  0.5304 -0.5568
  161SAPE   H9R17968   4.366   4.226   3.122 -0.2853 -0.0203 -2.6162
  161SAPE  C21017969   4.419   4.421   3.212  0.3244 -0.3444 -0.1132
  161SAPE  H10R17970   4.344   4.409   3.292  0.3493 -0.3820 -0.0954
  161SAPE  H10S17971   4.401   4.528   3.189  0.0864 -0.0060  1.5423
  161SAPE  C21117972   4.564   4.408   3.256 -0.6426 -0.2905 -0.7485
  161SAPE  H11R17973   4.641   4.427   3.180  0.6016  1.5478  0.8617
  161SAPE  C21217974   4.608   4.389   3.383 -0.5444 -0.0326  0.5456
  161SAPE  H12R17975   4.717   4.388   3.403 -0.7628 -0.0165  1.7942
  161SAPE  C21317976   4.521   4.371   3.502  0.3848 -0.8430 -0.1953
  161SAPE  H13R17977   4.421   4.324   3.489 -0.8242  1.2192  0.9663
  161SAPE  H13S17978   4.510   4.470   3.551 -2.8030 -1.0815 -0.2097
  161SAPE  C21417979   4.594   4.278   3.597  0.2989  0.4520  0.1813
  161SAPE  H14R17980   4.643   4.188   3.558 -1.9656 -0.8254  0.1179
  161SAPE  C21517981   4.608   4.294   3.730  0.2391 -0.4310  0.8764
  161SAPE  H15R17982   4.672   4.216   3.772 -0.5567 -1.5657  0.0294
  161SAPE  C21617983   4.554   4.405   3.816 -0.4146  0.6497  0.1499
  161SAPE  H16R17984   4.489   4.473   3.757  0.6836  2.2441  0.6951
  161SAPE  H16S17985   4.641   4.458   3.860  0.7160 -1.0248  0.0462
  161SAPE  C21717986   4.474   4.361   3.934  0.1555  0.0650 -0.8891
  161SAPE  H17R17987   4.462   4.455   3.992 -2.9522 -0.8546  0.1449
  161SAPE  H17S17988   4.530   4.289   3.998  1.5527  2.0086  0.1712
  161SAPE  C21817989   4.337   4.302   3.894 -0.5205  0.4412  0.5600
  161SAPE  H18R17990   4.354   4.200   3.852  0.4793  0.5713  0.6369
  161SAPE  H18S17991   4.297   4.357   3.806  0.2606 -1.9624 -1.4452
  161SAPE  C21917992   4.236   4.300   4.004  1.0155  0.0892 -0.5863
  161SAPE  H19R17993   4.223   4.396   4.058  0.4453 -1.1911  1.6918
  161SAPE  H19S17994   4.265   4.232   4.086  0.1548  2.2892  1.6622
  161SAPE  C22017995   4.094   4.258   3.951 -0.3160 -0.3313  0.3920
  161SAPE  H20R17996   4.087   4.155   3.910 -0.8319 -0.6354  1.2211
  161SAPE  H20S17997   4.063   4.337   3.879  1.7763  0.6954  0.5300
  161SAPE  H20T17998   4.025   4.269   4.038 -1.6675 -0.7549 -0.6054
  161SAPE   C3317999   4.352   5.305   2.575 -0.3949  0.1130  0.3680
  161SAPE   H3X18000   4.274   5.289   2.498 -0.6599  0.4237  0.5672
  161SAPE   H3Y18001   4.343   5.415   2.586 -1.4596  0.1449 -0.6586
  161SAPE   C3418002   4.296   5.241   2.704 -0.3815 -0.0386  0.4418
  161SAPE   H4X18003   4.372   5.236   2.785 -1.1328 -1.2911  1.1068
  161SAPE   H4Y18004   4.259   5.138   2.689  0.4597 -0.3182  0.2145
  161SAPE   C3518005   4.178   5.334   2.749  0.3986 -0.0043  1.1963
  161SAPE   H5X18006   4.102   5.352   2.671  1.4516 -2.7002 -0.6030
  161SAPE   H5Y18007   4.228   5.429   2.777  1.1124  1.3950 -3.8303
  161SAPE   C3618008   4.103   5.274   2.869  0.2087  0.8222  0.1881
  161SAPE   H6X18009   4.172   5.249   2.953  2.4281  1.5855 -1.3191
  161SAPE   H6Y18010   4.070   5.173   2.837  1.1284  1.1371 -1.9338
  161SAPE   C3718011   3.993   5.371   2.925  0.1564  0.5804  0.5759
  161SAPE   H7X18012   3.925   5.413   2.848 -0.7451  0.8899  1.5235
  161SAPE   H7Y18013   4.044   5.455   2.978  3.7981 -0.4902 -0.9015
  161SAPE   C3818014   3.901   5.291   3.021 -0.3690  0.7522 -0.1963
  161SAPE   H8X18015   3.956   5.269   3.115 -0.4060 -1.4562 -0.6390
  161SAPE   H8Y18016   3.883   5.195   2.969  2.4531  0.9619 -1.7338
  161SAPE   C3918017   3.770   5.357   3.050 -0.0193 -0.4270 -0.1766
  161SAPE   H9X18018   3.708   5.299   3.122 -1.3793  0.7128 -0.3727
  161SAPE   H9Y18019   3.702   5.351   2.962  0.7267 -3.4301 -0.6388
  161SAPE  C31018020   3.786   5.506   3.097  0.4115  0.1595  0.7092
  161SAPE  H10X18021   3.856   5.552   3.024  0.3988 -2.3714 -1.0501
  161SAPE  H10Y18022   3.826   5.493   3.200  0.1373 -1.4987  0.6416
  161SAPE  C31118023   3.657   5.575   3.123  0.8702  0.5743  0.5810
  161SAPE  H11X18024   3.621   5.604   3.022 -1.6211  0.4580  1.3549
  161SAPE  H11Y18025   3.673   5.671   3.176  1.6760  0.6137  0.2744
  161SAPE  C31218026   3.553   5.493   3.204  0.0274 -0.6450 -0.0483
  161SAPE  H12X18027   3.507   5.419   3.135 -1.4036  0.1562  0.0104
  161SAPE  H12Y18028   3.473   5.564   3.234  1.3169  0.4139  1.0426
  161SAPE  C31318029   3.616   5.437   3.339  0.5702  0.3496  0.3869
  161SAPE  H13X18030   3.674   5.512   3.395  0.2780 -0.4679  1.8229
  161SAPE  H13Y18031   3.693   5.357   3.329  1.1408  0.7580  1.3884
  161SAPE  C31418032   3.500   5.374   3.425  0.8306  0.5274  0.8530
  161SAPE  H14X18033   3.462   5.281   3.376 -1.0708  1.4735  0.4177
  161SAPE  H14Y18034   3.427   5.457   3.433  0.7283  0.7839 -1.7505
  161SAPE  C31518035   3.554   5.332   3.564  0.4803  0.3825  0.8523
  161SAPE  H15X18036   3.647   5.272   3.560 -0.2078 -0.6418 -2.3976
  161SAPE  H15Y18037   3.473   5.269   3.608 -0.9075  1.7146  0.2905
  161SAPE  C31618038   3.558   5.460   3.659 -0.2538 -0.2961 -0.2294
  161SAPE  H16X18039   3.455   5.500   3.659  0.3703  1.3886 -0.3684
  161SAPE  H16Y18040   3.602   5.544   3.601 -0.0183 -0.3168 -0.0814
  161SAPE  C31718041   3.606   5.435   3.803 -0.2831  0.4897 -0.6349
  161SAPE  H17X18042   3.716   5.414   3.802 -0.0430  1.6772 -0.0907
  161SAPE  H17Y18043   3.551   5.352   3.853 -0.0096  0.1500 -0.8866
  161SAPE  C31818044   3.575   5.558   3.883  0.1707 -1.1730  0.1081
  161SAPE  H18X18045   3.467   5.578   3.892  0.5792  0.7256  1.3709
  161SAPE  H18Y18046   3.613   5.655   3.846 -3.0398  0.5816  1.0497
  161SAPE  H18Z18047   3.618   5.550   3.985 -0.6629  0.1777  0.5861
  162SAPE     N18048   2.157   6.098   1.981 -0.3478  0.1039 -0.0453
  162SAPE   HN118049   2.248   6.083   1.932 -1.0931 -2.4499 -0.8186
  162SAPE   HN218050   2.143   6.022   2.052 -1.1208 -2.3082 -2.5874
  162SAPE   HN318051   2.073   6.103   1.921 -0.3482  0.5087 -0.0121
  162SAPE   C1218052   2.147   6.227   2.062 -0.0236  1.0068 -0.4495
  162SAPE  H12A18053   2.051   6.227   2.118  0.6193  1.7400  0.6876
  162SAPE  H12B18054   2.159   6.313   1.994 -3.0557  2.4507  0.6345
  162SAPE   C1118055   2.264   6.235   2.163  0.1388 -0.2126  0.1800
  162SAPE  H11A18056   2.266   6.138   2.218 -1.2369 -0.2743  0.1417
  162SAPE  H11B18057   2.257   6.313   2.242 -2.8329 -1.2548  1.0720
  162SAPE     P18058   2.518   6.170   2.096  0.2913 -0.1178  0.0331
  162SAPE   O1318059   2.486   6.031   2.055 -0.6283 -0.1489 -0.0695
  162SAPE   O1418060   2.631   6.244   2.032  0.3940 -0.2193  0.0075
  162SAPE   O1218061   2.385   6.260   2.084  0.4142  0.0625  0.1767
  162SAPE   O1118062   2.544   6.161   2.249 -0.4301 -0.4185  0.3837
  162SAPE    C118063   2.667   6.126   2.307 -0.6250 -0.2402  0.1297
  162SAPE    HA18064   2.699   6.023   2.282 -0.3380 -0.6132  1.8985
  162SAPE    HB18065   2.749   6.198   2.285 -1.4313  0.7609  0.3423
  162SAPE    C218066   2.650   6.129   2.467  0.0424 -0.0510  0.3760
  162SAPE    HS18067   2.751   6.102   2.504 -0.3999  0.0686  1.7125
  162SAPE   O2118068   2.553   6.040   2.514 -0.1063 -0.7695  0.0702
  162SAPE   C2118069   2.561   6.007   2.643 -0.0264 -0.5624  0.3754
  162SAPE   O2218070   2.656   6.035   2.717 -0.3247 -0.8400  0.5741
  162SAPE   C2218071   2.443   5.913   2.675 -0.4336  0.1100  0.1696
  162SAPE   H2R18072   2.440   5.899   2.785  1.1658 -0.3755  0.1810
  162SAPE   H2S18073   2.349   5.966   2.651 -1.9924 -2.0962  1.0845
  162SAPE    C318074   2.598   6.273   2.494  0.5463  0.0101 -0.1138
  162SAPE    HX18075   2.487   6.267   2.489  0.4291 -0.8765  2.1965
  162SAPE    HY18076   2.636   6.351   2.425  2.8790 -0.8215  0.1471
  162SAPE   O3118077   2.629   6.314   2.631  0.2757 -0.4095  0.1328
  162SAPE   C3118078   2.753   6.357   2.647  0.0621 -1.1575  0.9112
  162SAPE   O3218079   2.843   6.374   2.567 -0.3265 -0.4459  0.3407
  162SAPE   C3218080   2.764   6.378   2.798 -0.7808 -0.1213 -0.0865
  162SAPE   H2X18081   2.736   6.279   2.841 -0.8382  0.0183  0.1999
  162SAPE   H2Y18082   2.694   6.455   2.836 -0.9376  0.0905 -0.7879
  162SAPE   C2318083   2.457   5.778   2.598 -0.0112  0.8645  0.2439
  162SAPE   H3R18084   2.567   5.765   2.604  0.0463  1.8006  1.8253
  162SAPE   H3S18085   2.430   5.782   2.490  1.6026 -1.7372 -0.3436
  162SAPE   C2418086   2.393   5.656   2.666  0.0895  0.1401 -0.7902
  162SAPE   H4R18087   2.420   5.651   2.774 -1.5990 -1.2624 -0.3956
  162SAPE   H4S18088   2.435   5.571   2.608 -1.6751 -0.2578 -1.5215
  162SAPE   C2518089   2.242   5.647   2.654  0.3345  0.1566 -1.2157
  162SAPE   H5R18090   2.204   5.603   2.560 -0.8729  0.8942 -1.0896
  162SAPE   C2618091   2.143   5.688   2.742 -0.0035  0.3246 -0.6834
  162SAPE   H6R18092   2.039   5.673   2.710 -0.4401 -1.1073  1.2945
  162SAPE   C2718093   2.166   5.762   2.874 -0.4891 -0.6191 -0.3440
  162SAPE   H7R18094   2.160   5.870   2.851 -1.3363 -0.6276 -0.1847
  162SAPE   H7S18095   2.267   5.731   2.909 -0.3123 -2.8789 -2.5165
  162SAPE   C2818096   2.053   5.751   2.973 -0.0845 -0.3078  0.4860
  162SAPE   H8R18097   1.965   5.699   2.932  1.7042 -0.5158 -3.6831
  162SAPE   C2918098   2.065   5.772   3.109  0.5969 -0.3118 -0.3460
  162SAPE   H9R18099   1.971   5.756   3.164  0.0879  1.6877 -0.5609
  162SAPE  C21018100   2.183   5.825   3.185 -0.5572  0.5871  0.9101
  162SAPE  H10R18101   2.156   5.923   3.230 -1.1638  0.2785  1.2326
  162SAPE  H10S18102   2.260   5.869   3.119  0.2801  1.4963  2.4374
  162SAPE  C21118103   2.242   5.716   3.277  0.1568  0.6498  0.1149
  162SAPE  H11R18104   2.305   5.641   3.227  0.4424  0.0506  1.3436
  162SAPE  C21218105   2.242   5.723   3.410  0.4447  0.2628 -0.9004
  162SAPE  H12R18106   2.295   5.642   3.462 -0.1923 -0.1835 -0.9333
  162SAPE  C21318107   2.175   5.826   3.486  0.3699  0.0522  0.1159
  162SAPE  H13R18108   2.185   5.930   3.449  1.0119  0.6132  1.7822
  162SAPE  H13S18109   2.227   5.821   3.584  2.0729 -1.2358 -0.7989
  162SAPE  C21418110   2.029   5.802   3.514 -0.4884  0.6990 -0.1455
  162SAPE  H14R18111   1.983   5.721   3.455  1.0717 -1.1308  1.0377
  162SAPE  C21518112   1.948   5.885   3.582 -0.2896  0.1939  0.7313
  162SAPE  H15R18113   1.840   5.880   3.603 -0.4267  2.5033  0.8329
  162SAPE  C21618114   2.001   6.008   3.646  0.5984  0.4269  0.0321
  162SAPE  H16R18115   1.988   6.096   3.580 -1.2785 -0.3622 -0.7219
  162SAPE  H16S18116   2.109   6.003   3.671  0.3153 -1.7466  1.0933
  162SAPE  C21718117   1.936   6.049   3.776  0.0968  0.2377 -0.0419
  162SAPE  H17R18118   1.835   6.089   3.751  0.4001  0.3046 -1.2084
  162SAPE  H17S18119   2.002   6.126   3.821 -0.5218  1.0279 -0.4625
  162SAPE  C21818120   1.924   5.935   3.881  0.4055  0.2482 -0.0899
  162SAPE  H18R18121   2.024   5.892   3.902 -0.6257 -3.0084 -1.2608
  162SAPE  H18S18122   1.858   5.848   3.859  0.4110 -0.1371  1.3337
  162SAPE  C21918123   1.868   6.004   4.004 -0.3486 -0.0766  0.2755
  162SAPE  H19R18124   1.764   6.040   3.989 -0.3174 -0.1702 -0.1839
  162SAPE  H19S18125   1.922   6.099   4.022  0.0346 -0.3094  0.3675
  162SAPE  C22018126   1.877   5.902   4.121  0.5491 -0.3378  0.0519
  162SAPE  H20R18127   1.836   5.959   4.208  0.9131  0.9841 -0.6073
  162SAPE  H20S18128   1.982   5.876   4.145  1.8968  2.6221 -2.0910
  162SAPE  H20T18129   1.825   5.806   4.100  0.5854 -0.5107  0.7239
  162SAPE   C3318130   2.910   6.405   2.832  0.0937  0.6545  0.2508
  162SAPE   H3X18131   2.941   6.511   2.817  3.7036 -0.2799  0.2201
  162SAPE   H3Y18132   2.986   6.342   2.779 -1.3853 -0.8212 -0.2060
  162SAPE   C3418133   2.923   6.371   2.980 -0.0522 -0.1289 -0.3978
  162SAPE   H4X18134   3.030   6.347   3.000  0.5795  2.9477  0.5095
  162SAPE   H4Y18135   2.860   6.289   3.020 -0.0137 -0.0080 -0.0808
  162SAPE   C3518136   2.885   6.485   3.077  0.5778 -0.1333 -0.7477
  162SAPE   H5X18137   2.779   6.519   3.070 -0.6234 -3.3555 -0.1354
  162SAPE   H5Y18138   2.943   6.576   3.053 -1.8615  1.9253  0.6940
  162SAPE   C3618139   2.893   6.440   3.224  0.5033  0.1751 -0.5867
  162SAPE   H6X18140   2.987   6.387   3.252  0.5270  0.4109 -0.2045
  162SAPE   H6Y18141   2.811   6.370   3.252 -0.2817  1.7704  1.3960
  162SAPE   C3718142   2.889   6.554   3.330 -0.2501 -0.1175  0.0981
  162SAPE   H7X18143   2.781   6.582   3.339 -1.1151 -3.1452  0.3833
  162SAPE   H7Y18144   2.957   6.636   3.300  1.6133 -1.2302  1.1590
  162SAPE   C3818145   2.947   6.508   3.472 -0.5823  0.1482 -0.4667
  162SAPE   H8X18146   3.056   6.490   3.463 -0.7959 -0.9895 -0.9757
  162SAPE   H8Y18147   2.890   6.416   3.498 -3.0181  1.4513 -0.9286
  162SAPE   C3918148   2.916   6.604   3.587 -0.5508 -0.1229  0.0469
  162SAPE   H9X18149   2.807   6.603   3.610 -0.6828 -2.2534 -0.4566
  162SAPE   H9Y18150   2.938   6.705   3.547  1.9215 -1.0642 -1.1616
  162SAPE  C31018151   2.999   6.595   3.719 -0.1365 -0.1103 -0.0265
  162SAPE  H10X18152   3.109   6.586   3.702 -0.2102 -2.5595  0.4592
  162SAPE  H10Y18153   2.973   6.500   3.769 -0.6719 -0.4802 -0.9714
  162SAPE  C31118154   2.958   6.709   3.806 -0.4959 -0.2450  0.0232
  162SAPE  H11X18155   2.849   6.714   3.827 -0.2621  0.4500  1.1957
  162SAPE  H11Y18156   2.992   6.805   3.761 -0.2755 -0.0348  0.6124
  162SAPE  C31218157   3.041   6.706   3.939 -0.1464 -0.3817  0.1300
  162SAPE  H12X18158   3.150   6.714   3.923  0.0139  1.0550  1.7038
  162SAPE  H12Y18159   3.009   6.609   3.982 -2.8509  0.3940  0.0589
  162SAPE  C31318160   2.990   6.815   4.031  0.2926 -0.5146 -0.8045
  162SAPE  H13X18161   2.895   6.849   3.985  0.2863 -2.1613 -2.0847
  162SAPE  H13Y18162   3.052   6.907   4.025 -1.4610  0.7911  0.0418
  162SAPE  C31418163   2.972   6.773   4.177  0.2247 -0.3380 -0.2493
  162SAPE  H14X18164   2.895   6.694   4.192 -0.3926  0.5123  1.3191
  162SAPE  H14Y18165   2.937   6.858   4.239 -1.3795 -0.4723 -0.9115
  162SAPE  C31518166   3.104   6.717   4.241 -0.3366 -0.4930  0.3158
  162SAPE  H15X18167   3.192   6.779   4.213 -1.3913 -0.1277 -2.5365
  162SAPE  H15Y18168   3.107   6.612   4.205 -1.5715 -0.3610 -0.2252
  162SAPE  C31618169   3.088   6.717   4.393 -0.0885  0.0498  0.3502
  162SAPE  H16X18170   3.082   6.823   4.424  0.4979  0.1658  0.0744
  162SAPE  H16Y18171   3.183   6.680   4.436  1.8402  2.1119 -1.8404
  162SAPE  C31718172   2.973   6.630   4.443  0.1898 -0.6523 -0.8291
  162SAPE  H17X18173   2.882   6.629   4.379  0.1044 -3.6253 -0.8212
  162SAPE  H17Y18174   2.933   6.663   4.541 -0.9104 -0.8969 -1.1877
  162SAPE  C31818175   3.022   6.488   4.458  0.0682  0.3588  0.5416
  162SAPE  H18X18176   2.945   6.408   4.446  1.3746 -0.8581 -0.0312
  162SAPE  H18Y18177   3.079   6.493   4.553 -0.5015 -0.1911  0.9192
  162SAPE  H18Z18178   3.097   6.466   4.379  1.1470  0.9940  1.3584
  163SAPE     N18179   2.806   4.239   2.228  0.0553  0.2583 -0.5546
  163SAPE   HN118180   2.906   4.245   2.256  0.4325 -0.7959 -1.5833
  163SAPE   HN218181   2.759   4.166   2.285  0.2076  1.1136  0.7015
  163SAPE   HN318182   2.823   4.202   2.132 -0.2440 -1.0861 -0.1159
  163SAPE   C1218183   2.728   4.358   2.227  0.6775  0.3089 -0.5963
  163SAPE  H12A18184   2.740   4.412   2.324 -0.3338 -0.6677  0.1063
  163SAPE  H12B18185   2.621   4.338   2.206  0.2628  1.9843 -0.2520
  163SAPE   C1118186   2.770   4.466   2.122  0.2179  0.0223 -1.0529
  163SAPE  H11A18187   2.696   4.549   2.130  0.1348 -0.0912 -0.6176
  163SAPE  H11B18188   2.768   4.420   2.021 -0.7491  1.9662 -1.9731
  163SAPE     P18189   2.952   4.608   2.259 -0.1967  0.1981  0.0397
  163SAPE   O1318190   3.024   4.533   2.368  0.1974  0.3911  0.2845
  163SAPE   O1418191   3.016   4.718   2.185 -0.0358 -0.0261  0.0848
  163SAPE   O1218192   2.906   4.509   2.144  0.4733  0.4272 -0.3978
  163SAPE   O1118193   2.812   4.662   2.319  0.1135 -0.0628 -0.2435
  163SAPE    C118194   2.794   4.640   2.457  0.5694  0.4925 -0.6127
  163SAPE    HA18195   2.685   4.654   2.477  0.7327  0.4576  0.3147
  163SAPE    HB18196   2.815   4.539   2.497  0.5033  0.6167 -0.2600
  163SAPE    C218197   2.859   4.747   2.544  0.2112 -0.2214  0.1615
  163SAPE    HS18198   2.966   4.757   2.516  1.3771 -4.0783  2.3799
  163SAPE   O2118199   2.834   4.696   2.676 -0.2659 -0.6392  0.2420
  163SAPE   C2118200   2.932   4.686   2.763 -0.5967 -0.2740 -0.5774
  163SAPE   O2218201   3.048   4.717   2.754 -0.2538 -0.4557  0.1321
  163SAPE   C2218202   2.869   4.629   2.887 -0.5432  0.3202 -0.1241
  163SAPE   H2R18203   2.951   4.611   2.959 -0.4082  2.9694  0.4625
  163SAPE   H2S18204   2.816   4.713   2.937  1.9794  1.3601  0.9651
  163SAPE    C318205   2.788   4.885   2.529 -0.8392 -0.9618 -0.4305
  163SAPE    HX18206   2.680   4.874   2.548 -0.7574 -0.5170  0.3224
  163SAPE    HY18207   2.805   4.904   2.421  0.0965  0.9120  0.0109
  163SAPE   O3118208   2.837   4.992   2.613  0.5096  0.4448  0.4785
  163SAPE   C3118209   2.959   5.036   2.600 -0.1141 -0.1118 -0.4674
  163SAPE   O3218210   3.043   5.000   2.517 -0.2526 -0.1711 -0.1483
  163SAPE   C3218211   2.996   5.138   2.703 -0.3403 -0.3977  0.3378
  163SAPE   H2X18212   2.914   5.198   2.747 -1.0993  0.3951 -2.0175
  163SAPE   H2Y18213   3.060   5.211   2.649  0.1572 -0.8716  0.2754
  163SAPE   C2318214   2.784   4.500   2.866 -0.5637  0.1643 -0.3564
  163SAPE   H3R18215   2.848   4.424   2.817  0.3434  1.2959 -0.9881
  163SAPE   H3S18216   2.699   4.533   2.803 -1.2223  0.1063  0.4835
  163SAPE   C2418217   2.722   4.447   2.998 -0.1062 -0.2584 -0.0962
  163SAPE   H4R18218   2.804   4.455   3.074 -2.0046 -2.0068  2.2917
  163SAPE   H4S18219   2.701   4.339   2.983  1.2300 -0.3846 -1.2946
  163SAPE   C2518220   2.599   4.514   3.058 -0.5701  0.7156  0.3365
  163SAPE   H5R18221   2.538   4.573   2.988 -2.6074 -1.1771  0.4049
  163SAPE   C2618222   2.557   4.518   3.187  0.2189  0.7795 -0.2866
  163SAPE   H6R18223   2.469   4.576   3.217 -1.3874 -1.3214 -0.7280
  163SAPE   C2718224   2.619   4.446   3.307  0.1749  0.1293  0.6204
  163SAPE   H7R18225   2.706   4.382   3.280  1.1159  1.1679  1.1218
  163SAPE   H7S18226   2.548   4.401   3.379  2.0329  0.8986  3.0702
  163SAPE   C2818227   2.665   4.558   3.398  0.0815 -0.2025 -0.4232
  163SAPE   H8R18228   2.651   4.658   3.354 -0.6161  0.6809  1.6785
  163SAPE   C2918229   2.724   4.553   3.518 -0.4046  0.2766  0.0744
  163SAPE   H9R18230   2.750   4.649   3.564  1.8986  0.4881 -1.4907
  163SAPE  C21018231   2.758   4.429   3.594 -1.0085 -0.7186 -0.1253
  163SAPE  H10R18232   2.756   4.342   3.525 -2.6688  1.9815 -3.8062
  163SAPE  H10S18233   2.686   4.411   3.677 -0.9316 -1.0642 -0.1317
  163SAPE  C21118234   2.896   4.444   3.660 -0.4340  0.8103  0.7295
  163SAPE  H11R18235   2.978   4.415   3.592 -0.0368 -1.3053  2.0219
  163SAPE  C21218236   2.929   4.484   3.782 -0.1284  0.1507 -0.1042
  163SAPE  H12R18237   3.035   4.478   3.811  0.3619 -1.0471 -1.9377
  163SAPE  C21318238   2.835   4.526   3.889 -0.2158 -0.0343 -0.1653
  163SAPE  H13R18239   2.843   4.447   3.967 -1.6805  0.5990  0.6844
  163SAPE  H13S18240   2.728   4.526   3.858  0.0597  1.0179 -1.1649
  163SAPE  C21418241   2.879   4.660   3.930 -0.8786  0.1168 -0.2929
  163SAPE  H14R18242   2.931   4.709   3.847  0.1670 -2.0639 -0.9830
  163SAPE  C21518243   2.866   4.716   4.048 -0.7507  0.8472 -0.0237
  163SAPE  H15R18244   2.900   4.818   4.073  1.3712 -0.3342  2.4608
  163SAPE  C21618245   2.793   4.640   4.159  0.6561 -0.3166  0.5622
  163SAPE  H16R18246   2.844   4.652   4.257  1.3616 -1.6705  0.3925
  163SAPE  H16S18247   2.775   4.531   4.145 -0.3480 -0.6097  3.5610
  163SAPE  C21718248   2.659   4.708   4.191  0.1331 -0.2335  0.4278
  163SAPE  H17R18249   2.607   4.647   4.267  3.2103 -4.2706 -0.3546
  163SAPE  H17S18250   2.598   4.709   4.098  0.3665 -0.8848  0.2637
  163SAPE  C21818251   2.672   4.852   4.241 -1.3278  0.2009 -0.0166
  163SAPE  H18R18252   2.694   4.926   4.162 -0.8880 -0.8666 -0.9172
  163SAPE  H18S18253   2.749   4.866   4.320 -0.1106  0.2394 -1.1765
  163SAPE  C21918254   2.537   4.910   4.290 -0.5721 -0.5113 -0.0451
  163SAPE  H19R18255   2.494   4.845   4.369 -1.3292  0.4279  0.3338
  163SAPE  H19S18256   2.456   4.927   4.216 -1.8247  0.1975  1.4335
  163SAPE  C22018257   2.568   5.043   4.357 -0.0004  0.1794  0.3201
  163SAPE  H20R18258   2.621   5.107   4.284  1.3019 -0.5753  0.5708
  163SAPE  H20S18259   2.633   5.029   4.445  1.4302  0.1997 -0.7070
  163SAPE  H20T18260   2.472   5.095   4.380  0.5865  2.4524 -1.9860
  163SAPE   C3318261   3.091   5.079   2.817  0.4717 -0.4247  0.1236
  163SAPE   H3X18262   3.170   5.153   2.844  2.0235 -1.5805 -1.0457
  163SAPE   H3Y18263   3.143   4.999   2.759 -0.3320 -0.3143 -0.7734
  163SAPE   C3418264   3.018   5.032   2.942  0.2768 -0.2726  0.4023
  163SAPE   H4X18265   2.930   4.968   2.919 -0.9430  1.8264 -1.2244
  163SAPE   H4Y18266   2.977   5.122   2.992  0.4102  1.6075 -2.5766
  163SAPE   C3518267   3.094   4.946   3.040 -0.0909 -0.3864  0.6260
  163SAPE   H5X18268   3.176   4.996   3.095  0.4064  0.9590 -1.2338
  163SAPE   H5Y18269   3.143   4.864   2.983 -1.4119 -0.4295 -0.5135
  163SAPE   C3618270   3.002   4.880   3.140  0.3287 -0.1829 -0.2274
  163SAPE   H6X18271   3.065   4.815   3.204 -0.9587 -1.7081 -0.4575
  163SAPE   H6Y18272   2.937   4.805   3.090  0.9725 -2.6759  2.4353
  163SAPE   C3718273   2.911   4.973   3.227 -0.2852 -0.0808  0.4549
  163SAPE   H7X18274   2.819   4.988   3.166  0.0670 -0.9750 -0.3161
  163SAPE   H7Y18275   2.967   5.068   3.241  1.4609 -0.3982 -3.2348
  163SAPE   C3818276   2.879   4.911   3.362  0.1015 -0.4680  0.2964
  163SAPE   H8X18277   2.801   4.833   3.350 -1.4265  1.1080 -0.6515
  163SAPE   H8Y18278   2.838   4.995   3.422  1.9317  0.1037  0.8198
  163SAPE   C3918279   3.002   4.865   3.447 -0.2175  0.3400  0.0738
  163SAPE   H9X18280   3.092   4.927   3.429 -0.4577  0.3372 -1.1859
  163SAPE   H9Y18281   3.019   4.762   3.410 -1.7956  0.8093 -2.1496
  163SAPE  C31018282   2.976   4.844   3.600  0.0564 -0.4910  0.1895
  163SAPE  H10X18283   2.979   4.738   3.635  1.3576 -0.3414  0.5569
  163SAPE  H10Y18284   2.881   4.895   3.628  1.2169  1.7054  0.3363
  163SAPE  C31118285   3.088   4.908   3.682  0.6757  0.2850 -0.0038
  163SAPE  H11X18286   3.184   4.853   3.676 -0.0010 -1.1818  1.6928
  163SAPE  H11Y18287   3.061   4.906   3.790  0.3553 -2.7358 -0.0515
  163SAPE  C31218288   3.109   5.067   3.666 -0.3425  0.6778 -0.6404
  163SAPE  H12X18289   3.139   5.088   3.561  0.5161  1.1300 -0.3158
  163SAPE  H12Y18290   3.194   5.099   3.730  1.9738 -2.5532 -1.8223
  163SAPE  C31318291   2.981   5.154   3.697  0.1073 -0.0272 -1.0312
  163SAPE  H13X18292   2.903   5.127   3.623 -1.6912 -0.6707  1.0038
  163SAPE  H13Y18293   3.019   5.259   3.691  2.6579 -0.9146 -1.8122
  163SAPE  C31418294   2.942   5.135   3.843 -0.3334  0.2682 -0.6923
  163SAPE  H14X18295   3.018   5.164   3.919 -0.1350  0.5130 -0.9822
  163SAPE  H14Y18296   2.906   5.031   3.857 -0.8134  0.4858 -0.2473
  163SAPE  C31518297   2.817   5.228   3.876 -0.1618  0.2429 -0.9313
  163SAPE  H15X18298   2.730   5.203   3.811 -0.7941 -0.4925  0.1621
  163SAPE  H15Y18299   2.857   5.329   3.856 -0.9734  0.9273  0.6834
  163SAPE  C31618300   2.781   5.229   4.028  0.4303  0.4316  0.4911
  163SAPE  H16X18301   2.858   5.287   4.083  2.0602 -0.3734 -0.8591
  163SAPE  H16Y18302   2.788   5.123   4.061  2.5049  0.2686 -0.3487
  163SAPE  C31718303   2.637   5.270   4.059  0.1527  0.8401  0.2860
  163SAPE  H17X18304   2.621   5.376   4.030  2.0577  0.9636 -0.4512
  163SAPE  H17Y18305   2.614   5.274   4.167 -0.1576  0.6061  0.2308
  163SAPE  C31818306   2.543   5.171   3.997  0.2665 -0.5038  0.2299
  163SAPE  H18X18307   2.583   5.071   4.024 -1.9418 -0.9822  2.0837
  163SAPE  H18Y18308   2.542   5.177   3.886  0.7815 -0.8172  0.2058
  163SAPE  H18Z18309   2.436   5.175   4.027 -0.0666 -1.5514 -0.7385
  164SAPE     N18310   6.273   5.640   2.094 -0.1727  0.2080  1.0281
  164SAPE   HN118311   6.177   5.660   2.060  0.2409  0.6117  0.0713
  164SAPE   HN218312   6.297   5.550   2.048 -0.3051  0.7270 -0.0969
  164SAPE   HN318313   6.248   5.634   2.195 -1.8642  0.6460  0.6767
  164SAPE   C1218314   6.378   5.743   2.070  0.4661 -0.1149  0.1641
  164SAPE  H12A18315   6.333   5.840   2.101 -0.1856 -0.0123 -1.0479
  164SAPE  H12B18316   6.395   5.750   1.961 -0.8060  0.8366  0.0085
  164SAPE   C1118317   6.509   5.713   2.145  0.0469 -0.3712  0.6093
  164SAPE  H11A18318   6.499   5.735   2.253  1.4439  1.6566  0.3822
  164SAPE  H11B18319   6.585   5.789   2.114  0.4600 -0.4616  1.3730
  164SAPE     P18320   6.725   5.581   2.137  0.2290 -0.1008 -0.2268
  164SAPE   O1318321   6.767   5.439   2.141  0.0610 -0.0936  0.0298
  164SAPE   O1418322   6.789   5.668   2.040  0.4703 -0.4544 -0.1353
  164SAPE   O1218323   6.565   5.580   2.114  0.7085  0.0977  0.0639
  164SAPE   O1118324   6.733   5.650   2.277 -0.1177  0.3470 -0.2646
  164SAPE    C118325   6.727   5.575   2.400  0.3326 -0.1219 -0.1111
  164SAPE    HA18326   6.737   5.467   2.377 -2.8368 -0.2457 -1.4471
  164SAPE    HB18327   6.820   5.605   2.454  0.7068 -1.0097 -0.2497
  164SAPE    C218328   6.601   5.611   2.480  0.7413 -0.5850 -0.2435
  164SAPE    HS18329   6.545   5.686   2.420  0.0165  0.1961  1.3292
  164SAPE   O2118330   6.630   5.669   2.612  0.0861 -0.0224 -1.0894
  164SAPE   C2118331   6.549   5.762   2.653  0.0500 -0.6096  0.0698
  164SAPE   O2218332   6.472   5.830   2.582  0.1347 -0.3355  0.0613
  164SAPE   C2218333   6.572   5.785   2.810 -1.2976  0.1107  1.4879
  164SAPE   H2R18334   6.594   5.686   2.857 -0.8693 -0.5917 -0.1042
  164SAPE   H2S18335   6.664   5.847   2.815 -0.7031 -0.3854 -1.3054
  164SAPE    C318336   6.513   5.483   2.500  0.1841  0.6751 -0.6020
  164SAPE    HX18337   6.490   5.455   2.395  1.5842  2.3449 -1.4111
  164SAPE    HY18338   6.423   5.516   2.556  0.4995 -0.2929  0.4973
  164SAPE   O3118339   6.572   5.375   2.569  0.0826  0.8664  0.1692
  164SAPE   C3118340   6.543   5.353   2.697 -0.1574  0.2381 -0.0134
  164SAPE   O3218341   6.485   5.433   2.767  0.0622 -0.2437  0.8257
  164SAPE   C3218342   6.594   5.213   2.750 -0.1898 -0.1694  0.2149
  164SAPE   H2X18343   6.702   5.224   2.777  0.2486 -1.0332 -1.0960
  164SAPE   H2Y18344   6.597   5.136   2.671  3.2146 -0.5668  0.5404
  164SAPE   C2318345   6.462   5.855   2.895  0.2888 -0.6271  0.8536
  164SAPE   H3R18346   6.419   5.931   2.827  1.4541 -0.3682  0.3778
  164SAPE   H3S18347   6.513   5.913   2.975  1.7794 -0.1518 -0.4015
  164SAPE   C2418348   6.359   5.763   2.956  0.6761 -0.7190 -0.4067
  164SAPE   H4R18349   6.311   5.708   2.872 -1.0629 -0.5304  0.4069
  164SAPE   H4S18350   6.279   5.822   3.007  1.7930  0.3217  0.1932
  164SAPE   C2518351   6.405   5.662   3.065 -0.3348 -0.5995  0.4200
  164SAPE   H5R18352   6.434   5.565   3.022 -3.0057 -1.5783  0.6456
  164SAPE   C2618353   6.394   5.668   3.202 -0.2164 -0.3898  0.2933
  164SAPE   H6R18354   6.427   5.581   3.260  1.5040 -1.2558 -1.8235
  164SAPE   C2718355   6.358   5.791   3.278  0.1400 -0.1810 -0.2121
  164SAPE   H7R18356   6.330   5.872   3.207 -1.1176  0.6097  1.1300
  164SAPE   H7S18357   6.452   5.817   3.331 -0.6815 -0.0113  1.2157
  164SAPE   C2818358   6.257   5.780   3.387  0.3291 -0.7145  0.1077
  164SAPE   H8R18359   6.162   5.733   3.357  0.0447 -0.5161  0.6824
  164SAPE   C2918360   6.248   5.849   3.503 -0.6130  0.2833 -0.2181
  164SAPE   H9R18361   6.170   5.826   3.576  0.4595  0.2379  0.9511
  164SAPE  C21018362   6.354   5.946   3.563  0.4699  0.2760  0.1039
  164SAPE  H10R18363   6.391   6.008   3.479  1.9998  3.3333  2.8322
  164SAPE  H10S18364   6.437   5.888   3.609  0.0084  0.4041  1.1372
  164SAPE  C21118365   6.288   6.039   3.666 -0.4185 -0.3027  0.7074
  164SAPE  H11R18366   6.221   6.115   3.624 -2.8758 -2.1542  1.0391
  164SAPE  C21218367   6.300   6.038   3.796  0.5318  0.1781 -1.0368
  164SAPE  H12R18368   6.256   6.125   3.848 -0.7726 -1.3323  0.4855
  164SAPE  C21318369   6.374   5.938   3.881  0.0014 -0.1613  1.0872
  164SAPE  H13R18370   6.484   5.947   3.868  0.1695 -2.5451  0.3687
  164SAPE  H13S18371   6.348   5.834   3.853 -1.4072  0.7872 -1.5447
  164SAPE  C21418372   6.351   5.955   4.028 -0.8422 -0.3314  0.7583
  164SAPE  H14R18373   6.245   5.947   4.057 -1.6725  3.0620 -0.8162
  164SAPE  C21518374   6.441   5.966   4.128 -0.5348 -0.5346  0.4029
  164SAPE  H15R18375   6.406   5.965   4.232 -0.2585  2.0046  0.5799
  164SAPE  C21618376   6.592   5.982   4.118 -0.3204 -0.9135  0.2428
  164SAPE  H16R18377   6.639   5.913   4.044 -0.2737  0.2281 -0.8223
  164SAPE  H16S18378   6.639   5.951   4.213 -1.5958 -1.5090  0.6919
  164SAPE  C21718379   6.623   6.131   4.086  0.6279  0.1596  0.0581
  164SAPE  H17R18380   6.593   6.186   4.178 -2.3902  0.1026 -0.7985
  164SAPE  H17S18381   6.560   6.168   4.003  0.2995  0.2047  0.3280
  164SAPE  C21818382   6.771   6.144   4.053  0.2935 -0.5289  0.6546
  164SAPE  H18R18383   6.775   6.253   4.031 -2.5339 -0.3023  0.8067
  164SAPE  H18S18384   6.802   6.099   3.956 -0.2382 -0.2721  0.3581
  164SAPE  C21918385   6.872   6.109   4.157 -0.8864 -1.1108 -0.2287
  164SAPE  H19R18386   6.968   6.083   4.107 -0.9107 -1.2328 -0.2134
  164SAPE  H19S18387   6.847   6.013   4.207  0.1351  0.7197  4.2475
  164SAPE  C22018388   6.886   6.212   4.264 -0.5595 -0.3505 -0.2735
  164SAPE  H20R18389   6.961   6.185   4.340 -0.3906 -0.1579 -0.3702
  164SAPE  H20S18390   6.788   6.225   4.315 -1.1323  0.5000 -1.5333
  164SAPE  H20T18391   6.919   6.308   4.218  2.5985 -0.8560  0.6967
  164SAPE   C3318392   6.511   5.182   2.876 -0.6398  0.1948 -0.2250
  164SAPE   H3X18393   6.404   5.176   2.848 -1.3410  0.1287  2.1787
  164SAPE   H3Y18394   6.526   5.272   2.941  3.4256 -0.9660  0.7506
  164SAPE   C3418395   6.571   5.057   2.938 -0.6729  0.4755 -0.2460
  164SAPE   H4X18396   6.675   5.040   2.904 -0.9057  0.6574 -1.0642
  164SAPE   H4Y18397   6.507   4.972   2.905 -0.7102  1.0639 -1.7347
  164SAPE   C3518398   6.569   5.058   3.093 -0.2506 -0.1594  1.0706
  164SAPE   H5X18399   6.597   5.160   3.124 -1.5980  0.3544  0.6426
  164SAPE   H5Y18400   6.645   4.985   3.130 -0.7285  0.0439  2.5271
  164SAPE   C3618401   6.444   5.011   3.166 -0.2059 -0.3075  0.4607
  164SAPE   H6X18402   6.425   4.901   3.170  0.9435 -0.5221  0.5449
  164SAPE   H6Y18403   6.363   5.073   3.124  0.6315 -0.2201 -1.1185
  164SAPE   C3718404   6.457   5.044   3.318 -0.0248 -0.0812  0.1014
  164SAPE   H7X18405   6.357   5.025   3.363 -0.5488  2.8007  0.3524
  164SAPE   H7Y18406   6.465   5.153   3.343 -0.0218  0.0003 -0.2580
  164SAPE   C3818407   6.566   4.969   3.387 -0.5302 -0.6398  0.0090
  164SAPE   H8X18408   6.662   5.009   3.347  0.1159  0.1367  2.1777
  164SAPE   H8Y18409   6.561   4.862   3.359 -0.8884 -0.7425  0.4502
  164SAPE   C3918410   6.566   4.974   3.543 -0.3588  0.0664  0.1085
  164SAPE   H9X18411   6.652   4.916   3.583 -1.3849 -0.8507  1.0457
  164SAPE   H9Y18412   6.473   4.924   3.578  0.1337 -0.3839  0.7952
  164SAPE  C31018413   6.562   5.117   3.597  0.1818  0.5690  0.1967
  164SAPE  H10X18414   6.483   5.184   3.556 -0.1089  0.2072  0.1586
  164SAPE  H10Y18415   6.654   5.157   3.550  0.8028  0.2751  1.1478
  164SAPE  C31118416   6.579   5.125   3.749  0.3560  0.5463  0.6668
  164SAPE  H11X18417   6.491   5.078   3.798  0.4984 -0.5703 -0.1121
  164SAPE  H11Y18418   6.581   5.234   3.769 -0.4650  0.3578  1.9706
  164SAPE  C31218419   6.703   5.054   3.810  0.2210 -0.2900  0.1578
  164SAPE  H12X18420   6.779   5.072   3.731 -0.5297  1.8186 -0.1478
  164SAPE  H12Y18421   6.679   4.946   3.818 -2.7920  0.2670 -0.2412
  164SAPE  C31318422   6.753   5.119   3.940 -0.1042  0.1760 -0.1795
  164SAPE  H13X18423   6.684   5.119   4.026 -0.3552  2.3940 -0.3058
  164SAPE  H13Y18424   6.774   5.226   3.915  0.0162  0.0337 -0.7109
  164SAPE  C31418425   6.888   5.048   3.982 -0.6491  0.0020  0.0884
  164SAPE  H14X18426   6.927   5.090   4.077  3.5434  1.7822 -2.1827
  164SAPE  H14Y18427   6.976   5.059   3.915  0.3924  0.5559  1.4820
  164SAPE  C31518428   6.876   4.894   4.013 -0.4749 -0.2251  0.5738
  164SAPE  H15X18429   6.883   4.836   3.918  0.8827 -0.4070  0.7579
  164SAPE  H15Y18430   6.785   4.870   4.071  1.1403 -0.9678  2.9629
  164SAPE  C31618431   6.996   4.834   4.085 -0.2155 -0.3531  0.5462
  164SAPE  H16X18432   7.090   4.855   4.030 -0.2186 -2.3573 -0.3267
  164SAPE  H16Y18433   6.980   4.724   4.076 -0.6326 -0.2842  0.4302
  164SAPE  C31718434   7.011   4.877   4.232  0.2653 -0.0646 -0.2639
  164SAPE  H17X18435   6.975   4.982   4.235  3.1929  1.0706 -1.4229
  164SAPE  H17Y18436   7.115   4.879   4.272  0.8691 -1.9703 -1.5738
  164SAPE  C31818437   6.935   4.801   4.337 -0.2308  0.4073 -0.5536
  164SAPE  H18X18438   6.830   4.785   4.305  0.2483 -1.8186 -1.1658
  164SAPE  H18Y18439   6.945   4.855   4.434 -1.0733 -1.0893  0.4003
  164SAPE  H18Z18440   6.975   4.698   4.349 -2.3788 -0.3586  0.4850
  165SAPE     N18441   3.926   0.290   1.933  0.0745 -0.2449 -0.1919
  165SAPE   HN118442   3.969   0.313   1.841 -0.9707  1.6656 -0.2587
  165SAPE   HN218443   3.857   0.212   1.934 -1.5585  1.1434  1.2639
  165SAPE   HN318444   3.869   0.372   1.962 -0.0954 -1.1277  2.2163
  165SAPE   C1218445   4.023   0.244   2.037  0.8290 -0.2319 -0.7948
  165SAPE  H12A18446   4.044   0.325   2.109 -1.0659 -1.3059  1.0875
  165SAPE  H12B18447   4.122   0.214   1.997  1.8611 -0.8908  2.0259
  165SAPE   C1118448   3.961   0.123   2.103 -0.5843  0.3399 -0.1022
  165SAPE  H11A18449   3.882   0.168   2.166 -0.5118  0.9491 -0.4439
  165SAPE  H11B18450   4.029   0.074   2.177  0.2195  1.1189 -0.3060
  165SAPE     P18451   3.985  -0.082   1.934 -0.1476 -0.3085  0.2903
  165SAPE   O1318452   3.885  -0.160   1.854  0.0570  0.2134  0.8633
  165SAPE   O1418453   4.106  -0.027   1.866 -0.4568  0.5312 -0.3681
  165SAPE   O1218454   3.904   0.035   2.006 -0.3727  0.5709 -0.2373
  165SAPE   O1118455   4.016  -0.172   2.051  0.3642 -0.1698 -0.1367
  165SAPE    C118456   3.902  -0.222   2.125  0.2799  0.0869  0.0578
  165SAPE    HA18457   3.823  -0.145   2.136  0.2149 -0.1129  1.0295
  165SAPE    HB18458   3.852  -0.313   2.085 -1.3263  0.3067  1.4542
  165SAPE    C218459   3.960  -0.262   2.258 -1.0227  0.7920 -0.3574
  165SAPE    HS18460   4.037  -0.341   2.239 -2.1119 -0.5401  0.5751
  165SAPE   O2118461   3.853  -0.317   2.335 -0.3736 -0.0709 -0.1130
  165SAPE   C2118462   3.819  -0.444   2.315 -0.1267  1.0032  0.7052
  165SAPE   O2218463   3.858  -0.512   2.215 -0.5302  0.0891 -0.2423
  165SAPE   C2218464   3.709  -0.491   2.413 -0.7037  0.2417 -0.1274
  165SAPE   H2R18465   3.695  -0.412   2.490  1.2185 -1.1185  1.7461
  165SAPE   H2S18466   3.617  -0.511   2.355 -1.1562  0.4696  0.4993
  165SAPE    C318467   4.022  -0.147   2.332 -0.2497 -0.2046  0.4551
  165SAPE    HX18468   3.947  -0.066   2.327 -1.0789 -0.9120  1.0635
  165SAPE    HY18469   4.104  -0.112   2.265 -0.9632  0.3294 -0.1553
  165SAPE   O3118470   4.062  -0.180   2.467 -0.1326 -0.8019  0.0549
  165SAPE   C3118471   4.069  -0.072   2.544 -0.6356 -0.4850 -0.1271
  165SAPE   O3218472   4.035   0.043   2.511 -0.0658  0.5214 -0.1718
  165SAPE   C3218473   4.124  -0.115   2.688 -0.3190 -0.2891 -0.1066
  165SAPE   H2X18474   4.233  -0.094   2.675 -0.6919  0.7922 -1.8316
  165SAPE   H2Y18475   4.115  -0.226   2.692  0.8951 -0.3763  1.5535
  165SAPE   C2318476   3.754  -0.618   2.494 -0.4089  0.1255  0.3466
  165SAPE   H3R18477   3.837  -0.583   2.559  2.1033 -2.3433 -1.3493
  165SAPE   H3S18478   3.793  -0.693   2.422  1.5739  2.7848 -1.5554
  165SAPE   C2418479   3.639  -0.661   2.586 -0.1894  0.1425  0.3607
  165SAPE   H4R18480   3.555  -0.715   2.537  1.3220 -1.5181 -0.5465
  165SAPE   H4S18481   3.596  -0.570   2.633 -2.4924 -0.2939 -0.7421
  165SAPE   C2518482   3.701  -0.750   2.686 -0.1278  1.0185 -0.5384
  165SAPE   H5R18483   3.721  -0.851   2.647  1.2557 -0.0702  2.6682
  165SAPE   C2618484   3.727  -0.739   2.816 -0.4417  0.0764  0.2483
  165SAPE   H6R18485   3.767  -0.822   2.876 -0.6027  0.9957  1.6954
  165SAPE   C2718486   3.703  -0.614   2.899 -0.4376 -0.4499 -0.1178
  165SAPE   H7R18487   3.694  -0.647   3.005 -2.3020 -1.3122 -0.4961
  165SAPE   H7S18488   3.602  -0.575   2.874  0.3763  2.6401  0.9318
  165SAPE   C2818489   3.799  -0.492   2.872  0.9078  1.1821 -0.6910
  165SAPE   H8R18490   3.838  -0.487   2.769  0.8841 -1.4892 -0.8811
  165SAPE   C2918491   3.837  -0.408   2.959 -0.3867 -0.5383 -0.3503
  165SAPE   H9R18492   3.905  -0.328   2.925 -0.0818 -0.3984  0.5508
  165SAPE  C21018493   3.797  -0.387   3.101 -0.1553  0.5460 -0.0341
  165SAPE  H10R18494   3.756  -0.483   3.138  0.4586 -0.1089 -1.0035
  165SAPE  H10S18495   3.722  -0.305   3.101  2.2419  3.0420 -3.5968
  165SAPE  C21118496   3.917  -0.349   3.181  0.1301  0.3398 -0.5246
  165SAPE  H11R18497   4.002  -0.302   3.129  1.8220 -1.6951  0.2683
  165SAPE  C21218498   3.938  -0.383   3.305 -0.4231 -0.1519 -0.8377
  165SAPE  H12R18499   4.029  -0.344   3.353 -0.7382  0.5795 -0.8209
  165SAPE  C21318500   3.849  -0.445   3.402  0.1348 -0.1837 -0.0583
  165SAPE  H13R18501   3.904  -0.473   3.495 -1.2747 -1.7051  0.3559
  165SAPE  H13S18502   3.803  -0.536   3.358 -0.1104 -0.6432  1.1122
  165SAPE  C21418503   3.748  -0.350   3.454 -0.3295  0.3417  1.0546
  165SAPE  H14R18504   3.652  -0.363   3.402 -0.3652 -1.1861  1.4583
  165SAPE  C21518505   3.748  -0.285   3.568  0.7378 -0.2109  0.8576
  165SAPE  H15R18506   3.654  -0.229   3.584  0.3187 -0.9814  1.1577
  165SAPE  C21618507   3.866  -0.270   3.670  0.3870  0.3223  0.4774
  165SAPE  H16R18508   3.911  -0.169   3.657  1.1237  0.0037  0.4936
  165SAPE  H16S18509   3.942  -0.349   3.650  0.4394  0.2818  0.8346
  165SAPE  C21718510   3.815  -0.275   3.811  0.2375  0.7278 -0.6681
  165SAPE  H17R18511   3.749  -0.188   3.831 -1.3855 -0.5209 -0.3831
  165SAPE  H17S18512   3.896  -0.267   3.887  0.5230  2.8095 -1.1279
  165SAPE  C21818513   3.722  -0.395   3.847 -0.4769  0.2740 -0.6403
  165SAPE  H18R18514   3.778  -0.491   3.840 -0.1569  0.4505 -0.5474
  165SAPE  H18S18515   3.639  -0.411   3.775  0.1731  0.7923 -1.5318
  165SAPE  C21918516   3.663  -0.382   3.993 -0.3824  0.0208 -0.3222
  165SAPE  H19R18517   3.577  -0.312   3.984  0.1353  0.7975  0.6361
  165SAPE  H19S18518   3.727  -0.341   4.074 -0.6497  0.9168 -0.5483
  165SAPE  C22018519   3.602  -0.518   4.030  0.4308  0.1219  0.2645
  165SAPE  H20R18520   3.554  -0.503   4.130 -1.4563  0.1277 -0.5960
  165SAPE  H20S18521   3.687  -0.590   4.036  1.2648  0.9255 -1.4334
  165SAPE  H20T18522   3.528  -0.554   3.955  0.4799  1.0521 -0.2349
  165SAPE   C3318523   4.066  -0.054   2.820  0.1135  0.2511  0.4206
  165SAPE   H3X18524   3.966  -0.099   2.841  0.5153 -0.7630  0.2512
  165SAPE   H3Y18525   4.049   0.055   2.812 -0.7694  0.1564  0.8338
  165SAPE   C3418526   4.161  -0.092   2.930 -0.1737 -0.1576  0.7953
  165SAPE   H4X18527   4.256  -0.050   2.890 -0.8469 -0.6915 -1.5724
  165SAPE   H4Y18528   4.164  -0.203   2.940  0.4585 -0.2418 -0.1209
  165SAPE   C3518529   4.112  -0.034   3.065 -0.0140 -0.1326  0.1797
  165SAPE   H5X18530   4.005  -0.057   3.082  0.4608 -1.0171  2.3934
  165SAPE   H5Y18531   4.122   0.076   3.051 -2.1049  0.0183 -0.4625
  165SAPE   C3618532   4.199  -0.090   3.180  0.0839 -0.2823  0.1291
  165SAPE   H6X18533   4.310  -0.087   3.169  0.0403 -1.1082 -0.7369
  165SAPE   H6Y18534   4.174  -0.199   3.180 -0.1033 -0.3110  2.7017
  165SAPE   C3718535   4.166  -0.033   3.317  0.2399 -0.3683  0.6000
  165SAPE   H7X18536   4.061  -0.069   3.326  0.4718 -2.1909 -2.4799
  165SAPE   H7Y18537   4.178   0.077   3.313  0.5816 -0.4268 -0.0012
  165SAPE   C3818538   4.249  -0.092   3.431 -0.8539 -0.2588  0.1963
  165SAPE   H8X18539   4.358  -0.067   3.432 -0.8511 -0.2563  1.0504
  165SAPE   H8Y18540   4.245  -0.203   3.418 -0.0427 -0.1123 -1.6587
  165SAPE   C3918541   4.186  -0.060   3.567 -0.1543 -0.1945  0.4161
  165SAPE   H9X18542   4.212  -0.139   3.640  0.3233  1.1592  1.7603
  165SAPE   H9Y18543   4.076  -0.048   3.562 -0.0587  1.9061  2.1023
  165SAPE  C31018544   4.242   0.075   3.629 -0.3131  0.1699 -0.9240
  165SAPE  H10X18545   4.227   0.147   3.546  1.7225 -0.8982 -2.3131
  165SAPE  H10Y18546   4.353   0.070   3.631 -0.3218  0.1582  0.2551
  165SAPE  C31118547   4.182   0.119   3.759 -0.5993 -0.0724 -0.2424
  165SAPE  H11X18548   4.232   0.048   3.827  1.3737  2.2250  0.8519
  165SAPE  H11Y18549   4.073   0.097   3.753 -0.3955 -0.6766 -2.8243
  165SAPE  C31218550   4.202   0.262   3.803 -0.1723  0.2143 -0.2572
  165SAPE  H12X18551   4.142   0.285   3.893  0.3054  1.4933 -0.2428
  165SAPE  H12Y18552   4.151   0.320   3.723  1.9250 -0.4823 -2.2176
  165SAPE  C31318553   4.346   0.306   3.828 -0.7856  0.7910  0.0892
  165SAPE  H13X18554   4.357   0.400   3.770 -1.8277 -1.0886 -3.4323
  165SAPE  H13Y18555   4.414   0.234   3.778 -1.3742  0.1625  0.1709
  165SAPE  C31418556   4.388   0.337   3.971  0.3173 -0.2492  0.1063
  165SAPE  H14X18557   4.494   0.367   3.983  0.3134  0.0053 -0.4573
  165SAPE  H14Y18558   4.371   0.240   4.022 -0.1161 -2.3418 -3.6665
  165SAPE  C31518559   4.318   0.466   4.040  0.2731  0.0519 -0.2590
  165SAPE  H15X18560   4.212   0.435   4.052 -0.3773  1.2072 -2.4284
  165SAPE  H15Y18561   4.330   0.557   3.978 -2.0382 -0.9243 -2.3614
  165SAPE  C31618562   4.364   0.491   4.186  0.0723 -0.4353 -0.3025
  165SAPE  H16X18563   4.471   0.522   4.184 -0.0396  0.0473  0.6448
  165SAPE  H16Y18564   4.358   0.401   4.252 -1.4988  0.9760  1.5845
  165SAPE  C31718565   4.285   0.602   4.246  0.2060  0.3399  0.3929
  165SAPE  H17X18566   4.307   0.598   4.355  3.7404 -0.6525 -0.2504
  165SAPE  H17Y18567   4.180   0.576   4.220  0.8271 -1.0217 -0.9379
  165SAPE  C31818568   4.324   0.737   4.188  0.5728 -0.4683  0.1061
  165SAPE  H18X18569   4.432   0.749   4.211  0.3686 -0.3495  1.0310
  165SAPE  H18Y18570   4.250   0.815   4.218 -1.1103 -1.4222 -1.3513
  165SAPE  H18Z18571   4.320   0.742   4.077 -0.3775  1.4057  0.1816
  166SAPE     N18572   6.737   5.185   2.146  1.1299 -0.1032 -0.3937
  166SAPE   HN118573   6.652   5.185   2.087  1.7417  2.6139 -1.4239
  166SAPE   HN218574   6.777   5.281   2.151 -1.1206  0.9073 -0.9603
  166SAPE   HN318575   6.810   5.130   2.096  2.3357 -1.0710  2.2276
  166SAPE   C1218576   6.714   5.124   2.287 -0.2361 -0.6540  0.3352
  166SAPE  H12A18577   6.677   5.214   2.339 -2.2270 -0.5481 -1.1205
  166SAPE  H12B18578   6.812   5.094   2.330  1.0448  1.5050 -0.9175
  166SAPE   C1118579   6.604   5.012   2.287 -0.0133 -0.1401  0.4156
  166SAPE  H11A18580   6.570   4.988   2.390  1.5469 -0.3588  0.8981
  166SAPE  H11B18581   6.651   4.921   2.245 -1.1342  0.3078 -2.0154
  166SAPE     P18582   6.368   4.978   2.180 -0.1591 -0.1701  0.0268
  166SAPE   O1318583   6.310   5.027   2.055 -0.2089 -0.2949  0.0228
  166SAPE   O1418584   6.396   4.830   2.177  0.5867  0.4480  0.2596
  166SAPE   O1218585   6.496   5.060   2.204  0.1906 -0.6548 -0.3889
  166SAPE   O1118586   6.278   5.014   2.301  0.0148  0.4044 -0.9975
  166SAPE    C118587   6.139   4.971   2.305 -1.1363  0.9549  0.7361
  166SAPE    HA18588   6.078   5.036   2.239 -0.3378  1.2415  0.2668
  166SAPE    HB18589   6.135   4.861   2.286  1.5895  0.4698  2.4139
  166SAPE    C218590   6.078   4.988   2.445  0.9833 -0.4996  0.0475
  166SAPE    HS18591   6.055   5.094   2.471 -1.4650 -1.4739  2.2778
  166SAPE   O2118592   6.159   4.918   2.549  0.2600 -0.3134 -0.0509
  166SAPE   C2118593   6.232   4.992   2.628 -0.0542 -0.7703  0.5081
  166SAPE   O2218594   6.248   5.109   2.614  0.3571  0.0540 -0.1403
  166SAPE   C2218595   6.296   4.898   2.735 -0.6436  0.2281  0.4719
  166SAPE   H2R18596   6.288   4.791   2.708  1.4072 -0.6368  2.8942
  166SAPE   H2S18597   6.404   4.922   2.726 -0.3084 -2.0369 -3.5088
  166SAPE    C318598   5.935   4.932   2.440  0.2737 -0.1669 -0.5310
  166SAPE    HX18599   5.946   4.824   2.418 -0.1615  0.0576 -1.9689
  166SAPE    HY18600   5.875   4.982   2.360 -1.1125 -1.7445 -0.5453
  166SAPE   O3118601   5.881   4.951   2.577 -0.2824 -0.3240  0.0982
  166SAPE   C3118602   5.750   4.928   2.579 -0.4345  0.2221  0.6244
  166SAPE   O3218603   5.687   4.878   2.485  0.8919 -0.0512  0.0149
  166SAPE   C3218604   5.693   4.967   2.716  1.0350 -0.5684 -0.3680
  166SAPE   H2X18605   5.584   4.979   2.701  0.6494 -1.2569  1.6082
  166SAPE   H2Y18606   5.737   5.066   2.743 -1.9729  0.5904  0.6446
  166SAPE   C2318607   6.241   4.916   2.884 -0.4295  0.9770 -0.4260
  166SAPE   H3R18608   6.244   5.023   2.916  0.2685  1.4839 -2.0545
  166SAPE   H3S18609   6.292   4.861   2.966 -1.2139  1.8658  0.6837
  166SAPE   C2418610   6.096   4.869   2.894 -0.0119 -0.2217 -0.0859
  166SAPE   H4R18611   6.089   4.760   2.873 -0.4245 -0.5077  1.4002
  166SAPE   H4S18612   6.033   4.913   2.814 -0.8203 -0.1587  0.5745
  166SAPE   C2518613   6.028   4.913   3.020  0.7027  0.0280 -0.0866
  166SAPE   H5R18614   5.977   5.010   3.006  0.5506 -0.2127 -1.3347
  166SAPE   C2618615   6.033   4.852   3.137 -0.3406  0.0193  0.2865
  166SAPE   H6R18616   5.980   4.889   3.226 -0.6009 -1.3173  0.7152
  166SAPE   C2718617   6.130   4.741   3.159 -0.4172  0.4241  0.7509
  166SAPE   H7R18618   6.202   4.731   3.075  0.4372  1.9848  1.2586
  166SAPE   H7S18619   6.065   4.651   3.166 -1.5342  1.2074  0.8181
  166SAPE   C2818620   6.211   4.757   3.289  0.2477  0.0208 -0.0534
  166SAPE   H8R18621   6.284   4.839   3.285 -1.7799  1.9581  0.7918
  166SAPE   C2918622   6.193   4.684   3.401  0.7107 -0.2854 -0.6240
  166SAPE   H9R18623   6.241   4.722   3.492  1.6854  0.5977 -1.4755
  166SAPE  C21018624   6.101   4.566   3.424 -0.2402 -0.0169 -0.0671
  166SAPE  H10R18625   6.149   4.486   3.484  0.0743 -0.3680 -0.7841
  166SAPE  H10S18626   6.082   4.516   3.327  1.0398  0.8171 -0.7688
  166SAPE  C21118627   5.966   4.602   3.488 -0.5894  0.8186 -0.0440
  166SAPE  H11R18628   5.946   4.709   3.479  1.8645  1.3208 -0.3412
  166SAPE  C21218629   5.897   4.515   3.564  0.1699 -0.5939 -0.1462
  166SAPE  H12R18630   5.808   4.551   3.617  0.5113 -0.9867  0.7283
  166SAPE  C21318631   5.935   4.375   3.605 -0.3405  0.8818  0.0201
  166SAPE  H13R18632   6.044   4.362   3.627 -0.6687 -1.3778  0.5824
  166SAPE  H13S18633   5.919   4.312   3.515  1.0755  1.3735 -0.6200
  166SAPE  C21418634   5.856   4.329   3.726  0.3147 -0.3102  0.4030
  166SAPE  H14R18635   5.751   4.319   3.695  0.1899  1.7748 -0.0269
  166SAPE  C21518636   5.905   4.264   3.835  0.1396  0.3321 -0.0287
  166SAPE  H15R18637   5.828   4.222   3.902 -0.1520  0.3817 -0.3313
  166SAPE  C21618638   6.046   4.266   3.887  0.4192  0.2991  0.2373
  166SAPE  H16R18639   6.104   4.337   3.824  1.2790 -3.1193 -3.2263
  166SAPE  H16S18640   6.091   4.169   3.855 -2.6026 -0.0736 -3.6999
  166SAPE  C21718641   6.066   4.305   4.033  0.0456 -0.0081 -0.4868
  166SAPE  H17R18642   6.008   4.396   4.057 -3.2501 -1.9799 -0.3331
  166SAPE  H17S18643   6.173   4.310   4.064 -0.4615 -0.4466  1.5119
  166SAPE  C21818644   6.002   4.205   4.141  0.2076 -0.4378 -0.2253
  166SAPE  H18R18645   6.065   4.114   4.140  0.5626 -0.1914 -0.2447
  166SAPE  H18S18646   5.909   4.176   4.087  1.2795 -4.1894 -0.3043
  166SAPE  C21918647   5.986   4.272   4.278 -0.2542  0.8062  0.4151
  166SAPE  H19R18648   5.946   4.374   4.262 -1.4911  0.5073  1.4586
  166SAPE  H19S18649   6.080   4.278   4.338  0.3263  1.8797 -0.5454
  166SAPE  C22018650   5.884   4.198   4.363  0.2204  0.7635  0.6435
  166SAPE  H20R18651   5.925   4.098   4.387  0.3597  0.3903 -0.9932
  166SAPE  H20S18652   5.786   4.172   4.317  0.7690 -2.6610  1.1468
  166SAPE  H20T18653   5.865   4.249   4.460 -0.0250 -0.8192  1.4486
  166SAPE   C3318654   5.718   4.878   2.841 -0.0886  0.4245 -0.0618
  166SAPE   H3X18655   5.742   4.946   2.925  0.6795 -0.5097  0.4947
  166SAPE   H3Y18656   5.815   4.829   2.818 -0.6301 -0.4810 -0.4789
  166SAPE   C3418657   5.605   4.788   2.881  0.0871 -0.2970  0.2629
  166SAPE   H4X18658   5.588   4.722   2.794 -0.3534  0.8454 -0.5304
  166SAPE   H4Y18659   5.514   4.850   2.893 -0.8474 -0.6687 -3.5923
  166SAPE   C3518660   5.634   4.711   3.017  0.1379 -0.0259 -0.1470
  166SAPE   H5X18661   5.727   4.651   3.013 -0.8203 -1.6397  0.5188
  166SAPE   H5Y18662   5.557   4.631   3.023  1.3658 -1.2393 -0.1631
  166SAPE   C3618663   5.624   4.808   3.134  0.3035  0.6245  0.4544
  166SAPE   H6X18664   5.528   4.863   3.143 -0.3598 -0.4017 -0.1126
  166SAPE   H6Y18665   5.708   4.880   3.129  1.3539 -0.6389 -1.6893
  166SAPE   C3718666   5.633   4.733   3.276 -0.4115  0.4637 -0.5519
  166SAPE   H7X18667   5.713   4.656   3.273 -0.5040  0.3694 -0.5959
  166SAPE   H7Y18668   5.540   4.674   3.293  0.5265 -2.3068 -3.9183
  166SAPE   C3818669   5.652   4.835   3.396  0.0469  0.2342 -0.5933
  166SAPE   H8X18670   5.595   4.928   3.375 -0.1940  1.3275  3.9737
  166SAPE   H8Y18671   5.760   4.859   3.399  0.3561 -1.1833  1.4433
  166SAPE   C3918672   5.612   4.770   3.533 -0.5067  0.5413  0.4574
  166SAPE   H9X18673   5.659   4.669   3.532 -2.1418 -0.3143 -2.4273
  166SAPE   H9Y18674   5.504   4.753   3.553 -0.3379 -0.5908  0.4831
  166SAPE  C31018675   5.670   4.857   3.646 -0.1215  0.9159  0.3524
  166SAPE  H10X18676   5.777   4.877   3.624  0.1894 -1.1887 -0.2987
  166SAPE  H10Y18677   5.661   4.804   3.743  1.6831 -0.6149 -0.2561
  166SAPE  C31118678   5.587   4.994   3.657 -0.3183  0.1406  0.5406
  166SAPE  H11X18679   5.484   4.961   3.682 -1.0690  0.3154 -2.0173
  166SAPE  H11Y18680   5.590   5.062   3.569 -1.6859 -0.2330  0.1806
  166SAPE  C31218681   5.637   5.091   3.765  0.0682  0.3002 -0.1234
  166SAPE  H12X18682   5.747   5.102   3.753  0.5573 -1.8438  1.7512
  166SAPE  H12Y18683   5.635   5.045   3.866  1.7221 -3.9409 -1.7906
  166SAPE  C31318684   5.577   5.236   3.774 -0.5625  0.7305 -0.4522
  166SAPE  H13X18685   5.482   5.240   3.831 -0.5226 -0.3156 -0.2897
  166SAPE  H13Y18686   5.567   5.265   3.668  2.2210 -2.1186 -1.6659
  166SAPE  C31418687   5.687   5.328   3.833  0.0495  0.3831  0.2508
  166SAPE  H14X18688   5.765   5.342   3.755  1.0535  1.7667  1.4594
  166SAPE  H14Y18689   5.718   5.290   3.933 -0.0986  2.2091  1.0216
  166SAPE  C31518690   5.629   5.473   3.845  0.4049  0.7403 -0.4481
  166SAPE  H15X18691   5.561   5.473   3.933 -1.5557  1.9502 -1.8748
  166SAPE  H15Y18692   5.580   5.490   3.747  0.8243  2.9771 -0.3379
  166SAPE  C31618693   5.737   5.580   3.871  0.9913  0.0856 -0.3652
  166SAPE  H16X18694   5.695   5.682   3.888 -0.0830 -0.6866  2.0197
  166SAPE  H16Y18695   5.812   5.594   3.790  2.4484  1.6849  1.1649
  166SAPE  C31718696   5.821   5.543   3.996  0.3754 -0.1704  0.1111
  166SAPE  H17X18697   5.895   5.461   3.982  1.0505  0.5889 -0.8519
  166SAPE  H17Y18698   5.746   5.524   4.076 -0.5212  1.1018 -0.3885
  166SAPE  C31818699   5.911   5.669   4.018  0.1639  0.2500  0.4996
  166SAPE  H18X18700   5.843   5.748   4.057  0.0924  0.5198 -0.1611
  166SAPE  H18Y18701   5.951   5.692   3.917  1.6887  0.4775  1.1222
  166SAPE  H18Z18702   6.003   5.652   4.079  1.5686  1.4343 -1.1599
  167SAPE     N18703   6.712   4.298   1.898  0.2794  0.1286  0.1861
  167SAPE   HN118704   6.757   4.338   1.813 -0.1978  1.6759  0.6121
  167SAPE   HN218705   6.780   4.235   1.945  1.7642  1.4020 -0.1817
  167SAPE   HN318706   6.639   4.235   1.860  0.1653 -1.5819  2.9691
  167SAPE   C1218707   6.685   4.399   1.997  0.0875  0.3052 -1.3691
  167SAPE  H12A18708   6.610   4.474   1.965 -2.2801 -2.7018 -3.4361
  167SAPE  H12B18709   6.783   4.451   2.012 -0.5570  1.0117  0.6807
  167SAPE   C1118710   6.637   4.325   2.125  0.2520 -0.0926 -0.2960
  167SAPE  H11A18711   6.616   4.408   2.196  1.7238 -0.0906  0.1625
  167SAPE  H11B18712   6.723   4.276   2.174 -0.5232  1.1887  2.5684
  167SAPE     P18713   6.380   4.298   2.100  0.3180 -0.1482  0.4690
  167SAPE   O1318714   6.369   4.397   2.207  0.3552  0.9004 -0.2180
  167SAPE   O1418715   6.359   4.350   1.963 -0.4997 -0.3619  0.0856
  167SAPE   O1218716   6.524   4.235   2.103  0.0274  0.4779  0.2347
  167SAPE   O1118717   6.282   4.180   2.130  0.2656  0.3128 -0.0734
  167SAPE    C118718   6.311   4.047   2.082  0.3065 -0.3661  0.1242
  167SAPE    HA18719   6.223   4.013   2.022  0.9297 -2.4613  0.3226
  167SAPE    HB18720   6.395   4.046   2.009  2.6690  0.9511  2.6467
  167SAPE    C218721   6.350   3.952   2.194  0.4041  0.5012  0.5146
  167SAPE    HS18722   6.366   3.856   2.140 -3.4975  1.3880 -2.6423
  167SAPE   O2118723   6.235   3.946   2.279 -0.7187 -0.3144  0.0952
  167SAPE   C2118724   6.221   3.833   2.338 -0.0072 -0.3551  0.0602
  167SAPE   O2218725   6.282   3.732   2.306  0.2656  0.9628 -0.2715
  167SAPE   C2218726   6.128   3.847   2.454 -0.1460 -0.3724  0.3919
  167SAPE   H2R18727   6.085   3.949   2.456  1.1853  0.2460 -0.6372
  167SAPE   H2S18728   6.048   3.773   2.434 -1.6209  1.9136 -3.3805
  167SAPE    C318729   6.478   3.991   2.270  0.0789  0.1593  0.3450
  167SAPE    HX18730   6.465   4.093   2.311 -0.3199  1.3561 -2.5132
  167SAPE    HY18731   6.550   3.994   2.185 -2.7313 -0.0835 -2.2151
  167SAPE   O3118732   6.520   3.900   2.361 -0.3864  0.5162  0.3809
  167SAPE   C3118733   6.619   3.943   2.446  0.2147  1.0159 -0.3275
  167SAPE   O3218734   6.684   4.047   2.433 -0.2259  0.3827  0.0014
  167SAPE   C3218735   6.655   3.835   2.553 -0.2488 -0.8127  0.6840
  167SAPE   H2X18736   6.588   3.857   2.639  0.3018 -2.6177  1.6276
  167SAPE   H2Y18737   6.761   3.848   2.584  0.6081 -1.0468 -1.9054
  167SAPE   C2318738   6.192   3.836   2.591 -0.5110  0.2101  0.8620
  167SAPE   H3R18739   6.300   3.863   2.590 -0.6147  1.0679 -2.6779
  167SAPE   H3S18740   6.205   3.729   2.619 -0.1711  0.2296  0.7821
  167SAPE   C2418741   6.113   3.898   2.699 -0.1681 -0.2718 -0.5724
  167SAPE   H4R18742   6.014   3.849   2.705  1.2675 -3.2423  2.3657
  167SAPE   H4S18743   6.100   4.007   2.686 -0.8051 -0.3368 -0.4888
  167SAPE   C2518744   6.167   3.876   2.837  0.0800  0.3425 -0.1887
  167SAPE   H5R18745   6.254   3.938   2.862  1.3449 -1.4955  0.2108
  167SAPE   C2618746   6.109   3.802   2.935 -0.3466  0.1620  0.4408
  167SAPE   H6R18747   6.170   3.809   3.027  1.1177  3.4216 -0.6291
  167SAPE   C2718748   5.981   3.715   2.942  0.4893 -0.0227 -0.1348
  167SAPE   H7R18749   5.994   3.610   2.976  0.7296 -0.1901 -0.7329
  167SAPE   H7S18750   5.963   3.683   2.837  2.4662  0.3742 -0.6383
  167SAPE   C2818751   5.847   3.774   2.988 -0.1541  0.2969  0.6909
  167SAPE   H8R18752   5.767   3.759   2.914 -1.0452 -3.1713  2.1269
  167SAPE   C2918753   5.822   3.829   3.105 -0.4047  0.0773  0.0341
  167SAPE   H9R18754   5.727   3.883   3.114  0.7182  2.0005  0.8839
  167SAPE  C21018755   5.931   3.838   3.210  0.3733  0.5330 -0.3419
  167SAPE  H10R18756   5.998   3.920   3.173 -1.4021  1.1207 -2.4475
  167SAPE  H10S18757   6.000   3.751   3.216  0.7222  0.8785  1.3178
  167SAPE  C21118758   5.879   3.887   3.346  0.1148 -0.9826 -0.7624
  167SAPE  H11R18759   5.844   3.991   3.341  1.4235 -0.5729 -2.0277
  167SAPE  C21218760   5.882   3.820   3.461 -0.3874 -0.5049 -0.3473
  167SAPE  H12R18761   5.847   3.871   3.552  1.1046  1.7898 -0.9696
  167SAPE  C21318762   5.928   3.678   3.481  0.0156 -0.0975 -0.3039
  167SAPE  H13R18763   5.930   3.621   3.386 -0.1035 -4.4853  2.0637
  167SAPE  H13S18764   5.847   3.629   3.539  0.2671  0.8793  0.9336
  167SAPE  C21418765   6.063   3.685   3.548 -0.0040 -0.5959 -0.8866
  167SAPE  H14R18766   6.141   3.729   3.483  0.3168 -1.5579 -1.1614
  167SAPE  C21518767   6.086   3.647   3.675 -0.1214  0.1579  0.7193
  167SAPE  H15R18768   6.189   3.667   3.706 -0.1839 -1.0530  1.8210
  167SAPE  C21618769   5.994   3.588   3.780  0.1845 -0.3988  0.3191
  167SAPE  H16R18770   6.026   3.484   3.806  0.4060 -0.2490  0.6576
  167SAPE  H16S18771   5.885   3.583   3.761 -0.0630 -0.2446  1.6048
  167SAPE  C21718772   6.022   3.660   3.915 -0.2585 -0.8036 -0.4182
  167SAPE  H17R18773   6.115   3.612   3.950 -0.4141 -0.7111  0.1342
  167SAPE  H17S18774   5.949   3.632   3.994  1.0083  0.0778  1.1327
  167SAPE  C21818775   6.014   3.816   3.912  0.6577  0.0293 -0.6748
  167SAPE  H18R18776   6.091   3.858   3.844  1.6465  2.2454  1.6692
  167SAPE  H18S18777   6.044   3.861   4.008 -0.1431 -0.7090 -0.0620
  167SAPE  C21918778   5.878   3.877   3.867 -0.0860 -0.0067 -0.4201
  167SAPE  H19R18779   5.825   3.808   3.798 -1.4629 -0.0952  0.6829
  167SAPE  H19S18780   5.887   3.970   3.806  0.1605  1.5774  1.8926
  167SAPE  C22018781   5.782   3.906   3.986  0.1348  0.1377  0.5632
  167SAPE  H20R18782   5.759   3.807   4.031  0.0561  0.4273  1.1725
  167SAPE  H20S18783   5.690   3.955   3.947 -0.6671 -0.6670  1.3974
  167SAPE  H20T18784   5.826   3.979   4.057  0.3847  1.5531 -0.9840
  167SAPE   C3318785   6.646   3.691   2.505  0.7562 -0.8004  0.1069
  167SAPE   H3X18786   6.725   3.670   2.431 -0.1089 -0.8125 -0.8305
  167SAPE   H3Y18787   6.557   3.682   2.439 -0.2786 -0.1072  1.3469
  167SAPE   C3418788   6.646   3.583   2.618 -0.0275 -0.7331  0.1626
  167SAPE   H4X18789   6.726   3.603   2.692  0.1136 -1.1419  0.1217
  167SAPE   H4Y18790   6.654   3.482   2.574 -0.4523  0.0669 -1.9133
  167SAPE   C3518791   6.513   3.585   2.700  0.5906  0.4403 -0.3741
  167SAPE   H5X18792   6.426   3.570   2.633  0.1269 -1.1503  0.5359
  167SAPE   H5Y18793   6.501   3.691   2.733  1.1012 -0.0577  1.4855
  167SAPE   C3618794   6.501   3.499   2.821  0.4219 -0.8290  0.5975
  167SAPE   H6X18795   6.598   3.508   2.875  1.1550  0.3677 -0.8245
  167SAPE   H6Y18796   6.490   3.395   2.784 -1.4041 -0.2454 -0.6462
  167SAPE   C3718797   6.377   3.528   2.902 -0.2243 -0.1606 -0.4776
  167SAPE   H7X18798   6.291   3.514   2.833  0.2518  0.7546 -1.2905
  167SAPE   H7Y18799   6.378   3.635   2.932  1.6493 -1.0200  3.0206
  167SAPE   C3818800   6.375   3.453   3.029 -0.0861 -0.5262 -0.5684
  167SAPE   H8X18801   6.468   3.481   3.084 -0.1154 -0.4640 -0.5502
  167SAPE   H8Y18802   6.380   3.345   3.006  2.7808 -0.5629 -0.1280
  167SAPE   C3918803   6.243   3.485   3.108 -0.0065  0.1060  0.3272
  167SAPE   H9X18804   6.160   3.482   3.035 -0.1379 -1.7473  0.5102
  167SAPE   H9Y18805   6.244   3.589   3.148 -0.4604 -0.5616  2.1787
  167SAPE  C31018806   6.208   3.388   3.220  0.3198  0.7256  0.4045
  167SAPE  H10X18807   6.201   3.290   3.167  0.3207 -0.2418  2.1300
  167SAPE  H10Y18808   6.109   3.421   3.257  1.7074  4.7966  0.9725
  167SAPE  C31118809   6.316   3.381   3.331  0.0840 -0.5339 -0.1913
  167SAPE  H11X18810   6.329   3.479   3.380 -0.0404 -0.0014 -1.1887
  167SAPE  H11Y18811   6.408   3.362   3.271 -1.0624 -1.9088 -1.6178
  167SAPE  C31218812   6.281   3.268   3.442 -0.2864  0.8992 -0.1478
  167SAPE  H12X18813   6.338   3.178   3.410  0.8795  1.4746  0.2615
  167SAPE  H12Y18814   6.172   3.249   3.434 -0.1650 -0.4842  1.0507
  167SAPE  C31318815   6.314   3.309   3.589 -0.2882  0.4193  0.1494
  167SAPE  H13X18816   6.274   3.410   3.615 -1.6853 -0.5342  1.8629
  167SAPE  H13Y18817   6.425   3.313   3.602 -0.4816 -0.1983  2.4388
  167SAPE  C31418818   6.258   3.208   3.691 -0.5917 -0.4294 -0.1422
  167SAPE  H14X18819   6.307   3.110   3.674  2.3393  1.1760 -1.8446
  167SAPE  H14Y18820   6.153   3.189   3.659 -0.2741 -1.1389 -0.7863
  167SAPE  C31518821   6.265   3.251   3.837  0.3549 -0.6695 -0.1815
  167SAPE  H15X18822   6.230   3.355   3.855  1.5295 -0.3283  0.2662
  167SAPE  H15Y18823   6.373   3.257   3.862  0.0824  0.4723  0.8558
  167SAPE  C31618824   6.200   3.146   3.921  0.9536 -0.2833  0.1591
  167SAPE  H16X18825   6.247   3.046   3.909 -0.5438 -0.9252 -0.4874
  167SAPE  H16Y18826   6.097   3.132   3.883  0.1419 -0.0697  2.1422
  167SAPE  C31718827   6.189   3.183   4.076 -0.3909 -0.1809  0.0653
  167SAPE  H17X18828   6.128   3.275   4.087 -1.2400 -0.3269 -2.8241
  167SAPE  H17Y18829   6.288   3.205   4.123  0.2015 -0.9009 -0.8194
  167SAPE  C31818830   6.121   3.064   4.154  1.0033 -0.0847 -0.1070
  167SAPE  H18X18831   6.174   2.971   4.122 -0.0933 -0.8462  0.2682
  167SAPE  H18Y18832   6.012   3.069   4.136  0.8971 -0.5499  0.3813
  167SAPE  H18Z18833   6.134   3.064   4.264 -0.2127 -0.7748  0.0531
  168SAPE     N18834   3.218   5.066   2.317 -0.8576 -0.2437  0.4210
  168SAPE   HN118835   3.256   4.982   2.268  0.1070  1.3636 -1.7810
  168SAPE   HN218836   3.137   5.035   2.373 -0.1891  0.2886  1.7113
  168SAPE   HN318837   3.187   5.137   2.247 -0.8649  1.2465  1.8685
  168SAPE   C1218838   3.319   5.120   2.415  0.1808  0.4007  0.3606
  168SAPE  H12A18839   3.373   5.039   2.468 -0.1515  0.2144  0.4239
  168SAPE  H12B18840   3.263   5.183   2.487  1.6830  0.9512  1.0624
  168SAPE   C1118841   3.417   5.201   2.334 -0.9034  0.2668 -0.9817
  168SAPE  H11A18842   3.481   5.261   2.402 -1.8227  1.0792 -0.8040
  168SAPE  H11B18843   3.353   5.280   2.289 -0.6494  0.9639 -0.1477
  168SAPE     P18844   3.584   5.192   2.130 -0.5070 -0.4325 -0.3111
  168SAPE   O1318845   3.692   5.096   2.100  0.1774 -0.5767  0.8846
  168SAPE   O1418846   3.505   5.241   2.015  0.4169  0.6440  0.2552
  168SAPE   O1218847   3.493   5.133   2.240  0.2891 -0.6883  0.5611
  168SAPE   O1118848   3.651   5.311   2.208  0.0921 -0.0914  0.1063
  168SAPE    C118849   3.770   5.287   2.291  0.1977 -0.0102 -0.2851
  168SAPE    HA18850   3.731   5.227   2.376  1.3504  1.2454  1.1703
  168SAPE    HB18851   3.847   5.229   2.236  0.0530 -0.3087 -0.1731
  168SAPE    C218852   3.856   5.408   2.362  0.1742 -0.0761 -0.5989
  168SAPE    HS18853   3.931   5.362   2.429  0.1992  1.7763  0.7205
  168SAPE   O2118854   3.769   5.478   2.449  0.3756 -0.6987  0.3762
  168SAPE   C2118855   3.760   5.431   2.578 -0.1400 -0.2255  0.6540
  168SAPE   O2218856   3.821   5.335   2.618  0.3407 -0.2567  0.1073
  168SAPE   C2218857   3.632   5.490   2.636 -0.8045  0.1392 -0.4961
  168SAPE   H2R18858   3.541   5.454   2.584 -0.6730  2.4494 -2.4588
  168SAPE   H2S18859   3.620   5.450   2.739 -2.3101 -1.3963 -1.2240
  168SAPE    C318860   3.909   5.501   2.259 -0.3149  0.3645  0.3294
  168SAPE    HX18861   3.836   5.551   2.191 -1.4413  0.1021  1.2973
  168SAPE    HY18862   3.980   5.446   2.193 -1.6588  0.2722 -1.0958
  168SAPE   O3118863   3.985   5.593   2.329 -0.1052  0.1093  0.2422
  168SAPE   C3118864   3.944   5.720   2.337  0.6056 -0.9313  0.4411
  168SAPE   O3218865   3.828   5.757   2.321 -0.3511 -0.0713 -0.1336
  168SAPE   C3218866   4.055   5.817   2.373  0.0606  0.7643  0.0751
  168SAPE   H2X18867   4.020   5.920   2.393 -0.5852  0.3159  1.3365
  168SAPE   H2Y18868   4.127   5.821   2.288 -1.2525  0.3489 -1.0985
  168SAPE   C2318869   3.635   5.638   2.641 -0.0754 -0.0607 -0.1177
  168SAPE   H3R18870   3.617   5.673   2.538  2.0260  0.5733 -0.3034
  168SAPE   H3S18871   3.736   5.665   2.676 -0.9905  1.6403  1.3695
  168SAPE   C2418872   3.524   5.687   2.740 -0.0798  0.0441  0.2184
  168SAPE   H4R18873   3.551   5.792   2.764 -0.1788 -0.0298  0.6699
  168SAPE   H4S18874   3.524   5.634   2.838  0.2812  0.7028  0.5798
  168SAPE   C2518875   3.389   5.687   2.675  0.5298 -0.1300  0.3013
  168SAPE   H5R18876   3.379   5.744   2.582 -1.2177 -0.8295  0.0408
  168SAPE   C2618877   3.288   5.621   2.733 -0.5041  0.0601  0.1608
  168SAPE   H6R18878   3.189   5.620   2.683 -1.1953 -0.9904  1.4689
  168SAPE   C2718879   3.290   5.542   2.867 -0.3507 -0.5669  0.4383
  168SAPE   H7R18880   3.303   5.615   2.950 -0.9578 -1.5683  1.4524
  168SAPE   H7S18881   3.385   5.485   2.872  1.3363  1.8526 -1.4921
  168SAPE   C2818882   3.166   5.454   2.881  0.2611  0.2377  0.4570
  168SAPE   H8R18883   3.136   5.415   2.783  1.2507 -1.2339  0.7019
  168SAPE   C2918884   3.092   5.430   2.989 -0.4038  0.2366  0.7328
  168SAPE   H9R18885   3.003   5.365   2.985  0.2247 -0.6714  1.3926
  168SAPE  C21018886   3.119   5.472   3.125  0.6009 -0.3821 -1.2206
  168SAPE  H10R18887   3.043   5.547   3.156  3.2484  1.3401  1.7381
  168SAPE  H10S18888   3.218   5.520   3.138  0.4444 -0.5663  1.0069
  168SAPE  C21118889   3.116   5.363   3.232 -0.2386 -0.2169 -0.4677
  168SAPE  H11R18890   3.125   5.258   3.202  0.0915 -0.6195  0.9341
  168SAPE  C21218891   3.099   5.382   3.361 -0.8749 -0.0327  0.3667
  168SAPE  H12R18892   3.107   5.291   3.423  1.0480 -0.2315 -0.1215
  168SAPE  C21318893   3.079   5.509   3.430 -0.3997  0.2026 -0.7840
  168SAPE  H13R18894   3.068   5.595   3.360  1.7253  0.3942 -0.9437
  168SAPE  H13S18895   3.168   5.535   3.491  1.0252 -0.4313 -2.4979
  168SAPE  C21418896   2.956   5.508   3.516  0.1087  0.4900 -0.0297
  168SAPE  H14R18897   2.877   5.470   3.450  0.1500 -2.8458  1.6324
  168SAPE  C21518898   2.948   5.539   3.648 -0.0404 -0.1498  0.2497
  168SAPE  H15R18899   2.844   5.549   3.684  0.2330  2.8970  0.4271
  168SAPE  C21618900   3.060   5.588   3.738 -0.2994 -0.1179 -0.7258
  168SAPE  H16R18901   3.100   5.691   3.730 -0.6447  0.1947  1.1694
  168SAPE  H16S18902   3.152   5.529   3.718 -0.1210  0.5271 -1.9393
  168SAPE  C21718903   3.041   5.560   3.886  0.5415 -0.0448  0.1009
  168SAPE  H17R18904   3.024   5.452   3.903 -1.7064  0.0871 -0.8810
  168SAPE  H17S18905   2.957   5.622   3.925  0.5519 -0.0512  0.1347
  168SAPE  C21818906   3.165   5.608   3.968  0.5272 -0.6281  0.0058
  168SAPE  H18R18907   3.170   5.719   3.966 -1.6474 -0.4585 -2.5317
  168SAPE  H18S18908   3.260   5.569   3.926  0.3376 -0.4480 -0.5997
  168SAPE  C21918909   3.145   5.566   4.121 -0.2127 -0.4318 -0.7659
  168SAPE  H19R18910   3.227   5.594   4.190  0.4610 -1.7756 -0.9891
  168SAPE  H19S18911   3.130   5.457   4.135  1.6412 -1.0804 -3.0739
  168SAPE  C22018912   3.030   5.639   4.196 -0.3015  0.2759  0.1517
  168SAPE  H20R18913   2.930   5.614   4.156  0.7263 -1.6550 -1.4135
  168SAPE  H20S18914   3.044   5.749   4.188  0.6092  0.1435 -0.2083
  168SAPE  H20T18915   3.027   5.618   4.305  1.7047 -3.2507 -0.3075
  168SAPE   C3318916   4.132   5.766   2.496 -0.8033 -0.2537  0.6901
  168SAPE   H3X18917   4.228   5.819   2.514 -0.6668 -0.1811 -0.1861
  168SAPE   H3Y18918   4.159   5.661   2.472 -0.3700  0.8049 -4.9939
  168SAPE   C3418919   4.042   5.762   2.622  0.4321 -0.6954  0.6234
  168SAPE   H4X18920   3.959   5.690   2.605 -1.0236  1.5394 -2.6325
  168SAPE   H4Y18921   3.989   5.858   2.641  1.0759 -0.3446  0.6674
  168SAPE   C3518922   4.122   5.722   2.749  0.0136 -0.3399  0.5876
  168SAPE   H5X18923   4.218   5.777   2.760  1.0159 -1.6520 -1.1053
  168SAPE   H5Y18924   4.162   5.620   2.732  2.7500  0.5888  0.9924
  168SAPE   C3618925   4.042   5.718   2.881 -0.4466  0.1064  0.9186
  168SAPE   H6X18926   4.101   5.644   2.939  1.9032  0.5701 -0.7349
  168SAPE   H6Y18927   3.937   5.688   2.861 -0.0574  0.7461 -2.6319
  168SAPE   C3718928   4.049   5.845   2.961  0.1975  0.6130  0.4450
  168SAPE   H7X18929   4.021   5.928   2.893 -1.6212 -0.1871  0.1669
  168SAPE   H7Y18930   4.154   5.855   2.994  0.1947 -0.3621  0.7840
  168SAPE   C3818931   3.961   5.822   3.087  0.5548  0.0181 -0.7722
  168SAPE   H8X18932   4.002   5.741   3.151  0.6649 -0.4315 -1.4052
  168SAPE   H8Y18933   3.854   5.808   3.061 -0.5263  0.5324  2.8504
  168SAPE   C3918934   3.956   5.964   3.158  0.2068  0.2359  0.3842
  168SAPE   H9X18935   3.937   6.037   3.076  0.5830 -0.4205 -0.3003
  168SAPE   H9Y18936   4.050   5.992   3.210  0.1178  1.8720 -0.2721
  168SAPE  C31018937   3.842   5.967   3.261 -0.2707 -0.1288 -0.5651
  168SAPE  H10X18938   3.758   5.902   3.229  0.1888 -0.8578 -0.3422
  168SAPE  H10Y18939   3.820   6.074   3.277 -2.2984 -0.4788 -0.7992
  168SAPE  C31118940   3.892   5.893   3.391 -0.4171 -0.1291  0.8087
  168SAPE  H11X18941   3.960   5.967   3.439  2.2012 -2.1623  0.4120
  168SAPE  H11Y18942   3.949   5.806   3.353 -1.4044  0.1723 -1.5384
  168SAPE  C31218943   3.778   5.854   3.490 -0.2325 -0.0479 -0.2798
  168SAPE  H12X18944   3.700   5.798   3.435 -2.0958  1.4944  0.6793
  168SAPE  H12Y18945   3.743   5.951   3.530  0.4881  0.5562 -1.0809
  168SAPE  C31318946   3.830   5.774   3.612 -0.4479  0.9355 -0.3626
  168SAPE  H13X18947   3.849   5.669   3.580  0.2650  1.4211 -1.5607
  168SAPE  H13Y18948   3.759   5.778   3.698  4.0052 -1.8875  4.0015
  168SAPE  C31418949   3.971   5.822   3.664  0.2388 -0.3972  0.3152
  168SAPE  H14X18950   3.961   5.932   3.660 -1.2169 -0.5018  0.5400
  168SAPE  H14Y18951   4.059   5.802   3.600  0.6310  0.1270  0.6838
  168SAPE  C31518952   4.000   5.792   3.811 -0.0831 -0.1642  0.3803
  168SAPE  H15X18953   3.935   5.854   3.877 -2.2166 -0.1323 -1.5959
  168SAPE  H15Y18954   4.108   5.800   3.835  0.6904 -1.5298 -2.2920
  168SAPE  C31618955   3.946   5.644   3.851 -0.6235 -0.1715  0.0262
  168SAPE  H16X18956   3.984   5.585   3.764 -1.4967  0.8299 -1.0669
  168SAPE  H16Y18957   3.835   5.641   3.850 -0.7024  1.5400  0.4723
  168SAPE  C31718958   3.996   5.587   3.983 -0.5126  0.1702 -0.0613
  168SAPE  H17X18959   4.105   5.602   3.992 -0.2292  0.1229 -2.6032
  168SAPE  H17Y18960   3.990   5.476   3.984  2.4728 -0.1382 -2.2788
  168SAPE  C31818961   3.933   5.647   4.107 -0.1272 -0.8173  0.7806
  168SAPE  H18X18962   3.977   5.601   4.198 -1.3906 -1.6867  0.9711
  168SAPE  H18Y18963   3.823   5.634   4.105 -0.3617  1.0697  0.1946
  168SAPE  H18Z18964   3.945   5.757   4.115 -1.8946 -0.4152 -1.2356
  169SAPE     N18965   0.958   3.385   2.305 -0.3831  0.0524  0.3690
  169SAPE   HN118966   1.029   3.381   2.229 -0.9621 -2.2574 -0.1302
  169SAPE   HN218967   0.867   3.360   2.261  0.8685 -5.1849  0.0508
  169SAPE   HN318968   0.948   3.475   2.356 -1.0788 -0.2889  0.8716
  169SAPE   C1218969   0.989   3.277   2.410  0.8987 -0.7404  0.2248
  169SAPE  H12A18970   1.065   3.315   2.482 -0.2056  2.5341 -0.2043
  169SAPE  H12B18971   1.038   3.196   2.352 -0.6672 -1.2914 -0.3972
  169SAPE   C1118972   0.861   3.222   2.476  0.1591  0.6712  0.0875
  169SAPE  H11A18973   0.799   3.287   2.542  0.9077  0.7482  0.7370
  169SAPE  H11B18974   0.897   3.144   2.548  1.0606 -0.4177 -1.4915
  169SAPE     P18975   0.657   3.203   2.314  0.1815  0.3227 -0.2040
  169SAPE   O1318976   0.710   3.323   2.254 -0.4605  0.5224  0.0539
  169SAPE   O1418977   0.602   3.104   2.223 -0.1727 -0.9126  0.4844
  169SAPE   O1218978   0.783   3.145   2.384 -0.2816 -0.1050 -0.4026
  169SAPE   O1118979   0.568   3.236   2.436  0.4211 -0.2342  0.1477
  169SAPE    C118980   0.445   3.163   2.469  0.0288 -0.3668  0.3223
  169SAPE    HA18981   0.365   3.161   2.392  0.7319 -0.7041 -0.4087
  169SAPE    HB18982   0.466   3.056   2.494  0.8800 -0.8955 -2.3895
  169SAPE    C218983   0.377   3.221   2.597 -0.1261 -0.4076 -0.0828
  169SAPE    HS18984   0.376   3.332   2.592 -0.1977 -0.3883  0.3437
  169SAPE   O2118985   0.447   3.168   2.706 -0.0271 -0.1217  0.3131
  169SAPE   C2118986   0.518   3.257   2.783  0.0500  0.9983 -0.0217
  169SAPE   O2218987   0.494   3.374   2.788  0.4085  0.7328  0.2993
  169SAPE   C2218988   0.609   3.166   2.876  0.7052  0.3019 -0.0899
  169SAPE   H2R18989   0.564   3.065   2.863  0.9378  0.4378 -2.3165
  169SAPE   H2S18990   0.703   3.171   2.817  1.2444  3.1406  0.8955
  169SAPE    C318991   0.230   3.182   2.604  0.8702  0.0122  0.5710
  169SAPE    HX18992   0.231   3.080   2.562  1.1896  0.5621 -0.8221
  169SAPE    HY18993   0.166   3.237   2.532 -0.2328 -0.7441  0.9396
  169SAPE   O3118994   0.178   3.180   2.743 -0.3123  0.0531 -0.0850
  169SAPE   C3118995   0.049   3.197   2.763  0.0812  0.2227 -0.3074
  169SAPE   O3218996  -0.032   3.207   2.672 -0.2520  0.4405 -0.1910
  169SAPE   C3218997   0.024   3.206   2.913  0.3594  0.2873 -0.4800
  169SAPE   H2X18998   0.058   3.107   2.949  0.1398  0.8377  1.3451
  169SAPE   H2Y18999  -0.083   3.215   2.941  0.6705  2.3406  0.1901
  169SAPE   C2319000   0.614   3.211   3.026  0.1585  0.2098  0.0503
  169SAPE   H3R19001   0.564   3.309   3.035  0.6932  0.4142  0.8561
  169SAPE   H3S19002   0.721   3.220   3.054  0.2331  0.8598 -0.4208
  169SAPE   C2419003   0.530   3.110   3.110 -0.3624  0.0859 -0.0249
  169SAPE   H4R19004   0.428   3.104   3.067 -0.8559  2.9842  0.5870
  169SAPE   H4S19005   0.528   3.164   3.207  3.1199  1.3393 -0.4940
  169SAPE   C2519006   0.601   2.974   3.124 -0.1848 -0.2961 -0.2940
  169SAPE   H5R19007   0.612   2.917   3.031  1.4199 -1.4527  0.5446
  169SAPE   C2619008   0.661   2.918   3.238  0.1416 -0.8779 -0.8010
  169SAPE   H6R19009   0.693   2.813   3.233  0.9935 -0.6800  0.1067
  169SAPE   C2719010   0.658   2.980   3.376 -0.3485  0.5071 -0.4254
  169SAPE   H7R19011   0.569   2.945   3.433  1.0359 -0.3049  1.3334
  169SAPE   H7S19012   0.634   3.089   3.372  0.5795  0.7290 -0.2804
  169SAPE   C2819013   0.790   2.940   3.441  0.0287 -0.5958  0.0139
  169SAPE   H8R19014   0.882   2.974   3.390  0.4420  1.3288  1.9111
  169SAPE   C2919015   0.798   2.888   3.565  0.1796  0.3339 -0.1000
  169SAPE   H9R19016   0.901   2.872   3.602  0.6287 -0.8581 -1.7292
  169SAPE  C21019017   0.687   2.857   3.664 -0.2867  0.2819  0.5066
  169SAPE  H10R19018   0.730   2.800   3.749 -1.8567  1.0889  1.8992
  169SAPE  H10S19019   0.617   2.780   3.626 -1.1081  0.1671  2.1587
  169SAPE  C21119020   0.593   2.957   3.730  1.0698 -0.7749  0.4764
  169SAPE  H11R19021   0.586   3.053   3.677  1.5825 -0.8445  0.2736
  169SAPE  C21219022   0.504   2.934   3.833 -0.6106 -0.3564  0.2670
  169SAPE  H12R19023   0.451   3.020   3.876  0.2405 -0.4679  1.6006
  169SAPE  C21319024   0.475   2.800   3.902 -0.3997 -0.1626 -0.1530
  169SAPE  H13R19025   0.507   2.788   4.008 -0.6252  0.8204  0.0302
  169SAPE  H13S19026   0.537   2.723   3.850 -0.7491 -0.6054  0.0736
  169SAPE  C21419027   0.323   2.763   3.893 -0.1491 -0.1349 -0.3367
  169SAPE  H14R19028   0.313   2.685   3.816 -0.9308 -1.2939  0.8881
  169SAPE  C21519029   0.214   2.825   3.945  0.0692 -0.0797 -0.4725
  169SAPE  H15R19030   0.116   2.777   3.929 -0.2880 -0.0664  1.4505
  169SAPE  C21619031   0.215   2.941   4.043  0.1263  0.2969 -0.1216
  169SAPE  H16R19032   0.215   3.041   3.994  1.2682  0.9815  1.2063
  169SAPE  H16S19033   0.318   2.949   4.083  0.8986  1.0194 -2.1164
  169SAPE  C21719034   0.123   2.929   4.158 -0.2051 -0.6574  0.2703
  169SAPE  H17R19035   0.167   2.998   4.233  0.3399  0.7048 -1.2559
  169SAPE  H17S19036   0.119   2.827   4.203 -1.7806 -0.6455  0.2076
  169SAPE  C21819037  -0.019   2.993   4.129 -0.5858 -0.0369  0.3042
  169SAPE  H18R19038  -0.074   2.918   4.069  1.5623 -2.1619  0.8104
  169SAPE  H18S19039  -0.009   3.089   4.074  0.9331 -0.0211  0.5533
  169SAPE  C21919040  -0.105   3.023   4.253  0.6209 -0.4502  1.0360
  169SAPE  H19R19041  -0.043   3.082   4.324  1.7009 -1.2038  0.7412
  169SAPE  H19S19042  -0.130   2.921   4.289  0.1773 -0.4408  0.7610
  169SAPE  C22019043  -0.236   3.101   4.224  0.1371 -0.0124  0.5738
  169SAPE  H20R19044  -0.282   3.134   4.319  1.0999  1.3896  0.5927
  169SAPE  H20S19045  -0.313   3.038   4.176  0.3254 -0.3119  0.6597
  169SAPE  H20T19046  -0.203   3.186   4.160 -0.0987 -1.6833 -1.8768
  169SAPE   C3319047   0.090   3.322   2.976  0.4109  0.1083  0.4894
  169SAPE   H3X19048   0.027   3.413   2.969  0.7605  0.2793 -0.6461
  169SAPE   H3Y19049   0.186   3.359   2.932 -0.5101 -0.1169 -1.8516
  169SAPE   C3419050   0.122   3.292   3.119  0.2215 -0.1921  0.8757
  169SAPE   H4X19051   0.148   3.185   3.130 -2.8564 -1.1270 -0.1245
  169SAPE   H4Y19052   0.033   3.304   3.184  0.8153 -1.5999  1.9965
  169SAPE   C3519053   0.233   3.378   3.181 -0.3503  0.5160 -0.9067
  169SAPE   H5X19054   0.198   3.483   3.172 -0.5824  0.5439  0.2220
  169SAPE   H5Y19055   0.327   3.374   3.121  0.6886  0.1471  0.6837
  169SAPE   C3619056   0.254   3.342   3.328  0.4387  0.1384  0.2307
  169SAPE   H6X19057   0.291   3.237   3.325  1.3140  0.4505 -2.2046
  169SAPE   H6Y19058   0.155   3.343   3.379  0.9453 -0.4804  1.2406
  169SAPE   C3719059   0.346   3.438   3.385  0.1213 -0.5763  0.2797
  169SAPE   H7X19060   0.330   3.543   3.353  2.1590  0.3629  2.1183
  169SAPE   H7Y19061   0.446   3.419   3.341  0.5309  1.7865  0.0311
  169SAPE   C3819062   0.365   3.436   3.534  0.0562  0.1004 -0.2450
  169SAPE   H8X19063   0.450   3.492   3.578 -0.7588 -0.1910  1.8573
  169SAPE   H8Y19064   0.400   3.332   3.556  0.6020 -0.1010 -1.9579
  169SAPE   C3919065   0.248   3.470   3.624  0.0777  0.0452 -0.7104
  169SAPE   H9X19066   0.148   3.439   3.587 -1.4543 -1.7225  4.1589
  169SAPE   H9Y19067   0.243   3.576   3.659 -0.2803  0.2919 -1.4862
  169SAPE  C31019068   0.265   3.391   3.756  0.4163  0.0374 -0.4042
  169SAPE  H10X19069   0.370   3.403   3.790  0.0110 -1.4632  1.6063
  169SAPE  H10Y19070   0.259   3.284   3.725  0.5626 -0.2591  0.5550
  169SAPE  C31119071   0.162   3.421   3.868 -0.2389 -0.0784 -0.0347
  169SAPE  H11X19072   0.065   3.373   3.846 -0.4983  1.2574 -2.0727
  169SAPE  H11Y19073   0.146   3.531   3.866  0.7155  0.0680 -0.2739
  169SAPE  C31219074   0.207   3.381   4.006 -0.2036 -0.3077 -0.3374
  169SAPE  H12X19075   0.300   3.436   4.034 -0.2050  1.2068 -3.0147
  169SAPE  H12Y19076   0.228   3.273   4.018  0.6390 -0.0833  0.2966
  169SAPE  C31319077   0.099   3.410   4.113 -0.7174 -0.5587 -0.0143
  169SAPE  H13X19078   0.003   3.363   4.083 -0.8242  1.8774 -4.2030
  169SAPE  H13Y19079   0.076   3.518   4.123 -0.1338 -0.4562  0.2856
  169SAPE  C31419080   0.135   3.345   4.242 -0.1513  0.3821 -0.4453
  169SAPE  H14X19081   0.240   3.377   4.260  1.0985 -2.8596 -1.1145
  169SAPE  H14Y19082   0.151   3.237   4.219  2.4890 -0.6944  4.8826
  169SAPE  C31519083   0.025   3.348   4.351 -0.4614  0.4212  0.0036
  169SAPE  H15X19084   0.071   3.300   4.440  1.5649  0.4371 -0.9788
  169SAPE  H15Y19085  -0.069   3.293   4.327 -0.4005  0.4055 -0.1958
  169SAPE  C31619086  -0.018   3.483   4.401 -0.2012  0.0344 -0.8568
  169SAPE  H16X19087  -0.101   3.524   4.340  1.3158  2.6397 -1.3381
  169SAPE  H16Y19088   0.073   3.547   4.398 -1.1352  1.4224 -0.5679
  169SAPE  C31719089  -0.078   3.479   4.546 -0.2695  0.7441  0.8795
  169SAPE  H17X19090   0.006   3.450   4.613 -0.1280  0.1477  0.4559
  169SAPE  H17Y19091  -0.149   3.394   4.559 -1.3408  1.5525  0.3891
  169SAPE  C31819092  -0.145   3.605   4.590 -0.4736  0.1375 -0.4357
  169SAPE  H18X19093  -0.069   3.686   4.599  0.7970 -1.1020  0.3872
  169SAPE  H18Y19094  -0.191   3.591   4.690  0.6886  0.4047  0.1540
  169SAPE  H18Z19095  -0.232   3.636   4.528 -0.4023  2.0281  0.3605
  170SAPE     N19096   1.160   6.016   1.982 -0.2735  0.0435  0.2648
  170SAPE   HN119097   1.148   5.913   1.979  0.3165 -0.0088 -0.6402
  170SAPE   HN219098   1.077   6.059   1.935 -1.3962  0.0611  2.1336
  170SAPE   HN319099   1.247   6.032   1.928  0.4895  0.9884  1.7042
  170SAPE   C1219100   1.177   6.062   2.128  0.1120  0.5073 -0.1412
  170SAPE  H12A19101   1.079   6.049   2.178  0.7340 -0.3544  0.9053
  170SAPE  H12B19102   1.217   6.166   2.125  1.7017 -0.0498  0.5204
  170SAPE   C1119103   1.265   5.961   2.206  0.0448 -0.0113  0.4234
  170SAPE  H11A19104   1.285   6.008   2.305 -0.2979  1.3906 -0.1391
  170SAPE  H11B19105   1.365   5.957   2.159 -0.0723  0.7937  0.0892
  170SAPE     P19106   1.284   5.711   2.204  0.1034 -0.4221 -0.1722
  170SAPE   O1319107   1.205   5.588   2.211  0.9402  0.0937  0.5827
  170SAPE   O1419108   1.353   5.736   2.075 -0.4431  0.0469  0.0721
  170SAPE   O1219109   1.194   5.839   2.220 -0.0804  0.2814  0.0343
  170SAPE   O1119110   1.390   5.713   2.322  0.0304 -0.5360 -0.0618
  170SAPE    C119111   1.340   5.687   2.452  0.8424 -0.2199  0.5016
  170SAPE    HA19112   1.411   5.733   2.524  2.4099  0.6668 -1.5012
  170SAPE    HB19113   1.242   5.737   2.468  2.1193  2.0640  1.6212
  170SAPE    C219114   1.324   5.540   2.488 -0.1960  0.6038 -0.3638
  170SAPE    HS19115   1.255   5.488   2.418  0.4695  0.0928 -0.6514
  170SAPE   O2119116   1.285   5.531   2.623 -0.1521 -0.3155 -0.3817
  170SAPE   C2119117   1.244   5.407   2.674 -0.1978  0.1874  0.6656
  170SAPE   O2219118   1.237   5.304   2.602 -0.4077  0.3394  0.1201
  170SAPE   C2219119   1.209   5.410   2.819  0.0442  0.4541 -0.8531
  170SAPE   H2R19120   1.103   5.378   2.827  0.4865 -0.5065  2.3681
  170SAPE   H2S19121   1.271   5.329   2.862  1.4979  1.8568 -0.2216
  170SAPE    C319122   1.464   5.469   2.477 -0.3020 -0.3872 -0.4195
  170SAPE    HX19123   1.487   5.471   2.369 -2.0965 -0.0717 -0.8330
  170SAPE    HY19124   1.452   5.360   2.497  2.4843 -0.7967 -0.6279
  170SAPE   O3119125   1.578   5.528   2.549 -0.1392 -0.7941 -0.4313
  170SAPE   C3119126   1.609   5.464   2.668  0.7173 -0.9402  0.9136
  170SAPE   O3219127   1.558   5.356   2.701 -0.0826 -0.7529 -0.0312
  170SAPE   C3219128   1.694   5.554   2.749  0.1781  0.4995 -0.0741
  170SAPE   H2X19129   1.646   5.653   2.765  0.6405  0.4514  1.7151
  170SAPE   H2Y19130   1.787   5.562   2.688  2.1550 -4.9051  1.6205
  170SAPE   C2319131   1.246   5.544   2.884  0.3753 -0.7689  0.0767
  170SAPE   H3R19132   1.202   5.632   2.833 -1.3659 -1.1850  0.8030
  170SAPE   H3S19133   1.354   5.563   2.865  0.0566  1.6786  0.3417
  170SAPE   C2419134   1.214   5.555   3.038 -0.2805 -0.5066 -0.1481
  170SAPE   H4R19135   1.295   5.498   3.088  0.3168 -0.4987 -1.0870
  170SAPE   H4S19136   1.127   5.486   3.054 -0.3110 -0.7688 -1.3368
  170SAPE   C2519137   1.199   5.696   3.100  0.1170  0.2739  0.5034
  170SAPE   H5R19138   1.253   5.780   3.054  1.4784 -0.8559 -0.0101
  170SAPE   C2619139   1.144   5.717   3.221 -0.3324 -0.4532 -1.2297
  170SAPE   H6R19140   1.133   5.821   3.257 -0.1960 -1.8153  3.3296
  170SAPE   C2719141   1.058   5.615   3.293  0.1359 -0.0828 -0.2988
  170SAPE   H7R19142   0.994   5.558   3.222  0.4275  1.7618 -2.1445
  170SAPE   H7S19143   0.990   5.672   3.360 -0.1242  0.5780 -1.1096
  170SAPE   C2819144   1.154   5.528   3.370  0.2765 -0.0493 -0.2057
  170SAPE   H8R19145   1.205   5.460   3.300 -2.2148 -1.0317 -1.1709
  170SAPE   C2919146   1.180   5.532   3.503  0.2777  0.4787  0.3722
  170SAPE   H9R19147   1.266   5.475   3.542  1.1801  1.8812  0.5205
  170SAPE  C21019148   1.114   5.635   3.588  0.4810  1.1728 -0.0544
  170SAPE  H10R19149   1.022   5.586   3.625  1.4466  0.4306  1.4647
  170SAPE  H10S19150   1.081   5.724   3.531 -0.6686  0.2389 -0.8834
  170SAPE  C21119151   1.193   5.689   3.709 -0.1706  0.3821  0.1123
  170SAPE  H11R19152   1.260   5.770   3.675  0.3782 -1.2566 -3.0725
  170SAPE  C21219153   1.198   5.640   3.839 -0.8131  0.5300  0.2383
  170SAPE  H12R19154   1.266   5.682   3.914 -1.4743 -0.3174  1.3466
  170SAPE  C21319155   1.122   5.520   3.879  0.5156 -0.1044  0.2228
  170SAPE  H13R19156   1.186   5.430   3.876 -2.0053 -1.9929 -1.4125
  170SAPE  H13S19157   1.045   5.492   3.804  0.9752  3.3303 -1.7161
  170SAPE  C21419158   1.057   5.539   4.018 -0.2745  0.1712 -0.1645
  170SAPE  H14R19159   1.114   5.483   4.094 -1.4696 -1.4785 -0.4466
  170SAPE  C21519160   0.943   5.603   4.043  0.2894 -0.4652 -0.3656
  170SAPE  H15R19161   0.886   5.604   4.137 -1.9450  0.3366 -1.6517
  170SAPE  C21619162   0.866   5.692   3.949  0.0411 -0.5016 -0.2799
  170SAPE  H16R19163   0.873   5.652   3.846  2.2569 -0.1484 -0.3276
  170SAPE  H16S19164   0.910   5.794   3.950 -1.2770  0.1232  2.1547
  170SAPE  C21719165   0.708   5.690   3.988 -0.0529 -0.2935 -0.0531
  170SAPE  H17R19166   0.666   5.587   3.988  1.9139 -1.1585 -1.3545
  170SAPE  H17S19167   0.658   5.734   3.900  0.2871 -1.8600 -1.0737
  170SAPE  C21819168   0.669   5.775   4.113 -0.4186 -0.2111  0.1770
  170SAPE  H18R19169   0.719   5.873   4.101 -3.2550  0.9550 -4.5303
  170SAPE  H18S19170   0.681   5.719   4.208 -1.8051 -1.6016 -0.4309
  170SAPE  C21919171   0.517   5.822   4.103 -0.1735 -0.4257 -0.1339
  170SAPE  H19R19172   0.463   5.725   4.091  0.3126 -0.7348  0.1311
  170SAPE  H19S19173   0.494   5.884   4.015 -1.7714  0.0543  0.5900
  170SAPE  C22019174   0.473   5.891   4.230 -0.0335 -0.2239 -0.1261
  170SAPE  H20R19175   0.370   5.932   4.230  0.7714  2.0908  1.9556
  170SAPE  H20S19176   0.541   5.976   4.253 -0.9880  0.7114 -0.6833
  170SAPE  H20T19177   0.470   5.821   4.317  0.3673 -1.6730 -1.2444
  170SAPE   C3319178   1.736   5.501   2.890 -0.3260 -0.3379 -0.2544
  170SAPE   H3X19179   1.842   5.533   2.908 -0.1576 -0.2762 -1.2920
  170SAPE   H3Y19180   1.742   5.390   2.889 -0.8769 -0.4320  1.7848
  170SAPE   C3419181   1.641   5.551   3.004 -0.4513  0.3990  0.5686
  170SAPE   H4X19182   1.534   5.525   2.989 -0.4172  1.6186 -2.4124
  170SAPE   H4Y19183   1.651   5.661   2.999 -1.2477  0.4890  0.9079
  170SAPE   C3519184   1.695   5.499   3.136  0.0579 -0.1289 -0.5772
  170SAPE   H5X19185   1.796   5.544   3.141  0.0283  0.0535 -1.3814
  170SAPE   H5Y19186   1.700   5.389   3.155 -2.8004 -0.1824  0.3641
  170SAPE   C3619187   1.627   5.563   3.259 -0.2388  0.3871 -0.5578
  170SAPE   H6X19188   1.519   5.539   3.257 -0.7019  2.1345  0.9625
  170SAPE   H6Y19189   1.627   5.674   3.257 -2.1369  0.4718  1.3121
  170SAPE   C3719190   1.698   5.518   3.387  0.0945 -0.1459 -0.3083
  170SAPE   H7X19191   1.796   5.570   3.397  1.2576 -1.7300 -2.4450
  170SAPE   H7Y19192   1.715   5.408   3.392 -0.8896 -0.4372 -2.2978
  170SAPE   C3819193   1.620   5.543   3.514  0.9285 -0.0080 -0.1993
  170SAPE   H8X19194   1.531   5.476   3.520  0.1483  0.9421 -0.9467
  170SAPE   H8Y19195   1.580   5.646   3.505  1.2778  0.4669  2.7459
  170SAPE   C3919196   1.702   5.547   3.638 -0.8397  0.9423 -0.7960
  170SAPE   H9X19197   1.777   5.628   3.625 -0.1346 -0.0708 -3.7351
  170SAPE   H9Y19198   1.768   5.458   3.646 -1.6137  0.3343 -1.0113
  170SAPE  C31019199   1.632   5.558   3.772 -0.4522  0.1489 -0.8019
  170SAPE  H10X19200   1.537   5.501   3.764 -1.6159  2.2091 -2.8841
  170SAPE  H10Y19201   1.601   5.664   3.788 -1.1655  0.0351 -1.3398
  170SAPE  C31119202   1.719   5.516   3.888  0.1458 -0.2089 -0.2998
  170SAPE  H11X19203   1.817   5.560   3.859 -1.0947  2.9442 -0.1453
  170SAPE  H11Y19204   1.733   5.406   3.895  1.4702  0.0342  2.0896
  170SAPE  C31219205   1.654   5.559   4.025 -0.1330  0.3190 -0.8398
  170SAPE  H12X19206   1.550   5.519   4.019 -0.3699  0.1596  2.3026
  170SAPE  H12Y19207   1.662   5.669   4.041 -1.0195  0.3547 -0.5931
  170SAPE  C31319208   1.721   5.484   4.147  0.1048  0.0419  0.5833
  170SAPE  H13X19209   1.813   5.542   4.169  0.6419 -0.8692  0.8116
  170SAPE  H13Y19210   1.754   5.380   4.124 -1.6385 -0.4375  0.1338
  170SAPE  C31419211   1.645   5.480   4.280 -0.3362 -0.6194  0.1121
  170SAPE  H14X19212   1.717   5.428   4.347  1.6043  0.8847 -0.7029
  170SAPE  H14Y19213   1.557   5.417   4.257 -1.3942  0.4646  1.0261
  170SAPE  C31519214   1.607   5.624   4.326  0.0361  0.0379  0.2603
  170SAPE  H15X19215   1.519   5.654   4.266  0.0975 -0.4882 -0.0992
  170SAPE  H15Y19216   1.690   5.694   4.303  1.1190 -1.2472  0.0833
  170SAPE  C31619217   1.580   5.640   4.480  0.4066  1.0342  0.3618
  170SAPE  H16X19218   1.675   5.602   4.525  1.1039  3.8699  1.5508
  170SAPE  H16Y19219   1.494   5.577   4.509  1.7417 -1.0300  0.0673
  170SAPE  C31719220   1.564   5.782   4.529 -0.1160  1.1586  0.0581
  170SAPE  H17X19221   1.513   5.769   4.627  2.9127  0.3534  1.6436
  170SAPE  H17Y19222   1.497   5.827   4.453 -1.6245 -2.6035 -1.0495
  170SAPE  C31819223   1.694   5.856   4.538  0.5922  0.1749 -0.0787
  170SAPE  H18X19224   1.762   5.796   4.602 -0.1537  0.4447  0.9893
  170SAPE  H18Y19225   1.674   5.952   4.590  0.9292 -0.8333  2.0022
  170SAPE  H18Z19226   1.747   5.877   4.443  0.8780 -0.4061 -0.0554
  171SAPE     N19227   0.115   4.195   2.388 -0.0030 -0.9233  0.2718
  171SAPE   HN119228   0.025   4.144   2.400 -0.3697 -0.0031  1.7781
  171SAPE   HN219229   0.091   4.297   2.384 -0.3132 -1.0365 -1.0098
  171SAPE   HN319230   0.172   4.167   2.306 -2.0634 -1.3806 -1.0814
  171SAPE   C1219231   0.184   4.185   2.524 -0.1533  0.1206  0.2563
  171SAPE  H12A19232   0.207   4.081   2.554 -1.7263 -0.2534  0.2591
  171SAPE  H12B19233   0.107   4.224   2.594 -0.7127  0.5937 -0.5940
  171SAPE   C1119234   0.301   4.280   2.531 -0.4624  0.8262 -0.4569
  171SAPE  H11A19235   0.325   4.285   2.640  1.8007  0.9123 -0.9102
  171SAPE  H11B19236   0.273   4.385   2.508  0.5182  1.0623 -0.6172
  171SAPE     P19237   0.557   4.252   2.516  0.0140  0.0468  0.2685
  171SAPE   O1319238   0.648   4.176   2.426  0.7981  0.7843  0.4066
  171SAPE   O1419239   0.581   4.394   2.549 -0.6436  0.3655  0.1130
  171SAPE   O1219240   0.416   4.238   2.457 -0.0789 -0.5034  0.0656
  171SAPE   O1119241   0.554   4.166   2.646  0.8764 -0.1698 -0.4894
  171SAPE    C119242   0.585   4.231   2.771  0.3500 -0.0165 -0.8544
  171SAPE    HA19243   0.692   4.261   2.778 -0.4001  3.3811 -2.3705
  171SAPE    HB19244   0.523   4.322   2.777  0.2848  0.2727 -4.0869
  171SAPE    C219245   0.540   4.134   2.887  0.1377 -0.2370  1.1477
  171SAPE    HS19246   0.593   4.169   2.979  4.3120 -3.8458  0.4455
  171SAPE   O2119247   0.586   4.002   2.854  0.3139  0.2824 -0.1129
  171SAPE   C2119248   0.722   3.984   2.861  0.1462  0.0322 -0.3307
  171SAPE   O2219249   0.800   4.075   2.895  0.0184  0.5441  0.5452
  171SAPE   C2219250   0.759   3.835   2.859 -0.4965 -0.1645  0.6008
  171SAPE   H2R19251   0.737   3.804   2.755 -1.4091  1.5188  0.2535
  171SAPE   H2S19252   0.868   3.825   2.877 -0.6561  1.3912  2.8889
  171SAPE    C319253   0.391   4.130   2.928 -0.1414 -0.4418 -0.2390
  171SAPE    HX19254   0.319   4.097   2.850 -0.0623 -3.3771  0.8095
  171SAPE    HY19255   0.355   4.234   2.949  2.6490  0.3935  0.8309
  171SAPE   O3119256   0.377   4.052   3.041 -0.1684  0.1886  0.2789
  171SAPE   C3119257   0.356   3.917   3.017 -0.5197 -0.5815  0.5551
  171SAPE   O3219258   0.333   3.865   2.909 -0.3035  0.1293 -0.3792
  171SAPE   C3219259   0.344   3.847   3.149  0.6981  0.0550  0.0390
  171SAPE   H2X19260   0.413   3.760   3.149  0.8754  0.1880  0.9022
  171SAPE   H2Y19261   0.240   3.809   3.163  0.6608  0.3048  0.4599
  171SAPE   C2319262   0.681   3.743   2.951  0.0131  0.6307  0.7557
  171SAPE   H3R19263   0.573   3.744   2.926  0.2202 -0.2877 -0.2320
  171SAPE   H3S19264   0.681   3.783   3.055  0.8050 -0.1369  1.0654
  171SAPE   C2419265   0.728   3.594   2.938 -0.4453  0.4082  0.0406
  171SAPE   H4R19266   0.710   3.545   2.840 -0.6594 -2.2670  1.3267
  171SAPE   H4S19267   0.664   3.526   2.998 -2.4527  1.3094 -0.9932
  171SAPE   C2519268   0.871   3.570   2.973 -0.1209 -0.7895 -0.2692
  171SAPE   H5R19269   0.938   3.581   2.886 -1.1230  0.7462 -0.8900
  171SAPE   C2619270   0.924   3.571   3.100 -0.5068 -0.0003  0.7126
  171SAPE   H6R19271   1.034   3.558   3.098 -0.7834 -3.1779 -1.5468
  171SAPE   C2719272   0.842   3.600   3.230 -0.2559 -0.3646  0.3751
  171SAPE   H7R19273   0.771   3.686   3.230 -2.4828 -2.1250 -0.5085
  171SAPE   H7S19274   0.914   3.621   3.313  0.2174 -0.3992 -0.0263
  171SAPE   C2819275   0.764   3.475   3.263 -0.9685  0.6952 -0.1951
  171SAPE   H8R19276   0.708   3.444   3.173  1.7196 -0.9214 -1.4552
  171SAPE   C2919277   0.756   3.398   3.371  0.0262 -0.2385 -0.1927
  171SAPE   H9R19278   0.692   3.309   3.363 -0.6816  0.3226 -1.0128
  171SAPE  C21019279   0.824   3.429   3.503  0.1256 -0.5792  0.1055
  171SAPE  H10R19280   0.931   3.454   3.481  0.0680  0.8430  1.2411
  171SAPE  H10S19281   0.817   3.339   3.567  0.9000 -0.0529  0.9499
  171SAPE  C21119282   0.753   3.541   3.573 -0.5617  0.3275  0.3735
  171SAPE  H11R19283   0.698   3.615   3.513 -0.3104 -0.3530 -0.7129
  171SAPE  C21219284   0.757   3.550   3.714  0.4586  0.0892  0.6447
  171SAPE  H12R19285   0.702   3.626   3.772 -1.6162  0.2818 -1.4081
  171SAPE  C21319286   0.836   3.454   3.798 -0.5032  0.0846  0.3765
  171SAPE  H13R19287   0.808   3.352   3.763 -0.3643 -0.7402  2.5006
  171SAPE  H13S19288   0.786   3.470   3.896  1.6003  1.9834  1.2444
  171SAPE  C21419289   0.988   3.458   3.810  0.0264 -0.7393 -0.3873
  171SAPE  H14R19290   1.046   3.425   3.723 -1.1028 -0.1857 -1.3733
  171SAPE  C21519291   1.052   3.511   3.916  0.0470 -0.7018  0.9474
  171SAPE  H15R19292   1.159   3.530   3.904  0.0656  0.4414  2.5240
  171SAPE  C21619293   0.985   3.592   4.032 -0.1074 -0.1304 -0.0750
  171SAPE  H16R19294   0.875   3.595   4.020 -0.1206 -0.6288 -0.1340
  171SAPE  H16S19295   1.031   3.693   4.038  1.2369 -0.6514 -0.9922
  171SAPE  C21719296   1.016   3.516   4.172  1.4802 -0.4113  0.3009
  171SAPE  H17R19297   1.119   3.474   4.179  1.8261  0.4285  0.4153
  171SAPE  H17S19298   0.943   3.433   4.171  1.4545 -0.3882  0.0074
  171SAPE  C21819299   1.002   3.608   4.300  0.4522 -0.0370  0.1837
  171SAPE  H18R19300   1.100   3.661   4.295  0.8054 -0.7619 -0.8038
  171SAPE  H18S19301   0.997   3.545   4.391 -0.8542  1.1067  0.9364
  171SAPE  C21919302   0.892   3.718   4.299  0.5053  0.2437  0.0263
  171SAPE  H19R19303   0.895   3.795   4.219  1.7674 -1.0884 -1.2540
  171SAPE  H19S19304   0.910   3.774   4.394  2.3008  0.0169 -0.1550
  171SAPE  C22019305   0.754   3.656   4.296  0.0734  0.6192 -0.2921
  171SAPE  H20R19306   0.731   3.620   4.399 -1.4754  0.4430 -0.6858
  171SAPE  H20S19307   0.742   3.572   4.225  1.2664 -0.0737  0.3051
  171SAPE  H20T19308   0.678   3.734   4.273  0.3348  1.4851  1.5175
  171SAPE   C3319309   0.380   3.933   3.269  0.1250 -0.0516  0.3347
  171SAPE   H3X19310   0.319   4.025   3.277 -1.2212 -0.9656  0.9624
  171SAPE   H3Y19311   0.488   3.959   3.269 -0.0892  0.9175 -1.1729
  171SAPE   C3419312   0.348   3.860   3.402  0.6648  0.2403 -0.1432
  171SAPE   H4X19313   0.410   3.768   3.401  0.7242  0.2675  0.5770
  171SAPE   H4Y19314   0.240   3.835   3.398 -0.1820  3.3380  0.5996
  171SAPE   C3519315   0.385   3.941   3.527 -0.3987 -0.0906 -0.3347
  171SAPE   H5X19316   0.293   3.997   3.555  0.3069  0.1882  1.6132
  171SAPE   H5Y19317   0.461   4.019   3.507 -0.6708  0.1925 -0.2787
  171SAPE   C3619318   0.422   3.851   3.653  0.3219  0.7731 -0.4138
  171SAPE   H6X19319   0.506   3.785   3.624  0.3618 -1.0326  3.2435
  171SAPE   H6Y19320   0.338   3.784   3.681  0.6435  0.8271  0.7530
  171SAPE   C3719321   0.459   3.940   3.779  1.1578  0.0959  0.4358
  171SAPE   H7X19322   0.365   3.989   3.815  0.8838  1.5168 -1.9766
  171SAPE   H7Y19323   0.525   4.016   3.731  2.0515 -0.3629  0.9153
  171SAPE   C3819324   0.539   3.868   3.883 -0.7315 -0.9798  0.0814
  171SAPE   H8X19325   0.586   3.948   3.944 -1.3237  2.5599 -3.6383
  171SAPE   H8Y19326   0.623   3.815   3.833  0.0747 -1.4384  1.8684
  171SAPE   C3919327   0.454   3.780   3.966 -0.5343 -0.2657  0.1177
  171SAPE   H9X19328   0.523   3.711   4.018 -0.9227 -0.0519  0.9327
  171SAPE   H9Y19329   0.389   3.718   3.902  0.7829 -0.0029 -1.5423
  171SAPE  C31019330   0.370   3.852   4.071  0.3131 -0.0659  0.1005
  171SAPE  H10X19331   0.305   3.930   4.025 -0.9985 -0.5302  1.0824
  171SAPE  H10Y19332   0.436   3.912   4.137 -2.7433  1.1079  2.3165
  171SAPE  C31119333   0.281   3.765   4.160  0.2555 -0.0649  1.5222
  171SAPE  H11X19334   0.351   3.713   4.229  1.1311 -4.4560 -2.1683
  171SAPE  H11Y19335   0.240   3.683   4.096  1.4161 -0.9874  1.9068
  171SAPE  C31219336   0.178   3.843   4.231  0.3178  0.1739  0.4080
  171SAPE  H12X19337   0.107   3.777   4.284  0.0443 -0.9334 -1.2341
  171SAPE  H12Y19338   0.121   3.898   4.153  2.0449  0.4126 -0.7543
  171SAPE  C31319339   0.218   3.945   4.330 -0.6713 -0.9873 -0.0547
  171SAPE  H13X19340   0.124   3.995   4.360  1.2969  2.4718  0.8371
  171SAPE  H13Y19341   0.280   4.024   4.283  0.5679 -0.4307  2.3345
  171SAPE  C31419342   0.305   3.905   4.451  0.1239 -0.7426  0.3622
  171SAPE  H14X19343   0.411   3.930   4.428 -0.2176 -0.1944 -0.6353
  171SAPE  H14Y19344   0.317   3.795   4.465 -2.5780 -0.9982  1.3348
  171SAPE  C31519345   0.262   3.979   4.585 -0.0663 -0.1331  0.4000
  171SAPE  H15X19346   0.151   3.971   4.594 -0.3557  2.4292 -0.0242
  171SAPE  H15Y19347   0.278   4.086   4.560 -2.8531  0.7222  1.7992
  171SAPE  C31619348   0.301   3.915   4.717 -0.4253  0.1936 -0.0875
  171SAPE  H16X19349   0.249   3.818   4.726  0.0817 -0.2235 -1.4176
  171SAPE  H16Y19350   0.264   3.980   4.799 -2.1311  0.4014 -0.9633
  171SAPE  C31719351   0.450   3.875   4.733  0.4022 -0.3510 -0.0874
  171SAPE  H17X19352   0.515   3.964   4.744 -0.2304 -0.0300  1.3535
  171SAPE  H17Y19353   0.478   3.810   4.648 -0.6973 -1.0448  0.0565
  171SAPE  C31819354   0.460   3.805   4.864 -0.4111  0.1362  0.1813
  171SAPE  H18X19355   0.439   3.696   4.854 -1.8597  0.5351 -1.7626
  171SAPE  H18Y19356   0.389   3.850   4.938 -3.3443 -0.1971 -2.2435
  171SAPE  H18Z19357   0.562   3.818   4.907 -0.6874  0.9283  0.6223
  172SAPE     N19358   1.385   0.466   1.996 -0.1673 -0.0176 -0.9243
  172SAPE   HN119359   1.430   0.553   1.961  0.3782  0.0043 -0.2096
  172SAPE   HN219360   1.300   0.504   2.042  1.6470  2.3871  0.7527
  172SAPE   HN319361   1.446   0.436   2.075 -0.9780  1.3280  0.2765
  172SAPE   C1219362   1.368   0.368   1.890  0.0102  0.2742 -0.9243
  172SAPE  H12A19363   1.467   0.319   1.880  0.8584  2.2037 -2.3931
  172SAPE  H12B19364   1.330   0.420   1.800 -0.1896  1.0495 -0.4008
  172SAPE   C1119365   1.258   0.268   1.932  0.6430 -0.1365 -0.7971
  172SAPE  H11A19366   1.243   0.195   1.850 -1.5727 -0.1012 -0.4758
  172SAPE  H11B19367   1.160   0.319   1.930  0.9528  0.4667 -2.9747
  172SAPE     P19368   1.196   0.106   2.123 -0.2562 -0.2031  0.0585
  172SAPE   O1319369   1.158   0.011   2.014 -0.7190  0.0360 -0.0788
  172SAPE   O1419370   1.267   0.045   2.232  0.2473  0.4378 -0.1040
  172SAPE   O1219371   1.287   0.223   2.063 -0.2292 -0.6156  0.6042
  172SAPE   O1119372   1.065   0.174   2.191 -0.3282  0.0739 -0.1846
  172SAPE    C119373   1.077   0.285   2.285  0.1269 -0.0823 -0.1286
  172SAPE    HA19374   1.184   0.311   2.302  0.7586 -1.8726 -0.9790
  172SAPE    HB19375   1.012   0.369   2.257 -0.2460 -0.4342 -0.3295
  172SAPE    C219376   1.024   0.244   2.425  0.8943 -0.5593  0.7000
  172SAPE    HS19377   0.917   0.223   2.404  0.7213  0.2736  0.7101
  172SAPE   O2119378   1.047   0.359   2.514 -0.4137 -0.1849  0.4978
  172SAPE   C2119379   0.937   0.435   2.511  0.7780 -0.6859 -0.3580
  172SAPE   O2219380   0.839   0.430   2.449  1.0388  0.1933  0.1905
  172SAPE   C2219381   0.955   0.547   2.612 -0.5968  0.4492  0.3506
  172SAPE   H2R19382   1.044   0.519   2.673 -0.5953 -0.2010  0.0534
  172SAPE   H2S19383   0.970   0.647   2.565  3.3705  0.0407  0.4011
  172SAPE    C319384   1.095   0.117   2.489 -0.3539  0.3946 -0.1568
  172SAPE    HX19385   1.202   0.142   2.503  0.5456 -2.8936 -0.2529
  172SAPE    HY19386   1.098   0.032   2.418  0.8051  0.6522 -0.4365
  172SAPE   O3119387   1.030   0.075   2.615  0.8239  0.2302 -0.3021
  172SAPE   C3119388   1.081   0.132   2.725  0.1580 -0.3241  0.0361
  172SAPE   O3219389   1.187   0.191   2.729  0.6338  0.7567  0.0511
  172SAPE   C3219390   0.995   0.114   2.843  0.0400 -0.3093  0.3248
  172SAPE   H2X19391   0.921   0.032   2.829  2.6218 -2.8528  0.5611
  172SAPE   H2Y19392   0.947   0.213   2.861  0.0117 -0.0011 -1.3272
  172SAPE   C2319393   0.838   0.556   2.721  0.1161  0.1318  1.6825
  172SAPE   H3R19394   0.773   0.466   2.724  0.4073 -0.3465 -1.8460
  172SAPE   H3S19395   0.771   0.632   2.674  0.4292 -0.9561 -0.6694
  172SAPE   C2419396   0.894   0.602   2.853  0.3324  0.8296 -0.0647
  172SAPE   H4R19397   0.961   0.688   2.835  0.8379  0.0672 -2.0857
  172SAPE   H4S19398   0.958   0.515   2.878  0.0126  0.4884 -0.4201
  172SAPE   C2519399   0.778   0.630   2.946 -0.1476  0.1487 -0.2283
  172SAPE   H5R19400   0.697   0.698   2.918 -0.4214 -0.7645 -1.7885
  172SAPE   C2619401   0.746   0.569   3.062 -0.3720  0.3724 -0.8343
  172SAPE   H6R19402   0.651   0.594   3.110  0.6758  1.4169  0.8295
  172SAPE   C2719403   0.817   0.465   3.127 -0.5735  0.3346 -0.9650
  172SAPE   H7R19404   0.819   0.379   3.057 -1.1242 -0.2635 -0.2708
  172SAPE   H7S19405   0.754   0.428   3.211  1.3702  1.1340  0.9166
  172SAPE   C2819406   0.955   0.492   3.180 -0.2798 -0.3736 -0.9730
  172SAPE   H8R19407   1.035   0.509   3.107  1.1963  3.3454  1.2324
  172SAPE   C2919408   0.978   0.533   3.307  0.0231 -0.3931  0.0128
  172SAPE   H9R19409   1.082   0.550   3.339  0.0546  0.2511 -0.4120
  172SAPE  C21019410   0.875   0.558   3.417  0.2147 -0.2434 -0.0542
  172SAPE  H10R19411   0.906   0.491   3.500 -2.1905  0.0502  1.1850
  172SAPE  H10S19412   0.770   0.530   3.398  0.6252 -1.5476 -0.4685
  172SAPE  C21119413   0.889   0.694   3.481  0.0716 -0.2410  0.0630
  172SAPE  H11R19414   0.927   0.773   3.414 -0.2796 -2.2382 -2.6593
  172SAPE  C21219415   0.855   0.733   3.607  0.3542  0.5482  0.4730
  172SAPE  H12R19416   0.862   0.841   3.628 -0.2961  0.6291  0.3017
  172SAPE  C21319417   0.792   0.645   3.718  0.2044  0.4760  1.1183
  172SAPE  H13R19418   0.840   0.655   3.818  1.3071 -0.7020  0.7292
  172SAPE  H13S19419   0.803   0.538   3.689 -0.1904  1.1560 -1.8460
  172SAPE  C21419420   0.646   0.666   3.736 -0.2152 -0.0754 -0.0627
  172SAPE  H14R19421   0.602   0.673   3.636 -0.0753  0.0335 -0.1174
  172SAPE  C21519422   0.566   0.641   3.842  0.5194 -1.0091  0.4576
  172SAPE  H15R19423   0.462   0.669   3.824  1.4153  1.7322 -1.1768
  172SAPE  C21619424   0.609   0.614   3.985  0.4119 -0.1444  0.8668
  172SAPE  H16R19425   0.566   0.701   4.040 -0.8461 -0.8472  1.0350
  172SAPE  H16S19426   0.719   0.624   3.997  0.0706  2.0128  3.1428
  172SAPE  C21719427   0.563   0.487   4.053  0.6657 -0.0687 -0.5075
  172SAPE  H17R19428   0.611   0.471   4.152 -2.3281 -2.1846  0.7515
  172SAPE  H17S19429   0.590   0.395   3.997 -0.6641 -0.7779 -0.0318
  172SAPE  C21819430   0.411   0.494   4.078 -0.0115 -0.7859  0.1199
  172SAPE  H18R19431   0.362   0.524   3.983  0.1475  0.9556  0.5679
  172SAPE  H18S19432   0.386   0.577   4.147  0.2131 -0.8753  0.3102
  172SAPE  C21919433   0.353   0.370   4.136  0.3203  0.2119  0.0957
  172SAPE  H19R19434   0.374   0.376   4.245  0.0581  1.4970  0.0923
  172SAPE  H19S19435   0.414   0.284   4.100 -2.1470 -0.9208 -1.6370
  172SAPE  C22019436   0.203   0.353   4.107  0.1226 -0.2786 -1.1401
  172SAPE  H20R19437   0.179   0.347   3.998  2.0053  0.9351 -1.6717
  172SAPE  H20S19438   0.134   0.425   4.154  0.6308 -0.0420 -0.7533
  172SAPE  H20T19439   0.180   0.246   4.128 -1.3243  0.2679  0.2453
  172SAPE   C3319440   1.079   0.077   2.970 -0.4478 -0.1307 -0.8265
  172SAPE   H3X19441   1.157   0.156   2.979 -0.2228 -0.2037 -1.8915
  172SAPE   H3Y19442   1.127  -0.019   2.943 -0.6979 -0.1708 -1.1329
  172SAPE   C3419443   0.996   0.073   3.098  0.0448  0.3044  0.3516
  172SAPE   H4X19444   0.947  -0.026   3.107  3.1914 -1.4208 -0.2453
  172SAPE   H4Y19445   0.928   0.161   3.099 -0.1646  0.1851  2.4848
  172SAPE   C3519446   1.078   0.091   3.222 -0.3007 -0.4424 -0.0190
  172SAPE   H5X19447   1.154   0.170   3.204 -0.9257 -0.1757 -1.6854
  172SAPE   H5Y19448   1.136  -0.000   3.246 -0.1404  0.0222  1.4656
  172SAPE   C3619449   0.990   0.129   3.345 -0.2279  0.5027 -0.2902
  172SAPE   H6X19450   0.906   0.057   3.351  0.1343  0.2016  1.4766
  172SAPE   H6Y19451   0.947   0.226   3.313 -1.6750  0.2846  0.9225
  172SAPE   C3719452   1.063   0.140   3.480 -0.2978 -0.3136  0.3557
  172SAPE   H7X19453   1.149   0.210   3.479 -0.3879 -0.1991  0.4960
  172SAPE   H7Y19454   1.093   0.034   3.496 -1.9937 -0.9640 -0.5523
  172SAPE   C3819455   0.968   0.150   3.600  0.4314 -0.0718 -0.0203
  172SAPE   H8X19456   0.885   0.078   3.581  1.1078 -0.4603 -1.7259
  172SAPE   H8Y19457   0.923   0.251   3.593  1.3581  0.2802 -1.4376
  172SAPE   C3919458   1.029   0.121   3.737 -0.5917 -0.2249 -1.1078
  172SAPE   H9X19459   1.132   0.163   3.733 -0.1826 -1.2618 -3.3203
  172SAPE   H9Y19460   1.058   0.014   3.742 -1.0514 -0.3195 -0.3175
  172SAPE  C31019461   0.947   0.180   3.850 -0.3592  0.4417  0.4224
  172SAPE  H10X19462   0.838   0.168   3.833 -0.6549  2.2137  0.9064
  172SAPE  H10Y19463   0.951   0.291   3.850  0.7313  0.4139  0.4687
  172SAPE  C31119464   0.997   0.123   3.980 -0.3331  0.2961  0.2615
  172SAPE  H11X19465   1.017   0.218   4.033 -0.2159  1.5670 -1.9320
  172SAPE  H11Y19466   1.095   0.072   3.967 -0.4113 -0.0730  1.0623
  172SAPE  C31219467   0.898   0.030   4.057 -0.1484 -0.2339  1.0022
  172SAPE  H12X19468   0.915  -0.066   4.004  2.6253  0.5755  0.2017
  172SAPE  H12Y19469   0.793   0.067   4.053  0.3491  1.3108  1.3632
  172SAPE  C31319470   0.936   0.005   4.205 -0.1719  0.1543 -0.2704
  172SAPE  H13X19471   1.045  -0.017   4.203 -0.2433 -1.6476  4.3245
  172SAPE  H13Y19472   0.896  -0.092   4.241 -1.6968  0.0183 -2.1838
  172SAPE  C31419473   0.928   0.134   4.286 -0.2879  0.4487  0.1376
  172SAPE  H14X19474   0.821   0.162   4.275 -0.9523 -1.2354  1.7954
  172SAPE  H14Y19475   0.990   0.215   4.241 -0.7935  1.3255  0.9929
  172SAPE  C31519476   0.944   0.109   4.438  0.3433 -0.0192 -0.1955
  172SAPE  H15X19477   0.922   0.207   4.486 -0.7890  0.3473 -1.3952
  172SAPE  H15Y19478   1.051   0.088   4.458  0.0530 -0.6351  0.7437
  172SAPE  C31619479   0.846   0.014   4.507 -0.8278 -0.0941 -0.4419
  172SAPE  H16X19480   0.881  -0.089   4.486  0.3496  0.7159 -2.6746
  172SAPE  H16Y19481   0.745   0.036   4.467 -1.0108  1.0928  0.5926
  172SAPE  C31719482   0.839   0.035   4.659  0.1783  0.1526 -0.1654
  172SAPE  H17X19483   0.850   0.138   4.699  4.6737 -1.5431  4.0203
  172SAPE  H17Y19484   0.935  -0.005   4.699 -0.5325 -0.7828  0.6779
  172SAPE  C31819485   0.729  -0.044   4.731 -0.3530 -0.1410  0.3904
  172SAPE  H18X19486   0.750  -0.039   4.840 -1.8353 -0.6434  0.7320
  172SAPE  H18Y19487   0.705  -0.146   4.693 -1.4760 -0.4322  1.8077
  172SAPE  H18Z19488   0.633   0.012   4.722  0.0027  0.2156 -1.8224
  173SLPC     N19489   4.902   1.006   6.729 -0.4471 -0.1524  0.2070
  173SLPC   C1319490   4.985   1.045   6.842 -0.7615 -0.6583 -0.3567
  173SLPC  H13A19491   5.065   1.110   6.811 -0.8778 -0.0665  0.5583
  173SLPC  H13B19492   4.929   1.088   6.923  0.3113  0.5556 -0.2294
  173SLPC  H13C19493   5.036   0.959   6.884  1.1430 -0.1260 -1.4661
  173SLPC   C1419494   4.789   0.928   6.776  0.0316  0.4957 -0.0148
  173SLPC  H14A19495   4.819   0.837   6.825  2.4985  1.4819  0.4837
  173SLPC  H14B19496   4.733   0.983   6.851 -0.8717 -2.0211  1.2809
  173SLPC  H14C19497   4.724   0.910   6.692 -2.0162  2.8118  0.9253
  173SLPC   C1519498   4.982   0.931   6.633 -0.1079  0.2763 -0.0987
  173SLPC  H15A19499   5.001   0.833   6.673  0.1717  0.9718  1.5266
  173SLPC  H15B19500   4.931   0.905   6.541 -1.0866 -1.8427  0.9915
  173SLPC  H15C19501   5.080   0.977   6.624 -0.0297  0.8117  2.7548
  173SLPC   C1219502   4.850   1.135   6.665  0.2849  0.0258  0.0756
  173SLPC  H12A19503   4.939   1.192   6.648  3.3034 -4.1025  0.4607
  173SLPC  H12B19504   4.788   1.187   6.737 -0.2171  0.0513 -0.3726
  173SLPC   C1119505   4.765   1.120   6.532 -0.3054  0.2988 -0.6292
  173SLPC  H11A19506   4.811   1.054   6.455  0.3438  0.5812 -0.4928
  173SLPC  H11B19507   4.754   1.218   6.482 -2.4118  0.2407 -0.3472
  173SLPC     P19508   4.516   1.134   6.624  0.1889 -0.0863 -0.0639
  173SLPC   O1319509   4.454   1.052   6.725  0.7569  0.0600 -0.3606
  173SLPC   O1419510   4.574   1.268   6.659  0.3445  0.1999  0.3932
  173SLPC   O1219511   4.639   1.055   6.556  0.2274  0.0285  0.7370
  173SLPC   O1119512   4.406   1.160   6.518  0.8746 -0.7619 -0.0365
  173SLPC    C119513   4.406   1.068   6.408 -1.0143 -0.0223 -0.2926
  173SLPC    HA19514   4.436   0.964   6.432 -1.5086  0.3581  2.2556
  173SLPC    HB19515   4.300   1.044   6.385 -1.5063  2.4982 -1.0073
  173SLPC    C219516   4.467   1.129   6.273 -0.4995  0.7863 -0.2146
  173SLPC    HS19517   4.574   1.156   6.286 -0.5144  0.8721 -0.2643
  173SLPC   O2119518   4.386   1.242   6.247  0.1635 -0.4986 -0.4087
  173SLPC   C2119519   4.458   1.348   6.217 -0.8065 -0.5928 -0.2166
  173SLPC   O2219520   4.578   1.352   6.205 -0.4489  0.4092  0.4793
  173SLPC   C2219521   4.368   1.462   6.179  0.3929 -0.3242  0.4503
  173SLPC   H2R19522   4.263   1.426   6.183  0.4802 -0.5574  0.5940
  173SLPC   H2S19523   4.387   1.544   6.253  3.9058 -1.3126  0.8138
  173SLPC    C319524   4.451   1.035   6.155  0.7666  0.1672  0.5668
  173SLPC    HX19525   4.348   0.995   6.159  0.1460  1.1429 -2.6809
  173SLPC    HY19526   4.511   0.943   6.171  1.8791  0.7252 -0.2619
  173SLPC   O3119527   4.465   1.097   6.022 -0.2904  0.4009  0.1974
  173SLPC   C3119528   4.592   1.109   5.989  0.7091 -0.2599  0.2196
  173SLPC   O3219529   4.682   1.049   6.045  0.2535 -0.5343  0.0993
  173SLPC   C3219530   4.609   1.197   5.869  0.3523 -0.0119 -0.5004
  173SLPC   H2X19531   4.511   1.242   5.841  0.6894  0.7412 -0.4978
  173SLPC   H2Y19532   4.633   1.134   5.780 -3.1362 -0.6400 -1.1383
  173SLPC   C2319533   4.401   1.540   6.047 -0.1588  0.1634 -0.3203
  173SLPC   H3R19534   4.394   1.456   5.974  0.1562 -2.6601  2.6685
  173SLPC   H3S19535   4.510   1.562   6.049  0.1018 -0.7646 -1.7779
  173SLPC   C2419536   4.305   1.650   6.004 -0.1595 -0.2115  0.3425
  173SLPC   H4R19537   4.360   1.717   5.934 -1.5372  1.4639  0.8095
  173SLPC   H4S19538   4.290   1.710   6.096  0.9416 -0.5480  0.7582
  173SLPC   C2519539   4.161   1.604   5.952 -0.1366  0.2007  0.1916
  173SLPC   H5R19540   4.124   1.522   6.018  2.7418 -0.9983  0.4653
  173SLPC   H5S19541   4.157   1.572   5.846 -0.7264  0.6754  0.0625
  173SLPC   C2619542   4.068   1.717   5.953  0.5847  0.3579  0.2327
  173SLPC   H6R19543   4.094   1.776   5.862  1.4198 -1.2122 -0.5998
  173SLPC   H6S19544   4.069   1.774   6.048 -0.6180  0.9184 -0.0688
  173SLPC   C2719545   3.917   1.674   5.940  0.0890 -0.4784 -0.1442
  173SLPC   H7R19546   3.898   1.604   6.025 -2.0603  1.5696  1.1981
  173SLPC   H7S19547   3.906   1.619   5.844 -0.9830 -0.5479  0.0019
  173SLPC   C2819548   3.822   1.801   5.952  0.1732 -0.2316  0.1780
  173SLPC   H8R19549   3.856   1.881   5.883 -0.1378 -1.2356 -1.1888
  173SLPC   H8S19550   3.820   1.830   6.059  0.2076 -0.9429  0.3718
  173SLPC   C2919551   3.678   1.767   5.917 -0.0919 -0.5937 -0.7066
  173SLPC   H9R19552   3.641   1.693   5.989  1.4012 -0.3997  0.2944
  173SLPC  C21019553   3.611   1.805   5.813  0.3755 -0.6120 -0.6748
  173SLPC  H10R19554   3.509   1.771   5.792 -0.4192  1.3600 -0.2419
  173SLPC  C21119555   3.658   1.900   5.707  0.4170  0.3077  0.0665
  173SLPC  H11R19556   3.609   1.881   5.609  1.9531  1.5982 -1.0150
  173SLPC  H11S19557   3.755   1.859   5.672 -1.0056 -1.9809 -1.4662
  173SLPC  C21219558   3.659   2.048   5.749  0.2871 -0.0248  0.7004
  173SLPC  H12R19559   3.713   2.076   5.840  0.6850 -0.4347  0.5929
  173SLPC  C21319560   3.606   2.147   5.675  0.0654 -0.4479 -0.9176
  173SLPC  H13R19561   3.615   2.247   5.719  1.6021 -1.2677  0.7484
  173SLPC  C21419562   3.508   2.148   5.557 -0.6963  0.4371  0.3074
  173SLPC  H14R19563   3.506   2.045   5.515  0.6249  0.2034  0.7629
  173SLPC  H14S19564   3.542   2.222   5.482 -3.9490  1.4437 -0.3000
  173SLPC  C21519565   3.376   2.196   5.609 -0.1701  0.1291 -0.5070
  173SLPC  H15R19566   3.388   2.285   5.674  1.6800 -1.3423  1.2907
  173SLPC  H15S19567   3.325   2.120   5.671  0.6714  0.3983  0.5353
  173SLPC  C21619568   3.287   2.234   5.493  1.2224 -0.5658  0.4456
  173SLPC  H16R19569   3.278   2.144   5.429  0.3707  0.0746 -0.3556
  173SLPC  H16S19570   3.333   2.312   5.429 -2.9171  2.0925  0.3705
  173SLPC  C21719571   3.150   2.285   5.534  0.8592  0.4234  0.1074
  173SLPC  H17R19572   3.080   2.198   5.531 -0.8682  1.7844 -1.2312
  173SLPC  H17S19573   3.116   2.361   5.461  2.1355  0.7759 -0.1404
  173SLPC  C21819574   3.134   2.353   5.671  0.2956 -0.5452 -0.0783
  173SLPC  H18R19575   3.145   2.279   5.753 -0.9733 -1.0403 -0.3261
  173SLPC  H18S19576   3.028   2.384   5.681  0.3706 -0.6019  0.9878
  173SLPC  H18T19577   3.203   2.440   5.680  0.8656 -0.8680 -1.2257
  173SLPC   C3319578   4.717   1.305   5.878 -0.3097  0.0678  0.5108
  173SLPC   H3X19579   4.811   1.263   5.919  0.3816  1.1042  0.0230
  173SLPC   H3Y19580   4.685   1.385   5.948 -2.5455  0.8178 -1.2672
  173SLPC   C3419581   4.735   1.371   5.737  0.0614 -0.0040 -0.7252
  173SLPC   H4X19582   4.746   1.287   5.665  0.2853 -0.4968 -0.1234
  173SLPC   H4Y19583   4.821   1.442   5.739 -0.0768  0.1625  1.3415
  173SLPC   C3519584   4.617   1.457   5.700 -0.0611 -0.9615  0.1795
  173SLPC   H5X19585   4.613   1.545   5.767  2.0947 -1.4911  1.0822
  173SLPC   H5Y19586   4.525   1.395   5.688 -1.1577  0.8216 -1.1044
  173SLPC   C3619587   4.641   1.515   5.561 -0.0600  0.6903 -0.3855
  173SLPC   H6X19588   4.650   1.424   5.499 -0.7519  0.8157 -0.6853
  173SLPC   H6Y19589   4.739   1.568   5.560  0.8573 -0.9287  0.4287
  173SLPC   C3719590   4.525   1.595   5.495 -1.2021  0.3559 -0.4502
  173SLPC   H7X19591   4.464   1.654   5.566 -1.4281 -0.4204  0.0176
  173SLPC   H7Y19592   4.461   1.514   5.455 -0.4809  0.0591 -1.0290
  173SLPC   C3819593   4.581   1.697   5.390  0.0451 -0.8271 -0.1369
  173SLPC   H8X19594   4.638   1.777   5.442 -1.3977 -0.3998  0.8530
  173SLPC   H8Y19595   4.493   1.742   5.340 -0.7500 -1.1019  0.9681
  173SLPC   C3919596   4.663   1.636   5.277  0.4426 -0.9037 -0.1365
  173SLPC   H9X19597   4.602   1.551   5.240 -1.7731  2.0509 -4.1140
  173SLPC   H9Y19598   4.760   1.593   5.309  0.7158 -2.6484 -2.9531
  173SLPC  C31019599   4.693   1.735   5.155  0.4077  0.0009 -0.5164
  173SLPC  H10X19600   4.730   1.831   5.197 -0.3648  0.3499 -0.5985
  173SLPC  H10Y19601   4.594   1.745   5.105  0.2486 -1.7375 -0.6094
  173SLPC  C31119602   4.802   1.673   5.068 -0.0197  0.1548 -0.4667
  173SLPC  H11X19603   4.886   1.641   5.134  0.5152 -1.0200 -1.6524
  173SLPC  H11Y19604   4.852   1.740   4.995  0.3916 -2.1218 -2.4062
  173SLPC  C31219605   4.739   1.551   5.003  0.1336  0.1508 -0.2185
  173SLPC  H12X19606   4.689   1.482   5.074 -0.1950  0.4044 -0.2026
  173SLPC  H12Y19607   4.829   1.493   4.971  0.4441 -0.5875  1.8165
  173SLPC  C31319608   4.658   1.587   4.882 -0.0809 -0.8310 -0.3569
  173SLPC  H13X19609   4.715   1.659   4.819 -0.1016  0.6789  1.2860
  173SLPC  H13Y19610   4.569   1.640   4.923  0.1706 -1.0963  0.5491
  173SLPC  C31419611   4.613   1.469   4.792 -0.0411 -0.6577  0.0809
  173SLPC  H14X19612   4.625   1.379   4.856 -0.4499 -1.2707 -0.6842
  173SLPC  H14Y19613   4.683   1.465   4.705 -0.6595  1.1058 -0.5434
  173SLPC  C31519614   4.470   1.485   4.736  0.9096  0.0147 -0.0026
  173SLPC  H15X19615   4.405   1.480   4.826  0.2497  0.4960 -0.4425
  173SLPC  H15Y19616   4.446   1.401   4.668  1.7868  0.2414 -0.6051
  173SLPC  C31619617   4.442   1.607   4.650  0.7609 -0.8784 -0.2946
  173SLPC  H16X19618   4.466   1.695   4.714 -0.0950  0.5658 -1.8837
  173SLPC  H16Y19619   4.334   1.606   4.623  0.7282  1.1350 -0.3267
  173SLPC  C31719620   4.522   1.608   4.526 -0.4943 -0.4134 -0.2818
  173SLPC  H17X19621   4.495   1.518   4.466  1.2787 -1.1151 -0.0910
  173SLPC  H17Y19622   4.630   1.611   4.549 -0.9892 -0.1205  2.3061
  173SLPC  C31819623   4.499   1.730   4.439  0.1253 -0.1883  0.4827
  173SLPC  H18X19624   4.396   1.746   4.401  0.8185  0.5358 -1.2543
  173SLPC  H18Y19625   4.553   1.720   4.342  1.2461  2.4716  0.7415
  173SLPC  H18Z19626   4.539   1.821   4.488  1.2741 -0.4783  0.1251
  174SLPC     N19627   3.191   1.157   6.485 -0.6962 -0.8248  0.8612
  174SLPC   C1319628   3.146   1.254   6.585 -0.2414 -0.7186  0.4330
  174SLPC  H13A19629   3.207   1.263   6.674  1.8309  0.6108 -1.0412
  174SLPC  H13B19630   3.136   1.352   6.542 -0.4584 -0.1108  1.7970
  174SLPC  H13C19631   3.042   1.230   6.604  0.0566 -2.6792 -0.1541
  174SLPC   C1419632   3.182   1.015   6.528  0.0502  0.6573 -0.6788
  174SLPC  H14A19633   3.241   0.948   6.469 -0.2441  1.5972 -2.1018
  174SLPC  H14B19634   3.197   0.996   6.633 -2.2040 -4.0255 -0.9703
  174SLPC  H14C19635   3.078   0.989   6.515  0.2845 -0.2074 -0.8268
  174SLPC   C1519636   3.338   1.185   6.465 -0.4212 -0.4048  0.1800
  174SLPC  H15A19637   3.345   1.277   6.409 -1.2309 -0.4652 -0.0323
  174SLPC  H15B19638   3.393   1.195   6.557  1.1416  2.3429 -0.9502
  174SLPC  H15C19639   3.381   1.107   6.404  1.4133  0.2336  0.5894
  174SLPC   C1219640   3.124   1.179   6.351 -0.0145  0.3860 -0.7602
  174SLPC  H12A19641   3.017   1.172   6.363  0.0402 -1.7412 -1.1066
  174SLPC  H12B19642   3.142   1.098   6.281  1.0921  0.9488 -1.1622
  174SLPC   C1119643   3.160   1.304   6.273  0.9874  0.1288 -0.9086
  174SLPC  H11A19644   3.107   1.296   6.176  0.9063  1.9773 -1.0421
  174SLPC  H11B19645   3.267   1.295   6.244  0.8030  0.5142 -1.7156
  174SLPC     P19646   3.205   1.559   6.353 -0.0234 -0.1611 -0.0942
  174SLPC   O1319647   3.102   1.661   6.384 -0.2515  0.1500 -0.1025
  174SLPC   O1419648   3.305   1.554   6.463  0.2890 -0.0280 -0.1563
  174SLPC   O1219649   3.125   1.420   6.341 -0.5433  0.2512 -0.4575
  174SLPC   O1119650   3.271   1.575   6.209 -0.4947 -0.2106 -0.7580
  174SLPC    C119651   3.221   1.650   6.107 -0.2961 -0.2418  0.0331
  174SLPC    HA19652   3.180   1.747   6.142 -0.9951  0.7386 -3.1453
  174SLPC    HB19653   3.303   1.678   6.038 -1.5367  0.6369 -1.1530
  174SLPC    C219654   3.106   1.579   6.031  0.4611  0.1830  0.2243
  174SLPC    HS19655   3.037   1.538   6.108  0.1189  0.1509 -0.0951
  174SLPC   O2119656   3.179   1.480   5.962  0.1708  0.2528  0.1633
  174SLPC   C2119657   3.098   1.384   5.918 -0.1606 -0.0699 -0.2881
  174SLPC   O2219658   2.979   1.376   5.941 -0.2259  0.3445 -0.2896
  174SLPC   C2219659   3.165   1.285   5.819 -0.3747  0.0248  0.0058
  174SLPC   H2R19660   3.234   1.360   5.775  2.1143 -0.9537  2.0226
  174SLPC   H2S19661   3.228   1.226   5.888  2.3769 -1.1672 -3.2451
  174SLPC    C319662   3.027   1.666   5.933 -0.0137  0.3097 -0.2192
  174SLPC    HX19663   2.955   1.726   5.992 -2.5816 -0.6167 -2.2003
  174SLPC    HY19664   2.958   1.597   5.881  1.4323  0.0238 -1.8462
  174SLPC   O3119665   3.109   1.748   5.835 -0.2194  0.4289  0.2261
  174SLPC   C3119666   3.120   1.700   5.712  0.4468  0.3384 -0.4666
  174SLPC   O3219667   3.062   1.605   5.670  0.2271 -0.3471 -0.3708
  174SLPC   C3219668   3.200   1.804   5.624 -0.2416 -0.1593 -0.5204
  174SLPC   H2X19669   3.296   1.796   5.680 -1.5519 -0.4645  1.8259
  174SLPC   H2Y19670   3.162   1.908   5.619 -0.1714 -0.1659 -1.1854
  174SLPC   C2319671   3.076   1.203   5.723 -0.2311  0.5689  0.0410
  174SLPC   H3R19672   2.988   1.162   5.778  0.9233 -0.0300  1.5075
  174SLPC   H3S19673   3.131   1.117   5.682  1.6225  1.7766 -0.1160
  174SLPC   C2419674   3.026   1.281   5.600 -0.3694  0.0044  0.3897
  174SLPC   H4R19675   2.990   1.381   5.632  0.4476  0.1098  1.0061
  174SLPC   H4S19676   2.946   1.226   5.545 -2.2020  1.4207  1.4995
  174SLPC   C2519677   3.135   1.304   5.493  0.2674 -0.5422 -0.4908
  174SLPC   H5R19678   3.186   1.207   5.473  0.9517 -0.3353  0.2327
  174SLPC   H5S19679   3.222   1.364   5.527 -1.3592  1.5401  0.2031
  174SLPC   C2619680   3.076   1.375   5.369  0.0799 -0.0175  0.0492
  174SLPC   H6R19681   3.017   1.462   5.405 -1.2910 -1.8097  2.4990
  174SLPC   H6S19682   3.001   1.312   5.316 -0.9840  0.1626  1.2828
  174SLPC   C2719683   3.178   1.424   5.273  0.3112  0.0412  0.3118
  174SLPC   H7R19684   3.222   1.336   5.221  0.0214 -0.9770  1.7119
  174SLPC   H7S19685   3.253   1.475   5.337  0.1670 -0.8128  1.1883
  174SLPC   C2819686   3.127   1.524   5.173  0.0483 -0.4927  0.5568
  174SLPC   H8R19687   3.101   1.619   5.226  0.6381 -0.7785  1.3840
  174SLPC   H8S19688   3.025   1.488   5.145 -0.4662  0.2151  1.4521
  174SLPC   C2919689   3.209   1.529   5.046 -0.1587 -0.5132  0.3762
  174SLPC   H9R19690   3.291   1.456   5.048 -0.2242 -0.5868  0.3499
  174SLPC  C21019691   3.195   1.604   4.935  0.8162 -0.9067  0.5166
  174SLPC  H10R19692   3.263   1.595   4.849 -1.6157 -0.3654 -1.5793
  174SLPC  C21119693   3.076   1.703   4.913 -0.2069 -0.3952 -0.1359
  174SLPC  H11R19694   3.124   1.794   4.872  1.0161 -0.7637  0.4395
  174SLPC  H11S19695   3.036   1.737   5.011  2.6384  1.5765  0.4682
  174SLPC  C21219696   2.973   1.648   4.819 -0.7527 -0.0895 -0.0752
  174SLPC  H12R19697   2.916   1.565   4.864  1.0477 -0.1793  2.2680
  174SLPC  C21319698   2.938   1.697   4.705 -0.8642  0.5975 -0.0703
  174SLPC  H13R19699   2.855   1.643   4.657 -0.9316 -0.9288  1.6612
  174SLPC  C21419700   2.995   1.818   4.632 -0.1741  0.0581  0.5225
  174SLPC  H14R19701   3.039   1.784   4.536 -1.0779 -1.3751  0.5735
  174SLPC  H14S19702   3.078   1.871   4.683 -0.5079  2.1562 -0.9857
  174SLPC  C21519703   2.890   1.922   4.599 -0.0680  0.5343  0.0190
  174SLPC  H15R19704   2.805   1.885   4.538  1.2960 -1.2521 -0.9029
  174SLPC  H15S19705   2.930   1.999   4.529 -0.5235 -1.6504 -2.8391
  174SLPC  C21619706   2.828   1.982   4.726 -0.0459  0.1300  0.0981
  174SLPC  H16R19707   2.913   2.013   4.790  2.2348  1.2704 -3.2281
  174SLPC  H16S19708   2.774   1.896   4.772  0.2725 -0.2143 -0.1666
  174SLPC  C21719709   2.717   2.092   4.714  0.8555  0.3780 -0.3565
  174SLPC  H17R19710   2.649   2.071   4.628  1.3713 -0.1158 -0.6572
  174SLPC  H17S19711   2.778   2.183   4.698  1.5454 -0.0420 -0.1783
  174SLPC  C21819712   2.636   2.112   4.843  0.2403 -0.0763 -0.1657
  174SLPC  H18R19713   2.558   2.187   4.817  1.8693  1.8706  0.2976
  174SLPC  H18S19714   2.694   2.134   4.935  0.2080 -1.0040  0.0789
  174SLPC  H18T19715   2.581   2.017   4.859 -2.0560  1.4842  1.9537
  174SLPC   C3319716   3.223   1.756   5.478  0.5137 -0.0922 -0.0667
  174SLPC   H3X19717   3.132   1.759   5.415 -0.1190  1.5803  0.8495
  174SLPC   H3Y19718   3.267   1.655   5.471 -0.4425 -0.7008  2.0076
  174SLPC   C3419719   3.321   1.852   5.403 -0.3975  0.0116 -0.5085
  174SLPC   H4X19720   3.413   1.862   5.464  0.2697 -1.2563 -1.2565
  174SLPC   H4Y19721   3.282   1.955   5.390 -1.5971 -0.4266 -0.4820
  174SLPC   C3519722   3.354   1.808   5.263  0.0218 -0.1416 -0.7107
  174SLPC   H5X19723   3.269   1.790   5.194 -1.1620  0.3136  0.5874
  174SLPC   H5Y19724   3.420   1.719   5.266  0.4408  0.1875  1.5718
  174SLPC   C3619725   3.435   1.928   5.198  0.2383 -1.0304 -0.7063
  174SLPC   H6X19726   3.514   1.965   5.267  0.0130 -1.8961  0.0373
  174SLPC   H6Y19727   3.365   2.013   5.183 -0.3520 -1.7686 -2.3766
  174SLPC   C3719728   3.508   1.877   5.072  0.3039 -1.4252  0.1117
  174SLPC   H7X19729   3.427   1.854   4.999  0.1164 -0.3488 -0.0333
  174SLPC   H7Y19730   3.565   1.785   5.099 -1.7701 -2.2411  2.0364
  174SLPC   C3819731   3.587   1.992   5.002 -0.1263 -0.1492 -0.4141
  174SLPC   H8X19732   3.694   1.978   5.026 -0.3083 -0.9583 -0.0442
  174SLPC   H8Y19733   3.554   2.094   5.030  2.1923  0.8020 -0.9272
  174SLPC   C3919734   3.596   1.963   4.852 -0.0772  0.6143  0.4651
  174SLPC   H9X19735   3.612   1.854   4.835  1.9397  1.1945 -2.0922
  174SLPC   H9Y19736   3.694   2.007   4.821  0.8797 -2.0989 -0.7623
  174SLPC  C31019737   3.474   2.020   4.768 -0.6705  1.1580 -0.5975
  174SLPC  H10X19738   3.482   2.126   4.801 -0.1819  0.6206  1.1342
  174SLPC  H10Y19739   3.380   1.985   4.816  0.9618 -2.0517  0.5496
  174SLPC  C31119740   3.483   2.018   4.612  0.6419 -0.4248 -0.0808
  174SLPC  H11X19741   3.391   2.073   4.581  1.1758 -0.4514 -1.8228
  174SLPC  H11Y19742   3.470   1.913   4.578  0.8788 -0.6350  0.4699
  174SLPC  C31219743   3.627   2.054   4.553  0.1124  0.3565  0.1717
  174SLPC  H12X19744   3.625   2.036   4.444 -1.4125 -0.4325  0.3035
  174SLPC  H12Y19745   3.705   1.991   4.603 -0.2583  2.1162  3.2296
  174SLPC  C31319746   3.664   2.199   4.571 -0.3311 -0.1901 -0.2849
  174SLPC  H13X19747   3.658   2.226   4.678 -0.6313 -0.6913 -0.1734
  174SLPC  H13Y19748   3.576   2.252   4.527 -0.0107 -0.0556 -0.7806
  174SLPC  C31419749   3.794   2.245   4.501  0.4393 -0.4394 -0.2958
  174SLPC  H14X19750   3.795   2.356   4.511 -0.1548 -0.5055  0.6095
  174SLPC  H14Y19751   3.812   2.229   4.393 -0.5044  0.3676 -0.5862
  174SLPC  C31519752   3.916   2.173   4.576  0.0931 -0.1047 -0.2887
  174SLPC  H15X19753   3.890   2.065   4.574 -1.9160  0.3351 -1.4297
  174SLPC  H15Y19754   3.900   2.215   4.677 -1.6771  0.6415 -0.8224
  174SLPC  C31619755   4.050   2.198   4.514 -0.2765 -0.7743  0.3360
  174SLPC  H16X19756   4.066   2.308   4.506  0.1412 -0.6034  2.7914
  174SLPC  H16Y19757   4.051   2.158   4.410 -1.0973  0.4550 -0.1738
  174SLPC  C31719758   4.170   2.165   4.612 -0.7457 -0.0478  0.4791
  174SLPC  H17X19759   4.143   2.074   4.670  2.3853 -0.0751  2.1158
  174SLPC  H17Y19760   4.192   2.238   4.692 -1.1899 -0.6804  1.1867
  174SLPC  C31819761   4.288   2.124   4.529 -0.3599  0.3446  0.0133
  174SLPC  H18X19762   4.257   2.037   4.467 -2.8459  0.1854  1.3859
  174SLPC  H18Y19763   4.378   2.087   4.583 -0.4477  1.5508  1.0141
  174SLPC  H18Z19764   4.315   2.207   4.460 -1.7501  1.5522  0.8523
  175SLPC     N19765   0.442   3.038   6.386  0.1763  0.6882  0.0197
  175SLPC   C1319766   0.334   3.107   6.465 -0.7275 -1.0911 -0.8091
  175SLPC  H13A19767   0.234   3.077   6.437 -1.0033 -2.1978  1.1741
  175SLPC  H13B19768   0.341   3.082   6.570  1.7197 -2.9123 -1.3211
  175SLPC  H13C19769   0.336   3.215   6.452  1.6414 -0.8093  1.1941
  175SLPC   C1419770   0.428   2.888   6.398 -0.5165  0.3403  0.4740
  175SLPC  H14A19771   0.415   2.862   6.502 -2.3297 -3.8202 -0.5783
  175SLPC  H14B19772   0.348   2.844   6.340  0.3607  1.2150 -1.4888
  175SLPC  H14C19773   0.518   2.833   6.377 -1.2024 -0.2648 -0.9773
  175SLPC   C1519774   0.573   3.076   6.447 -0.1461  0.4750 -0.0851
  175SLPC  H15A19775   0.587   3.032   6.545  2.4395 -2.6252 -1.6579
  175SLPC  H15B19776   0.655   3.025   6.399 -0.0719  0.1222  0.4022
  175SLPC  H15C19777   0.578   3.183   6.464 -3.9964  0.6659  0.8117
  175SLPC   C1219778   0.448   3.076   6.240 -0.1421  0.0355  0.1217
  175SLPC  H12A19779   0.534   3.041   6.185 -1.2021 -0.2702 -1.4063
  175SLPC  H12B19780   0.452   3.183   6.226  0.8995  0.0027  0.0968
  175SLPC   C1119781   0.327   3.046   6.147  0.6138 -0.0437  0.8835
  175SLPC  H11A19782   0.303   2.938   6.132 -1.7847  0.1305  2.8429
  175SLPC  H11B19783   0.329   3.080   6.041 -0.4390 -0.3355  0.7582
  175SLPC     P19784   0.157   3.250   6.175  0.4831  0.0136 -0.1555
  175SLPC   O1319785   0.008   3.235   6.182 -0.3745  0.1053 -0.2171
  175SLPC   O1419786   0.222   3.338   6.273  0.3740 -0.1430  0.0789
  175SLPC   O1219787   0.211   3.107   6.200 -0.2527  0.1894 -0.4929
  175SLPC   O1119788   0.205   3.287   6.026 -0.6613 -0.3617 -0.1917
  175SLPC    C119789   0.144   3.396   5.955  0.4133  0.6403 -0.2850
  175SLPC    HA19790   0.035   3.396   5.977  0.2548  0.1419 -1.0219
  175SLPC    HB19791   0.190   3.489   5.994  1.3408  1.0946 -2.3330
  175SLPC    C219792   0.171   3.394   5.805  0.0418  0.2385 -0.2309
  175SLPC    HS19793   0.160   3.286   5.779  0.1643 -0.3811  2.1087
  175SLPC   O2119794   0.295   3.450   5.772 -0.0532 -0.0480 -0.4996
  175SLPC   C2119795   0.398   3.356   5.779  0.3554 -0.2294 -0.6283
  175SLPC   O2219796   0.386   3.235   5.782  0.0577 -0.1981  0.7479
  175SLPC   C2219797   0.537   3.414   5.792  0.5414  0.2191  0.6935
  175SLPC   H2R19798   0.531   3.524   5.804  2.4261  0.1805  2.4994
  175SLPC   H2S19799   0.574   3.372   5.888  0.9583 -0.5834  0.1954
  175SLPC    C319800   0.058   3.466   5.716 -0.2878 -0.7209 -0.1392
  175SLPC    HX19801   0.091   3.571   5.733 -0.7970 -0.6736  0.6006
  175SLPC    HY19802  -0.041   3.438   5.757  0.1835 -3.1339 -0.4603
  175SLPC   O3119803   0.074   3.443   5.579  0.0452 -0.2930 -0.0012
  175SLPC   C3119804   0.010   3.332   5.543  0.1134  1.1685 -0.2804
  175SLPC   O3219805  -0.059   3.263   5.614  0.1616 -0.2192 -0.1928
  175SLPC   C3219806   0.033   3.304   5.392 -0.4784 -0.2011 -0.0915
  175SLPC   H2X19807  -0.004   3.390   5.331 -1.9786 -0.3891  0.5185
  175SLPC   H2Y19808  -0.023   3.210   5.372 -0.2660 -0.1322 -1.0662
  175SLPC   C2319809   0.632   3.371   5.679  0.6312 -0.2781 -0.8742
  175SLPC   H3R19810   0.603   3.274   5.634 -0.1856 -0.1666 -0.6017
  175SLPC   H3S19811   0.731   3.359   5.728  0.4722 -1.4756 -0.8210
  175SLPC   C2419812   0.648   3.474   5.568 -0.6701 -0.6087 -0.1471
  175SLPC   H4R19813   0.668   3.573   5.613  1.7592 -0.9055 -0.3982
  175SLPC   H4S19814   0.547   3.483   5.525 -1.9452  1.1996  2.9351
  175SLPC   C2519815   0.743   3.434   5.460  0.2784  0.0826 -0.1735
  175SLPC   H5R19816   0.735   3.325   5.441  0.6305 -0.3591  1.9315
  175SLPC   H5S19817   0.843   3.447   5.507  0.3061 -0.7395  0.0085
  175SLPC   C2619818   0.729   3.519   5.332 -0.0025 -0.8978  0.2363
  175SLPC   H6R19819   0.721   3.624   5.366 -2.7222 -0.8699 -0.2725
  175SLPC   H6S19820   0.629   3.498   5.288  0.1063  0.1683 -0.5612
  175SLPC   C2719821   0.836   3.503   5.224 -0.6960 -0.2076 -0.1778
  175SLPC   H7R19822   0.833   3.396   5.195 -1.0133 -0.0729 -0.6468
  175SLPC   H7S19823   0.938   3.519   5.266 -0.3386 -0.5625 -0.8989
  175SLPC   C2819824   0.812   3.578   5.089  0.8228  0.5519  0.3704
  175SLPC   H8R19825   0.907   3.570   5.032 -0.7949 -1.2795 -2.2907
  175SLPC   H8S19826   0.778   3.682   5.107  0.7498  0.1445  3.0168
  175SLPC   C2919827   0.712   3.508   5.002  0.1519 -0.1279 -0.2135
  175SLPC   H9R19828   0.610   3.525   5.039  0.1101 -0.2773 -0.2605
  175SLPC  C21019829   0.731   3.440   4.893  0.0623 -0.2356 -0.3960
  175SLPC  H10R19830   0.638   3.409   4.843 -1.0831 -2.2052  2.6467
  175SLPC  C21119831   0.868   3.394   4.834 -0.5107 -0.4569 -0.4693
  175SLPC  H11R19832   0.891   3.287   4.851 -1.0150 -0.8219 -1.9473
  175SLPC  H11S19833   0.955   3.454   4.869 -0.5244  0.1005 -1.3577
  175SLPC  C21219834   0.870   3.418   4.687  0.5144 -0.2174  0.9216
  175SLPC  H12R19835   0.900   3.518   4.651 -1.8033 -0.0781 -0.8858
  175SLPC  C21319836   0.829   3.330   4.595 -0.0214 -0.3183  0.1147
  175SLPC  H13R19837   0.824   3.361   4.490  2.5584 -0.3604 -0.0808
  175SLPC  C21419838   0.787   3.188   4.619  0.2736  0.4904  0.3441
  175SLPC  H14R19839   0.693   3.166   4.565  0.1530  0.9101  0.3755
  175SLPC  H14S19840   0.758   3.177   4.726 -0.7232 -0.0847  0.0248
  175SLPC  C21519841   0.896   3.081   4.578 -0.3265 -0.0622 -0.4392
  175SLPC  H15R19842   0.863   2.978   4.600 -0.8418 -0.2360 -1.9162
  175SLPC  H15S19843   0.988   3.103   4.635  1.0099 -0.7748 -2.2127
  175SLPC  C21619844   0.944   3.088   4.433 -0.0773 -0.0043  0.1951
  175SLPC  H16R19845   0.968   3.193   4.410  1.6288 -0.1126  1.3622
  175SLPC  H16S19846   0.862   3.057   4.364 -0.0463 -0.1233  0.2111
  175SLPC  C21719847   1.070   2.998   4.415  0.1549  0.2028 -0.7178
  175SLPC  H17R19848   1.042   2.897   4.453 -0.4863  1.0851  1.2599
  175SLPC  H17S19849   1.142   3.042   4.487 -1.8628  1.1855  0.7931
  175SLPC  C21819850   1.140   2.991   4.279 -0.7515  0.1782 -0.7330
  175SLPC  H18R19851   1.242   2.948   4.280 -0.9018 -0.1761 -0.6643
  175SLPC  H18S19852   1.140   3.090   4.229 -2.3602  0.8372  0.4759
  175SLPC  H18T19853   1.081   2.928   4.209  0.1618  0.5715 -1.8806
  175SLPC   C3319854   0.186   3.310   5.370 -0.2629 -0.1620 -0.1337
  175SLPC   H3X19855   0.213   3.413   5.400 -1.1705 -0.0217  0.2333
  175SLPC   H3Y19856   0.195   3.309   5.259 -1.5039  1.8125 -0.2845
  175SLPC   C3419857   0.266   3.187   5.422 -0.6494 -0.2834  0.2843
  175SLPC   H4X19858   0.220   3.093   5.384 -0.4556 -0.1777 -0.2289
  175SLPC   H4Y19859   0.267   3.202   5.532 -1.2187 -0.7348  0.3587
  175SLPC   C3519860   0.411   3.190   5.360  0.4478  0.2915 -1.1608
  175SLPC   H5X19861   0.469   3.117   5.421 -0.8969  0.6790  0.6673
  175SLPC   H5Y19862   0.458   3.285   5.392  3.0022 -1.4396  0.6864
  175SLPC   C3619863   0.417   3.153   5.208  0.2846  0.1902 -0.5630
  175SLPC   H6X19864   0.375   3.240   5.153  1.0629  1.2030  0.3925
  175SLPC   H6Y19865   0.356   3.060   5.205  1.7820 -0.7967 -1.1127
  175SLPC   C3719866   0.562   3.128   5.172  0.0789  0.1730 -0.4826
  175SLPC   H7X19867   0.606   3.057   5.245 -2.0471 -1.0033 -0.2704
  175SLPC   H7Y19868   0.614   3.221   5.203  0.1793  0.0774 -0.3650
  175SLPC   C3819869   0.573   3.093   5.023 -0.4431  0.6909  0.1704
  175SLPC   H8X19870   0.679   3.066   5.005 -0.7589 -1.5922  1.3954
  175SLPC   H8Y19871   0.548   3.190   4.975 -0.2045  1.7342  2.0602
  175SLPC   C3919872   0.473   2.983   4.976  0.3371  0.1244 -0.5436
  175SLPC   H9X19873   0.367   3.017   4.981  0.5993  0.8860  0.0800
  175SLPC   H9Y19874   0.488   2.899   5.047 -1.9392 -0.1120 -0.2586
  175SLPC  C31019875   0.490   2.928   4.837  0.0700  0.1725 -0.5709
  175SLPC  H10X19876   0.431   2.834   4.838  0.6981 -0.2304  0.9577
  175SLPC  H10Y19877   0.597   2.904   4.819 -0.5603 -0.7009 -3.8170
  175SLPC  C31119878   0.425   3.018   4.735  0.2066  0.1209  0.8903
  175SLPC  H11X19879   0.458   3.124   4.742 -0.5050  0.5003 -1.0541
  175SLPC  H11Y19880   0.314   3.020   4.738  0.1550 -1.6535  2.9164
  175SLPC  C31219881   0.466   2.991   4.583 -0.1696 -0.5083  0.3248
  175SLPC  H12X19882   0.428   2.891   4.553  1.1706 -0.0214 -3.4369
  175SLPC  H12Y19883   0.577   2.991   4.581 -0.1483  1.3062  0.0236
  175SLPC  C31319884   0.407   3.100   4.488  0.3099  0.0966  0.6173
  175SLPC  H13X19885   0.465   3.195   4.496 -0.5926  1.0356 -2.4192
  175SLPC  H13Y19886   0.299   3.118   4.502 -0.2383 -2.4990  0.2147
  175SLPC  C31419887   0.432   3.063   4.344  0.1914  1.0263  0.4123
  175SLPC  H14X19888   0.360   3.126   4.288  0.1646 -0.7616 -1.6765
  175SLPC  H14Y19889   0.389   2.964   4.319 -1.7709  1.8323  0.4747
  175SLPC  C31519890   0.582   3.065   4.288  0.7588 -0.1549  0.1541
  175SLPC  H15X19891   0.629   2.970   4.320 -3.9583 -2.0814  2.2056
  175SLPC  H15Y19892   0.633   3.141   4.351  2.1790  0.5161 -1.6821
  175SLPC  C31619893   0.607   3.097   4.143  0.3141  0.3134 -0.0407
  175SLPC  H16X19894   0.566   3.010   4.087  1.6817 -0.1565 -0.3512
  175SLPC  H16Y19895   0.717   3.097   4.123 -0.2714  1.0587 -4.1698
  175SLPC  C31719896   0.538   3.225   4.100  0.1028 -0.4132 -0.4304
  175SLPC  H17X19897   0.440   3.234   4.151 -0.1902 -1.5000 -0.7856
  175SLPC  H17Y19898   0.507   3.219   3.994 -3.3997  0.4709  0.4268
  175SLPC  C31819899   0.622   3.353   4.124 -1.1003 -0.4480 -0.5630
  175SLPC  H18X19900   0.714   3.352   4.062 -0.2417 -2.9127  0.6100
  175SLPC  H18Y19901   0.653   3.348   4.230  1.6356 -1.1537 -1.3220
  175SLPC  H18Z19902   0.565   3.444   4.095 -0.2177 -0.8426 -4.0205
  176SLPC     N19903   5.867   2.191   6.479  0.0456  0.1963 -0.2462
  176SLPC   C1319904   5.883   2.071   6.573 -0.0680 -1.0750  0.2496
  176SLPC  H13A19905   5.814   1.988   6.567 -1.4498  0.0262  0.2797
  176SLPC  H13B19906   5.980   2.026   6.558  0.5225 -0.7509  2.6147
  176SLPC  H13C19907   5.861   2.115   6.670 -0.8837  0.7583 -0.7138
  176SLPC   C1419908   5.979   2.284   6.509  0.0975  0.0478  0.0227
  176SLPC  H14A19909   5.997   2.289   6.616 -0.0302  3.0976  0.0021
  176SLPC  H14B19910   6.073   2.246   6.473 -0.0513 -0.0630 -0.2430
  176SLPC  H14C19911   5.966   2.388   6.481 -1.1311 -0.1549 -0.2058
  176SLPC   C1519912   5.738   2.249   6.518 -0.5106 -0.9865  0.0542
  176SLPC  H15A19913   5.701   2.329   6.455  0.9516  0.7870  1.3425
  176SLPC  H15B19914   5.662   2.173   6.503 -0.1331 -1.6046  1.1627
  176SLPC  H15C19915   5.732   2.250   6.626  0.3625 -1.7067  0.1196
  176SLPC   C1219916   5.874   2.147   6.335  0.4906  0.0521  0.2140
  176SLPC  H12A19917   5.962   2.090   6.309 -0.3425 -0.4085 -1.8357
  176SLPC  H12B19918   5.862   2.236   6.275 -0.5762 -0.0160  0.3090
  176SLPC   C1119919   5.758   2.058   6.283 -0.0843  0.3358  0.0247
  176SLPC  H11A19920   5.772   2.043   6.174 -0.1284 -0.4611  0.1238
  176SLPC  H11B19921   5.655   2.097   6.296 -0.3511 -0.7930  1.6713
  176SLPC     P19922   5.837   1.805   6.297 -0.2643 -0.2455  0.1462
  176SLPC   O1319923   5.903   1.714   6.395  0.5036  0.6785  0.2016
  176SLPC   O1419924   5.725   1.739   6.218 -0.3985 -0.1239 -0.4475
  176SLPC   O1219925   5.768   1.936   6.358  0.1900  0.0502 -0.0070
  176SLPC   O1119926   5.952   1.876   6.198 -0.2976 -0.6632 -0.3291
  176SLPC    C119927   6.009   1.775   6.110 -0.7637  0.9565 -0.0798
  176SLPC    HA19928   6.101   1.735   6.157  0.4092 -0.6809 -3.4217
  176SLPC    HB19929   5.937   1.698   6.075 -0.1287  0.1462  0.3346
  176SLPC    C219930   6.056   1.848   5.981 -0.2118 -0.9490  0.3077
  176SLPC    HS19931   6.113   1.941   6.006  0.5298 -0.4305 -2.8905
  176SLPC   O2119932   5.950   1.872   5.885 -0.2750 -0.2514  0.3527
  176SLPC   C2119933   5.966   1.977   5.803 -0.6285  0.1572  0.6584
  176SLPC   O2219934   6.068   2.049   5.806  0.6215  0.5666 -0.0003
  176SLPC   C2219935   5.857   1.990   5.692 -0.2946 -0.0656 -0.4743
  176SLPC   H2R19936   5.814   1.891   5.666  2.8307 -1.4989 -0.6890
  176SLPC   H2S19937   5.797   2.075   5.729  1.5324  1.0916 -0.0182
  176SLPC    C319938   6.181   1.762   5.933  0.0504  0.3625  0.1065
  176SLPC    HX19939   6.148   1.660   5.903 -0.2969 -0.0955  1.9224
  176SLPC    HY19940   6.253   1.751   6.017 -1.6228 -1.8153  1.3617
  176SLPC   O3119941   6.257   1.816   5.826  0.2628  0.4674  0.3295
  176SLPC   C3119942   6.201   1.801   5.705 -0.5230 -0.4011  0.5716
  176SLPC   O3219943   6.093   1.756   5.677 -0.2690 -0.4008 -0.0091
  176SLPC   C3219944   6.303   1.854   5.598 -0.4099  0.0409  0.0180
  176SLPC   H2X19945   6.406   1.837   5.635 -0.3426  2.8844  1.4542
  176SLPC   H2Y19946   6.278   1.962   5.594 -0.9694 -0.0795  0.1761
  176SLPC   C2319947   5.913   2.046   5.557  0.0773  0.1727 -0.3199
  176SLPC   H3R19948   5.975   1.962   5.518  1.2224 -0.0197  1.8187
  176SLPC   H3S19949   5.973   2.134   5.590 -0.2930  0.5191 -0.5626
  176SLPC   C2419950   5.800   2.078   5.454 -0.1708  0.4681 -0.3014
  176SLPC   H4R19951   5.730   2.155   5.495  0.5333  2.4646 -2.5997
  176SLPC   H4S19952   5.741   1.985   5.441  0.7812  0.0254 -1.5891
  176SLPC   C2519953   5.845   2.142   5.321 -0.1043 -0.3673 -0.0411
  176SLPC   H5R19954   5.892   2.241   5.336 -1.0099  0.3067 -1.4661
  176SLPC   H5S19955   5.758   2.156   5.253  0.6072 -0.3755 -0.9732
  176SLPC   C2619956   5.952   2.057   5.257 -0.1563 -0.5823 -0.1329
  176SLPC   H6R19957   5.912   1.968   5.205  0.1506 -1.1569  0.5816
  176SLPC   H6S19958   6.029   2.016   5.327 -0.0578 -0.7082 -0.3164
  176SLPC   C2719959   6.028   2.139   5.152 -0.2034 -0.8913  0.3865
  176SLPC   H7R19960   6.093   2.212   5.205 -0.2827 -0.6869  0.1993
  176SLPC   H7S19961   5.960   2.212   5.102  0.4020 -0.6669 -0.1159
  176SLPC   C2819962   6.089   2.059   5.037 -0.1207  0.7608 -0.4410
  176SLPC   H8R19963   6.022   1.974   5.012  0.9098  0.3224 -1.7811
  176SLPC   H8S19964   6.179   2.009   5.079 -0.1252  0.9737 -0.1749
  176SLPC   C2919965   6.111   2.142   4.916  0.3013 -0.6004  0.3862
  176SLPC   H9R19966   6.118   2.250   4.936  1.9778 -0.8935  1.5874
  176SLPC  C21019967   6.125   2.107   4.786  0.2969  0.3153 -0.6059
  176SLPC  H10R19968   6.141   2.185   4.710 -0.3824  0.7470 -0.3148
  176SLPC  C21119969   6.127   1.963   4.728  0.2912  0.0551  0.2677
  176SLPC  H11R19970   6.034   1.915   4.765  0.0011  0.4393  0.0501
  176SLPC  H11S19971   6.216   1.909   4.765 -2.1529 -4.5102  0.2355
  176SLPC  C21219972   6.128   1.969   4.578  0.8628  0.1539 -0.4437
  176SLPC  H12R19973   6.185   2.057   4.544  0.2437  0.2236 -1.3308
  176SLPC  C21319974   6.091   1.871   4.488 -0.2073  0.1997 -0.1260
  176SLPC  H13R19975   6.113   1.897   4.384 -1.2479 -0.3234 -0.4933
  176SLPC  C21419976   6.025   1.742   4.513  0.2194  0.5178 -0.8908
  176SLPC  H14R19977   5.936   1.768   4.574  0.5139  0.3004 -0.3603
  176SLPC  H14S19978   6.091   1.681   4.578 -1.2936  2.1430  2.4181
  176SLPC  C21519979   5.983   1.667   4.383 -0.2758 -0.2620  0.1995
  176SLPC  H15R19980   5.950   1.566   4.418 -1.6964  0.6049  1.4697
  176SLPC  H15S19981   6.077   1.654   4.325  2.1441  1.3325  3.4919
  176SLPC  C21619982   5.880   1.742   4.302 -0.0522  0.3652  0.0477
  176SLPC  H16R19983   5.921   1.835   4.258 -0.0298  0.7916  0.9429
  176SLPC  H16S19984   5.801   1.765   4.377  0.5766 -1.8261  1.4956
  176SLPC  C21719985   5.816   1.656   4.190  0.2270  1.1588 -0.4662
  176SLPC  H17R19986   5.891   1.640   4.109  0.4272 -1.3206  0.1422
  176SLPC  H17S19987   5.733   1.716   4.146 -2.1926  0.3394  2.6609
  176SLPC  C21819988   5.756   1.521   4.237  0.2482 -0.2153 -0.3199
  176SLPC  H18R19989   5.696   1.515   4.331 -1.6031  0.4813 -1.4124
  176SLPC  H18S19990   5.842   1.451   4.248  1.0221  0.8707  0.8334
  176SLPC  H18T19991   5.689   1.477   4.160 -0.0349 -0.5634  0.1209
  176SLPC   C3319992   6.268   1.790   5.461 -0.4971 -0.0291  0.2911
  176SLPC   H3X19993   6.175   1.821   5.409  0.9993  1.1101 -1.9078
  176SLPC   H3Y19994   6.263   1.681   5.483  0.5232 -0.2260 -0.3619
  176SLPC   C3419995   6.385   1.809   5.358 -0.0883  0.0103 -0.0058
  176SLPC   H4X19996   6.485   1.792   5.403 -0.3173  0.9434  0.9008
  176SLPC   H4Y19997   6.376   1.913   5.320  2.3428  1.0203  1.9128
  176SLPC   C3519998   6.342   1.718   5.240 -1.0655 -0.2065 -0.5491
  176SLPC   H5X19999   6.234   1.731   5.217 -0.8371 -0.8597 -2.0713
  176SLPC   H5Y20000   6.349   1.609   5.258 -0.2786 -0.3024 -1.3944
  176SLPC   C3620001   6.429   1.746   5.112 -0.6761 -0.4037  0.1132
  176SLPC   H6X20002   6.526   1.700   5.140 -1.1907 -0.6270  1.6330
  176SLPC   H6Y20003   6.446   1.853   5.089  0.4714 -0.1266  2.0552
  176SLPC   C3720004   6.360   1.661   5.001 -0.1175  0.7481  0.6333
  176SLPC   H7X20005   6.265   1.714   4.981  0.7110  2.9521  2.1655
  176SLPC   H7Y20006   6.340   1.561   5.045  0.4261  0.4596  0.2424
  176SLPC   C3820007   6.452   1.640   4.877 -0.3686 -0.2824  0.3907
  176SLPC   H8X20008   6.538   1.579   4.911 -0.3769 -0.5173 -0.0048
  176SLPC   H8Y20009   6.504   1.733   4.846 -0.3051 -0.3723  0.2272
  176SLPC   C3920010   6.394   1.551   4.765 -0.8864 -1.0538 -0.0390
  176SLPC   H9X20011   6.471   1.548   4.686 -0.8952 -1.9406 -0.0292
  176SLPC   H9Y20012   6.309   1.608   4.723  0.0167 -0.5984 -1.2699
  176SLPC  C31020013   6.320   1.422   4.804 -0.1329 -0.1780  0.2141
  176SLPC  H10X20014   6.250   1.442   4.888 -0.4095 -0.0248 -0.0532
  176SLPC  H10Y20015   6.397   1.351   4.844 -0.8730 -2.3586 -1.9621
  176SLPC  C31120016   6.247   1.372   4.673 -1.1916  0.3665 -0.4441
  176SLPC  H11X20017   6.327   1.339   4.603  0.0714  2.7145 -0.2191
  176SLPC  H11Y20018   6.193   1.461   4.634 -1.7203 -0.0677 -0.7049
  176SLPC  C31220019   6.148   1.261   4.717 -0.5701  0.4000 -0.4182
  176SLPC  H12X20020   6.072   1.310   4.781  0.1172  1.3980 -0.3448
  176SLPC  H12Y20021   6.202   1.187   4.781 -0.2063  2.4511  1.7885
  176SLPC  C31320022   6.100   1.183   4.592  0.3697  0.2295 -0.2724
  176SLPC  H13X20023   6.031   1.100   4.619 -0.9483  1.3310 -0.1705
  176SLPC  H13Y20024   6.187   1.139   4.539 -0.9145 -1.8107 -0.7923
  176SLPC  C31420025   6.025   1.264   4.495  0.6007  0.0815  0.3595
  176SLPC  H14X20026   6.081   1.360   4.487 -2.4647  1.9817 -0.1904
  176SLPC  H14Y20027   5.921   1.289   4.527  0.4305  0.1725 -0.2559
  176SLPC  C31520028   6.006   1.194   4.358 -0.2128  0.2996  0.6872
  176SLPC  H15X20029   6.109   1.169   4.324 -0.0518 -0.8331  1.9087
  176SLPC  H15Y20030   5.948   1.258   4.288  0.2933  2.0578  1.7987
  176SLPC  C31620031   5.927   1.064   4.377 -0.8748 -0.6313 -0.1278
  176SLPC  H16X20032   5.831   1.095   4.424  0.0090  1.9128  0.2082
  176SLPC  H16Y20033   5.995   1.003   4.440 -0.0720 -0.8260 -1.1707
  176SLPC  C31720034   5.897   0.991   4.244  0.8466 -0.3531  0.4875
  176SLPC  H17X20035   5.844   1.069   4.185  0.6672 -2.1865 -1.9402
  176SLPC  H17Y20036   5.831   0.901   4.249  0.7902 -0.3508 -0.1599
  176SLPC  C31820037   6.011   0.942   4.155 -0.4494 -0.2384 -0.4354
  176SLPC  H18X20038   5.971   0.885   4.068  2.5689  0.9379 -2.7699
  176SLPC  H18Y20039   6.079   0.882   4.218 -0.4290 -0.4675 -0.6711
  176SLPC  H18Z20040   6.068   1.029   4.116  3.9650 -1.7757  1.9256
  177SLPC     N20041   0.629   3.909   6.495 -0.3008  0.1737  0.4315
  177SLPC   C1320042   0.558   3.791   6.432  0.2069 -0.5514 -0.3856
  177SLPC  H13A20043   0.477   3.820   6.367 -0.6253 -1.4634  0.2228
  177SLPC  H13B20044   0.628   3.737   6.370  0.5089 -0.7612  0.1335
  177SLPC  H13C20045   0.534   3.723   6.512  0.2538 -2.5910 -2.0222
  177SLPC   C1420046   0.634   4.017   6.389 -0.0578 -0.2653  0.5705
  177SLPC  H14A20047   0.662   4.116   6.422 -1.6034  0.5524 -0.4457
  177SLPC  H14B20048   0.685   3.987   6.300 -0.8409 -0.0895  0.0506
  177SLPC  H14C20049   0.536   4.042   6.351 -1.2653  1.8557  4.4881
  177SLPC   C1520050   0.762   3.864   6.542 -0.0088 -0.5985 -0.1135
  177SLPC  H15A20051   0.817   3.945   6.585  2.0097 -2.0384  0.1501
  177SLPC  H15B20052   0.751   3.781   6.611  1.7803  0.2027  1.2092
  177SLPC  H15C20053   0.825   3.835   6.459  2.3097 -1.8764  1.9451
  177SLPC   C1220054   0.555   3.958   6.614  1.1693  0.0138 -0.1615
  177SLPC  H12A20055   0.460   3.997   6.584  0.7898 -0.1917  0.7457
  177SLPC  H12B20056   0.605   4.044   6.655 -0.9305  0.8824  0.6808
  177SLPC   C1120057   0.529   3.857   6.736 -0.8515  0.1568 -0.2684
  177SLPC  H11A20058   0.489   3.911   6.824  0.0878  0.0640  0.2302
  177SLPC  H11B20059   0.613   3.803   6.785 -0.4456 -0.9912 -2.1319
  177SLPC     P20060   0.289   3.769   6.703  0.1402  0.6908 -0.1000
  177SLPC   O1320061   0.235   3.697   6.592 -0.4670  0.2054  0.0791
  177SLPC   O1420062   0.237   3.741   6.844 -0.4276  0.0287 -0.4377
  177SLPC   O1220063   0.440   3.753   6.704 -0.3547 -0.2953 -0.0689
  177SLPC   O1120064   0.268   3.928   6.678 -0.3123 -0.4310  0.1596
  177SLPC    C120065   0.139   3.989   6.674 -0.8335 -0.2633 -0.1601
  177SLPC    HA20066   0.063   3.916   6.710 -1.7678  0.7096 -0.0889
  177SLPC    HB20067   0.141   4.083   6.734  3.1417 -0.7544  0.7732
  177SLPC    C220068   0.101   4.032   6.533  0.5910 -0.8245  0.3428
  177SLPC    HS20069   0.017   4.101   6.557  1.1664 -0.2026  0.5925
  177SLPC   O2120070   0.045   3.922   6.465 -0.3642 -0.4596  0.7929
  177SLPC   C2120071  -0.077   3.880   6.481  0.1365 -0.1889  0.5425
  177SLPC   O2220072  -0.157   3.924   6.564 -0.0782  0.0243  0.5845
  177SLPC   C2220073  -0.099   3.769   6.381 -0.0380 -0.2243  0.0912
  177SLPC   H2R20074  -0.020   3.693   6.399  1.8523  1.9527  1.5065
  177SLPC   H2S20075  -0.197   3.719   6.397  0.4162 -1.1305  0.1280
  177SLPC    C320076   0.219   4.098   6.454 -0.0187 -0.3306  0.1827
  177SLPC    HX20077   0.305   4.031   6.475 -0.2784 -0.8244 -0.2962
  177SLPC    HY20078   0.243   4.198   6.495 -0.7105 -0.3936  0.7537
  177SLPC   O3120079   0.196   4.100   6.312 -0.5833 -0.2252  0.7267
  177SLPC   C3120080   0.297   4.139   6.241 -0.6296  0.0239 -0.3448
  177SLPC   O3220081   0.400   4.180   6.289  0.5204 -0.8265  0.4387
  177SLPC   C3220082   0.255   4.155   6.093  0.3857  0.3998  0.3623
  177SLPC   H2X20083   0.182   4.074   6.072  2.8862 -1.6167 -1.0821
  177SLPC   H2Y20084   0.342   4.135   6.027 -0.5008  0.1738 -0.7566
  177SLPC   C2320085  -0.099   3.813   6.235  0.0627  0.1187  0.2523
  177SLPC   H3R20086   0.001   3.855   6.209 -0.4811 -0.0036 -2.3743
  177SLPC   H3S20087  -0.185   3.879   6.211 -0.1001 -0.5748 -1.2054
  177SLPC   C2420088  -0.102   3.702   6.130  0.2439  0.0318 -0.7023
  177SLPC   H4R20089  -0.174   3.628   6.171  1.3618 -0.0565  1.2371
  177SLPC   H4S20090  -0.001   3.656   6.128  0.1832 -0.0824 -1.9091
  177SLPC   C2520091  -0.154   3.745   5.996  0.0948 -0.1201 -0.2013
  177SLPC   H5R20092  -0.249   3.797   6.020 -0.6780 -1.9001  0.7654
  177SLPC   H5S20093  -0.185   3.654   5.940  0.5780  0.5135 -1.5562
  177SLPC   C2620094  -0.056   3.821   5.907 -0.1107  0.2567  0.5526
  177SLPC   H6R20095   0.034   3.756   5.911 -0.3026 -0.1137 -0.7430
  177SLPC   H6S20096  -0.020   3.917   5.951  0.7929 -0.4897  1.4908
  177SLPC   C2720097  -0.108   3.834   5.758  0.1428  0.4336 -0.8293
  177SLPC   H7R20098  -0.201   3.893   5.765 -0.5561 -0.4070 -2.4369
  177SLPC   H7S20099  -0.126   3.733   5.715 -1.0834  1.0797 -1.8977
  177SLPC   C2820100  -0.030   3.904   5.655 -0.6265 -1.0489 -0.0390
  177SLPC   H8R20101   0.068   3.853   5.643  0.9237  1.6537  0.3663
  177SLPC   H8S20102  -0.016   4.010   5.685  2.3073 -1.3024 -0.2365
  177SLPC   C2920103  -0.100   3.913   5.522  1.2957  0.1843  0.5761
  177SLPC   H9R20104  -0.208   3.933   5.512  0.5465 -3.3951 -0.1289
  177SLPC  C21020105  -0.053   3.869   5.403  0.1083  0.5993  0.3259
  177SLPC  H10R20106  -0.122   3.890   5.320 -1.6373 -0.1997  1.5212
  177SLPC  C21120107   0.081   3.802   5.373 -0.2105  0.7900 -0.3440
  177SLPC  H11R20108   0.148   3.794   5.461 -1.1691 -0.9050  0.2764
  177SLPC  H11S20109   0.142   3.870   5.309 -0.4919  0.4411 -0.9947
  177SLPC  C21220110   0.072   3.660   5.322 -0.4385 -0.1527 -0.0587
  177SLPC  H12R20111   0.040   3.586   5.397  1.4394 -0.6564  0.2925
  177SLPC  C21320112   0.081   3.622   5.191 -0.3263  0.1890  0.0904
  177SLPC  H13R20113   0.097   3.515   5.172  0.1910  0.5695 -1.8945
  177SLPC  C21420114   0.097   3.705   5.069 -0.3338  0.1107 -0.3218
  177SLPC  H14R20115   0.166   3.662   4.993 -0.5786 -0.6864 -0.1026
  177SLPC  H14S20116   0.145   3.801   5.100  2.2528 -1.4751  0.9001
  177SLPC  C21520117  -0.032   3.735   4.999  0.6851 -0.4191 -0.4955
  177SLPC  H15R20118  -0.115   3.749   5.071  2.3476 -2.6632  2.0292
  177SLPC  H15S20119  -0.057   3.648   4.935  0.4515 -1.2587  0.7154
  177SLPC  C21620120  -0.012   3.868   4.916  0.1949  0.4018  0.3909
  177SLPC  H16R20121   0.043   3.859   4.820 -0.1823 -0.2507  0.2279
  177SLPC  H16S20122   0.027   3.952   4.977  1.1769 -0.3615  0.8357
  177SLPC  C21720123  -0.149   3.929   4.870  0.0966  0.3276 -0.0871
  177SLPC  H17R20124  -0.208   3.941   4.964  0.5953 -0.9271  0.4101
  177SLPC  H17S20125  -0.212   3.858   4.813 -1.8000  1.2642  0.7408
  177SLPC  C21820126  -0.142   4.068   4.798  0.6300 -0.3329 -0.4287
  177SLPC  H18R20127  -0.087   4.060   4.703 -0.1629  3.3264 -1.3340
  177SLPC  H18S20128  -0.101   4.150   4.861  0.3223 -0.8129  0.4191
  177SLPC  H18T20129  -0.241   4.110   4.771  0.6801  0.5260  0.6372
  177SLPC   C3320130   0.198   4.295   6.061  0.3970  0.0696  0.7097
  177SLPC   H3X20131   0.258   4.382   6.094  1.7123  0.4503 -2.3443
  177SLPC   H3Y20132   0.097   4.309   6.104 -1.0837  1.1117 -2.7655
  177SLPC   C3420133   0.188   4.308   5.906 -0.4907 -0.8298 -0.1004
  177SLPC   H4X20134   0.116   4.390   5.887 -0.8530 -0.9101  0.8657
  177SLPC   H4Y20135   0.152   4.215   5.857 -1.0905 -0.5946 -0.1174
  177SLPC   C3520136   0.323   4.351   5.844 -0.0172 -0.8637  0.0126
  177SLPC   H5X20137   0.397   4.273   5.872 -0.9869 -1.3368  1.3524
  177SLPC   H5Y20138   0.355   4.445   5.893  0.1290 -1.1798  0.5300
  177SLPC   C3620139   0.314   4.379   5.694 -0.3912 -0.5190 -0.7743
  177SLPC   H6X20140   0.410   4.432   5.676 -0.1074  0.2916  2.5135
  177SLPC   H6Y20141   0.236   4.458   5.689  0.3235  0.2489 -0.0655
  177SLPC   C3720142   0.286   4.268   5.606 -0.1151  0.0069  0.1066
  177SLPC   H7X20143   0.181   4.236   5.622 -0.5273  1.9372  1.7015
  177SLPC   H7Y20144   0.350   4.181   5.633 -0.5954 -0.2060  0.5736
  177SLPC   C3820145   0.305   4.301   5.456  0.9711  0.0559 -0.3581
  177SLPC   H8X20146   0.371   4.388   5.437  0.9832  0.0264 -0.4500
  177SLPC   H8Y20147   0.208   4.334   5.414  0.0532  0.2319  1.7402
  177SLPC   C3920148   0.329   4.185   5.365  0.5430  0.1900  0.2085
  177SLPC   H9X20149   0.238   4.122   5.367  1.5786 -1.4205 -0.9724
  177SLPC   H9Y20150   0.414   4.132   5.413 -0.7468 -1.5128  0.7358
  177SLPC  C31020151   0.363   4.210   5.217 -0.5916  0.5727 -0.9875
  177SLPC  H10X20152   0.385   4.108   5.182 -0.2919  0.6703 -1.0833
  177SLPC  H10Y20153   0.456   4.268   5.199 -0.4186  0.5222 -0.2926
  177SLPC  C31120154   0.247   4.263   5.135 -0.1880  0.5171 -0.7892
  177SLPC  H11X20155   0.235   4.370   5.161  2.2549  0.4967  0.7467
  177SLPC  H11Y20156   0.159   4.199   5.156 -0.0234  0.4352 -0.3415
  177SLPC  C31220157   0.282   4.254   4.986 -1.1006  0.0603  0.5250
  177SLPC  H12X20158   0.305   4.147   4.964  1.1226  0.7916 -1.0543
  177SLPC  H12Y20159   0.377   4.306   4.960 -2.4002  1.2268 -2.3483
  177SLPC  C31320160   0.164   4.307   4.903 -0.0664  0.2036  0.1720
  177SLPC  H13X20161   0.155   4.414   4.932  0.4078  0.6716 -1.3076
  177SLPC  H13Y20162   0.073   4.251   4.934  0.7000 -0.3967  1.4404
  177SLPC  C31420163   0.197   4.297   4.753 -0.3317 -0.8254  0.1592
  177SLPC  H14X20164   0.107   4.334   4.699 -0.4367  0.8276  1.4065
  177SLPC  H14Y20165   0.214   4.189   4.733  2.1278 -0.4247 -0.1695
  177SLPC  C31520166   0.316   4.373   4.700 -0.1709 -0.2028  0.5379
  177SLPC  H15X20167   0.409   4.314   4.709 -0.7053 -0.8438  2.1259
  177SLPC  H15Y20168   0.344   4.462   4.761  3.4923  0.9242 -2.3287
  177SLPC  C31620169   0.308   4.418   4.551 -0.0574  0.4334 -0.4160
  177SLPC  H16X20170   0.215   4.474   4.529 -1.1781 -0.8790  0.8111
  177SLPC  H16Y20171   0.304   4.324   4.490 -2.8994  0.8041 -0.9215
  177SLPC  C31720172   0.425   4.507   4.497  0.9638  0.1802  0.0562
  177SLPC  H17X20173   0.428   4.511   4.386  0.9743  1.1899  0.0789
  177SLPC  H17Y20174   0.522   4.457   4.519  1.2326  0.7522  0.1975
  177SLPC  C31820175   0.428   4.652   4.550  0.1086  0.5241 -0.0976
  177SLPC  H18X20176   0.506   4.713   4.500 -0.7181  0.6940 -1.2144
  177SLPC  H18Y20177   0.445   4.654   4.660  0.0784 -2.2082  0.0172
  177SLPC  H18Z20178   0.326   4.693   4.530 -0.1364 -0.5099 -1.0546
  178SLPC     N20179   3.357   5.852   6.428 -0.1696  0.5528  0.3981
  178SLPC   C1320180   3.389   5.952   6.529 -0.6648  0.8053 -0.0288
  178SLPC  H13A20181   3.423   5.911   6.623 -0.1704  0.0455 -0.5392
  178SLPC  H13B20182   3.470   6.015   6.497 -0.1841 -0.0595 -0.5280
  178SLPC  H13C20183   3.301   6.007   6.562 -2.0731 -0.0587 -2.1306
  178SLPC   C1420184   3.278   5.904   6.311  0.6515 -0.1590  0.0682
  178SLPC  H14A20185   3.351   5.961   6.256  0.8104 -0.2043  0.2320
  178SLPC  H14B20186   3.238   5.823   6.252 -0.9180  0.4800  0.2090
  178SLPC  H14C20187   3.192   5.963   6.341  0.9039  1.2229 -1.7525
  178SLPC   C1520188   3.272   5.741   6.484  0.2701  0.0750  0.0396
  178SLPC  H15A20189   3.296   5.679   6.569 -2.2044 -2.5877 -1.0481
  178SLPC  H15B20190   3.175   5.784   6.502 -0.0473 -1.4612  2.4647
  178SLPC  H15C20191   3.260   5.669   6.405  0.7806  0.6102 -0.5346
  178SLPC   C1220192   3.485   5.792   6.368 -0.2317 -0.2426  0.5326
  178SLPC  H12A20193   3.451   5.743   6.278  0.7229  0.5130 -0.2704
  178SLPC  H12B20194   3.526   5.723   6.439  2.2862  0.4110 -0.1851
  178SLPC   C1120195   3.596   5.891   6.327 -0.6090  0.4769  0.2553
  178SLPC  H11A20196   3.549   5.962   6.255 -1.8162 -0.5443 -0.0069
  178SLPC  H11B20197   3.674   5.832   6.275  0.3142  1.5610  0.3858
  178SLPC     P20198   3.739   5.896   6.530 -0.6822  0.0043 -0.0325
  178SLPC   O1320199   3.766   5.977   6.652 -0.2239 -0.4607 -0.1345
  178SLPC   O1420200   3.682   5.768   6.567  0.6639 -0.1163 -0.2017
  178SLPC   O1220201   3.650   5.975   6.427  0.1996 -0.3590 -0.1997
  178SLPC   O1120202   3.870   5.873   6.451 -0.1490  0.2304  0.5028
  178SLPC    C120203   3.947   5.977   6.394  0.1115 -0.3287  0.0269
  178SLPC    HA20204   3.901   6.077   6.408 -1.1310 -0.9340  0.3994
  178SLPC    HB20205   4.041   5.986   6.453  1.5344  1.5240 -2.3274
  178SLPC    C220206   3.961   5.965   6.239 -0.4442 -0.5431  0.2654
  178SLPC    HS20207   3.861   6.002   6.209 -0.6463 -0.6921  0.7575
  178SLPC   O2120208   3.981   5.825   6.211  0.5424 -0.0465  0.4125
  178SLPC   C2120209   3.905   5.776   6.117  0.1371 -0.2042  0.3895
  178SLPC   O2220210   3.809   5.833   6.068  0.2254  0.2479  0.1343
  178SLPC   C2220211   3.944   5.636   6.074  0.3479 -0.1182  0.0674
  178SLPC   H2R20212   3.902   5.565   6.148  0.3470 -1.4535 -1.1910
  178SLPC   H2S20213   3.888   5.617   5.980 -0.5692  2.5635 -0.0290
  178SLPC    C320214   4.078   6.051   6.183  0.7349  0.5221 -0.6961
  178SLPC    HX20215   4.174   6.021   6.230  0.3134  0.8473  0.4044
  178SLPC    HY20216   4.073   6.153   6.227  0.2789 -0.4019  1.5445
  178SLPC   O3120217   4.094   6.032   6.044 -0.3854  0.5071 -0.9124
  178SLPC   C3120218   4.030   6.131   5.972 -0.2916  0.7703 -0.5192
  178SLPC   O3220219   3.980   6.227   6.024 -0.5980  0.1839 -0.8417
  178SLPC   C3220220   4.038   6.101   5.821 -0.2185 -0.1698  0.2191
  178SLPC   H2X20221   3.946   6.148   5.780  1.1829  2.8278  0.2419
  178SLPC   H2Y20222   4.026   5.992   5.807  1.3909 -0.1477 -1.7841
  178SLPC   C2320223   4.095   5.613   6.058 -0.3253  0.1449  0.0581
  178SLPC   H3R20224   4.119   5.505   6.066 -2.4409 -0.4260 -0.5991
  178SLPC   H3S20225   4.142   5.670   6.142 -0.2851  0.2414 -0.0291
  178SLPC   C2420226   4.148   5.668   5.924 -0.6626 -0.7492 -0.5530
  178SLPC   H4R20227   4.251   5.703   5.946 -0.4098 -1.1338 -1.1175
  178SLPC   H4S20228   4.086   5.755   5.891  1.6838  0.4451 -2.1061
  178SLPC   C2520229   4.144   5.567   5.808 -0.6684  0.1547 -0.0736
  178SLPC   H5R20230   4.035   5.556   5.790 -1.0736 -0.3917  2.3764
  178SLPC   H5S20231   4.190   5.468   5.829 -0.7106  0.1855  0.1685
  178SLPC   C2620232   4.224   5.615   5.688  0.2184 -0.5439  0.8781
  178SLPC   H6R20233   4.204   5.563   5.592 -0.2233  1.5077 -0.2087
  178SLPC   H6S20234   4.332   5.597   5.709  0.9758  2.0288 -0.3574
  178SLPC   C2720235   4.207   5.769   5.660  0.3928 -0.2070 -0.4026
  178SLPC   H7R20236   4.241   5.828   5.748  1.1713  0.6873 -1.2795
  178SLPC   H7S20237   4.100   5.796   5.642  0.6762  0.7847 -0.6695
  178SLPC   C2820238   4.292   5.817   5.539 -0.0376  0.5554  0.4863
  178SLPC   H8R20239   4.400   5.808   5.563 -0.0579  0.1786  0.4520
  178SLPC   H8S20240   4.275   5.925   5.522 -0.1715  0.6793  1.3606
  178SLPC   C2920241   4.261   5.740   5.413 -0.0501  0.1411  0.0794
  178SLPC   H9R20242   4.277   5.631   5.420 -0.3729  0.0479 -0.5456
  178SLPC  C21020243   4.235   5.781   5.291 -0.3483  0.6962 -0.0373
  178SLPC  H10R20244   4.196   5.710   5.217  0.6320 -0.1080  0.1994
  178SLPC  C21120245   4.225   5.925   5.249 -0.4018 -0.3585 -0.0770
  178SLPC  H11R20246   4.182   5.993   5.325  0.7760  1.1512 -0.7084
  178SLPC  H11S20247   4.165   5.940   5.156  2.7913  1.7963 -1.9658
  178SLPC  C21220248   4.357   5.981   5.207  0.1865 -0.0770  0.2175
  178SLPC  H12R20249   4.424   6.027   5.282  1.1455  1.0377 -1.2664
  178SLPC  C21320250   4.406   5.971   5.081  0.4479 -0.1412 -0.4229
  178SLPC  H13R20251   4.498   6.025   5.057  3.0560 -4.0408 -0.0346
  178SLPC  C21420252   4.332   5.911   4.969 -0.0111  0.3172 -0.1259
  178SLPC  H14R20253   4.246   5.850   5.003  0.0003  1.5528  2.3096
  178SLPC  H14S20254   4.399   5.834   4.923  0.5665  0.9319 -0.3365
  178SLPC  C21520255   4.299   6.011   4.856 -0.7876  0.3861  0.0711
  178SLPC  H15R20256   4.267   5.946   4.771  0.6842  2.2281 -2.0274
  178SLPC  H15S20257   4.389   6.063   4.817  0.2803 -0.2064  1.6374
  178SLPC  C21620258   4.187   6.111   4.891  0.4055  0.3521 -0.1387
  178SLPC  H16R20259   4.209   6.177   4.978  0.8079 -0.0564  0.0770
  178SLPC  H16S20260   4.088   6.062   4.903  0.0492  0.9405 -0.6597
  178SLPC  C21720261   4.157   6.204   4.770  0.5866 -0.4387  0.8984
  178SLPC  H17R20262   4.254   6.238   4.728  0.6110  0.3177  1.5332
  178SLPC  H17S20263   4.099   6.292   4.806  0.4773 -0.0226 -0.2517
  178SLPC  C21820264   4.075   6.142   4.658  0.5043 -0.6459  0.4459
  178SLPC  H18R20265   4.121   6.046   4.627 -0.1082 -0.6774 -0.4193
  178SLPC  H18S20266   4.060   6.212   4.572  0.6592 -0.2320  0.7558
  178SLPC  H18T20267   3.972   6.111   4.688  0.1135 -0.8259 -0.9814
  178SLPC   C3320268   4.163   6.162   5.749  0.2175  0.1634 -0.0142
  178SLPC   H3X20269   4.239   6.082   5.740 -0.4004 -0.4697  0.3093
  178SLPC   H3Y20270   4.197   6.245   5.814 -0.8657  2.2289 -1.9208
  178SLPC   C3420271   4.139   6.223   5.610 -0.8290 -0.1520 -0.7463
  178SLPC   H4X20272   4.055   6.297   5.613 -1.6824 -1.1160  0.3697
  178SLPC   H4Y20273   4.106   6.139   5.546 -0.5629 -1.0210  0.2279
  178SLPC   C3520274   4.260   6.284   5.543  0.4881  0.1362 -1.1860
  178SLPC   H5X20275   4.356   6.234   5.569  1.0175  1.4845 -0.3919
  178SLPC   H5Y20276   4.266   6.388   5.583 -1.8979  0.0887 -0.5841
  178SLPC   C3620277   4.255   6.294   5.391 -0.0354  0.6517  0.1227
  178SLPC   H6X20278   4.158   6.344   5.367 -0.5517 -0.4332 -0.1085
  178SLPC   H6Y20279   4.262   6.189   5.357  0.7301 -0.0551  2.3009
  178SLPC   C3720280   4.376   6.366   5.329  0.4024 -1.2200  0.3136
  178SLPC   H7X20281   4.465   6.313   5.370  0.3778 -1.8447 -0.4271
  178SLPC   H7Y20282   4.381   6.472   5.361  0.6290 -0.4482 -2.1148
  178SLPC   C3820283   4.372   6.347   5.179  0.0878  0.8682 -0.0131
  178SLPC   H8X20284   4.262   6.338   5.160  0.1193 -1.4324  0.6309
  178SLPC   H8Y20285   4.411   6.245   5.161 -0.1921  0.7897 -0.1858
  178SLPC   C3920286   4.435   6.455   5.084 -0.1451  0.2842 -0.1679
  178SLPC   H9X20287   4.545   6.462   5.092  0.0656 -2.9200  1.3802
  178SLPC   H9Y20288   4.385   6.554   5.087 -2.9465 -0.8323 -3.6641
  178SLPC  C31020289   4.408   6.414   4.937 -0.1151 -0.2715 -0.3096
  178SLPC  H10X20290   4.298   6.409   4.920  0.0554 -1.9507 -1.1248
  178SLPC  H10Y20291   4.464   6.319   4.922 -0.3597 -0.5408  0.4277
  178SLPC  C31120292   4.450   6.516   4.826 -0.0100  0.0392 -0.3035
  178SLPC  H11X20293   4.559   6.519   4.807  0.0224 -0.7770 -0.2944
  178SLPC  H11Y20294   4.444   6.618   4.869  0.8081 -0.1338  0.2588
  178SLPC  C31220295   4.390   6.508   4.684  0.3335  0.1105  0.0568
  178SLPC  H12X20296   4.282   6.527   4.705  0.9266  3.1130  0.7192
  178SLPC  H12Y20297   4.408   6.408   4.639 -2.1202 -1.8051  2.9282
  178SLPC  C31320298   4.438   6.622   4.591 -0.8671 -0.9607  0.3965
  178SLPC  H13X20299   4.531   6.584   4.543 -0.6512 -0.2624  0.2521
  178SLPC  H13Y20300   4.458   6.708   4.658 -1.4708 -0.2008 -0.3833
  178SLPC  C31420301   4.339   6.656   4.476 -0.5866 -0.1470 -0.3563
  178SLPC  H14X20302   4.241   6.610   4.500 -0.2138 -0.5590  0.4389
  178SLPC  H14Y20303   4.356   6.614   4.374  1.0964  2.1233 -1.0796
  178SLPC  C31520304   4.330   6.805   4.454 -0.1656 -0.2504  0.4969
  178SLPC  H15X20305   4.429   6.855   4.449 -0.4576  0.2452 -0.6079
  178SLPC  H15Y20306   4.274   6.854   4.537 -0.5416  0.1405  0.0143
  178SLPC  C31620307   4.247   6.843   4.329 -0.6503 -0.0257 -0.3530
  178SLPC  H16X20308   4.283   6.790   4.238 -1.8178 -0.3742 -0.6318
  178SLPC  H16Y20309   4.262   6.952   4.317 -0.0083  0.0118  0.6959
  178SLPC  C31720310   4.103   6.809   4.348 -0.3848  0.3195  0.6737
  178SLPC  H17X20311   4.042   6.863   4.423 -0.8869  0.7483 -0.0217
  178SLPC  H17Y20312   4.102   6.699   4.364  0.2979  0.4655  1.7844
  178SLPC  C31820313   4.031   6.836   4.222 -0.5214 -0.3409  0.3046
  178SLPC  H18X20314   3.927   6.800   4.239 -0.6103 -0.3356 -0.2168
  178SLPC  H18Y20315   4.081   6.781   4.140 -1.4144 -0.3822 -0.2228
  178SLPC  H18Z20316   4.026   6.942   4.189  0.7683 -0.9776 -2.1662
  179SLPC     N20317   5.151   0.851   1.956  0.2068  0.5538 -0.2263
  179SLPC   C1320318   5.263   0.750   1.982 -0.5294 -0.4716 -0.3170
  179SLPC  H13A20319   5.331   0.789   2.056 -1.1698 -1.6995  0.9433
  179SLPC  H13B20320   5.228   0.653   2.011 -0.8827  0.0967  1.2015
  179SLPC  H13C20321   5.324   0.735   1.893 -0.3846  2.0518 -0.7360
  179SLPC   C1420322   5.208   0.972   1.887 -0.6983 -0.4331  0.9395
  179SLPC  H14A20323   5.278   1.032   1.943  0.3502 -1.2136  0.4838
  179SLPC  H14B20324   5.248   0.950   1.789 -0.8444 -0.7208  0.9420
  179SLPC  H14C20325   5.133   1.049   1.873  0.8664  0.8818 -0.5910
  179SLPC   C1520326   5.089   0.897   2.082  0.7505  0.0813  0.0548
  179SLPC  H15A20327   5.057   0.807   2.133 -0.3056 -0.2762 -1.1609
  179SLPC  H15B20328   5.154   0.962   2.138  0.9672  1.0394 -1.2556
  179SLPC  H15C20329   5.002   0.951   2.046  1.8016 -0.1019 -3.0307
  179SLPC   C1220330   5.051   0.771   1.870 -0.5711 -0.1988 -0.2088
  179SLPC  H12A20331   5.099   0.719   1.789  1.6430 -1.2534  1.6408
  179SLPC  H12B20332   4.983   0.847   1.834 -1.5232 -0.4177  1.0250
  179SLPC   C1120333   4.953   0.662   1.933  0.6910  0.1059 -0.5076
  179SLPC  H11A20334   5.014   0.578   1.972  0.6684  0.9562  1.4950
  179SLPC  H11B20335   4.887   0.623   1.853 -1.1635 -0.0218  1.0132
  179SLPC     P20336   4.717   0.694   2.052  0.1940  0.1496 -0.4359
  179SLPC   O1320337   4.653   0.794   1.968  0.0708  0.1110 -0.0852
  179SLPC   O1420338   4.687   0.550   2.028  0.3041 -0.4877  0.8789
  179SLPC   O1220339   4.875   0.722   2.047  0.2374 -0.1590 -0.0376
  179SLPC   O1120340   4.690   0.723   2.203  0.6246  0.4109  0.0324
  179SLPC    C120341   4.690   0.858   2.253  0.1715  0.0521  0.1294
  179SLPC    HA20342   4.784   0.911   2.229  0.8028 -0.2584  1.7371
  179SLPC    HB20343   4.599   0.912   2.219  1.4073  1.9337 -0.3223
  179SLPC    C220344   4.691   0.856   2.406  0.2528 -0.2294  0.3889
  179SLPC    HS20345   4.766   0.781   2.438 -1.0626 -1.7694 -0.0093
  179SLPC   O2120346   4.564   0.817   2.459  0.0399  0.1970 -0.2700
  179SLPC   C2120347   4.561   0.723   2.545 -0.5566 -0.5233 -0.1175
  179SLPC   O2220348   4.649   0.641   2.578  0.0608  0.1278  0.1551
  179SLPC   C2220349   4.417   0.718   2.597  0.6359 -0.7121 -0.0275
  179SLPC   H2R20350   4.345   0.758   2.523  1.9622 -0.3209 -1.1480
  179SLPC   H2S20351   4.391   0.612   2.617  0.3706 -0.6215  0.1060
  179SLPC    C320352   4.726   0.992   2.466  0.2160  0.9463  0.2335
  179SLPC    HX20353   4.645   1.066   2.451  0.8041  1.3715 -1.0240
  179SLPC    HY20354   4.800   1.040   2.398 -1.6606  0.6816 -2.1203
  179SLPC   O3120355   4.758   0.988   2.603 -0.2536  0.1376  0.1797
  179SLPC   C3120356   4.883   0.936   2.626  0.8694  0.4490  0.0028
  179SLPC   O3220357   4.967   0.890   2.548  0.2923  0.0744  0.1697
  179SLPC   C3220358   4.899   0.933   2.778 -0.3193 -0.4003 -0.5326
  179SLPC   H2X20359   4.914   1.036   2.816  2.4396 -1.0139  0.2871
  179SLPC   H2Y20360   4.985   0.867   2.801  0.6193  1.1085  0.4273
  179SLPC   C2320361   4.389   0.808   2.720 -0.2243  0.0771  0.5855
  179SLPC   H3R20362   4.280   0.822   2.730 -0.4898  0.2931 -1.8384
  179SLPC   H3S20363   4.448   0.901   2.703  0.3607 -0.4564 -0.4183
  179SLPC   C2420364   4.431   0.749   2.858 -0.4468  0.5558  0.5781
  179SLPC   H4R20365   4.538   0.724   2.848 -0.6074  0.0718 -0.0269
  179SLPC   H4S20366   4.378   0.652   2.873  0.7627 -0.0749  0.8369
  179SLPC   C2520367   4.409   0.844   2.973 -0.5925  0.9031  0.3889
  179SLPC   H5R20368   4.302   0.875   2.972 -0.2791  2.0870  1.1641
  179SLPC   H5S20369   4.476   0.932   2.961  0.9166 -0.1239  0.9873
  179SLPC   C2620370   4.423   0.778   3.111 -0.6212  0.7512 -0.4854
  179SLPC   H6R20371   4.523   0.734   3.130 -0.5847  0.5931 -1.0355
  179SLPC   H6S20372   4.348   0.696   3.120  0.3623  0.0243  1.8134
  179SLPC   C2720373   4.411   0.878   3.223  0.0928 -0.1135 -0.2659
  179SLPC   H7R20374   4.305   0.913   3.223 -0.3162 -1.2683 -1.5643
  179SLPC   H7S20375   4.477   0.966   3.208 -1.7525  1.2536 -0.8357
  179SLPC   C2820376   4.427   0.821   3.363  0.4495  0.7026 -0.3233
  179SLPC   H8R20377   4.526   0.771   3.373  0.6905  1.2152 -0.1086
  179SLPC   H8S20378   4.344   0.748   3.376 -0.8474  2.3634  1.2208
  179SLPC   C2920379   4.394   0.916   3.469  0.3328 -0.1833 -0.0019
  179SLPC   H9R20380   4.315   0.984   3.435  0.3611  1.0300  2.1545
  179SLPC  C21020381   4.422   0.904   3.601 -0.1929 -0.1825 -0.1455
  179SLPC  H10R20382   4.377   0.975   3.673 -1.7480 -0.0100 -1.2301
  179SLPC  C21120383   4.499   0.789   3.659 -0.1657 -0.1007  0.2157
  179SLPC  H11R20384   4.606   0.817   3.654  0.4697 -2.4645 -0.6803
  179SLPC  H11S20385   4.486   0.696   3.599  0.4918 -1.6002  2.2738
  179SLPC  C21220386   4.462   0.758   3.798 -0.0232  0.3960  1.3569
  179SLPC  H12R20387   4.360   0.718   3.806  0.3924 -1.5351 -1.5109
  179SLPC  C21320388   4.540   0.762   3.903 -0.0273 -1.1681 -0.0256
  179SLPC  H13R20389   4.500   0.712   3.993  1.0820 -2.4185 -0.1899
  179SLPC  C21420390   4.685   0.807   3.921 -0.6871  0.2911  0.4170
  179SLPC  H14R20391   4.694   0.897   3.985  0.8573 -0.1223  0.8309
  179SLPC  H14S20392   4.744   0.811   3.827 -0.2037 -0.7558  0.6599
  179SLPC  C21520393   4.756   0.688   4.000  0.3070  0.3458 -0.1972
  179SLPC  H15R20394   4.763   0.598   3.936  0.3844  0.6297 -0.5925
  179SLPC  H15S20395   4.688   0.652   4.081  1.2498 -0.5605  0.2093
  179SLPC  C21620396   4.895   0.726   4.055  0.1012 -0.0981 -0.9744
  179SLPC  H16R20397   4.956   0.730   3.962  2.0921 -0.0725  0.2780
  179SLPC  H16S20398   4.944   0.652   4.122 -1.3718 -1.5638 -1.4697
  179SLPC  C21720399   4.910   0.860   4.125  0.1069  0.3362 -0.4666
  179SLPC  H17R20400   4.823   0.883   4.191 -1.3707  0.4499 -2.3775
  179SLPC  H17S20401   4.906   0.926   4.036 -1.8488 -0.4727 -1.0274
  179SLPC  C21820402   5.046   0.868   4.191  0.2721 -0.1163  0.1786
  179SLPC  H18R20403   5.063   0.797   4.275  1.3609 -0.1693 -0.0710
  179SLPC  H18S20404   5.075   0.965   4.238  0.4015 -0.9332  1.8755
  179SLPC  H18T20405   5.132   0.841   4.125  2.6526 -2.7108  3.9108
  179SLPC   C3320406   4.778   0.858   2.843 -0.3388 -1.0370 -0.4144
  179SLPC   H3X20407   4.764   0.752   2.812 -1.8827 -0.5857 -1.4007
  179SLPC   H3Y20408   4.682   0.914   2.842 -0.4163 -1.1029  1.2416
  179SLPC   C3420409   4.807   0.851   2.993  0.4393  0.1609 -0.2014
  179SLPC   H4X20410   4.901   0.796   3.015 -0.2818 -0.9612  0.1469
  179SLPC   H4Y20411   4.719   0.791   3.024  0.0536  1.0799  0.5234
  179SLPC   C3520412   4.816   0.986   3.072  0.3723 -0.1353  0.1257
  179SLPC   H5X20413   4.920   1.024   3.063  1.3510 -1.8643  2.6920
  179SLPC   H5Y20414   4.736   1.052   3.033  1.5144  0.7809 -0.7149
  179SLPC   C3620415   4.789   0.957   3.221  0.7940 -0.6774 -0.1771
  179SLPC   H6X20416   4.871   0.884   3.240  0.3665 -1.4114 -1.0816
  179SLPC   H6Y20417   4.689   0.914   3.241  0.1054  1.2029  0.6763
  179SLPC   C3720418   4.801   1.085   3.307  0.1193  0.0628 -0.3776
  179SLPC   H7X20419   4.720   1.156   3.278 -2.7126 -0.9501  4.0185
  179SLPC   H7Y20420   4.901   1.127   3.289  0.7511 -1.3614 -0.3367
  179SLPC   C3820421   4.781   1.048   3.456 -0.1957  0.0610  0.1481
  179SLPC   H8X20422   4.861   0.974   3.478  0.8794  1.2203  0.2945
  179SLPC   H8Y20423   4.685   0.992   3.454 -0.2668  0.1984 -0.2333
  179SLPC   C3920424   4.769   1.160   3.548  0.5421 -0.1036 -0.2535
  179SLPC   H9X20425   4.685   1.228   3.523 -0.8585 -1.7704 -0.2771
  179SLPC   H9Y20426   4.868   1.210   3.557 -0.5763  2.0487  0.8688
  179SLPC  C31020427   4.736   1.120   3.694 -0.4647  0.2779 -0.1400
  179SLPC  H10X20428   4.796   1.039   3.742  0.6191  0.3129 -1.3849
  179SLPC  H10Y20429   4.632   1.080   3.700 -0.2297 -0.1853  1.1895
  179SLPC  C31120430   4.738   1.240   3.791 -0.0320  0.1696  0.3447
  179SLPC  H11X20431   4.667   1.317   3.754 -0.6840 -0.8998 -0.7215
  179SLPC  H11Y20432   4.837   1.289   3.797  0.0123  0.3321 -1.3574
  179SLPC  C31220433   4.690   1.207   3.935 -0.6306  0.3156  0.7145
  179SLPC  H12X20434   4.704   1.303   3.989 -0.9962  0.6597  0.2116
  179SLPC  H12Y20435   4.767   1.136   3.972  2.0702  2.9661  0.5882
  179SLPC  C31320436   4.548   1.159   3.928 -0.0562  0.1136 -0.0746
  179SLPC  H13X20437   4.540   1.051   3.903  3.0990  0.0000 -0.9040
  179SLPC  H13Y20438   4.499   1.226   3.854 -0.5606 -0.0864  0.0739
  179SLPC  C31420439   4.470   1.194   4.065 -0.1553 -0.1581  0.1701
  179SLPC  H14X20440   4.364   1.221   4.048 -0.1680 -0.8651 -0.9695
  179SLPC  H14Y20441   4.519   1.286   4.102  0.0835  0.6669 -2.0464
  179SLPC  C31520442   4.493   1.085   4.168 -0.5550 -0.0235 -0.4035
  179SLPC  H15X20443   4.603   1.069   4.165 -0.2296  2.0992 -2.1420
  179SLPC  H15Y20444   4.445   0.994   4.125 -1.1770  0.7813 -1.4618
  179SLPC  C31620445   4.452   1.116   4.312  0.0868  0.2836 -0.0926
  179SLPC  H16X20446   4.344   1.141   4.318  0.1850  0.4446  4.6495
  179SLPC  H16Y20447   4.508   1.199   4.359  2.2789 -0.3334 -1.4719
  179SLPC  C31720448   4.486   0.996   4.410 -0.2541 -0.3099 -0.0942
  179SLPC  H17X20449   4.597   0.989   4.415 -0.3157 -1.0865  0.4058
  179SLPC  H17Y20450   4.456   0.896   4.370  0.8917 -0.3746 -0.8242
  179SLPC  C31820451   4.428   1.028   4.549 -0.0433 -0.8872  0.5017
  179SLPC  H18X20452   4.468   1.125   4.585  2.7783 -1.4104 -0.9549
  179SLPC  H18Y20453   4.469   0.945   4.610 -1.2210 -1.1675  0.9383
  179SLPC  H18Z20454   4.317   1.030   4.540  0.0175 -2.3392 -1.0358
  180SLPC     N20455   2.273   6.625   1.472 -0.4801  0.3928  0.4654
  180SLPC   C1320456   2.217   6.495   1.455  0.2638  1.3735  0.0906
  180SLPC  H13A20457   2.109   6.489   1.459  0.2981  0.9118  0.4933
  180SLPC  H13B20458   2.240   6.455   1.358 -1.3846 -0.7321  0.4723
  180SLPC  H13C20459   2.247   6.429   1.535 -1.6963  1.2990  0.8432
  180SLPC   C1420460   2.236   6.700   1.355 -0.1129  0.0617  0.5114
  180SLPC  H14A20461   2.285   6.796   1.358 -0.2040  0.2124 -1.4947
  180SLPC  H14B20462   2.278   6.665   1.262  1.0933  2.2628  0.1601
  180SLPC  H14C20463   2.131   6.722   1.346  0.3715  2.1026 -0.7802
  180SLPC   C1520464   2.428   6.614   1.471  0.6817  1.0571  0.2676
  180SLPC  H15A20465   2.476   6.711   1.466  3.1688 -0.0223  1.5648
  180SLPC  H15B20466   2.459   6.568   1.563  1.3094  2.2943  0.6886
  180SLPC  H15C20467   2.454   6.552   1.387  3.0334 -0.7735  2.2085
  180SLPC   C1220468   2.234   6.690   1.607  0.1540  0.5267 -0.5850
  180SLPC  H12A20469   2.127   6.703   1.612  0.2475  1.1090  0.0277
  180SLPC  H12B20470   2.273   6.790   1.611  0.3071  0.4781 -0.8653
  180SLPC   C1120471   2.261   6.612   1.738  0.2201 -0.2565 -0.5267
  180SLPC  H11A20472   2.219   6.509   1.735 -3.1465  0.9113  1.2866
  180SLPC  H11B20473   2.203   6.661   1.819 -1.1989  1.1065 -2.2837
  180SLPC     P20474   2.482   6.712   1.836 -0.0653  0.4074 -0.1268
  180SLPC   O1320475   2.625   6.685   1.801 -0.3525 -0.1904 -0.3876
  180SLPC   O1420476   2.432   6.848   1.807 -0.2689  0.3844  0.8190
  180SLPC   O1220477   2.398   6.602   1.757 -1.2210 -0.6923  0.6160
  180SLPC   O1120478   2.450   6.690   1.989  0.0644 -0.0764  0.0129
  180SLPC    C120479   2.482   6.557   2.044 -0.5056 -0.3409  0.1643
  180SLPC    HA20480   2.403   6.481   2.022 -0.4529 -0.3660  0.0588
  180SLPC    HB20481   2.580   6.514   2.015 -0.5831 -1.1880  1.1160
  180SLPC    C220482   2.494   6.568   2.203  0.4932 -0.6296 -0.1965
  180SLPC    HS20483   2.532   6.471   2.241  0.2593 -1.6312 -2.3796
  180SLPC   O2120484   2.368   6.601   2.261 -0.4677 -0.5740  0.1215
  180SLPC   C2120485   2.340   6.563   2.387  0.1537 -0.2660  0.2681
  180SLPC   O2220486   2.413   6.498   2.459  0.2181  0.5782 -0.5474
  180SLPC   C2220487   2.198   6.620   2.426 -0.0453 -0.5856  0.2637
  180SLPC   H2R20488   2.132   6.623   2.337  0.0230  0.8071  0.2422
  180SLPC   H2S20489   2.160   6.557   2.509 -0.0401  0.4720  1.0877
  180SLPC    C320490   2.594   6.684   2.247 -0.3961  0.4446  0.2613
  180SLPC    HX20491   2.543   6.780   2.227 -1.1323  0.2229  0.9950
  180SLPC    HY20492   2.677   6.668   2.174 -0.1086  1.3279  0.3893
  180SLPC   O3120493   2.643   6.668   2.381  0.7830  0.4633  0.1982
  180SLPC   C3120494   2.610   6.760   2.471 -0.2903 -0.0406  0.1906
  180SLPC   O3220495   2.540   6.858   2.445 -0.7126 -0.1453 -0.2096
  180SLPC   C3220496   2.654   6.713   2.611 -1.0843  0.1594 -0.4701
  180SLPC   H2X20497   2.737   6.639   2.605 -0.8496  0.3291  0.5660
  180SLPC   H2Y20498   2.557   6.674   2.648  0.1032 -1.7252  0.7950
  180SLPC   C2320499   2.213   6.767   2.486 -0.1322  0.0362 -0.2459
  180SLPC   H3R20500   2.112   6.812   2.476 -1.4005 -1.6616  3.2526
  180SLPC   H3S20501   2.277   6.817   2.410  2.2785  0.6983  2.0780
  180SLPC   C2420502   2.269   6.775   2.630  0.5811  0.3010 -0.0376
  180SLPC   H4R20503   2.357   6.710   2.651 -0.0129 -2.0529 -3.9693
  180SLPC   H4S20504   2.184   6.738   2.691 -0.2751 -0.4595 -1.6469
  180SLPC   C2520505   2.298   6.923   2.673  0.5837 -0.0557  0.3190
  180SLPC   H5R20506   2.213   6.982   2.632  0.3554 -1.2628 -1.0728
  180SLPC   H5S20507   2.390   6.969   2.631 -0.8622  2.4027 -0.4072
  180SLPC   C2620508   2.313   6.944   2.820 -0.7324 -1.0619 -0.1928
  180SLPC   H6R20509   2.409   6.896   2.848  0.1844 -1.5149 -3.6853
  180SLPC   H6S20510   2.223   6.897   2.867  1.3196 -2.8019  2.2758
  180SLPC   C2720511   2.334   7.093   2.851 -0.0274  0.3702 -0.2036
  180SLPC   H7R20512   2.267   7.164   2.798  2.5708  1.7785 -1.8222
  180SLPC   H7S20513   2.429   7.131   2.809  0.2290  0.3012  0.3073
  180SLPC   C2820514   2.315   7.110   3.010  0.4180  0.3814 -0.4276
  180SLPC   H8R20515   2.392   7.047   3.060  0.4144  1.2922  0.7617
  180SLPC   H8S20516   2.218   7.056   3.020  1.5193 -1.6147  0.2180
  180SLPC   C2920517   2.306   7.259   3.058  0.3928  0.2154 -0.3878
  180SLPC   H9R20518   2.333   7.339   2.988 -2.0199  1.3174 -0.1728
  180SLPC  C21020519   2.280   7.288   3.183 -0.5891 -0.2009  0.1030
  180SLPC  H10R20520   2.277   7.395   3.209 -0.9735 -0.2936  0.4419
  180SLPC  C21120521   2.230   7.194   3.292 -0.2500  1.2963  0.3095
  180SLPC  H11R20522   2.308   7.153   3.359 -1.2154 -0.9405  0.1391
  180SLPC  H11S20523   2.180   7.106   3.246 -1.9645  2.5241 -0.2962
  180SLPC  C21220524   2.126   7.270   3.369 -0.2170  0.9319 -0.1212
  180SLPC  H12R20525   2.050   7.328   3.315  0.6743  2.4016  0.1419
  180SLPC  C21320526   2.128   7.281   3.505 -0.6561  0.4485  0.3717
  180SLPC  H13R20527   2.055   7.355   3.541 -0.7214  1.1338 -1.0794
  180SLPC  C21420528   2.238   7.236   3.601  0.3376 -0.1750 -0.1307
  180SLPC  H14R20529   2.289   7.142   3.570 -2.7519 -1.5599 -1.5207
  180SLPC  H14S20530   2.194   7.221   3.702 -1.0027  4.1474  0.1314
  180SLPC  C21520531   2.351   7.340   3.620 -0.9259 -0.0637  0.2445
  180SLPC  H15R20532   2.408   7.343   3.524  0.4391  0.6528  1.0449
  180SLPC  H15S20533   2.414   7.286   3.693  0.3079 -0.6141 -1.1602
  180SLPC  C21620534   2.317   7.478   3.679 -0.1697 -0.5041  0.1092
  180SLPC  H16R20535   2.226   7.517   3.627  0.3173 -0.4900 -0.7579
  180SLPC  H16S20536   2.393   7.558   3.688 -1.7889  1.1425 -0.1085
  180SLPC  C21720537   2.254   7.463   3.819 -0.7410 -0.0327  0.3090
  180SLPC  H17R20538   2.339   7.416   3.872  1.2273  3.2233  0.3079
  180SLPC  H17S20539   2.172   7.387   3.817 -0.6353 -0.1489  0.3896
  180SLPC  C21820540   2.222   7.590   3.898  1.6296 -0.0008  0.1477
  180SLPC  H18R20541   2.202   7.573   4.006 -0.1199 -1.6070 -0.3712
  180SLPC  H18S20542   2.137   7.641   3.849 -0.1656 -0.7776  2.2573
  180SLPC  H18T20543   2.315   7.651   3.898  2.0201 -0.5778 -0.5218
  180SLPC   C3320544   2.699   6.833   2.696 -0.4466  0.0886 -0.0417
  180SLPC   H3X20545   2.620   6.911   2.688  0.3209  1.0414  1.2153
  180SLPC   H3Y20546   2.795   6.871   2.655 -0.3496 -0.2167 -0.0987
  180SLPC   C3420547   2.700   6.785   2.847  0.4441 -0.1451  0.5208
  180SLPC   H4X20548   2.783   6.712   2.855  0.8819 -0.0153 -1.9261
  180SLPC   H4Y20549   2.605   6.729   2.859 -0.2545  1.3845  2.7812
  180SLPC   C3520550   2.706   6.899   2.952  0.3668 -0.4919 -0.2275
  180SLPC   H5X20551   2.622   6.967   2.927  0.4980  0.9132  2.7025
  180SLPC   H5Y20552   2.799   6.953   2.926 -0.2644  1.4524  1.3118
  180SLPC   C3620553   2.683   6.848   3.097 -0.3633  0.3227 -0.2517
  180SLPC   H6X20554   2.757   6.767   3.117 -1.9195 -1.0498  0.1059
  180SLPC   H6Y20555   2.580   6.809   3.096 -0.7098  1.1783  0.2630
  180SLPC   C3720556   2.699   6.959   3.198 -0.2996 -0.2029  0.1722
  180SLPC   H7X20557   2.621   7.035   3.176 -0.9068 -0.1312  2.3514
  180SLPC   H7Y20558   2.797   7.006   3.176 -0.4436 -0.1683 -0.4284
  180SLPC   C3820559   2.705   6.915   3.343 -0.4035  0.3112 -0.4379
  180SLPC   H8X20560   2.795   6.849   3.344 -0.1991  0.5395 -1.6992
  180SLPC   H8Y20561   2.612   6.858   3.364  0.5589 -0.6535  1.4904
  180SLPC   C3920562   2.711   7.036   3.445  0.7722  0.0244 -0.0266
  180SLPC   H9X20563   2.625   7.102   3.422 -0.1636 -1.0048  0.4218
  180SLPC   H9Y20564   2.798   7.102   3.424 -1.6171  2.8667 -1.8154
  180SLPC  C31020565   2.706   7.002   3.595 -0.7192  0.4891  0.4886
  180SLPC  H10X20566   2.761   7.089   3.636  0.6312  0.2441 -0.7178
  180SLPC  H10Y20567   2.771   6.915   3.622  0.5821  1.3284  0.1268
  180SLPC  C31120568   2.565   7.000   3.650  0.7335  0.4651  0.2524
  180SLPC  H11X20569   2.506   6.925   3.593  1.6627  0.1282 -0.2972
  180SLPC  H11Y20570   2.531   7.105   3.643  1.2002  0.7491  1.7551
  180SLPC  C31220571   2.551   6.956   3.799 -0.2114  0.5565 -0.3358
  180SLPC  H12X20572   2.623   7.020   3.855  2.7766 -1.4631 -1.5473
  180SLPC  H12Y20573   2.596   6.854   3.805  1.2485  1.1497 -0.5896
  180SLPC  C31320574   2.419   6.985   3.872  0.4190 -0.1386  0.3818
  180SLPC  H13X20575   2.333   6.934   3.823  0.0929 -0.3358  1.1389
  180SLPC  H13Y20576   2.408   7.095   3.862  0.5190  0.1251  2.6239
  180SLPC  C31420577   2.426   6.950   4.017  0.0578  0.2524 -0.1836
  180SLPC  H14X20578   2.508   7.010   4.062  1.1000 -1.3903  0.2301
  180SLPC  H14Y20579   2.460   6.844   4.021  0.1627  0.2905 -0.0572
  180SLPC  C31520580   2.290   6.980   4.093 -0.0887  0.0718 -0.3274
  180SLPC  H15X20581   2.303   6.939   4.195 -1.2943  0.5741  0.0329
  180SLPC  H15Y20582   2.214   6.933   4.027 -0.4073  2.0724 -1.4677
  180SLPC  C31620583   2.252   7.122   4.110 -0.7345 -0.6822  0.1288
  180SLPC  H16X20584   2.169   7.145   4.041 -0.4479  0.3121  0.0914
  180SLPC  H16Y20585   2.334   7.195   4.092 -2.3762  0.9007 -1.2989
  180SLPC  C31720586   2.214   7.154   4.254 -0.0744 -0.6210 -0.3618
  180SLPC  H17X20587   2.296   7.120   4.321 -1.2528 -1.1887  0.8521
  180SLPC  H17Y20588   2.117   7.111   4.290 -0.6607  1.2007  0.3370
  180SLPC  C31820589   2.189   7.306   4.256 -0.6783  0.0207 -0.5741
  180SLPC  H18X20590   2.257   7.352   4.181 -0.5467 -1.1874 -1.2290
  180SLPC  H18Y20591   2.208   7.346   4.358 -1.6595  0.1026 -0.4135
  180SLPC  H18Z20592   2.083   7.308   4.224 -0.2237  2.1697 -2.1781
  181SLPC     N20593   1.892   0.724   1.821  0.1417 -0.8778 -0.5075
  181SLPC   C1320594   1.782   0.623   1.852  0.5225  0.0064  0.3369
  181SLPC  H13A20595   1.748   0.573   1.763  0.3785  0.8675 -0.1041
  181SLPC  H13B20596   1.828   0.547   1.913 -1.6674  0.1950  2.3952
  181SLPC  H13C20597   1.702   0.673   1.905 -1.8525 -0.0586 -2.8711
  181SLPC   C1420598   1.835   0.820   1.723  0.0068 -0.2921  0.3834
  181SLPC  H14A20599   1.897   0.903   1.689 -1.2099  0.3786 -0.2656
  181SLPC  H14B20600   1.790   0.762   1.644  1.8756 -0.5915 -0.5387
  181SLPC  H14C20601   1.755   0.862   1.782 -1.0032 -1.2323 -0.2732
  181SLPC   C1520602   2.020   0.665   1.769  0.6207 -0.0560  0.5344
  181SLPC  H15A20603   2.072   0.617   1.851 -0.4250 -2.4491 -0.0999
  181SLPC  H15B20604   2.008   0.596   1.687  1.3738 -0.0820  0.4326
  181SLPC  H15C20605   2.088   0.743   1.738  1.3716 -0.0730  2.0282
  181SLPC   C1220606   1.931   0.800   1.948  0.0568 -0.3495 -0.5563
  181SLPC  H12A20607   2.010   0.869   1.923  1.3200 -2.2956 -2.2327
  181SLPC  H12B20608   1.980   0.731   2.015 -0.7563  0.6060  1.0829
  181SLPC   C1120609   1.818   0.883   2.023  0.2039  0.1958 -0.1856
  181SLPC  H11A20610   1.867   0.941   2.103  0.1249  1.5747 -1.0994
  181SLPC  H11B20611   1.744   0.805   2.055 -0.2304  0.6327 -0.1157
  181SLPC     P20612   1.627   1.045   1.924 -0.1138  0.2074 -0.0125
  181SLPC   O1320613   1.644   1.169   1.850 -0.3349 -0.3822  0.1342
  181SLPC   O1420614   1.526   0.953   1.875  1.2136  0.2144 -0.2445
  181SLPC   O1220615   1.765   0.974   1.931 -0.7105 -0.1315  0.0557
  181SLPC   O1120616   1.595   1.067   2.074 -0.0365 -0.1300 -0.2259
  181SLPC    C120617   1.672   1.161   2.144 -0.1119  0.6332  0.6091
  181SLPC    HA20618   1.775   1.121   2.155  0.0954  0.8423 -0.5366
  181SLPC    HB20619   1.680   1.258   2.091  0.1322 -0.0485 -0.6458
  181SLPC    C220620   1.612   1.193   2.282 -0.1793 -0.0639  0.0937
  181SLPC    HS20621   1.678   1.270   2.328 -0.6783  1.3502 -1.4923
  181SLPC   O2120622   1.603   1.078   2.365 -0.1168 -0.5014  0.4089
  181SLPC   C2120623   1.719   1.024   2.402 -0.2454  0.8393 -0.6011
  181SLPC   O2220624   1.833   1.070   2.396  0.2393 -0.3668  0.9940
  181SLPC   C2220625   1.685   0.887   2.457 -0.8345  0.0111  0.3973
  181SLPC   H2R20626   1.624   0.900   2.549 -2.4262 -0.5067 -0.5406
  181SLPC   H2S20627   1.626   0.832   2.381  1.1160 -0.7303 -0.6373
  181SLPC    C320628   1.466   1.253   2.268  0.1185 -0.4337  0.1181
  181SLPC    HX20629   1.406   1.175   2.216 -1.9126 -0.6803  2.6480
  181SLPC    HY20630   1.472   1.347   2.209  1.3500 -0.0793  0.7680
  181SLPC   O3120631   1.400   1.284   2.394  0.2059  0.6972  0.1675
  181SLPC   C3120632   1.338   1.177   2.458 -0.3591 -0.2967  0.1127
  181SLPC   O3220633   1.301   1.075   2.406  0.0176 -0.0603  0.6276
  181SLPC   C3220634   1.307   1.212   2.603 -0.2513 -0.1760  0.0886
  181SLPC   H2X20635   1.233   1.294   2.604 -0.2584 -0.0779 -2.5357
  181SLPC   H2Y20636   1.397   1.252   2.655 -0.3041  0.8871 -0.6067
  181SLPC   C2320637   1.811   0.807   2.507  0.0202  0.7874  0.0338
  181SLPC   H3R20638   1.877   0.796   2.418 -0.5740  3.6416 -0.8441
  181SLPC   H3S20639   1.759   0.711   2.530  1.4841 -0.6487 -2.1427
  181SLPC   C2420640   1.885   0.871   2.627  0.1994 -0.2200 -0.2420
  181SLPC   H4R20641   1.938   0.966   2.601  0.3548  0.1281  1.2655
  181SLPC   H4S20642   1.964   0.794   2.641 -0.0352 -0.1960  1.3693
  181SLPC   C2520643   1.802   0.904   2.759 -0.0058  0.2437  0.0343
  181SLPC   H5R20644   1.748   1.000   2.746  1.6493  1.2092  0.0409
  181SLPC   H5S20645   1.878   0.934   2.834 -0.5271 -0.6748  0.9677
  181SLPC   C2620646   1.715   0.790   2.814  0.1013  0.1038 -0.7624
  181SLPC   H6R20647   1.774   0.696   2.815 -0.0318  0.0107 -1.1577
  181SLPC   H6S20648   1.637   0.781   2.735  1.2856  0.5395 -2.0297
  181SLPC   C2720649   1.656   0.829   2.951  0.2477 -0.1772 -0.1555
  181SLPC   H7R20650   1.589   0.749   2.990  1.3119 -0.8946  0.2538
  181SLPC   H7S20651   1.600   0.924   2.943  0.7055  0.1402  0.3081
  181SLPC   C2820652   1.762   0.853   3.054 -0.3182  0.2580  0.2540
  181SLPC   H8R20653   1.724   0.906   3.143  0.4019 -1.8033  1.8704
  181SLPC   H8S20654   1.828   0.933   3.014 -1.5278  1.9615  1.5746
  181SLPC   C2920655   1.830   0.721   3.090  0.3170 -0.1916  0.4455
  181SLPC   H9R20656   1.884   0.668   3.011 -2.4528 -1.7081 -0.5635
  181SLPC  C21020657   1.808   0.660   3.206 -0.3363 -0.2861  0.5321
  181SLPC  H10R20658   1.849   0.559   3.225 -1.3924 -0.6503  0.9777
  181SLPC  C21120659   1.730   0.697   3.330 -0.1580  0.5552  0.1877
  181SLPC  H11R20660   1.703   0.604   3.385 -0.7955 -0.8919 -2.4169
  181SLPC  H11S20661   1.630   0.739   3.306  0.3247  3.0363  2.0040
  181SLPC  C21220662   1.809   0.798   3.420 -0.1050  0.0833 -0.1463
  181SLPC  H12R20663   1.808   0.898   3.375 -3.5910  0.1721 -0.1994
  181SLPC  C21320664   1.857   0.786   3.545  0.1636 -0.2570 -0.4946
  181SLPC  H13R20665   1.897   0.874   3.598  2.1592 -0.6828 -1.2143
  181SLPC  C21420666   1.836   0.665   3.625 -0.2140  0.4364  0.2600
  181SLPC  H14R20667   1.923   0.634   3.687 -1.1520 -0.3642  1.2147
  181SLPC  H14S20668   1.823   0.580   3.555  0.4576  1.4213 -1.1063
  181SLPC  C21520669   1.707   0.665   3.718 -0.2963 -0.6976 -0.1498
  181SLPC  H15R20670   1.670   0.561   3.730  1.5638 -1.2440  1.4609
  181SLPC  H15S20671   1.622   0.722   3.676 -1.8460 -2.4147  0.5029
  181SLPC  C21620672   1.740   0.709   3.867 -0.2315 -0.3082 -0.4026
  181SLPC  H16R20673   1.735   0.819   3.882  0.4337 -0.2355 -0.6789
  181SLPC  H16S20674   1.850   0.696   3.882 -0.4277  0.6840  2.7091
  181SLPC  C21720675   1.661   0.642   3.977 -0.2604 -0.2133  0.3575
  181SLPC  H17R20676   1.680   0.533   3.966  0.5126 -0.3489  2.5962
  181SLPC  H17S20677   1.552   0.643   3.957  0.3331 -2.8507 -4.7645
  181SLPC  C21820678   1.718   0.684   4.112 -0.1967  0.4354 -0.8960
  181SLPC  H18R20679   1.663   0.648   4.202  2.1827  1.2847  1.0036
  181SLPC  H18S20680   1.739   0.793   4.120  1.5755  0.0777 -0.2202
  181SLPC  H18T20681   1.821   0.644   4.122  0.6210  2.9143  2.1929
  181SLPC   C3320682   1.252   1.084   2.682  0.3854 -0.0504  0.2321
  181SLPC   H3X20683   1.321   0.999   2.663 -0.4031 -0.2730 -1.9258
  181SLPC   H3Y20684   1.152   1.051   2.649 -0.0517  0.6132  0.8579
  181SLPC   C3420685   1.230   1.119   2.828 -0.4321  0.1118 -0.2943
  181SLPC   H4X20686   1.156   1.201   2.834 -0.7860 -0.2353  0.1365
  181SLPC   H4Y20687   1.324   1.169   2.859  0.0412 -1.7629  1.5379
  181SLPC   C3520688   1.209   1.011   2.932  0.6187  0.4851 -0.0802
  181SLPC   H5X20689   1.309   0.963   2.929 -0.2519 -2.1097  4.1469
  181SLPC   H5Y20690   1.138   0.931   2.901  1.6895 -1.6910  2.5932
  181SLPC   C3620691   1.162   1.061   3.078 -0.4708  0.2325 -0.1052
  181SLPC   H6X20692   1.079   1.132   3.058  0.2824  0.8211 -1.2849
  181SLPC   H6Y20693   1.231   1.122   3.140  0.9063 -1.5356  0.1923
  181SLPC   C3720694   1.096   0.944   3.157  0.2665 -0.1940 -0.2520
  181SLPC   H7X20695   1.010   0.899   3.102 -1.3361  3.1172 -0.7266
  181SLPC   H7Y20696   1.062   0.995   3.250  3.6612 -0.3846  1.2392
  181SLPC   C3820697   1.200   0.829   3.188 -0.4336 -0.4883 -0.1283
  181SLPC   H8X20698   1.232   0.798   3.085  0.8058 -1.7015  0.5768
  181SLPC   H8Y20699   1.146   0.742   3.230 -0.1436  0.2268  1.8154
  181SLPC   C3920700   1.318   0.868   3.279  0.1899 -0.2461  0.5178
  181SLPC   H9X20701   1.367   0.955   3.230  0.6303 -1.8444 -2.0670
  181SLPC   H9Y20702   1.386   0.781   3.279  0.8538  0.2540 -0.3274
  181SLPC  C31020703   1.274   0.891   3.427 -0.0086  0.0324  0.2733
  181SLPC  H10X20704   1.211   0.806   3.459 -0.2480  0.4939  1.0554
  181SLPC  H10Y20705   1.204   0.977   3.428  1.6802  1.4695  0.4738
  181SLPC  C31120706   1.385   0.894   3.536  0.0634  0.3248  0.5221
  181SLPC  H11X20707   1.452   0.980   3.518  1.8240 -1.0724  0.0899
  181SLPC  H11Y20708   1.448   0.802   3.533 -0.8149 -0.2963  0.5671
  181SLPC  C31220709   1.322   0.931   3.674  0.3772 -0.5584  0.7070
  181SLPC  H12X20710   1.253   0.846   3.690  0.0903 -0.3517  0.5719
  181SLPC  H12Y20711   1.268   1.026   3.655  1.4410 -0.1718 -0.6138
  181SLPC  C31320712   1.423   0.941   3.794  0.2496  0.7557 -0.3604
  181SLPC  H13X20713   1.522   0.982   3.764  0.5171  0.9028  0.6705
  181SLPC  H13Y20714   1.452   0.842   3.836 -1.6957  0.7756  1.1540
  181SLPC  C31420715   1.370   1.024   3.915  0.3340 -0.1141  0.2881
  181SLPC  H14X20716   1.362   1.131   3.886 -0.2483 -0.5272 -1.2172
  181SLPC  H14Y20717   1.449   1.019   3.993  1.0868  0.2346 -0.4380
  181SLPC  C31520718   1.236   0.980   3.978 -0.0449  0.0831 -0.2033
  181SLPC  H15X20719   1.159   0.994   3.900 -0.7315  1.9257  0.7437
  181SLPC  H15Y20720   1.210   1.033   4.072  1.7125  3.0562 -1.2568
  181SLPC  C31620721   1.226   0.828   3.998 -0.3581  0.7510 -0.2204
  181SLPC  H16X20722   1.271   0.797   4.095 -2.9993 -0.4475  0.7341
  181SLPC  H16Y20723   1.277   0.777   3.914  0.0659  2.9443 -1.3649
  181SLPC  C31720724   1.082   0.764   4.004 -0.2823  0.6669 -0.1776
  181SLPC  H17X20725   1.096   0.654   3.992 -1.6734  0.4681 -0.1726
  181SLPC  H17Y20726   1.025   0.797   3.915  0.0867 -2.6160 -1.7816
  181SLPC  C31820727   1.006   0.813   4.121  0.0092  0.3892  0.3610
  181SLPC  H18X20728   1.054   0.782   4.216  0.9931  0.2670 -0.1584
  181SLPC  H18Y20729   0.906   0.766   4.114 -0.8500  1.9906  1.2277
  181SLPC  H18Z20730   0.996   0.924   4.125 -1.0438  0.2637  1.6323
  182SLPC     N20731   4.358   6.441   1.939  0.2591  0.8046  0.3115
  182SLPC   C1320732   4.338   6.564   1.848 -0.4857 -0.2544  0.4631
  182SLPC  H13A20733   4.238   6.602   1.857 -0.9804 -1.4764  0.3926
  182SLPC  H13B20734   4.413   6.638   1.869  2.3494 -2.9280  0.5699
  182SLPC  H13C20735   4.347   6.532   1.745  1.2709  0.0260  0.5080
  182SLPC   C1420736   4.251   6.333   1.907  0.3866 -0.1717 -0.4251
  182SLPC  H14A20737   4.263   6.245   1.969  0.8436  0.8497  0.9732
  182SLPC  H14B20738   4.148   6.362   1.921  0.5703  0.4894 -0.4199
  182SLPC  H14C20739   4.273   6.304   1.805  0.9078  1.0103 -0.6606
  182SLPC   C1520740   4.348   6.482   2.086 -0.8812  0.1249  0.0732
  182SLPC  H15A20741   4.432   6.545   2.113  1.8494 -2.7465 -1.1105
  182SLPC  H15B20742   4.251   6.523   2.109  0.2870  2.0395  1.9613
  182SLPC  H15C20743   4.347   6.389   2.140  1.2789 -0.5880 -1.0226
  182SLPC   C1220744   4.503   6.389   1.922 -0.5094  0.1194 -0.5484
  182SLPC  H12A20745   4.576   6.462   1.954 -0.1432 -0.6194  0.3812
  182SLPC  H12B20746   4.515   6.382   1.815 -1.0308  0.9882 -0.6708
  182SLPC   C1120747   4.551   6.265   2.002 -0.1309  0.2213  0.2445
  182SLPC  H11A20748   4.529   6.284   2.110 -0.3583 -0.1728  0.2690
  182SLPC  H11B20749   4.659   6.259   1.980 -0.2775 -1.4026 -0.1643
  182SLPC     P20750   4.423   6.043   2.050 -0.1128  0.5467 -0.0509
  182SLPC   O1320751   4.280   6.071   2.058  0.5733 -0.4884  0.1179
  182SLPC   O1420752   4.465   5.908   1.997 -0.1648 -0.4361  0.3497
  182SLPC   O1220753   4.487   6.148   1.953  0.0168  0.1527 -0.3462
  182SLPC   O1120754   4.497   6.073   2.192 -0.4938 -0.4436  0.3683
  182SLPC    C120755   4.631   6.030   2.204  0.2703 -0.3728  0.0388
  182SLPC    HA20756   4.651   5.922   2.185  0.1292 -0.2500 -0.8611
  182SLPC    HB20757   4.695   6.092   2.137 -1.1041  0.7536 -0.2721
  182SLPC    C220758   4.684   6.048   2.351  0.0220  0.1160  0.2516
  182SLPC    HS20759   4.681   5.946   2.394 -1.0774  1.0788  2.7149
  182SLPC   O2120760   4.592   6.131   2.427 -0.4357  0.1903  0.2346
  182SLPC   C2120761   4.480   6.069   2.467  0.4735  0.2945 -0.0434
  182SLPC   O2220762   4.452   5.953   2.445 -0.4622 -0.0535 -0.0709
  182SLPC   C2220763   4.396   6.167   2.545 -0.4760 -0.0580 -0.0673
  182SLPC   H2R20764   4.454   6.201   2.634 -3.6337  1.6075  1.5445
  182SLPC   H2S20765   4.377   6.255   2.479  1.5836  0.7993  0.4047
  182SLPC    C320766   4.832   6.099   2.352  0.3712  0.7519  0.2661
  182SLPC    HX20767   4.834   6.202   2.310 -1.1941 -0.0262 -1.8918
  182SLPC    HY20768   4.889   6.028   2.289 -0.2370 -0.1029  0.6575
  182SLPC   O3120769   4.872   6.095   2.485  0.1990  0.1096 -0.3008
  182SLPC   C3120770   4.895   6.205   2.558  0.2258 -0.3426  0.5867
  182SLPC   O3220771   4.874   6.322   2.527 -0.8273  0.1685  0.1962
  182SLPC   C3220772   4.957   6.161   2.696 -0.6634 -0.7498 -0.1816
  182SLPC   H2X20773   5.063   6.144   2.670 -0.5049  2.4875 -2.1936
  182SLPC   H2Y20774   4.897   6.073   2.730 -2.0044  0.9619  2.2320
  182SLPC   C2320775   4.259   6.122   2.594  0.1297 -0.3662  0.5922
  182SLPC   H3R20776   4.269   6.040   2.668  1.2301 -0.9746 -0.2137
  182SLPC   H3S20777   4.195   6.085   2.512  1.7288 -0.6916 -0.5412
  182SLPC   C2420778   4.169   6.232   2.654  0.4288 -0.2262  0.0953
  182SLPC   H4R20779   4.078   6.180   2.693 -0.5599  0.6734 -0.9546
  182SLPC   H4S20780   4.134   6.294   2.570 -0.9360 -2.3073 -0.9727
  182SLPC   C2520781   4.233   6.319   2.761 -0.1171 -0.0896  0.1824
  182SLPC   H5R20782   4.150   6.390   2.781  0.4137 -0.0799  2.7313
  182SLPC   H5S20783   4.313   6.374   2.707 -1.0824 -0.1645 -1.3928
  182SLPC   C2620784   4.273   6.245   2.884  0.4923 -0.3413  0.1755
  182SLPC   H6R20785   4.357   6.172   2.876 -0.0689 -1.1736  1.5441
  182SLPC   H6S20786   4.184   6.180   2.896  0.0460  0.4214  1.0940
  182SLPC   C2720787   4.276   6.332   3.012 -0.5249 -0.6309 -0.1768
  182SLPC   H7R20788   4.181   6.389   3.023 -0.0122  0.3299 -0.6148
  182SLPC   H7S20789   4.356   6.410   3.008 -0.0823 -0.9075  1.9119
  182SLPC   C2820790   4.299   6.254   3.140 -0.3682 -0.3730 -0.1067
  182SLPC   H8R20791   4.222   6.174   3.150 -0.2605 -0.3259  1.2666
  182SLPC   H8S20792   4.283   6.317   3.231  0.3671  0.3045 -0.4314
  182SLPC   C2920793   4.440   6.200   3.135 -0.1103 -0.1626 -0.5778
  182SLPC   H9R20794   4.512   6.254   3.072  0.1567  1.0582  0.7359
  182SLPC  C21020795   4.476   6.074   3.166 -0.4408 -0.3752  0.0319
  182SLPC  H10R20796   4.582   6.046   3.165 -0.4878 -0.7327  1.8233
  182SLPC  C21120797   4.388   5.967   3.234  0.1455 -0.0895 -0.0022
  182SLPC  H11R20798   4.321   5.920   3.159  1.7229 -2.2334 -0.1596
  182SLPC  H11S20799   4.322   6.027   3.300 -0.3695  0.8008 -1.2810
  182SLPC  C21220800   4.455   5.863   3.317 -0.3198 -0.3789  0.0184
  182SLPC  H12R20801   4.524   5.800   3.258 -1.7725 -1.3297 -0.7182
  182SLPC  C21320802   4.443   5.841   3.446 -0.1751  0.3497 -0.1740
  182SLPC  H13R20803   4.503   5.756   3.484 -0.2106  0.8033  0.9213
  182SLPC  C21420804   4.333   5.904   3.538 -0.1652  0.0345  0.3322
  182SLPC  H14R20805   4.321   5.827   3.617 -0.1383  0.9790  1.2904
  182SLPC  H14S20806   4.239   5.928   3.484  0.0660 -0.0315 -0.1016
  182SLPC  C21520807   4.383   6.028   3.604  0.1716  0.7293  0.2215
  182SLPC  H15R20808   4.418   6.098   3.526 -3.3266  0.6739 -1.6030
  182SLPC  H15S20809   4.450   6.001   3.689 -0.8505 -0.7635  0.5956
  182SLPC  C21620810   4.256   6.092   3.671 -0.1531 -0.0942 -0.0637
  182SLPC  H16R20811   4.226   6.037   3.762  0.1042 -0.3341 -0.1202
  182SLPC  H16S20812   4.164   6.081   3.608 -0.8315  1.1805  0.6710
  182SLPC  C21720813   4.257   6.243   3.698 -0.3389 -0.8820  0.1676
  182SLPC  H17R20814   4.327   6.263   3.783  0.5069  3.4332 -1.3275
  182SLPC  H17S20815   4.155   6.278   3.723 -1.2657 -0.6121 -3.5594
  182SLPC  C21820816   4.299   6.332   3.574  0.2301  0.5518 -0.4494
  182SLPC  H18R20817   4.282   6.440   3.595 -0.2281  0.1924  1.2281
  182SLPC  H18S20818   4.245   6.306   3.481  1.8547 -1.7091 -0.8518
  182SLPC  H18T20819   4.407   6.318   3.556  0.0977 -0.2453 -0.6523
  182SLPC   C3320820   4.941   6.259   2.811 -0.4855  0.1516  0.1978
  182SLPC   H3X20821   4.833   6.276   2.833 -0.4142  3.5151 -1.3829
  182SLPC   H3Y20822   4.976   6.358   2.774 -3.3354  1.4808  0.7728
  182SLPC   C3420823   5.017   6.208   2.929 -0.0179  0.0327  0.5403
  182SLPC   H4X20824   5.125   6.198   2.906  0.1357  0.8971  0.8569
  182SLPC   H4Y20825   4.994   6.103   2.956 -1.1174  0.3370  0.8501
  182SLPC   C3520826   4.983   6.281   3.053 -0.1932  0.4074 -0.8474
  182SLPC   H5X20827   4.873   6.271   3.057 -0.4187  2.6268  0.4103
  182SLPC   H5Y20828   5.016   6.387   3.046  1.2853  0.4042  3.2470
  182SLPC   C3620829   5.049   6.225   3.182 -0.3496 -0.4730  0.0300
  182SLPC   H6X20830   5.158   6.238   3.164 -0.5132  1.9407  0.3629
  182SLPC   H6Y20831   5.017   6.119   3.181  0.6519 -0.8101  1.2297
  182SLPC   C3720832   5.007   6.300   3.311 -0.7446 -0.0815  0.4109
  182SLPC   H7X20833   4.898   6.292   3.331 -0.9870  0.2123 -0.7423
  182SLPC   H7Y20834   5.025   6.408   3.292 -0.4363  0.2348  2.2201
  182SLPC   C3820835   5.087   6.271   3.433 -0.3316 -0.2040 -0.2038
  182SLPC   H8X20836   5.191   6.307   3.418 -0.3934 -0.2727 -0.8133
  182SLPC   H8Y20837   5.085   6.162   3.453 -0.9428  0.0526  1.2909
  182SLPC   C3920838   5.032   6.348   3.557  0.5076 -0.7791  0.2112
  182SLPC   H9X20839   4.930   6.307   3.577 -0.6478  0.5988 -2.4252
  182SLPC   H9Y20840   5.011   6.454   3.533  1.1330 -0.9204 -1.0309
  182SLPC  C31020841   5.134   6.326   3.671 -0.0860 -0.4835  0.5646
  182SLPC  H10X20842   5.242   6.322   3.643 -0.1702 -1.1601  0.3080
  182SLPC  H10Y20843   5.114   6.220   3.695 -0.9062  0.2187  3.3285
  182SLPC  C31120844   5.108   6.415   3.797 -0.2715  0.1880  0.0830
  182SLPC  H11X20845   5.172   6.373   3.878 -1.6254 -0.0122  1.0923
  182SLPC  H11Y20846   5.009   6.395   3.845  1.4025  1.2521  4.4500
  182SLPC  C31220847   5.134   6.569   3.784  0.2473  0.3388 -0.8492
  182SLPC  H12X20848   5.072   6.598   3.696  0.2227  2.1092 -0.2820
  182SLPC  H12Y20849   5.241   6.585   3.759  0.1839  0.9753 -0.7255
  182SLPC  C31320850   5.108   6.650   3.912 -0.2956 -0.2611 -0.2277
  182SLPC  H13X20851   5.152   6.752   3.904  2.1339 -1.1933  0.1908
  182SLPC  H13Y20852   5.147   6.598   4.002 -1.5609 -1.5069 -0.3638
  182SLPC  C31420853   4.959   6.659   3.951  0.8524  0.3833  0.3399
  182SLPC  H14X20854   4.937   6.560   3.996 -1.0361  0.1139 -1.0688
  182SLPC  H14Y20855   4.908   6.670   3.853  0.9036  1.0091  0.3775
  182SLPC  C31520856   4.925   6.775   4.039  0.6115  0.4045  0.4409
  182SLPC  H15X20857   4.815   6.791   4.046  0.2283  0.3078 -3.1845
  182SLPC  H15Y20858   4.961   6.867   3.988  0.7546  0.1170  0.0174
  182SLPC  C31620859   5.003   6.778   4.167 -0.5803 -0.6358 -0.8641
  182SLPC  H16X20860   5.021   6.885   4.190 -0.2742 -0.9250  0.3207
  182SLPC  H16Y20861   5.108   6.744   4.161 -0.5512 -0.7184  0.0208
  182SLPC  C31720862   4.936   6.698   4.282 -0.3523 -0.1180  1.0669
  182SLPC  H17X20863   5.011   6.655   4.351 -0.6214 -2.3328  0.0537
  182SLPC  H17Y20864   4.889   6.608   4.237  0.9654  0.2356 -1.1931
  182SLPC  C31820865   4.840   6.785   4.365 -0.0920 -0.0601  0.1205
  182SLPC  H18X20866   4.740   6.742   4.389  0.0936 -1.4661 -1.4557
  182SLPC  H18Y20867   4.832   6.887   4.321  1.5807  0.1015  0.1304
  182SLPC  H18Z20868   4.902   6.812   4.453 -1.2961  1.2432  0.6091
  183SLPC     N20869   5.376   6.785   2.028  0.4421 -0.2864  0.1245
  183SLPC   C1320870   5.272   6.749   2.126  0.4840  0.4878  0.1034
  183SLPC  H13A20871   5.225   6.831   2.177  1.0375  2.0078 -1.7207
  183SLPC  H13B20872   5.187   6.707   2.075  0.7541 -0.0311  0.0755
  183SLPC  H13C20873   5.313   6.670   2.187  1.1484 -0.8247 -1.9095
  183SLPC   C1420874   5.309   6.869   1.921 -0.7078  0.5987 -0.0889
  183SLPC  H14A20875   5.234   6.803   1.879 -0.2701 -0.8668  1.3083
  183SLPC  H14B20876   5.258   6.961   1.945 -2.3817 -0.0329 -1.0796
  183SLPC  H14C20877   5.381   6.895   1.845 -0.8321 -1.5296 -0.9953
  183SLPC   C1520878   5.415   6.657   1.967 -0.2157 -0.4253  0.8808
  183SLPC  H15A20879   5.336   6.617   1.905  0.4676  0.2015 -0.4433
  183SLPC  H15B20880   5.505   6.672   1.910 -0.1608  1.8622  1.4780
  183SLPC  H15C20881   5.431   6.582   2.043  0.1784 -0.7856  0.4495
  183SLPC   C1220882   5.493   6.849   2.093  0.8909  0.0282  0.0173
  183SLPC  H12A20883   5.573   6.840   2.020  1.8013 -0.8136  1.0779
  183SLPC  H12B20884   5.521   6.791   2.180  3.2096  0.0197 -0.6512
  183SLPC   C1120885   5.478   7.001   2.133  0.0794 -0.1867 -0.2786
  183SLPC  H11A20886   5.558   7.002   2.210 -2.3701 -2.8241  2.6313
  183SLPC  H11B20887   5.382   7.016   2.188  0.2828  0.2303 -0.0325
  183SLPC     P20888   5.632   7.136   1.976 -0.2642  0.1781  0.3032
  183SLPC   O1320889   5.706   7.023   1.909 -0.3791 -0.7966 -0.4486
  183SLPC   O1420890   5.618   7.246   1.879 -0.1126 -0.1977 -0.2672
  183SLPC   O1220891   5.495   7.088   2.027 -0.1382 -0.0930  0.1496
  183SLPC   O1120892   5.706   7.182   2.113  0.1987  0.1601 -1.0071
  183SLPC    C120893   5.743   7.319   2.125 -0.4072  0.6530  0.1254
  183SLPC    HA20894   5.836   7.344   2.070 -1.3537  0.4710 -1.6161
  183SLPC    HB20895   5.664   7.382   2.080  1.3969  2.1572 -1.1019
  183SLPC    C220896   5.755   7.372   2.267  0.0361 -0.2493  0.4362
  183SLPC    HS20897   5.760   7.483   2.264 -0.5657 -0.2217  0.3758
  183SLPC   O2120898   5.874   7.322   2.326 -0.1680 -0.2286 -0.2907
  183SLPC   C2120899   5.937   7.393   2.421  0.0730 -0.7778  0.2291
  183SLPC   O2220900   5.891   7.496   2.471  0.1501  0.9719  1.2263
  183SLPC   C2220901   6.077   7.338   2.436 -0.1679  0.1914 -0.0554
  183SLPC   H2R20902   6.070   7.234   2.476 -2.7300  0.5607  0.5955
  183SLPC   H2S20903   6.123   7.343   2.335  1.1189  0.5375  0.5275
  183SLPC    C320904   5.637   7.324   2.357  0.1935  0.0723  0.7628
  183SLPC    HX20905   5.631   7.374   2.456 -2.7432 -0.3687  0.9049
  183SLPC    HY20906   5.660   7.217   2.376 -0.1986  0.2979  2.6341
  183SLPC   O3120907   5.509   7.339   2.285  0.2784  0.6537 -0.1981
  183SLPC   C3120908   5.406   7.276   2.341 -0.2334 -0.0673 -0.3700
  183SLPC   O3220909   5.410   7.197   2.431 -0.3482  0.3757  0.2644
  183SLPC   C3220910   5.274   7.344   2.284 -0.6696 -1.0096  0.4001
  183SLPC   H2X20911   5.249   7.304   2.183 -1.2435 -0.7672  0.4446
  183SLPC   H2Y20912   5.292   7.451   2.264 -0.9587 -1.0918 -0.3516
  183SLPC   C2320913   6.160   7.427   2.529 -0.3171  0.9351  0.9281
  183SLPC   H3R20914   6.153   7.532   2.491 -0.0795  0.1489 -1.4403
  183SLPC   H3S20915   6.266   7.394   2.526 -0.9592 -1.2742 -2.5843
  183SLPC   C2420916   6.114   7.420   2.671 -0.0712 -0.4044 -0.2886
  183SLPC   H4R20917   6.115   7.313   2.699 -1.6731  0.0246  1.5539
  183SLPC   H4S20918   6.007   7.448   2.667  0.2014  1.1387  1.6638
  183SLPC   C2520919   6.197   7.505   2.755 -0.0071  0.7092  0.3499
  183SLPC   H5R20920   6.169   7.612   2.752  0.9817  0.9928  0.8227
  183SLPC   H5S20921   6.303   7.504   2.725  0.5992 -0.4870  2.3313
  183SLPC   C2620922   6.192   7.456   2.900  0.2498  0.1895  0.4270
  183SLPC   H6R20923   6.224   7.349   2.898 -1.2527 -0.3312 -2.7704
  183SLPC   H6S20924   6.092   7.445   2.946  0.9899 -2.1183  1.7056
  183SLPC   C2720925   6.268   7.547   2.992 -0.5686 -0.0163  0.2748
  183SLPC   H7R20926   6.209   7.640   3.009  0.5336  0.7328  0.1190
  183SLPC   H7S20927   6.369   7.564   2.949 -0.7963  1.1154  0.1648
  183SLPC   C2820928   6.292   7.487   3.137 -0.0322  0.3864 -0.0304
  183SLPC   H8R20929   6.371   7.541   3.194  1.9464  1.0515 -3.1737
  183SLPC   H8S20930   6.322   7.380   3.132 -0.5946  0.2061  0.3688
  183SLPC   C2920931   6.164   7.476   3.215 -0.5858 -0.3715 -0.4101
  183SLPC   H9R20932   6.076   7.428   3.170 -0.3683 -0.6968 -0.4971
  183SLPC  C21020933   6.148   7.521   3.346  0.1203  0.1575  0.0230
  183SLPC  H10R20934   6.048   7.520   3.391 -0.8195  1.3479 -1.8989
  183SLPC  C21120935   6.251   7.587   3.438 -0.0516 -0.1542 -0.3370
  183SLPC  H11R20936   6.295   7.685   3.412  0.7494 -0.5961 -0.6827
  183SLPC  H11S20937   6.332   7.512   3.453  0.4610  0.5541  0.5224
  183SLPC  C21220938   6.180   7.621   3.571 -0.1376 -0.0188  1.2641
  183SLPC  H12R20939   6.073   7.647   3.570  0.2137  1.4841  1.1785
  183SLPC  C21320940   6.240   7.614   3.692 -0.1531 -0.4222 -0.0141
  183SLPC  H13R20941   6.173   7.645   3.774 -0.7163 -0.0808 -0.5946
  183SLPC  C21420942   6.383   7.570   3.722 -0.0834  0.0423 -0.4576
  183SLPC  H14R20943   6.446   7.564   3.631  2.7410  1.0417  1.2883
  183SLPC  H14S20944   6.368   7.469   3.765 -3.3932  0.9784  0.9078
  183SLPC  C21520945   6.443   7.650   3.844  0.6651  0.1833 -0.1836
  183SLPC  H15R20946   6.369   7.662   3.926  1.1858  0.7030  0.2177
  183SLPC  H15S20947   6.475   7.749   3.804 -1.5199 -0.3476 -3.5897
  183SLPC  C21620948   6.565   7.585   3.914 -0.2638  0.0551 -0.4583
  183SLPC  H16R20949   6.644   7.540   3.850  1.5039  2.7087 -0.3041
  183SLPC  H16S20950   6.515   7.501   3.967 -0.4810  0.7607  0.4964
  183SLPC  C21720951   6.645   7.679   4.006 -0.1747  0.5971 -0.4013
  183SLPC  H17R20952   6.572   7.730   4.072  0.4168  0.6263  0.2407
  183SLPC  H17S20953   6.695   7.762   3.952 -2.8619  2.3479 -0.3675
  183SLPC  C21820954   6.745   7.603   4.093 -1.0489 -0.2247 -0.2788
  183SLPC  H18R20955   6.691   7.521   4.144  0.3935 -1.0481  0.0044
  183SLPC  H18S20956   6.785   7.669   4.174 -2.1654 -0.1129  0.1900
  183SLPC  H18T20957   6.823   7.549   4.035 -0.0178 -0.9901  1.7022
  183SLPC   C3320958   5.154   7.323   2.376 -0.9149 -0.6002 -0.5961
  183SLPC   H3X20959   5.144   7.215   2.398 -2.7370 -1.1753 -3.6613
  183SLPC   H3Y20960   5.067   7.343   2.310 -2.1765  0.5710  1.3414
  183SLPC   C3420961   5.168   7.424   2.495  0.0673 -0.4840 -0.3324
  183SLPC   H4X20962   5.119   7.519   2.466  0.6755  0.0511  0.3587
  183SLPC   H4Y20963   5.274   7.450   2.516  0.6691 -1.8954 -1.4392
  183SLPC   C3520964   5.091   7.374   2.616 -0.5566  0.0188 -0.1541
  183SLPC   H5X20965   5.000   7.329   2.573  0.2922 -1.2492 -0.6981
  183SLPC   H5Y20966   5.067   7.470   2.667 -0.5634  0.6581 -1.3215
  183SLPC   C3620967   5.174   7.276   2.699  0.0636 -0.7694  0.0809
  183SLPC   H6X20968   5.277   7.315   2.715 -0.3958  0.2979  0.5598
  183SLPC   H6Y20969   5.185   7.179   2.647 -0.4041 -1.6837  1.6219
  183SLPC   C3720970   5.109   7.255   2.828 -0.5974  0.1643  0.0308
  183SLPC   H7X20971   5.146   7.158   2.869  0.1549 -0.3040 -1.6411
  183SLPC   H7Y20972   5.000   7.245   2.807 -1.0332  0.0021  2.1395
  183SLPC   C3820973   5.139   7.370   2.931 -0.0797 -0.1191  0.4676
  183SLPC   H8X20974   5.086   7.464   2.904  0.2364 -0.0432  0.0868
  183SLPC   H8Y20975   5.250   7.382   2.937  0.1062 -1.4110  0.0124
  183SLPC   C3920976   5.096   7.320   3.067 -0.1811  0.6413 -0.2938
  183SLPC   H9X20977   5.157   7.232   3.096 -0.9363  0.5791  1.2161
  183SLPC   H9Y20978   4.993   7.278   3.062  0.4313 -0.8459 -0.7949
  183SLPC  C31020979   5.110   7.428   3.182 -0.1296  0.1485  0.2221
  183SLPC  H10X20980   5.038   7.509   3.158 -1.6093 -0.6829  1.6775
  183SLPC  H10Y20981   5.215   7.464   3.178 -0.4092  0.9986  0.4104
  183SLPC  C31120982   5.070   7.368   3.314 -0.4123  0.0089  0.0291
  183SLPC  H11X20983   5.122   7.280   3.358 -2.8754 -1.5093  0.1389
  183SLPC  H11Y20984   4.963   7.337   3.317 -0.0896 -1.3074 -1.2221
  183SLPC  C31220985   5.074   7.485   3.415 -0.1500 -0.0334  0.3273
  183SLPC  H12X20986   4.997   7.558   3.382 -1.3401 -1.0228  0.7871
  183SLPC  H12Y20987   5.174   7.532   3.412  0.4286 -1.2793 -2.2416
  183SLPC  C31320988   5.061   7.437   3.562 -0.0460  0.5638 -0.1166
  183SLPC  H13X20989   5.160   7.393   3.586  0.9170  3.6279  2.1573
  183SLPC  H13Y20990   4.986   7.355   3.569 -0.3787  0.4144 -3.6086
  183SLPC  C31420991   5.022   7.553   3.660  0.2968  0.4068  0.3951
  183SLPC  H14X20992   4.988   7.509   3.756 -1.1106  0.4136 -0.0755
  183SLPC  H14Y20993   4.934   7.613   3.627  0.3344 -0.3175 -1.0774
  183SLPC  C31520994   5.129   7.658   3.684 -0.3958 -0.8821 -0.4565
  183SLPC  H15X20995   5.142   7.712   3.587 -0.2159 -2.6069 -1.4308
  183SLPC  H15Y20996   5.221   7.613   3.727 -0.9951 -0.2244  1.6429
  183SLPC  C31620997   5.077   7.767   3.792 -0.3342  0.6473  0.4737
  183SLPC  H16X20998   5.055   7.724   3.892  1.7072  0.2263  0.7884
  183SLPC  H16Y20999   4.985   7.802   3.741 -0.1760 -2.1679 -2.0633
  183SLPC  C31721000   5.182   7.876   3.810  0.3292 -0.4999 -0.4238
  183SLPC  H17X21001   5.228   7.898   3.712  2.8037 -1.3345  0.4836
  183SLPC  H17Y21002   5.263   7.836   3.875  1.5476  0.5277 -1.2659
  183SLPC  C31821003   5.110   8.006   3.863  0.9061  0.1247  0.6745
  183SLPC  H18X21004   5.040   7.962   3.937  0.0433  1.7885  0.8881
  183SLPC  H18Y21005   5.060   8.062   3.781  3.8128  2.8572  0.5863
  183SLPC  H18Z21006   5.184   8.069   3.917 -0.4134  1.4224  1.0276
  184SLPC     N21007   0.427   4.662   2.261  0.1584 -0.2064 -0.5583
  184SLPC   C1321008   0.449   4.665   2.107  0.4657 -0.4089 -0.6523
  184SLPC  H13A21009   0.400   4.752   2.066  0.6666  1.1709  2.2030
  184SLPC  H13B21010   0.554   4.672   2.085  1.0702  0.0317  1.9891
  184SLPC  H13C21011   0.404   4.577   2.062 -0.3102 -1.1941  1.5012
  184SLPC   C1421012   0.519   4.561   2.310 -0.1509 -0.6529 -0.3519
  184SLPC  H14A21013   0.510   4.465   2.262 -0.0454 -0.0025 -1.7019
  184SLPC  H14B21014   0.624   4.581   2.301 -0.1944 -0.2940 -0.1115
  184SLPC  H14C21015   0.511   4.548   2.417  0.2106 -3.4609 -0.5905
  184SLPC   C1521016   0.289   4.625   2.298 -0.9524 -0.7439 -0.9357
  184SLPC  H15A21017   0.211   4.694   2.269 -1.4621  0.3355  2.5736
  184SLPC  H15B21018   0.265   4.526   2.261  1.2520 -1.1256 -1.5043
  184SLPC  H15C21019   0.279   4.604   2.404 -0.8359 -0.4022 -0.8555
  184SLPC   C1221020   0.459   4.807   2.305 -0.4563  0.0578  0.0781
  184SLPC  H12A21021   0.553   4.833   2.260 -1.7544  2.3097 -1.5667
  184SLPC  H12B21022   0.466   4.813   2.412  0.2088  0.5179  0.0152
  184SLPC   C1121023   0.354   4.912   2.248  0.8544  0.2916 -0.1120
  184SLPC  H11A21024   0.364   5.005   2.308 -1.2122  1.0320 -0.8341
  184SLPC  H11B21025   0.254   4.869   2.268  0.8593  0.4795  0.3182
  184SLPC     P21026   0.255   5.042   2.037 -0.0191  0.0779 -0.5714
  184SLPC   O1321027   0.294   5.056   1.896  0.3759  0.2091  0.4223
  184SLPC   O1421028   0.128   4.972   2.065  0.1665 -0.1021  0.2776
  184SLPC   O1221029   0.373   4.953   2.113 -0.0974 -0.4251 -0.1762
  184SLPC   O1121030   0.248   5.180   2.116  0.0544 -0.4437 -0.0626
  184SLPC    C121031   0.367   5.267   2.114 -0.8274  0.3513  0.1041
  184SLPC    HA21032   0.462   5.215   2.090 -0.3311  2.4375 -3.0719
  184SLPC    HB21033   0.357   5.348   2.038  3.0211  0.8595 -0.0433
  184SLPC    C221034   0.385   5.335   2.253  0.8155 -0.3411  0.2158
  184SLPC    HS21035   0.444   5.428   2.240  2.0560 -0.7981  2.0990
  184SLPC   O2121036   0.444   5.237   2.339 -0.1662 -0.6344 -0.4397
  184SLPC   C2121037   0.558   5.273   2.384 -0.0978  0.3200 -0.7108
  184SLPC   O2221038   0.616   5.381   2.384  0.0379 -0.2160  0.5636
  184SLPC   C2221039   0.629   5.154   2.450 -0.6088 -0.5906 -0.3466
  184SLPC   H2R21040   0.557   5.090   2.506  0.7546 -0.3705  1.7397
  184SLPC   H2S21041   0.682   5.098   2.370  0.8475  0.2840 -0.0233
  184SLPC    C321042   0.249   5.364   2.317 -0.0627 -0.2995  0.0919
  184SLPC    HX21043   0.195   5.268   2.330 -0.5475 -0.1906 -0.9732
  184SLPC    HY21044   0.203   5.438   2.249  0.7362  1.0371  0.9613
  184SLPC   O3121045   0.272   5.441   2.439  0.0748 -0.2759  0.0685
  184SLPC   C3121046   0.245   5.379   2.556  1.2295 -0.2976  0.0833
  184SLPC   O3221047   0.191   5.272   2.569  0.1759  0.3823 -0.0855
  184SLPC   C3221048   0.299   5.463   2.672  0.4078 -0.2561  0.3704
  184SLPC   H2X21049   0.298   5.571   2.645  0.3597  0.0865  1.6645
  184SLPC   H2Y21050   0.406   5.435   2.687  0.9746  2.1495  1.3821
  184SLPC   C2321051   0.727   5.215   2.554 -0.4632  0.4573  0.3776
  184SLPC   H3R21052   0.676   5.289   2.619 -0.2047 -1.3612  2.7714
  184SLPC   H3S21053   0.808   5.271   2.503 -0.6119  0.9511  0.6834
  184SLPC   C2421054   0.809   5.104   2.627 -0.0195  0.0307 -0.9125
  184SLPC   H4R21055   0.866   5.048   2.550 -0.4081  0.1186 -1.2708
  184SLPC   H4S21056   0.749   5.032   2.687  2.0052 -1.5711 -0.7174
  184SLPC   C2521057   0.906   5.163   2.725 -0.2874 -0.2716  0.2471
  184SLPC   H5R21058   0.845   5.215   2.802 -0.1618 -1.9687  1.5329
  184SLPC   H5S21059   0.959   5.243   2.669  0.5618 -0.6378  0.5082
  184SLPC   C2621060   1.009   5.066   2.782  0.1435 -0.0969 -0.0512
  184SLPC   H6R21061   1.101   5.122   2.812  0.9362 -1.8235  0.9077
  184SLPC   H6S21062   1.027   4.994   2.699 -1.0484  0.4444 -0.8022
  184SLPC   C2721063   0.955   5.001   2.910 -0.0591 -0.5005 -1.0440
  184SLPC   H7R21064   0.968   4.892   2.897  1.6983 -0.2635 -1.6238
  184SLPC   H7S21065   0.847   5.022   2.923  0.2684 -0.0546  1.4061
  184SLPC   C2821066   1.025   5.041   3.039 -0.4563  0.2386 -0.4993
  184SLPC   H8R21067   1.134   5.038   3.016 -0.1191 -1.1605  1.0528
  184SLPC   H8S21068   1.007   4.968   3.121  1.8775  0.7099  0.5345
  184SLPC   C2921069   0.996   5.179   3.099  0.7606  0.3290 -0.3147
  184SLPC   H9R21070   1.005   5.257   3.022 -2.4628  0.1356 -1.0464
  184SLPC  C21021071   0.982   5.211   3.230  0.4284 -0.4014 -0.2096
  184SLPC  H10R21072   0.965   5.316   3.259  1.0723 -0.4110  0.2183
  184SLPC  C21121073   0.987   5.111   3.347 -0.0911 -0.2617  0.4656
  184SLPC  H11R21074   1.079   5.137   3.404  0.5839 -1.0046 -0.2521
  184SLPC  H11S21075   1.009   5.009   3.311  1.2843  0.3862 -0.6479
  184SLPC  C21221076   0.856   5.113   3.429  0.3032 -1.0180  1.0034
  184SLPC  H12R21077   0.782   5.039   3.395 -0.7950  1.1196 -1.5994
  184SLPC  C21321078   0.841   5.174   3.541  1.1254  0.2814 -0.1102
  184SLPC  H13R21079   0.742   5.187   3.588 -0.8575  2.0384 -4.2673
  184SLPC  C21421080   0.941   5.267   3.597  0.4900  0.5090  0.4144
  184SLPC  H14R21081   0.907   5.370   3.623  2.8739  1.6847 -0.8398
  184SLPC  H14S21082   1.016   5.305   3.525 -0.0058  2.7783  0.9966
  184SLPC  C21521083   1.013   5.210   3.726  0.6681 -0.0603 -0.1922
  184SLPC  H15R21084   1.110   5.264   3.735 -0.1490  1.5808 -0.9815
  184SLPC  H15S21085   1.021   5.101   3.706 -2.3242 -0.4767  0.3731
  184SLPC  C21621086   0.914   5.203   3.855 -0.5779  0.1365 -0.1463
  184SLPC  H16R21087   0.826   5.137   3.839 -0.4696  0.5155 -2.6171
  184SLPC  H16S21088   0.870   5.305   3.861  3.0455  1.8911 -0.7282
  184SLPC  C21721089   0.987   5.160   3.985  0.1381 -0.0787 -0.7420
  184SLPC  H17R21090   0.929   5.195   4.074 -0.3222 -0.5130 -0.8725
  184SLPC  H17S21091   1.078   5.223   3.996 -1.7281  2.4959  1.5257
  184SLPC  C21821092   1.024   5.011   3.989  0.8122 -0.5980  0.2211
  184SLPC  H18R21093   1.056   4.992   3.884 -1.6597 -0.2184 -0.6687
  184SLPC  H18S21094   0.945   4.938   4.016  0.1424  0.6130  1.7086
  184SLPC  H18T21095   1.108   4.989   4.059 -0.2406  1.7295  2.3669
  184SLPC   C3321096   0.230   5.452   2.810 -0.8635  0.3323  0.1665
  184SLPC   H3X21097   0.278   5.535   2.866 -0.5041 -1.6373  2.9849
  184SLPC   H3Y21098   0.256   5.356   2.859 -2.0098 -0.0183  0.1226
  184SLPC   C3421099   0.080   5.473   2.802 -0.4245  0.6278 -0.6194
  184SLPC   H4X21100   0.038   5.382   2.754  1.1313  0.8210 -2.4495
  184SLPC   H4Y21101   0.053   5.557   2.734  1.7507  0.5590 -1.6356
  184SLPC   C3521102   0.006   5.490   2.940 -0.5014  0.6265 -0.4411
  184SLPC   H5X21103  -0.102   5.479   2.914 -0.6446  0.2377  0.2833
  184SLPC   H5Y21104   0.021   5.595   2.972  1.0663  0.1629  0.4584
  184SLPC   C3621105   0.048   5.394   3.046  0.5826  0.6431 -0.3451
  184SLPC   H6X21106   0.159   5.405   3.054  0.3432  5.0367 -1.0438
  184SLPC   H6Y21107   0.022   5.290   3.015 -1.5538  1.0659 -0.0773
  184SLPC   C3721108  -0.015   5.422   3.181 -0.6374  0.3723 -0.4746
  184SLPC   H7X21109  -0.123   5.407   3.201 -1.1039  2.5390 -1.1928
  184SLPC   H7Y21110   0.001   5.530   3.199 -0.6391  0.0378  1.8842
  184SLPC   C3821111   0.062   5.354   3.293 -0.3559 -0.0011  0.1372
  184SLPC   H8X21112   0.171   5.339   3.277 -0.6239 -0.4462 -1.4256
  184SLPC   H8Y21113   0.025   5.249   3.299 -2.3267  0.3826 -3.1098
  184SLPC   C3921114   0.035   5.425   3.433  0.3183 -0.4612 -0.4247
  184SLPC   H9X21115   0.082   5.525   3.426 -2.4818  1.1430  1.6788
  184SLPC   H9Y21116   0.074   5.376   3.524  0.8083  0.4718 -0.1225
  184SLPC  C31021117  -0.111   5.447   3.475  0.0091 -0.3321  0.4746
  184SLPC  H10X21118  -0.179   5.360   3.486  0.2308 -0.4621  0.8426
  184SLPC  H10Y21119  -0.163   5.504   3.395 -0.0175 -0.5128  0.3627
  184SLPC  C31121120  -0.126   5.526   3.608  0.1048  0.2340  0.0674
  184SLPC  H11X21121  -0.100   5.630   3.581 -0.3921  0.1161 -0.9192
  184SLPC  H11Y21122  -0.056   5.481   3.681  1.5587 -1.3232 -2.1332
  184SLPC  C31221123  -0.267   5.519   3.658 -0.3289  0.5653 -0.1272
  184SLPC  H12X21124  -0.287   5.411   3.679  1.2948  0.2533 -0.0671
  184SLPC  H12Y21125  -0.337   5.551   3.578  0.4752  0.9617 -0.6874
  184SLPC  C31321126  -0.305   5.592   3.783  0.0423  0.0162  0.4666
  184SLPC  H13X21127  -0.410   5.566   3.808  0.0386  0.5446  1.0447
  184SLPC  H13Y21128  -0.292   5.702   3.774 -0.3032  0.1388  1.3850
  184SLPC  C31421129  -0.226   5.556   3.908  0.8693  0.7080 -0.1179
  184SLPC  H14X21130  -0.126   5.603   3.893  0.6561  0.6690 -1.9146
  184SLPC  H14Y21131  -0.230   5.447   3.930  0.2778  0.6138 -0.6531
  184SLPC  C31521132  -0.289   5.636   4.026  0.1866 -0.5672 -0.2891
  184SLPC  H15X21133  -0.393   5.666   4.002  1.4059  2.4780 -2.5173
  184SLPC  H15Y21134  -0.224   5.726   4.041  0.8694 -1.3258  1.6628
  184SLPC  C31621135  -0.279   5.563   4.159  0.0832 -0.5504 -0.0573
  184SLPC  H16X21136  -0.330   5.465   4.160 -1.9386  0.4487  0.1045
  184SLPC  H16Y21137  -0.328   5.624   4.238  1.1202  0.6245 -0.2871
  184SLPC  C31721138  -0.129   5.547   4.193  0.3866  0.4544  0.6794
  184SLPC  H17X21139  -0.088   5.650   4.187  1.4967  0.0266  0.5795
  184SLPC  H17Y21140  -0.083   5.467   4.131 -2.6422  0.0047 -1.2081
  184SLPC  C31821141  -0.115   5.516   4.335 -0.0474  0.0302  0.1222
  184SLPC  H18X21142  -0.151   5.601   4.397  2.2685 -0.7932  2.8180
  184SLPC  H18Y21143  -0.007   5.500   4.358  1.2880  0.2600 -4.9246
  184SLPC  H18Z21144  -0.176   5.427   4.361 -2.0874  1.4331  0.3839
  185POPC     N21145   2.802   1.917   6.537 -0.0784  0.1823  0.0627
  185POPC   C1221146   2.730   1.854   6.415  0.3047  0.4546 -0.2752
  185POPC  H12A21147   2.682   1.761   6.441  2.5022 -0.6870 -0.0335
  185POPC  H12B21148   2.798   1.838   6.333  1.0456 -1.7198  0.6779
  185POPC   C1321149   2.862   2.046   6.488 -0.1386 -0.2971  0.2545
  185POPC  H13A21150   2.935   2.025   6.410  0.8406  0.3566  0.9630
  185POPC  H13B21151   2.791   2.116   6.448  0.8219  1.4740  1.4836
  185POPC  H13C21152   2.932   2.091   6.558  1.9314  1.2022 -2.5520
  185POPC   C1421153   2.701   1.943   6.648 -0.1423 -0.5245 -0.2839
  185POPC  H14A21154   2.758   1.973   6.735  0.9971 -2.2130 -0.4169
  185POPC  H14B21155   2.628   2.018   6.621 -1.6231 -1.6370  0.4432
  185POPC  H14C21156   2.648   1.855   6.683  0.4937 -0.0979  1.9688
  185POPC   C1521157   2.916   1.839   6.590  0.2377 -0.2371  0.0752
  185POPC  H15A21158   2.876   1.744   6.624  0.7002  0.0555  1.5042
  185POPC  H15B21159   2.969   1.895   6.665 -0.4067  2.0501 -1.0915
  185POPC  H15C21160   2.990   1.817   6.515 -1.3478  0.7588 -1.8748
  185POPC   C1121161   2.613   1.938   6.339 -0.3191  0.3956 -0.3682
  185POPC  H11A21162   2.576   1.883   6.250 -2.9659  0.5542  0.5663
  185POPC  H11B21163   2.656   2.031   6.296 -1.4028 -0.3323 -3.2561
  185POPC     P21164   2.399   1.863   6.467  0.6360 -0.0422 -0.3087
  185POPC   O1321165   2.295   1.921   6.550  0.6759 -0.1543 -0.0656
  185POPC   O1421166   2.467   1.746   6.526 -0.3607  0.1790  0.3608
  185POPC   O1221167   2.501   1.968   6.427 -0.5734  0.0380 -0.1940
  185POPC   O1121168   2.339   1.827   6.326  0.1624  0.4347  0.3107
  185POPC    C121169   2.279   1.699   6.298 -0.4435 -0.6580  0.1044
  185POPC    HA21170   2.203   1.706   6.218 -2.1424 -0.4160  1.6867
  185POPC    HB21171   2.215   1.652   6.375 -0.3667  0.4650  0.8748
  185POPC    C221172   2.373   1.592   6.241 -0.4134 -0.0377  0.1941
  185POPC    HS21173   2.452   1.576   6.317 -1.3005 -0.9042  0.9706
  185POPC   O2121174   2.438   1.638   6.120 -0.3241 -0.1984 -0.7364
  185POPC   C2121175   2.548   1.573   6.080  0.0737  0.2888  0.3935
  185POPC   O2221176   2.610   1.496   6.149  0.5367  0.0352  0.5614
  185POPC   C2221177   2.587   1.630   5.944  0.5795 -0.0412 -0.0573
  185POPC   H2R21178   2.634   1.727   5.973  0.7716 -0.6092  1.6006
  185POPC   H2S21179   2.490   1.651   5.895  1.1419  0.8336 -0.8486
  185POPC    C321180   2.296   1.459   6.225 -0.2649  0.0748 -0.5059
  185POPC    HX21181   2.255   1.427   6.323 -1.7282  1.5625 -0.5919
  185POPC    HY21182   2.372   1.388   6.186  0.5157  0.0434  1.0228
  185POPC   O3121183   2.181   1.482   6.140 -0.3587 -0.5182  0.0773
  185POPC   C3121184   2.193   1.431   6.021 -0.2166  0.1025  0.4097
  185POPC   O3221185   2.287   1.368   5.977 -0.6629 -0.0217  0.4947
  185POPC   C3221186   2.067   1.473   5.941  0.4441  0.1055 -0.4887
  185POPC   H2X21187   2.061   1.583   5.929 -0.0435  0.0555 -0.7129
  185POPC   H2Y21188   1.977   1.432   5.991  0.7409 -0.9738 -0.7974
  185POPC   C2321189   2.670   1.539   5.859 -0.1518 -0.7995  0.3020
  185POPC   H3R21190   2.735   1.481   5.928  1.7657 -0.2135 -0.9333
  185POPC   H3S21191   2.741   1.608   5.810  1.1040 -0.8699  1.9168
  185POPC   C2421192   2.607   1.448   5.752  0.2313  0.4416 -0.1215
  185POPC   H4R21193   2.521   1.406   5.808 -1.2252 -0.3803 -2.8051
  185POPC   H4S21194   2.677   1.369   5.718  0.1805  0.7610 -0.9864
  185POPC   C2521195   2.550   1.531   5.625 -0.2038 -0.2890 -0.0498
  185POPC   H5R21196   2.490   1.615   5.666 -0.1509  0.0379 -0.6280
  185POPC   H5S21197   2.475   1.461   5.583 -1.4583 -0.0779  1.7404
  185POPC   C2621198   2.647   1.594   5.528 -0.2422  0.3266  0.6282
  185POPC   H6R21199   2.728   1.636   5.591  0.6507  0.7741 -0.7912
  185POPC   H6S21200   2.613   1.685   5.474 -0.3410 -0.1337 -0.0919
  185POPC   C2721201   2.699   1.502   5.416  0.3565 -1.0544  0.0560
  185POPC   H7R21202   2.757   1.416   5.456  0.4820 -1.1162 -0.2621
  185POPC   H7S21203   2.777   1.570   5.377 -0.5879  0.3993  0.6303
  185POPC   C2821204   2.586   1.453   5.320  0.1127  0.0293 -0.1177
  185POPC   H8R21205   2.521   1.540   5.298 -1.2112 -1.0635 -0.6689
  185POPC   H8S21206   2.528   1.374   5.372  1.3900 -2.7370 -2.5775
  185POPC   C2921207   2.643   1.381   5.199  0.3072 -0.5779 -0.3592
  185POPC   H9121208   2.682   1.281   5.220 -0.2842 -0.2615  2.7282
  185POPC  C21021209   2.652   1.433   5.076  0.0223 -0.2522 -0.1085
  185POPC  H10121210   2.705   1.372   5.000  2.2805  0.9510  0.3941
  185POPC  C21121211   2.615   1.570   5.029  0.4828 -0.1162 -0.2535
  185POPC  H11R21212   2.709   1.625   5.005  0.4345 -0.1869 -0.6080
  185POPC  H11S21213   2.561   1.627   5.108  1.7482 -1.0787  1.3814
  185POPC  C21221214   2.546   1.566   4.891 -0.4840  0.1210  0.2995
  185POPC  H12R21215   2.439   1.546   4.911 -0.3922 -2.1795 -1.1183
  185POPC  H12S21216   2.604   1.496   4.827 -0.6888  0.5333 -0.3553
  185POPC  C21321217   2.568   1.702   4.836 -0.9063  0.0924  0.3110
  185POPC  H13R21218   2.676   1.710   4.811 -1.0825 -0.7442 -0.7840
  185POPC  H13S21219   2.548   1.781   4.911 -1.2136  1.1071 -0.7986
  185POPC  C21421220   2.489   1.735   4.710  0.7187 -0.4446  0.2692
  185POPC  H14R21221   2.498   1.841   4.679  0.8684 -0.3105  0.7766
  185POPC  H14S21222   2.380   1.729   4.729  0.1584 -0.4383 -2.5194
  185POPC  C21521223   2.520   1.636   4.589  0.6197 -0.4717  0.2493
  185POPC  H15R21224   2.467   1.543   4.619 -1.8698  0.6275 -0.4829
  185POPC  H15S21225   2.631   1.635   4.588  0.9535  5.1818 -0.4247
  185POPC  C21621226   2.466   1.684   4.454 -0.6222  0.3141  0.7927
  185POPC  H16R21227   2.359   1.713   4.460 -1.3896 -2.2327  0.8768
  185POPC  H16S21228   2.467   1.594   4.389 -2.0051 -0.7702  2.2063
  185POPC  C21721229   2.544   1.809   4.393 -0.2371  0.1242  0.1755
  185POPC  H17R21230   2.644   1.776   4.357 -0.4976  0.0502 -0.5001
  185POPC  H17S21231   2.566   1.883   4.472  0.1886  0.3783 -0.1813
  185POPC  C21821232   2.466   1.871   4.280 -0.4953  0.0098 -0.3389
  185POPC  H18R21233   2.440   1.792   4.206  0.6120 -0.3321 -0.3772
  185POPC  H18S21234   2.522   1.954   4.232  2.5585 -1.6135  0.1858
  185POPC  H18T21235   2.369   1.905   4.323 -1.0119 -0.8578 -0.7859
  185POPC   C3321236   2.059   1.408   5.803 -0.2610 -0.1125 -0.2129
  185POPC   H3X21237   2.068   1.297   5.813 -1.4424 -0.1886  0.2645
  185POPC   H3Y21238   2.148   1.438   5.745 -0.4993  2.0590  0.4702
  185POPC   C3421239   1.940   1.456   5.725  0.2355 -0.4179 -0.4710
  185POPC   H4X21240   1.968   1.560   5.697 -1.0280 -0.0951 -0.6237
  185POPC   H4Y21241   1.854   1.455   5.797  0.3864  0.2455 -0.2750
  185POPC   C3521242   1.920   1.371   5.593 -0.0190 -0.4631  0.3953
  185POPC   H5X21243   1.814   1.395   5.573  0.0272  0.1076  0.8127
  185POPC   H5Y21244   1.921   1.261   5.609  2.4471 -0.7448 -1.1266
  185POPC   C3621245   2.015   1.413   5.479  0.0633 -0.5141  0.3647
  185POPC   H6X21246   2.122   1.386   5.495 -0.1741 -0.4598  2.2464
  185POPC   H6Y21247   2.019   1.524   5.474  0.5278 -0.4685  1.4638
  185POPC   C3721248   1.975   1.362   5.343  0.3493  0.1520 -0.2937
  185POPC   H7X21249   1.865   1.376   5.329  0.5853  0.4297 -2.0417
  185POPC   H7Y21250   2.001   1.255   5.356 -1.4327 -0.4694 -1.4571
  185POPC   C3821251   2.053   1.425   5.227 -0.3821  0.1081 -0.1067
  185POPC   H8X21252   2.161   1.404   5.237 -0.2822 -0.0869 -1.4330
  185POPC   H8Y21253   2.021   1.532   5.220 -4.0173 -0.6916  1.9001
  185POPC   C3921254   2.010   1.369   5.088  0.4119  0.3988 -0.0904
  185POPC   H9X21255   1.900   1.355   5.097  0.7245 -1.5939  1.5024
  185POPC   H9Y21256   2.048   1.265   5.076 -0.3879  0.3253 -2.4779
  185POPC  C31021257   2.053   1.462   4.975  0.3119 -0.5748  0.1848
  185POPC  H10X21258   2.160   1.488   4.989  0.0342  0.7549  0.0245
  185POPC  H10Y21259   1.999   1.559   4.979  0.9561 -0.2414  1.2254
  185POPC  C31121260   2.047   1.379   4.848  0.2618 -0.2978 -0.3429
  185POPC  H11X21261   1.946   1.337   4.829  0.3654 -0.5382 -0.3661
  185POPC  H11Y21262   2.120   1.297   4.860 -1.1071 -1.8234 -1.9538
  185POPC  C31221263   2.089   1.461   4.724 -0.3275  0.2256  0.4980
  185POPC  H12X21264   2.197   1.480   4.741 -0.2500 -1.2722  1.9179
  185POPC  H12Y21265   2.032   1.556   4.717 -0.2438  0.2019 -0.6394
  185POPC  C31321266   2.075   1.375   4.598 -0.4623  0.1297  0.6147
  185POPC  H13X21267   1.969   1.354   4.573 -0.2992  1.3054 -1.3124
  185POPC  H13Y21268   2.116   1.276   4.625  0.6832  0.1295 -0.9749
  185POPC  C31421269   2.152   1.427   4.476 -0.4081 -0.4479  0.0300
  185POPC  H14X21270   2.262   1.411   4.483 -0.4573 -2.0845 -2.0835
  185POPC  H14Y21271   2.133   1.537   4.474  0.3039 -0.3222 -0.0654
  185POPC  C31521272   2.111   1.377   4.344 -0.1164 -0.3323 -0.1812
  185POPC  H15X21273   2.000   1.381   4.344 -0.1148 -0.2966  0.2095
  185POPC  H15Y21274   2.144   1.271   4.335 -0.2790 -0.5046  1.0442
  185POPC  C31621275   2.170   1.462   4.227  0.5171 -0.1432  0.1477
  185POPC  H16X21276   2.115   1.424   4.138 -1.1915  1.7544  0.3195
  185POPC  H16Y21277   2.281   1.459   4.231  0.4721 -0.7486  2.7099
  185POPC  H16Z21278   2.143   1.569   4.236 -1.7134 -0.7219  1.2897
  186POPC     N21279   3.931   4.971   6.815  0.5573  0.5618 -0.1832
  186POPC   C1221280   3.920   5.083   6.719 -0.5611 -0.8083  1.0490
  186POPC  H12A21281   3.823   5.128   6.710 -0.9789 -1.8783 -0.1420
  186POPC  H12B21282   3.937   5.046   6.619 -0.9255  0.2861  0.5686
  186POPC   C1321283   3.923   5.018   6.956 -0.5688  0.4737 -0.2490
  186POPC  H13A21284   4.012   5.068   6.991 -0.5281  2.3025 -2.6653
  186POPC  H13B21285   3.857   5.101   6.976  3.3300  3.6190  0.7688
  186POPC  H13C21286   3.904   4.938   7.026  0.3769  0.0465 -0.4661
  186POPC   C1421287   3.828   4.864   6.788  0.4740 -0.0978 -0.6331
  186POPC  H14A21288   3.821   4.851   6.681  0.8495  2.5311 -1.0472
  186POPC  H14B21289   3.854   4.774   6.841  0.2627  1.6351  2.6196
  186POPC  H14C21290   3.731   4.891   6.827  1.2926 -0.3067  1.7073
  186POPC   C1521291   4.063   4.900   6.811 -0.2122 -0.1161  0.2253
  186POPC  H15A21292   4.079   4.869   6.709  0.5203  2.0370 -0.3587
  186POPC  H15B21293   4.059   4.810   6.870 -0.6259 -0.7461 -0.7422
  186POPC  H15C21294   4.141   4.971   6.836 -0.4919 -0.4242  2.1304
  186POPC   C1121295   4.020   5.198   6.732  0.9057  0.0891 -1.1063
  186POPC  H11A21296   4.002   5.232   6.836 -0.1377 -0.9302 -0.9314
  186POPC  H11B21297   3.984   5.287   6.677 -0.7167 -0.3146 -0.7395
  186POPC     P21298   4.228   5.127   6.578  0.2354  0.3524 -0.2054
  186POPC   O1321299   4.304   5.000   6.596  0.1958 -0.0832 -0.3574
  186POPC   O1421300   4.305   5.242   6.535  0.1843 -0.1577 -0.7660
  186POPC   O1221301   4.155   5.153   6.715 -0.3271 -0.6747 -0.6108
  186POPC   O1121302   4.109   5.090   6.479  0.4047 -0.4625  0.4071
  186POPC    C121303   4.128   5.095   6.336 -0.4470  1.3278 -0.1139
  186POPC    HA21304   4.093   4.995   6.302 -0.5030  1.9006 -1.8136
  186POPC    HB21305   4.232   5.120   6.308 -0.1227  1.0699  0.8192
  186POPC    C221306   4.033   5.192   6.267  1.0448 -0.5184  0.4524
  186POPC    HS21307   3.937   5.195   6.322  0.6973  2.3582 -0.1508
  186POPC   O2121308   3.997   5.139   6.133 -0.0076  0.0131 -0.4884
  186POPC   C2121309   3.900   5.206   6.072 -0.7578 -0.3666 -0.6323
  186POPC   O2221310   3.838   5.295   6.125  0.0300  0.6366  0.2632
  186POPC   C2221311   3.889   5.151   5.933  0.3562  0.2546  0.8244
  186POPC   H2R21312   3.858   5.045   5.926  3.0411 -0.5297 -0.3680
  186POPC   H2S21313   3.982   5.166   5.874  0.1165  0.0444  0.3825
  186POPC    C321314   4.090   5.334   6.278 -1.0093  0.4959 -0.0943
  186POPC    HX21315   4.097   5.359   6.386 -2.0972  2.1486 -0.3553
  186POPC    HY21316   4.028   5.409   6.223  1.0179  1.6216 -0.9820
  186POPC   O3121317   4.218   5.342   6.212 -0.0546  0.0968  0.1759
  186POPC   C3121318   4.312   5.420   6.272  0.2468 -0.4497  0.0021
  186POPC   O3221319   4.291   5.510   6.348  0.3379 -0.2469 -0.3416
  186POPC   C3221320   4.449   5.374   6.221  0.6299  0.5437 -0.1939
  186POPC   H2X21321   4.447   5.270   6.182  1.9353  0.8054 -1.0259
  186POPC   H2Y21322   4.517   5.377   6.308 -0.8703 -2.8865  1.2665
  186POPC   C2321323   3.784   5.220   5.849 -0.6560  0.0795 -0.1992
  186POPC   H3R21324   3.810   5.328   5.853  0.9164 -0.2738 -0.1686
  186POPC   H3S21325   3.680   5.200   5.883 -1.2814 -2.3469 -3.1164
  186POPC   C2421326   3.786   5.178   5.708  0.0779 -0.0427  0.4391
  186POPC   H4R21327   3.783   5.067   5.705 -3.4746 -0.0740  0.4584
  186POPC   H4S21328   3.877   5.213   5.655 -0.9031 -0.3688 -1.5760
  186POPC   C2521329   3.663   5.211   5.626  0.3553 -0.1299 -0.1864
  186POPC   H5R21330   3.574   5.149   5.651 -0.1208  0.9314  0.8751
  186POPC   H5S21331   3.692   5.170   5.527  1.0527  0.3934 -0.2043
  186POPC   C2621332   3.628   5.360   5.620 -0.5448  0.7708 -0.4805
  186POPC   H6R21333   3.573   5.393   5.711 -0.9066  0.0062 -0.4110
  186POPC   H6S21334   3.560   5.361   5.532 -1.7499 -0.2813  0.3951
  186POPC   C2721335   3.756   5.446   5.583  0.2758 -0.0597 -0.5054
  186POPC   H7R21336   3.811   5.385   5.508 -0.6703  0.7990 -1.9475
  186POPC   H7S21337   3.820   5.460   5.673  1.1058 -1.7419 -0.7801
  186POPC   C2821338   3.714   5.584   5.532  0.4539  0.1164 -0.1742
  186POPC   H8R21339   3.642   5.631   5.602  1.0981  0.0210  0.5676
  186POPC   H8S21340   3.649   5.578   5.442 -1.3016 -0.6603  1.0730
  186POPC   C2921341   3.831   5.672   5.509 -0.3949  0.0089  0.0615
  186POPC   H9121342   3.869   5.733   5.592 -1.3165  1.8603 -0.8411
  186POPC  C21021343   3.880   5.700   5.386 -0.0376 -0.4191 -0.1590
  186POPC  H10121344   3.976   5.751   5.370  0.0735 -0.2140  1.0572
  186POPC  C21121345   3.822   5.650   5.255 -0.3421  0.3068  0.0725
  186POPC  H11R21346   3.723   5.698   5.241  0.3997  1.4973 -1.3639
  186POPC  H11S21347   3.812   5.541   5.237 -0.8291  0.1205  1.3820
  186POPC  C21221348   3.900   5.688   5.130 -0.1989 -0.1952 -0.6379
  186POPC  H12R21349   3.992   5.626   5.138 -1.0478 -1.4774 -0.4985
  186POPC  H12S21350   3.917   5.798   5.130 -0.7503 -0.0748 -3.0307
  186POPC  C21321351   3.827   5.631   5.001 -0.1986 -0.2989 -0.1524
  186POPC  H13R21352   3.746   5.707   4.997 -0.0754 -0.0435  1.6173
  186POPC  H13S21353   3.779   5.533   5.020 -0.2570 -0.3905 -0.7461
  186POPC  C21421354   3.908   5.631   4.873 -0.2014  0.4294  0.1800
  186POPC  H14R21355   3.999   5.569   4.888  0.1585  1.1822  1.2799
  186POPC  H14S21356   3.952   5.732   4.862  1.1478 -0.1541  0.0198
  186POPC  C21521357   3.831   5.586   4.748 -0.4506  0.2084  0.3293
  186POPC  H15R21358   3.740   5.649   4.739 -1.0576 -0.5356  1.0874
  186POPC  H15S21359   3.795   5.484   4.775  1.0642 -0.2807  0.5983
  186POPC  C21621360   3.927   5.560   4.623  0.5430 -0.2726 -0.5299
  186POPC  H16R21361   3.910   5.456   4.589  1.4413  0.4588 -3.5013
  186POPC  H16S21362   4.035   5.573   4.645  0.3441  0.8950 -0.1184
  186POPC  C21721363   3.905   5.649   4.499 -0.1306 -0.2668 -0.1424
  186POPC  H17R21364   3.984   5.631   4.423  0.8090  0.1730  0.7114
  186POPC  H17S21365   3.927   5.754   4.527  0.4238 -0.9876  2.4103
  186POPC  C21821366   3.759   5.642   4.444 -0.1022 -0.3271  0.0041
  186POPC  H18R21367   3.745   5.724   4.370 -2.1536  0.7465  1.4770
  186POPC  H18S21368   3.702   5.675   4.533 -0.3074 -1.4612  0.3065
  186POPC  H18T21369   3.725   5.544   4.406 -0.5797 -0.0992 -0.1600
  186POPC   C3321370   4.505   5.462   6.107 -0.4893  0.2631 -0.0804
  186POPC   H3X21371   4.504   5.569   6.136  3.3515  0.4597 -0.2452
  186POPC   H3Y21372   4.438   5.454   6.018 -0.1195 -1.5728 -0.2306
  186POPC   C3421373   4.652   5.440   6.090 -0.4449 -0.1263  0.5276
  186POPC   H4X21374   4.668   5.333   6.064 -0.1568  0.2628 -0.9778
  186POPC   H4Y21375   4.702   5.458   6.188  0.1654 -2.4645  0.7117
  186POPC   C3521376   4.717   5.539   5.992 -0.2842  0.2623  0.1586
  186POPC   H5X21377   4.822   5.547   6.025  0.2464 -2.8083 -0.4586
  186POPC   H5Y21378   4.680   5.642   6.010  0.0273  0.0086  2.5669
  186POPC   C3621379   4.709   5.503   5.841  0.7711  0.3398  0.4371
  186POPC   H6X21380   4.601   5.488   5.824  0.7631  1.4591 -0.6349
  186POPC   H6Y21381   4.762   5.408   5.820 -0.5633 -0.9478  2.5043
  186POPC   C3721382   4.754   5.618   5.743 -0.0703  0.8608 -0.0801
  186POPC   H7X21383   4.863   5.636   5.755 -0.4294  2.6191  1.1159
  186POPC   H7Y21384   4.691   5.704   5.777 -1.9300 -0.1923 -0.7427
  186POPC   C3821385   4.717   5.587   5.599 -0.5428  0.4529 -0.4409
  186POPC   H8X21386   4.606   5.576   5.598 -0.5221 -0.5039  2.1842
  186POPC   H8Y21387   4.750   5.487   5.563  1.3748  0.5791  0.8276
  186POPC   C3921388   4.778   5.679   5.495 -0.0553  0.6652 -0.2710
  186POPC   H9X21389   4.880   5.705   5.532 -0.5485  0.9492  0.9248
  186POPC   H9Y21390   4.713   5.768   5.503  0.3640  0.9992 -0.5108
  186POPC  C31021391   4.761   5.628   5.356  0.1435  0.4441 -0.4419
  186POPC  H10X21392   4.652   5.614   5.341 -0.2967 -0.7005  3.0482
  186POPC  H10Y21393   4.812   5.529   5.347  0.8792  0.6478  1.1837
  186POPC  C31121394   4.808   5.731   5.258  0.5232 -1.0624  0.0558
  186POPC  H11X21395   4.918   5.737   5.257  0.4552  0.5217 -0.3657
  186POPC  H11Y21396   4.772   5.833   5.284 -0.5309 -1.2731 -0.5164
  186POPC  C31221397   4.774   5.696   5.110  0.4969 -0.3205 -0.1369
  186POPC  H12X21398   4.664   5.680   5.104  0.3220  1.2343 -1.9007
  186POPC  H12Y21399   4.814   5.596   5.083  1.9907  0.1367  0.3204
  186POPC  C31321400   4.820   5.815   5.025 -0.4091  0.4959  0.7169
  186POPC  H13X21401   4.929   5.837   5.032  0.2158 -1.7314 -0.9293
  186POPC  H13Y21402   4.775   5.912   5.055 -0.5171  0.6532  0.0499
  186POPC  C31421403   4.806   5.778   4.874  0.0598  0.3886 -0.0531
  186POPC  H14X21404   4.715   5.716   4.859 -0.5524  1.2468  0.0114
  186POPC  H14Y21405   4.896   5.718   4.849 -1.5513 -1.5064 -1.6247
  186POPC  C31521406   4.819   5.892   4.781 -0.6290 -0.9397  0.2269
  186POPC  H15X21407   4.922   5.932   4.794 -0.0520 -0.8775 -3.5023
  186POPC  H15Y21408   4.737   5.964   4.803 -0.9924 -1.3903  0.3608
  186POPC  C31621409   4.805   5.832   4.636  0.1303 -0.6744 -0.2815
  186POPC  H16X21410   4.906   5.794   4.609  1.6748  1.2010  2.2884
  186POPC  H16Y21411   4.766   5.909   4.568 -0.5091 -0.0091  0.8072
  186POPC  H16Z21412   4.735   5.747   4.652  0.5147 -0.5623  2.6351
  187POPC     N21413   6.021   0.156   2.109  0.1009 -0.7360 -0.2645
  187POPC   C1221414   6.118   0.089   2.202  0.0870  0.8810  0.1190
  187POPC  H12A21415   6.079   0.094   2.303  0.9508 -0.8413  0.5823
  187POPC  H12B21416   6.207   0.149   2.196 -0.0876  1.0123 -1.6892
  187POPC   C1321417   5.999   0.298   2.154 -0.0569 -0.9518 -0.6142
  187POPC  H13A21418   5.942   0.297   2.245  2.5337 -0.5696  1.1126
  187POPC  H13B21419   6.089   0.358   2.164 -1.8387  2.3890 -2.5588
  187POPC  H13C21420   5.934   0.348   2.084 -3.0214 -0.6072  2.1772
  187POPC   C1421421   6.081   0.156   1.971 -0.2035 -0.6636  0.5230
  187POPC  H14A21422   6.133   0.064   1.947 -0.1781 -0.4285 -0.3190
  187POPC  H14B21423   6.013   0.172   1.890  0.0173 -2.5109 -0.0570
  187POPC  H14C21424   6.168   0.221   1.964  0.7373 -1.8913  0.4362
  187POPC   C1521425   5.897   0.074   2.107 -0.4673  0.3815 -0.4062
  187POPC  H15A21426   5.918  -0.023   2.064  1.2476  1.4920 -2.3128
  187POPC  H15B21427   5.821   0.123   2.048  0.5871  1.6585 -0.7454
  187POPC  H15C21428   5.853   0.053   2.203  0.4695  1.2159  0.2405
  187POPC   C1121429   6.176  -0.049   2.174 -0.0062  0.3074  0.6781
  187POPC  H11A21430   6.250  -0.068   2.254  0.7482  3.6665  0.9380
  187POPC  H11B21431   6.230  -0.068   2.080 -0.5696 -1.2802  0.6549
  187POPC     P21432   6.081  -0.295   2.190  0.2397  0.1895 -0.2576
  187POPC   O1321433   6.215  -0.333   2.240  0.5463  0.1073  0.3001
  187POPC   O1421434   6.036  -0.351   2.059 -0.3258  0.1477 -0.0626
  187POPC   O1221435   6.070  -0.143   2.184 -0.3533  0.1562  0.3800
  187POPC   O1121436   5.980  -0.341   2.300  0.3474  0.4771 -0.2858
  187POPC    C121437   5.949  -0.262   2.419 -1.0420  0.8476 -0.5693
  187POPC    HA21438   5.846  -0.223   2.408 -0.3200  3.3548  0.7536
  187POPC    HB21439   6.008  -0.168   2.423 -0.9411  0.8164 -1.2330
  187POPC    C221440   5.953  -0.349   2.548 -0.4816  0.2532  0.3176
  187POPC    HS21441   5.935  -0.290   2.640 -2.4382  0.6400 -0.2620
  187POPC   O2121442   6.073  -0.427   2.558 -0.3043 -0.0671 -0.0501
  187POPC   C2121443   6.192  -0.359   2.549  0.2020 -0.1733  0.3268
  187POPC   O2221444   6.205  -0.240   2.549 -0.0853  0.3421 -0.8003
  187POPC   C2221445   6.307  -0.453   2.540 -0.2905  0.2415  0.9358
  187POPC   H2R21446   6.401  -0.395   2.532  0.7618 -1.5665 -0.8805
  187POPC   H2S21447   6.309  -0.503   2.440  1.9578 -0.8886  1.4876
  187POPC    C321448   5.841  -0.457   2.542  0.3909  0.7570  0.4073
  187POPC    HX21449   5.837  -0.501   2.440 -2.4236 -3.7498  2.1377
  187POPC    HY21450   5.738  -0.416   2.532  0.3083  0.1370 -2.0091
  187POPC   O3121451   5.865  -0.567   2.637 -0.0991 -0.2890  0.1022
  187POPC   C3121452   5.820  -0.550   2.759 -0.7105 -0.1193  0.8911
  187POPC   O3221453   5.770  -0.441   2.797 -0.3252  0.4734  0.4345
  187POPC   C3221454   5.877  -0.667   2.844 -0.8172 -0.6237  0.1811
  187POPC   H2X21455   5.983  -0.681   2.815 -1.1145 -2.0497 -0.3271
  187POPC   H2Y21456   5.814  -0.754   2.815 -2.4872 -0.3482  2.6380
  187POPC   C2321457   6.308  -0.546   2.662 -0.1366  0.3688  0.2261
  187POPC   H3R21458   6.389  -0.620   2.645 -0.4284  0.2685 -0.8108
  187POPC   H3S21459   6.211  -0.599   2.656 -0.8134  1.7191 -1.9957
  187POPC   C2421460   6.319  -0.483   2.802  0.1412 -0.3116  0.2194
  187POPC   H4R21461   6.218  -0.443   2.828  0.0556 -0.7345  0.5352
  187POPC   H4S21462   6.386  -0.395   2.788 -1.2295  0.7730  0.2925
  187POPC   C2521463   6.383  -0.581   2.901  0.3408 -0.1588  0.6035
  187POPC   H5R21464   6.485  -0.604   2.866 -0.4646 -2.1006 -0.6575
  187POPC   H5S21465   6.336  -0.681   2.912  1.8503 -0.7738  1.8515
  187POPC   C2621466   6.389  -0.514   3.044  0.4453  1.1490  0.6924
  187POPC   H6R21467   6.287  -0.484   3.075 -0.5786 -0.9065 -0.4221
  187POPC   H6S21468   6.456  -0.425   3.041  2.8558 -0.5628 -0.7024
  187POPC   C2721469   6.456  -0.609   3.144 -0.3254 -0.1721 -0.7504
  187POPC   H7R21470   6.420  -0.710   3.114 -0.2866 -0.6127  0.6221
  187POPC   H7S21471   6.422  -0.573   3.244 -0.1302  2.3443 -1.5109
  187POPC   C2821472   6.612  -0.617   3.151  0.0150 -0.3624 -0.6625
  187POPC   H8R21473   6.661  -0.625   3.051  0.7459  0.0035 -0.3406
  187POPC   H8S21474   6.645  -0.715   3.190 -1.4963 -0.5865  0.1215
  187POPC   C2921475   6.677  -0.508   3.229 -0.6146  0.7826 -0.0934
  187POPC   H9121476   6.654  -0.408   3.190  1.4991  0.6531 -1.8611
  187POPC  C21021477   6.734  -0.521   3.354 -0.2284  0.9811 -0.0640
  187POPC  H10121478   6.776  -0.429   3.397 -1.3442  1.8161 -0.6994
  187POPC  C21121479   6.745  -0.650   3.431 -0.4655 -0.9108 -0.4783
  187POPC  H11R21480   6.842  -0.701   3.409 -0.0138 -1.2918  2.0766
  187POPC  H11S21481   6.664  -0.723   3.410 -2.6242  1.6463 -1.5512
  187POPC  C21221482   6.736  -0.608   3.583 -0.3813  0.0886 -0.2572
  187POPC  H12R21483   6.647  -0.551   3.616  0.6290  1.4612  0.2248
  187POPC  H12S21484   6.829  -0.548   3.597  0.4025 -0.5041 -2.4590
  187POPC  C21321485   6.735  -0.732   3.674 -0.5837  1.1767  0.1086
  187POPC  H13R21486   6.651  -0.797   3.640  0.9472 -0.5610 -0.5594
  187POPC  H13S21487   6.715  -0.710   3.781  0.6191 -1.0519  0.8609
  187POPC  C21421488   6.851  -0.835   3.662  0.1720 -0.5099 -1.1735
  187POPC  H14R21489   6.949  -0.782   3.661 -0.6350  1.1016 -2.9076
  187POPC  H14S21490   6.857  -0.875   3.558  2.8376 -1.4524 -0.7323
  187POPC  C21521491   6.839  -0.951   3.755 -0.1642 -0.1586  0.2569
  187POPC  H15R21492   6.748  -1.008   3.728 -0.3408  0.7430 -1.1377
  187POPC  H15S21493   6.828  -0.920   3.861 -0.1132  0.6918  0.0153
  187POPC  C21621494   6.961  -1.040   3.761 -0.6349  0.4640  0.1438
  187POPC  H16R21495   7.051  -0.974   3.765 -1.1859  1.2124  0.4090
  187POPC  H16S21496   6.984  -1.081   3.661  1.3721 -0.8260  1.0670
  187POPC  C21721497   6.969  -1.146   3.869 -0.2166  0.2185 -0.2406
  187POPC  H17R21498   7.065  -1.201   3.852  1.0220  2.1131  0.3505
  187POPC  H17S21499   6.885  -1.218   3.863 -0.2074  0.2149 -0.3274
  187POPC  C21821500   6.965  -1.103   4.016 -0.5484  0.7906 -0.7583
  187POPC  H18R21501   6.990  -1.188   4.084 -2.4948  2.2599  1.9926
  187POPC  H18S21502   6.862  -1.065   4.028 -0.9512 -0.2433 -0.7953
  187POPC  H18T21503   7.046  -1.036   4.050  2.0718 -3.0169  1.3662
  187POPC   C3321504   5.871  -0.619   2.992  0.0780  0.0303  0.6028
  187POPC   H3X21505   5.771  -0.588   3.029 -0.5405 -0.7921 -0.3218
  187POPC   H3Y21506   5.932  -0.526   3.005 -0.3010  0.2794  0.6112
  187POPC   C3421507   5.914  -0.737   3.080  0.1183  0.3279  0.0282
  187POPC   H4X21508   5.897  -0.835   3.030 -0.8924  0.2987  0.4103
  187POPC   H4Y21509   5.835  -0.733   3.157 -0.1426  2.6238 -0.3010
  187POPC   C3521510   6.063  -0.727   3.126  0.1495  0.3630  0.3592
  187POPC   H5X21511   6.105  -0.638   3.076  0.4797 -0.1695 -0.3299
  187POPC   H5Y21512   6.124  -0.815   3.096  0.3966  0.8944 -0.7406
  187POPC   C3621513   6.076  -0.697   3.278  0.3155  0.5173 -0.6818
  187POPC   H6X21514   6.185  -0.701   3.300  0.0740 -0.8659  0.4057
  187POPC   H6Y21515   6.026  -0.773   3.343  0.7075  0.7548 -0.0964
  187POPC   C3721516   6.050  -0.549   3.321 -0.5422 -0.4246 -0.4373
  187POPC   H7X21517   5.940  -0.530   3.322 -0.1057  2.4806 -0.5037
  187POPC   H7Y21518   6.094  -0.470   3.256 -0.9473 -0.8568 -1.2554
  187POPC   C3821519   6.095  -0.512   3.465 -0.8738 -0.3257  0.1267
  187POPC   H8X21520   6.198  -0.548   3.487 -1.3677 -2.7790 -1.1640
  187POPC   H8Y21521   6.023  -0.568   3.529 -1.3560 -1.0031 -0.9814
  187POPC   C3921522   6.089  -0.363   3.493 -0.5759  0.5706  0.1700
  187POPC   H9X21523   5.987  -0.324   3.472 -1.7856 -1.8524  1.2014
  187POPC   H9Y21524   6.159  -0.310   3.425  0.3216  0.2816  0.8332
  187POPC  C31021525   6.123  -0.334   3.640  0.4199 -0.1559  0.0717
  187POPC  H10X21526   6.216  -0.388   3.672  0.4124  0.4749  1.2200
  187POPC  H10Y21527   6.048  -0.378   3.709 -2.3623 -0.2920 -2.8446
  187POPC  C31121528   6.133  -0.185   3.674 -1.0700 -0.3482 -0.5500
  187POPC  H11X21529   6.045  -0.121   3.649 -0.8159 -0.1216 -0.8732
  187POPC  H11Y21530   6.216  -0.148   3.610 -0.1317  0.3142  0.9922
  187POPC  C31221531   6.172  -0.174   3.830  0.5053 -0.6421 -0.3209
  187POPC  H12X21532   6.168  -0.065   3.849  0.9103 -0.8953  1.3151
  187POPC  H12Y21533   6.276  -0.213   3.832  0.6564 -0.1862  1.0175
  187POPC  C31321534   6.067  -0.236   3.922  0.1737 -0.4358  0.1577
  187POPC  H13X21535   6.056  -0.345   3.902  0.6807 -0.3603 -0.5592
  187POPC  H13Y21536   5.971  -0.180   3.910  1.4481  1.9865  0.6508
  187POPC  C31421537   6.112  -0.215   4.064 -0.3424  0.0048 -0.4538
  187POPC  H14X21538   6.120  -0.109   4.097 -0.0501  0.4423 -1.8594
  187POPC  H14Y21539   6.215  -0.255   4.076 -0.5575 -0.5043 -0.2794
  187POPC  C31521540   6.021  -0.295   4.156 -0.7663 -0.2044  0.6837
  187POPC  H15X21541   6.065  -0.397   4.152  2.0048  0.9027  0.0056
  187POPC  H15Y21542   5.922  -0.302   4.107  0.6643 -0.2526 -2.4473
  187POPC  C31621543   6.007  -0.234   4.296  0.6096  0.0563  0.1143
  187POPC  H16X21544   5.927  -0.159   4.308  1.3585  0.7212  1.1463
  187POPC  H16Y21545   6.100  -0.180   4.326  0.5885 -0.8067  1.8966
  187POPC  H16Z21546   5.992  -0.316   4.370  1.2528  0.5830  0.8546
  188POPC     N21547   5.150   4.627   2.318  0.6874  0.6075 -1.0172
  188POPC   C1221548   5.174   4.540   2.201 -0.0528 -0.0622  0.6654
  188POPC  H12A21549   5.209   4.601   2.119  0.6990 -0.2150  0.8579
  188POPC  H12B21550   5.073   4.517   2.170  0.3614 -0.2703 -0.5986
  188POPC   C1321551   5.270   4.701   2.361 -0.6151  0.2170  0.1773
  188POPC  H13A21552   5.296   4.777   2.289  2.9229 -0.1138  0.8906
  188POPC  H13B21553   5.267   4.753   2.456 -2.4972  0.5015 -0.0000
  188POPC  H13C21554   5.355   4.635   2.367  0.3274  1.2610 -1.1218
  188POPC   C1421555   5.040   4.730   2.294 -0.8536 -0.5014 -0.3416
  188POPC  H14A21556   4.964   4.705   2.222 -1.0697  0.3477 -0.4190
  188POPC  H14B21557   4.992   4.757   2.387  1.1021  1.9306  0.0671
  188POPC  H14C21558   5.087   4.815   2.247 -0.3755 -0.3919  0.3102
  188POPC   C1521559   5.099   4.540   2.428  0.0452 -0.2363  0.3810
  188POPC  H15A21560   5.184   4.475   2.447  0.8148  0.1546 -1.4408
  188POPC  H15B21561   5.010   4.482   2.408  0.5718 -1.2609  0.8741
  188POPC  H15C21562   5.088   4.599   2.517 -1.4698  0.9999 -0.5809
  188POPC   C1121563   5.277   4.418   2.206 -0.1717 -0.3549  0.0504
  188POPC  H11A21564   5.380   4.454   2.225  0.3327 -0.2162 -2.6528
  188POPC  H11B21565   5.283   4.380   2.102 -1.2907  2.6132 -1.2002
  188POPC     P21566   5.154   4.209   2.250  0.1933 -0.1028 -0.0783
  188POPC   O1321567   5.244   4.099   2.202 -0.3776 -0.0776 -0.2892
  188POPC   O1421568   5.059   4.262   2.147  0.2187  0.2428 -0.7030
  188POPC   O1221569   5.240   4.324   2.312  0.0280  0.3113  0.1688
  188POPC   O1121570   5.080   4.149   2.379  0.2913  0.2450 -0.1143
  188POPC    C121571   5.154   4.134   2.505 -0.1351 -0.0690  0.5284
  188POPC    HA21572   5.116   4.203   2.583 -0.9236 -0.4871  0.5271
  188POPC    HB21573   5.262   4.151   2.486 -0.2181  1.1078  1.0282
  188POPC    C221574   5.144   3.982   2.553  0.8281 -0.4560  0.0397
  188POPC    HS21575   5.039   3.972   2.588  1.4237  0.5433  2.3066
  188POPC   O2121576   5.237   3.954   2.658 -0.3655 -0.6434  0.2759
  188POPC   C2121577   5.201   4.015   2.771 -0.4661  0.0926  0.3885
  188POPC   O2221578   5.102   4.079   2.792  0.2189 -0.0019  0.4934
  188POPC   C2221579   5.303   3.976   2.882  0.0390 -0.5074  0.8459
  188POPC   H2R21580   5.325   4.066   2.943  0.6968  0.7891 -1.1878
  188POPC   H2S21581   5.396   3.945   2.830 -1.1923 -1.8068 -0.6913
  188POPC    C321582   5.174   3.884   2.437 -0.9353 -0.0183  0.4872
  188POPC    HX21583   5.279   3.904   2.408 -0.4537 -2.1854  0.6007
  188POPC    HY21584   5.114   3.907   2.346 -0.6549 -0.4388  0.1936
  188POPC   O3121585   5.152   3.749   2.486 -0.2467  0.3696 -0.4637
  188POPC   C3121586   5.027   3.714   2.467  0.5506  0.1210  0.1595
  188POPC   O3221587   4.933   3.783   2.437  0.8043 -0.5022  0.0052
  188POPC   C3221588   5.017   3.569   2.524 -0.5653  0.1301 -0.5995
  188POPC   H2X21589   5.116   3.537   2.563 -0.7438 -1.5410 -1.4555
  188POPC   H2Y21590   4.979   3.495   2.451  4.1371 -2.8173 -0.4728
  188POPC   C2321591   5.246   3.867   2.976  0.4160  0.0130 -0.8375
  188POPC   H3R21592   5.208   3.783   2.915  1.0592 -0.6843 -0.2952
  188POPC   H3S21593   5.157   3.899   3.034  1.2505  1.5278 -0.3121
  188POPC   C2421594   5.357   3.823   3.077  0.5405 -0.0839  1.3383
  188POPC   H4R21595   5.458   3.842   3.037 -0.1784 -0.5545 -0.8212
  188POPC   H4S21596   5.345   3.714   3.096  0.0387 -0.4359 -0.7622
  188POPC   C2521597   5.345   3.896   3.210 -0.2603  0.5360 -0.3697
  188POPC   H5R21598   5.247   3.870   3.255  0.7549 -0.9021  1.0788
  188POPC   H5S21599   5.333   4.005   3.189  2.1994  1.2121  1.3372
  188POPC   C2621600   5.456   3.882   3.313  0.1907 -0.2664  0.2254
  188POPC   H6R21601   5.551   3.922   3.272 -0.8090  0.4545 -1.5160
  188POPC   H6S21602   5.467   3.773   3.328 -3.5754 -0.7582  0.3947
  188POPC   C2721603   5.417   3.950   3.446 -0.1294 -0.2409  0.6195
  188POPC   H7R21604   5.316   3.920   3.481 -0.1675 -0.0409  0.6796
  188POPC   H7S21605   5.404   4.059   3.429 -1.4477 -0.5959 -0.8453
  188POPC   C2821606   5.523   3.925   3.553 -0.0691 -0.3141  0.3588
  188POPC   H8R21607   5.508   4.004   3.629  0.2377 -0.6792  0.8062
  188POPC   H8S21608   5.624   3.957   3.520 -0.8723 -0.0608 -2.0573
  188POPC   C2921609   5.524   3.789   3.615  0.8508 -0.0451  0.1667
  188POPC   H9121610   5.585   3.717   3.557 -1.4150 -2.4821  0.5876
  188POPC  C21021611   5.456   3.742   3.721  0.5328 -0.2519 -0.1254
  188POPC  H10121612   5.462   3.638   3.754 -0.9981 -0.3440 -0.0789
  188POPC  C21121613   5.361   3.820   3.811  0.0463  0.3056 -0.5624
  188POPC  H11R21614   5.256   3.793   3.787 -0.0141 -1.3093  1.2635
  188POPC  H11S21615   5.353   3.928   3.786 -1.0183  0.8083  1.6798
  188POPC  C21221616   5.378   3.797   3.966 -0.6812 -0.6585  0.0150
  188POPC  H12R21617   5.306   3.861   4.021  0.0965  1.2584 -1.1161
  188POPC  H12S21618   5.474   3.841   4.000 -1.2711  0.8492 -0.2181
  188POPC  C21321619   5.372   3.653   4.018 -0.1430  0.2693  0.0237
  188POPC  H13R21620   5.474   3.611   4.009  0.6233  2.1397 -0.5545
  188POPC  H13S21621   5.295   3.597   3.960  1.0570 -0.1803 -1.1805
  188POPC  C21421622   5.322   3.641   4.163 -0.1048  0.0455 -0.2843
  188POPC  H14R21623   5.373   3.714   4.229 -1.0355 -0.0052  0.5196
  188POPC  H14S21624   5.347   3.542   4.208 -0.2073 -0.1569 -0.6611
  188POPC  C21521625   5.171   3.670   4.178 -0.1683 -0.2513  0.0264
  188POPC  H15R21626   5.107   3.609   4.110 -1.1084 -2.0600  2.3606
  188POPC  H15S21627   5.151   3.777   4.160 -1.0021 -0.5644 -1.0153
  188POPC  C21621628   5.125   3.631   4.322  0.1206 -0.3458  0.4363
  188POPC  H16R21629   5.184   3.685   4.398  0.1677  0.6830 -0.3146
  188POPC  H16S21630   5.146   3.522   4.326 -2.0189 -0.7516  2.2575
  188POPC  C21721631   4.973   3.651   4.342 -0.1371  0.4493 -0.1625
  188POPC  H17R21632   4.934   3.603   4.249  1.1682 -1.5688  0.2560
  188POPC  H17S21633   4.944   3.758   4.340  0.7321  0.6925 -0.2750
  188POPC  C21821634   4.904   3.581   4.456 -0.2528 -0.3828  0.1653
  188POPC  H18R21635   4.930   3.633   4.552  0.8023  0.5945 -0.6133
  188POPC  H18S21636   4.941   3.477   4.449 -1.6922 -0.8540 -0.7295
  188POPC  H18T21637   4.795   3.587   4.437  0.2677  0.8843 -3.0490
  188POPC   C3321638   4.922   3.566   2.644 -0.1954 -0.1794  0.2465
  188POPC   H3X21639   4.915   3.464   2.687 -1.7514  0.6712  2.2028
  188POPC   H3Y21640   4.823   3.588   2.598 -0.3219 -1.1903  0.0234
  188POPC   C3421641   4.954   3.667   2.759  0.6547  0.2014  0.5972
  188POPC   H4X21642   4.951   3.766   2.708  0.2743 -1.1664 -2.2293
  188POPC   H4Y21643   5.047   3.646   2.816  0.8675 -1.4861 -0.3036
  188POPC   C3521644   4.835   3.657   2.863 -0.5325 -0.6799 -0.0841
  188POPC   H5X21645   4.736   3.646   2.815 -0.3202  2.2070 -1.4375
  188POPC   H5Y21646   4.818   3.754   2.915 -0.9618 -1.5268  1.3892
  188POPC   C3621647   4.854   3.561   2.979  0.0553 -0.1871  0.2320
  188POPC   H6X21648   4.897   3.463   2.951  0.3493 -0.6498  2.1446
  188POPC   H6Y21649   4.756   3.544   3.029 -0.3066  1.8287  0.2959
  188POPC   C3721650   4.942   3.636   3.081  0.1035 -0.2386  1.0034
  188POPC   H7X21651   4.895   3.729   3.120 -0.1826 -0.8386  2.1295
  188POPC   H7Y21652   5.043   3.665   3.044  0.0323  0.3472  1.2567
  188POPC   C3821653   4.977   3.541   3.199  0.1044  0.1549 -0.2720
  188POPC   H8X21654   4.993   3.437   3.164 -0.2855 -0.4727  1.3121
  188POPC   H8Y21655   4.886   3.548   3.263  0.5279  0.4326  0.3109
  188POPC   C3921656   5.099   3.602   3.277 -0.5782 -0.2884 -0.4408
  188POPC   H9X21657   5.071   3.694   3.331  1.4983 -0.5592  1.2167
  188POPC   H9Y21658   5.167   3.636   3.195  0.0887  0.9605  0.5956
  188POPC  C31021659   5.148   3.506   3.386 -0.1036  0.1476  0.8374
  188POPC  H10X21660   5.158   3.412   3.328 -2.6878  0.3819 -0.0962
  188POPC  H10Y21661   5.067   3.493   3.460  0.9425  0.8452  2.1484
  188POPC  C31121662   5.273   3.558   3.457  0.8128 -0.3454  0.5521
  188POPC  H11X21663   5.247   3.649   3.515  1.1742  1.2254 -1.6226
  188POPC  H11Y21664   5.344   3.597   3.380 -1.2615  0.9513 -0.8211
  188POPC  C31221665   5.344   3.453   3.539  0.8520 -0.3534  0.3958
  188POPC  H12X21666   5.444   3.487   3.575  0.6934 -0.7686  1.2352
  188POPC  H12Y21667   5.368   3.369   3.470  1.4862 -0.1973  0.4161
  188POPC  C31321668   5.255   3.401   3.649  0.6197 -0.0337  0.3228
  188POPC  H13X21669   5.189   3.318   3.617 -0.3878  0.9803 -0.3001
  188POPC  H13Y21670   5.183   3.478   3.682 -0.5586 -0.6287 -0.7970
  188POPC  C31421671   5.345   3.363   3.771 -0.1635  0.5744 -0.0603
  188POPC  H14X21672   5.419   3.440   3.803  1.2660 -0.3819 -0.9184
  188POPC  H14Y21673   5.411   3.277   3.744  2.8331  2.7052 -0.1098
  188POPC  C31521674   5.259   3.308   3.884  0.4873  0.4224 -0.1553
  188POPC  H15X21675   5.198   3.221   3.853 -1.1176  0.6924  1.9809
  188POPC  H15Y21676   5.194   3.394   3.914  0.2011  0.6168 -1.2809
  188POPC  C31621677   5.348   3.262   4.001  0.8412 -1.1179  0.0407
  188POPC  H16X21678   5.425   3.192   3.961  1.3752 -0.7857  0.4758
  188POPC  H16Y21679   5.299   3.213   4.088 -1.9403  1.6406  0.1906
  188POPC  H16Z21680   5.400   3.346   4.052  0.6395 -2.7770  3.2941
  189SAPI   C1221681   3.630   6.301   6.366 -0.1438  0.0349 -0.0381
  189SAPI    H221682   3.622   6.217   6.294  2.3426 -0.7559  0.5010
  189SAPI    O221683   3.683   6.240   6.478  0.3407 -0.2366 -0.5954
  189SAPI   HO221684   3.669   6.145   6.470 -0.8819 -0.1995  0.7018
  189SAPI   C1321685   3.733   6.404   6.306 -0.0115  0.6727 -0.6427
  189SAPI    H321686   3.684   6.443   6.215 -1.7331  1.0670  0.4012
  189SAPI    O321687   3.853   6.352   6.262 -0.1516  0.4311  0.4598
  189SAPI   HO321688   3.841   6.292   6.188 -0.1921 -1.1222  1.6629
  189SAPI   C1421689   3.752   6.532   6.388 -0.0267 -0.1597 -0.2276
  189SAPI    H421690   3.843   6.519   6.451  0.6546  4.1023 -0.0594
  189SAPI    O421691   3.786   6.650   6.313 -0.1315  0.1039 -0.1135
  189SAPI   HO421692   3.879   6.632   6.297 -0.2056  0.9474 -1.7064
  189SAPI   C1521693   3.639   6.556   6.492 -0.2520 -0.0644 -0.0265
  189SAPI    H521694   3.609   6.660   6.469 -0.1721 -0.0497 -0.0636
  189SAPI    O521695   3.690   6.565   6.628 -0.3421 -0.1846  0.3300
  189SAPI   HO521696   3.740   6.646   6.635  2.1687 -1.5447 -0.5132
  189SAPI   C1621697   3.511   6.473   6.498 -0.5376  0.4088  0.1528
  189SAPI    H621698   3.502   6.418   6.594  0.2952  0.9752  0.5651
  189SAPI    O621699   3.396   6.553   6.493  0.5345  0.0399 -0.2731
  189SAPI   HO621700   3.326   6.500   6.455  0.0402  1.0799 -0.8645
  189SAPI   C1121701   3.498   6.368   6.393  0.3975 -0.0336 -0.4244
  189SAPI    H121702   3.483   6.413   6.293  0.7838  1.0124 -0.0216
  189SAPI     P21703   3.242   6.271   6.370 -0.1747 -0.3580 -0.0980
  189SAPI   O1321704   3.197   6.414   6.366 -0.6905 -0.4221 -0.1273
  189SAPI   O1421705   3.170   6.194   6.469  0.2292 -0.2606 -0.3218
  189SAPI   O1221706   3.403   6.254   6.406 -0.1834 -0.7926  0.0757
  189SAPI   O1121707   3.232   6.205   6.223  0.0058 -0.3655 -0.2359
  189SAPI    C121708   3.238   6.281   6.106 -0.2536  0.1760  0.8544
  189SAPI    HA21709   3.135   6.312   6.078  0.6933  1.1833 -1.9160
  189SAPI    HB21710   3.285   6.381   6.120 -0.2985  0.2331  0.6097
  189SAPI    C221711   3.315   6.212   5.993 -0.0361 -0.7076  0.9136
  189SAPI    HS21712   3.348   6.281   5.912 -0.2775 -0.4137  1.0631
  189SAPI   O2121713   3.224   6.110   5.940 -0.1064  0.7838  0.2986
  189SAPI   C2121714   3.199   6.122   5.812  0.5997  1.1847 -0.2423
  189SAPI   O2221715   3.225   6.215   5.739 -0.2510 -0.7123 -0.0921
  189SAPI   C2221716   3.108   6.003   5.765 -0.1942 -0.7610 -0.5896
  189SAPI   H2R21717   3.128   5.918   5.834 -0.4201 -1.0167 -0.8382
  189SAPI   H2S21718   3.008   6.047   5.786 -0.4105 -0.7743 -1.5487
  189SAPI    C321719   3.449   6.150   6.047  0.2794  0.0690  0.6898
  189SAPI    HX21720   3.422   6.098   6.142 -0.2643  0.3384  0.6895
  189SAPI    HY21721   3.515   6.233   6.080  0.2511 -0.1108  1.2023
  189SAPI   O3121722   3.512   6.068   5.949  0.2616  0.0623  0.1405
  189SAPI   C3121723   3.648   6.075   5.947 -0.1485  0.1274  0.3323
  189SAPI   O3221724   3.725   6.129   6.029  0.1217  0.4453  0.2093
  189SAPI   C3221725   3.689   6.026   5.815 -0.4699  0.0653  1.0970
  189SAPI   H2X21726   3.631   5.933   5.800  0.3022 -0.1375 -0.8796
  189SAPI   H2Y21727   3.795   5.993   5.812 -0.9446 -1.5043 -0.5465
  189SAPI   C2321728   3.116   5.984   5.615  0.1392 -0.0693  0.5264
  189SAPI   H3R21729   3.098   6.075   5.553  0.1373  0.4976  1.3366
  189SAPI   H3S21730   3.034   5.916   5.583 -0.7147  2.0520 -2.2306
  189SAPI   C2421731   3.253   5.930   5.575 -0.6352 -0.5390 -0.4712
  189SAPI   H4R21732   3.325   6.003   5.617 -1.9007  0.3627  0.2069
  189SAPI   H4S21733   3.263   5.925   5.464  3.2445 -1.6147 -0.2351
  189SAPI   C2521734   3.280   5.796   5.637 -0.1513 -0.0745 -0.6134
  189SAPI   H5R21735   3.309   5.801   5.743  1.6798  0.2647 -1.0804
  189SAPI   C2621736   3.301   5.676   5.585  0.1027  0.3253  0.0736
  189SAPI   H6R21737   3.329   5.596   5.655  1.4580  0.9250  0.2660
  189SAPI   C2721738   3.267   5.649   5.444 -0.0868 -0.2754 -0.4205
  189SAPI   H7R21739   3.289   5.739   5.382  2.0517  1.9188  3.1801
  189SAPI   H7S21740   3.156   5.643   5.448 -0.1639  1.2336  3.1518
  189SAPI   C2821741   3.325   5.523   5.395  0.1926 -0.3335  0.1786
  189SAPI   H8R21742   3.355   5.453   5.475  1.5197  2.9478  2.7832
  189SAPI   C2921743   3.363   5.509   5.265 -0.3074  0.0450  0.1724
  189SAPI   H9R21744   3.398   5.409   5.235 -1.7189 -0.2109 -0.7053
  189SAPI  C21021745   3.322   5.603   5.153  0.5280  0.1656  0.3354
  189SAPI  H10R21746   3.268   5.692   5.192 -1.4131 -0.4758 -0.7861
  189SAPI  H10S21747   3.242   5.545   5.103  1.4881  0.0585 -1.1303
  189SAPI  C21121748   3.446   5.636   5.067 -0.2013  0.2338 -0.4244
  189SAPI  H11R21749   3.488   5.735   5.089 -0.1737  0.0855  0.2215
  189SAPI  C21221750   3.490   5.554   4.958  0.2434 -0.0139 -0.0508
  189SAPI  H12R21751   3.585   5.586   4.913 -1.0860  0.8675 -2.3795
  189SAPI  C21321752   3.429   5.428   4.920  0.9004  0.7355 -0.0808
  189SAPI  H13R21753   3.330   5.457   4.879  0.8577  2.9160  1.4371
  189SAPI  H13S21754   3.412   5.363   5.008  1.8071  0.9829  0.2899
  189SAPI  C21421755   3.509   5.332   4.828 -0.2006  0.2156  0.3068
  189SAPI  H14R21756   3.566   5.245   4.865  0.2292  0.5452  0.4393
  189SAPI  C21521757   3.527   5.355   4.697  0.2525 -0.5270 -0.8051
  189SAPI  H15R21758   3.589   5.289   4.636  0.3692 -1.3748  0.2013
  189SAPI  C21621759   3.463   5.473   4.620 -0.0140 -0.3900  0.5977
  189SAPI  H16R21760   3.527   5.513   4.539  0.0724  0.3683  1.0253
  189SAPI  H16S21761   3.470   5.567   4.679  1.7703  0.9294 -1.5675
  189SAPI  C21721762   3.320   5.462   4.557  0.7648 -0.4915 -0.4250
  189SAPI  H17R21763   3.278   5.564   4.566 -1.5037 -1.4535  0.7140
  189SAPI  H17S21764   3.250   5.393   4.609  1.3877 -0.8179  0.0037
  189SAPI  C21821765   3.317   5.418   4.413 -0.3240  0.6953 -0.5684
  189SAPI  H18R21766   3.402   5.463   4.356  0.6410 -0.9968 -0.5352
  189SAPI  H18S21767   3.220   5.440   4.364 -0.8593  0.4067  0.3521
  189SAPI  C21921768   3.336   5.262   4.406  0.0650  0.9599  0.2747
  189SAPI  H19R21769   3.257   5.217   4.469  0.6922 -1.4422 -0.5306
  189SAPI  H19S21770   3.433   5.235   4.453  0.3727  2.1480  0.3611
  189SAPI  C22021771   3.334   5.207   4.255 -0.4995 -0.6139 -0.8818
  189SAPI  H20R21772   3.328   5.097   4.242  1.4426 -1.0767  1.4505
  189SAPI  H20S21773   3.433   5.240   4.216  0.0275 -0.7939  0.2441
  189SAPI  H20T21774   3.256   5.251   4.190 -0.7712  0.3232  0.0599
  189SAPI   C3321775   3.665   6.119   5.697  0.6003  0.1270 -0.5621
  189SAPI   H3X21776   3.716   6.216   5.716  0.2128  0.9672 -3.3780
  189SAPI   H3Y21777   3.557   6.140   5.690 -0.3033 -3.1117  1.3357
  189SAPI   C3421778   3.694   6.050   5.564  0.5839 -0.9102 -0.3468
  189SAPI   H4X21779   3.625   5.964   5.549  0.3960 -0.7797 -0.2393
  189SAPI   H4Y21780   3.798   6.015   5.582  1.6117  1.1297 -1.8750
  189SAPI   C3521781   3.693   6.137   5.435  0.1016 -0.6171 -0.4564
  189SAPI   H5X21782   3.771   6.216   5.441  0.0913 -0.7445  2.0805
  189SAPI   H5Y21783   3.594   6.187   5.426  2.0128  3.7265  0.2257
  189SAPI   C3621784   3.725   6.045   5.319  0.2683 -0.3701  0.0004
  189SAPI   H6X21785   3.641   5.972   5.316 -2.4245  2.5255 -0.0423
  189SAPI   H6Y21786   3.815   5.981   5.334 -0.1469 -0.3911  2.8487
  189SAPI   C3721787   3.715   6.117   5.188  0.3717 -0.6466 -0.0458
  189SAPI   H7X21788   3.812   6.167   5.165  0.3435  0.4197  1.9278
  189SAPI   H7Y21789   3.638   6.197   5.183  0.6357 -0.3700  0.2197
  189SAPI   C3821790   3.682   6.031   5.066  0.3741  0.3954  0.2413
  189SAPI   H8X21791   3.579   5.988   5.076 -0.6561  1.7855 -3.0102
  189SAPI   H8Y21792   3.742   5.940   5.045 -2.4919 -1.2208 -1.6743
  189SAPI   C3921793   3.684   6.113   4.934 -0.2207  0.0993 -0.0556
  189SAPI   H9X21794   3.778   6.173   4.936 -1.9420  3.0110  1.0934
  189SAPI   H9Y21795   3.603   6.189   4.925 -0.8530 -0.3147  1.6432
  189SAPI  C31021796   3.695   6.028   4.806  0.4103 -0.2874  0.4065
  189SAPI  H10X21797   3.615   5.951   4.803  0.3896 -0.2524 -0.2566
  189SAPI  H10Y21798   3.791   5.972   4.805  1.3926  1.3152 -0.7779
  189SAPI  C31121799   3.700   6.107   4.674  0.3529  0.1258 -0.2797
  189SAPI  H11X21800   3.753   6.204   4.682  1.0158 -0.1986 -0.6915
  189SAPI  H11Y21801   3.594   6.136   4.662 -0.7015 -2.7944  0.8982
  189SAPI  C31221802   3.747   6.029   4.547 -0.8477 -0.3443  0.3876
  189SAPI  H12X21803   3.675   5.956   4.503 -1.6062 -0.1937  1.3466
  189SAPI  H12Y21804   3.836   5.968   4.575 -0.2469  0.0871 -0.5247
  189SAPI  C31321805   3.796   6.117   4.424  0.3730 -0.1343  0.1872
  189SAPI  H13X21806   3.843   6.215   4.451  0.6679  0.1070 -1.1419
  189SAPI  H13Y21807   3.707   6.148   4.365  0.0055 -0.3793  0.6073
  189SAPI  C31421808   3.884   6.028   4.336  0.0597  0.3083 -0.2335
  189SAPI  H14X21809   3.830   5.943   4.290 -0.5429  0.1074  0.8260
  189SAPI  H14Y21810   3.964   6.005   4.410 -0.8146  1.6994  1.2192
  189SAPI  C31521811   3.935   6.106   4.219  0.0209 -0.9517 -0.1832
  189SAPI  H15X21812   3.848   6.135   4.156 -1.3394  2.2405  2.8024
  189SAPI  H15Y21813   3.990   6.030   4.159 -0.2498 -1.9723  0.8156
  189SAPI  C31621814   4.032   6.232   4.244  0.0030 -0.4343 -0.2308
  189SAPI  H16X21815   4.131   6.195   4.278 -0.5123 -0.4801  1.2645
  189SAPI  H16Y21816   3.981   6.296   4.319  0.0927  0.1924 -0.7044
  189SAPI  C31721817   4.067   6.322   4.121 -0.2963  0.9550  0.1924
  189SAPI  H17X21818   4.131   6.408   4.151  2.3301 -0.4048 -1.0978
  189SAPI  H17Y21819   3.969   6.359   4.086 -0.4702  0.6528  0.3586
  189SAPI  C31821820   4.151   6.241   4.017 -0.0230 -0.1692  0.4652
  189SAPI  H18X21821   4.088   6.162   3.970  1.8335 -0.2292 -2.1931
  189SAPI  H18Y21822   4.238   6.198   4.072  0.0347  0.7076  1.0700
  189SAPI  H18Z21823   4.192   6.315   3.945 -0.2297  1.7349  2.2328
  190SAPI   C1221824   1.821   2.979   6.338  0.2485  0.4148 -0.6391
  190SAPI    H221825   1.810   3.009   6.232  0.2491 -2.2455 -1.4583
  190SAPI    O221826   1.959   2.953   6.347  0.4131  0.1004 -0.3344
  190SAPI   HO221827   2.005   3.033   6.323 -0.1581  0.4562 -0.2739
  190SAPI   C1321828   1.763   3.088   6.423  0.4127  0.2676  1.0345
  190SAPI    H321829   1.655   3.089   6.399  1.0123 -0.0994 -1.9880
  190SAPI    O321830   1.796   3.221   6.378 -0.1885  0.6384 -0.4383
  190SAPI   HO321831   1.772   3.224   6.285 -3.4558 -0.7541  0.2047
  190SAPI   C1421832   1.790   3.056   6.568 -0.0334  0.9040 -0.1042
  190SAPI    H421833   1.901   3.054   6.572  0.2261 -1.4401 -3.6460
  190SAPI    O421834   1.746   3.145   6.675  0.0903  0.2339 -0.4036
  190SAPI   HO421835   1.652   3.137   6.694  0.3711  2.0377  2.1833
  190SAPI   C1521836   1.767   2.913   6.614  0.5278  0.0127 -0.0843
  190SAPI    H521837   1.661   2.916   6.645 -0.1851 -1.5234 -2.1933
  190SAPI    O521838   1.837   2.880   6.731 -0.5724  0.4544  0.0614
  190SAPI   HO521839   1.930   2.874   6.706 -1.1627 -2.1916 -1.9499
  190SAPI   C1621840   1.757   2.805   6.506 -0.1782 -0.2313  0.0474
  190SAPI    H621841   1.859   2.763   6.504 -0.2395 -0.4000  0.3264
  190SAPI    O621842   1.671   2.695   6.538 -0.0914 -0.2656 -0.0529
  190SAPI   HO621843   1.673   2.639   6.460  1.2676  2.1671 -1.9071
  190SAPI   C1121844   1.735   2.852   6.361 -0.0571  0.0444  0.4036
  190SAPI    H121845   1.628   2.877   6.342  0.1355  0.3823 -0.2491
  190SAPI     P21846   1.692   2.653   6.183 -0.0871  0.0182 -0.0443
  190SAPI   O1321847   1.601   2.594   6.285 -0.5946  0.1444  0.0508
  190SAPI   O1421848   1.763   2.559   6.087  0.0072  0.0914  0.1950
  190SAPI   O1221849   1.787   2.764   6.260 -0.2846 -0.1396  0.6458
  190SAPI   O1121850   1.600   2.748   6.102 -0.6186 -0.3738 -0.1829
  190SAPI    C121851   1.653   2.839   6.006  0.6208  0.0986  0.1107
  190SAPI    HA21852   1.587   2.929   6.014  0.2343 -0.2523  1.0099
  190SAPI    HB21853   1.758   2.872   6.021  0.9761 -1.0054  0.1281
  190SAPI    C221854   1.645   2.786   5.854 -0.4548 -0.3037  0.3872
  190SAPI    HS21855   1.740   2.732   5.833  0.3148  1.2059 -0.1341
  190SAPI   O2121856   1.628   2.898   5.755  0.1647  0.3925  0.2177
  190SAPI   C2121857   1.745   2.953   5.723  0.2610  0.5888 -0.6020
  190SAPI   O2221858   1.855   2.923   5.767 -0.3449  0.4844 -0.7356
  190SAPI   C2221859   1.719   3.080   5.644  0.1519  0.5262 -0.2425
  190SAPI   H2R21860   1.619   3.069   5.597 -0.4458 -1.7320  1.3846
  190SAPI   H2S21861   1.714   3.158   5.724  2.4170 -0.5218  1.0075
  190SAPI    C321862   1.512   2.710   5.843  0.2325  0.1118 -0.2111
  190SAPI    HX21863   1.431   2.779   5.876  0.6977  2.0547 -2.7731
  190SAPI    HY21864   1.496   2.622   5.909  2.2741 -0.2625 -0.1409
  190SAPI   O3121865   1.478   2.674   5.709  1.0192  0.4376  0.6548
  190SAPI   C3121866   1.564   2.610   5.626  0.1355  0.0115  0.2700
  190SAPI   O3221867   1.679   2.580   5.656  0.5897  0.7909 -0.1090
  190SAPI   C3221868   1.492   2.567   5.497 -0.0607 -0.9071  0.6955
  190SAPI   H2X21869   1.393   2.614   5.484 -0.1690 -1.2099  0.3971
  190SAPI   H2Y21870   1.466   2.459   5.501 -0.8626 -0.6950  4.1776
  190SAPI   C2321871   1.828   3.117   5.549 -0.3027  0.9856  0.3110
  190SAPI   H3R21872   1.926   3.089   5.592 -1.1403 -0.8462  1.1309
  190SAPI   H3S21873   1.816   3.227   5.539  1.0056  1.0175 -1.3126
  190SAPI   C2421874   1.821   3.056   5.406 -0.0814 -0.0558 -0.1866
  190SAPI   H4R21875   1.731   3.096   5.355 -1.1586 -0.5498  1.2546
  190SAPI   H4S21876   1.811   2.946   5.421  0.6613 -0.2801 -1.2560
  190SAPI   C2521877   1.947   3.083   5.328  0.1523  0.2500  0.0185
  190SAPI   H5R21878   2.036   3.030   5.367 -0.3598 -0.4238  0.2879
  190SAPI   C2621879   1.977   3.173   5.231 -0.1007 -0.4621 -0.3153
  190SAPI   H6R21880   2.073   3.169   5.177 -0.8034 -0.9517 -1.5922
  190SAPI   C2721881   1.876   3.253   5.149 -0.3095  0.0356 -0.9368
  190SAPI   H7R21882   1.915   3.357   5.148 -3.7034  1.4532  0.1540
  190SAPI   H7S21883   1.791   3.270   5.218  0.0438 -0.6070 -0.3265
  190SAPI   C2821884   1.831   3.196   5.015 -0.0110 -0.5718 -0.5627
  190SAPI   H8R21885   1.753   3.119   5.028  0.1162 -0.4412  1.2852
  190SAPI   C2921886   1.868   3.238   4.894 -0.4619 -0.2308 -0.6037
  190SAPI   H9R21887   1.821   3.206   4.800  0.8915 -1.0477 -1.0386
  190SAPI  C21021888   1.978   3.345   4.874  0.5241 -0.3509 -0.7072
  190SAPI  H10R21889   2.056   3.320   4.949 -1.9398  0.6498  2.4126
  190SAPI  H10S21890   1.935   3.446   4.894  0.5471 -0.7744  1.9162
  190SAPI  C21121891   2.052   3.361   4.742  0.4626  0.0600  0.0122
  190SAPI  H11R21892   2.157   3.327   4.754 -0.1275 -1.4739  1.2513
  190SAPI  C21221893   2.023   3.433   4.632 -0.2120  0.0971 -0.1246
  190SAPI  H12R21894   2.089   3.439   4.544 -0.7927  1.6961 -0.4859
  190SAPI  C21321895   1.898   3.519   4.616  0.0818 -0.2029  0.7291
  190SAPI  H13R21896   1.883   3.579   4.708 -1.0786  0.9937 -0.2137
  190SAPI  H13S21897   1.813   3.447   4.617  1.0970 -1.4401  1.3684
  190SAPI  C21421898   1.912   3.611   4.494  0.3072  0.1007  0.3059
  190SAPI  H14R21899   1.972   3.702   4.504  2.4985 -0.9266 -2.4576
  190SAPI  C21521900   1.849   3.595   4.373  0.5079 -0.5874 -0.1840
  190SAPI  H15R21901   1.866   3.670   4.295 -3.1033  0.2304 -0.3075
  190SAPI  C21621902   1.756   3.488   4.324 -0.9918 -0.3642 -0.2091
  190SAPI  H16R21903   1.752   3.400   4.391  0.2945 -0.5009 -0.2867
  190SAPI  H16S21904   1.776   3.451   4.222 -1.1223 -1.1867  0.0623
  190SAPI  C21721905   1.611   3.541   4.307  0.1263 -0.3101 -0.2766
  190SAPI  H17R21906   1.574   3.582   4.404  2.5679 -4.1079  2.5637
  190SAPI  H17S21907   1.545   3.455   4.286  0.5308 -0.1505 -2.4761
  190SAPI  C21821908   1.584   3.641   4.188 -0.5798 -0.2336  0.5245
  190SAPI  H18R21909   1.607   3.583   4.096 -1.0160  0.1804  0.1496
  190SAPI  H18S21910   1.648   3.732   4.188 -1.5074  0.4383 -0.0886
  190SAPI  C21921911   1.441   3.690   4.185 -0.1640 -0.0079 -0.2884
  190SAPI  H19R21912   1.429   3.753   4.276  4.6404  2.3428 -0.9802
  190SAPI  H19S21913   1.378   3.600   4.195 -0.0383 -0.1491 -0.7648
  190SAPI  C22021914   1.400   3.771   4.059 -0.0152  0.1186 -0.2843
  190SAPI  H20R21915   1.458   3.866   4.061  0.9687 -0.4860  1.0117
  190SAPI  H20S21916   1.293   3.799   4.075  0.7790  2.1098  2.3405
  190SAPI  H20T21917   1.399   3.710   3.967 -1.4805  0.9698 -0.8630
  190SAPI   C3321918   1.568   2.625   5.379  0.1444  0.4450  0.5476
  190SAPI   H3X21919   1.668   2.577   5.386  0.5467  1.1866 -0.0790
  190SAPI   H3Y21920   1.572   2.735   5.391 -2.1276  0.4733  1.5511
  190SAPI   C3421921   1.498   2.602   5.245 -0.5643 -0.5828 -0.4267
  190SAPI   H4X21922   1.389   2.622   5.249 -0.6936 -1.0255 -1.4018
  190SAPI   H4Y21923   1.513   2.499   5.208 -2.2613 -2.1590  2.8607
  190SAPI   C3521924   1.532   2.717   5.154  0.0212 -0.4151 -0.1299
  190SAPI   H5X21925   1.638   2.744   5.133 -0.1510  1.7276  1.4536
  190SAPI   H5Y21926   1.469   2.803   5.187 -0.6851 -0.9627 -0.0208
  190SAPI   C3621927   1.489   2.689   5.012 -1.0925  0.7837 -0.5954
  190SAPI   H6X21928   1.393   2.633   5.019  0.0092 -1.0501  0.5859
  190SAPI   H6Y21929   1.551   2.613   4.960 -1.6835  1.0458 -1.7223
  190SAPI   C3721930   1.469   2.805   4.915  0.9710 -0.1723 -0.1078
  190SAPI   H7X21931   1.573   2.843   4.902  0.2989  0.7475 -5.5833
  190SAPI   H7Y21932   1.414   2.879   4.977  1.3616 -1.8879  2.4162
  190SAPI   C3821933   1.403   2.775   4.781  0.2151 -0.4216 -0.1270
  190SAPI   H8X21934   1.431   2.851   4.704  0.3993 -1.6156 -1.2670
  190SAPI   H8Y21935   1.293   2.775   4.795  0.2326 -2.0025  0.1422
  190SAPI   C3921936   1.447   2.648   4.717 -0.0860  0.0795  0.0199
  190SAPI   H9X21937   1.426   2.555   4.775 -1.0124  0.1932 -0.1296
  190SAPI   H9Y21938   1.558   2.641   4.724 -0.2028 -1.0460  1.4721
  190SAPI  C31021939   1.387   2.639   4.576 -1.3016  0.5594 -1.0013
  190SAPI  H10X21940   1.426   2.729   4.523  0.6051  1.1218  1.2134
  190SAPI  H10Y21941   1.277   2.652   4.590 -1.4074  0.0757 -1.3708
  190SAPI  C31121942   1.418   2.509   4.506  0.0713  0.2555  0.7899
  190SAPI  H11X21943   1.380   2.425   4.568  0.9928 -1.5619 -1.0064
  190SAPI  H11Y21944   1.528   2.499   4.497  0.0481  0.2505  0.5224
  190SAPI  C31221945   1.357   2.502   4.368 -0.5980 -0.7377  0.4460
  190SAPI  H12X21946   1.389   2.596   4.317  0.7672 -1.3847  0.0760
  190SAPI  H12Y21947   1.246   2.510   4.377 -0.6221 -0.8418  0.2394
  190SAPI  C31321948   1.384   2.371   4.282  0.2151 -0.4431  0.3114
  190SAPI  H13X21949   1.493   2.363   4.265 -0.0546 -2.3867 -0.6936
  190SAPI  H13Y21950   1.334   2.384   4.184  0.9758  0.5733  0.0360
  190SAPI  C31421951   1.319   2.245   4.338 -0.5223  0.8549  0.5505
  190SAPI  H14X21952   1.214   2.278   4.354 -0.1121  2.9805 -0.7344
  190SAPI  H14Y21953   1.369   2.211   4.431 -2.0488 -0.0531  1.0807
  190SAPI  C31521954   1.310   2.126   4.239  0.5016  0.0284  0.3558
  190SAPI  H15X21955   1.284   2.168   4.140  0.1835 -0.8631  0.0489
  190SAPI  H15Y21956   1.231   2.056   4.273  1.4878 -1.1347  0.3230
  190SAPI  C31621957   1.442   2.034   4.227  0.1990  0.0760 -0.2736
  190SAPI  H16X21958   1.525   2.106   4.208 -0.2337  1.0933  1.4877
  190SAPI  H16Y21959   1.429   1.961   4.144 -1.4543 -0.9238  0.8180
  190SAPI  C31721960   1.451   1.959   4.362 -0.0080  0.0838  0.4988
  190SAPI  H17X21961   1.352   1.926   4.398 -0.8763  1.4330 -0.5697
  190SAPI  H17Y21962   1.490   2.029   4.439  0.1075  0.0728  0.4514
  190SAPI  C31821963   1.544   1.834   4.362 -0.2328 -0.3036 -0.8877
  190SAPI  H18X21964   1.500   1.736   4.337  0.6547 -1.3321  1.3234
  190SAPI  H18Y21965   1.573   1.818   4.468  1.5079 -0.2672 -1.3234
  190SAPI  H18Z21966   1.642   1.853   4.313  0.6730 -0.2112  0.8857
  191SAPI   C1221967   6.003   4.283   1.929 -1.0261 -1.0917  0.2353
  191SAPI    H221968   6.055   4.229   2.010 -0.9536 -0.6551  0.4830
  191SAPI    O221969   6.113   4.323   1.854  0.5993  0.0048  0.8810
  191SAPI   HO221970   6.183   4.349   1.914 -0.0142  0.1864  1.5328
  191SAPI   C1321971   5.921   4.186   1.856 -0.1117 -0.2048  0.4443
  191SAPI    H321972   5.843   4.151   1.926 -0.7284  2.4632  1.2240
  191SAPI    O321973   6.002   4.071   1.813  0.0496  0.7734 -0.7408
  191SAPI   HO321974   6.093   4.098   1.796  0.8196 -0.7101  0.7234
  191SAPI   C1421975   5.849   4.259   1.734  0.3285  0.5000  0.3643
  191SAPI    H421976   5.934   4.278   1.665 -1.9007  2.8125 -2.0023
  191SAPI    O421977   5.754   4.170   1.673 -0.0978  0.5117  0.6666
  191SAPI   HO421978   5.794   4.114   1.606 -0.2575 -0.9501  1.7355
  191SAPI   C1521979   5.779   4.388   1.770 -0.7339  0.5585  0.4478
  191SAPI    H521980   5.685   4.378   1.829 -0.3930  1.3079  1.1389
  191SAPI    O521981   5.736   4.464   1.649 -0.5138 -0.1515  0.0218
  191SAPI   HO521982   5.640   4.471   1.647 -0.4958  0.5532  1.2725
  191SAPI   C1621983   5.870   4.477   1.860 -0.3565  0.3379  0.9065
  191SAPI    H621984   5.946   4.515   1.789 -2.1649  2.8197  0.1801
  191SAPI    O621985   5.809   4.595   1.902  0.3769  0.7300 -0.1411
  191SAPI   HO621986   5.825   4.596   1.997  0.2905  1.2100 -0.1278
  191SAPI   C1121987   5.929   4.408   1.973 -0.0579  0.3712 -0.2619
  191SAPI    H121988   5.850   4.371   2.042  0.5193  0.3429  0.3954
  191SAPI     P21989   5.951   4.558   2.204 -0.1650 -0.1784  0.1893
  191SAPI   O1321990   5.834   4.640   2.168  0.3364  0.1027 -0.6696
  191SAPI   O1421991   6.065   4.619   2.271  0.4332  0.2779 -0.4962
  191SAPI   O1221992   6.011   4.496   2.058  0.7141 -0.3043  0.3374
  191SAPI   O1121993   5.907   4.426   2.274 -0.1200 -0.2907  0.0702
  191SAPI    C121994   5.991   4.306   2.289 -0.0761 -0.0229  0.5437
  191SAPI    HA21995   5.939   4.220   2.241 -0.7391  1.0047 -0.6444
  191SAPI    HB21996   6.090   4.315   2.240 -0.5014  0.7601 -0.1996
  191SAPI    C221997   6.020   4.270   2.436  0.5080  0.2687 -0.6068
  191SAPI    HS21998   6.060   4.167   2.432  2.0998  0.8579 -0.5969
  191SAPI   O2121999   5.902   4.268   2.512 -0.2353  0.1900 -0.3812
  191SAPI   C2122000   5.821   4.162   2.484  0.7266 -0.3630 -0.1933
  191SAPI   O2222001   5.850   4.076   2.402  0.6091 -0.0567 -0.4637
  191SAPI   C2222002   5.703   4.155   2.580  0.0058 -0.0174 -0.1734
  191SAPI   H2R22003   5.624   4.222   2.540  2.1045  1.7231 -1.6567
  191SAPI   H2S22004   5.661   4.053   2.587 -2.4148  0.9227 -0.0394
  191SAPI    C322005   6.112   4.366   2.501  0.5543  0.6302 -0.0263
  191SAPI    HX22006   6.067   4.466   2.482 -3.1398 -0.8987 -0.3109
  191SAPI    HY22007   6.209   4.361   2.448  1.4861  3.0559  1.2947
  191SAPI   O3122008   6.122   4.331   2.642  0.3943 -0.0524 -0.0177
  191SAPI   C3122009   6.138   4.429   2.735 -0.1037 -0.2089 -0.9060
  191SAPI   O3222010   6.158   4.549   2.715  0.0284  0.0743 -0.1304
  191SAPI   C3222011   6.142   4.365   2.877  1.3261 -0.1738 -0.4621
  191SAPI   H2X22012   6.152   4.454   2.943 -1.2698 -1.8047  2.4115
  191SAPI   H2Y22013   6.236   4.311   2.898  1.5976 -0.3111 -1.9741
  191SAPI   C2322014   5.751   4.194   2.724  0.1901  0.1890  0.8532
  191SAPI   H3R22015   5.761   4.304   2.736 -1.5098  0.5311 -0.3948
  191SAPI   H3S22016   5.846   4.139   2.740  0.4370  0.6628  1.0065
  191SAPI   C2422017   5.652   4.150   2.838 -0.1356  0.2065 -0.0600
  191SAPI   H4R22018   5.696   4.118   2.935  0.2811 -0.6897 -0.5311
  191SAPI   H4S22019   5.599   4.058   2.806  2.2278  0.0144 -4.1824
  191SAPI   C2522020   5.543   4.252   2.857 -0.0994  0.3586  0.0883
  191SAPI   H5R22021   5.502   4.284   2.760 -0.4537 -0.0586  0.0948
  191SAPI   C2622022   5.495   4.301   2.975 -0.7403  0.2791  0.2542
  191SAPI   H6R22023   5.404   4.363   2.968 -0.9294  0.1848  1.7260
  191SAPI   C2722024   5.540   4.264   3.114  0.1016  0.6957 -0.3118
  191SAPI   H7R22025   5.593   4.166   3.111  1.4607  1.4259 -0.7489
  191SAPI   H7S22026   5.455   4.232   3.179 -1.1849 -0.0353 -2.2325
  191SAPI   C2822027   5.632   4.364   3.182 -0.3062  0.0254 -0.2039
  191SAPI   H8R22028   5.676   4.448   3.126  0.4622  0.5338  1.1178
  191SAPI   C2922029   5.652   4.375   3.311  0.0790 -0.3413 -0.8359
  191SAPI   H9R22030   5.721   4.453   3.346  3.0238 -2.7987 -0.7929
  191SAPI  C21022031   5.595   4.287   3.422 -0.0244 -0.3846 -0.1344
  191SAPI  H10R22032   5.660   4.288   3.513  1.4254 -0.7934 -1.1312
  191SAPI  H10S22033   5.601   4.184   3.382  2.8457 -1.0545  1.6803
  191SAPI  C21122034   5.450   4.342   3.444 -0.7214  0.5436  0.1521
  191SAPI  H11R22035   5.384   4.329   3.357  0.1539  0.4581 -0.5073
  191SAPI  C21222036   5.399   4.393   3.558  0.0609 -0.3194 -0.2493
  191SAPI  H12R22037   5.301   4.444   3.557 -0.2393 -0.8959 -0.1644
  191SAPI  C21322038   5.483   4.422   3.681  0.3118  0.0970 -0.3893
  191SAPI  H13R22039   5.575   4.476   3.647 -1.7701  2.9459 -1.9793
  191SAPI  H13S22040   5.524   4.335   3.735  0.0708 -0.1273 -0.5643
  191SAPI  C21422041   5.404   4.501   3.785  0.4802 -0.3477 -0.5214
  191SAPI  H14R22042   5.360   4.591   3.739 -0.8035 -0.6733  0.0289
  191SAPI  C21522043   5.385   4.464   3.914  0.8537  0.2875  0.0866
  191SAPI  H15R22044   5.319   4.517   3.983 -0.1276 -2.2693  1.2448
  191SAPI  C21622045   5.451   4.346   3.988 -0.5240 -0.3630 -0.1594
  191SAPI  H16R22046   5.466   4.266   3.912 -0.6348  0.2423 -0.8276
  191SAPI  H16S22047   5.381   4.301   4.061  0.4062 -1.3810  0.1425
  191SAPI  C21722048   5.581   4.379   4.059  0.1863 -0.6423 -0.8251
  191SAPI  H17R22049   5.652   4.430   3.991  0.1922 -0.4159 -0.6550
  191SAPI  H17S22050   5.619   4.280   4.090 -0.3591 -1.3986 -2.4475
  191SAPI  C21822051   5.556   4.467   4.183 -0.4204 -0.2863  0.5310
  191SAPI  H18R22052   5.489   4.411   4.251  0.2830 -0.5569  1.0154
  191SAPI  H18S22053   5.503   4.558   4.146  0.2158 -0.2489 -0.3257
  191SAPI  C21922054   5.684   4.526   4.248 -0.1482 -0.4309  1.0022
  191SAPI  H19R22055   5.738   4.569   4.161 -2.0783  1.0165  0.4652
  191SAPI  H19S22056   5.744   4.448   4.300  2.0221  0.3224 -0.2519
  191SAPI  C22022057   5.652   4.642   4.342 -0.4026 -0.1400  0.5084
  191SAPI  H20R22058   5.743   4.670   4.399  0.7381 -0.5486 -1.0319
  191SAPI  H20S22059   5.568   4.619   4.411 -0.5913  0.3988  0.4592
  191SAPI  H20T22060   5.616   4.723   4.276 -0.0418 -0.9551 -0.7425
  191SAPI   C3322061   6.023   4.291   2.930  0.5485  0.0922  0.9466
  191SAPI   H3X22062   6.024   4.196   2.873  0.8163 -0.1417  1.3346
  191SAPI   H3Y22063   5.930   4.345   2.903  0.3263 -0.0146  1.4728
  191SAPI   C3422064   6.035   4.270   3.081 -0.2529 -0.1786  0.6809
  191SAPI   H4X22065   5.933   4.236   3.110  0.8053 -3.5183  0.9122
  191SAPI   H4Y22066   6.050   4.376   3.111  0.6564  0.3334 -1.4451
  191SAPI   C3522067   6.141   4.179   3.126 -0.4281 -0.3611  0.6028
  191SAPI   H5X22068   6.240   4.217   3.093 -0.0643 -1.7570  0.0046
  191SAPI   H5Y22069   6.129   4.081   3.075 -1.0220  0.8539 -1.7312
  191SAPI   C3622070   6.121   4.147   3.275  0.0776 -0.0443 -0.4543
  191SAPI   H6X22071   6.014   4.117   3.276 -0.2596  1.1327  0.2581
  191SAPI   H6Y22072   6.120   4.242   3.333 -2.0339 -0.0985 -0.3456
  191SAPI   C3722073   6.222   4.042   3.331 -0.1830 -0.5580 -0.4376
  191SAPI   H7X22074   6.324   4.080   3.308 -0.8346  0.9145 -1.0438
  191SAPI   H7Y22075   6.197   3.950   3.274 -0.9444 -1.4165  1.2381
  191SAPI   C3822076   6.198   4.017   3.485 -0.1260  0.1277  0.1166
  191SAPI   H8X22077   6.232   3.913   3.506 -0.6478 -0.1071 -0.1858
  191SAPI   H8Y22078   6.091   4.012   3.513  0.0306 -0.2210  0.6671
  191SAPI   C3922079   6.271   4.121   3.566  0.2702  0.1569  0.0938
  191SAPI   H9X22080   6.212   4.214   3.582  0.0530 -0.1255  0.9835
  191SAPI   H9Y22081   6.351   4.165   3.503  1.3410  0.2161  1.4306
  191SAPI  C31022082   6.334   4.061   3.692 -0.2404 -0.0950 -0.2906
  191SAPI  H10X22083   6.412   3.982   3.680 -0.5221 -0.9304  2.6330
  191SAPI  H10Y22084   6.257   4.014   3.756  0.9479 -0.2712  1.0449
  191SAPI  C31122085   6.398   4.169   3.782  0.3976 -0.4530 -0.6323
  191SAPI  H11X22086   6.321   4.241   3.817 -0.8704 -2.3914  0.7653
  191SAPI  H11Y22087   6.479   4.222   3.729  1.4233  0.2420  1.5298
  191SAPI  C31222088   6.457   4.092   3.900  0.3730  0.3614  0.1167
  191SAPI  H12X22089   6.556   4.054   3.867  0.8433 -0.4438  2.2688
  191SAPI  H12Y22090   6.388   4.010   3.929 -0.7593  1.2452  0.0184
  191SAPI  C31322091   6.492   4.171   4.026 -0.2616  0.0895 -0.4576
  191SAPI  H13X22092   6.394   4.215   4.054 -1.9850 -0.9763 -4.1915
  191SAPI  H13Y22093   6.572   4.246   4.003  1.7200 -1.2576  1.5932
  191SAPI  C31422094   6.557   4.078   4.121 -0.1607 -0.4977  0.1262
  191SAPI  H14X22095   6.592   4.148   4.200 -0.9928  1.8868 -1.4892
  191SAPI  H14Y22096   6.650   4.029   4.087  0.1720  1.3223 -1.7590
  191SAPI  C31522097   6.466   3.985   4.205  0.6114 -0.5278 -0.2890
  191SAPI  H15X22098   6.533   3.906   4.245 -1.2421 -1.2736  1.5213
  191SAPI  H15Y22099   6.373   3.960   4.150  1.3178 -0.0177 -1.7654
  191SAPI  C31622100   6.410   4.057   4.338  0.0035 -0.4076  0.5128
  191SAPI  H16X22101   6.339   4.140   4.313 -0.4071 -0.6435  0.8718
  191SAPI  H16Y22102   6.493   4.101   4.398  0.0148 -1.7508  1.5430
  191SAPI  C31722103   6.330   3.948   4.416 -0.7889 -0.6203  0.5324
  191SAPI  H17X22104   6.408   3.878   4.454  0.9434 -1.0857 -3.3846
  191SAPI  H17Y22105   6.261   3.886   4.356 -2.4170  0.1706  1.5270
  191SAPI  C31822106   6.253   4.009   4.527 -0.2694  0.1163 -1.0996
  191SAPI  H18X22107   6.327   4.051   4.599 -0.9552  1.7872 -1.3166
  191SAPI  H18Y22108   6.192   3.938   4.586  0.5393 -0.0885 -0.4965
  191SAPI  H18Z22109   6.195   4.099   4.497  2.6762  3.0106  1.1261
  192SAPI   C1222110   1.372   2.613   1.855  0.5022 -0.2804 -0.3527
  192SAPI    H222111   1.457   2.543   1.869 -0.0211 -2.2228 -5.0822
  192SAPI    O222112   1.410   2.737   1.798  0.2202  0.2461 -0.1018
  192SAPI   HO222113   1.406   2.785   1.882  0.1730 -2.7725  1.7678
  192SAPI   C1322114   1.290   2.518   1.764 -0.0598  0.4620  0.0830
  192SAPI    H322115   1.281   2.422   1.820  0.2214 -0.5312 -1.4873
  192SAPI    O322116   1.344   2.470   1.645 -0.9337 -0.2476 -0.5730
  192SAPI   HO322117   1.274   2.435   1.590 -0.3721  0.6501 -1.9274
  192SAPI   C1422118   1.152   2.580   1.739 -0.8591 -0.6293 -0.9848
  192SAPI    H422119   1.168   2.658   1.661 -2.2013 -0.0687 -0.7288
  192SAPI    O422120   1.049   2.508   1.679  0.4301  0.2870 -0.1333
  192SAPI   HO422121   1.030   2.523   1.586 -2.9170  0.0314  0.3801
  192SAPI   C1522122   1.091   2.676   1.854 -0.4384 -0.2272 -0.1911
  192SAPI    H522123   1.029   2.600   1.906 -0.5006 -0.0103  0.0524
  192SAPI    O522124   1.012   2.781   1.796  0.3362 -0.5228 -0.3448
  192SAPI   HO522125   0.926   2.737   1.790 -0.1372  0.3129  0.1902
  192SAPI   C1622126   1.185   2.733   1.961 -0.3506  0.5344  0.3254
  192SAPI    H622127   1.227   2.830   1.927  0.2988 -0.5535 -2.1560
  192SAPI    O622128   1.108   2.759   2.075 -0.5937  0.2016 -0.2401
  192SAPI   HO622129   1.152   2.822   2.132 -0.2993  0.4257 -0.7133
  192SAPI   C1122130   1.303   2.647   1.989  0.5490  0.1688  0.2227
  192SAPI    H122131   1.254   2.559   2.037 -1.1572  1.5538  1.1606
  192SAPI     P22132   1.496   2.638   2.171 -0.2608  0.1110  0.2046
  192SAPI   O1322133   1.577   2.752   2.216 -0.5660 -0.2716 -0.7638
  192SAPI   O1422134   1.565   2.533   2.087 -0.0021 -0.5540 -0.4873
  192SAPI   O1222135   1.388   2.718   2.075 -0.8327 -0.4879  0.1588
  192SAPI   O1122136   1.417   2.571   2.285  0.0033 -0.1821  0.2734
  192SAPI    C122137   1.295   2.627   2.338 -0.2241 -0.3221 -0.1511
  192SAPI    HA22138   1.305   2.737   2.356 -0.5290 -0.5881  1.9112
  192SAPI    HB22139   1.208   2.612   2.271  0.3028 -0.4090 -0.8351
  192SAPI    C222140   1.258   2.577   2.492 -0.2466 -0.0659  0.6566
  192SAPI    HS22141   1.167   2.626   2.530  1.2961  2.2715  1.5332
  192SAPI   O2122142   1.363   2.605   2.590 -0.0182  0.5126  0.2439
  192SAPI   C2122143   1.381   2.735   2.608  0.6508  0.0338  0.4162
  192SAPI   O2222144   1.309   2.825   2.564  0.2053 -1.1069  0.1741
  192SAPI   C2222145   1.479   2.766   2.721 -0.4031 -0.4024  0.9102
  192SAPI   H2R22146   1.578   2.749   2.673  0.1967  2.4073  0.9707
  192SAPI   H2S22147   1.476   2.875   2.742  0.8258  0.0113 -0.8755
  192SAPI    C322148   1.235   2.426   2.478  0.4106 -0.0388 -0.3458
  192SAPI    HX22149   1.339   2.392   2.458  0.8168 -0.6941  2.4511
  192SAPI    HY22150   1.164   2.405   2.395 -0.5110 -0.8982  0.6386
  192SAPI   O3122151   1.177   2.360   2.594  0.0710  1.0005  0.0298
  192SAPI   C3122152   1.166   2.231   2.574 -0.1107  0.0911  0.4873
  192SAPI   O3222153   1.207   2.168   2.479  1.0073  0.2876  0.1380
  192SAPI   C3222154   1.090   2.160   2.688 -0.3641  0.1108 -0.1688
  192SAPI   H2X22155   1.169   2.105   2.742 -1.2597 -2.1061 -1.0156
  192SAPI   H2Y22156   1.029   2.083   2.636  1.9728 -1.9990  0.0137
  192SAPI   C2322157   1.453   2.692   2.853 -0.0647  0.4662 -0.1048
  192SAPI   H3R22158   1.527   2.700   2.936 -0.9799  2.3995  0.5700
  192SAPI   H3S22159   1.448   2.582   2.834 -1.8490  0.3344  0.9040
  192SAPI   C2422160   1.323   2.730   2.929 -0.5989  0.3356  0.7232
  192SAPI   H4R22161   1.312   2.652   3.007  0.9519  0.0931  0.7307
  192SAPI   H4S22162   1.241   2.743   2.856  1.7369 -0.5003 -2.2290
  192SAPI   C2522163   1.336   2.866   2.978 -0.3060  0.8300  0.1535
  192SAPI   H5R22164   1.362   2.945   2.906 -0.9576  2.4841  1.6510
  192SAPI   C2622165   1.320   2.900   3.109  0.1114 -0.3386 -0.4820
  192SAPI   H6R22166   1.340   3.003   3.141  0.2860 -0.4959 -0.0714
  192SAPI   C2722167   1.279   2.810   3.223 -0.0844 -0.3968 -0.5262
  192SAPI   H7R22168   1.244   2.707   3.197 -2.6662  0.3528 -0.2832
  192SAPI   H7S22169   1.191   2.860   3.268  1.7349  1.5137  1.0779
  192SAPI   C2822170   1.386   2.801   3.330 -0.4307  0.3464 -0.5846
  192SAPI   H8R22171   1.486   2.797   3.283 -0.9848 -1.1951 -1.7299
  192SAPI   C2922172   1.376   2.826   3.464 -0.1726  0.3862 -0.4821
  192SAPI   H9R22173   1.463   2.809   3.530 -0.1498  0.8917 -0.3792
  192SAPI  C21022174   1.239   2.850   3.529  0.2873 -0.5980  0.2282
  192SAPI  H10R22175   1.251   2.796   3.625 -0.5826 -0.7682  0.2514
  192SAPI  H10S22176   1.160   2.789   3.479 -0.6302  2.4666 -2.3701
  192SAPI  C21122177   1.197   2.995   3.536  0.1691  0.0757 -0.4786
  192SAPI  H11R22178   1.212   3.053   3.444 -3.6930  0.6316 -0.9396
  192SAPI  C21222179   1.152   3.066   3.645 -0.6603  0.1674  0.8302
  192SAPI  H12R22180   1.128   3.172   3.629  0.0347  0.0751 -1.0981
  192SAPI  C21322181   1.123   3.007   3.779 -0.2336 -0.0041  0.2241
  192SAPI  H13R22182   1.190   3.075   3.837  1.0897 -0.4982 -0.6900
  192SAPI  H13S22183   1.150   2.899   3.787 -1.6383 -0.3906 -0.0754
  192SAPI  C21422184   0.991   3.023   3.843 -0.2304 -0.5336  0.3599
  192SAPI  H14R22185   0.945   3.121   3.820 -0.0786 -0.1150  1.7603
  192SAPI  C21522186   0.917   2.936   3.908  0.0809 -0.1047 -0.5877
  192SAPI  H15R22187   0.815   2.970   3.933  0.2297  0.0117 -0.1428
  192SAPI  C21622188   0.958   2.788   3.936  0.2222  0.5071 -0.3825
  192SAPI  H16R22189   1.068   2.771   3.938 -0.0962 -2.3635 -1.5526
  192SAPI  H16S22190   0.919   2.719   3.858  1.4913 -0.8220  0.1010
  192SAPI  C21722191   0.873   2.752   4.056 -0.4563 -0.0178  0.0730
  192SAPI  H17R22192   0.770   2.739   4.014 -0.1153 -0.8795 -0.5196
  192SAPI  H17S22193   0.860   2.835   4.129  2.6312  0.9555 -0.3680
  192SAPI  C21822194   0.923   2.629   4.131  0.5192  0.4507 -0.0563
  192SAPI  H18R22195   0.861   2.624   4.224 -3.3708  0.0162 -2.4489
  192SAPI  H18S22196   1.029   2.651   4.156  1.3989 -2.9064 -0.3073
  192SAPI  C21922197   0.900   2.499   4.058 -0.1170  0.1605  0.6382
  192SAPI  H19R22198   0.966   2.500   3.969 -0.0833  0.1986  0.6637
  192SAPI  H19S22199   0.791   2.493   4.035  0.2076 -1.1479 -0.7455
  192SAPI  C22022200   0.941   2.377   4.146 -0.2492  0.3869  0.2762
  192SAPI  H20R22201   0.909   2.398   4.250 -0.2349 -0.9528  0.5676
  192SAPI  H20S22202   1.052   2.365   4.148 -0.2683  0.1892  0.2303
  192SAPI  H20T22203   0.910   2.276   4.112 -0.4206 -0.7298  3.3993
  192SAPI   C3322204   0.995   2.246   2.778 -0.3077  0.3144  0.0244
  192SAPI   H3X22205   0.914   2.181   2.817 -2.3407  1.2714 -2.2896
  192SAPI   H3Y22206   0.950   2.330   2.720  0.3361 -0.0813 -1.0718
  192SAPI   C3422207   1.063   2.319   2.903  0.4665  0.5224  0.2576
  192SAPI   H4X22208   1.163   2.353   2.869  0.3808 -0.1848 -0.7328
  192SAPI   H4Y22209   1.084   2.235   2.973  1.2376  1.2984  0.9856
  192SAPI   C3522210   0.970   2.422   2.963  0.1127  0.2119  0.1521
  192SAPI   H5X22211   0.893   2.372   3.026  1.5453 -0.1028  1.7234
  192SAPI   H5Y22212   0.924   2.488   2.886 -0.7574  0.9255  1.2466
  192SAPI   C3622213   1.037   2.520   3.059  0.9506 -0.0397  0.7538
  192SAPI   H6X22214   1.111   2.566   2.989  1.8885 -2.4699  0.0405
  192SAPI   H6Y22215   1.096   2.473   3.141 -0.0622  1.5938  2.5160
  192SAPI   C3722216   0.951   2.635   3.121 -0.4602  0.0023  0.1470
  192SAPI   H7X22217   0.887   2.670   3.037  2.5422  0.0808 -2.2803
  192SAPI   H7Y22218   1.018   2.719   3.148  1.7933 -1.1937 -1.3679
  192SAPI   C3822219   0.881   2.589   3.247 -0.5124  0.5681 -0.4765
  192SAPI   H8X22220   0.833   2.489   3.237  0.2985  0.2701 -1.6299
  192SAPI   H8Y22221   0.803   2.665   3.269 -0.8605  0.4934 -1.3998
  192SAPI   C3922222   0.980   2.566   3.363  0.6817 -0.5191 -0.0036
  192SAPI   H9X22223   1.063   2.640   3.359 -0.2438  1.0663  4.1987
  192SAPI   H9Y22224   1.038   2.472   3.359  3.0742  0.8051  1.2807
  192SAPI  C31022225   0.914   2.570   3.499 -0.5582 -0.8632 -0.7350
  192SAPI  H10X22226   0.812   2.615   3.502 -0.3700 -0.4798  0.5093
  192SAPI  H10Y22227   0.975   2.636   3.565 -2.1821 -1.3142  1.3550
  192SAPI  C31122228   0.889   2.435   3.573  0.7620 -0.0100  0.2575
  192SAPI  H11X22229   0.861   2.358   3.498  0.0889  0.6892 -0.2214
  192SAPI  H11Y22230   0.805   2.467   3.638  1.0246  1.7470 -0.2092
  192SAPI  C31222231   1.004   2.387   3.660 -0.2108  0.0766  0.5377
  192SAPI  H12X22232   1.030   2.466   3.733  1.1789  0.4322 -0.2851
  192SAPI  H12Y22233   1.095   2.383   3.596  0.6355 -1.5029  1.7810
  192SAPI  C31322234   0.982   2.250   3.730  0.9808  0.3818  0.2896
  192SAPI  H13X22235   0.981   2.172   3.651 -1.2459 -0.2113  0.8527
  192SAPI  H13Y22236   0.884   2.248   3.782  0.5616  0.2319 -0.4929
  192SAPI  C31422237   1.095   2.216   3.828  0.0716  0.2572  0.4290
  192SAPI  H14X22238   1.097   2.285   3.915  0.3731  0.0443  0.5905
  192SAPI  H14Y22239   1.190   2.235   3.774 -0.7239 -0.9523 -1.5362
  192SAPI  C31522240   1.083   2.071   3.878 -0.2750 -0.0211 -0.0418
  192SAPI  H15X22241   0.980   2.053   3.914 -1.0746 -1.9210 -2.9634
  192SAPI  H15Y22242   1.161   2.060   3.957  0.1888  0.5932 -0.4020
  192SAPI  C31622243   1.111   1.964   3.773 -0.2905 -0.9690 -0.4846
  192SAPI  H16X22244   1.213   1.971   3.730  0.1513  0.9229  0.7644
  192SAPI  H16Y22245   1.042   1.979   3.686  0.7710 -2.0937 -1.5622
  192SAPI  C31722246   1.085   1.831   3.831  0.6297 -0.2968  0.0026
  192SAPI  H17X22247   1.056   1.752   3.758  0.9799 -2.1721  1.7993
  192SAPI  H17Y22248   0.993   1.838   3.893  0.6041  1.0554 -0.1609
  192SAPI  C31822249   1.194   1.764   3.906  0.1505 -0.0532  0.1808
  192SAPI  H18X22250   1.283   1.762   3.839  0.2310 -0.7239  0.3036
  192SAPI  H18Y22251   1.167   1.658   3.924 -1.7332  0.6843  2.0714
  192SAPI  H18Z22252   1.226   1.809   4.002 -1.3908  0.5232  0.4572
  193SOD    SOD22253   5.384   2.376   2.400  0.7468  0.0993 -0.3736
  194SOD    SOD22254   4.290   2.854   1.263 -0.0629 -0.0776  0.4378
  195SOD    SOD22255   4.340   4.750   1.718 -0.3480 -0.2481  0.2331
  196SOD    SOD22256   3.795   5.560   8.176  0.0112  0.3315  0.2554
  197SOD    SOD22257   5.095   6.671   7.791  0.3074  0.7492 -0.2430
  198SOD    SOD22258   3.410   4.673   2.381 -0.3182 -0.8097  0.0222
  199SOD    SOD22259   3.388   0.570   0.775 -0.0538 -0.3231 -0.8839
  200SOD    SOD22260   6.757   3.164   2.173  0.4769  0.2765  0.2172
  201SOD    SOD22261   4.852   0.701   6.261 -0.3380  0.1459  0.4780
  202SOD    SOD22262   0.882   4.188   0.362 -0.2767 -0.4304  0.1791
  203SOD    SOD22263   6.763   2.136   1.821  0.1471  0.2110 -0.1242
  204SOD    SOD22264   5.579   3.824   2.073  0.5003 -0.0243 -0.1029
  205SOD    SOD22265   3.003   2.662   8.667  0.2547  0.0241  0.0581
  206SOD    SOD22266   4.955   3.981   1.823  0.1310  0.3140 -0.3714
  207SOD    SOD22267   3.384   1.298   8.640  0.5604 -0.4819  0.0393
  208SOD    SOD22268   1.775   1.447   6.981  0.0084  0.6579  0.3584
  209SOD    SOD22269   5.504   6.160   7.131  0.3861 -0.3114 -0.7486
  210SOD    SOD22270   5.410   4.896   1.238 -0.0256 -0.3002  0.1910
  211SOD    SOD22271   1.631   5.459   7.267  0.3958 -0.6677  0.2874
  212SOD    SOD22272   6.033   4.835   8.003  0.8046 -0.0062  0.3791
  213SOD    SOD22273   6.411   2.466   7.780  0.1313  0.2930 -0.0073
  214SOD    SOD22274   6.753   1.862   7.157  0.4401  0.2836 -0.5321
  215SOD    SOD22275   2.232   3.262   0.791 -0.3885 -0.2813  0.1201
  216SOD    SOD22276   6.020   3.169   6.524  0.1706  0.3361  0.1886
  217SOD    SOD22277   1.549   3.798   1.468 -0.3821  0.0464  0.0720
  218SOD    SOD22278   2.903   4.487   6.315  0.1412  0.2417  0.0999
  219SOD    SOD22279   6.608   6.574   7.161  0.0605 -0.2115  0.3358
  220SOD    SOD22280   2.756   1.624   1.055 -0.5018  0.3018  0.7680
  221SOD    SOD22281   3.899   4.104   6.993 -0.1895 -0.3980 -0.1129
  222SOD    SOD22282   0.248   5.625   0.451  0.0034  0.5365 -0.2661
  223SOD    SOD22283   0.693   0.757   1.259 -0.4641  0.1703  0.0601
  224SOD    SOD22284   5.632   6.527   6.467  0.2270  0.2960 -0.1063
  225SOD    SOD22285   0.149   5.262   8.204  0.1378  0.3718  0.1743
  226SOD    SOD22286   2.684   1.259   6.246  0.0317 -0.5924  0.1249
  227SOD    SOD22287   1.035   1.555   1.566 -0.2636 -0.4755 -0.0282
  228SOD    SOD22288   3.202   2.139   1.292  0.1162  0.2395  0.4860
  229SOD    SOD22289   5.192   4.672   6.443 -0.5750  0.5707 -0.1815
  230SOD    SOD22290   4.572   0.737   6.953 -0.2283  0.7575 -0.6412
  231SOD    SOD22291   4.532   1.914   0.755 -0.2033  0.6325 -0.0354
  232SOD    SOD22292   4.705   1.371   7.080  0.0420 -0.3017 -0.0017
  233SOD    SOD22293   0.176   4.889   0.267 -0.5281  0.1452 -0.0897
  234CLA    CLA22294   3.485   5.168   8.178  0.2980 -0.0361  0.0473
  235CLA    CLA22295   0.156   5.317   1.515  0.3598  0.0443 -0.3989
  236CLA    CLA22296   0.967   1.200   1.199  0.2926  0.1869  0.1573
  237CLA    CLA22297   0.335   0.483   0.213  0.0043 -0.2097  0.1645
  238CLA    CLA22298   3.812   0.326   7.400  0.5247 -0.0798 -0.1364
  239CLA    CLA22299   0.049   5.707   8.416 -0.0950 -0.5408  0.1466
  240CLA    CLA22300   5.926   4.582   0.022  0.4018  0.3408 -0.0225
  241CLA    CLA22301   2.573   5.495   8.005  0.0369  0.0375 -0.1262
  242CLA    CLA22302   2.656   2.034   1.642 -0.1385 -0.4287 -0.2346
  243CLA    CLA22303   0.831   1.724   8.211  0.1873  0.2119  0.0612
  244CLA    CLA22304   4.823   6.002   7.594  0.1529  0.1243 -0.3802
  245CLA    CLA22305   5.882   3.640   0.324  0.0365 -0.0045 -0.0923
  246CLA    CLA22306   3.649   5.815   0.244  0.3211  0.6141  0.1290
  247CLA    CLA22307   2.894   2.789   0.550  0.4210  0.0345 -0.1556
  248CLA    CLA22308   2.481   2.358   0.951  0.1816 -0.0380  0.1048
  249CLA    CLA22309   1.071   4.485   0.091 -0.0449  0.2715  0.2702
  250CLA    CLA22310   1.292   1.089   7.602  0.3197 -0.5341 -0.7428
  251TIP3   OH222311   3.731   6.504   7.463 -0.3123 -0.0774  0.5353
  251TIP3    H122312   3.643   6.481   7.434  0.0881 -0.1646 -0.6628
  251TIP3    H222313   3.732   6.482   7.557 -1.2584 -0.9692  0.3581
  252TIP3   OH222314   3.733   4.818   8.118  0.3521 -1.2482  0.3274
  252TIP3    H122315   3.770   4.870   8.190  0.6504 -0.2255 -0.5530
  252TIP3    H222316   3.725   4.730   8.155  1.0635 -0.8757  1.4251
  253TIP3   OH222317   2.530   0.355   7.203 -0.2369  0.2195 -0.6780
  253TIP3    H122318   2.573   0.289   7.257 -0.5059  1.1233  0.6757
  253TIP3    H222319   2.482   0.410   7.265 -1.0733  0.9135 -1.8957
  254TIP3   OH222320   5.584   0.230   1.437 -0.1360  0.6405 -0.0744
  254TIP3    H122321   5.550   0.170   1.503  1.4475  0.7672  0.9147
  254TIP3    H222322   5.631   0.297   1.487 -1.1450  2.2569 -1.1997
  255TIP3   OH222323   1.525   1.101   6.848  0.0582  0.0295 -0.3956
  255TIP3    H122324   1.451   1.047   6.820  1.0638 -1.2416 -0.7466
  255TIP3    H222325   1.543   1.074   6.938  0.7201 -0.4320 -0.6536
  256TIP3   OH222326   0.317   1.247   8.383  0.5571  0.1413 -0.1126
  256TIP3    H122327   0.249   1.184   8.409  0.6873  0.7315  1.8163
  256TIP3    H222328   0.399   1.201   8.401  0.6522  0.8116  1.2823
  257TIP3   OH222329   5.150   4.231   8.424  0.0581 -0.1341 -0.2890
  257TIP3    H122330   5.098   4.200   8.350 -0.2118  0.0410 -0.1775
  257TIP3    H222331   5.144   4.326   8.419  1.6244 -0.0604 -1.1540
  258TIP3   OH222332   4.834   5.201   0.520  0.5666 -0.3219 -1.2007
  258TIP3    H122333   4.886   5.261   0.466  0.1646  0.5100 -0.6951
  258TIP3    H222334   4.875   5.116   0.509  1.4794  0.1487 -1.5243
  259TIP3   OH222335   4.049   0.440   1.430 -0.0028  0.2288  0.5675
  259TIP3    H122336   3.974   0.500   1.430 -0.4066 -0.2015  2.7483
  259TIP3    H222337   4.125   0.497   1.440 -0.2920  0.4597  1.4871
  260TIP3   OH222338   2.570   1.584   0.932  0.0154 -1.0170  0.0592
  260TIP3    H122339   2.518   1.628   0.865 -0.1364  2.3425  2.1571
  260TIP3    H222340   2.507   1.535   0.984 -0.3941 -0.7266 -0.1636
  261TIP3   OH222341   1.277   4.465   1.763  0.2023  0.1740  0.0262
  261TIP3    H122342   1.302   4.413   1.839  0.4556  0.5571  0.2040
  261TIP3    H222343   1.267   4.554   1.797  1.8983  0.6765 -0.6855
  262TIP3   OH222344   2.181   2.268   1.372  0.6549 -0.0610 -0.5076
  262TIP3    H122345   2.107   2.259   1.431 -0.7311  1.0210 -2.0025
  262TIP3    H222346   2.167   2.202   1.304  0.7673  0.4688 -1.0634
  263TIP3   OH222347   4.101   1.093   2.364  0.4233  0.1498 -0.1428
  263TIP3    H122348   4.085   1.154   2.292 -0.7731  2.0801  1.6438
  263TIP3    H222349   4.015   1.055   2.382  0.7322 -0.3790  0.2314
  264TIP3   OH222350   3.053   5.590   7.730 -0.2731 -0.7491  0.3081
  264TIP3    H122351   2.963   5.569   7.754  0.0378 -2.1189  0.3428
  264TIP3    H222352   3.103   5.581   7.811  0.0215 -0.7561  0.1285
  265TIP3   OH222353   4.360   4.869   0.461 -0.0591  0.0523 -0.7181
  265TIP3    H122354   4.382   4.788   0.414  1.1163 -0.2661  0.3220
  265TIP3    H222355   4.331   4.929   0.393  1.4075 -0.4503 -1.8351
  266TIP3   OH222356   2.150   3.828   7.310  0.2014 -0.5316  0.6686
  266TIP3    H122357   2.084   3.842   7.243  1.5761  0.0176 -0.6210
  266TIP3    H222358   2.233   3.848   7.267  1.5137 -3.6934  1.4161
  267TIP3   OH222359   5.475   1.769   6.903 -0.0303 -0.0090 -0.1100
  267TIP3    H122360   5.558   1.816   6.890 -0.7213  0.7072 -2.3558
  267TIP3    H222361   5.408   1.835   6.884 -1.0530 -1.5473 -2.2522
  268TIP3   OH222362   3.044   0.310   0.065 -0.3688  0.1977  0.3325
  268TIP3    H122363   3.084   0.236   0.019 -0.2472  0.2431  0.3643
  268TIP3    H222364   3.005   0.272   0.143 -0.0567  0.2080  0.4976
  269TIP3   OH222365   1.890   4.044   1.454 -0.5231 -0.0626 -0.2718
  269TIP3    H122366   1.861   4.078   1.539 -1.4723  0.4932 -0.8082
  269TIP3    H222367   1.812   4.006   1.415 -0.5511  1.4101 -1.7245
  270TIP3   OH222368   1.336   2.275   0.326  0.1227 -0.2113 -1.0670
  270TIP3    H122369   1.307   2.186   0.311 -0.5113 -0.3965  1.0071
  270TIP3    H222370   1.257   2.328   0.321  0.5067  0.2759 -2.3756
  271TIP3   OH222371   4.340   0.609   0.236  0.3465  0.2166  0.4571
  271TIP3    H122372   4.342   0.529   0.288 -0.7945  0.1567  0.4313
  271TIP3    H222373   4.248   0.636   0.236  0.4392  0.6347 -0.8772
  272TIP3   OH222374   1.233   3.759   7.178  0.3597  0.4579  0.2160
  272TIP3    H122375   1.235   3.669   7.209 -0.5591  0.5867  0.7067
  272TIP3    H222376   1.324   3.779   7.155  0.2117 -1.4202 -2.3953
  273TIP3   OH222377   1.309   1.972   0.298 -0.6614 -0.1926  0.2935
  273TIP3    H122378   1.280   1.981   0.208  1.5957  2.7355 -0.2861
  273TIP3    H222379   1.398   1.936   0.291 -0.6464 -0.4246  1.4078
  274TIP3   OH222380   2.134   1.015   0.052  0.0795 -0.1806 -0.2549
  274TIP3    H122381   2.058   0.992  -0.001 -0.0708 -0.5563  0.1181
  274TIP3    H222382   2.194   1.059  -0.009 -1.3454  2.0990 -0.0947
  275TIP3   OH222383   0.606   3.407   6.260 -0.0725 -0.0575  0.3263
  275TIP3    H122384   0.529   3.457   6.233  0.8205  0.9784 -0.3976
  275TIP3    H222385   0.589   3.385   6.352 -1.2754  0.0503  0.1439
  276TIP3   OH222386   4.375   1.789   8.753  0.2263 -0.5564  0.1789
  276TIP3    H122387   4.280   1.784   8.746  0.2343  0.7512 -1.5075
  276TIP3    H222388   4.394   1.883   8.755  1.5065 -0.7994  0.2833
  277TIP3   OH222389   6.433   1.710   1.212  0.5622  0.2116 -0.3530
  277TIP3    H122390   6.385   1.793   1.203  0.1057 -0.1294 -1.1998
  277TIP3    H222391   6.506   1.717   1.150 -0.6308 -0.7861 -1.9781
  278TIP3   OH222392   5.435   1.687   8.700  0.4854 -0.0036  0.5724
  278TIP3    H122393   5.455   1.655   8.789  1.5489  4.6021  2.3170
  278TIP3    H222394   5.520   1.717   8.667 -0.3279  0.8518 -0.8222
  279TIP3   OH222395   0.877   0.457   0.160  0.2029  0.1273  0.1762
  279TIP3    H122396   0.844   0.502   0.083  0.8213 -0.3520 -0.3801
  279TIP3    H222397   0.857   0.516   0.233 -0.7170  0.4171 -0.2933
  280TIP3   OH222398   4.644   1.740   6.236  0.1924 -0.1947 -0.1749
  280TIP3    H122399   4.561   1.708   6.272 -0.0154  1.6692  1.1918
  280TIP3    H222400   4.711   1.691   6.282 -0.1406 -0.4833  0.0054
  281TIP3   OH222401   0.656   6.633   0.535  0.1188 -0.2412 -0.6134
  281TIP3    H122402   0.700   6.622   0.451  2.3695  0.6067  0.3646
  281TIP3    H222403   0.726   6.658   0.595 -1.9002  2.5893  0.7968
  282TIP3   OH222404   5.241   0.212   7.829  0.2415 -0.8975 -0.3663
  282TIP3    H122405   5.252   0.306   7.815 -1.6305 -0.9414 -2.6364
  282TIP3    H222406   5.321   0.185   7.874  0.7644  1.7756  0.4550
  283TIP3   OH222407   0.747   4.114   6.901 -0.3172 -0.2345 -0.5819
  283TIP3    H122408   0.818   4.136   6.962 -0.9507 -1.0698  0.4740
  283TIP3    H222409   0.671   4.100   6.956 -0.5748 -2.4724 -1.4056
  284TIP3   OH222410   3.856   1.500   0.285  0.4281 -0.0842 -0.1134
  284TIP3    H122411   3.891   1.470   0.369 -0.7351  0.2948  0.5295
  284TIP3    H222412   3.800   1.574   0.308 -2.9037 -2.2012 -0.6984
  285TIP3   OH222413   3.800   5.703   7.817 -0.5646  0.5230 -0.5535
  285TIP3    H122414   3.826   5.611   7.810 -1.2434  0.1428  1.3181
  285TIP3    H222415   3.734   5.714   7.748 -1.1994 -0.6905 -0.1705
  286TIP3   OH222416   5.011   3.141   6.676 -0.3123  0.0338 -0.2396
  286TIP3    H122417   4.980   3.083   6.606  1.9411  0.1861 -1.4828
  286TIP3    H222418   5.050   3.083   6.740 -1.3287 -0.0298  0.3342
  287TIP3   OH222419   1.768   2.830   0.024 -0.2830 -0.0180 -0.9235
  287TIP3    H122420   1.708   2.896  -0.013 -0.3205  0.3914 -0.1531
  287TIP3    H222421   1.742   2.748  -0.018 -1.2397  0.1934 -0.7703
  288TIP3   OH222422   4.997   1.324   2.005  0.6803  0.0635 -0.6929
  288TIP3    H122423   5.086   1.357   1.988  0.7339  0.0951 -0.3600
  288TIP3    H222424   4.999   1.298   2.097  0.3384  0.0762 -0.6828
  289TIP3   OH222425   1.930   2.811   0.235  0.5377 -0.1936 -0.3415
  289TIP3    H122426   1.933   2.904   0.256 -1.3124  0.2149 -1.6720
  289TIP3    H222427   1.888   2.807   0.149  2.1388 -2.1661 -1.1121
  290TIP3   OH222428   0.548   0.909   2.158  0.0281 -0.1204  0.5664
  290TIP3    H122429   0.460   0.945   2.151 -0.2112 -0.4852  1.5262
  290TIP3    H222430   0.534   0.817   2.179  0.6031 -1.0372 -2.5192
  291TIP3   OH222431   4.886   4.641   0.636  0.3207  0.0859  0.2380
  291TIP3    H122432   4.915   4.569   0.692 -0.7976 -0.2029  0.4837
  291TIP3    H222433   4.959   4.702   0.636  1.0990 -0.8140  0.4355
  292TIP3   OH222434   3.701   4.816   7.060 -0.4880  0.1043  0.9361
  292TIP3    H122435   3.612   4.849   7.076 -0.3981  1.3433 -0.8983
  292TIP3    H222436   3.688   4.738   7.006 -0.4885 -0.2629  1.4589
  293TIP3   OH222437   5.251   4.559   6.217 -0.3647 -0.0606  0.0208
  293TIP3    H122438   5.322   4.500   6.189  1.2050  1.7220  0.0559
  293TIP3    H222439   5.173   4.524   6.175  0.3598 -2.5244  0.5445
  294TIP3   OH222440   1.627   0.107   1.627  0.7534  0.3712  0.0843
  294TIP3    H122441   1.610   0.013   1.637  0.6178  0.5789  2.1096
  294TIP3    H222442   1.597   0.127   1.538  0.0305 -1.3343 -0.0929
  295TIP3   OH222443   3.166   3.507   7.928 -0.0354 -0.0290 -0.0537
  295TIP3    H122444   3.086   3.549   7.961  0.3525  0.4615  0.2820
  295TIP3    H222445   3.194   3.563   7.856 -0.8902 -1.1109 -1.2752
  296TIP3   OH222446   0.757   0.147   7.456 -0.1208 -0.1872 -0.9285
  296TIP3    H122447   0.768   0.229   7.407  0.3739 -0.7898 -1.8492
  296TIP3    H222448   0.811   0.083   7.409 -1.0845 -1.2299 -0.6660
  297TIP3   OH222449   2.923   1.375   1.320 -0.3779  0.0246 -0.4166
  297TIP3    H122450   2.943   1.410   1.407  1.4274 -0.6015 -0.5312
  297TIP3    H222451   2.914   1.280   1.335  2.5027 -0.4824 -1.2056
  298TIP3   OH222452   6.196   4.116   0.470 -0.4403  0.4588 -0.3835
  298TIP3    H122453   6.181   4.085   0.559 -1.2769  0.1972 -0.6089
  298TIP3    H222454   6.120   4.086   0.421  0.3661 -0.0544 -1.3592
  299TIP3   OH222455   0.074   2.888   6.229 -0.8980  0.3832 -0.2381
  299TIP3    H122456   0.126   2.967   6.213 -1.9806  1.0064 -0.8035
  299TIP3    H222457   0.019   2.879   6.151  0.4829 -2.0003 -1.0446
  300TIP3   OH222458   1.623   2.066   8.367  0.2160 -0.1692 -0.6150
  300TIP3    H122459   1.689   2.062   8.436  1.0788 -0.7195 -1.4517
  300TIP3    H222460   1.548   2.110   8.408  0.5849 -0.7766  0.7605
  301TIP3   OH222461   1.375   5.011   1.002 -0.1484  0.0755 -0.6152
  301TIP3    H122462   1.283   5.009   1.027 -0.0139 -0.1010 -0.1185
  301TIP3    H222463   1.422   4.994   1.084  0.4005  2.4734 -0.3374
  302TIP3   OH222464   3.750   0.155   0.887 -0.1694 -0.0981  0.1485
  302TIP3    H122465   3.697   0.224   0.847  0.3099  0.2755  0.1522
  302TIP3    H222466   3.691   0.079   0.890 -0.3702 -0.0034 -0.8248
  303TIP3   OH222467   2.830   2.793   8.740 -0.2363 -0.3595  0.5877
  303TIP3    H122468   2.753   2.737   8.730  0.9510 -1.9181 -0.4203
  303TIP3    H222469   2.834   2.813   8.834 -1.2753 -1.1508  0.8155
  304TIP3   OH222470   0.131   4.436   7.721 -0.3643 -0.2162  0.2612
  304TIP3    H122471   0.143   4.516   7.669 -0.2430  1.4565  2.6995
  304TIP3    H222472   0.219   4.410   7.746 -0.3932 -1.2420 -0.6287
  305TIP3   OH222473   2.235   5.557   8.755  0.3059  0.9654  0.0370
  305TIP3    H122474   2.192   5.532   8.837 -0.6160  0.9599 -0.4296
  305TIP3    H222475   2.256   5.649   8.766 -1.4222  1.4494 -0.3603
  306TIP3   OH222476   2.737   6.386   1.236  0.2714  0.1719  0.0637
  306TIP3    H122477   2.804   6.364   1.171  0.4322  3.5345 -1.0941
  306TIP3    H222478   2.785   6.431   1.306 -0.6334  2.4918 -0.7147
  307TIP3   OH222479   6.328   0.561   6.843 -0.5342  0.0571 -0.0927
  307TIP3    H122480   6.345   0.476   6.801  0.5548  0.4280 -0.4403
  307TIP3    H222481   6.398   0.570   6.907  0.4178  1.4634 -1.2744
  308TIP3   OH222482   6.336   2.919   0.668  0.3730 -0.3760 -0.3440
  308TIP3    H122483   6.243   2.912   0.688  0.1791  1.3780 -0.5502
  308TIP3    H222484   6.342   2.983   0.597  1.8489  0.8158  0.7871
  309TIP3   OH222485   2.163   1.664   2.258  0.3734  0.1975 -0.2514
  309TIP3    H122486   2.090   1.696   2.205  0.3732  2.9186  1.1887
  309TIP3    H222487   2.240   1.706   2.221  0.7358 -0.0025  0.2616
  310TIP3   OH222488   3.605   6.137   0.314 -0.3612 -0.1163 -0.3830
  310TIP3    H122489   3.602   6.062   0.254 -1.0462 -0.5881  0.2127
  310TIP3    H222490   3.608   6.097   0.401 -1.2044  0.5381 -0.0345
  311TIP3   OH222491   3.109   3.368   7.665  0.1096 -0.3086 -0.3787
  311TIP3    H122492   3.029   3.324   7.695  1.9306 -3.6482  0.0805
  311TIP3    H222493   3.128   3.432   7.732 -1.8038  0.1057 -0.1765
  312TIP3   OH222494   3.385   5.644   0.159 -0.4628 -0.0562  0.1627
  312TIP3    H122495   3.433   5.625   0.078  0.1139 -2.0222  0.9262
  312TIP3    H222496   3.416   5.731   0.185  2.2461 -0.9749  0.2698
  313TIP3   OH222497   1.002   4.437   0.730 -0.0394  0.6827 -0.2109
  313TIP3    H122498   0.945   4.455   0.805  0.7068 -0.5272  0.6720
  313TIP3    H222499   1.075   4.387   0.766 -0.5965 -1.6301 -2.0473
  314TIP3   OH222500   4.832   0.502   0.890 -0.1569 -0.3012 -0.3624
  314TIP3    H122501   4.753   0.556   0.883  0.1244  0.2132  0.2344
  314TIP3    H222502   4.876   0.513   0.806  1.2771  2.6690  0.6146
  315TIP3   OH222503   5.423   5.294   8.670  0.1984 -0.2610  0.5135
  315TIP3    H122504   5.505   5.248   8.653 -0.0612 -0.5800  0.0926
  315TIP3    H222505   5.438   5.341   8.752  1.0011  0.1572  0.1408
  316TIP3   OH222506   4.927   4.231   6.882 -0.2626 -0.4006 -0.7173
  316TIP3    H122507   4.929   4.284   6.961 -1.0483 -0.3361 -0.7264
  316TIP3    H222508   5.002   4.261   6.830 -0.6733  0.6795 -0.7031
  317TIP3   OH222509   3.113   2.062   1.085  0.2580  0.2194 -0.0617
  317TIP3    H122510   3.149   1.981   1.048  1.1274  0.1747  0.8150
  317TIP3    H222511   3.020   2.060   1.064  0.6922  0.1789 -2.1656
  318TIP3   OH222512   0.326   3.705   7.556  0.2758  0.0102 -0.5356
  318TIP3    H122513   0.371   3.761   7.620  0.7196  0.9230 -1.6223
  318TIP3    H222514   0.360   3.617   7.573  1.4563  0.4656 -0.4405
  319TIP3   OH222515   3.317   5.736   1.257 -0.0981 -0.3794  0.1360
  319TIP3    H122516   3.406   5.768   1.269  0.0442 -0.6377 -0.2148
  319TIP3    H222517   3.313   5.710   1.165 -0.4538 -0.6262  0.2189
  320TIP3   OH222518   4.592   5.041   8.337  0.5790  0.1032 -0.0285
  320TIP3    H122519   4.686   5.030   8.346  0.6156  0.7772  0.4833
  320TIP3    H222520   4.580   5.134   8.322  0.1647 -0.2865 -2.5756
  321TIP3   OH222521   5.839   0.167   0.509  0.1033  0.1266  0.1434
  321TIP3    H122522   5.827   0.116   0.589 -0.0696 -2.4266 -1.3937
  321TIP3    H222523   5.932   0.188   0.508  0.1693 -0.0980  0.8493
  322TIP3   OH222524   4.220   5.726   6.964 -0.3043 -0.3322  0.1085
  322TIP3    H122525   4.250   5.755   7.050 -1.7759 -2.4609  1.4595
  322TIP3    H222526   4.299   5.723   6.910  0.6375  1.1763  1.3268
  323TIP3   OH222527   1.374   6.050   8.577 -0.1408 -0.2092  0.7320
  323TIP3    H122528   1.359   6.066   8.670 -0.5888 -0.2648  0.6708
  323TIP3    H222529   1.290   6.019   8.544  0.0056 -0.1527  0.3013
  324TIP3   OH222530   3.871   6.055   0.217 -0.1216 -0.0374 -0.0028
  324TIP3    H122531   3.918   6.077   0.297 -2.0489  2.5488  0.5807
  324TIP3    H222532   3.809   5.987   0.244 -0.4596  0.5074  0.6415
  325TIP3   OH222533   3.806   2.832   1.767 -0.2035  0.1605 -0.4555
  325TIP3    H122534   3.898   2.814   1.750  0.0588 -0.0519  1.1284
  325TIP3    H222535   3.792   2.920   1.731  0.4172 -0.0851 -1.3403
  326TIP3   OH222536   0.801   2.956   1.605  0.3540 -0.2221 -0.2643
  326TIP3    H122537   0.759   2.979   1.687  0.2527 -3.1911  0.6455
  326TIP3    H222538   0.894   2.946   1.627  0.1023 -2.6297 -0.0163
  327TIP3   OH222539   1.886   1.961   2.002  0.0483 -0.1906 -0.6600
  327TIP3    H122540   1.935   1.965   2.084  1.4978 -0.0915 -1.4917
  327TIP3    H222541   1.877   2.053   1.975 -2.3128 -0.0369  0.4085
  328TIP3   OH222542   6.280   6.353   1.720  0.0551 -0.5152  0.1289
  328TIP3    H122543   6.246   6.299   1.791  0.8227 -1.2425 -0.0474
  328TIP3    H222544   6.202   6.391   1.680 -0.5016 -1.5001  0.2471
  329TIP3   OH222545   6.707   2.384   1.719 -0.1233 -0.4052 -0.5382
  329TIP3    H122546   6.704   2.382   1.624  0.1768  0.2964 -0.5729
  329TIP3    H222547   6.789   2.430   1.739 -0.2424 -0.4420  0.0536
  330TIP3   OH222548   2.439   2.341   0.645  0.3144  0.4574  0.2422
  330TIP3    H122549   2.527   2.360   0.612  0.2929 -1.5128 -1.1408
  330TIP3    H222550   2.450   2.335   0.740  1.6493  0.3931  0.1004
  331TIP3   OH222551   6.051   5.266   0.741 -0.1331  0.0072  0.0906
  331TIP3    H122552   6.043   5.203   0.670 -0.4734 -0.6749  0.7203
  331TIP3    H222553   6.079   5.214   0.816  4.1030  1.1905 -0.3741
  332TIP3   OH222554   3.378   2.265   7.638 -0.0467  0.1989  0.2645
  332TIP3    H122555   3.430   2.301   7.566 -0.2333 -2.6032 -1.4225
  332TIP3    H222556   3.442   2.250   7.708  1.1314 -1.3328 -1.0529
  333TIP3   OH222557   5.230   3.410   0.733 -0.6233 -0.0307  0.3999
  333TIP3    H122558   5.250   3.356   0.657 -0.6806  0.2362  0.1925
  333TIP3    H222559   5.299   3.390   0.796  0.2850  0.8369 -0.2806
  334TIP3   OH222560   6.665   4.912   1.949 -0.5750  0.2608  0.4387
  334TIP3    H122561   6.748   4.881   1.984 -0.7585 -1.4352 -0.4990
  334TIP3    H222562   6.601   4.846   1.977 -1.0556 -0.0785 -1.3511
  335TIP3   OH222563   6.055   1.128   6.814 -0.4179  0.5039 -0.4215
  335TIP3    H122564   6.143   1.157   6.839 -0.6831  0.4924  0.5581
  335TIP3    H222565   6.002   1.208   6.816 -0.7803  0.2531  0.6254
  336TIP3   OH222566   2.187   5.094   6.623 -0.3793  0.2292 -0.2194
  336TIP3    H122567   2.270   5.142   6.619 -0.3337  0.3620  1.4638
  336TIP3    H222568   2.211   5.003   6.604 -0.3400  0.6719 -2.6106
  337TIP3   OH222569   0.428   3.040   8.508  0.2754 -0.0135  0.2110
  337TIP3    H122570   0.337   3.061   8.529 -0.1260 -1.5594  0.1719
  337TIP3    H222571   0.421   2.967   8.446  1.5432  0.1926 -0.1944
  338TIP3   OH222572   2.007   0.345   0.597 -0.1675 -0.5267  0.1859
  338TIP3    H122573   2.028   0.423   0.649  0.2504 -1.7570  1.9818
  338TIP3    H222574   1.911   0.343   0.594 -0.1896  1.2032 -1.7854
  339TIP3   OH222575   1.309   6.483   7.247  0.0155  0.3430 -0.0115
  339TIP3    H122576   1.365   6.481   7.170 -0.0808  0.0877 -0.0758
  339TIP3    H222577   1.283   6.575   7.256  0.5253  0.4826  0.0777
  340TIP3   OH222578   6.781   4.499   0.049  0.0687 -0.5059 -0.0040
  340TIP3    H122579   6.761   4.507  -0.045  0.3038 -0.9046 -0.0925
  340TIP3    H222580   6.700   4.467   0.088 -0.8660  2.1055  0.3457
  341TIP3   OH222581   3.915   2.145   7.252  0.3417 -0.2816  0.4198
  341TIP3    H122582   3.947   2.234   7.235 -2.6632  0.8006 -0.0714
  341TIP3    H222583   3.991   2.100   7.290  2.5480  1.8860 -1.0689
  342TIP3   OH222584   4.335   3.333   7.401  0.4720 -0.3479 -0.5515
  342TIP3    H122585   4.411   3.387   7.378 -1.5837  1.6562 -3.3194
  342TIP3    H222586   4.260   3.392   7.392 -1.5781 -2.5507  0.8255
  343TIP3   OH222587   3.839   2.143   8.481 -0.2940 -0.1333 -0.1423
  343TIP3    H122588   3.745   2.158   8.478 -0.4794 -1.3200 -2.3545
  343TIP3    H222589   3.877   2.210   8.424  0.4382  1.4262  2.0602
  344TIP3   OH222590   4.178   1.400   0.421 -1.0429  0.0945 -0.3847
  344TIP3    H122591   4.222   1.315   0.433 -0.2338  0.7343  1.6458
  344TIP3    H222592   4.226   1.442   0.350 -0.0527 -0.3109  0.0205
  345TIP3   OH222593   5.497   0.910   8.255  0.2628 -0.2148  0.1704
  345TIP3    H122594   5.478   1.001   8.235 -0.5299  0.1272  2.2067
  345TIP3    H222595   5.540   0.912   8.341  0.4686 -1.7437  0.1428
  346TIP3   OH222596   5.941   0.604   1.860  0.3016  0.4649  0.1191
  346TIP3    H122597   6.033   0.586   1.844  0.2560  0.4351 -0.1236
  346TIP3    H222598   5.896   0.526   1.827  0.0626  1.2019 -1.3854
  347TIP3   OH222599   1.850   0.742   7.679  0.1283 -0.6113 -0.2017
  347TIP3    H122600   1.867   0.830   7.713  1.2775 -0.6867 -0.5368
  347TIP3    H222601   1.870   0.748   7.586  1.3534 -1.5049 -0.0090
  348TIP3   OH222602   2.079   5.852   0.179  0.2975  0.3275  0.7617
  348TIP3    H122603   2.026   5.776   0.157  1.2184  0.1698 -1.1626
  348TIP3    H222604   2.132   5.825   0.254 -0.9319 -0.1477  1.4844
  349TIP3   OH222605   6.220   5.849   6.894  0.6115  0.5830  0.2184
  349TIP3    H122606   6.298   5.793   6.893  0.6927  0.5088  2.7448
  349TIP3    H222607   6.190   5.851   6.803  1.4537 -2.3312 -0.2274
  350TIP3   OH222608   4.843   3.775   6.683  0.1210 -0.3408  0.0230
  350TIP3    H122609   4.881   3.792   6.770  1.0503 -1.0372 -0.2241
  350TIP3    H222610   4.761   3.824   6.682  2.2326  3.6233 -0.3856
  351TIP3   OH222611   0.841   2.985   8.350  0.3963 -0.1762 -0.1607
  351TIP3    H122612   0.928   2.994   8.391  0.3366  0.9206 -0.2530
  351TIP3    H222613   0.805   3.073   8.351  0.0112 -0.2873 -1.7506
  352TIP3   OH222614   0.743   1.441   7.957  0.1297 -0.7452 -0.1863
  352TIP3    H122615   0.687   1.389   8.015  0.1056 -0.8778 -0.3289
  352TIP3    H222616   0.773   1.514   8.012 -1.0003 -0.1113 -0.3810
  353TIP3   OH222617   5.532   6.333   7.484  0.0936 -0.3848  0.3446
  353TIP3    H122618   5.505   6.420   7.456 -0.3361 -0.7948 -0.5788
  353TIP3    H222619   5.468   6.308   7.550  0.1922 -0.0238  0.5814
  354TIP3   OH222620   0.809   2.565   0.704 -0.4719  0.5658  0.4547
  354TIP3    H122621   0.860   2.499   0.749  1.5888  2.1047  0.4988
  354TIP3    H222622   0.755   2.516   0.641  0.4342 -1.1708  0.9966
  355TIP3   OH222623   3.468   2.058   0.713 -0.1411 -0.2977 -0.3063
  355TIP3    H122624   3.403   2.128   0.711  0.1914  0.0215 -0.1094
  355TIP3    H222625   3.418   1.978   0.697 -0.6471 -0.1099  0.3107
  356TIP3   OH222626   0.955   0.379   0.777  0.3284  0.3453  0.0657
  356TIP3    H122627   0.944   0.381   0.682  1.5751 -0.6371 -0.1386
  356TIP3    H222628   1.050   0.376   0.790  0.1643 -0.1011  1.3173
  357TIP3   OH222629   2.303   3.106   6.606 -0.3827  0.3406  0.1993
  357TIP3    H122630   2.357   3.090   6.529 -0.5907  3.8482 -0.8601
  357TIP3    H222631   2.228   3.047   6.595  0.4603 -0.5162 -1.3071
  358TIP3   OH222632   2.924   2.874   0.247 -0.0606  0.2417 -0.0840
  358TIP3    H122633   2.830   2.875   0.228 -0.2954  0.4890  1.0405
  358TIP3    H222634   2.930   2.866   0.342  1.0507  0.6875 -0.0949
  359TIP3   OH222635   2.531   0.811   7.754  0.1255 -0.1426 -0.4018
  359TIP3    H122636   2.570   0.735   7.710  0.2087  1.3914 -3.2461
  359TIP3    H222637   2.597   0.839   7.817  1.1683 -0.9769 -1.0838
  360TIP3   OH222638   1.891   4.318   7.160 -0.0718 -0.1639  0.3447
  360TIP3    H122639   1.843   4.311   7.077  1.3450 -0.3912 -0.4944
  360TIP3    H222640   1.880   4.233   7.202  2.1309 -1.3728 -1.3261
  361TIP3   OH222641   2.497   5.960   1.238 -0.1727 -0.1314 -0.1560
  361TIP3    H122642   2.527   6.051   1.232 -2.3426  0.5636 -2.6798
  361TIP3    H222643   2.439   5.959   1.314 -0.3204  0.6655 -0.2515
  362TIP3   OH222644   5.882   4.895   0.148  0.5431 -0.5071  0.0994
  362TIP3    H122645   5.965   4.924   0.186  0.4413  0.2842 -0.2570
  362TIP3    H222646   5.897   4.804   0.125  0.7824 -0.8458  1.5200
  363TIP3   OH222647   2.862   0.372   1.439  0.4104 -0.2001  0.2068
  363TIP3    H122648   2.851   0.463   1.465 -1.1187 -1.0947  3.0673
  363TIP3    H222649   2.776   0.346   1.406  0.1249 -1.1765  1.6133
  364TIP3   OH222650   2.665   1.535   0.015 -0.4701  0.4354 -0.0116
  364TIP3    H122651   2.712   1.598  -0.038  0.3883 -0.9885 -1.0270
  364TIP3    H222652   2.578   1.529  -0.025 -1.8050  3.3668  2.1109
  365TIP3   OH222653   5.182   3.622   1.906 -0.0193  0.1633  1.1191
  365TIP3    H122654   5.212   3.649   1.819 -1.2456 -2.2399 -0.1637
  365TIP3    H222655   5.188   3.526   1.905  0.2594  0.0715  3.8460
  366TIP3   OH222656   6.222   6.632   0.076 -0.3519  0.3781  0.2308
  366TIP3    H122657   6.156   6.598   0.015 -0.4395 -0.6433  0.8690
  366TIP3    H222658   6.304   6.631   0.026 -0.3936 -0.6084  0.1711
  367TIP3   OH222659   4.186   2.120   7.336  0.9309 -0.0675  0.0862
  367TIP3    H122660   4.256   2.142   7.397 -0.1266  2.9025  0.3790
  367TIP3    H222661   4.209   2.166   7.255 -0.7286  1.1617  0.2585
  368TIP3   OH222662   2.820   5.651   8.830  0.1874  0.0866 -0.0769
  368TIP3    H122663   2.798   5.744   8.826  1.7997  0.4569 -0.8041
  368TIP3    H222664   2.832   5.625   8.739  0.7075 -0.5881  0.1797
  369TIP3   OH222665   3.618   3.048   0.716  0.0802 -0.3596 -0.1737
  369TIP3    H122666   3.531   3.071   0.746 -0.0495 -2.7913  1.5806
  369TIP3    H222667   3.603   2.991   0.640  0.2199  0.5430 -0.8926
  370TIP3   OH222668   2.383   4.376   0.475 -0.3371 -0.5481  0.3878
  370TIP3    H122669   2.369   4.455   0.527  0.6264 -1.0446  1.4509
  370TIP3    H222670   2.306   4.370   0.419  0.0948  1.7579 -0.5413
  371TIP3   OH222671   4.402   5.690   8.730 -0.2511 -0.3465  0.0905
  371TIP3    H122672   4.418   5.608   8.777 -1.5387 -1.7927 -1.8006
  371TIP3    H222673   4.309   5.685   8.707 -0.4672  1.8976  0.3003
  372TIP3   OH222674   0.888   5.163   8.117  0.1548  0.2691  0.2926
  372TIP3    H122675   0.961   5.109   8.146  1.4386  1.9127  0.3164
  372TIP3    H222676   0.815   5.103   8.107  1.9380 -1.7648 -1.4365
  373TIP3   OH222677   2.108   6.310   8.590 -0.0716 -0.3359 -0.2367
  373TIP3    H122678   2.103   6.301   8.495 -1.6785 -0.9584 -0.1310
  373TIP3    H222679   2.022   6.342   8.616  0.9314  1.6416  0.8566
  374TIP3   OH222680   2.181   3.453   8.558 -0.1289  0.3213  0.1932
  374TIP3    H122681   2.209   3.485   8.644  0.7409 -0.1852  0.1087
  374TIP3    H222682   2.235   3.375   8.543 -0.7082  0.0508 -0.5435
  375TIP3   OH222683   2.945   1.117   8.720  0.5854 -0.3163 -0.0376
  375TIP3    H122684   2.912   1.161   8.798  0.9926  1.5057 -0.8428
  375TIP3    H222685   3.022   1.069   8.750  1.1759  0.9587  0.5623
  376TIP3   OH222686   3.351   4.513   6.869 -0.5440  0.3102 -0.5104
  376TIP3    H122687   3.313   4.434   6.829 -0.0303  0.9983 -2.4631
  376TIP3    H222688   3.291   4.583   6.845 -1.2062  0.5074  1.5454
  377TIP3   OH222689   0.253   5.843   6.684 -0.1795  0.5920  0.4979
  377TIP3    H122690   0.337   5.876   6.652  1.0459 -1.8477  0.9726
  377TIP3    H222691   0.273   5.803   6.768 -1.3551 -1.7606 -0.2310
  378TIP3   OH222692   4.457   2.245   1.055 -0.3330  0.1565 -0.1015
  378TIP3    H122693   4.366   2.273   1.057 -0.4248 -0.1497  1.2626
  378TIP3    H222694   4.506   2.322   1.082 -0.4607 -0.4792  2.1228
  379TIP3   OH222695   4.515   5.189   7.649 -0.4027  0.2634 -0.1761
  379TIP3    H122696   4.427   5.154   7.634 -0.2075 -0.1732 -0.3256
  379TIP3    H222697   4.512   5.278   7.613 -1.9873  1.8374  3.4313
  380TIP3   OH222698   3.218   3.512   6.737 -0.4328  0.3327  0.3101
  380TIP3    H122699   3.150   3.470   6.685  1.6872 -1.7425 -0.9970
  380TIP3    H222700   3.254   3.581   6.681 -0.5795  0.5611  0.4925
  381TIP3   OH222701   2.005   2.422   7.978  0.3599 -0.7962 -0.4509
  381TIP3    H122702   1.987   2.329   7.970  1.3684 -1.0353 -0.1523
  381TIP3    H222703   1.931   2.465   7.935  0.3249 -1.7509 -1.3868
  382TIP3   OH222704   2.379   1.164   7.885 -0.2598 -0.4384 -0.3944
  382TIP3    H122705   2.381   1.234   7.949  0.7185 -0.5251 -0.3167
  382TIP3    H222706   2.456   1.111   7.904 -0.7303 -1.2754 -0.7422
  383TIP3   OH222707   2.234   5.190   7.641  0.5236  0.0279 -0.6514
  383TIP3    H122708   2.303   5.256   7.642 -1.8764  2.7254  0.9498
  383TIP3    H222709   2.171   5.222   7.577 -0.2267 -1.2497 -0.5805
  384TIP3   OH222710   1.810   6.114   0.679 -0.4258 -0.0561  0.1925
  384TIP3    H122711   1.765   6.100   0.763 -1.2903  0.8138 -0.1029
  384TIP3    H222712   1.767   6.191   0.641  0.0794 -0.3204 -0.9703
  385TIP3   OH222713   4.424   1.143   1.858 -0.3088 -0.6406  0.7240
  385TIP3    H122714   4.346   1.139   1.802  0.4291  2.3253 -0.7249
  385TIP3    H222715   4.390   1.159   1.946 -1.3621 -1.1399  0.4258
  386TIP3   OH222716   3.870   1.765   7.210 -0.0436 -0.1637 -0.2238
  386TIP3    H122717   3.811   1.837   7.229 -2.4983 -1.5596 -2.0267
  386TIP3    H222718   3.847   1.697   7.274  0.2535 -0.3952 -0.3593
  387TIP3   OH222719   4.812   5.717   7.144 -0.2523 -0.0118  0.1577
  387TIP3    H122720   4.874   5.737   7.213 -0.1422 -2.2024  0.7795
  387TIP3    H222721   4.834   5.778   7.073  1.0822  0.7840  1.2145
  388TIP3   OH222722   2.202   0.144   1.010 -0.0443  0.3458 -0.1587
  388TIP3    H122723   2.281   0.092   0.994 -0.0236  0.7780 -1.5593
  388TIP3    H222724   2.151   0.137   0.929 -0.0441  2.4995 -0.3972
  389TIP3   OH222725   1.483   2.066   6.623  0.6198  0.1034 -0.6242
  389TIP3    H122726   1.559   2.124   6.625  0.4269  0.4291 -1.8087
  389TIP3    H222727   1.509   1.996   6.564  0.3421 -0.2922 -0.2803
  390TIP3   OH222728   2.449   2.135   0.054  0.7922 -0.6081  0.1590
  390TIP3    H122729   2.380   2.196   0.077  1.7544  0.1956  1.0270
  390TIP3    H222730   2.446   2.069   0.123  0.4575 -0.9567 -0.1828
  391TIP3   OH222731   4.745   4.728   8.837  0.8135  0.2194  0.5700
  391TIP3    H122732   4.744   4.633   8.824 -0.3326  0.0198  1.8396
  391TIP3    H222733   4.654   4.751   8.854  1.2359  1.3677  1.4351
  392TIP3   OH222734   3.104   0.015   0.126 -0.5959  0.1559  0.0475
  392TIP3    H122735   3.032   0.062   0.167 -0.9951  0.4337 -0.9390
  392TIP3    H222736   3.063  -0.036   0.056  0.1525  0.2241 -0.4501
  393TIP3   OH222737   0.591   2.867   7.313 -0.0011 -0.0368  0.5251
  393TIP3    H122738   0.537   2.943   7.292  0.5797  0.4023  0.6021
  393TIP3    H222739   0.644   2.853   7.235  0.8081  0.4330  0.9779
  394TIP3   OH222740   4.599   2.953   7.117  0.6467  1.0335 -0.1674
  394TIP3    H122741   4.556   2.944   7.032  0.7503  0.6673 -0.1821
  394TIP3    H222742   4.527   2.943   7.181  0.2192  3.2768 -0.2272
  395TIP3   OH222743   4.008   0.291   6.598 -0.3125 -0.2644  0.4510
  395TIP3    H122744   4.043   0.365   6.648  0.0957  0.9737 -1.5578
  395TIP3    H222745   4.039   0.214   6.645  0.9468  0.8145  1.4953
  396TIP3   OH222746   1.639   3.547   7.942  0.0966  0.5598 -0.5542
  396TIP3    H122747   1.598   3.633   7.937  0.5365  0.7707 -0.5220
  396TIP3    H222748   1.724   3.558   7.901 -0.5756 -0.3258 -2.2978
  397TIP3   OH222749   4.425   2.022   6.615 -0.0554 -0.3833 -0.4530
  397TIP3    H122750   4.386   2.097   6.659  0.2196  0.2227 -1.2279
  397TIP3    H222751   4.516   2.022   6.642  0.0774 -0.1007 -0.8862
  398TIP3   OH222752   4.004   1.142   6.801 -0.1190  0.4990  0.0382
  398TIP3    H122753   3.972   1.222   6.841  1.2539  1.5439 -0.8514
  398TIP3    H222754   3.925   1.090   6.785 -1.1350  2.0258 -0.1122
  399TIP3   OH222755   3.918   1.788   6.428  0.3312  0.7246 -0.3454
  399TIP3    H122756   3.868   1.734   6.367 -1.1419  1.9218 -0.2628
  399TIP3    H222757   3.854   1.849   6.465  1.7550  1.9868  0.1875
  400TIP3   OH222758   6.563   3.246   7.457  0.7433 -0.7254 -0.0015
  400TIP3    H122759   6.612   3.209   7.384 -0.6206 -1.2969 -0.6764
  400TIP3    H222760   6.607   3.213   7.535  2.0554 -0.3400 -0.5459
  401TIP3   OH222761   1.208   1.976   7.161  0.2909 -0.2716  0.1364
  401TIP3    H122762   1.289   1.926   7.168  0.7140  0.1236 -1.5759
  401TIP3    H222763   1.138   1.912   7.173  0.8404 -0.8185  0.4496
  402TIP3   OH222764   3.567   5.949   8.803 -0.6803  0.1083  0.0499
  402TIP3    H122765   3.503   5.900   8.751 -0.4547 -1.3164  1.0732
  402TIP3    H222766   3.549   5.923   8.894  0.0693  1.2107  0.5255
  403TIP3   OH222767   3.007   5.085   0.350 -0.1407  0.2243  0.1320
  403TIP3    H122768   3.086   5.109   0.397  0.2488  0.5054 -0.6509
  403TIP3    H222769   3.031   5.089   0.258 -1.0572  0.2685 -0.1200
  404TIP3   OH222770   2.321   4.540   1.377 -0.5301  0.2797 -0.6677
  404TIP3    H122771   2.333   4.528   1.471  0.9453  1.6850 -0.6424
  404TIP3    H222772   2.408   4.561   1.343 -1.0490 -0.0834 -2.3382
  405TIP3   OH222773   2.694   5.694   6.591  0.3430 -0.3374 -0.4690
  405TIP3    H122774   2.656   5.781   6.576 -0.3731 -0.5407  0.1399
  405TIP3    H222775   2.633   5.650   6.650  0.5683 -1.3593 -0.9727
  406TIP3   OH222776   1.150   1.253   8.154 -0.8553  0.5057 -0.0578
  406TIP3    H122777   1.164   1.209   8.070 -0.9530 -0.3154  0.3424
  406TIP3    H222778   1.126   1.342   8.131  0.4914  0.6948 -0.8731
  407TIP3   OH222779   4.051   5.943   1.972 -0.6280 -0.4169 -0.1020
  407TIP3    H122780   4.132   5.926   2.019 -0.7526 -0.7944 -0.0227
  407TIP3    H222781   4.052   6.037   1.955 -0.4600 -0.3266  0.4216
  408TIP3   OH222782   6.155   4.554   8.616 -0.3921  0.0752 -0.0987
  408TIP3    H122783   6.111   4.483   8.663 -0.5723  0.1779 -0.1081
  408TIP3    H222784   6.171   4.620   8.684 -1.0221  0.3971 -0.2500
  409TIP3   OH222785   5.139   2.065   1.434  0.3187  0.6581  0.0913
  409TIP3    H122786   5.050   2.086   1.463 -0.0216  1.2418 -1.3102
  409TIP3    H222787   5.194   2.133   1.473  0.5901 -1.0106  2.9512
  410TIP3   OH222788   5.910   2.555   0.411 -0.0337 -0.6474 -0.1495
  410TIP3    H122789   5.907   2.471   0.365 -1.2172 -1.2431  0.9616
  410TIP3    H222790   5.906   2.531   0.504 -0.9450  0.6606  0.1714
  411TIP3   OH222791   6.074   1.768   1.048 -0.0902  0.3976  0.0070
  411TIP3    H122792   6.122   1.702   0.998  0.7777  0.4205  0.7762
  411TIP3    H222793   6.001   1.720   1.087 -1.0268  0.4704 -1.5899
  412TIP3   OH222794   6.470   0.596   7.433  0.6761  0.4583 -0.0247
  412TIP3    H122795   6.511   0.621   7.516  1.0818 -1.4949  0.4146
  412TIP3    H222796   6.539   0.607   7.368  0.9262  0.2543  0.2017
  413TIP3   OH222797   2.551   6.082   1.666 -0.1901 -0.0643 -0.0605
  413TIP3    H122798   2.524   6.173   1.672  0.4934  0.0878  1.0763
  413TIP3    H222799   2.608   6.078   1.589 -1.8104  0.0145 -1.3177
  414TIP3   OH222800   1.069   6.384   6.644  0.0667  0.0691  0.0200
  414TIP3    H122801   1.137   6.373   6.577 -0.2165 -1.4583 -0.0362
  414TIP3    H222802   0.996   6.330   6.615 -0.1532 -0.4409  1.4339
  415TIP3   OH222803   0.161   1.444   8.567  0.0479 -0.1782  0.2407
  415TIP3    H122804   0.150   1.355   8.600 -2.6207  0.1358  0.3478
  415TIP3    H222805   0.118   1.444   8.481 -2.1848  1.5338  1.2484
  416TIP3   OH222806   0.485   5.187   0.081  0.0795  0.1643 -0.6334
  416TIP3    H122807   0.495   5.202   0.174 -0.9409 -0.4211 -0.4083
  416TIP3    H222808   0.573   5.165   0.050  0.1249 -1.5265  0.5568
  417TIP3   OH222809   2.986   5.716   1.601 -0.0492 -0.4912  0.0576
  417TIP3    H122810   3.032   5.671   1.671  0.4535 -0.2711 -0.1263
  417TIP3    H222811   3.055   5.758   1.549 -0.2559 -1.9544 -1.5136
  418TIP3   OH222812   4.674   0.684   6.131  0.9168 -0.0962  0.6122
  418TIP3    H122813   4.600   0.726   6.086  2.6889  1.4037 -1.0960
  418TIP3    H222814   4.656   0.590   6.123 -1.2863  0.2221  1.1791
  419TIP3   OH222815   0.667   3.242   7.481 -0.1392  0.0362 -0.4015
  419TIP3    H122816   0.666   3.235   7.385  0.0584 -0.7397 -0.3586
  419TIP3    H222817   0.716   3.322   7.499  0.2517 -0.0699 -0.9504
  420TIP3   OH222818   3.536   5.172   7.808 -0.3255 -0.1936 -0.2798
  420TIP3    H122819   3.497   5.259   7.811 -1.1755 -0.5225 -1.1370
  420TIP3    H222820   3.512   5.131   7.891  1.0030  0.7387  0.6137
  421TIP3   OH222821   2.578   0.211   0.134  0.2215 -0.6995 -0.4136
  421TIP3    H122822   2.590   0.178   0.223 -0.2046 -0.3174 -0.2181
  421TIP3    H222823   2.485   0.201   0.116  0.1792 -0.0831 -0.5467
  422TIP3   OH222824   6.201   6.198   0.664 -0.6703  0.3137  0.0444
  422TIP3    H122825   6.198   6.287   0.699  1.1764  1.5640 -2.6650
  422TIP3    H222826   6.221   6.143   0.740 -3.1948  1.9080  2.0704
  423TIP3   OH222827   5.252   5.175   0.273  0.1076 -0.2502  0.0404
  423TIP3    H122828   5.157   5.165   0.268  0.0354  0.8542 -0.9707
  423TIP3    H222829   5.266   5.268   0.286  1.1045 -0.1732 -1.4717
  424TIP3   OH222830   6.124   1.798   8.013 -0.5469 -0.2697  0.0933
  424TIP3    H122831   6.033   1.816   8.034 -0.5426 -1.2685  1.0118
  424TIP3    H222832   6.133   1.703   8.021  1.1438  0.0048  2.4815
  425TIP3   OH222833   3.663   1.331   7.904 -0.0933  0.5709 -0.0456
  425TIP3    H122834   3.673   1.342   7.810  0.0789 -1.5629 -0.3251
  425TIP3    H222835   3.568   1.329   7.918 -0.1292 -0.3861 -0.3679
  426TIP3   OH222836   4.819   0.718   7.051  0.8018  0.0853 -0.0042
  426TIP3    H122837   4.810   0.770   7.131  1.1958  1.8300 -1.0346
  426TIP3    H222838   4.911   0.695   7.047  0.7356 -0.2170  0.1524
  427TIP3   OH222839   6.104   5.205   6.863  0.2136  0.6509 -0.1076
  427TIP3    H122840   6.194   5.230   6.885  1.0345 -2.2758  0.2850
  427TIP3    H222841   6.102   5.110   6.874 -3.1332  0.6735  0.5372
  428TIP3   OH222842   4.261   0.746   8.595  0.3926  0.0704 -0.0499
  428TIP3    H122843   4.168   0.764   8.579  0.1670 -1.7939 -1.0073
  428TIP3    H222844   4.276   0.660   8.558  2.2558 -0.1720  1.1392
  429TIP3   OH222845   5.771   1.840   2.012  0.2730 -0.3642  0.3869
  429TIP3    H122846   5.693   1.793   2.039  0.6030 -0.9559  0.3340
  429TIP3    H222847   5.805   1.790   1.937 -0.7999  1.4117 -1.3844
  430TIP3   OH222848   5.446   6.237   7.735  0.9914 -0.5399  0.0006
  430TIP3    H122849   5.520   6.177   7.744  0.9217 -0.4022  2.1072
  430TIP3    H222850   5.369   6.179   7.738  0.9758 -0.5285 -0.2077
  431TIP3   OH222851   5.550   3.456   8.443  0.3377 -0.1127  0.2401
  431TIP3    H122852   5.628   3.483   8.395  1.2659  0.5832  2.0214
  431TIP3    H222853   5.515   3.537   8.480  0.5687 -0.7673  1.9810
  432TIP3   OH222854   3.977   0.718   6.699 -0.0220  0.0234  0.2689
  432TIP3    H122855   3.972   0.694   6.791 -0.5392  1.0956  0.5370
  432TIP3    H222856   4.066   0.753   6.689  0.5646 -1.4533 -0.0133
  433TIP3   OH222857   3.389   4.049   0.638 -0.4506  0.0576  0.1838
  433TIP3    H122858   3.418   4.066   0.728 -0.9608 -1.5492  0.6823
  433TIP3    H222859   3.408   4.130   0.591  1.6976  0.2240  1.2519
  434TIP3   OH222860   0.259   5.023   1.631 -0.1963  1.1139  0.1171
  434TIP3    H122861   0.224   5.107   1.602  0.4081  1.1824 -0.4359
  434TIP3    H222862   0.284   5.038   1.722 -2.9347  0.6515  1.0574
  435TIP3   OH222863   0.785   2.410   8.810 -0.2436 -0.3968  0.1835
  435TIP3    H122864   0.818   2.322   8.791 -2.3388 -1.5010  1.3257
  435TIP3    H222865   0.709   2.421   8.753  0.2145  0.8471 -0.2245
  436TIP3   OH222866   3.713   4.736   1.725  0.0828 -0.5455  0.7948
  436TIP3    H122867   3.698   4.831   1.722 -0.0768 -0.5441  1.5397
  436TIP3    H222868   3.656   4.705   1.795  1.0105 -1.0178  1.3650
  437TIP3   OH222869   4.929   4.483   6.228 -0.0177 -0.1161 -0.8834
  437TIP3    H122870   4.835   4.477   6.242 -0.0242  2.5812  1.1295
  437TIP3    H222871   4.959   4.547   6.293  2.8411  1.0016 -3.0696
  438TIP3   OH222872   2.599   5.160   1.824  0.0690  0.2155 -0.1418
  438TIP3    H122873   2.528   5.122   1.876  0.4417  0.9013  0.8967
  438TIP3    H222874   2.610   5.248   1.859 -0.8330  1.3731 -2.5505
  439TIP3   OH222875   1.684   6.634   8.409 -0.0289  0.1648  0.0611
  439TIP3    H122876   1.602   6.626   8.459 -0.0721 -1.3876 -0.2145
  439TIP3    H222877   1.710   6.725   8.421 -2.0195  0.8232 -0.1778
  440TIP3   OH222878   6.044   5.864   0.239 -0.8693  0.2661  0.2545
  440TIP3    H122879   6.092   5.877   0.157  0.9755 -1.7239  0.9379
  440TIP3    H222880   5.984   5.939   0.243  0.1580  1.3342 -2.0524
  441TIP3   OH222881   6.224   4.259   1.244  0.0157  0.0561 -0.3069
  441TIP3    H122882   6.208   4.230   1.154 -0.5308  1.2225 -0.5994
  441TIP3    H222883   6.316   4.285   1.244  0.1322 -0.3420 -0.4068
  442TIP3   OH222884   1.365   3.961   7.661  0.2655  0.3026  0.3879
  442TIP3    H122885   1.299   3.898   7.688  0.8790  0.7975  3.3839
  442TIP3    H222886   1.329   4.046   7.685  1.0157  0.7738 -0.1149
  443TIP3   OH222887   6.203   3.204   6.687 -0.1307  0.0335 -0.4147
  443TIP3    H122888   6.272   3.269   6.685  0.0131 -0.0110  1.4572
  443TIP3    H222889   6.163   3.213   6.774 -1.6493 -0.7916 -0.9733
  444TIP3   OH222890   5.637   6.135   1.716 -0.8476  0.6085  0.5580
  444TIP3    H122891   5.546   6.112   1.701 -0.5121  0.0929 -0.8599
  444TIP3    H222892   5.686   6.055   1.697  0.1057  1.6155 -1.5534
  445TIP3   OH222893   4.737   1.741   6.718  0.1085 -0.1368  0.2643
  445TIP3    H122894   4.809   1.701   6.767 -0.6201 -1.9967 -0.1103
  445TIP3    H222895   4.765   1.737   6.627  0.6968  1.7230  0.3100
  446TIP3   OH222896   1.189   5.340   0.350  0.3952  0.7512 -0.4004
  446TIP3    H122897   1.183   5.310   0.259 -0.8368  1.7610 -0.6829
  446TIP3    H222898   1.186   5.259   0.402 -0.3166  0.2403 -1.2097
  447TIP3   OH222899   6.137   2.682   7.536  0.2762  0.1219  0.1869
  447TIP3    H122900   6.183   2.653   7.616  0.5275  0.6679  0.2481
  447TIP3    H222901   6.072   2.614   7.520 -0.4761  0.5178  1.4481
  448TIP3   OH222902   4.791   1.163   2.165 -0.5107  0.0902  0.3624
  448TIP3    H122903   4.760   1.143   2.077 -0.3983  1.7015 -0.0883
  448TIP3    H222904   4.728   1.227   2.199  1.1435  1.9157  0.1927
  449TIP3   OH222905   2.747   1.757   0.229  0.4409  0.1041  0.0043
  449TIP3    H122906   2.747   1.724   0.140 -1.4275 -0.7327  0.2609
  449TIP3    H222907   2.779   1.847   0.221 -0.5425  0.3559 -1.6545
  450TIP3   OH222908   5.169   3.718   1.223 -0.4076 -0.1401  0.0074
  450TIP3    H122909   5.145   3.687   1.310 -0.9670  0.7162  0.1750
  450TIP3    H222910   5.095   3.692   1.167 -0.6953  0.5315  0.0706
  451TIP3   OH222911   5.666   3.691   8.167 -0.4475  0.1377 -0.4101
  451TIP3    H122912   5.698   3.609   8.206 -0.5723  0.0616 -0.4681
  451TIP3    H222913   5.736   3.718   8.107 -0.8464 -0.4581 -1.1495
  452TIP3   OH222914   3.523   5.293   8.468  0.4463  0.0615 -0.1409
  452TIP3    H122915   3.614   5.323   8.479  0.3385  0.5688 -0.5817
  452TIP3    H222916   3.517   5.269   8.376  0.3377 -0.6981  0.0606
  453TIP3   OH222917   1.950   2.061   0.402 -0.1840  0.0123 -0.0916
  453TIP3    H122918   1.913   2.148   0.389 -0.1564  0.0183 -0.1303
  453TIP3    H222919   1.923   2.011   0.325 -1.0694 -0.3171  0.4180
  454TIP3   OH222920   2.851   3.707   0.532 -0.1685  0.2312 -0.3256
  454TIP3    H122921   2.813   3.734   0.449  0.4596  0.1985 -0.6266
  454TIP3    H222922   2.899   3.784   0.563  0.3235 -0.0331 -0.4216
  455TIP3   OH222923   5.776   6.249   7.448 -0.6615  0.5818  0.0146
  455TIP3    H122924   5.684   6.274   7.455 -1.1121 -0.9362 -0.0902
  455TIP3    H222925   5.824   6.322   7.488 -1.8737  1.5393 -0.2143
  456TIP3   OH222926   3.835   4.979   7.262  0.2183  0.0308  0.4947
  456TIP3    H122927   3.785   4.911   7.217  1.6899 -1.1973  0.6260
  456TIP3    H222928   3.780   5.057   7.257 -1.3609 -1.0630  0.0029
  457TIP3   OH222929   5.548   0.384   1.113 -0.6241 -0.0972 -0.2573
  457TIP3    H122930   5.550   0.290   1.097  1.5176 -1.0179  3.9176
  457TIP3    H222931   5.474   0.397   1.173  0.5656  0.3351  1.1868
  458TIP3   OH222932   3.441   2.515   8.727  0.1677  0.1872  0.2311
  458TIP3    H122933   3.463   2.599   8.767 -0.0404 -0.1027  0.9884
  458TIP3    H222934   3.353   2.527   8.692 -0.9467 -0.4205  2.5875
  459TIP3   OH222935   0.213   6.097   0.244  0.4368  0.2918  0.1264
  459TIP3    H122936   0.143   6.120   0.183  0.7242  1.6894  0.2864
  459TIP3    H222937   0.265   6.032   0.197  0.7284  1.4354 -1.1997
  460TIP3   OH222938   5.463   4.512   8.322  0.3901  0.5661 -0.0283
  460TIP3    H122939   5.454   4.464   8.404  1.1350  1.6605  0.7196
  460TIP3    H222940   5.375   4.546   8.304 -0.3637 -1.7362 -1.0391
  461TIP3   OH222941   2.631   2.009   8.315 -0.7093  0.0016 -0.2921
  461TIP3    H122942   2.622   2.104   8.317 -0.2416  0.0402  1.1415
  461TIP3    H222943   2.551   1.975   8.355 -1.0702 -0.2272 -1.2016
  462TIP3   OH222944   2.384   5.927   1.002  0.2172 -0.3228  0.0730
  462TIP3    H122945   2.430   5.846   0.981  1.4277  0.6683 -1.1960
  462TIP3    H222946   2.407   5.944   1.094  0.3077 -1.1692  0.2173
  463TIP3   OH222947   3.558   4.635   6.093 -0.0990  0.5025  0.0862
  463TIP3    H122948   3.638   4.646   6.144 -0.0873  1.6539 -0.1609
  463TIP3    H222949   3.567   4.549   6.052  0.4920  0.1398  0.9500
  464TIP3   OH222950   0.729   5.553   8.298 -0.3461  0.6003 -0.1983
  464TIP3    H122951   0.758   5.556   8.389 -1.7300  0.3215  0.2629
  464TIP3    H222952   0.779   5.623   8.255  0.5329  0.5470  0.6932
  465TIP3   OH222953   4.417   6.295   7.853 -0.0274 -0.4921  0.1728
  465TIP3    H122954   4.379   6.212   7.882  2.0203 -1.6818 -0.3348
  465TIP3    H222955   4.358   6.362   7.889 -1.4571 -2.1202  1.0414
  466TIP3   OH222956   4.008   5.455   8.101  0.0501  0.0929  0.0195
  466TIP3    H122957   4.103   5.464   8.103  0.1240 -0.7450  1.0744
  466TIP3    H222958   3.989   5.424   8.013  0.5935  1.6582 -0.6864
  467TIP3   OH222959   3.221   5.163   7.227 -0.5084  0.1811 -0.0085
  467TIP3    H122960   3.179   5.078   7.235  0.0158  0.0119  1.0152
  467TIP3    H222961   3.193   5.195   7.141 -0.4315 -1.1662 -0.5619
  468TIP3   OH222962   1.534   2.860   0.665  0.1110  0.0992  0.3041
  468TIP3    H122963   1.539   2.768   0.641 -0.8068  0.2894 -0.6782
  468TIP3    H222964   1.597   2.903   0.607 -0.5837  0.2897 -0.3087
  469TIP3   OH222965   1.038   4.187   2.788  0.2734 -0.0210 -0.6985
  469TIP3    H122966   0.979   4.153   2.855  0.8646  2.5396  1.2522
  469TIP3    H222967   0.981   4.206   2.713 -1.0684  0.4826  0.4043
  470TIP3   OH222968   2.448   2.831   0.396 -0.4043 -0.2740  0.2839
  470TIP3    H122969   2.353   2.842   0.401 -0.7390 -1.7331 -1.6221
  470TIP3    H222970   2.472   2.867   0.311  1.3857  3.2980  2.0789
  471TIP3   OH222971   3.093   4.140   0.435  0.3720  0.0994 -0.2776
  471TIP3    H122972   3.004   4.175   0.426 -0.2615 -1.8008 -2.6349
  471TIP3    H222973   3.150   4.209   0.401 -0.3392  0.7608 -0.1591
  472TIP3   OH222974   4.670   2.899   2.493  0.1633  0.1803 -0.0369
  472TIP3    H122975   4.676   2.804   2.500  2.9894 -0.0126 -2.6897
  472TIP3    H222976   4.601   2.914   2.428 -0.5939 -0.0249  0.7167
  473TIP3   OH222977   5.482   0.664   1.805 -0.4759 -0.4325  0.2707
  473TIP3    H122978   5.529   0.586   1.837  2.6616  1.2438  0.1446
  473TIP3    H222979   5.544   0.736   1.817 -3.2440  2.1284  0.4395
  474TIP3   OH222980   0.859   2.243   1.722  0.6360 -0.0365  0.4338
  474TIP3    H122981   0.936   2.272   1.770  1.6164 -0.0029 -1.1100
  474TIP3    H222982   0.858   2.296   1.643 -0.3866 -0.7622 -0.0660
  475TIP3   OH222983   0.074   5.130   7.384  0.0939  0.2046 -0.7784
  475TIP3    H122984   0.098   5.125   7.291 -1.3462 -2.9516 -1.1214
  475TIP3    H222985   0.126   5.061   7.426 -4.2268 -3.4789 -0.7158
  476TIP3   OH222986   6.735   0.377   8.689 -0.0914  0.0567  0.2551
  476TIP3    H122987   6.724   0.282   8.685 -1.3357  0.1742  0.4797
  476TIP3    H222988   6.810   0.391   8.746  0.9642 -0.8188 -0.8639
  477TIP3   OH222989   2.815   3.236   0.678  0.5313  0.4435 -0.0429
  477TIP3    H122990   2.861   3.225   0.762 -0.3782  0.5885  0.4881
  477TIP3    H222991   2.859   3.310   0.637  0.3567  1.0186  0.7684
  478TIP3   OH222992   1.724   6.629   0.384 -0.3813  0.1608  0.5557
  478TIP3    H122993   1.762   6.690   0.321 -1.1060  0.0532  0.0054
  478TIP3    H222994   1.798   6.574   0.411 -0.1537 -0.0911 -0.5431
  479TIP3   OH222995   0.568   5.985   0.472  0.0843 -0.2569 -0.3348
  479TIP3    H122996   0.650   5.962   0.428  0.1260 -2.3630  0.7126
  479TIP3    H222997   0.593   5.999   0.563 -0.7883 -1.6847  0.1503
  480TIP3   OH222998   6.182   4.903   8.829  0.1550  0.2045 -0.6314
  480TIP3    H122999   6.208   4.909   8.920 -0.4482  0.0021 -0.4384
  480TIP3    H223000   6.257   4.864   8.785  0.0342 -0.7497 -0.0214
  481TIP3   OH223001   4.887   6.552   1.496  0.2168 -0.1201  0.2459
  481TIP3    H123002   4.906   6.572   1.587  0.9996  0.4092 -0.0155
  481TIP3    H223003   4.838   6.629   1.464  0.4743 -0.0310  0.0624
  482TIP3   OH223004   0.179   1.161   8.708  0.3234 -0.3331 -0.4460
  482TIP3    H123005   0.155   1.176   8.799  0.9213  2.0009 -0.6140
  482TIP3    H223006   0.273   1.145   8.710  0.4182  0.1803 -0.6911
  483TIP3   OH223007   5.039   3.967   1.012 -0.1635  0.4434  0.4634
  483TIP3    H123008   5.076   3.923   0.936 -0.6919  1.0817 -0.1821
  483TIP3    H223009   4.968   3.910   1.041 -0.1976  0.3760  0.2469
  484TIP3   OH223010   0.104   3.653   7.326  0.5842  0.1769 -0.0810
  484TIP3    H123011   0.062   3.586   7.272  0.2936  0.9136 -0.7884
  484TIP3    H223012   0.040   3.674   7.393  0.2487  0.5067 -0.5000
  485TIP3   OH223013   0.404   2.857   8.307 -0.6418 -0.5793 -0.8044
  485TIP3    H123014   0.499   2.847   8.312 -0.6496 -0.3138 -0.0248
  485TIP3    H223015   0.371   2.768   8.296 -0.3432 -0.7515 -0.3369
  486TIP3   OH223016   5.020   2.893   1.211 -0.0271  0.3356 -0.3251
  486TIP3    H123017   5.077   2.822   1.241  0.2133  0.0493 -1.4460
  486TIP3    H223018   5.077   2.970   1.210  0.2313  0.1384 -1.0175
  487TIP3   OH223019   5.143   5.324   1.287  0.2481  0.3361 -0.0651
  487TIP3    H123020   5.054   5.300   1.261  0.6162 -0.9000 -0.2339
  487TIP3    H223021   5.133   5.406   1.335 -0.9242  0.4668 -0.5195
  488TIP3   OH223022   3.619   2.261   8.426  0.1174 -0.4902  0.2106
  488TIP3    H123023   3.629   2.352   8.399 -0.0518 -0.7286 -0.6618
  488TIP3    H223024   3.527   2.242   8.411  0.4418 -1.2173 -0.9193
  489TIP3   OH223025   4.195   5.769   0.499  0.8200  0.1783  0.3076
  489TIP3    H123026   4.180   5.717   0.420  0.4051 -0.1182  0.5735
  489TIP3    H223027   4.115   5.758   0.550  1.9202 -1.4423  1.7841
  490TIP3   OH223028   5.963   5.944   1.319  0.6511  0.6845  0.2593
  490TIP3    H123029   5.941   5.851   1.316 -0.7099  0.9754  0.4829
  490TIP3    H223030   6.056   5.946   1.342  1.1664 -0.6312 -1.5169
  491TIP3   OH223031   3.040   1.049   1.149  0.5501 -0.9022  0.1846
  491TIP3    H123032   2.972   1.048   1.216 -0.8354 -1.7043 -1.1683
  491TIP3    H223033   3.095   0.973   1.170 -1.1348 -2.4362 -0.7789
  492TIP3   OH223034   2.120   5.959   1.529 -0.2207  0.3096 -0.3443
  492TIP3    H123035   2.144   5.875   1.489  0.6236  0.8982 -1.1065
  492TIP3    H223036   2.064   6.001   1.465 -0.6924  0.3136  0.0647
  493TIP3   OH223037   2.671   3.383   0.847 -0.0182  0.0030  0.3570
  493TIP3    H123038   2.703   3.325   0.778  1.5913 -0.9844  1.8513
  493TIP3    H223039   2.748   3.432   0.875 -0.8594  1.1149  0.7831
  494TIP3   OH223040   6.087   1.575   7.547 -0.3716 -0.1086 -0.5339
  494TIP3    H123041   6.052   1.525   7.621  0.4138 -0.5628 -0.4603
  494TIP3    H223042   6.082   1.666   7.576 -3.6139  0.1268 -1.4030
  495TIP3   OH223043   4.786   4.377   8.225 -0.0962  0.3785 -0.0523
  495TIP3    H123044   4.755   4.454   8.177 -1.0802  1.1089  1.6857
  495TIP3    H223045   4.742   4.303   8.183 -0.5303  0.9398 -0.6049
  496TIP3   OH223046   1.040   1.501   8.106 -0.4679  0.0605 -0.0370
  496TIP3    H123047   0.978   1.568   8.131 -1.8129 -0.2712 -2.2120
  496TIP3    H223048   1.110   1.548   8.061  1.0925  0.4566  2.5745
  497TIP3   OH223049   4.838   5.103   8.097 -0.4315  0.1708 -0.7678
  497TIP3    H123050   4.897   5.178   8.089 -0.8042  0.3565 -2.1390
  497TIP3    H223051   4.768   5.121   8.033 -1.2206 -0.7135 -0.1791
  498TIP3   OH223052   2.482   4.891   7.426  0.7941 -0.3889  0.1161
  498TIP3    H123053   2.412   4.835   7.458 -0.4314 -0.0095 -1.7263
  498TIP3    H223054   2.513   4.938   7.503  1.1006 -2.7322  1.5022
  499TIP3   OH223055   4.161   5.793   7.746 -0.3602 -0.2030 -0.1640
  499TIP3    H123056   4.146   5.766   7.655 -3.5325  0.2121  0.1396
  499TIP3    H223057   4.252   5.769   7.763  0.3505 -0.3023 -3.4332
  500TIP3   OH223058   6.294   1.523   1.801  0.1299 -0.2225 -0.8394
  500TIP3    H123059   6.304   1.523   1.705  1.1755  1.3557 -0.7763
  500TIP3    H223060   6.208   1.483   1.816  0.7860 -2.3592 -2.2944
  501TIP3   OH223061   5.154   5.705   0.564 -0.0232  0.5033 -0.4082
  501TIP3    H123062   5.233   5.653   0.575 -1.1320 -1.3920 -1.0132
  501TIP3    H223063   5.124   5.723   0.653 -1.1138 -2.3491 -0.0939
  502TIP3   OH223064   5.799   6.603   7.851 -0.1485 -0.2339 -0.0489
  502TIP3    H123065   5.886   6.642   7.849 -0.3313  0.1461 -1.9860
  502TIP3    H223066   5.807   6.522   7.800 -0.7877 -0.5561  0.3422
  503TIP3   OH223067   4.474   1.731   6.888 -0.1611  0.4393 -0.2482
  503TIP3    H123068   4.386   1.758   6.862  0.2361  1.5947 -0.4833
  503TIP3    H223069   4.523   1.727   6.805 -0.0625 -0.4899 -0.1511
  504TIP3   OH223070   2.066   3.059   1.641  0.0842  0.6085 -0.2060
  504TIP3    H123071   2.127   3.005   1.691 -0.9208  0.6814  1.1646
  504TIP3    H223072   2.100   3.148   1.650  0.0705  0.5835  0.1358
  505TIP3   OH223073   4.013   4.523   8.334 -0.4690 -1.1039 -0.1049
  505TIP3    H123074   4.017   4.596   8.396  1.4809  1.9380 -3.4749
  505TIP3    H223075   4.082   4.463   8.363  1.9533  1.3482 -0.4510
  506TIP3   OH223076   4.629   5.221   8.659  0.1642  0.5642  0.1501
  506TIP3    H123077   4.652   5.307   8.695  0.6118  0.3000  0.5214
  506TIP3    H223078   4.678   5.215   8.577  1.9600 -0.2265  1.2154
  507TIP3   OH223079   3.190   2.891   0.542  0.3336  0.4248  0.2897
  507TIP3    H123080   3.175   2.890   0.637  0.5380  0.7260  0.3249
  507TIP3    H223081   3.106   2.864   0.505  0.0780  0.8708  0.5364
  508TIP3   OH223082   1.744   6.445   7.530  0.1679  0.6630  0.3490
  508TIP3    H123083   1.801   6.507   7.574  0.9945  1.1421 -1.3119
  508TIP3    H223084   1.679   6.499   7.486 -1.1676  0.1521  1.6002
  509TIP3   OH223085   1.846   4.163   6.532  0.2444 -0.4219  0.4839
  509TIP3    H123086   1.855   4.178   6.626  0.0915 -0.3625  0.4887
  509TIP3    H223087   1.754   4.143   6.519  0.0552  0.5733  0.2077
  510TIP3   OH223088   5.351   2.219   2.245 -0.0418  0.4315  0.5253
  510TIP3    H123089   5.261   2.224   2.213 -0.1267 -1.1512  0.4234
  510TIP3    H223090   5.361   2.128   2.273  1.3545  0.7308  1.0780
  511TIP3   OH223091   0.579   5.369   8.591  0.4162  0.3355 -0.2209
  511TIP3    H123092   0.515   5.412   8.648 -0.2448 -1.3998  0.4103
  511TIP3    H223093   0.651   5.346   8.650  0.1991 -0.5152 -0.2691
  512TIP3   OH223094   6.367   3.363   0.116  0.4352  0.4211  0.1213
  512TIP3    H123095   6.327   3.303   0.178  0.1288 -0.4535 -0.9049
  512TIP3    H223096   6.352   3.324   0.030  2.0289  0.9104 -0.4245
  513TIP3   OH223097   3.602   2.409   7.461  0.2104 -0.0491  0.0851
  513TIP3    H123098   3.665   2.439   7.395  0.7939 -0.3131  0.5095
  513TIP3    H223099   3.656   2.390   7.538 -0.1790 -1.7188 -0.0169
  514TIP3   OH223100   1.061   4.267   0.486 -0.3110 -0.4075  0.0177
  514TIP3    H123101   1.070   4.229   0.573 -2.0671 -0.8132  0.0551
  514TIP3    H223102   1.049   4.361   0.502  0.8670 -0.2461  0.0927
  515TIP3   OH223103   3.089   0.419   1.152  0.1207  0.7001 -0.1569
  515TIP3    H123104   3.060   0.510   1.144 -1.4803  0.3781  1.3212
  515TIP3    H223105   3.120   0.412   1.243  1.0466 -0.0365 -0.5114
  516TIP3   OH223106   6.610   1.701   8.373  0.1679  0.0045  0.0186
  516TIP3    H123107   6.613   1.774   8.311  1.4081 -1.2428 -1.4819
  516TIP3    H223108   6.699   1.667   8.374  0.3279  0.3117  2.9835
  517TIP3   OH223109   0.940   5.482   1.212 -0.3715 -0.1695  0.0787
  517TIP3    H123110   0.959   5.389   1.226  1.3378  0.3882  2.0585
  517TIP3    H223111   1.016   5.515   1.164 -1.0618  0.1997 -0.7963
  518TIP3   OH223112   2.296   3.039   1.114 -0.0274 -0.4757  0.3596
  518TIP3    H123113   2.268   3.077   1.031 -0.7033 -0.8697  0.3994
  518TIP3    H223114   2.311   2.946   1.095  1.1069 -0.3115  0.3821
  519TIP3   OH223115   2.995   4.335   2.561  0.0597 -0.2857  0.3499
  519TIP3    H123116   2.998   4.427   2.534 -0.0337 -0.2538  0.4439
  519TIP3    H223117   3.014   4.286   2.482  0.4591 -0.1754  0.3786
  520TIP3   OH223118   0.664   6.757   7.648 -0.7846  0.0295 -0.1933
  520TIP3    H123119   0.732   6.812   7.609  0.7572 -0.6851  1.3586
  520TIP3    H223120   0.664   6.678   7.595  0.3515 -0.3867  0.3998
  521TIP3   OH223121   6.398   0.800   8.341  0.3531  0.4259  0.1918
  521TIP3    H123122   6.421   0.839   8.257  0.1801 -0.9628 -0.5318
  521TIP3    H223123   6.338   0.863   8.381 -0.1907  0.7578 -1.0758
  522TIP3   OH223124   4.952   2.440   0.649  0.1618  0.6326 -0.5811
  522TIP3    H123125   4.924   2.397   0.569 -1.1838 -0.2359  0.3244
  522TIP3    H223126   4.919   2.530   0.641 -2.7497 -0.2483  0.2772
  523TIP3   OH223127   2.373   6.440   1.154  0.3206 -0.4240  0.2602
  523TIP3    H123128   2.409   6.373   1.095 -0.4144 -2.0649  1.5763
  523TIP3    H223129   2.314   6.491   1.099  0.8843 -0.8529 -0.7846
  524TIP3   OH223130   0.485   4.025   1.493  0.0413 -0.4069 -0.0987
  524TIP3    H123131   0.417   4.064   1.438 -0.7646  0.0369  1.1565
  524TIP3    H223132   0.451   4.034   1.582  1.0888 -1.5282  0.4402
  525TIP3   OH223133   5.413   5.628   8.364  0.2356 -0.0836 -0.6364
  525TIP3    H123134   5.422   5.588   8.277  0.3608  0.8942 -1.0863
  525TIP3    H223135   5.332   5.679   8.359  0.5436  0.4379 -0.3638
  526TIP3   OH223136   5.535   2.513   6.470  0.6360 -0.6298 -0.4925
  526TIP3    H123137   5.538   2.601   6.432  1.7994 -0.6558 -0.4942
  526TIP3    H223138   5.567   2.526   6.560 -1.8328 -0.6037  0.4553
  527TIP3   OH223139   3.078   2.480   1.064 -0.0112  0.1826 -0.2853
  527TIP3    H123140   3.034   2.426   1.129  1.8707 -0.8721  0.1799
  527TIP3    H223141   3.023   2.558   1.056 -1.1430 -0.4109  1.3379
  528TIP3   OH223142   4.327   3.484   8.447  0.7112  0.0028 -0.1228
  528TIP3    H123143   4.382   3.542   8.393  0.0734  3.3507  2.4493
  528TIP3    H223144   4.279   3.430   8.384  3.3865  0.3102 -2.6164
  529TIP3   OH223145   4.534   5.060   7.326  0.3310  0.1590 -0.2020
  529TIP3    H123146   4.602   5.127   7.336  1.1448 -0.6555 -0.0394
  529TIP3    H223147   4.505   5.068   7.236  0.2722  0.8639 -0.1248
  530TIP3   OH223148   4.452   1.675   1.445 -0.0762  0.2051 -0.0258
  530TIP3    H123149   4.357   1.663   1.443 -0.2796  1.3221  1.4948
  530TIP3    H223150   4.465   1.769   1.430  0.9827 -0.3022 -2.9944
  531TIP3   OH223151   3.454   3.927   8.065  0.1623  0.1013 -0.5335
  531TIP3    H123152   3.375   3.880   8.036 -1.3792  1.0578  1.7749
  531TIP3    H223153   3.443   4.015   8.030 -2.0200  1.4473  2.9460
  532TIP3   OH223154   6.536   2.133   8.072 -0.4626  0.3037 -0.7020
  532TIP3    H123155   6.617   2.102   8.113 -1.6337  0.4965  2.0019
  532TIP3    H223156   6.504   2.057   8.023  0.5838 -0.2572 -0.5582
  533TIP3   OH223157   1.507   6.743   2.304  0.1566  0.1807  0.1841
  533TIP3    H123158   1.415   6.769   2.305 -0.1216 -0.6518 -1.2285
  533TIP3    H223159   1.546   6.796   2.234  1.3177  2.1620  2.1800
  534TIP3   OH223160   4.436   0.432   7.961 -0.3248  0.1012  0.3181
  534TIP3    H123161   4.503   0.484   8.006 -0.3327 -0.6428  1.2175
  534TIP3    H223162   4.354   0.477   7.982 -0.1905  0.5890 -0.1740
  535TIP3   OH223163   0.733   4.978   1.331 -0.2113 -0.0357 -0.1584
  535TIP3    H123164   0.670   5.011   1.395 -1.4898 -0.9421 -0.8801
  535TIP3    H223165   0.685   4.982   1.248  0.5686 -1.0829 -0.6737
  536TIP3   OH223166   0.309   0.130   1.145 -0.0766  0.2736  0.0358
  536TIP3    H123167   0.250   0.080   1.089 -0.1363  2.0480 -1.5777
  536TIP3    H223168   0.392   0.132   1.098 -0.0775  1.6617  0.0399
  537TIP3   OH223169   6.777   1.232   1.652 -0.0220  0.4392 -0.0646
  537TIP3    H123170   6.870   1.221   1.669 -0.0259  0.5667  0.0407
  537TIP3    H223171   6.747   1.146   1.622 -0.1272  0.0517  1.0931
  538TIP3   OH223172   5.729   4.478   7.849  0.4094  0.0012  0.1376
  538TIP3    H123173   5.672   4.475   7.772  0.4404 -1.9082  0.1264
  538TIP3    H223174   5.817   4.465   7.814  0.5769  0.4734  0.3782
  539TIP3   OH223175   6.525   3.501   7.635  0.6416  0.3122 -0.2446
  539TIP3    H123176   6.619   3.483   7.626  0.5524 -0.7220  0.6486
  539TIP3    H223177   6.485   3.414   7.642 -0.2363  0.7698  0.6415
  540TIP3   OH223178   0.017   4.754   2.152  0.0392 -0.2051  0.6542
  540TIP3    H123179   0.054   4.842   2.143 -2.3857  0.7711 -0.7629
  540TIP3    H223180   0.007   4.741   2.246  2.6342 -0.0140  1.0305
  541TIP3   OH223181   2.415   3.946   0.513  0.1420  0.0950 -0.1209
  541TIP3    H123182   2.488   3.925   0.571 -0.3903  0.3451  0.6580
  541TIP3    H223183   2.354   3.995   0.568 -1.6479 -1.9742 -0.1063
  542TIP3   OH223184   5.358   1.805   2.666  0.2750 -0.6666  0.3386
  542TIP3    H123185   5.435   1.772   2.620  0.6650 -0.3831  0.7731
  542TIP3    H223186   5.302   1.841   2.597  1.6034  1.2907  0.2027
  543TIP3   OH223187   0.541   4.276   2.074  0.4409  0.2254 -0.3792
  543TIP3    H123188   0.550   4.319   1.989  1.4445  2.2092  0.6488
  543TIP3    H223189   0.611   4.313   2.127  1.1567 -2.4726  0.7605
  544TIP3   OH223190   4.638   3.430   8.830 -0.2957 -0.3539  0.4495
  544TIP3    H123191   4.699   3.485   8.781 -2.9417 -0.0436 -2.8422
  544TIP3    H223192   4.684   3.346   8.839  0.1480 -0.7448 -3.5316
  545TIP3   OH223193   5.045   6.302   8.071  0.1821  0.2214 -0.4202
  545TIP3    H123194   5.128   6.264   8.043 -0.0313 -2.7376  2.4311
  545TIP3    H223195   4.978   6.257   8.020  0.1193 -1.2727  0.8901
  546TIP3   OH223196   5.330   3.124   1.680 -0.2819 -0.2934 -0.2027
  546TIP3    H123197   5.322   3.151   1.772 -0.1654 -2.6456  0.5534
  546TIP3    H223198   5.424   3.131   1.662 -0.2275 -0.3839  0.0390
  547TIP3   OH223199   4.645   6.547   7.326 -0.4914 -0.1523  0.3092
  547TIP3    H123200   4.728   6.503   7.348 -0.2137  0.1250 -0.1592
  547TIP3    H223201   4.663   6.639   7.341 -1.4976 -0.2690  2.6483
  548TIP3   OH223202   4.790   1.144   7.922 -0.0070 -0.4812 -0.1989
  548TIP3    H123203   4.797   1.217   7.861 -0.7663  0.5831  0.9611
  548TIP3    H223204   4.849   1.167   7.994 -1.1253 -0.4070  0.7326
  549TIP3   OH223205   2.953   5.840   6.985 -0.1539  0.3591 -0.3992
  549TIP3    H123206   3.013   5.783   7.032  1.3969  0.1297 -2.5100
  549TIP3    H223207   3.009   5.900   6.935 -1.7097  1.8910 -0.4458
  550TIP3   OH223208   3.487   5.648   6.688  0.2490  0.7728 -0.0350
  550TIP3    H123209   3.566   5.686   6.649  1.2235  0.6621  1.7334
  550TIP3    H223210   3.519   5.580   6.747 -1.1792  0.5659  0.5506
  551TIP3   OH223211   4.542   6.390   0.911  0.0575 -0.0994 -0.2266
  551TIP3    H123212   4.515   6.411   0.822 -0.7882 -0.5023 -0.0727
  551TIP3    H223213   4.497   6.454   0.966 -0.1435 -0.4120 -0.0181
  552TIP3   OH223214   5.772   1.509   7.978 -0.2047  0.2661 -1.0840
  552TIP3    H123215   5.756   1.423   7.938  0.6107 -0.6264  0.3851
  552TIP3    H223216   5.692   1.527   8.028 -0.7382  0.8145 -2.1032
  553TIP3   OH223217   1.672   0.482   8.014 -0.0766  0.1108  0.1891
  553TIP3    H123218   1.636   0.544   7.951  0.6907 -0.2826 -0.6619
  553TIP3    H223219   1.596   0.448   8.061 -0.4113  3.1382  2.1212
  554TIP3   OH223220   2.902   6.445   0.616 -0.8687  0.0137  0.0544
  554TIP3    H123221   2.949   6.390   0.553  0.9440  0.9070  0.5362
  554TIP3    H223222   2.960   6.448   0.692 -0.9779  2.3587  0.1318
  555TIP3   OH223223   3.977   0.579   8.044 -0.4161  0.3786  0.4158
  555TIP3    H123224   3.936   0.541   8.121  0.3271  0.2822  0.7716
  555TIP3    H223225   3.959   0.673   8.051  0.5703  0.5163  1.2908
  556TIP3   OH223226   0.285   5.137   0.653 -0.4807  0.1118 -0.3243
  556TIP3    H123227   0.275   5.102   0.742 -1.5838 -2.0570 -1.2406
  556TIP3    H223228   0.247   5.225   0.659 -1.0051 -0.1779  1.2439
  557TIP3   OH223229   3.595   3.640   1.811 -0.1558  0.1029  0.3417
  557TIP3    H123230   3.644   3.560   1.830 -0.4738 -0.4398 -1.0123
  557TIP3    H223231   3.658   3.696   1.765 -0.8067 -0.7220 -1.6909
  558TIP3   OH223232   1.008   0.257   8.821  0.5001 -0.7349  0.4279
  558TIP3    H123233   0.960   0.206   8.887  1.3872 -0.0228  1.6655
  558TIP3    H223234   0.971   0.345   8.828 -1.3608 -1.1964 -2.0247
  559TIP3   OH223235   5.307   2.680   2.045  0.8561 -0.2727 -0.0034
  559TIP3    H123236   5.247   2.606   2.056  0.0343  0.3698 -0.0833
  559TIP3    H223237   5.296   2.707   1.954  2.8704 -1.4846 -0.6686
  560TIP3   OH223238   1.531   6.492   7.078  0.5156  0.3007  0.5564
  560TIP3    H123239   1.548   6.576   7.035 -0.4098  0.6381  0.8324
  560TIP3    H223240   1.602   6.435   7.047  0.0965  0.6293 -1.1516
  561TIP3   OH223241   0.269   2.210   6.849  0.0645  0.2952 -0.0028
  561TIP3    H123242   0.220   2.292   6.855 -1.5856 -0.6692  0.4591
  561TIP3    H223243   0.357   2.236   6.824 -0.2368  2.2666  0.8246
  562TIP3   OH223244   0.868   6.235   7.744  0.3140 -0.0998  0.4070
  562TIP3    H123245   0.822   6.217   7.662  0.6726 -0.3571  0.2589
  562TIP3    H223246   0.813   6.298   7.789 -0.2677 -0.5258  0.3055
  563TIP3   OH223247   1.389   6.211   6.974 -0.2075  0.9063  0.6765
  563TIP3    H123248   1.440   6.141   7.015  0.0903 -0.4931 -1.8780
  563TIP3    H223249   1.438   6.291   6.994  2.3818 -0.2261 -0.5698
  564TIP3   OH223250   2.524   5.410   0.286 -0.6040 -0.1761 -0.3059
  564TIP3    H123251   2.594   5.345   0.279  0.2428  0.8258 -1.7346
  564TIP3    H223252   2.444   5.360   0.272 -0.0994 -1.1744  0.2757
  565TIP3   OH223253   2.439   1.401   0.560  0.3405 -0.4564 -0.3473
  565TIP3    H123254   2.393   1.348   0.495 -1.1235 -0.1296  0.3801
  565TIP3    H223255   2.480   1.338   0.619  0.6786 -0.7558 -0.8964
  566TIP3   OH223256   1.999   3.791   1.725 -0.0734 -0.1541  0.5382
  566TIP3    H123257   1.903   3.790   1.721 -0.0292 -1.1044 -0.6130
  566TIP3    H223258   2.027   3.794   1.634  0.9873 -1.3764  0.7975
  567TIP3   OH223259   4.702   2.905   0.016 -0.2837 -0.6857 -0.5329
  567TIP3    H123260   4.795   2.926   0.019 -0.3116 -0.5059 -0.9120
  567TIP3    H223261   4.662   2.965   0.079 -0.3965  0.5931 -1.7774
  568TIP3   OH223262   0.537   4.673   8.116 -0.3782 -0.5638  0.3641
  568TIP3    H123263   0.461   4.623   8.086 -0.4133 -0.3698  0.1164
  568TIP3    H223264   0.613   4.620   8.090 -0.4141 -0.4758  0.0700
  569TIP3   OH223265   2.596   2.657   8.695 -0.0382  0.0272 -0.5757
  569TIP3    H123266   2.612   2.627   8.606 -1.6387  1.0931 -1.2743
  569TIP3    H223267   2.513   2.706   8.690 -1.2899 -1.6107  1.8783
  570TIP3   OH223268   0.658   1.148   7.810 -0.1841  0.2378 -0.0531
  570TIP3    H123269   0.741   1.170   7.853 -0.5109  0.1810  0.6173
  570TIP3    H223270   0.681   1.082   7.745  0.5480  1.3218 -0.9363
  571TIP3   OH223271   5.242   1.712   7.950  0.0652  0.1746  0.2426
  571TIP3    H123272   5.207   1.721   8.039 -1.0033  0.0233 -0.1593
  571TIP3    H223273   5.176   1.663   7.902  0.6623  0.2005 -0.6302
  572TIP3   OH223274   5.139   5.599   8.525  0.1100 -0.4509  0.3738
  572TIP3    H123275   5.190   5.632   8.599  0.7644 -1.1911  0.2690
  572TIP3    H223276   5.203   5.585   8.456 -0.6878  1.5785 -0.8506
  573TIP3   OH223277   5.454   6.601   7.456 -1.0391  0.3244 -0.0205
  573TIP3    H123278   5.401   6.671   7.419 -1.8063 -0.1839  0.1001
  573TIP3    H223279   5.524   6.646   7.503 -1.4579  1.0055 -0.0442
  574TIP3   OH223280   3.589   5.903   1.550 -0.4172 -0.4170 -0.8549
  574TIP3    H123281   3.631   5.824   1.585  0.5769 -0.0772 -1.2219
  574TIP3    H223282   3.550   5.945   1.626  0.8717 -0.1902 -0.2904
  575TIP3   OH223283   4.679   6.657   0.317  0.6419  0.2740 -0.4485
  575TIP3    H123284   4.680   6.747   0.283  0.9116  0.5731  0.3315
  575TIP3    H223285   4.734   6.660   0.395  0.2362 -0.4597 -0.1237
  576TIP3   OH223286   1.678   6.577   0.807  0.7376  0.4339 -0.2230
  576TIP3    H123287   1.622   6.508   0.771 -0.2414  1.9434 -1.7467
  576TIP3    H223288   1.628   6.614   0.879  1.0253 -0.0605  0.2389
  577TIP3   OH223289   0.661   0.585   7.167  0.1811 -0.0243  0.4639
  577TIP3    H123290   0.602   0.570   7.093  1.6009 -1.4577 -0.4431
  577TIP3    H223291   0.737   0.628   7.129  0.2232  0.7606  1.4053
  578TIP3   OH223292   2.051   0.557   1.136  0.5527 -0.4553 -0.1021
  578TIP3    H123293   2.092   0.574   1.221 -0.7859 -0.9865  0.6893
  578TIP3    H223294   2.124   0.534   1.079  1.4316 -0.6918  1.0679
  579TIP3   OH223295   0.824   3.234   8.797 -0.3107  0.1778  0.9281
  579TIP3    H123296   0.769   3.266   8.869  1.3084  0.1927  2.2270
  579TIP3    H223297   0.763   3.221   8.724 -1.9294  0.6884  2.1242
  580TIP3   OH223298   0.799   4.996   0.730  0.0887  0.1130 -0.5084
  580TIP3    H123299   0.868   5.063   0.736 -0.5236  0.6887  0.4733
  580TIP3    H223300   0.792   4.977   0.637  1.9591 -0.3754 -0.5888
  581TIP3   OH223301   4.465   1.473   0.627  0.1386  0.1206  0.5687
  581TIP3    H123302   4.493   1.395   0.676 -0.7200 -0.9716 -0.6079
  581TIP3    H223303   4.435   1.438   0.543 -1.1435  1.6367  0.3620
  582TIP3   OH223304   2.881   1.867   1.801  0.3869  0.0281  0.7997
  582TIP3    H123305   2.857   1.911   1.882  1.4306  1.8634  0.1844
  582TIP3    H223306   2.803   1.874   1.746 -0.0822 -0.5825  1.3759
  583TIP3   OH223307   3.055   5.278   7.563 -0.4102 -0.2005 -0.5182
  583TIP3    H123308   2.975   5.291   7.614  0.1710  0.9799  0.1285
  583TIP3    H223309   3.078   5.365   7.532 -0.4448 -0.8103 -2.3846
  584TIP3   OH223310   2.666   2.841   0.155  0.0088 -0.5777  0.4748
  584TIP3    H123311   2.621   2.757   0.156 -0.1095 -0.5890  3.1310
  584TIP3    H223312   2.600   2.903   0.125 -0.1707 -1.2932 -0.6523
  585TIP3   OH223313   1.819   3.599   7.008 -0.0186  0.0020 -0.0172
  585TIP3    H123314   1.849   3.589   6.918 -0.3679 -1.2352 -0.0094
  585TIP3    H223315   1.807   3.510   7.040  2.7876  0.2783  2.1794
  586TIP3   OH223316   1.484   4.903   7.451 -0.4387 -0.1194 -0.5232
  586TIP3    H123317   1.540   4.826   7.442 -1.8041 -1.0194 -1.5777
  586TIP3    H223318   1.516   4.946   7.530  0.2470 -1.8375  0.1762
  587TIP3   OH223319   1.988   4.779   1.535 -0.1837 -0.9282  0.0985
  587TIP3    H123320   2.059   4.837   1.507 -1.7717  0.9109 -0.3664
  587TIP3    H223321   1.976   4.799   1.627 -0.4219 -0.8598  0.0532
  588TIP3   OH223322   2.144   2.809   6.628 -0.7947  0.1131  0.4625
  588TIP3    H123323   2.169   2.721   6.656 -0.6727  0.0393  0.1339
  588TIP3    H223324   2.198   2.824   6.550 -0.5204  0.6382  0.7499
  589TIP3   OH223325   3.421   6.685   6.740 -0.1797  0.7863  0.1495
  589TIP3    H123326   3.410   6.722   6.652 -1.3605  1.1678  0.4426
  589TIP3    H223327   3.385   6.596   6.733  2.0782 -0.1564 -0.3911
  590TIP3   OH223328   5.133   0.310   6.957 -0.4836 -0.5110 -0.1163
  590TIP3    H123329   5.144   0.383   6.896  0.6656 -1.1316 -0.6842
  590TIP3    H223330   5.064   0.339   7.017  0.0570  1.0856 -0.2306
  591TIP3   OH223331   5.126   4.003   7.804  0.0202  0.3985 -0.2643
  591TIP3    H123332   5.164   3.992   7.892  0.4910  0.2478 -0.4797
  591TIP3    H223333   5.037   4.033   7.820 -0.4265 -1.1346  0.3175
  592TIP3   OH223334   6.053   5.600   6.822  0.3212  0.0412 -0.1020
  592TIP3    H123335   6.039   5.695   6.822 -0.7790 -0.0566  2.2171
  592TIP3    H223336   5.974   5.564   6.781  1.3171  0.1180 -2.2152
  593TIP3   OH223337   1.983   1.491   6.906 -0.2719 -0.4710 -0.0521
  593TIP3    H123338   1.987   1.544   6.826 -1.5273 -1.6386 -0.9543
  593TIP3    H223339   2.063   1.511   6.953  0.7403 -0.0896 -1.8455
  594TIP3   OH223340   6.339   1.904   7.367 -0.1195  0.1918 -0.6437
  594TIP3    H123341   6.282   1.828   7.376  0.8337 -0.5675 -0.7821
  594TIP3    H223342   6.280   1.978   7.354 -1.1596 -0.2554  1.1940
  595TIP3   OH223343   1.746   4.001   7.496  0.3314  0.1901 -0.5363
  595TIP3    H123344   1.789   4.017   7.411  1.3158  0.9135  0.0741
  595TIP3    H223345   1.769   3.911   7.518  0.2060  0.0516 -0.9644
  596TIP3   OH223346   5.254   6.576   8.535 -0.1498 -0.2585 -0.2482
  596TIP3    H123347   5.238   6.650   8.593 -0.7925  0.9072 -1.8402
  596TIP3    H223348   5.328   6.530   8.575  1.1256  1.9754  0.1467
  597TIP3   OH223349   6.142   3.412   7.329  0.1653  0.3226 -0.0694
  597TIP3    H123350   6.083   3.400   7.255 -1.5841 -1.3175  1.4534
  597TIP3    H223351   6.182   3.326   7.342  0.0919  0.4494  1.1289
  598TIP3   OH223352   3.103   5.987   8.065  0.0333 -0.0110 -0.4287
  598TIP3    H123353   3.057   5.904   8.072 -0.5342  0.3725  0.4733
  598TIP3    H223354   3.038   6.048   8.030 -0.1645  0.5371  0.8662
  599TIP3   OH223355   3.720   6.145   7.189  0.3275  0.0675  0.2382
  599TIP3    H123356   3.784   6.176   7.253  0.0747 -1.2256  1.1417
  599TIP3    H223357   3.638   6.139   7.238  0.0542 -0.6089 -0.2930
  600TIP3   OH223358   3.954   4.160   1.438 -0.3634  0.2232  0.4596
  600TIP3    H123359   4.004   4.095   1.488  0.7503  0.8557  0.1998
  600TIP3    H223360   3.992   4.244   1.464 -2.7021  0.9466  1.8722
  601TIP3   OH223361   3.550   5.889   8.484 -0.1862 -0.3243 -0.0454
  601TIP3    H123362   3.490   5.815   8.473  1.8503 -1.7961 -2.5703
  601TIP3    H223363   3.564   5.921   8.394 -0.2334  2.5533  0.8845
  602TIP3   OH223364   3.212   2.735   1.203 -0.5096  0.4691 -0.0207
  602TIP3    H123365   3.161   2.816   1.201  1.0031  1.5268  1.4452
  602TIP3    H223366   3.298   2.761   1.236 -0.2525 -1.8821  1.4091
  603TIP3   OH223367   0.245   2.737   7.645 -0.5350  0.1730  0.3037
  603TIP3    H123368   0.197   2.655   7.642  0.7645 -0.5838 -0.3859
  603TIP3    H223369   0.187   2.797   7.694 -2.1700 -0.6785 -0.5281
  604TIP3   OH223370   4.683   4.487   8.520  0.3130 -0.4930  0.5277
  604TIP3    H123371   4.619   4.546   8.560  0.8665 -0.1936  0.9750
  604TIP3    H223372   4.746   4.545   8.477  1.0081 -0.7450  1.1909
  605TIP3   OH223373   3.867   1.806   0.041  0.3093  0.1165  0.4362
  605TIP3    H123374   3.871   1.885  -0.013  1.0607  0.2674  0.6909
  605TIP3    H223375   3.853   1.838   0.130  0.7505 -0.0228  0.5593
  606TIP3   OH223376   6.248   4.129   7.651 -0.1034  0.5347  0.2344
  606TIP3    H123377   6.167   4.176   7.672  1.0083  1.8719  1.8139
  606TIP3    H223378   6.275   4.166   7.567 -1.3940 -0.3567 -0.6145
  607TIP3   OH223379   0.494   1.888   7.383  0.1988  0.0501  0.1907
  607TIP3    H123380   0.584   1.915   7.398  0.8206 -1.1386 -1.1937
  607TIP3    H223381   0.445   1.970   7.376  0.9345  0.6938  2.1239
  608TIP3   OH223382   0.914   4.388   1.763  0.4172 -0.2057 -0.0506
  608TIP3    H123383   0.827   4.356   1.786  0.4194 -1.3155 -1.4464
  608TIP3    H223384   0.968   4.370   1.840 -0.6242  0.7784  0.9448
  609TIP3   OH223385   6.065   0.336   6.866 -0.1294 -0.1018  0.4026
  609TIP3    H123386   6.000   0.406   6.872 -0.5055 -0.1221 -2.1581
  609TIP3    H223387   6.021   0.267   6.815  1.4116 -0.7136 -0.1614
  610TIP3   OH223388   4.714   3.786   7.148  0.8927  0.2889 -0.2583
  610TIP3    H123389   4.752   3.856   7.201  0.8621 -0.4592  0.7754
  610TIP3    H223390   4.755   3.706   7.180 -1.9873 -0.6760  1.4402
  611TIP3   OH223391   6.057   1.830   7.607 -0.5331  0.4361 -0.5766
  611TIP3    H123392   5.962   1.828   7.595 -0.3468  0.4056 -2.3733
  611TIP3    H223393   6.081   1.922   7.602 -0.6817  0.7438  2.4696
  612TIP3   OH223394   4.664   0.233   6.751 -0.0079  0.5579  0.2372
  612TIP3    H123395   4.631   0.157   6.800 -1.2486  1.1509  0.3776
  612TIP3    H223396   4.588   0.262   6.700  0.5904  1.4116 -0.1811
  613TIP3   OH223397   3.364   1.144   6.858  0.1415  0.8349  0.2035
  613TIP3    H123398   3.392   1.169   6.946  0.1534  0.9932  0.1545
  613TIP3    H223399   3.446   1.121   6.812  0.3334  2.3698 -0.2846
  614TIP3   OH223400   5.592   2.158   8.338 -0.0987 -0.0754  0.1644
  614TIP3    H123401   5.671   2.106   8.348  1.1796  1.4962 -1.1879
  614TIP3    H223402   5.524   2.108   8.385  0.9461 -3.0690 -1.2368
  615TIP3   OH223403   3.231   4.322   7.277 -0.0973  0.4537 -0.0221
  615TIP3    H123404   3.225   4.408   7.236  1.3684  1.5821  1.9619
  615TIP3    H223405   3.283   4.269   7.216 -1.4026  0.7612 -1.4772
  616TIP3   OH223406   3.053   0.840   0.594  0.4160 -0.3340  0.7066
  616TIP3    H123407   3.056   0.934   0.607  0.2532 -0.2972  0.4717
  616TIP3    H223408   2.986   0.809   0.654  0.6646 -0.3350  0.9869
  617TIP3   OH223409   3.422   5.553   0.792  0.3551  0.1549 -0.1474
  617TIP3    H123410   3.370   5.577   0.869 -0.8890  0.2911 -0.9961
  617TIP3    H223411   3.468   5.473   0.818  1.5564  1.2890  1.4076
  618TIP3   OH223412   0.922   5.525   0.266 -0.3767 -0.7081  0.6020
  618TIP3    H123413   0.918   5.539   0.360  0.5274 -2.2772  0.9112
  618TIP3    H223414   0.966   5.603   0.232 -0.4348 -0.2674  1.5007
  619TIP3   OH223415   6.435   4.165   2.735 -0.0612 -0.1219  0.6279
  619TIP3    H123416   6.408   4.198   2.649  3.0522  1.8836  0.2645
  619TIP3    H223417   6.464   4.243   2.783  1.1562 -1.5517  2.3605
  620TIP3   OH223418   5.753   0.697   0.683  0.6827 -0.0108  0.7694
  620TIP3    H123419   5.794   0.646   0.614  1.2344  0.7341  0.5327
  620TIP3    H223420   5.753   0.639   0.759  1.4022 -0.3249  0.5343
  621TIP3   OH223421   0.659   3.564   1.656 -0.3488 -0.0255  0.0371
  621TIP3    H123422   0.733   3.526   1.703 -1.4241  0.4570  2.2196
  621TIP3    H223423   0.655   3.514   1.574  4.4764  2.1509 -1.9375
  622TIP3   OH223424   6.736   4.209   8.386  0.1831 -0.1301  0.5060
  622TIP3    H123425   6.742   4.304   8.380  1.5678 -0.2619 -0.7166
  622TIP3    H223426   6.772   4.177   8.303 -1.9765 -1.6886  0.0667
  623TIP3   OH223427   4.791   6.159   0.349 -0.3946  0.5653 -0.5156
  623TIP3    H123428   4.756   6.104   0.279 -1.7404 -0.4063  0.8538
  623TIP3    H223429   4.755   6.122   0.430  2.0951  0.8601  0.8432
  624TIP3   OH223430   5.352   5.230   1.794  0.1472  0.0488 -0.0906
  624TIP3    H123431   5.445   5.239   1.817  0.4687 -1.5743 -0.6078
  624TIP3    H223432   5.327   5.317   1.763  0.9856  1.0146  1.7484
  625TIP3   OH223433   3.671   5.389   1.381  0.4559  0.3170 -0.0149
  625TIP3    H123434   3.686   5.305   1.338  0.6502 -0.1628  0.9692
  625TIP3    H223435   3.581   5.413   1.355  0.3609 -0.2393 -0.2092
  626TIP3   OH223436   2.017   6.612   7.444 -1.1796 -0.1123  0.1951
  626TIP3    H123437   2.041   6.521   7.458 -0.5240  0.2767  1.8146
  626TIP3    H223438   1.925   6.609   7.420 -1.0295 -1.2267 -0.3023
  627TIP3   OH223439   6.344   1.809   0.732  0.5535  0.4925  0.2834
  627TIP3    H123440   6.413   1.745   0.752  2.4606  2.5158  0.5380
  627TIP3    H223441   6.389   1.880   0.687 -1.2336  2.2739  1.1533
  628TIP3   OH223442   3.983   1.048   1.742  0.1164  0.0122  0.3153
  628TIP3    H123443   3.997   1.115   1.809  2.0996 -0.7272  0.7368
  628TIP3    H223444   3.967   0.967   1.791 -1.0317 -0.0705 -0.1643
  629TIP3   OH223445   3.685   0.564   0.194 -0.4175 -0.7728 -0.5816
  629TIP3    H123446   3.673   0.654   0.223  0.9885 -0.8672  0.3953
  629TIP3    H223447   3.658   0.564   0.103 -0.8844  0.5283 -0.4599
  630TIP3   OH223448   2.837   0.601   7.796  0.3700 -0.1357  0.0284
  630TIP3    H123449   2.931   0.582   7.790  0.3002 -0.8861  1.1210
  630TIP3    H223450   2.816   0.642   7.712  1.6794  0.0790 -0.2165
  631TIP3   OH223451   3.690   4.363   1.131 -0.2112 -0.6960 -0.0506
  631TIP3    H123452   3.702   4.419   1.055  2.6330  2.8386  2.6456
  631TIP3    H223453   3.702   4.274   1.097  0.3572  0.6016 -3.7549
  632TIP3   OH223454   3.152   2.549   1.406 -0.5319 -0.0703 -0.1238
  632TIP3    H123455   3.171   2.490   1.332  0.4451 -1.8850  1.4848
  632TIP3    H223456   3.161   2.637   1.369  0.6546 -0.9076 -1.9824
  633TIP3   OH223457   4.987   0.015   8.645  0.3001 -0.3514 -0.2030
  633TIP3    H123458   4.962  -0.076   8.630 -2.3565  0.3544 -0.6529
  633TIP3    H223459   4.929   0.065   8.588  0.4371  1.7220  1.3516
  634TIP3   OH223460   5.843   2.524   7.629 -0.2104 -0.1982 -0.4459
  634TIP3    H123461   5.892   2.470   7.691  0.2503  1.5317  0.7726
  634TIP3    H223462   5.761   2.477   7.616 -0.3099 -0.6378  1.5011
  635TIP3   OH223463   2.295   0.448   2.566 -0.5509  0.0062  0.3348
  635TIP3    H123464   2.314   0.538   2.539 -1.5116 -0.0036 -0.4327
  635TIP3    H223465   2.331   0.394   2.495  0.1685 -0.2343  0.8725
  636TIP3   OH223466   6.060   6.429   1.590  0.4790 -0.1152 -0.6053
  636TIP3    H123467   5.982   6.375   1.579  1.2356 -1.4986  0.5456
  636TIP3    H223468   6.053   6.495   1.521 -1.3579 -0.6071 -0.9426
  637TIP3   OH223469   1.592   2.792   0.941 -0.0866  0.0915  0.0602
  637TIP3    H123470   1.533   2.820   0.872 -1.6872 -0.6938  1.0421
  637TIP3    H223471   1.553   2.828   1.021  0.4484 -0.9300  0.7953
  638TIP3   OH223472   5.836   1.019   8.336 -0.0759  0.0895 -0.3483
  638TIP3    H123473   5.792   1.047   8.417  1.0247  1.6296 -0.2293
  638TIP3    H223474   5.799   0.933   8.317 -1.9533  0.6330  0.5990
  639TIP3   OH223475   4.949   3.948   8.568 -0.2861  0.4552 -0.3143
  639TIP3    H123476   4.946   4.039   8.597 -2.5353  0.5868 -0.7823
  639TIP3    H223477   4.871   3.937   8.512 -0.4634 -1.9095  0.2531
  640TIP3   OH223478   0.853   6.729   8.416 -0.3057 -0.0734 -0.1418
  640TIP3    H123479   0.848   6.787   8.339  0.0161 -0.0557 -0.1498
  640TIP3    H223480   0.941   6.691   8.412 -0.5319 -0.5974 -0.1568
  641TIP3   OH223481   3.692   2.425   6.443  0.5565 -0.0972 -0.0632
  641TIP3    H123482   3.661   2.511   6.472  0.7760 -0.5680  1.6805
  641TIP3    H223483   3.724   2.440   6.354 -0.6870  1.3122 -0.3082
  642TIP3   OH223484   0.418   4.814   1.145  0.1450  0.5065 -0.0021
  642TIP3    H123485   0.477   4.890   1.144 -0.5376  1.0459 -0.6945
  642TIP3    H223486   0.394   4.804   1.237  0.4968  0.9257  0.1402
  643TIP3   OH223487   6.430   4.713   8.213  0.3492 -0.1169  0.1072
  643TIP3    H123488   6.389   4.655   8.277  1.4644 -0.3934  0.5823
  643TIP3    H223489   6.513   4.671   8.191  0.2667  0.2923 -1.0636
  644TIP3   OH223490   2.675   3.027   8.721  0.4031 -0.1382  0.1088
  644TIP3    H123491   2.626   2.960   8.673  0.1035  0.2710 -0.1548
  644TIP3    H223492   2.765   2.992   8.725  1.2200  1.1730 -3.4359
  645TIP3   OH223493   0.005   2.487   0.671  0.5989 -0.0993  0.5596
  645TIP3    H123494   0.027   2.575   0.641 -0.5936  0.0694  0.1067
  645TIP3    H223495   0.076   2.464   0.731  1.5671  0.6784 -0.2379
  646TIP3   OH223496   1.834   5.133   1.256  0.7091  0.0433 -0.0509
  646TIP3    H123497   1.836   5.213   1.307  2.1898  0.3711 -0.5752
  646TIP3    H223498   1.918   5.131   1.211 -0.3910 -0.3750 -2.2431
  647TIP3   OH223499   0.877   0.267   7.731  0.3552 -0.1188 -0.3816
  647TIP3    H123500   0.880   0.339   7.668  2.7850 -0.4968 -0.7670
  647TIP3    H223501   0.904   0.191   7.682  0.3796 -0.8060  0.6622
  648TIP3   OH223502   2.319   0.457   1.609  0.8491 -0.1051 -0.5465
  648TIP3    H123503   2.336   0.395   1.680 -0.8491 -1.3539 -1.1511
  648TIP3    H223504   2.381   0.528   1.624  1.2276 -0.7971  1.6002
  649TIP3   OH223505   6.447   3.995   0.704 -0.5021 -0.0779 -0.0960
  649TIP3    H123506   6.487   3.975   0.620  0.2566 -0.4745  0.3506
  649TIP3    H223507   6.496   3.942   0.767 -0.5278  0.8210  0.7017
  650TIP3   OH223508   3.117   6.121   2.289 -0.2805  0.1613 -0.3759
  650TIP3    H123509   3.074   6.051   2.338 -0.4903  0.7458  0.2838
  650TIP3    H223510   3.078   6.202   2.321  1.9147  0.8015  0.9305
  651TIP3   OH223511   0.770   0.166   0.516 -0.9815 -0.3081  0.2604
  651TIP3    H123512   0.794   0.182   0.608 -2.6328 -2.5667  1.1737
  651TIP3    H223513   0.748   0.253   0.482  0.8486  0.7617  1.5858
  652TIP3   OH223514   1.912   6.571   6.419  0.3251  0.1012 -0.7586
  652TIP3    H123515   1.828   6.605   6.449  0.9547  0.7972  0.2962
  652TIP3    H223516   1.936   6.505   6.484  1.6310  1.5106  0.2490
  653TIP3   OH223517   6.694   1.426   1.425 -0.3673  0.0767  0.1743
  653TIP3    H123518   6.720   1.426   1.517  1.3108  1.6411 -0.2268
  653TIP3    H223519   6.601   1.450   1.426 -0.3994 -0.0240  1.4580
  654TIP3   OH223520   5.158   0.824   8.368  0.0118 -0.0979 -0.4981
  654TIP3    H123521   5.109   0.800   8.446  1.1941  1.9457  0.9706
  654TIP3    H223522   5.095   0.873   8.315 -0.2047  0.4624  0.2591
  655TIP3   OH223523   0.190   6.127   6.780 -0.3812 -0.0706  0.1903
  655TIP3    H123524   0.184   6.098   6.689 -1.2309 -1.3527  0.6267
  655TIP3    H223525   0.248   6.064   6.822  0.7489  1.0425  0.3634
  656TIP3   OH223526   2.883   5.305   0.044  0.1936  0.0971  0.0440
  656TIP3    H123527   2.806   5.331  -0.007  1.1391  0.8002 -1.0635
  656TIP3    H223528   2.947   5.373   0.028  1.9350 -1.7084 -1.0799
  657TIP3   OH223529   0.274   1.139   0.554 -0.0920  0.1983  0.1921
  657TIP3    H123530   0.243   1.067   0.608 -0.8787  0.2387 -0.2040
  657TIP3    H223531   0.317   1.097   0.480  0.2045  0.1448  0.3906
  658TIP3   OH223532   0.265   3.483   6.969 -0.0743 -0.2818  0.1835
  658TIP3    H123533   0.349   3.477   7.015  0.2163 -0.0125 -0.3007
  658TIP3    H223534   0.256   3.576   6.947 -1.4441  0.0676  1.9381
  659TIP3   OH223535   0.347   2.959   6.742 -0.2205  0.1378 -0.4002
  659TIP3    H123536   0.321   3.013   6.816  0.3952 -1.1370  0.7853
  659TIP3    H223537   0.439   2.940   6.757 -0.2513 -0.6867 -1.1551
  660TIP3   OH223538   6.472   6.046   2.372 -0.0153  0.3223 -0.4947
  660TIP3    H123539   6.446   5.972   2.428  0.7211 -1.7736 -2.7190
  660TIP3    H223540   6.390   6.092   2.355 -0.6157 -0.3343  0.4714
  661TIP3   OH223541   0.610   6.263   0.809 -0.6695  0.2924 -0.1605
  661TIP3    H123542   0.588   6.346   0.851 -1.1921  0.0574  0.0424
  661TIP3    H223543   0.577   6.196   0.869 -1.3701 -0.0500 -0.9172
  662TIP3   OH223544   0.055   4.704   0.222  0.3269  0.2979  0.7159
  662TIP3    H123545   0.053   4.617   0.183  0.5871 -0.2432  1.8707
  662TIP3    H223546  -0.025   4.746   0.192  0.6703  0.0327 -0.6528
  663TIP3   OH223547   1.496   3.685   1.271  0.2331  0.4982 -0.4440
  663TIP3    H123548   1.435   3.730   1.213  1.1454  0.1678 -1.7043
  663TIP3    H223549   1.497   3.595   1.241  1.0386  0.4121 -0.1940
  664TIP3   OH223550   6.248   2.127   8.211  0.1898  0.1205  0.0619
  664TIP3    H123551   6.207   2.207   8.243 -1.7717 -0.2706 -1.3104
  664TIP3    H223552   6.294   2.154   8.131  0.9778  0.1751  0.5217
  665TIP3   OH223553   0.284   6.311   0.700  0.1960 -0.0767 -0.4472
  665TIP3    H123554   0.248   6.246   0.640  2.0595 -0.6419 -1.0294
  665TIP3    H223555   0.336   6.369   0.644  2.3719 -0.9025  0.6171
  666TIP3   OH223556   6.548   3.721   1.237  0.3248  0.2413  0.1107
  666TIP3    H123557   6.623   3.743   1.183  0.8433  1.2423  1.2022
  666TIP3    H223558   6.559   3.628   1.257  1.9721  0.6550  1.2942
  667TIP3   OH223559   0.546   0.478   6.940 -0.3102  0.5100 -0.6452
  667TIP3    H123560   0.603   0.526   6.880  1.1042  0.8129  0.8856
  667TIP3    H223561   0.566   0.386   6.925 -0.9124  0.5057 -1.5216
  668TIP3   OH223562   3.345   6.185   8.440 -0.6291 -0.2422 -0.1749
  668TIP3    H123563   3.437   6.160   8.447 -0.7028 -0.5042 -0.1596
  668TIP3    H223564   3.299   6.104   8.419 -0.7520  0.0458 -1.0307
  669TIP3   OH223565   5.314   1.221   0.310 -0.7103 -0.1760  0.1386
  669TIP3    H123566   5.309   1.126   0.316  2.3070 -0.3556  2.7412
  669TIP3    H223567   5.340   1.238   0.219  0.7606 -2.0681  0.1401
  670TIP3   OH223568   3.472   1.928   7.730  1.2807  0.3447  0.0866
  670TIP3    H123569   3.430   2.013   7.720  1.9794  0.6146 -0.6909
  670TIP3    H223570   3.481   1.916   7.824 -2.3654 -0.6465  0.4594
  671TIP3   OH223571   6.775   6.373   6.529 -0.0689  0.4507 -0.6933
  671TIP3    H123572   6.710   6.390   6.461  0.5075  2.1820 -0.8461
  671TIP3    H223573   6.823   6.296   6.498 -2.0662 -0.9466 -0.5219
  672TIP3   OH223574   3.628   4.638   1.457  0.0962 -0.3180  0.0328
  672TIP3    H123575   3.711   4.593   1.439 -0.0358 -0.1237 -1.1292
  672TIP3    H223576   3.647   4.695   1.532  0.7544 -0.9624  0.3622
  673TIP3   OH223577   3.000   3.670   1.199 -0.7548 -0.0305  0.4066
  673TIP3    H123578   2.999   3.763   1.177 -0.5770  1.3139  5.0508
  673TIP3    H223579   3.091   3.643   1.187 -0.6658  0.5596 -0.3024
  674TIP3   OH223580   3.618   2.861   0.408  0.4962  0.4015 -0.5216
  674TIP3    H123581   3.574   2.838   0.490  0.7109  0.6644 -0.3293
  674TIP3    H223582   3.547   2.893   0.351  0.5180  1.4299  0.0100
  675TIP3   OH223583   2.125   5.726   2.315 -0.5278  0.2307  0.1849
  675TIP3    H123584   2.199   5.747   2.259 -2.3293  0.0605 -2.4555
  675TIP3    H223585   2.120   5.631   2.315  0.7082  0.1115  2.4900
  676TIP3   OH223586   4.997   1.224   2.346  0.2967  0.2103 -0.1302
  676TIP3    H123587   4.929   1.191   2.287  1.0974 -0.4160 -0.7293
  676TIP3    H223588   5.004   1.317   2.326  0.6554 -0.0264 -1.1268
  677TIP3   OH223589   6.590   4.656   0.527  1.1160  0.3890 -0.3295
  677TIP3    H123590   6.535   4.663   0.449  1.0485  0.4546 -0.2763
  677TIP3    H223591   6.569   4.735   0.578  2.4393  1.2604 -1.0801
  678TIP3   OH223592   3.785   4.583   0.656  0.0764  0.4340  0.2015
  678TIP3    H123593   3.874   4.608   0.632  0.1086 -1.7828 -2.4398
  678TIP3    H223594   3.734   4.594   0.576 -1.1175 -2.0871  0.5140
  679TIP3   OH223595   2.671   4.486   6.293 -0.1032 -0.5049 -0.0403
  679TIP3    H123596   2.625   4.418   6.343 -0.3101  0.5692  1.3065
  679TIP3    H223597   2.628   4.487   6.208  0.6984 -2.8696 -0.5429
  680TIP3   OH223598   0.757   6.242   6.836  0.6945  0.3233 -0.3378
  680TIP3    H123599   0.734   6.160   6.880 -1.9313  1.0064 -0.2341
  680TIP3    H223600   0.786   6.300   6.907  0.6274  0.0874 -0.1173
  681TIP3   OH223601   3.500   1.008   1.325 -0.0940  0.1635  0.1781
  681TIP3    H123602   3.560   0.991   1.398  0.2641  1.5808  0.2471
  681TIP3    H223603   3.412   1.000   1.363  0.0913  1.3137  0.8959
  682TIP3   OH223604   0.604   6.295   1.538 -0.1289 -0.1329 -0.0657
  682TIP3    H123605   0.537   6.347   1.582  0.6459  0.8022  0.0514
  682TIP3    H223606   0.564   6.209   1.525 -1.1853  0.2780  0.3846
  683TIP3   OH223607   2.248   2.563   0.588  0.3927 -0.2303 -0.4413
  683TIP3    H123608   2.331   2.516   0.578 -1.4636 -3.5622 -1.8369
  683TIP3    H223609   2.233   2.565   0.682  1.7316 -0.1357 -0.2060
  684TIP3   OH223610   4.873   2.704   0.632  1.2838 -0.4715 -0.3591
  684TIP3    H123611   4.914   2.760   0.567 -1.9500  1.1207 -1.2485
  684TIP3    H223612   4.913   2.729   0.715  1.5760  1.5217 -1.0476
  685TIP3   OH223613   1.392   6.523   0.784  0.1942  0.1445 -0.2131
  685TIP3    H123614   1.333   6.599   0.784 -2.0072 -1.4637 -0.7155
  685TIP3    H223615   1.407   6.504   0.692 -0.3070 -0.7383 -0.1299
  686TIP3   OH223616   3.339   6.576   8.707 -0.4384  0.3624  0.3087
  686TIP3    H123617   3.278   6.532   8.767 -1.1682  0.5166 -0.3098
  686TIP3    H223618   3.353   6.662   8.745 -1.0319  0.5196  0.1736
  687TIP3   OH223619   2.704   1.297   7.907  0.2386 -0.1233 -0.8342
  687TIP3    H123620   2.652   1.376   7.897 -2.4705 -1.9484 -2.5239
  687TIP3    H223621   2.784   1.314   7.856  0.2282  1.8548 -0.2738
  688TIP3   OH223622   1.317   2.561   0.560  0.2961  0.6635 -0.6207
  688TIP3    H123623   1.385   2.598   0.503 -0.0054  1.1512 -0.6647
  688TIP3    H223624   1.326   2.609   0.642  0.4319  0.2711 -0.4049
  689TIP3   OH223625   6.647   1.233   8.758  0.8167  0.3014 -0.2961
  689TIP3    H123626   6.613   1.219   8.846  0.7057  1.1126 -0.1967
  689TIP3    H223627   6.738   1.260   8.771  0.8273  0.3314 -0.4277
  690TIP3   OH223628   2.020   5.994   2.539  0.2402  0.0982 -0.2792
  690TIP3    H123629   2.060   5.917   2.498 -0.1317 -0.5416  0.5409
  690TIP3    H223630   2.095   6.045   2.572  0.4277 -0.8885  0.8856
  691TIP3   OH223631   0.798   1.815   0.007  0.0330 -0.6255  0.5320
  691TIP3    H123632   0.772   1.879  -0.060  0.1544  1.0031  1.9539
  691TIP3    H223633   0.752   1.735  -0.018  0.5085 -0.2623 -1.7812
  692TIP3   OH223634   0.101   3.106   1.356  0.0272  0.2199 -0.2200
  692TIP3    H123635   0.195   3.105   1.373  0.1981 -1.8351 -1.0378
  692TIP3    H223636   0.093   3.117   1.261 -0.4295 -2.0278 -0.4892
  693TIP3   OH223637   2.180   6.206   1.666 -0.1691  0.4070 -0.0423
  693TIP3    H123638   2.181   6.155   1.585 -0.0571 -0.1079  0.2744
  693TIP3    H223639   2.261   6.258   1.662 -1.3628  2.2677 -1.4066
  694TIP3   OH223640   2.667   1.638   1.901 -0.2139 -0.4835  0.3413
  694TIP3    H123641   2.642   1.620   1.992  0.0941 -2.9536 -0.0155
  694TIP3    H223642   2.749   1.686   1.909  0.3128 -1.5106  1.3754
  695TIP3   OH223643   3.534   1.750   2.369 -0.2159 -0.4470  0.3886
  695TIP3    H123644   3.443   1.770   2.347  0.5365  0.8347 -1.8516
  695TIP3    H223645   3.560   1.820   2.429 -0.1062  0.4029 -0.6372
  696TIP3   OH223646   0.366   3.385   8.587 -0.4575 -0.3835  0.2204
  696TIP3    H123647   0.366   3.310   8.647  1.5300 -0.4842  0.1606
  696TIP3    H223648   0.294   3.439   8.618 -0.5303 -1.2404  1.6749
  697TIP3   OH223649   0.066   0.803   1.352  0.2652  0.1636 -1.0448
  697TIP3    H123650   0.060   0.807   1.257  1.0311  1.6344 -1.0669
  697TIP3    H223651   0.156   0.775   1.369  0.1385 -0.0699 -0.7543
  698TIP3   OH223652   1.125   2.993   0.376 -0.1763 -0.4020  0.8916
  698TIP3    H123653   1.053   2.999   0.314 -1.4796 -0.4986  2.3355
  698TIP3    H223654   1.178   3.070   0.359 -0.4430 -0.4914 -0.4037
  699TIP3   OH223655   6.380   4.500   0.981  0.5162  0.2238  0.1614
  699TIP3    H123656   6.441   4.427   0.984 -1.1662 -1.4124 -1.8501
  699TIP3    H223657   6.343   4.497   0.892 -2.2020  1.3035  1.1516
  700TIP3   OH223658   5.871   6.707   1.103  0.0106  0.9823  0.1697
  700TIP3    H123659   5.809   6.780   1.100 -0.3471  0.6494 -0.6496
  700TIP3    H223660   5.818   6.631   1.127  0.2592  0.8564  0.3312
  701TIP3   OH223661   4.125   3.552   0.571  0.3081 -0.0333 -0.3429
  701TIP3    H123662   4.160   3.611   0.504  1.2557 -1.2052 -0.9260
  701TIP3    H223663   4.181   3.567   0.648  0.5689 -0.1877 -0.5009
  702TIP3   OH223664   2.256   0.643   0.461 -0.7579 -0.6981 -0.5291
  702TIP3    H123665   2.241   0.680   0.374 -2.1655  0.0801  0.0133
  702TIP3    H223666   2.331   0.584   0.449 -0.6178 -0.2502 -2.1524
  703TIP3   OH223667   0.382   4.488   1.222  0.3105  0.1135  0.1333
  703TIP3    H123668   0.434   4.566   1.202  0.0184  0.0206 -1.0858
  703TIP3    H223669   0.356   4.453   1.136  0.6623 -1.4852  0.6369
  704TIP3   OH223670   5.119   4.867   0.713 -0.1080 -0.1447  0.1656
  704TIP3    H123671   5.209   4.834   0.724  0.1982  0.7205  0.3544
  704TIP3    H223672   5.118   4.949   0.762 -1.2531 -0.5449  0.8385
  705TIP3   OH223673   0.435   4.394   0.377 -0.3091 -0.1728 -0.3047
  705TIP3    H123674   0.435   4.424   0.468 -1.1502  0.6109 -0.5488
  705TIP3    H223675   0.346   4.411   0.346 -0.4494 -1.7378 -0.8576
  706TIP3   OH223676   2.781   3.376   6.653  0.4687 -0.3331  0.5740
  706TIP3    H123677   2.836   3.403   6.726 -0.5721 -0.5329  1.4502
  706TIP3    H223678   2.789   3.281   6.650  0.5735 -0.3191  0.3687
  707TIP3   OH223679   3.440   3.901   6.997 -0.1766  0.2147 -0.1304
  707TIP3    H123680   3.407   3.813   7.018  0.8923  0.0327  0.8685
  707TIP3    H223681   3.426   3.909   6.902 -0.1568 -1.0949 -0.2669
  708TIP3   OH223682   5.420   3.029   1.204  0.4676  0.4510  0.3090
  708TIP3    H123683   5.449   2.993   1.289  1.3792  1.4394  0.4440
  708TIP3    H223684   5.336   3.070   1.223  0.0193 -0.4990  0.4282
  709TIP3   OH223685   5.096   3.635   0.558 -0.5257  0.1793 -0.5325
  709TIP3    H123686   5.040   3.651   0.482 -0.4391 -1.1019 -0.8877
  709TIP3    H223687   5.077   3.545   0.583 -0.0109  0.3500  0.5204
  710TIP3   OH223688   1.497   0.492   7.642 -0.4837  0.2872  0.3921
  710TIP3    H123689   1.570   0.457   7.592 -0.8769  0.8407 -0.6010
  710TIP3    H223690   1.485   0.430   7.714  1.1788  0.3716  0.7908
  711TIP3   OH223691   3.715   1.646   8.706 -0.3721 -0.3844  0.0053
  711TIP3    H123692   3.767   1.696   8.769 -1.7323  1.9049 -0.5684
  711TIP3    H223693   3.732   1.688   8.622 -2.4812 -0.0509 -0.3114
  712TIP3   OH223694   1.353   5.125   1.288  0.4907  0.0789 -0.6675
  712TIP3    H123695   1.266   5.131   1.326  0.8259  0.2962  0.0783
  712TIP3    H223696   1.406   5.079   1.353  0.9475 -0.0107 -1.0883
  713TIP3   OH223697   5.658   4.787   7.578  0.0374  0.2982  0.4019
  713TIP3    H123698   5.733   4.839   7.608  2.8643 -2.8924 -0.5488
  713TIP3    H223699   5.672   4.777   7.484 -2.8949  1.3510 -0.2779
  714TIP3   OH223700   3.990   5.399   7.460  0.0004 -0.3976 -0.0460
  714TIP3    H123701   3.930   5.354   7.401 -1.5123  0.2271  0.9491
  714TIP3    H223702   4.036   5.461   7.405  1.4569 -2.4396 -1.2694
  715TIP3   OH223703   5.911   0.303   1.748  0.0331 -0.1091 -0.0104
  715TIP3    H123704   5.926   0.230   1.688 -0.5361 -0.8946  0.7877
  715TIP3    H223705   5.827   0.283   1.789 -0.3610  1.2337 -0.1221
  716TIP3   OH223706   3.105   6.738   8.391  0.4189 -0.0658 -0.0065
  716TIP3    H123707   3.135   6.650   8.412 -0.4870 -1.0000 -2.2201
  716TIP3    H223708   3.060   6.768   8.469  2.0269 -0.9430  1.3160
  717TIP3   OH223709   5.757   5.189   8.280 -0.2964  0.1478 -0.3284
  717TIP3    H123710   5.813   5.130   8.331  0.0240  0.5901 -0.1633
  717TIP3    H223711   5.716   5.132   8.214  1.4499  0.0298 -1.3947
  718TIP3   OH223712   6.563   3.653   0.540  0.2054  0.5007 -0.6168
  718TIP3    H123713   6.516   3.730   0.511 -1.3725 -0.4453 -0.6744
  718TIP3    H223714   6.502   3.606   0.597  1.5734 -0.0747  0.4564
  719TIP3   OH223715   2.006   2.994   1.180  0.2755 -0.5993  0.9929
  719TIP3    H123716   1.940   2.935   1.143  0.0724  0.4057 -0.3072
  719TIP3    H223717   2.089   2.966   1.140  0.4946 -1.2160  1.8540
  720TIP3   OH223718   0.669   1.552   6.907 -0.4472  0.2197  0.2327
  720TIP3    H123719   0.707   1.475   6.865 -2.9321 -0.1285 -1.5846
  720TIP3    H223720   0.734   1.621   6.893  0.1972 -0.6685 -1.4730
  721TIP3   OH223721   5.037   3.175   7.396  0.1685  0.3245 -0.3067
  721TIP3    H123722   5.006   3.263   7.379 -0.1127  0.3181  0.1582
  721TIP3    H223723   4.959   3.125   7.417  0.1580 -0.3489 -1.7757
  722TIP3   OH223724   1.170   2.721   1.006 -0.6530  0.2415  0.6030
  722TIP3    H123725   1.182   2.782   1.078  0.5459  0.1878  0.4701
  722TIP3    H223726   1.117   2.768   0.943  1.7258  1.9090 -0.3119
  723TIP3   OH223727   3.924   1.260   7.618  0.5598 -0.5330  0.4898
  723TIP3    H123728   3.961   1.205   7.687  2.2575 -1.6806 -1.2377
  723TIP3    H223729   3.986   1.254   7.546 -1.6389 -0.2293 -1.5616
  724TIP3   OH223730   6.484   0.822   8.696 -0.0557  0.3402 -0.3642
  724TIP3    H123731   6.555   0.757   8.699 -0.2700  0.0414 -1.3916
  724TIP3    H223732   6.494   0.864   8.611 -0.2000  1.3512  0.1113
  725TIP3   OH223733   1.436   0.739   7.219  0.2126 -0.0984 -0.1475
  725TIP3    H123734   1.388   0.752   7.300  1.4920 -1.2269  0.8416
  725TIP3    H223735   1.433   0.644   7.204 -1.2321  0.2190 -2.2262
  726TIP3   OH223736   2.900   2.473   0.499 -0.0081 -0.2072  0.1227
  726TIP3    H123737   2.820   2.420   0.498 -0.1724 -0.0183  1.6265
  726TIP3    H223738   2.869   2.563   0.486  0.1658 -0.3346 -1.2972
  727TIP3   OH223739   3.276   1.388   1.706 -0.1983  0.2783 -0.0558
  727TIP3    H123740   3.305   1.460   1.762 -1.9285  1.1549 -0.2371
  727TIP3    H223741   3.318   1.311   1.744  1.3029  1.2847  0.4320
  728TIP3   OH223742   5.174   2.328   7.659 -0.3604 -0.4398 -0.0352
  728TIP3    H123743   5.213   2.391   7.720  1.7290  0.1710 -1.8832
  728TIP3    H223744   5.143   2.257   7.715 -1.3081  1.4467  1.9753
  729TIP3   OH223745   4.375   2.912   8.815 -0.1950 -0.2919  0.1786
  729TIP3    H123746   4.340   2.998   8.836 -0.6374  0.5456 -3.3481
  729TIP3    H223747   4.470   2.925   8.811 -0.2139 -0.1303  0.2571
  730TIP3   OH223748   5.306   4.570   2.739 -0.9047 -0.2461  0.0846
  730TIP3    H123749   5.330   4.658   2.710 -1.5295 -0.1555 -0.1690
  730TIP3    H223750   5.343   4.512   2.673  0.4350 -0.2638  0.8047
  731TIP3   OH223751   6.437   0.572   1.530 -0.7536  0.4695  0.0416
  731TIP3    H123752   6.449   0.504   1.464  0.0617  0.6070  0.0491
  731TIP3    H223753   6.453   0.654   1.483 -0.9972  0.6197  0.2163
  732TIP3   OH223754   2.649   3.781   6.691 -0.0562 -0.1876  0.0990
  732TIP3    H123755   2.579   3.774   6.626 -1.5644  1.8487  1.3885
  732TIP3    H223756   2.716   3.835   6.649 -0.9760  1.0294  0.1781
  733TIP3   OH223757   6.138   1.921   2.038 -0.0343  0.3211  0.2643
  733TIP3    H123758   6.131   2.002   1.989  0.3604 -0.9277 -2.0083
  733TIP3    H223759   6.149   1.853   1.971  0.8950 -1.4715  2.1115
  734TIP3   OH223760   1.907   3.591   6.741 -0.0909 -0.1779 -0.0398
  734TIP3    H123761   1.960   3.645   6.682 -0.5062 -0.8552 -1.0532
  734TIP3    H223762   1.931   3.501   6.720 -2.0288 -0.5347 -0.9350
  735TIP3   OH223763   0.165   2.185   1.694  0.0666 -0.1063  0.1680
  735TIP3    H123764   0.172   2.264   1.641 -0.5939 -2.0982 -3.1879
  735TIP3    H223765   0.253   2.171   1.727  0.5761  1.1433 -0.5816
  736TIP3   OH223766   5.515   5.786   6.802 -0.3129  0.2698  0.1849
  736TIP3    H123767   5.544   5.734   6.878  1.2757 -0.4167 -0.8347
  736TIP3    H223768   5.425   5.756   6.786 -1.0129  1.0489  2.2838
  737TIP3   OH223769   0.676   5.399   1.100 -0.1073  0.3865 -0.0527
  737TIP3    H123770   0.765   5.433   1.101  0.5494 -1.1319 -1.7662
  737TIP3    H223771   0.642   5.419   1.187  1.9434  0.8744  0.6996
  738TIP3   OH223772   0.173   3.937   0.559  0.2336 -0.1061  0.6140
  738TIP3    H123773   0.174   3.914   0.466  0.0400 -0.8901  0.7973
  738TIP3    H223774   0.256   3.903   0.593  0.6206  0.8028  0.5889
  739TIP3   OH223775   6.468   5.438   8.202  0.4634  0.3802 -0.7149
  739TIP3    H123776   6.480   5.435   8.107 -0.7408  0.9348 -0.9063
  739TIP3    H223777   6.382   5.399   8.216 -0.9704  3.4291 -0.2259
  740TIP3   OH223778   6.731   5.954   0.478  0.6387 -0.1585 -0.0772
  740TIP3    H123779   6.806   6.011   0.492  1.7186 -1.5996  0.3052
  740TIP3    H223780   6.697   5.979   0.392  2.7068 -0.6534 -1.1210
  741TIP3   OH223781   1.952   5.944   7.604 -0.3414 -0.5303  0.1534
  741TIP3    H123782   1.877   5.998   7.578  0.0096 -0.5098 -0.8640
  741TIP3    H223783   2.003   5.933   7.524 -0.1201 -1.9460  0.4701
  742TIP3   OH223784   1.334   4.654   0.225  0.3583  0.0336  0.0600
  742TIP3    H123785   1.299   4.692   0.306 -0.0528 -0.8320  0.2967
  742TIP3    H223786   1.258   4.614   0.182  0.7340 -0.2669 -0.3303
  743TIP3   OH223787   0.702   0.974   8.557  0.0763  0.0161 -0.1266
  743TIP3    H123788   0.710   0.879   8.564  2.2505  0.1404 -0.1538
  743TIP3    H223789   0.729   1.007   8.644  2.3230  0.6505 -0.9817
  744TIP3   OH223790   0.568   0.281   7.691  0.2387  0.5022 -0.7259
  744TIP3    H123791   0.516   0.310   7.616  0.9087 -0.7321 -1.6933
  744TIP3    H223792   0.658   0.280   7.659  0.4090 -1.1374 -0.2706
  745TIP3   OH223793   1.251   4.305   0.282 -0.1441 -0.2311  0.3499
  745TIP3    H123794   1.195   4.306   0.359 -0.0739 -0.7581  0.4108
  745TIP3    H223795   1.199   4.347   0.214 -0.3006  0.0117  0.6203
  746TIP3   OH223796   3.807   4.154   0.595  0.0988 -0.0338 -0.2262
  746TIP3    H123797   3.778   4.064   0.604 -0.0627  0.0329 -0.0695
  746TIP3    H223798   3.860   4.155   0.514 -0.6959 -0.0600 -0.7534
  747TIP3   OH223799   3.862   4.511   7.557  0.2378  0.2434 -0.5781
  747TIP3    H123800   3.766   4.503   7.558  0.2838 -0.4803 -1.3154
  747TIP3    H223801   3.893   4.424   7.583  0.7051  0.9322  1.3302
  748TIP3   OH223802   0.488   1.129   8.659 -0.3499  0.4038 -0.1914
  748TIP3    H123803   0.514   1.053   8.607  0.1906  0.2616  0.2790
  748TIP3    H223804   0.553   1.196   8.636 -1.2397  0.9679 -1.1490
  749TIP3   OH223805   5.288   1.502   0.698 -0.1530  0.0075 -0.3364
  749TIP3    H123806   5.221   1.571   0.704 -0.1815 -0.0116 -0.4233
  749TIP3    H223807   5.310   1.481   0.789  0.3029  0.5652 -0.3142
  750TIP3   OH223808   4.762   2.246   7.334  0.9581 -0.2008  0.6424
  750TIP3    H123809   4.701   2.254   7.262  0.6021 -2.3972  0.6340
  750TIP3    H223810   4.839   2.203   7.296  0.5528 -1.8887  1.6104
  751TIP3   OH223811   2.710   0.482   0.508  0.7894 -0.6315 -0.0204
  751TIP3    H123812   2.759   0.538   0.448 -0.0276  0.1045 -0.0273
  751TIP3    H223813   2.622   0.480   0.472 -0.0096  0.7194  1.6912
  752TIP3   OH223814   5.138   1.430   7.369  0.3123  0.0863 -0.0784
  752TIP3    H123815   5.154   1.337   7.383 -0.3114  0.0242  0.2847
  752TIP3    H223816   5.076   1.432   7.296  0.6605  0.2358 -0.3682
  753TIP3   OH223817   3.071   2.112   0.090  0.4163  0.3952 -0.5710
  753TIP3    H123818   3.002   2.132   0.154  0.0056  0.9078 -1.1617
  753TIP3    H223819   3.148   2.156   0.125  0.7359 -1.0408  0.6392
  754TIP3   OH223820   6.251   0.623   7.634 -0.1100 -0.5736 -0.0313
  754TIP3    H123821   6.284   0.697   7.583  0.9685  0.1957  1.6552
  754TIP3    H223822   6.318   0.555   7.624  1.5634  0.5557  2.4193
  755TIP3   OH223823   1.204   3.488   6.936  0.1776  0.2589  0.0459
  755TIP3    H123824   1.267   3.508   7.006  1.0244  0.5211 -0.7673
  755TIP3    H223825   1.134   3.440   6.980  1.1529 -0.4246  0.9069
  756TIP3   OH223826   4.102   6.399   0.553 -0.0174 -0.3145 -0.1339
  756TIP3    H123827   4.145   6.340   0.615  0.0322  0.4897  0.6152
  756TIP3    H223828   4.082   6.477   0.604  1.3797  0.9931 -1.4713
  757TIP3   OH223829   2.718   0.241   0.673  0.1486 -0.3137 -0.1583
  757TIP3    H123830   2.811   0.241   0.698 -0.2420 -0.6222  1.4453
  757TIP3    H223831   2.702   0.329   0.639  0.9892 -0.1998 -0.2745
  758TIP3   OH223832   4.735   2.350   8.202 -0.5196 -0.6861 -0.2146
  758TIP3    H123833   4.678   2.331   8.128 -3.2091 -0.3860  1.6146
  758TIP3    H223834   4.702   2.432   8.238  0.8460 -0.6852  1.1781
  759TIP3   OH223835   4.977   1.284   1.530 -0.2340 -0.2236 -0.0231
  759TIP3    H123836   4.898   1.321   1.488 -0.1104 -2.5033 -2.5596
  759TIP3    H223837   4.944   1.210   1.580  0.2166 -1.0798 -0.9543
  760TIP3   OH223838   1.085   2.934   7.167 -0.2716 -0.1765 -0.4659
  760TIP3    H123839   1.120   2.889   7.090  1.9233  1.0999 -0.2986
  760TIP3    H223840   1.117   2.883   7.241 -0.9727 -0.4453 -0.3378
  761TIP3   OH223841   1.507   1.032   0.706 -0.8193  0.5338  0.1611
  761TIP3    H123842   1.498   1.108   0.764  0.0532  0.8224 -0.0627
  761TIP3    H223843   1.466   1.060   0.624 -1.4186  0.3824  0.4032
  762TIP3   OH223844   3.481   6.477   1.867 -0.1630 -0.1313  0.3315
  762TIP3    H123845   3.551   6.439   1.919  0.7037 -1.0303 -1.4020
  762TIP3    H223846   3.414   6.409   1.863  0.9884 -1.2457 -1.9901
  763TIP3   OH223847   0.783   4.815   1.589 -0.1562 -0.2512 -0.0002
  763TIP3    H123848   0.782   4.892   1.533  0.6777 -0.4102 -0.2392
  763TIP3    H223849   0.715   4.758   1.553 -0.5968  0.2562  0.0195
  764TIP3   OH223850   4.583   0.204   8.259 -0.1944  0.3775  0.2709
  764TIP3    H123851   4.580   0.122   8.210 -1.1076 -0.3800  1.5079
  764TIP3    H223852   4.649   0.257   8.215 -0.6816 -0.4180 -1.4745
  765TIP3   OH223853   6.787   4.476   1.190 -0.0823 -0.3897 -0.2975
  765TIP3    H123854   6.757   4.406   1.248 -0.4484  0.3447  0.4356
  765TIP3    H223855   6.760   4.449   1.103 -0.1165 -1.2111 -0.0417
  766TIP3   OH223856   4.371   2.083   8.725  0.2460 -0.2581  0.2543
  766TIP3    H123857   4.292   2.111   8.680  0.0269 -0.5789  0.4408
  766TIP3    H223858   4.411   2.165   8.755  0.4548 -0.0323 -0.6056
  767TIP3   OH223859   1.229   3.126   8.617  0.0401 -0.2595 -0.0866
  767TIP3    H123860   1.186   3.135   8.702 -2.3606  0.4898 -1.2860
  767TIP3    H223861   1.281   3.206   8.609  1.0317 -0.7637  1.0265
  768TIP3   OH223862   4.715   1.859   8.656 -0.0689  0.0749 -0.0425
  768TIP3    H123863   4.768   1.875   8.735 -1.4131  1.9478  0.5420
  768TIP3    H223864   4.688   1.767   8.664  1.6832 -0.4522  0.4642
  769TIP3   OH223865   2.759   5.130   2.051 -0.0553 -0.0889  0.8344
  769TIP3    H123866   2.825   5.061   2.051 -0.4224 -0.4690 -0.4005
  769TIP3    H223867   2.676   5.082   2.056 -0.2902  0.2833  0.5420
  770TIP3   OH223868   3.058   1.809   0.132 -0.2574 -0.4984 -0.0035
  770TIP3    H123869   3.064   1.905   0.133 -0.1925 -0.5067  0.6336
  770TIP3    H223870   3.150   1.780   0.133 -0.2819 -0.5696  0.1742
  771TIP3   OH223871   2.872   6.016   1.384  0.0353 -0.9521 -0.3604
  771TIP3    H123872   2.954   6.025   1.336 -0.4750 -0.8530 -1.2432
  771TIP3    H223873   2.885   5.938   1.438  1.0045 -0.4554  0.1596
  772TIP3   OH223874   4.330   0.915   1.628 -0.2573  0.2610  0.8615
  772TIP3    H123875   4.291   1.002   1.626 -0.3483  0.2170 -1.2674
  772TIP3    H223876   4.297   0.872   1.549  0.2369 -1.5251  1.5688
  773TIP3   OH223877   0.690   4.273   6.649 -0.3423  0.2322 -0.2963
  773TIP3    H123878   0.689   4.217   6.726 -2.0823 -1.5694 -1.5317
  773TIP3    H223879   0.779   4.263   6.613 -1.0046 -3.1411 -1.3586
  774TIP3   OH223880   4.445   2.013   2.169  0.3239 -0.1781 -0.4069
  774TIP3    H123881   4.507   2.077   2.201  0.4519 -0.8695  0.8035
  774TIP3    H223882   4.360   2.058   2.170  0.2083 -0.3640  1.6115
  775TIP3   OH223883   2.845   2.427   7.355 -0.2429  0.0123 -0.3085
  775TIP3    H123884   2.791   2.467   7.287  0.1890 -0.0273 -0.6814
  775TIP3    H223885   2.818   2.336   7.357 -0.4137  0.0626 -0.2682
  776TIP3   OH223886   6.282   2.710   6.600  0.1556 -0.0520  0.1850
  776TIP3    H123887   6.352   2.681   6.542  1.2566 -0.0841  1.4832
  776TIP3    H223888   6.216   2.748   6.541  0.9617 -0.6013 -1.1118
  777TIP3   OH223889   1.364   3.032   7.524  0.0210  0.0884 -0.4478
  777TIP3    H123890   1.339   3.053   7.434  1.3263  1.8704 -0.4388
  777TIP3    H223891   1.290   2.980   7.558 -0.8112 -0.0084 -2.2940
  778TIP3   OH223892   4.898   0.893   0.870  0.5094  0.1063  0.4404
  778TIP3    H123893   4.985   0.864   0.898  0.5522 -0.0718  0.1277
  778TIP3    H223894   4.915   0.972   0.819  0.3132  1.3168  2.1546
  779TIP3   OH223895   1.863   4.877   6.867  0.2254 -0.6631 -0.2882
  779TIP3    H123896   1.915   4.804   6.835  1.5767  0.0877  0.0795
  779TIP3    H223897   1.923   4.926   6.924 -0.9053  0.2310  0.1943
  780TIP3   OH223898   3.343   4.694   8.359  0.5447 -0.3584  0.1463
  780TIP3    H123899   3.264   4.641   8.371  0.5222 -0.1694  0.8914
  780TIP3    H223900   3.353   4.741   8.442  1.5340 -0.5194  0.1280
  781TIP3   OH223901   0.183   2.880   0.110  0.1761  0.5000 -0.7609
  781TIP3    H123902   0.230   2.880   0.193 -1.5524 -0.2297  0.2903
  781TIP3    H223903   0.114   2.945   0.123  0.0696  0.5866 -1.7375
  782TIP3   OH223904   0.619   4.711   8.648  0.1255 -0.2306  0.5802
  782TIP3    H123905   0.697   4.663   8.675 -0.4428 -1.4360  0.1974
  782TIP3    H223906   0.628   4.721   8.553 -0.6135 -1.2813  0.3672
  783TIP3   OH223907   2.683   0.451   1.030  0.1783 -0.3460  0.0074
  783TIP3    H123908   2.640   0.495   1.103 -0.7006 -0.3454 -0.4985
  783TIP3    H223909   2.743   0.389   1.071 -1.1230 -1.1696  0.7490
  784TIP3   OH223910   6.107   0.255   1.182 -0.1772  0.8141 -0.6691
  784TIP3    H123911   6.021   0.295   1.170 -0.1041  2.1379  2.4208
  784TIP3    H223912   6.164   0.300   1.120 -0.6810  3.7081  0.8274
  785TIP3   OH223913   1.654   1.330   7.166 -0.4309 -0.5855  0.0199
  785TIP3    H123914   1.658   1.284   7.249  0.4411 -0.5556  0.0069
  785TIP3    H223915   1.561   1.343   7.150 -0.6047 -0.0211  1.3109
  786TIP3   OH223916   1.450   6.726   0.465  0.4132 -0.1506  0.4245
  786TIP3    H123917   1.515   6.712   0.396  0.5545 -1.4307  0.7762
  786TIP3    H223918   1.421   6.637   0.488 -1.2024  0.3749  0.5238
  787TIP3   OH223919   3.860   0.003   6.692 -0.1419  0.3025  0.1351
  787TIP3    H123920   3.955   0.008   6.702 -0.1988  0.4170  0.6685
  787TIP3    H223921   3.826   0.068   6.755 -0.6182 -0.7569  0.9971
  788TIP3   OH223922   0.218   3.170   8.725  0.6967  0.1589  0.3191
  788TIP3    H123923   0.288   3.143   8.785 -0.0534 -0.2662  1.0207
  788TIP3    H223924   0.169   3.237   8.774 -1.0456 -1.5089  0.9693
  789TIP3   OH223925   5.617   3.508   0.392 -0.5921  0.2687 -0.2831
  789TIP3    H123926   5.600   3.571   0.462  0.8262 -0.6179  0.9320
  789TIP3    H223927   5.704   3.531   0.359 -0.7618 -0.0296 -0.9467
  790TIP3   OH223928   4.079   5.011   2.252 -0.6759  0.0374 -0.5560
  790TIP3    H123929   4.070   5.084   2.312 -0.5678 -1.1831  1.0188
  790TIP3    H223930   3.991   4.971   2.249 -0.0277 -1.6948  1.2511
  791TIP3   OH223931   1.011   2.596   1.389  0.4628  0.5813  0.4014
  791TIP3    H123932   0.936   2.578   1.446  0.3743  2.2618  0.8711
  791TIP3    H223933   1.001   2.535   1.316 -0.9134  0.2337  0.8485
  792TIP3   OH223934   0.687   1.038   0.894  0.3344 -0.2053 -0.5703
  792TIP3    H123935   0.778   1.065   0.910  0.3563 -0.8952  0.5339
  792TIP3    H223936   0.688   0.943   0.905 -0.6971 -0.1273  0.3863
  793TIP3   OH223937   0.167   5.419   7.429  0.4889 -0.2861  0.1425
  793TIP3    H123938   0.139   5.329   7.415  1.4100 -0.5909  0.1755
  793TIP3    H223939   0.214   5.417   7.512  2.7550 -0.3284 -1.0656
  794TIP3   OH223940   2.132   5.489   0.155 -0.1272 -0.2460  0.2014
  794TIP3    H123941   2.040   5.505   0.178  0.3539  0.8802  1.4461
  794TIP3    H223942   2.160   5.419   0.214  0.2389  0.4978  0.9264
  795TIP3   OH223943   1.763   5.254   1.747 -0.0362 -0.1468  0.2956
  795TIP3    H123944   1.694   5.188   1.739  1.0739 -1.0992 -2.1955
  795TIP3    H223945   1.822   5.237   1.674  2.8077  0.7318  2.2190
  796TIP3   OH223946   0.898   6.070   1.075 -0.3118  0.0629  0.2650
  796TIP3    H123947   0.883   5.976   1.073 -0.6953  0.0992  0.9677
  796TIP3    H223948   0.925   6.093   0.986 -0.9217 -0.5964 -0.0922
  797TIP3   OH223949   4.040   3.287   7.930  0.6837  0.5305  0.7395
  797TIP3    H123950   3.969   3.351   7.934  0.6851  0.4617  2.8610
  797TIP3    H223951   4.001   3.205   7.961  1.1532 -0.0753 -0.2003
  798TIP3   OH223952   5.790   2.097   7.599  0.5793 -0.1962 -0.2594
  798TIP3    H123953   5.715   2.038   7.599 -0.1510  0.6999 -0.2303
  798TIP3    H223954   5.845   2.067   7.671  0.8777 -1.6223 -1.0580
  799TIP3   OH223955   0.671   0.927   7.247 -0.4767 -0.2200 -0.6346
  799TIP3    H123956   0.645   1.003   7.298 -0.9585 -0.6411 -0.2501
  799TIP3    H223957   0.764   0.942   7.228  0.1952 -0.8598  1.8137
  800TIP3   OH223958   4.501   4.937   6.416 -0.2978 -0.2094 -0.0281
  800TIP3    H123959   4.429   4.957   6.476  0.4099  0.0709  0.7485
  800TIP3    H223960   4.566   5.004   6.434  0.5523 -1.0100 -0.0443
  801TIP3   OH223961   5.077   5.659   0.158 -0.1358 -0.0590  0.3846
  801TIP3    H123962   5.140   5.591   0.179  0.2170  0.1118 -0.1187
  801TIP3    H223963   5.113   5.739   0.197 -0.1087  0.0132  0.2117
  802TIP3   OH223964   0.739   6.031   0.676  0.2550  0.1944  0.0050
  802TIP3    H123965   0.784   6.068   0.752 -1.7887  1.8500  0.5084
  802TIP3    H223966   0.795   6.054   0.602  2.2530 -1.3908  0.9201
  803TIP3   OH223967   6.090   2.929   7.464  0.3506 -0.6430 -0.4931
  803TIP3    H123968   6.065   2.856   7.520  1.7347 -0.6806  0.0961
  803TIP3    H223969   6.069   2.899   7.375 -1.8122 -0.5942 -0.0551
  804TIP3   OH223970   2.083   3.149   6.226  0.5267 -0.0838  0.5619
  804TIP3    H123971   2.045   3.139   6.139 -1.0720  4.7887  0.3826
  804TIP3    H223972   2.176   3.168   6.210  0.2402  0.8167 -0.1877
  805TIP3   OH223973   5.465   2.570   1.542  0.7365 -0.0410  0.0294
  805TIP3    H123974   5.397   2.532   1.598  3.5363 -1.8814  2.5070
  805TIP3    H223975   5.498   2.644   1.592  1.2938  0.1470 -0.6161
  806TIP3   OH223976   0.801   1.349   0.405 -0.6377  0.2632  0.1839
  806TIP3    H123977   0.767   1.430   0.367 -3.4890 -1.5496 -1.4369
  806TIP3    H223978   0.858   1.313   0.338 -1.2127 -0.1882 -0.0681
  807TIP3   OH223979   4.525   5.786   8.129 -0.7196  0.0331 -0.1534
  807TIP3    H123980   4.477   5.784   8.212 -0.5466 -1.6684 -0.0533
  807TIP3    H223981   4.563   5.699   8.122  1.4712  0.9909 -0.7618
  808TIP3   OH223982   0.352   6.536   8.761 -0.4471 -0.0902 -0.5991
  808TIP3    H123983   0.278   6.544   8.701  0.1103 -1.5799 -1.5551
  808TIP3    H223984   0.376   6.444   8.756  1.2577  0.2952 -0.0403
  809TIP3   OH223985   3.643   5.382   1.860  0.2867  0.1657  0.6523
  809TIP3    H123986   3.609   5.332   1.935  2.3026 -0.4693  1.1882
  809TIP3    H223987   3.595   5.347   1.785 -0.3388 -0.6018  1.3794
  810TIP3   OH223988   1.292   3.504   7.207 -0.3445  0.5348 -0.3375
  810TIP3    H123989   1.222   3.438   7.202  0.0742 -0.1520  1.8403
  810TIP3    H223990   1.315   3.507   7.300  0.6111  2.7892 -0.6002
  811TIP3   OH223991   0.681   1.581   8.431 -0.7583 -0.4614  0.1103
  811TIP3    H123992   0.756   1.530   8.398 -0.7247 -0.1885 -0.2387
  811TIP3    H223993   0.673   1.654   8.370  0.7837  1.3930  1.9886
  812TIP3   OH223994   0.108   5.114   6.355  0.3890 -0.5871  0.7128
  812TIP3    H123995   0.122   5.190   6.299 -0.6815  0.5725  1.9462
  812TIP3    H223996   0.128   5.039   6.300  1.3687  0.5780 -0.5767
  813TIP3   OH223997   0.663   3.662   0.428 -0.1845 -0.1200 -0.5277
  813TIP3    H123998   0.568   3.657   0.419 -0.5538  1.5408  1.7417
  813TIP3    H223999   0.690   3.573   0.449 -1.3257 -0.4571 -0.4504
  814TIP3   OH224000   1.740   4.799   1.982  0.3899 -0.0051  0.4563
  814TIP3    H124001   1.651   4.792   1.948  0.7030 -1.5193 -0.1571
  814TIP3    H224002   1.729   4.803   2.077 -0.3056 -1.6279  0.4719
  815TIP3   OH224003   3.894   6.259   7.374  0.1848 -0.4224  0.1602
  815TIP3    H124004   3.882   6.347   7.339  0.3162  0.7921  2.9060
  815TIP3    H224005   3.981   6.260   7.415 -0.1292 -1.5583  0.9297
  816TIP3   OH224006   6.422   1.887   2.590 -0.0806 -0.6086 -0.1489
  816TIP3    H124007   6.507   1.847   2.609  0.2954  0.2917  0.1661
  816TIP3    H224008   6.370   1.817   2.552  0.3955 -1.4995  0.7801
  817TIP3   OH224009   3.538   4.245   1.352 -0.4452  0.2290  0.1735
  817TIP3    H124010   3.483   4.314   1.389  1.0520  0.7251  1.6021
  817TIP3    H224011   3.588   4.288   1.283  0.1170  0.4710  0.7213
  818TIP3   OH224012   2.355   0.230   0.306 -0.2657 -0.4384 -0.1829
  818TIP3    H124013   2.272   0.214   0.351  0.7188 -1.5854  1.3488
  818TIP3    H224014   2.355   0.166   0.235 -0.0143 -1.6165  0.8268
  819TIP3   OH224015   6.787   1.526   8.784  0.6949 -0.2227  0.6801
  819TIP3    H124016   6.795   1.443   8.830 -3.4399 -1.2640 -0.1085
  819TIP3    H224017   6.859   1.525   8.721  3.8661 -0.6962  3.9532
  820TIP3   OH224018   1.981   6.352   7.398 -0.1033 -0.4578 -0.3626
  820TIP3    H124019   1.912   6.321   7.457 -0.6347 -0.6269 -1.0575
  820TIP3    H224020   1.934   6.397   7.327  0.4953 -0.5449 -0.8277
  821TIP3   OH224021   5.500   2.536   7.618 -0.0425  0.1170 -0.4750
  821TIP3    H124022   5.500   2.484   7.538 -0.5793  0.3292 -0.6183
  821TIP3    H224023   5.486   2.626   7.588 -3.7518 -0.1293  0.0317
  822TIP3   OH224024   3.293   2.135   7.304 -0.2371 -0.6449 -0.1094
  822TIP3    H124025   3.219   2.180   7.345  0.2821 -0.0841  0.2361
  822TIP3    H224026   3.290   2.163   7.212  0.7735  1.0811  0.3397
  823TIP3   OH224027   5.531   0.369   7.137 -0.0118 -0.4005 -0.1793
  823TIP3    H124028   5.465   0.438   7.129  0.2813 -0.2011 -1.1047
  823TIP3    H224029   5.571   0.383   7.223  0.2352  0.7768 -0.4694
  824TIP3   OH224030   4.871   2.616   7.810  0.6752 -0.5588 -0.3979
  824TIP3    H124031   4.919   2.698   7.817  0.1051 -0.1981 -0.6333
  824TIP3    H224032   4.912   2.570   7.737  1.9194 -1.1266  0.6304
  825TIP3   OH224033   2.410   6.497   8.441 -0.2118 -0.0625  0.1767
  825TIP3    H124034   2.447   6.482   8.528  1.9134 -0.9403 -0.8152
  825TIP3    H224035   2.366   6.416   8.419 -1.4525  0.4401  0.7239
  826TIP3   OH224036   0.879   2.641   7.322 -0.0951  0.0676 -0.2462
  826TIP3    H124037   0.923   2.557   7.313  1.3525  0.8360 -0.7768
  826TIP3    H224038   0.790   2.619   7.348  0.9526 -1.5431  2.4620
  827TIP3   OH224039   3.008   1.641   1.736 -0.3459 -0.1877 -0.7519
  827TIP3    H124040   2.953   1.719   1.730 -0.4685 -0.2785 -0.8000
  827TIP3    H224041   3.085   1.670   1.786 -0.3336 -0.0029 -0.8767
  828TIP3   OH224042   1.541   3.639   6.078 -0.5016 -0.5159  0.1529
  828TIP3    H124043   1.527   3.637   5.983 -0.4788  0.1732  0.1272
  828TIP3    H224044   1.612   3.576   6.093 -1.4262 -1.6582 -0.1047
  829TIP3   OH224045   1.377   1.012   0.026  0.4755  0.2670 -0.2181
  829TIP3    H124046   1.415   0.966  -0.049 -1.3320  1.1743 -1.7589
  829TIP3    H224047   1.427   1.094   0.032  1.2865 -0.2484  0.2326
  830TIP3   OH224048   4.405   4.443   2.393  0.3929  0.1070 -0.0803
  830TIP3    H124049   4.450   4.359   2.393  1.9125  0.7409  3.7649
  830TIP3    H224050   4.465   4.503   2.349  1.9559  0.2306  2.0560
  831TIP3   OH224051   0.514   1.052   8.369 -0.3516 -0.4026 -0.5527
  831TIP3    H124052   0.458   0.984   8.406 -0.4702  0.1138  0.2657
  831TIP3    H224053   0.590   1.054   8.427 -0.4249  0.2604 -0.4678
  832TIP3   OH224054   3.686   3.376   7.809 -0.1043  0.3313 -0.0634
  832TIP3    H124055   3.732   3.366   7.726  1.5543 -1.1086  0.9513
  832TIP3    H224056   3.625   3.302   7.812  0.2888  0.0135  0.2512
  833TIP3   OH224057   3.140   2.569   2.061 -0.1314 -0.7746 -0.2481
  833TIP3    H124058   3.171   2.614   2.140  1.1742  0.4665 -1.4303
  833TIP3    H224059   3.136   2.477   2.087  1.4522 -0.5544  0.9215
  834TIP3   OH224060   4.075   1.492   7.798  0.5760  0.2763 -0.0460
  834TIP3    H124061   4.146   1.514   7.739  2.7515 -2.1314  1.4596
  834TIP3    H224062   4.069   1.397   7.794 -1.6620  0.3132  0.9326
  835TIP3   OH224063   5.331   2.461   1.780  0.0663 -0.4469  0.6392
  835TIP3    H124064   5.275   2.437   1.855  0.2681 -3.2217  0.0257
  835TIP3    H224065   5.416   2.478   1.819  0.2221 -2.0711  1.0808
  836TIP3   OH224066   1.571   6.235   0.822  0.4924 -0.2811 -0.6741
  836TIP3    H124067   1.505   6.300   0.845  1.6297  0.4969  0.5848
  836TIP3    H224068   1.547   6.157   0.872 -0.3529 -0.5434 -1.4660
  837TIP3   OH224069   3.783   2.312   0.749  1.0471 -0.2737 -0.5372
  837TIP3    H124070   3.847   2.288   0.816  1.4467 -1.6321 -1.3604
  837TIP3    H224071   3.802   2.404   0.730  1.4910 -0.1205  0.5784
  838TIP3   OH224072   0.227   4.420   1.868 -0.1437 -0.0624  0.0699
  838TIP3    H124073   0.261   4.386   1.785  1.1899  1.5004 -0.0581
  838TIP3    H224074   0.223   4.515   1.856 -0.1889  0.1699  1.7046
  839TIP3   OH224075   6.311   5.992   1.905 -0.4828 -0.3022 -0.0945
  839TIP3    H124076   6.327   6.083   1.930 -0.7685 -0.4277  0.5755
  839TIP3    H224077   6.217   5.979   1.923 -0.1653 -1.1142  1.1273
  840TIP3   OH224078   0.303   0.124   7.495  0.2778  0.4474 -0.0782
  840TIP3    H124079   0.249   0.201   7.515  1.0264  1.0815 -0.4372
  840TIP3    H224080   0.295   0.068   7.572 -0.0514  1.0161  0.3050
  841TIP3   OH224081   2.501   0.222   1.113  0.0428  0.5056  0.7022
  841TIP3    H124082   2.536   0.134   1.125  1.4241  1.1721  1.7923
  841TIP3    H224083   2.538   0.251   1.030 -0.6397 -0.0309  0.2017
  842TIP3   OH224084   4.597   5.816   7.277  0.0736 -1.1271  0.1567
  842TIP3    H124085   4.636   5.902   7.293 -0.1236 -1.0772  0.3716
  842TIP3    H224086   4.662   5.770   7.224 -0.4844 -0.3234 -1.2612
  843TIP3   OH224087   4.123   4.915   0.653  0.2382  0.7817  0.0347
  843TIP3    H124088   4.112   5.009   0.644  1.6314  1.0879  1.1242
  843TIP3    H224089   4.170   4.889   0.574  0.2286  1.0803 -0.0711
  844TIP3   OH224090   0.845   6.074   0.024 -0.0158 -0.4581 -0.1997
  844TIP3    H124091   0.920   6.061   0.083  0.6632  2.1765 -0.3622
  844TIP3    H224092   0.868   6.024  -0.055  0.9310 -0.7782  0.2612
  845TIP3   OH224093   5.945   3.959   8.311 -0.1882  0.3516  0.6032
  845TIP3    H124094   6.010   4.001   8.254 -1.6278  0.3717 -1.0782
  845TIP3    H224095   5.934   4.022   8.383  0.9921  0.7461  0.4704
  846TIP3   OH224096   3.584   6.416   1.422 -0.1542  0.5649  0.2007
  846TIP3    H124097   3.617   6.465   1.497  2.4013 -0.1883 -0.3134
  846TIP3    H224098   3.582   6.325   1.452  2.5024  0.0021 -1.0030
  847TIP3   OH224099   3.797   1.201   1.345  0.4324 -0.4313 -0.0421
  847TIP3    H124100   3.823   1.176   1.257 -0.6184 -0.5939 -0.3236
  847TIP3    H224101   3.769   1.293   1.337 -1.2540 -0.9242 -0.2653
  848TIP3   OH224102   3.499   4.084   0.883  0.1651  0.8897  0.0986
  848TIP3    H124103   3.445   4.082   0.962  0.2006  0.0666  0.1028
  848TIP3    H224104   3.589   4.086   0.914  0.2396 -0.9868  0.0995
  849TIP3   OH224105   0.796   4.410   0.427 -0.3193 -0.6425  0.5981
  849TIP3    H124106   0.852   4.478   0.389 -0.9408  0.1366  1.0229
  849TIP3    H224107   0.779   4.441   0.516  0.3475 -1.9631  1.2142
  850TIP3   OH224108   6.407   1.257   1.914 -0.0862  0.2121 -0.0701
  850TIP3    H124109   6.365   1.318   1.854 -1.4813 -0.4226  0.2265
  850TIP3    H224110   6.358   1.265   1.996 -0.2825 -1.2502 -0.0149
  851TIP3   OH224111   4.584   4.998   2.071  0.4931 -0.0797 -0.0590
  851TIP3    H124112   4.627   5.078   2.099 -0.6693  0.7993 -0.6533
  851TIP3    H224113   4.642   4.928   2.099  2.2238  1.0151 -0.7043
  852TIP3   OH224114   2.942   5.680   6.515  0.5754  0.7524  0.0295
  852TIP3    H124115   2.851   5.676   6.545  0.6399  0.1253  0.1443
  852TIP3    H224116   2.969   5.769   6.537  0.0181  0.9201  0.0727
  853TIP3   OH224117   2.073   6.707   0.114  0.1654 -0.2236 -0.1635
  853TIP3    H124118   2.106   6.667   0.033  0.2970 -0.4519  0.0019
  853TIP3    H224119   2.151   6.746   0.154  0.0901 -0.0608 -0.1721
  854TIP3   OH224120   6.786   1.553   0.869  0.1550  0.2815  0.3926
  854TIP3    H124121   6.864   1.549   0.924  1.3615 -0.0470 -1.2562
  854TIP3    H224122   6.816   1.595   0.788 -1.1615 -0.6348 -0.6205
  855TIP3   OH224123   5.803   1.064   6.682  0.0860 -0.5663 -0.1130
  855TIP3    H124124   5.738   1.073   6.751 -0.3945 -0.9861 -0.5027
  855TIP3    H224125   5.887   1.083   6.725 -0.4360  1.8224 -0.0032
  856TIP3   OH224126   4.638   2.384   0.739  0.0815 -0.1722  0.3015
  856TIP3    H124127   4.727   2.349   0.733 -0.4904 -1.4980 -1.2672
  856TIP3    H224128   4.636   2.456   0.677 -0.3860 -1.2725 -1.0094
  857TIP3   OH224129   0.815   2.743   8.620 -0.3183 -0.3466 -0.0099
  857TIP3    H124130   0.842   2.762   8.531 -1.7852  1.9439 -0.0325
  857TIP3    H224131   0.796   2.649   8.620 -0.4356 -0.3632 -2.1236
  858TIP3   OH224132   3.151   4.671   7.945  0.5089 -0.3585  0.7677
  858TIP3    H124133   3.240   4.638   7.957  0.3563 -0.9104  0.4063
  858TIP3    H224134   3.124   4.639   7.859  0.4622  0.9834  0.2679
  859TIP3   OH224135   2.098   1.373   0.540  0.0885  0.2780 -0.2451
  859TIP3    H124136   2.062   1.321   0.469 -0.5867  0.6814 -0.2094
  859TIP3    H224137   2.143   1.310   0.596 -0.3688 -0.2082 -0.4195
  860TIP3   OH224138   3.747   0.847   7.875  0.1878  0.2631  0.2514
  860TIP3    H124139   3.795   0.908   7.931  1.3558 -0.3192 -0.0850
  860TIP3    H224140   3.666   0.894   7.852  1.1928  1.8072 -0.2698
  861TIP3   OH224141   3.257   3.809   6.482  0.4530  0.3723  0.4114
  861TIP3    H124142   3.177   3.798   6.532 -1.0580  3.0554 -1.1338
  861TIP3    H224143   3.270   3.725   6.437  0.5324 -1.2575  3.2861
  862TIP3   OH224144   5.491   2.070   6.831  0.3200  0.2686 -0.0307
  862TIP3    H124145   5.496   2.033   6.743  1.2810 -0.9098  0.4919
  862TIP3    H224146   5.581   2.090   6.855  0.4239 -1.7486  1.5916
  863TIP3   OH224147   6.509   5.806   6.792 -0.4210 -0.0324  0.0870
  863TIP3    H124148   6.589   5.767   6.757 -1.5981 -1.2828 -1.3919
  863TIP3    H224149   6.489   5.878   6.733 -1.0015 -0.4808 -0.2818
  864TIP3   OH224150   1.186   2.728   0.220  0.6258  0.3165 -0.0957
  864TIP3    H124151   1.176   2.634   0.202 -0.6950  0.2724  0.7426
  864TIP3    H224152   1.152   2.770   0.141  0.0095  0.0943  0.0459
  865TIP3   OH224153   5.348   4.114   1.890  0.2200  0.0211  0.1539
  865TIP3    H124154   5.408   4.046   1.858 -0.2175 -0.8009  1.0239
  865TIP3    H224155   5.311   4.076   1.969 -2.7211 -0.2303 -1.2217
  866TIP3   OH224156   6.680   2.571   6.162  0.5525  0.4701 -0.8603
  866TIP3    H124157   6.772   2.597   6.155  0.6945  0.0735 -0.5178
  866TIP3    H224158   6.675   2.526   6.246 -0.1846  1.4319 -0.3731
  867TIP3   OH224159   5.845   0.997   0.333 -0.2712 -0.1737 -0.1883
  867TIP3    H124160   5.791   0.947   0.272 -0.0563 -0.8325  0.1493
  867TIP3    H224161   5.782   1.031   0.397 -0.1543 -2.6151  1.3807
  868TIP3   OH224162   1.146   2.235   8.807  0.0579  0.2160 -0.0634
  868TIP3    H124163   1.109   2.258   8.722 -0.2155  2.7879  0.6686
  868TIP3    H224164   1.239   2.255   8.800  0.9875 -3.5373 -0.9743
  869TIP3   OH224165   2.116   2.041   1.208  0.0960 -0.5043 -0.2519
  869TIP3    H124166   2.139   1.975   1.143  0.5572  1.3720 -2.0706
  869TIP3    H224167   2.062   1.993   1.271  1.0409 -2.7815 -1.0566
  870TIP3   OH224168   0.519   0.535   0.833 -0.1878  0.6966  0.4133
  870TIP3    H124169   0.528   0.509   0.741 -0.6670 -2.4956  1.1817
  870TIP3    H224170   0.609   0.556   0.860  0.2731 -0.3043 -0.2744
  871TIP3   OH224171   0.613   2.845   0.561 -0.3993 -0.0601  0.4243
  871TIP3    H124172   0.659   2.821   0.481 -0.0246  0.9524  0.3224
  871TIP3    H224173   0.681   2.879   0.619 -1.0394  1.8384  0.1152
  872TIP3   OH224174   3.165   6.377   1.511  0.4306  0.1239 -0.3852
  872TIP3    H124175   3.207   6.313   1.568  3.8851  1.1733 -1.4703
  872TIP3    H224176   3.208   6.365   1.426 -2.0313  0.9524 -1.8633
  873TIP3   OH224177   2.731   1.524   0.565  0.0218 -0.3463  0.1978
  873TIP3    H124178   2.695   1.609   0.587  1.5412  1.0099 -2.1680
  873TIP3    H224179   2.672   1.489   0.498  0.6194 -0.1029 -0.4721
  874TIP3   OH224180   2.089   5.105   1.196  0.2805 -0.1667 -0.3367
  874TIP3    H124181   2.149   5.158   1.250 -0.6383  1.3609 -0.7623
  874TIP3    H224182   2.139   5.086   1.116  0.4888  0.3829 -0.3394
  875TIP3   OH224183   1.371   2.101   6.878 -0.1129 -0.2592 -0.0356
  875TIP3    H124184   1.314   2.177   6.864 -1.8997 -1.4881  0.2938
  875TIP3    H224185   1.406   2.081   6.791 -1.2493 -0.2834 -0.5054
  876TIP3   OH224186   1.269   6.369   0.263 -0.1205 -0.3542 -0.1761
  876TIP3    H124187   1.174   6.367   0.274 -0.3756 -1.7867 -1.9694
  876TIP3    H224188   1.283   6.425   0.187  0.5126  0.2158  0.3582
  877TIP3   OH224189   0.489   5.479   1.855  0.3102  0.0090 -0.3976
  877TIP3    H124190   0.518   5.552   1.910  1.5824 -0.0948 -0.8994
  877TIP3    H224191   0.397   5.499   1.836 -1.0682 -1.2191  3.8330
  878TIP3   OH224192   6.195   5.553   2.357 -0.2574  0.1489 -0.3103
  878TIP3    H124193   6.217   5.461   2.373  0.0152 -0.0587 -1.7512
  878TIP3    H224194   6.109   5.564   2.397  0.7404 -0.0512  2.0583
  879TIP3   OH224195   1.270   6.356   6.428 -0.2739  0.1554 -0.3637
  879TIP3    H124196   1.291   6.449   6.426  0.1295  0.0791  0.0790
  879TIP3    H224197   1.302   6.322   6.345 -1.2074  0.5661 -0.9044
  880TIP3   OH224198   1.314   4.099   1.795 -0.2749 -0.2554 -0.0367
  880TIP3    H124199   1.298   4.160   1.866 -0.5985  0.4340 -0.6920
  880TIP3    H224200   1.237   4.042   1.795 -1.0151  0.7160 -0.8061
  881TIP3   OH224201   2.406   2.920   7.801 -0.0354 -0.2584 -0.8159
  881TIP3    H124202   2.476   2.927   7.866 -0.8873 -1.8205  0.3057
  881TIP3    H224203   2.428   2.987   7.736  0.7789  1.4625  1.1046
  882TIP3   OH224204   3.716   0.784   7.199  0.0804 -0.0013 -0.9702
  882TIP3    H124205   3.758   0.862   7.236  0.8796 -0.5738 -0.6589
  882TIP3    H224206   3.666   0.818   7.125 -1.0183  1.0744  0.2020
  883TIP3   OH224207   2.671   2.692   7.119 -0.2207  0.8918 -0.2839
  883TIP3    H124208   2.691   2.625   7.053  0.9434 -0.3864  1.2524
  883TIP3    H224209   2.650   2.641   7.198 -1.7770  2.3579  0.2981
  884TIP3   OH224210   2.419   5.205   8.606 -0.1614  0.1584 -0.3058
  884TIP3    H124211   2.331   5.189   8.642  0.1980 -1.2999 -0.0137
  884TIP3    H224212   2.462   5.119   8.610  1.9075  1.1962  1.2474
  885TIP3   OH224213   6.456   0.827   2.486 -0.7324 -0.1879  0.1748
  885TIP3    H124214   6.435   0.919   2.469  1.5434  0.5946  1.2406
  885TIP3    H224215   6.551   0.823   2.484 -0.7145 -2.2091  1.6954
  886TIP3   OH224216   0.315   5.512   1.276 -0.1606 -0.0985  0.1925
  886TIP3    H124217   0.289   5.603   1.295  1.1413  0.5273 -0.9046
  886TIP3    H224218   0.262   5.460   1.336 -0.8665  1.3905  0.9259
  887TIP3   OH224219   2.404   6.763   0.939  0.0635 -0.1261 -0.3690
  887TIP3    H124220   2.454   6.785   0.861  1.2565  1.7421  0.8402
  887TIP3    H224221   2.463   6.710   0.992 -0.1923 -0.1006 -0.0538
  888TIP3   OH224222   6.140   3.502   6.899  0.6946 -0.2683 -0.5044
  888TIP3    H124223   6.099   3.517   6.814 -0.5184  2.3538  0.4267
  888TIP3    H224224   6.216   3.561   6.899 -0.9096  1.9499  1.1782
  889TIP3   OH224225   1.386   3.270   0.618  0.2685 -0.4294 -0.3209
  889TIP3    H124226   1.412   3.361   0.632  0.3438 -0.4615 -0.2516
  889TIP3    H224227   1.457   3.233   0.566  0.8942 -0.8051  0.7657
  890TIP3   OH224228   0.388   3.880   7.748 -0.1803 -0.0217  0.3419
  890TIP3    H124229   0.328   3.943   7.788  0.9981  1.6173 -0.3239
  890TIP3    H224230   0.473   3.924   7.750  0.6255 -1.4758 -0.4553
  891TIP3   OH224231   3.142   4.840   0.115  0.3902  0.3458 -0.4364
  891TIP3    H124232   3.072   4.776   0.101  0.1067  0.5963 -0.1950
  891TIP3    H224233   3.098   4.925   0.107 -0.6292  0.6956  4.9992
  892TIP3   OH224234   4.819   1.882   1.610 -0.1717 -0.1393  0.4551
  892TIP3    H124235   4.845   1.790   1.598  0.1935 -0.1182  1.0627
  892TIP3    H224236   4.827   1.897   1.704 -0.1281  0.5510  0.3413
  893TIP3   OH224237   5.884   6.252   1.669 -0.2424 -0.6125  0.4640
  893TIP3    H124238   5.912   6.228   1.758  1.0728  2.9079  1.1693
  893TIP3    H224239   5.791   6.232   1.667 -0.1554 -1.4345  2.3918
  894TIP3   OH224240   0.640   6.148   7.525  0.3498  0.5062  0.2254
  894TIP3    H124241   0.719   6.114   7.484 -1.1322  0.0191 -2.4703
  894TIP3    H224242   0.601   6.206   7.460 -2.4577 -0.7398  0.6114
  895TIP3   OH224243   0.308   1.555   1.002 -0.9008 -0.2520  0.2110
  895TIP3    H124244   0.272   1.641   0.978 -0.0803  0.6133  1.8870
  895TIP3    H224245   0.396   1.574   1.033 -0.9110 -1.6258  1.1648
  896TIP3   OH224246   5.482   3.004   6.968 -0.0377 -0.0110  0.9548
  896TIP3    H124247   5.410   3.058   7.001 -1.3187 -0.7863 -0.4111
  896TIP3    H224248   5.438   2.937   6.915  1.7477  0.1050 -0.7681
  897TIP3   OH224249   1.154   6.641   0.579  0.7465  0.6999 -0.2393
  897TIP3    H124250   1.148   6.689   0.496 -0.0254 -0.8998 -1.1683
  897TIP3    H224251   1.207   6.564   0.558  0.3529  0.1659  0.6973
  898TIP3   OH224252   1.728   6.569   1.695  0.0981  0.1126  0.5614
  898TIP3    H124253   1.654   6.605   1.743  0.4022  0.2451  0.9291
  898TIP3    H224254   1.736   6.479   1.728 -0.5581 -0.2595 -0.2383
  899TIP3   OH224255   5.581   2.202   7.217 -0.3301 -0.0728  0.4329
  899TIP3    H124256   5.667   2.241   7.202 -0.3301 -0.5896 -1.0009
  899TIP3    H224257   5.519   2.273   7.200 -0.4471 -0.9762 -4.1087
  900TIP3   OH224258   2.369   4.044   8.698  0.5531  0.3691  0.0006
  900TIP3    H124259   2.352   3.980   8.628  0.3247  0.2104  0.2030
  900TIP3    H224260   2.431   4.105   8.658  1.2910 -0.3484  0.0105
  901TIP3   OH224261   3.628   1.016   0.076  0.8214 -0.4086  0.3547
  901TIP3    H124262   3.655   0.954   0.008  1.3669 -0.1658  0.3466
  901TIP3    H224263   3.635   0.967   0.158  1.0843 -0.4127  0.3300
  902TIP3   OH224264   0.791   1.698   1.922 -0.8033  0.5403 -0.1229
  902TIP3    H124265   0.763   1.724   2.010  0.2193  1.5485 -0.0678
  902TIP3    H224266   0.725   1.735   1.864 -1.1195  0.4515  0.1751
  903TIP3   OH224267   4.859   0.392   6.920 -0.7224 -0.2241  0.0373
  903TIP3    H124268   4.788   0.355   6.867 -0.5486 -0.6911  0.1241
  903TIP3    H224269   4.815   0.430   6.996 -0.8261 -1.2528  0.5154
  904TIP3   OH224270   4.523   0.498   0.993 -0.0894  0.6067  0.2484
  904TIP3    H124271   4.545   0.528   0.904  1.7421 -0.5523  0.2666
  904TIP3    H224272   4.433   0.529   1.006 -0.5373  0.5435 -2.1276
  905TIP3   OH224273   1.440   0.608   1.451 -0.6407 -0.2687 -0.0290
  905TIP3    H124274   1.493   0.567   1.520  0.6497  0.0371 -0.8062
  905TIP3    H224275   1.444   0.702   1.472  0.5056 -0.0819 -0.9955
  906TIP3   OH224276   2.678   1.451   0.294 -0.0852  0.2804 -0.1434
  906TIP3    H124277   2.622   1.507   0.240  0.4124  1.2110  0.2910
  906TIP3    H224278   2.731   1.403   0.231 -0.3221  0.5009 -0.5177
  907TIP3   OH224279   2.152   2.798   8.834 -0.2685  0.6415  0.3007
  907TIP3    H124280   2.152   2.881   8.883  0.8273  1.2748 -0.7186
  907TIP3    H224281   2.107   2.818   8.752  0.9026  0.5315 -0.3959
  908TIP3   OH224282   5.578   2.212   0.110  0.3409  0.4490  0.3858
  908TIP3    H124283   5.650   2.169   0.064  0.3731 -0.0992  0.9370
  908TIP3    H224284   5.608   2.218   0.201 -0.2106  0.4319  0.5719
  909TIP3   OH224285   1.197   5.556   1.141 -0.1654  0.3483 -0.5324
  909TIP3    H124286   1.249   5.488   1.098  3.1517  0.6120  2.6185
  909TIP3    H224287   1.253   5.590   1.210 -4.0227  1.8381  2.2409
  910TIP3   OH224288   1.960   0.009   1.847  0.6008 -0.6126  0.7592
  910TIP3    H124289   1.870  -0.001   1.816  0.9522  0.9397 -0.8928
  910TIP3    H224290   1.986  -0.079   1.874 -1.2805 -1.1490  0.9254
  911TIP3   OH224291   5.626   3.444   7.749  0.2206 -0.5198  0.3512
  911TIP3    H124292   5.706   3.405   7.783  0.5450  0.5564  0.8528
  911TIP3    H224293   5.619   3.528   7.793 -1.2830 -0.6595  0.4410
  912TIP3   OH224294   1.192   6.294   8.635  0.4470 -0.4665 -0.4351
  912TIP3    H124295   1.166   6.203   8.650  0.4576 -0.6336 -1.3446
  912TIP3    H224296   1.110   6.342   8.628  0.4108 -0.6030 -1.0375
  913TIP3   OH224297   0.126   6.529   0.526  0.6850  0.1932 -0.6929
  913TIP3    H124298   0.159   6.524   0.436 -2.3546  2.2778 -2.0663
  913TIP3    H224299   0.076   6.448   0.537  0.6471  0.1654 -1.0404
  914TIP3   OH224300   0.793   4.243   7.765  0.4660  0.1832 -0.1628
  914TIP3    H124301   0.845   4.322   7.783 -0.0444  0.7526 -1.1078
  914TIP3    H224302   0.747   4.226   7.847  0.3280  1.0672 -0.0451
  915TIP3   OH224303   4.076   6.172   1.511 -0.4404  0.0216 -0.2024
  915TIP3    H124304   4.097   6.160   1.418 -0.7334  0.5591 -0.3386
  915TIP3    H224305   4.005   6.235   1.512  0.9736  1.6863  0.5045
  916TIP3   OH224306   0.867   6.235   6.585 -0.2712 -0.1431 -0.3179
  916TIP3    H124307   0.935   6.167   6.583  1.6523  1.6458  0.5423
  916TIP3    H224308   0.821   6.221   6.667  0.6744  0.0720  0.2654
  917TIP3   OH224309   3.872   2.738   1.414 -0.6113  0.2413 -0.3833
  917TIP3    H124310   3.845   2.773   1.330 -0.3353 -2.6094 -1.7880
  917TIP3    H224311   3.873   2.643   1.401 -2.3274 -0.4709  3.3788
  918TIP3   OH224312   2.737   1.014   0.507  0.0448  0.4676  0.4194
  918TIP3    H124313   2.670   0.984   0.568  1.5045 -1.8942  1.0088
  918TIP3    H224314   2.779   1.088   0.551  0.9666 -1.0836  2.3191
  919TIP3   OH224315   0.581   6.033   8.804  0.3914 -0.1558  0.1288
  919TIP3    H124316   0.677   6.029   8.813  0.4686  2.7683  2.0574
  919TIP3    H224317   0.548   5.990   8.883  0.2473  1.1665  0.8197
  920TIP3   OH224318   1.281   6.600   7.982  0.3995 -0.1145 -0.3124
  920TIP3    H124319   1.296   6.638   7.896  1.9846 -1.5609 -0.7260
  920TIP3    H224320   1.369   6.589   8.020 -0.1506 -1.1147  0.7574
  921TIP3   OH224321   1.444   1.227   8.579 -0.0561  0.2692  1.1259
  921TIP3    H124322   1.356   1.205   8.546  0.6239  1.6861 -1.9967
  921TIP3    H224323   1.478   1.144   8.613 -2.2844 -0.4917  1.6861
  922TIP3   OH224324   3.183   4.741   0.862  0.4184  0.1210  0.2265
  922TIP3    H124325   3.224   4.729   0.776 -0.3408 -0.0057 -0.1279
  922TIP3    H224326   3.145   4.829   0.858 -1.8022 -0.7941 -0.5353
  923TIP3   OH224327   6.530   5.803   8.045 -0.1253  0.0321  0.0839
  923TIP3    H124328   6.617   5.765   8.058 -0.2674 -0.0073  0.9354
  923TIP3    H224329   6.542   5.863   7.971 -0.1189 -2.3613 -2.0137
  924TIP3   OH224330   5.104   2.773   7.936  0.0895  0.2271 -0.1319
  924TIP3    H124331   5.026   2.810   7.978 -0.6694 -1.2668 -0.1393
  924TIP3    H224332   5.140   2.845   7.884 -0.8487  1.1605  0.4585
  925TIP3   OH224333   1.410   3.437   0.219  0.5652  0.1538  0.2804
  925TIP3    H124334   1.495   3.396   0.201 -0.4988 -2.1354  0.1345
  925TIP3    H224335   1.413   3.520   0.171  1.8678 -0.9308 -1.6450
  926TIP3   OH224336   0.686   6.633   6.970  0.6462 -0.0537  0.6989
  926TIP3    H124337   0.666   6.597   6.883  2.1659  0.0774  0.2804
  926TIP3    H224338   0.728   6.561   7.017 -0.0164 -0.0711  1.2829
  927TIP3   OH224339   6.782   2.024   8.181  0.3233  0.2818  0.2572
  927TIP3    H124340   6.870   1.993   8.201  0.6419  0.7952 -0.3472
  927TIP3    H224341   6.737   2.023   8.266  0.8134 -0.2676  0.5165
  928TIP3   OH224342   3.129   0.211   6.841  0.2830 -0.3940 -0.1739
  928TIP3    H124343   3.159   0.159   6.767  0.0825 -0.9128  0.0991
  928TIP3    H224344   3.037   0.188   6.850 -0.4940  1.9082 -1.6037
  929TIP3   OH224345   1.078   3.115   1.262  0.1230 -0.1383  0.2068
  929TIP3    H124346   0.990   3.144   1.289  0.3596  0.8904 -0.0591
  929TIP3    H224347   1.066   3.026   1.232 -1.0105  0.2955 -0.6866
  930TIP3   OH224348   4.206   6.382   7.122 -0.0066 -0.4093  0.8215
  930TIP3    H124349   4.286   6.434   7.115  0.2540 -0.9080 -0.0346
  930TIP3    H224350   4.179   6.393   7.213 -1.2309  3.0626  0.2180
  931TIP3   OH224351   4.006   4.036   6.798 -0.7714  0.0136 -0.1690
  931TIP3    H124352   4.067   3.963   6.789 -0.6746  0.1438 -0.5934
  931TIP3    H224353   4.050   4.109   6.754 -0.4222  0.6047  1.1106
  932TIP3   OH224354   2.757   3.585   7.520 -0.2463 -0.2002  0.1779
  932TIP3    H124355   2.813   3.606   7.445 -0.8870  1.1760  0.0408
  932TIP3    H224356   2.815   3.592   7.596  0.3755 -1.4646 -0.1467
  933TIP3   OH224357   1.369   1.431   0.597 -1.0046  0.9632  1.1662
  933TIP3    H124358   1.317   1.455   0.674 -1.0590  2.9913  0.5590
  933TIP3    H224359   1.454   1.472   0.611  0.4049 -1.9221  1.9095
  934TIP3   OH224360   4.142   6.065   7.388 -0.1506 -0.3097 -0.2360
  934TIP3    H124361   4.236   6.064   7.404  0.0011  1.3112 -0.8294
  934TIP3    H224362   4.103   6.064   7.475  0.4441 -0.0771  0.0395
  935TIP3   OH224363   1.610   2.888   7.895 -0.0495  0.5722  0.3919
  935TIP3    H124364   1.526   2.890   7.940  0.2931  1.1200  1.0298
  935TIP3    H224365   1.672   2.859   7.962  0.3312  0.5358  0.0285
  936TIP3   OH224366   3.605   5.823   6.890  0.1233  0.2259  0.2105
  936TIP3    H124367   3.537   5.769   6.849 -0.0911  0.2703  0.5039
  936TIP3    H224368   3.659   5.853   6.817  1.9593 -2.6841  0.2331
  937TIP3   OH224369   6.451   4.241   0.906  0.1501 -0.5874 -0.3347
  937TIP3    H124370   6.358   4.221   0.918 -0.1869 -0.0507 -1.8653
  937TIP3    H224371   6.480   4.178   0.841 -0.0382  1.4670 -2.5243
  938TIP3   OH224372   0.159   1.037   8.459 -0.0204  0.9888 -0.1833
  938TIP3    H124373   0.134   1.067   8.547 -0.7600  1.5911 -0.5811
  938TIP3    H224374   0.224   0.969   8.474  0.7196  1.8820  0.8022
  939TIP3   OH224375   1.009   0.124   1.211  0.1877 -0.1976  0.6192
  939TIP3    H124376   1.085   0.150   1.263  0.9712 -0.7866 -0.2176
  939TIP3    H224377   1.042   0.114   1.122 -1.0780  0.4889  0.0471
  940TIP3   OH224378   0.697   5.958   8.315  0.0674 -0.5073  0.0482
  940TIP3    H124379   0.749   6.012   8.257 -0.3500  1.2043  1.1902
  940TIP3    H224380   0.606   5.977   8.291 -0.0888 -1.2900 -0.0285
  941TIP3   OH224381   5.730   5.526   0.445 -0.3607 -0.3397 -0.4493
  941TIP3    H124382   5.809   5.571   0.413 -0.3631  0.4170  0.5705
  941TIP3    H224383   5.698   5.478   0.369  1.2298 -0.8816 -0.8244
  942TIP3   OH224384   0.752   0.607   6.421  0.0594  0.0609 -0.2941
  942TIP3    H124385   0.750   0.694   6.461 -1.7820  0.9756 -2.1981
  942TIP3    H224386   0.840   0.575   6.439  0.8246  2.3346  0.4128
  943TIP3   OH224387   0.506   2.108   8.716 -0.4385 -0.4758  0.0347
  943TIP3    H124388   0.464   2.023   8.733 -0.6800 -0.0095  2.0787
  943TIP3    H224389   0.599   2.093   8.732 -0.3822 -0.5199 -0.3263
  944TIP3   OH224390   2.529   6.223   8.191  0.1948 -0.4239 -0.4507
  944TIP3    H124391   2.577   6.141   8.201 -0.0165 -0.5600 -0.5710
  944TIP3    H224392   2.459   6.218   8.255  0.5223 -0.0905 -0.0576
  945TIP3   OH224393   1.338   2.620   8.834  0.1439  0.6310  0.0721
  945TIP3    H124394   1.254   2.664   8.820  0.8735  1.6892 -1.2627
  945TIP3    H224395   1.395   2.688   8.871  1.1561  0.7520 -1.5887
  946TIP3   OH224396   1.600   6.209   6.776 -0.6155 -0.0461  0.3589
  946TIP3    H124397   1.633   6.293   6.742  0.5366  0.1509  1.8522
  946TIP3    H224398   1.505   6.221   6.779 -0.3946  1.7273  1.7695
  947TIP3   OH224399   0.101   6.044   0.796  0.4698 -0.0107 -0.0708
  947TIP3    H124400   0.120   5.961   0.839 -1.4496 -0.9215 -0.8853
  947TIP3    H224401   0.098   6.023   0.703  1.0453  1.2092 -0.3921
  948TIP3   OH224402   0.969   4.931   0.247  0.4331  0.1749  0.3707
  948TIP3    H124403   0.880   4.961   0.224  1.1353  1.3766 -0.9407
  948TIP3    H224404   0.994   4.988   0.320  0.5374  0.6106  0.0019
  949TIP3   OH224405   1.330   2.737   7.598  0.0048  0.5347  0.0241
  949TIP3    H124406   1.386   2.665   7.626 -0.5632  0.7024  1.6640
  949TIP3    H224407   1.380   2.816   7.618 -0.3019  0.6486  0.3572
  950TIP3   OH224408   1.355   1.473   8.451 -0.7240  0.5447 -0.0251
  950TIP3    H124409   1.270   1.431   8.437 -0.0807 -0.6839 -0.3678
  950TIP3    H224410   1.404   1.410   8.505  0.5925  0.4031 -1.3237
  951TIP3   OH224411   3.733   1.944   6.565  0.1163 -0.0631 -0.8258
  951TIP3    H124412   3.692   2.025   6.595  1.6205  0.4853 -0.1690
  951TIP3    H224413   3.689   1.875   6.616  2.3020  0.8071  2.5224
  952TIP3   OH224414   3.999   2.917   0.212 -0.6621 -0.3893  0.0735
  952TIP3    H124415   4.040   2.853   0.155 -1.3580 -0.1160 -0.7492
  952TIP3    H224416   4.072   2.960   0.256 -0.1776 -1.6203  0.5242
  953TIP3   OH224417   4.928   2.778   7.212  0.2218 -0.2656  0.1103
  953TIP3    H124418   4.926   2.831   7.133  2.9005  1.0503  0.7973
  953TIP3    H224419   4.911   2.839   7.283  0.6729 -0.8439  0.7322
  954TIP3   OH224420   4.937   5.913   1.270 -0.2612 -0.1906 -0.0374
  954TIP3    H124421   4.877   5.839   1.259 -0.1141 -0.1167 -1.5587
  954TIP3    H224422   4.975   5.927   1.183  2.1290 -0.3544  0.9080
  955TIP3   OH224423   5.244   2.812   1.008 -0.1753  0.2445  0.7470
  955TIP3    H124424   5.293   2.731   0.995 -1.9446 -0.6254 -1.0662
  955TIP3    H224425   5.303   2.881   0.979  0.3888 -0.6644 -0.3694
  956TIP3   OH224426   6.612   2.940   8.266  0.1490  0.6970  0.2939
  956TIP3    H124427   6.661   2.976   8.340  1.3130 -0.2859  0.0310
  956TIP3    H224428   6.545   2.884   8.306  1.2138 -0.3870  0.6226
  957TIP3   OH224429   2.532   4.366   7.292 -0.0409  0.2801 -0.2002
  957TIP3    H124430   2.514   4.296   7.229 -2.2844 -0.6130  1.3131
  957TIP3    H224431   2.458   4.426   7.284  0.0109  0.5441  1.0112
  958TIP3   OH224432   4.207   2.546   7.298  0.2259  0.1423  0.1981
  958TIP3    H124433   4.219   2.609   7.369  0.0438  0.0201  0.3408
  958TIP3    H224434   4.256   2.582   7.225  1.0968 -0.1432  0.6302
  959TIP3   OH224435   5.565   6.496   0.355  0.6643 -0.3705  0.3921
  959TIP3    H124436   5.483   6.497   0.404 -0.4971  1.5911 -1.4282
  959TIP3    H224437   5.617   6.566   0.393 -0.9251  2.3442 -2.0274
  960TIP3   OH224438   3.717   1.221   7.103  0.4302  0.4206 -0.1669
  960TIP3    H124439   3.797   1.258   7.065 -1.1430  0.9033 -3.4000
  960TIP3    H224440   3.660   1.297   7.116  0.1205 -0.0243  1.2093
  961TIP3   OH224441   4.234   4.427   8.472  0.0875 -0.0338  0.3526
  961TIP3    H124442   4.297   4.399   8.406 -0.5472 -0.6165 -0.0186
  961TIP3    H224443   4.222   4.351   8.528 -0.7735 -0.1455  0.0314
  962TIP3   OH224444   4.910   3.182   7.039 -0.2798  0.4238  0.3620
  962TIP3    H124445   4.829   3.222   7.070  0.5401  1.8236  0.8090
  962TIP3    H224446   4.883   3.101   6.996 -2.0619  1.5743 -0.7822
  963TIP3   OH224447   2.354   6.273   7.710 -0.1565 -0.2550  0.0420
  963TIP3    H124448   2.328   6.267   7.618 -0.1898 -0.9897  0.0981
  963TIP3    H224449   2.341   6.185   7.745  0.5032 -0.1496  0.5797
  964TIP3   OH224450   3.557   1.903   8.528 -0.1923 -0.3204 -0.4959
  964TIP3    H124451   3.644   1.883   8.492  0.4973  1.0815  0.3296
  964TIP3    H224452   3.500   1.907   8.451  0.1502 -2.6102 -0.9393
  965TIP3   OH224453   1.297   4.153   6.339 -0.6172  0.1047  0.8107
  965TIP3    H124454   1.255   4.239   6.348 -0.8851  0.0045  0.4970
  965TIP3    H224455   1.329   4.133   6.427 -0.0946  0.7622  0.7807
  966TIP3   OH224456   3.969   5.353   1.324  0.2671  0.1480 -0.3709
  966TIP3    H124457   3.906   5.291   1.286  0.0410  0.6353 -0.7967
  966TIP3    H224458   4.049   5.339   1.274  0.4033 -0.2281 -0.0577
  967TIP3   OH224459   1.874   1.536   1.423  0.4388 -0.8591 -0.7292
  967TIP3    H124460   1.969   1.522   1.421  0.9531  1.5167  1.6831
  967TIP3    H224461   1.848   1.513   1.512 -0.5020  2.0920 -0.1272
  968TIP3   OH224462   5.520   6.084   7.368  0.5020  0.2092 -0.0102
  968TIP3    H124463   5.447   6.041   7.413 -0.9561  0.8557 -1.6512
  968TIP3    H224464   5.530   6.168   7.412  0.7584 -0.1784  0.6861
  969TIP3   OH224465   1.457   5.989   8.129  0.0817  0.0345 -0.1050
  969TIP3    H124466   1.528   6.047   8.102 -0.4773  0.9048  0.2903
  969TIP3    H224467   1.474   5.971   8.221 -0.0659  0.0370 -0.0771
  970TIP3   OH224468   2.501   3.584   8.008  0.1042 -0.4696  0.1068
  970TIP3    H124469   2.407   3.600   8.010  0.3343  1.0771 -0.2856
  970TIP3    H224470   2.525   3.573   8.100  0.0402  2.6080  0.6090
  971TIP3   OH224471   3.373   1.169   7.279  0.4777 -0.3275 -0.5608
  971TIP3    H124472   3.404   1.252   7.243  1.7470 -0.4835  0.1156
  971TIP3    H224473   3.367   1.185   7.374 -0.9031 -0.5139 -0.6033
  972TIP3   OH224474   0.448   1.859   1.206 -0.1190  0.1678  0.1304
  972TIP3    H124475   0.408   1.801   1.141 -0.3369  1.8092 -1.2695
  972TIP3    H224476   0.452   1.806   1.286  0.4934 -2.0371 -1.2776
  973TIP3   OH224477   4.370   0.017   0.025 -0.2212  0.2110  0.2619
  973TIP3    H124478   4.361   0.015  -0.070 -0.7716  0.1496  0.3082
  973TIP3    H224479   4.433  -0.052   0.045  1.7927  1.8178 -0.2393
  974TIP3   OH224480   3.643   3.919   7.547 -0.0189  0.3965 -0.4604
  974TIP3    H124481   3.715   3.948   7.491  0.5138  0.0078  0.0078
  974TIP3    H224482   3.567   3.918   7.490  0.3190  0.9425 -0.9334
  975TIP3   OH224483   6.727   1.844   0.791  0.1316 -0.4607  0.4861
  975TIP3    H124484   6.697   1.934   0.779 -2.5221 -1.3509 -0.3492
  975TIP3    H224485   6.729   1.807   0.703 -0.9708 -1.7943  0.9811
  976TIP3   OH224486   5.263   0.016   8.674 -0.4545 -0.3931  0.2074
  976TIP3    H124487   5.167   0.016   8.676 -0.4602  1.0121  0.9862
  976TIP3    H224488   5.289   0.054   8.758  0.7778 -0.2092 -0.2369
  977TIP3   OH224489   1.952   2.151   7.956 -0.1825  0.1424  0.3969
  977TIP3    H124490   2.023   2.125   8.014 -0.0850 -2.5596 -0.7508
  977TIP3    H224491   1.872   2.132   8.006 -0.1152  0.9933  0.8404
  978TIP3   OH224492   6.354   3.883   1.548  0.1754  0.2377 -0.1696
  978TIP3    H124493   6.319   3.817   1.608  0.4373  0.4098  0.1721
  978TIP3    H224494   6.320   3.966   1.581  1.6370  0.5135  0.7183
  979TIP3   OH224495   4.910   1.147   1.786  0.3070  0.6040 -0.3569
  979TIP3    H124496   4.852   1.110   1.852 -1.2930  0.8178 -1.5824
  979TIP3    H224497   4.918   1.239   1.809  0.5187  0.4841  0.0603
  980TIP3   OH224498   2.556   5.408   8.473 -0.4471  0.0988 -0.4005
  980TIP3    H124499   2.485   5.472   8.468 -0.0349  0.5734 -0.2754
  980TIP3    H224500   2.517   5.334   8.519 -1.4924 -0.5393 -2.2073
  981TIP3   OH224501   2.064   4.176   7.428  0.5647 -0.2378 -0.1269
  981TIP3    H124502   2.035   4.266   7.444  0.0055 -0.4873  0.2792
  981TIP3    H224503   2.005   4.145   7.359 -1.4359 -1.3724  1.9889
  982TIP3   OH224504   2.159   4.462   7.755 -0.4910 -0.3712  0.3875
  982TIP3    H124505   2.250   4.436   7.740 -0.7764 -0.7019 -0.8909
  982TIP3    H224506   2.143   4.530   7.690 -1.3053 -0.6563  0.2785
  983TIP3   OH224507   0.795   2.079   0.510  0.4681  0.0245 -0.1269
  983TIP3    H124508   0.758   2.016   0.448 -1.6649  1.4585 -0.3954
  983TIP3    H224509   0.890   2.068   0.502  0.1784 -1.9113 -1.4157
  984TIP3   OH224510   0.359   2.929   0.318 -0.1115  0.0968 -0.0326
  984TIP3    H124511   0.320   2.850   0.355 -0.8154 -0.0931 -1.1412
  984TIP3    H224512   0.332   2.999   0.377 -1.7875 -0.0973 -0.5449
  985TIP3   OH224513   3.342   4.574   7.130  0.1834 -0.1297 -0.5521
  985TIP3    H124514   3.353   4.533   7.044  0.6640 -0.5925 -0.2777
  985TIP3    H224515   3.284   4.649   7.114 -0.6006 -0.8283 -1.0970
  986TIP3   OH224516   6.595   0.747   0.386 -0.5270 -0.1871  0.3631
  986TIP3    H124517   6.552   0.794   0.313  0.4005 -1.5768 -1.1452
  986TIP3    H224518   6.665   0.806   0.414 -1.9394  1.1025  1.3199
  987TIP3   OH224519   5.208   0.597   0.828  0.1352  0.2667  0.4108
  987TIP3    H124520   5.267   0.602   0.904 -0.7470  0.2643  1.1109
  987TIP3    H224521   5.188   0.504   0.819  0.3909  0.2438  0.0420
  988TIP3   OH224522   1.405   1.458   8.156  0.0862 -0.2593  0.4002
  988TIP3    H124523   1.392   1.465   8.250 -1.5451  0.2005  0.1685
  988TIP3    H224524   1.324   1.492   8.117 -0.7403 -3.4842 -1.1113
  989TIP3   OH224525   6.530   1.684   7.552 -0.1227  0.1785 -0.3677
  989TIP3    H124526   6.451   1.716   7.595 -0.1295  0.7425 -0.7906
  989TIP3    H224527   6.602   1.712   7.610 -0.2279 -0.4248  0.0697
  990TIP3   OH224528   6.250   0.047   6.965 -0.5119  0.4273  0.0180
  990TIP3    H124529   6.233  -0.034   6.918  0.2342  0.4468 -0.2983
  990TIP3    H224530   6.182   0.107   6.935 -0.7463  0.0814 -0.1483
  991TIP3   OH224531   4.518   3.294   8.322 -0.1185  0.1524  0.0387
  991TIP3    H124532   4.509   3.388   8.304 -2.0159 -0.1605 -0.9414
  991TIP3    H224533   4.564   3.260   8.245  3.2838  0.6086  1.6673
  992TIP3   OH224534   2.198   0.831   0.268 -0.2073  0.9621 -0.2211
  992TIP3    H124535   2.117   0.780   0.273 -0.0823  0.7787 -0.0382
  992TIP3    H224536   2.180   0.899   0.204 -0.3610  0.6542 -0.5070
  993TIP3   OH224537   0.661   1.121   0.262  0.5899  0.2384  0.3293
  993TIP3    H124538   0.601   1.173   0.207  0.1740  1.3096  1.7383
  993TIP3    H224539   0.667   1.170   0.344 -2.4016 -3.4278  3.1289
  994TIP3   OH224540   2.803   4.117   1.316  0.4573  0.1619 -0.1403
  994TIP3    H124541   2.761   4.031   1.314  0.2821  0.2200  0.7441
  994TIP3    H224542   2.805   4.145   1.224 -1.0977 -0.0054 -0.2467
  995TIP3   OH224543   0.834   1.695   0.690  0.0017 -0.1825  0.4634
  995TIP3    H124544   0.748   1.688   0.731 -0.6957 -1.9202 -1.1050
  995TIP3    H224545   0.863   1.784   0.707 -2.1373  0.4473  1.0075
  996TIP3   OH224546   6.376   0.276   0.318  0.1656 -0.2015 -0.1063
  996TIP3    H124547   6.426   0.351   0.283  3.9168 -1.9111  1.0309
  996TIP3    H224548   6.308   0.315   0.372  3.1319  2.5934  2.0292
  997TIP3   OH224549   1.180   3.034   6.885  0.1479  0.0131  0.2585
  997TIP3    H124550   1.200   2.962   6.944  0.5263  0.6880  0.9787
  997TIP3    H224551   1.143   2.993   6.807  0.5734 -0.9667  0.5649
  998TIP3   OH224552   3.995   3.627   7.740  0.3501 -0.7638 -1.1890
  998TIP3    H124553   4.075   3.575   7.751 -0.0236 -0.8538  3.8814
  998TIP3    H224554   4.025   3.718   7.741  0.5592 -0.8031  0.5108
  999TIP3   OH224555   2.961   4.749   1.543 -0.3956 -0.3430 -0.2851
  999TIP3    H124556   2.971   4.843   1.532 -1.0702 -0.2513 -0.1722
  999TIP3    H224557   3.038   4.711   1.502 -0.1970  0.2524 -0.4658
 1000TIP3   OH224558   6.693   0.927   0.098 -0.0301 -0.5715  0.7641
 1000TIP3    H124559   6.680   0.838   0.065  0.5741  0.1259 -1.5025
 1000TIP3    H224560   6.609   0.951   0.137 -0.3387 -1.9402  0.9759
 1001TIP3   OH224561   5.169   6.549   7.602  0.4350  0.0188  0.6708
 1001TIP3    H124562   5.259   6.566   7.575  0.0961 -0.2078 -0.6813
 1001TIP3    H224563   5.153   6.458   7.577 -0.4863  0.3612 -0.0403
 1002TIP3   OH224564   0.689   6.303   0.504 -0.1652 -0.1211  0.2921
 1002TIP3    H124565   0.644   6.323   0.422  0.0155  0.1716  0.2608
 1002TIP3    H224566   0.637   6.347   0.571  0.6618  1.1607  0.1429
 1003TIP3   OH224567   5.552   3.959   0.857  0.1862 -0.1851 -0.2626
 1003TIP3    H124568   5.457   3.969   0.849  0.0350 -1.4513 -0.3880
 1003TIP3    H224569   5.573   3.888   0.796  1.4644  1.1433 -1.4544
 1004TIP3   OH224570   4.684   3.479   8.497  0.2829  0.0889  0.6636
 1004TIP3    H124571   4.647   3.418   8.560  0.8342 -0.6748  0.2589
 1004TIP3    H224572   4.729   3.545   8.550 -2.2756  1.5259  1.2176
 1005TIP3   OH224573   3.775   2.627   6.264 -0.3266  0.7991 -0.2678
 1005TIP3    H124574   3.808   2.623   6.354 -0.4812  0.1827 -0.2297
 1005TIP3    H224575   3.731   2.712   6.258 -1.7651  0.1803  0.7663
 1006TIP3   OH224576   3.736   4.084   1.057  1.7351 -1.0148 -0.1592
 1006TIP3    H124577   3.695   4.055   1.139  0.2054  1.6634  0.1508
 1006TIP3    H224578   3.830   4.074   1.072  1.4326 -1.8879  1.3739
 1007TIP3   OH224579   0.037   5.920   2.037 -0.6828 -0.1074  0.3320
 1007TIP3    H124580   0.031   5.824   2.040 -0.6528 -0.1287 -0.2220
 1007TIP3    H224581   0.009   5.948   2.124 -0.6830 -0.6217  0.5017
 1008TIP3   OH224582   0.305   3.551   0.166 -0.6936  0.1130  0.1105
 1008TIP3    H124583   0.347   3.622   0.117 -2.2071  1.1256  0.2235
 1008TIP3    H224584   0.365   3.477   0.156 -0.0648  0.8018 -1.7460
 1009TIP3   OH224585   4.865   3.564   7.792  0.1997  0.2729 -0.0943
 1009TIP3    H124586   4.924   3.621   7.841 -0.2610  1.5653 -0.9988
 1009TIP3    H224587   4.778   3.585   7.826 -0.1655  1.4145 -1.6338
 1010TIP3   OH224588   1.924   3.380   7.251  0.0207  0.2888 -0.3320
 1010TIP3    H124589   1.922   3.309   7.186  1.2439  0.2048 -0.2980
 1010TIP3    H224590   1.988   3.442   7.217 -0.8612  1.2898 -0.2384
 1011TIP3   OH224591   1.504   0.261   6.491 -0.5199 -0.7868 -0.4003
 1011TIP3    H124592   1.491   0.319   6.416  0.8893  0.4641  0.2684
 1011TIP3    H224593   1.475   0.313   6.566 -0.5638 -1.4902  0.0760
 1012TIP3   OH224594   3.238   6.096   8.836 -0.2418 -0.4531  0.1311
 1012TIP3    H124595   3.189   6.176   8.819 -0.5938 -0.7141 -0.0992
 1012TIP3    H224596   3.300   6.119   8.905 -0.3702  0.0043  0.0913
 1013TIP3   OH224597   1.987   3.642   1.217 -0.2404  0.2929  0.3869
 1013TIP3    H124598   1.911   3.585   1.228 -0.8683  1.4950  3.0341
 1013TIP3    H224599   2.051   3.610   1.281  0.8601  0.3219 -0.6577
 1014TIP3   OH224600   1.808   5.925   7.885  0.1282  0.2256  0.7820
 1014TIP3    H124601   1.831   5.915   7.792  1.4532 -1.5519  1.2552
 1014TIP3    H224602   1.792   5.836   7.916 -0.0510  0.7659  2.3368
 1015TIP3   OH224603   5.797   0.103   6.607  0.9002 -0.3687 -1.2404
 1015TIP3    H124604   5.710   0.138   6.622  1.7509  0.3823  3.3650
 1015TIP3    H224605   5.825   0.142   6.524 -1.4082  3.2027 -0.5392
 1016TIP3   OH224606   5.536   3.466   1.016 -0.3904  0.2313 -0.8249
 1016TIP3    H124607   5.520   3.395   0.954  0.6046 -1.3989  0.6851
 1016TIP3    H224608   5.560   3.541   0.962 -0.2932 -0.9145 -2.4320
 1017TIP3   OH224609   5.098   0.985   1.429  0.0336 -0.2207 -0.2569
 1017TIP3    H124610   5.184   1.012   1.460  0.1836 -0.1479 -0.7160
 1017TIP3    H224611   5.070   0.917   1.490 -0.5424  1.2538  1.1854
 1018TIP3   OH224612   4.496   0.165   7.959  0.2502  0.2264 -0.2806
 1018TIP3    H124613   4.564   0.145   7.894 -1.4653 -1.6445 -1.6212
 1018TIP3    H224614   4.484   0.260   7.951  0.7020  0.1852 -2.1093
 1019TIP3   OH224615   1.206   3.687   5.952 -0.3278 -0.0257  0.6474
 1019TIP3    H124616   1.199   3.598   5.986  0.2804 -0.4797 -0.3546
 1019TIP3    H224617   1.205   3.743   6.029  1.1321 -1.0200  1.4329
 1020TIP3   OH224618   3.070   2.228   8.584  0.0441 -0.2222  0.1559
 1020TIP3    H124619   2.994   2.223   8.526  1.3504  0.0658 -1.6489
 1020TIP3    H224620   3.087   2.137   8.608 -1.0044 -0.2706  0.8168
 1021TIP3   OH224621   0.595   5.351   6.618  0.1007 -0.3037 -0.1459
 1021TIP3    H124622   0.661   5.419   6.630  2.1141 -2.1366 -0.0666
 1021TIP3    H224623   0.599   5.331   6.524 -0.3079 -0.4550 -0.1302
 1022TIP3   OH224624   1.301   3.748   2.061  0.6756 -0.4473  0.5904
 1022TIP3    H124625   1.346   3.832   2.076  0.1404 -0.1869  0.7825
 1022TIP3    H224626   1.242   3.740   2.136 -0.0778 -0.4590  0.0051
 1023TIP3   OH224627   0.003   4.100   8.147  0.3578 -0.5615  0.0154
 1023TIP3    H124628  -0.090   4.122   8.135  0.7101 -0.0480 -2.3762
 1023TIP3    H224629   0.005   4.004   8.140  0.2185 -0.4466 -2.3900
 1024TIP3   OH224630   1.067   5.069   8.508  0.1497  0.6903 -0.1025
 1024TIP3    H124631   1.125   5.060   8.433  1.4702 -0.5524  1.0276
 1024TIP3    H224632   0.999   5.004   8.494  1.2545 -0.6341  0.5125
 1025TIP3   OH224633   6.778   3.794   1.093  0.6014 -0.1485  0.0058
 1025TIP3    H124634   6.846   3.745   1.047  0.9705  1.9054 -1.8132
 1025TIP3    H224635   6.823   3.836   1.166  1.8981  2.7182 -2.2399
 1026TIP3   OH224636   5.671   2.843   2.535  0.4396 -0.3290  0.6820
 1026TIP3    H124637   5.634   2.770   2.585  1.3692 -0.6244  0.9441
 1026TIP3    H224638   5.741   2.877   2.589  1.0996 -0.2924 -0.1701
 1027TIP3   OH224639   0.908   2.362   8.276  0.3522  0.1183  0.4099
 1027TIP3    H124640   0.834   2.374   8.336  0.5385  0.2702  0.6129
 1027TIP3    H224641   0.868   2.349   8.191  0.0104 -2.1252  0.8521
 1028TIP3   OH224642   3.088   5.980   6.795 -0.2380 -0.0277 -0.6388
 1028TIP3    H124643   3.158   6.041   6.773 -0.5288  0.0846 -1.2778
 1028TIP3    H224644   3.050   5.956   6.710 -1.6788  0.7472 -0.2380
 1029TIP3   OH224645   3.633   1.430   1.298 -0.2451 -0.4746  0.3719
 1029TIP3    H124646   3.592   1.386   1.223 -2.1853  1.6666  0.0395
 1029TIP3    H224647   3.559   1.458   1.352  0.9927  0.4272  1.6744
 1030TIP3   OH224648   3.116   1.962   1.669 -0.3227 -0.4654  0.0450
 1030TIP3    H124649   3.147   2.040   1.715  0.1637 -0.6939  0.1043
 1030TIP3    H224650   3.045   1.929   1.725 -1.5715  0.7765 -0.7341
 1031TIP3   OH224651   2.512   4.317   8.314 -0.2621  0.8174  0.0863
 1031TIP3    H124652   2.586   4.287   8.260 -0.8035  0.0376 -0.2455
 1031TIP3    H224653   2.478   4.393   8.266 -0.9191 -0.0408 -0.8702
 1032TIP3   OH224654   1.434   6.462   1.596  0.1531  0.0787 -0.1750
 1032TIP3    H124655   1.345   6.462   1.632 -0.3523 -1.0945 -1.3537
 1032TIP3    H224656   1.470   6.377   1.620  1.5426  1.0835  1.5602
 1033TIP3   OH224657   4.039   4.194   6.440 -0.6757  0.4471 -0.1535
 1033TIP3    H124658   4.062   4.207   6.532  0.5874 -0.6118 -0.2923
 1033TIP3    H224659   4.065   4.276   6.397 -0.8667  0.7791  0.3545
 1034TIP3   OH224660   5.234   4.634   8.236  0.5808 -0.3841 -0.2383
 1034TIP3    H124661   5.243   4.716   8.186  0.0159 -0.4086 -0.3858
 1034TIP3    H224662   5.209   4.662   8.324  0.5735 -0.3925 -0.2379
 1035TIP3   OH224663   2.931   1.646   0.382 -0.1157  0.5609  0.1679
 1035TIP3    H124664   2.867   1.603   0.439  0.2856  0.1468  0.3145
 1035TIP3    H224665   2.880   1.673   0.305 -0.8289  1.8658  1.0740
 1036TIP3   OH224666   3.822   6.311   8.390  0.2580 -0.2995 -0.0747
 1036TIP3    H124667   3.760   6.382   8.372  0.2320  0.1114  1.4688
 1036TIP3    H224668   3.850   6.327   8.480  1.8033 -1.0962 -0.3883
 1037TIP3   OH224669   4.329   6.682   0.356  0.1091  0.2697 -0.0300
 1037TIP3    H124670   4.249   6.630   0.356 -0.1953  0.7032  0.8782
 1037TIP3    H224671   4.312   6.753   0.294 -0.3769  0.5751  0.4358
 1038TIP3   OH224672   0.222   2.358   0.789 -0.2807 -0.0573 -0.9013
 1038TIP3    H124673   0.220   2.317   0.875  1.6338  3.0317  0.8122
 1038TIP3    H224674   0.301   2.323   0.747  0.4677  0.6103 -0.0952
 1039TIP3   OH224675   5.204   5.408   1.606 -0.5809 -0.0603 -0.0539
 1039TIP3    H124676   5.263   5.471   1.647 -1.5270  1.1396 -0.4457
 1039TIP3    H224677   5.254   5.371   1.533 -0.0366  0.3008  0.1315
 1040TIP3   OH224678   0.965   4.600   1.607  0.4772 -0.3369  0.0132
 1040TIP3    H124679   0.891   4.661   1.614  0.2543 -0.3877 -1.5044
 1040TIP3    H224680   0.941   4.527   1.665 -0.1430  0.1513  0.3828
 1041TIP3   OH224681   6.356   2.849   1.946  0.1899 -0.3376  0.3619
 1041TIP3    H124682   6.287   2.886   2.001  1.5261  0.2442  1.7238
 1041TIP3    H224683   6.310   2.812   1.871 -1.5477  0.4672  0.9788
 1042TIP3   OH224684   2.631   6.205   1.404 -0.4205  0.5238 -0.1680
 1042TIP3    H124685   2.712   6.155   1.410 -0.5939  0.2058 -0.4244
 1042TIP3    H224686   2.654   6.282   1.352 -0.0858  0.8547  0.4680
 1043TIP3   OH224687   4.601   4.388   0.382 -0.0037 -0.2876 -0.1800
 1043TIP3    H124688   4.664   4.411   0.450 -0.1822 -0.8048  0.1659
 1043TIP3    H224689   4.530   4.343   0.429 -0.9495  0.8559 -0.4590
 1044TIP3   OH224690   5.677   4.796   1.731 -0.1572 -0.3282  0.2855
 1044TIP3    H124691   5.748   4.853   1.701  0.2804 -2.1547 -2.5036
 1044TIP3    H224692   5.722   4.726   1.778 -0.3529 -0.2708  0.5587
 1045TIP3   OH224693   3.367   0.402   0.397  0.2869 -0.0117 -0.3883
 1045TIP3    H124694   3.362   0.384   0.304  1.0655 -1.0300 -0.2533
 1045TIP3    H224695   3.416   0.328   0.433 -0.6321 -0.0127  0.9343
 1046TIP3   OH224696   0.941   2.113   7.844 -0.2647 -0.4779  0.4441
 1046TIP3    H124697   0.913   2.135   7.933 -0.9998 -1.4802  0.4755
 1046TIP3    H224698   0.936   2.017   7.840  1.6493 -0.6057 -0.0623
 1047TIP3   OH224699   0.423   6.510   7.893  0.0154 -0.2757 -0.0529
 1047TIP3    H124700   0.340   6.464   7.902 -0.7757  0.6106 -2.1152
 1047TIP3    H224701   0.421   6.577   7.961  0.9669 -2.8205  2.6545
 1048TIP3   OH224702   1.911   1.010   6.507  0.2307  0.0335 -0.5307
 1048TIP3    H124703   1.840   0.991   6.447  0.7275 -1.5089 -0.6698
 1048TIP3    H224704   1.966   0.932   6.505  0.3276 -0.0367  1.8414
 1049TIP3   OH224705   5.611   4.036   8.560 -0.3031  0.5945 -0.0073
 1049TIP3    H124706   5.697   4.052   8.599  0.2580  0.0168 -0.9850
 1049TIP3    H224707   5.627   4.032   8.466 -1.1102 -1.1540 -0.1214
 1050TIP3   OH224708   3.710   6.752   0.472 -0.5351 -0.1573 -0.0468
 1050TIP3    H124709   3.701   6.660   0.498 -1.3985 -0.8175 -2.4051
 1050TIP3    H224710   3.716   6.749   0.377  2.0687  2.0817 -0.0800
 1051TIP3   OH224711   5.376   6.166   0.980  0.1881 -0.0452 -0.3560
 1051TIP3    H124712   5.315   6.123   1.040 -0.6789  1.5868  0.0097
 1051TIP3    H224713   5.456   6.114   0.986 -0.8712 -1.7277 -0.1697
 1052TIP3   OH224714   0.416   4.584   2.628 -0.2682  0.2843 -0.0428
 1052TIP3    H124715   0.471   4.513   2.593  0.0474  0.9614 -0.9649
 1052TIP3    H224716   0.424   4.576   2.723  0.5691 -0.2906 -0.1510
 1053TIP3   OH224717   4.223   3.828   8.120 -0.6691 -0.3037  0.2938
 1053TIP3    H124718   4.245   3.742   8.083  0.0689  0.0593 -0.1599
 1053TIP3    H224719   4.296   3.884   8.092 -0.6873  0.2592  1.3462
 1054TIP3   OH224720   6.265   4.271   8.207  0.2884  0.0675 -0.4425
 1054TIP3    H124721   6.215   4.204   8.160  0.7903 -0.8044  0.2333
 1054TIP3    H224722   6.268   4.345   8.147  0.9184 -1.0146 -1.7993
 1055TIP3   OH224723   0.049   1.830   0.066 -0.2011  0.0894 -0.4390
 1055TIP3    H124724  -0.031   1.777   0.061  0.6775 -1.2474 -0.8846
 1055TIP3    H224725   0.097   1.809  -0.014 -0.0775  2.0536 -0.9258
 1056TIP3   OH224726   0.984   1.000   1.435  0.0387  0.3552  0.1632
 1056TIP3    H124727   0.975   1.068   1.502 -1.1394  1.0360 -0.6404
 1056TIP3    H224728   0.984   1.049   1.353  3.1796 -0.2962 -0.3557
 1057TIP3   OH224729   5.569   0.666   7.717 -0.2318  0.0039  1.0109
 1057TIP3    H124730   5.514   0.587   7.714  0.5267 -0.7827  4.0042
 1057TIP3    H224731   5.508   0.737   7.735 -0.7596 -0.0942 -0.2925
 1058TIP3   OH224732   6.148   3.008   6.400 -0.5427  0.3347 -0.8260
 1058TIP3    H124733   6.231   3.055   6.394 -1.4296  1.9870 -0.6400
 1058TIP3    H224734   6.166   2.922   6.361  1.3320  0.5245 -0.4707
 1059TIP3   OH224735   4.566   0.187   1.415 -0.4435 -0.3167  0.1525
 1059TIP3    H124736   4.624   0.255   1.380  1.3056 -0.5629  2.3448
 1059TIP3    H224737   4.496   0.235   1.458  0.1170  0.1070  0.6132
 1060TIP3   OH224738   4.230   5.794   1.228  0.1761  0.2722 -0.1549
 1060TIP3    H124739   4.257   5.849   1.302 -2.4119 -0.5655  1.5682
 1060TIP3    H224740   4.299   5.728   1.221  0.6715  0.6003  1.2574
 1061TIP3   OH224741   6.286   3.699   6.549  0.1370 -0.4544  0.3300
 1061TIP3    H124742   6.209   3.644   6.562  0.3389 -1.1221 -1.0672
 1061TIP3    H224743   6.352   3.639   6.513 -0.0032  0.8346 -2.3744
 1062TIP3   OH224744   5.215   1.446   7.669 -0.0052  0.4937  0.2136
 1062TIP3    H124745   5.305   1.419   7.686 -0.4122  0.2056  2.0952
 1062TIP3    H224746   5.199   1.420   7.578  1.5809 -0.0312  0.0564
 1063TIP3   OH224747   3.707   3.747   6.222  0.2209 -0.8566  0.2660
 1063TIP3    H124748   3.761   3.775   6.296 -0.1443  1.4261 -0.2654
 1063TIP3    H224749   3.637   3.694   6.262  0.0824  0.2577  1.5669
 1064TIP3   OH224750   0.483   0.388   7.474 -0.6036 -0.2471  0.1839
 1064TIP3    H124751   0.441   0.472   7.489 -0.2402  0.0957 -0.6497
 1064TIP3    H224752   0.561   0.409   7.423  1.1914 -0.7483  2.5931
 1065TIP3   OH224753   1.747   3.335   2.313 -0.5777  0.1426  0.7547
 1065TIP3    H124754   1.734   3.304   2.224 -0.6843  0.6383  0.5926
 1065TIP3    H224755   1.661   3.331   2.354 -0.5981  0.2597  0.7229
 1066TIP3   OH224756   5.399   2.322   6.278 -0.6944 -0.0083 -1.1528
 1066TIP3    H124757   5.433   2.378   6.348 -0.1713 -1.2723 -0.3487
 1066TIP3    H224758   5.304   2.327   6.287 -0.6298 -0.2954 -0.2264
 1067TIP3   OH224759   6.176   3.822   7.638  0.4781  0.3136  0.1039
 1067TIP3    H124760   6.192   3.909   7.673  1.7393 -0.8731  2.7883
 1067TIP3    H224761   6.231   3.816   7.561 -0.8850  2.3789 -1.1299
 1068TIP3   OH224762   6.453   3.858   0.373 -0.0474 -0.0146 -0.0862
 1068TIP3    H124763   6.468   3.906   0.291 -0.3852 -1.1646 -0.8458
 1068TIP3    H224764   6.415   3.775   0.345  1.2486 -1.0697  1.1435
 1069TIP3   OH224765   4.526   3.502   7.513  0.6907 -0.1827  0.4811
 1069TIP3    H124766   4.542   3.438   7.582  1.3542  1.0136  1.4818
 1069TIP3    H224767   4.499   3.582   7.560 -0.7028  0.1110 -0.7600
 1070TIP3   OH224768   2.535   2.086   1.965  0.1874 -0.1216 -0.2739
 1070TIP3    H124769   2.562   2.047   1.881 -1.0945  1.1195 -1.3092
 1070TIP3    H224770   2.455   2.134   1.944  0.2642  0.8595  1.5217
 1071TIP3   OH224771   5.603   5.035   0.687 -0.4234 -0.3233  0.0386
 1071TIP3    H124772   5.690   5.008   0.656 -0.8985 -0.2347 -1.4383
 1071TIP3    H224773   5.542   4.990   0.629 -1.3403  0.7462  0.1383
 1072TIP3   OH224774   1.325   5.779   1.819  0.0286  0.5029 -0.1873
 1072TIP3    H124775   1.335   5.766   1.914  0.6224 -1.2476 -0.4552
 1072TIP3    H224776   1.231   5.792   1.807 -0.3396 -1.2102  0.4789
 1073TIP3   OH224777   6.457   3.403   6.733 -0.4398 -0.4952 -0.2031
 1073TIP3    H124778   6.457   3.409   6.638  0.2145  0.7390 -0.1487
 1073TIP3    H224779   6.480   3.491   6.763 -0.6091 -0.8622  1.0975
 1074TIP3   OH224780   0.671   0.296   7.969 -0.3135  0.1893  0.1398
 1074TIP3    H124781   0.756   0.340   7.970  0.3365 -1.0145  0.1858
 1074TIP3    H224782   0.651   0.285   7.876  1.2273 -2.4580 -0.0002
 1075TIP3   OH224783   1.410   2.863   0.382 -0.0734  0.2321  0.3929
 1075TIP3    H124784   1.317   2.845   0.398 -1.0233  0.8982 -3.3573
 1075TIP3    H224785   1.418   2.958   0.388  0.1686  0.2470 -0.1210
 1076TIP3   OH224786   1.379   3.700   1.615 -0.2626  0.4676  0.3521
 1076TIP3    H124787   1.419   3.647   1.684 -2.1244 -1.3212  0.1623
 1076TIP3    H224788   1.297   3.731   1.654 -0.7622  0.4513 -0.6603
 1077TIP3   OH224789   2.201   2.287   0.104  0.0478 -0.4856  0.3820
 1077TIP3    H124790   2.108   2.265   0.109 -0.9751  2.0068 -3.4228
 1077TIP3    H224791   2.227   2.303   0.195 -2.9762 -1.9880  1.6487
 1078TIP3   OH224792   4.023   4.318   7.365 -0.1926  0.5692 -0.3329
 1078TIP3    H124793   4.102   4.335   7.315 -0.5145  0.2425 -0.9645
 1078TIP3    H224794   3.998   4.403   7.401  0.1362  0.7708 -0.5809
 1079TIP3   OH224795   5.430   4.373   8.050 -0.3655  0.1188  0.1486
 1079TIP3    H124796   5.374   4.400   8.122 -0.8129  1.0794 -0.5314
 1079TIP3    H224797   5.382   4.399   7.971  0.3941 -0.3329 -0.4793
 1080TIP3   OH224798   5.331   3.101   0.566  0.1547  0.8239 -0.1037
 1080TIP3    H124799   5.332   3.192   0.538  1.4989  0.6531 -0.6874
 1080TIP3    H224800   5.392   3.057   0.507 -1.6297 -0.7729 -0.8591
 1081TIP3   OH224801   0.394   1.448   0.688  0.2067  0.6858  0.1579
 1081TIP3    H124802   0.393   1.489   0.775 -0.7542  0.2732  0.3578
 1081TIP3    H224803   0.457   1.376   0.697 -0.1470  0.4227  0.6385
 1082TIP3   OH224804   2.301   4.679   6.379  0.1287  0.3991  0.1627
 1082TIP3    H124805   2.222   4.631   6.354 -0.1650  0.6057  0.6778
 1082TIP3    H224806   2.273   4.736   6.450  1.1101 -0.7520  1.5363
 1083TIP3   OH224807   2.546   0.771   0.188 -0.2267  0.7144 -0.0768
 1083TIP3    H124808   2.601   0.745   0.114 -2.5952  0.8993 -2.0194
 1083TIP3    H224809   2.465   0.721   0.176 -0.9156  1.2188  2.0774
 1084TIP3   OH224810   3.422   4.094   1.981  0.7080 -0.1549  0.3444
 1084TIP3    H124811   3.415   4.001   1.961 -2.0508 -0.1282  0.8661
 1084TIP3    H224812   3.365   4.107   2.057  2.7661  1.5948  1.7179
 1085TIP3   OH224813   4.842   2.843   1.734  0.0266  0.1101  0.0603
 1085TIP3    H124814   4.837   2.905   1.661  1.3890 -2.1634 -2.1563
 1085TIP3    H224815   4.917   2.873   1.786  1.6187 -0.4151 -1.8173
 1086TIP3   OH224816   4.795   0.411   1.433 -0.4270  0.3566  0.4992
 1086TIP3    H124817   4.787   0.506   1.421  1.2680  1.1546  4.2398
 1086TIP3    H224818   4.886   0.392   1.413 -0.7511 -0.5607 -0.2046
 1087TIP3   OH224819   3.211   4.924   7.027  0.0938  0.4869  0.9059
 1087TIP3    H124820   3.154   4.939   7.102 -0.1859 -1.7400  1.1880
 1087TIP3    H224821   3.170   4.852   6.979 -0.6760  2.8922 -2.3947
 1088TIP3   OH224822   2.315   6.607   0.284 -0.2832  0.0689  0.0148
 1088TIP3    H124823   2.237   6.559   0.254 -0.1032 -0.4384  0.3472
 1088TIP3    H224824   2.389   6.555   0.251  0.0328  2.3744 -3.4158
 1089TIP3   OH224825   6.574   4.049   1.494 -0.3538  0.1161 -0.3194
 1089TIP3    H124826   6.502   3.999   1.454 -0.2415 -1.4327  1.3107
 1089TIP3    H224827   6.650   4.028   1.439 -0.6627 -0.0784 -0.6819
 1090TIP3   OH224828   1.227   1.652   1.603 -0.1319  0.0854 -0.0006
 1090TIP3    H124829   1.270   1.607   1.676  0.2935  0.1175 -0.2317
 1090TIP3    H224830   1.259   1.742   1.608  0.4075 -0.0703 -0.6219
 1091TIP3   OH224831   4.716   3.785   8.120  0.0192 -0.2175 -0.0140
 1091TIP3    H124832   4.653   3.832   8.174  0.9834  1.6925 -0.4814
 1091TIP3    H224833   4.799   3.797   8.164  0.6408  0.4221 -1.2932
 1092TIP3   OH224834   2.823   0.887   1.675  0.3033 -1.1654 -0.4340
 1092TIP3    H124835   2.837   0.891   1.770 -0.6798 -0.0841 -0.3080
 1092TIP3    H224836   2.742   0.936   1.661  1.4504  0.4064 -2.0251
 1093TIP3   OH224837   1.078   2.954   8.471  0.0858  0.1878  0.1259
 1093TIP3    H124838   1.132   3.019   8.515  0.0500  0.4018 -0.1404
 1093TIP3    H224839   1.132   2.875   8.470  0.3337  0.3569 -0.0001
 1094TIP3   OH224840   5.028   3.583   8.527  0.1968 -0.1618  0.3683
 1094TIP3    H124841   5.092   3.654   8.527 -0.1321  0.1421 -0.4138
 1094TIP3    H224842   5.057   3.524   8.457  1.3059 -1.5830  1.9483
 1095TIP3   OH224843   3.138   1.011   6.902  0.0957 -0.6794 -0.3192
 1095TIP3    H124844   3.188   1.084   6.865 -0.4182 -0.6459 -0.9646
 1095TIP3    H224845   3.050   1.045   6.914 -0.0093 -1.0236 -0.0878
 1096TIP3   OH224846   2.086   3.688   7.556 -0.2550  0.2967 -0.1477
 1096TIP3    H124847   2.108   3.758   7.494  0.1934 -0.3088 -0.6785
 1096TIP3    H224848   2.124   3.609   7.518  0.2608 -0.0468  1.0371
 1097TIP3   OH224849   2.416   3.296   8.519 -0.7235 -0.8406 -0.1868
 1097TIP3    H124850   2.445   3.367   8.461  0.7516 -1.2382  0.0142
 1097TIP3    H224851   2.429   3.216   8.467 -1.1899 -1.0648  0.0369
 1098TIP3   OH224852   4.851   2.811   8.072 -0.2341 -0.0512 -0.4914
 1098TIP3    H124853   4.778   2.852   8.026 -0.1927 -0.6760 -1.1434
 1098TIP3    H224854   4.825   2.812   8.164 -0.1370  1.5892 -0.4692
 1099TIP3   OH224855   0.273   4.335   2.138  0.4118  0.0088  0.3711
 1099TIP3    H124856   0.247   4.343   2.046  0.5117  2.5372  0.4836
 1099TIP3    H224857   0.349   4.277   2.137  0.5244  0.1458 -1.1670
 1100TIP3   OH224858   0.898   3.315   8.419 -0.5474 -0.6813 -0.0997
 1100TIP3    H124859   0.899   3.316   8.323 -1.5590  3.4169 -0.2585
 1100TIP3    H224860   0.806   3.303   8.442 -0.5620  0.1413  0.2801
 1101TIP3   OH224861   1.770   5.824   1.541 -0.0697  0.2309 -0.2408
 1101TIP3    H124862   1.686   5.809   1.584 -0.1123  1.1248  0.0127
 1101TIP3    H224863   1.776   5.920   1.532  0.4804  0.1251 -1.1439
 1102TIP3   OH224864   4.479   2.918   7.390 -0.4756  0.7385 -0.7072
 1102TIP3    H124865   4.505   3.007   7.367 -0.0248  1.7252  3.0310
 1102TIP3    H224866   4.425   2.928   7.469 -2.2655 -2.1911 -1.4037
 1103TIP3   OH224867   6.029   1.486   1.863 -0.1149 -0.0046 -0.6542
 1103TIP3    H124868   6.002   1.488   1.955 -0.4043 -1.0699 -0.7059
 1103TIP3    H224869   5.964   1.540   1.818 -0.1563  0.2599 -0.2822
 1104TIP3   OH224870   1.438   3.329   7.664  0.0328 -0.4405  0.1388
 1104TIP3    H124871   1.474   3.332   7.576  0.7644 -0.4884  0.4335
 1104TIP3    H224872   1.373   3.399   7.666  0.5114  0.0143 -0.2186
 1105TIP3   OH224873   4.849   0.382   2.131  0.0459 -0.4187 -0.4886
 1105TIP3    H124874   4.839   0.413   2.221  1.8635  0.7382 -0.6444
 1105TIP3    H224875   4.793   0.440   2.080  0.1741 -0.1066 -0.2784
 1106TIP3   OH224876   1.510   3.987   6.872 -0.4233 -0.8106 -0.0008
 1106TIP3    H124877   1.489   3.903   6.914 -0.6908 -1.0353 -0.5652
 1106TIP3    H224878   1.595   3.972   6.832 -0.7442 -1.0241 -0.6251
 1107TIP3   OH224879   5.756   4.522   1.076 -0.7178 -0.4476 -0.6848
 1107TIP3    H124880   5.814   4.495   1.147 -0.7656  1.6828  0.2657
 1107TIP3    H224881   5.773   4.460   1.006  1.1354 -1.1796  0.3344
 1108TIP3   OH224882   1.677   0.114   7.848  0.3746 -0.1366  0.0751
 1108TIP3    H124883   1.749   0.178   7.847  1.1005 -0.9255 -0.6936
 1108TIP3    H224884   1.721   0.029   7.843 -0.5811 -0.6987  0.8554
 1109TIP3   OH224885   4.901   1.980   8.815 -0.0850  0.4739  0.1128
 1109TIP3    H124886   4.864   2.046   8.873 -0.6443  0.0718  0.2290
 1109TIP3    H224887   4.915   2.026   8.732  0.6635  1.0317  0.5366
 1110TIP3   OH224888   2.829   4.857   7.024 -0.4865 -0.4297  0.0036
 1110TIP3    H124889   2.744   4.825   7.054 -0.9772 -0.5842 -1.4574
 1110TIP3    H224890   2.846   4.809   6.943 -0.8008  2.1939 -1.7609
 1111TIP3   OH224891   5.960   2.939   6.639 -0.0288 -0.2491 -0.3917
 1111TIP3    H124892   5.869   2.922   6.612 -0.3159  0.9853 -0.2859
 1111TIP3    H224893   6.005   2.856   6.625 -1.4217 -1.2354  0.6387
 1112TIP3   OH224894   6.741   5.839   6.668 -0.1179 -0.0483 -0.0182
 1112TIP3    H124895   6.807   5.895   6.628 -2.0026  1.7512 -0.8219
 1112TIP3    H224896   6.735   5.763   6.610 -2.5018  2.3034 -3.2101
 1113TIP3   OH224897   2.198   3.294   1.712 -0.8187  0.2600  1.5347
 1113TIP3    H124898   2.195   3.384   1.744  0.2310  0.2256  1.7520
 1113TIP3    H224899   2.206   3.241   1.791 -0.0233  0.0719  1.3379
 1114TIP3   OH224900   4.672   5.764   0.735  0.0748 -0.0887 -0.1803
 1114TIP3    H124901   4.711   5.756   0.822 -2.0319  1.0343  0.9434
 1114TIP3    H224902   4.696   5.852   0.706  0.0276 -0.1272 -0.3364
 1115TIP3   OH224903   6.522   5.797   7.444 -0.1203  0.1229 -0.0107
 1115TIP3    H124904   6.480   5.812   7.528  1.1823 -1.0394  0.8836
 1115TIP3    H224905   6.480   5.718   7.410  0.9030 -0.7214  0.6300
 1116TIP3   OH224906   5.341   0.462   8.548  0.0698  0.1257 -0.1556
 1116TIP3    H124907   5.424   0.417   8.558  1.0218  1.9353  0.6371
 1116TIP3    H224908   5.348   0.507   8.464 -0.1740  0.1739 -0.1512
 1117TIP3   OH224909   5.830   0.239   8.415 -0.0746  0.0866 -0.2481
 1117TIP3    H124910   5.883   0.318   8.403 -0.1528  0.4487  1.4546
 1117TIP3    H224911   5.872   0.193   8.488 -1.4880 -0.1494  0.4533
 1118TIP3   OH224912   5.676   0.410   1.623 -0.0656 -0.2656 -0.0360
 1118TIP3    H124913   5.769   0.431   1.621  0.1285 -1.1284 -0.1178
 1118TIP3    H224914   5.652   0.418   1.715  0.0649  0.0243 -0.0235
 1119TIP3   OH224915   3.559   1.662   7.679 -0.4704  0.0342 -0.2593
 1119TIP3    H124916   3.489   1.661   7.614 -1.8172  0.9198  1.0957
 1119TIP3    H224917   3.559   1.752   7.713 -0.8663 -0.7724  2.0126
 1120TIP3   OH224918   2.503   6.501   7.363 -0.1340 -0.1164  0.4153
 1120TIP3    H124919   2.563   6.460   7.424  0.2224 -0.3764 -0.1027
 1120TIP3    H224920   2.436   6.542   7.418  1.7377  2.2091  1.1468
 1121TIP3   OH224921   5.591   2.424   8.388  0.2096 -0.1335 -0.0411
 1121TIP3    H124922   5.611   2.423   8.482  0.6233  1.8701 -0.0672
 1121TIP3    H224923   5.610   2.335   8.359  0.1022 -0.7888  1.7603
 1122TIP3   OH224924   6.676   2.282   6.625 -0.2174  0.4614 -0.2363
 1122TIP3    H124925   6.738   2.210   6.638  0.3677  0.4587 -2.5685
 1122TIP3    H224926   6.595   2.239   6.596 -0.5112  0.6285  0.3267
 1123TIP3   OH224927   4.670   4.042   8.198 -0.2847  0.1003  0.4636
 1123TIP3    H124928   4.621   4.077   8.272  0.9875 -0.6786  1.7283
 1123TIP3    H224929   4.677   4.116   8.137 -2.3432  0.4300  0.5652
 1124TIP3   OH224930   5.078   3.814   0.762 -0.3568 -0.2171 -0.1143
 1124TIP3    H124931   5.093   3.750   0.691 -0.1511  0.5684 -0.7989
 1124TIP3    H224932   4.983   3.827   0.762 -0.3969 -0.5053  0.0085
 1125TIP3   OH224933   5.849   6.507   6.534  0.4292 -0.2811  0.4558
 1125TIP3    H124934   5.885   6.568   6.469 -0.5426  2.1064  2.0492
 1125TIP3    H224935   5.899   6.524   6.614  0.8204 -2.3596  0.7171
 1126TIP3   OH224936   0.380   0.251   0.614 -0.4155 -0.1273 -0.0199
 1126TIP3    H124937   0.416   0.182   0.558  0.8626  0.1631  0.4145
 1126TIP3    H224938   0.401   0.222   0.703 -0.7969  0.3186  0.2174
 1127TIP3   OH224939   5.813   4.747   8.624 -0.0394  0.4089 -0.2285
 1127TIP3    H124940   5.814   4.704   8.710  1.1944  0.7385 -0.0711
 1127TIP3    H224941   5.854   4.832   8.639 -0.0533  0.5771 -1.0993
 1128TIP3   OH224942   4.859   3.948   7.965  0.1852  0.1988  0.0385
 1128TIP3    H124943   4.798   3.914   8.031  0.7722 -1.4428 -0.2313
 1128TIP3    H224944   4.917   3.874   7.945 -0.6386  0.2586 -3.0873
 1129TIP3   OH224945   3.285   3.904   8.666 -0.0066  0.3539 -0.4907
 1129TIP3    H124946   3.364   3.850   8.658 -0.0340 -0.2247  2.1414
 1129TIP3    H224947   3.303   3.961   8.740 -1.8030  0.6574 -0.2486
 1130TIP3   OH224948   1.215   4.873   1.343  0.4018  0.1275 -0.2919
 1130TIP3    H124949   1.168   4.859   1.261 -1.3500 -1.0991  0.8563
 1130TIP3    H224950   1.200   4.965   1.365  1.1130  0.5351 -1.4377
 1131TIP3   OH224951   2.198   0.665   2.029 -0.2610  0.2672  0.2437
 1131TIP3    H124952   2.227   0.751   2.058 -3.0583  0.2523  3.8918
 1131TIP3    H224953   2.254   0.604   2.077  1.2732 -0.0776 -1.8314
 1132TIP3   OH224954   2.551   2.653   0.860 -0.2064 -0.4058 -0.0440
 1132TIP3    H124955   2.537   2.562   0.886 -1.0281 -0.5334 -0.8904
 1132TIP3    H224956   2.551   2.650   0.764 -1.0090  0.6023 -0.0812
 1133TIP3   OH224957   6.479   3.023   7.217  0.0071  0.0045 -0.0933
 1133TIP3    H124958   6.457   2.979   7.134  0.5114 -0.8445  0.2102
 1133TIP3    H224959   6.565   3.061   7.201 -0.1954  0.4294 -0.1790
 1134TIP3   OH224960   5.482   3.303   0.779  0.2923 -0.5488 -0.3244
 1134TIP3    H124961   5.577   3.299   0.791  0.7042  1.0923 -2.5529
 1134TIP3    H224962   5.461   3.222   0.731  0.6385 -0.6559 -0.2999
 1135TIP3   OH224963   4.938   2.514   0.976 -0.2630 -0.5496 -0.0175
 1135TIP3    H124964   4.954   2.603   0.943  0.7530 -0.1210  1.5071
 1135TIP3    H224965   4.915   2.463   0.898 -1.6324  1.1982 -0.8307
 1136TIP3   OH224966   1.347   0.038   1.165 -0.0307 -0.8895  0.1270
 1136TIP3    H124967   1.433   0.015   1.201  0.4447  0.7090  0.0652
 1136TIP3    H224968   1.285  -0.011   1.220  0.9009 -2.3234 -0.0270
 1137TIP3   OH224969   1.121   6.646   8.399 -0.3315  1.0371  0.3231
 1137TIP3    H124970   1.123   6.570   8.341  0.3396  0.0003  1.6556
 1137TIP3    H224971   1.167   6.715   8.351  0.6740  0.0448 -0.1538
 1138TIP3   OH224972   1.205   0.379   7.103  0.5134  1.3520  0.7907
 1138TIP3    H124973   1.164   0.460   7.133 -3.1159  0.2393 -0.6425
 1138TIP3    H224974   1.232   0.396   7.013  3.2778  1.9891  1.6339
 1139TIP3   OH224975   1.011   6.401   0.277  0.0163  0.5087 -0.4222
 1139TIP3    H124976   1.027   6.482   0.228 -1.9420  0.1914 -1.7058
 1139TIP3    H224977   0.928   6.368   0.242 -1.2934  0.0021  2.7976
 1140TIP3   OH224978   5.864   6.302   0.521  0.6009  0.2547 -0.1797
 1140TIP3    H124979   5.861   6.388   0.479  0.3000  0.3749  0.0873
 1140TIP3    H224980   5.927   6.253   0.469  1.8435  1.0728  0.4953
 1141TIP3   OH224981   5.377   6.323   7.241 -0.6169 -0.3109  0.0457
 1141TIP3    H124982   5.327   6.393   7.198 -1.4686  0.6075  2.3911
 1141TIP3    H224983   5.421   6.366   7.314  0.5578 -1.8557  0.3106
 1142TIP3   OH224984   1.677   0.731   0.828  0.3905  0.5224 -0.2910
 1142TIP3    H124985   1.734   0.729   0.905  1.0512 -1.1299 -0.7662
 1142TIP3    H224986   1.591   0.754   0.862  0.6205 -0.3834  0.9826
 1143TIP3   OH224987   4.415   5.587   7.178 -0.2549 -0.0323 -0.5697
 1143TIP3    H124988   4.495   5.629   7.210  0.1710 -2.1867  1.4514
 1143TIP3    H224989   4.424   5.586   7.083  3.7310 -3.0185 -0.3767
 1144TIP3   OH224990   2.531   1.982   2.257  0.1152 -0.0500  0.1698
 1144TIP3    H124991   2.619   2.011   2.283  0.1756 -0.3372  0.2988
 1144TIP3    H224992   2.473   2.053   2.284  0.3009  0.1108  0.1483
 1145TIP3   OH224993   4.428   5.794   6.690  0.5081  0.9487  0.1226
 1145TIP3    H124994   4.513   5.818   6.728  0.3013  0.5312  0.8819
 1145TIP3    H224995   4.449   5.730   6.622  0.7896  0.6852  0.4524
 1146TIP3   OH224996   0.073   4.930   1.431  0.6224 -0.0752 -0.2090
 1146TIP3    H124997   0.094   4.924   1.524 -1.2926 -0.8255  0.2286
 1146TIP3    H224998   0.144   4.884   1.387  1.7516  0.6165  0.8360
 1147TIP3   OH224999   2.859   5.292   7.262  0.2317 -0.5245  0.2439
 1147TIP3    H125000   2.781   5.329   7.302  0.0589 -1.6119  0.9617
 1147TIP3    H225001   2.914   5.368   7.240 -0.8794  0.2276  0.0136
 1148TIP3   OH225002   3.995   5.313   1.918  0.2463  0.1316  0.3661
 1148TIP3    H125003   3.913   5.267   1.903 -1.9404  3.3582  1.4090
 1148TIP3    H225004   4.038   5.265   1.989 -1.7049 -0.5653  1.1296
 1149TIP3   OH225005   2.935   0.493   6.671  0.1007 -0.2883 -1.1709
 1149TIP3    H125006   2.960   0.516   6.761  2.5240 -3.8862 -0.7047
 1149TIP3    H225007   2.856   0.440   6.681 -0.0573 -0.0676 -1.2461
 1150TIP3   OH225008   0.575   6.339   8.281  0.5651 -0.0406  0.4268
 1150TIP3    H125009   0.596   6.389   8.360 -1.9811 -1.5728  2.1987
 1150TIP3    H225010   0.501   6.385   8.242  0.9327 -0.0766 -0.3513
 1151TIP3   OH225011   4.657   1.701   0.757 -0.1233 -0.3364  0.2481
 1151TIP3    H125012   4.738   1.669   0.716 -1.0025 -2.3527 -0.0330
 1151TIP3    H225013   4.598   1.626   0.754 -1.1743  0.3019  2.7408
 1152TIP3   OH225014   6.326   1.779   7.721  0.2513  0.7513  0.0485
 1152TIP3    H125015   6.319   1.753   7.813  1.2811 -2.4398 -0.6424
 1152TIP3    H225016   6.235   1.787   7.691 -0.2123 -1.6319  0.5833
 1153TIP3   OH225017   1.864   6.395   0.172  0.1903  0.6295 -0.3970
 1153TIP3    H125018   1.913   6.461   0.221 -0.3377  0.5373  0.2598
 1153TIP3    H225019   1.863   6.428   0.082 -0.7665  1.9281  0.0673
 1154TIP3   OH225020   3.578   5.955   8.191  0.2194 -0.4480 -0.3581
 1154TIP3    H125021   3.673   5.967   8.186  0.6669 -3.5681 -2.3720
 1154TIP3    H225022   3.543   6.010   8.121  0.3560  1.5023  1.0369
 1155TIP3   OH225023   3.033   4.553   6.608  0.5461  0.0084  0.4483
 1155TIP3    H125024   3.050   4.459   6.600 -0.3932 -0.2448  1.2424
 1155TIP3    H225025   3.096   4.594   6.548  0.1591 -1.1931 -0.8385
 1156TIP3   OH225026   6.307   3.302   7.734  0.3489  0.0967  0.6686
 1156TIP3    H125027   6.332   3.220   7.777  0.2254 -1.2101 -1.6122
 1156TIP3    H225028   6.226   3.282   7.688  0.8618  1.1985 -0.7688
 1157TIP3   OH225029   5.422   6.385   1.185  0.3061  0.0930  0.3309
 1157TIP3    H125030   5.479   6.387   1.108  2.4030  0.0345  1.7836
 1157TIP3    H225031   5.432   6.473   1.223 -0.4623  0.0251  0.6934
 1158TIP3   OH225032   1.198   4.954   6.160 -0.6510 -0.1224 -0.0954
 1158TIP3    H125033   1.232   5.034   6.199  0.8633 -0.1353 -1.2800
 1158TIP3    H225034   1.228   4.884   6.218 -0.9265  0.0557  0.2699
 1159TIP3   OH225035   6.323   6.231   1.476  0.0169 -0.3544  0.1632
 1159TIP3    H125036   6.312   6.270   1.563 -3.6250  0.2352 -0.3996
 1159TIP3    H225037   6.302   6.302   1.415 -3.3201 -2.1282 -0.9781
 1160TIP3   OH225038   2.115   0.755   2.376 -0.1179  0.6646  0.0466
 1160TIP3    H125039   2.200   0.716   2.356 -1.4181 -1.1124 -2.7337
 1160TIP3    H225040   2.078   0.697   2.443  0.7137  1.2995  1.0816
 1161TIP3   OH225041   5.004   0.062   0.666 -0.1875 -0.3311 -0.3694
 1161TIP3    H125042   5.006  -0.005   0.598 -1.8618 -1.6953  0.8219
 1161TIP3    H225043   4.925   0.041   0.717 -1.1350  2.9051 -0.2866
 1162TIP3   OH225044   5.131   5.220   8.723 -0.6496 -0.1390 -0.0942
 1162TIP3    H125045   5.088   5.267   8.651  0.7326  0.8295 -0.3257
 1162TIP3    H225046   5.225   5.236   8.709 -0.2780 -1.1241  1.1208
 1163TIP3   OH225047   2.383   6.212   0.998  0.2405  0.1777  0.3405
 1163TIP3    H125048   2.381   6.216   0.902 -0.4444 -2.3988  0.1690
 1163TIP3    H225049   2.358   6.122   1.018 -1.8833  1.2474  3.0328
 1164TIP3   OH225050   0.836   5.031   7.301  0.3205 -0.4898  0.0741
 1164TIP3    H125051   0.901   5.029   7.230  0.0635  0.0179 -0.1838
 1164TIP3    H225052   0.815   5.124   7.311 -1.7637 -0.7743 -1.1479
 1165TIP3   OH225053   2.901   0.011   7.298 -0.2786  0.0382 -0.3994
 1165TIP3    H125054   2.834  -0.031   7.352  1.0296  0.8568  1.9733
 1165TIP3    H225055   2.963  -0.059   7.278  0.1261  0.0750  0.6668
 1166TIP3   OH225056   0.466   3.898   7.403 -0.2427 -0.1239  0.3060
 1166TIP3    H125057   0.410   3.966   7.365  1.0363  0.6517 -0.2449
 1166TIP3    H225058   0.406   3.825   7.421 -1.1418 -0.0090 -1.9249
 1167TIP3   OH225059   3.150   5.619   1.777 -0.2582 -0.9062 -0.7685
 1167TIP3    H125060   3.233   5.653   1.742 -1.6914  3.0561 -0.8719
 1167TIP3    H225061   3.176   5.571   1.856  2.1422  0.6161 -0.5235
 1168TIP3   OH225062   3.360   1.643   7.476  0.3962 -0.7064 -0.4766
 1168TIP3    H125063   3.373   1.609   7.387  0.8706 -2.0396  0.0898
 1168TIP3    H225064   3.373   1.738   7.467  0.1320 -0.7782 -1.8760
 1169TIP3   OH225065   3.738   5.713   0.532  0.4265  0.7316  0.2104
 1169TIP3    H125066   3.726   5.777   0.462  1.0489 -0.7059 -1.2836
 1169TIP3    H225067   3.810   5.658   0.501  0.5141 -0.1297  1.8719
 1170TIP3   OH225068   5.231   1.273   1.570 -0.1775 -0.2061  0.2417
 1170TIP3    H125069   5.243   1.320   1.652  0.2151  1.4770 -0.7286
 1170TIP3    H225070   5.137   1.277   1.553 -0.3371 -1.0633  0.8761
 1171TIP3   OH225071   3.367   1.958   6.821  0.3020  0.1109 -0.1231
 1171TIP3    H125072   3.386   1.933   6.912 -0.9035 -0.2642  0.0484
 1171TIP3    H225073   3.374   1.876   6.773 -1.2360 -0.1352  0.0227
 1172TIP3   OH225074   2.103   0.319   7.621  0.2029 -0.0593  0.2607
 1172TIP3    H125075   2.039   0.249   7.624 -0.6208  0.7188  1.3583
 1172TIP3    H225076   2.086   0.371   7.699  0.0200  2.0368 -1.1057
 1173TIP3   OH225077   4.747   4.545   8.010  0.4126 -0.2022  0.0754
 1173TIP3    H125078   4.792   4.521   7.929  0.4217 -1.5596  0.4648
 1173TIP3    H225079   4.777   4.634   8.028 -0.3723  0.5211 -1.9371
 1174TIP3   OH225080   2.648   2.264   8.754 -0.3215  0.3457 -0.7996
 1174TIP3    H125081   2.586   2.325   8.715 -2.2296 -1.3751 -0.5986
 1174TIP3    H225082   2.594   2.200   8.800  1.6945  0.0826  1.4269
 1175TIP3   OH225083   5.851   3.275   0.983 -0.8437 -0.4604 -0.4342
 1175TIP3    H125084   5.925   3.230   1.024  0.0203  0.3979 -1.0092
 1175TIP3    H225085   5.774   3.244   1.031 -0.1496 -1.6076 -0.0271
 1176TIP3   OH225086   2.642   2.705   1.506 -0.0364  0.1818  0.0703
 1176TIP3    H125087   2.620   2.614   1.524 -2.3251  0.4151 -1.1212
 1176TIP3    H225088   2.564   2.754   1.535  0.8506  1.6820  0.0011
 1177TIP3   OH225089   5.301   1.044   1.134 -0.3427 -0.1986  0.5121
 1177TIP3    H125090   5.240   0.992   1.082 -1.8005  0.3499  1.6094
 1177TIP3    H225091   5.287   1.014   1.224  0.8908  0.0776  0.8225
 1178TIP3   OH225092   5.114   3.878   1.661 -0.1061  0.1943 -0.0385
 1178TIP3    H125093   5.163   3.950   1.621  0.3489 -0.5925 -0.9219
 1178TIP3    H225094   5.174   3.803   1.658 -0.3761 -0.1095  1.3425
 1179TIP3   OH225095   0.452   5.725   1.557  0.6470 -0.2931  0.6265
 1179TIP3    H125096   0.376   5.722   1.498  0.8753 -0.8753  0.3476
 1179TIP3    H225097   0.415   5.740   1.644  0.0735 -1.8926  0.6959
 1180TIP3   OH225098   3.224   3.145   8.256 -0.3017  0.1909 -0.7697
 1180TIP3    H125099   3.248   3.218   8.313 -1.2178  1.3475 -1.8126
 1180TIP3    H225100   3.170   3.089   8.312  2.0965 -0.8459  0.6622
 1181TIP3   OH225101   4.678   5.887   6.735 -0.2998 -0.1362 -0.4429
 1181TIP3    H125102   4.689   5.973   6.694 -1.7140  1.5631  2.4040
 1181TIP3    H225103   4.743   5.886   6.806 -1.6010 -0.5513  0.7772
 1182TIP3   OH225104   6.338   6.550   1.061 -0.0741 -0.1029  0.2703
 1182TIP3    H125105   6.325   6.478   1.122  0.1030 -0.0253  0.3978
 1182TIP3    H225106   6.261   6.546   1.003  1.0017 -1.8095 -1.1557
 1183TIP3   OH225107   5.984   3.010   7.770  0.2879 -0.0179  0.0140
 1183TIP3    H125108   5.916   3.056   7.820 -0.2119 -0.1115 -0.5664
 1183TIP3    H225109   5.939   2.935   7.732  0.5807  0.2267 -0.8363
 1184TIP3   OH225110   4.528   5.269   8.144 -0.1851  0.6021  0.2060
 1184TIP3    H125111   4.438   5.266   8.112  0.3610 -0.8162 -1.3493
 1184TIP3    H225112   4.581   5.241   8.069  1.1664 -3.0570  2.2811
 1185TIP3   OH225113   1.118   0.917   8.286 -0.3133 -0.5008  0.2868
 1185TIP3    H125114   1.059   0.946   8.216  2.7930 -0.8726 -2.7726
 1185TIP3    H225115   1.105   0.822   8.290  0.8747 -0.7546 -1.2674
 1186TIP3   OH225116   3.265   4.872   1.337 -0.1520 -0.5479 -0.6626
 1186TIP3    H125117   3.315   4.885   1.257  2.9019 -1.2613  0.9779
 1186TIP3    H225118   3.281   4.951   1.389 -1.7656 -0.2635 -0.5392
 1187TIP3   OH225119   5.726   4.301   0.455  0.0857 -0.0729  0.3456
 1187TIP3    H125120   5.780   4.350   0.393  0.4566  0.2308  0.8981
 1187TIP3    H225121   5.657   4.262   0.402 -0.1230  0.9220 -0.1181
 1188TIP3   OH225122   5.690   0.712   6.131 -0.1803 -0.2136  0.1872
 1188TIP3    H125123   5.769   0.729   6.080 -0.9294 -0.8147 -1.2668
 1188TIP3    H225124   5.721   0.670   6.211  1.0164  0.1899 -0.0473
 1189TIP3   OH225125   6.508   5.985   7.033 -0.3622 -0.2635 -0.8383
 1189TIP3    H125126   6.518   5.921   6.963  1.7519 -0.4078 -0.4454
 1189TIP3    H225127   6.542   5.942   7.111 -2.1054  0.1217  0.1958
 1190TIP3   OH225128   1.015   3.276   7.454 -0.7336  0.3014 -0.3185
 1190TIP3    H125129   1.049   3.198   7.497 -0.7662  0.4325 -0.0536
 1190TIP3    H225130   1.094   3.320   7.421 -0.5352  1.1138  1.1512
 1191TIP3   OH225131   3.468   5.004   1.831 -0.1491  0.2131 -0.3535
 1191TIP3    H125132   3.491   5.073   1.893 -0.3835  0.2801 -0.3397
 1191TIP3    H225133   3.479   4.923   1.881 -0.5453  0.2781 -0.1562
 1192TIP3   OH225134   4.335   2.616   0.569  0.1519 -0.6872  0.0198
 1192TIP3    H125135   4.273   2.688   0.580 -0.3599 -1.1837  0.4211
 1192TIP3    H225136   4.414   2.658   0.535  0.4929  0.3293  1.9475
 1193TIP3   OH225137   2.615   5.416   7.357 -0.1008  0.1349  0.3061
 1193TIP3    H125138   2.602   5.380   7.445 -2.3053 -2.0794 -0.8141
 1193TIP3    H225139   2.570   5.501   7.359  0.7396  0.5921  1.5307
 1194TIP3   OH225140   3.898   6.069   0.650  0.0626 -0.2725  0.0280
 1194TIP3    H125141   3.885   6.071   0.745 -0.3502  0.1975 -0.0355
 1194TIP3    H225142   3.931   5.981   0.633  0.5835 -0.2140  0.6603
 1195TIP3   OH225143   4.217   3.703   0.363  0.0808 -0.2218  0.2762
 1195TIP3    H125144   4.302   3.699   0.320 -0.5459  1.4490 -1.2552
 1195TIP3    H225145   4.159   3.654   0.305 -0.5605  1.1296 -0.2706
 1196TIP3   OH225146   0.143   1.858   2.177 -0.2118 -0.3381  0.3946
 1196TIP3    H125147   0.133   1.779   2.229  1.2556 -0.1066  1.0718
 1196TIP3    H225148   0.088   1.923   2.221 -0.9102 -0.7925  0.2087
 1197TIP3   OH225149   0.225   3.338   7.489 -0.1295  0.1708 -0.3260
 1197TIP3    H125150   0.310   3.380   7.478  0.0389 -0.0362  0.1274
 1197TIP3    H225151   0.207   3.296   7.405  0.6673 -0.5963 -0.1248
 1198TIP3   OH225152   4.823   4.545   7.746  0.1578  0.2846  0.1161
 1198TIP3    H125153   4.900   4.602   7.737  1.0780 -0.4985  2.2647
 1198TIP3    H225154   4.748   4.603   7.731  1.1062  1.7062  0.6468
 1199TIP3   OH225155   2.299   5.036   0.076 -0.1945  0.3528  0.1074
 1199TIP3    H125156   2.359   5.005   0.008  2.2399  3.3150  0.7039
 1199TIP3    H225157   2.235   5.089   0.028  0.4531  0.9578 -0.1153
 1200TIP3   OH225158   0.614   6.296   1.240  0.0043  0.1337 -0.4105
 1200TIP3    H125159   0.571   6.301   1.325 -0.6799 -0.8638 -0.6832
 1200TIP3    H225160   0.557   6.345   1.181  2.0064  3.5882  0.2104
 1201TIP3   OH225161   1.510   1.788   0.234 -0.1250  0.0681 -0.7663
 1201TIP3    H125162   1.525   1.697   0.259 -0.1959 -0.0345 -1.0894
 1201TIP3    H225163   1.493   1.784   0.139  0.7549  0.5131 -0.9510
 1202TIP3   OH225164   3.189   1.288   0.759  0.2591 -0.0127 -0.5481
 1202TIP3    H125165   3.153   1.203   0.734 -1.0372  0.5220 -0.5817
 1202TIP3    H225166   3.170   1.295   0.853  1.5764 -0.3193 -0.2359
 1203TIP3   OH225167   2.084   5.470   1.722  0.9728 -0.4907 -0.2129
 1203TIP3    H125168   2.104   5.563   1.719  1.6340 -0.6477 -1.1101
 1203TIP3    H225169   1.993   5.466   1.752  0.5416  0.4953 -1.3178
 1204TIP3   OH225170   1.686   0.194   0.987  0.2999  0.2308  0.1666
 1204TIP3    H125171   1.724   0.125   0.933  1.4466  0.9591  0.0144
 1204TIP3    H225172   1.761   0.238   1.027 -0.4508  0.8361  0.9550
 1205TIP3   OH225173   2.245   6.470   7.891 -0.5801  0.1495 -0.2564
 1205TIP3    H125174   2.271   6.411   7.821 -2.0939  1.2976 -1.8833
 1205TIP3    H225175   2.274   6.427   7.971 -0.0481 -1.9013 -1.4768
 1206TIP3   OH225176   4.205   5.446   0.635  0.1190  0.7002 -0.0011
 1206TIP3    H125177   4.277   5.389   0.662 -0.4360 -0.0502 -0.0576
 1206TIP3    H225178   4.223   5.467   0.544 -0.2825 -0.3895 -0.3526
 1207TIP3   OH225179   0.176   6.628   8.584  0.1615 -0.5174 -0.0077
 1207TIP3    H125180   0.222   6.690   8.529 -0.0486 -1.4070 -1.2317
 1207TIP3    H225181   0.142   6.680   8.657 -1.5845  1.1743 -1.9122
 1208TIP3   OH225182   2.957   4.865   8.632  0.0668  0.0673 -0.3086
 1208TIP3    H125183   2.941   4.947   8.679  0.3801 -0.0132 -0.0597
 1208TIP3    H225184   2.958   4.890   8.540  1.9540  0.6742 -0.1697
 1209TIP3   OH225185   3.101   2.323   7.414  0.2261  0.4204 -0.1800
 1209TIP3    H125186   3.175   2.384   7.409  0.5978 -0.0590 -0.5080
 1209TIP3    H225187   3.024   2.378   7.401  0.5970  0.7195 -1.1762
 1210TIP3   OH225188   4.129   4.920   1.300  1.1681  0.0859  0.6682
 1210TIP3    H125189   4.133   4.971   1.219  2.2821  0.7996  1.1310
 1210TIP3    H225190   4.110   4.985   1.368  0.9254 -0.3921  1.0657
 1211TIP3   OH225191   4.375   0.133   8.422 -0.2595 -0.4054  0.1483
 1211TIP3    H125192   4.297   0.170   8.380  0.2596  1.6169  0.8129
 1211TIP3    H225193   4.437   0.120   8.350 -0.0569  1.2025 -0.0176
 1212TIP3   OH225194   0.162   2.998   1.663 -0.7327  0.1640  0.4160
 1212TIP3    H125195   0.196   3.085   1.642  0.5465  0.2875  2.7301
 1212TIP3    H225196   0.069   3.002   1.638 -0.5233  1.9196 -0.2038
 1213TIP3   OH225197   4.240   4.677   6.963  0.4310 -0.1201 -0.0927
 1213TIP3    H125198   4.216   4.614   6.896 -1.7563  2.6313 -2.0956
 1213TIP3    H225199   4.335   4.666   6.974  0.8349 -0.8576 -3.4834
 1214TIP3   OH225200   3.260   2.632   0.244  0.1351 -0.1824  0.1869
 1214TIP3    H125201   3.267   2.544   0.209  0.0477 -0.5553  1.0815
 1214TIP3    H225202   3.210   2.622   0.325  0.8751  0.5535  0.7588
 1215TIP3   OH225203   2.013   4.961   8.025  0.2444 -0.5299 -0.0697
 1215TIP3    H125204   2.031   4.953   7.931 -2.5886 -1.9875 -0.6117
 1215TIP3    H225205   2.098   4.977   8.064  2.3970 -4.5028 -2.4223
 1216TIP3   OH225206   4.409   2.911   0.544  0.1409  0.4940  0.0174
 1216TIP3    H125207   4.441   2.899   0.634  0.2863 -0.9008 -0.2071
 1216TIP3    H225208   4.316   2.892   0.549  0.5624 -2.0632 -0.5411
 1217TIP3   OH225209   1.277   6.754   7.263  0.0165 -0.2191 -0.2271
 1217TIP3    H125210   1.247   6.819   7.326 -0.2775 -2.0685  1.6317
 1217TIP3    H225211   1.360   6.790   7.230  0.4994  0.5526  1.6732
 1218TIP3   OH225212   1.179   6.361   7.733  0.5170 -0.7349  0.1134
 1218TIP3    H125213   1.239   6.409   7.676  1.0063 -1.2120  0.2223
 1218TIP3    H225214   1.152   6.286   7.681  0.4353 -0.8136  0.2695
 1219TIP3   OH225215   6.035   5.139   0.510  0.3164 -0.3775  0.3582
 1219TIP3    H125216   5.971   5.204   0.480 -0.1863 -1.1151 -0.1819
 1219TIP3    H225217   6.116   5.164   0.466 -0.1750 -0.8535 -0.8394
 1220TIP3   OH225218   6.452   1.259   7.531  0.1712  0.2542 -0.4223
 1220TIP3    H125219   6.480   1.187   7.588  3.9492  1.1704 -0.8230
 1220TIP3    H225220   6.526   1.272   7.471 -1.3151  2.9839 -1.8660
 1221TIP3   OH225221   5.332   4.511   7.823 -0.7786  0.6068  0.4413
 1221TIP3    H125222   5.307   4.603   7.822  1.7089  1.3569 -0.4188
 1221TIP3    H225223   5.400   4.504   7.756 -0.1174 -1.6144  1.2525
 1222TIP3   OH225224   3.533   6.413   8.560 -0.1824 -0.0136 -0.3733
 1222TIP3    H125225   3.477   6.465   8.617 -0.7014 -0.4991 -0.4356
 1222TIP3    H225226   3.493   6.422   8.473 -2.2274 -3.0990  0.1063
 1223TIP3   OH225227   2.405   5.374   2.450 -0.1637 -0.0763  0.0837
 1223TIP3    H125228   2.431   5.313   2.381 -1.8110 -0.6164 -0.1026
 1223TIP3    H225229   2.416   5.325   2.531  0.4845  0.1014  0.1098
 1224TIP3   OH225230   5.665   6.531   8.621  0.0354 -0.1557  0.1614
 1224TIP3    H125231   5.631   6.620   8.629 -1.1336 -0.3120 -2.1224
 1224TIP3    H225232   5.694   6.508   8.709  0.8506  2.6433  0.7206
 1225TIP3   OH225233   2.747   0.704   8.039 -0.3757  0.0396 -0.4232
 1225TIP3    H125234   2.769   0.671   7.952  3.1974  0.9623 -0.0168
 1225TIP3    H225235   2.678   0.645   8.070 -0.1016 -1.7639 -2.9398
 1226TIP3   OH225236   0.957   1.498   7.522  0.2116  0.0944 -0.2260
 1226TIP3    H125237   0.994   1.419   7.482  0.7220  0.1906  0.0478
 1226TIP3    H225238   0.871   1.471   7.553  0.2482 -0.2669 -0.4256
 1227TIP3   OH225239   2.881   5.037   7.689  0.7836  0.2533 -0.3643
 1227TIP3    H125240   2.895   5.019   7.596  0.8145  0.9263 -0.4938
 1227TIP3    H225241   2.828   5.117   7.691 -1.1005 -0.9387  0.1575
 1228TIP3   OH225242   6.270   6.181   2.222 -0.3129  1.2378 -0.6016
 1228TIP3    H125243   6.252   6.145   2.135  1.8738  1.0036 -1.0200
 1228TIP3    H225244   6.258   6.275   2.213 -0.0975  1.2136 -1.1644
 1229TIP3   OH225245   0.491   4.410   8.621 -0.1464  0.2787 -0.6596
 1229TIP3    H125246   0.466   4.485   8.674  1.0448 -0.0328  0.4014
 1229TIP3    H225247   0.587   4.414   8.616  0.0266 -1.5464  0.0759
 1230TIP3   OH225248   1.953   3.090   8.753  0.2062  0.1626 -0.6790
 1230TIP3    H125249   1.871   3.070   8.707 -0.3024 -0.1495  0.3363
 1230TIP3    H225250   1.944   3.181   8.780 -1.1768 -0.6545  2.0514
 1231TIP3   OH225251   2.221   6.185   8.114 -0.4274 -0.0319  0.0946
 1231TIP3    H125252   2.225   6.232   8.197 -0.7663  1.1636 -0.5483
 1231TIP3    H225253   2.128   6.174   8.097 -0.3544 -0.7864  0.1433
 1232TIP3   OH225254   1.874   4.631   8.002  0.5729  0.3178  0.2684
 1232TIP3    H125255   1.859   4.637   8.096  0.3978  0.9012  0.2097
 1232TIP3    H225256   1.967   4.648   7.991  0.5407  0.5365  0.3178
 1233TIP3   OH225257   6.187   3.858   7.921 -0.1484 -0.2855 -0.4549
 1233TIP3    H125258   6.225   3.817   7.999  0.3511  0.0536 -0.5123
 1233TIP3    H225259   6.150   3.785   7.872  1.4206 -0.8057 -0.9395
 1234TIP3   OH225260   0.102   0.333   1.220 -0.0856  0.0645 -0.7891
 1234TIP3    H125261   0.179   0.278   1.201 -1.4089 -1.9492 -0.6188
 1234TIP3    H225262   0.031   0.292   1.172 -1.7382 -0.0860  1.6043
 1235TIP3   OH225263   5.566   2.290   7.817  0.3819  0.4382 -0.2391
 1235TIP3    H125264   5.590   2.351   7.887 -0.0558  0.6954 -0.3107
 1235TIP3    H225265   5.535   2.346   7.746  0.4099  0.1533 -0.4774
 1236TIP3   OH225266   0.709   0.409   6.698  0.0569 -0.3458  0.2234
 1236TIP3    H125267   0.677   0.329   6.740  1.5129 -1.0822 -0.0045
 1236TIP3    H225268   0.638   0.436   6.640 -1.6437  0.1818  2.4017
 1237TIP3   OH225269   6.108   6.788   8.637  0.4971  0.2764  0.8749
 1237TIP3    H125270   6.136   6.864   8.585 -0.8182  0.0329 -0.2335
 1237TIP3    H225271   6.164   6.717   8.605  1.4579  0.6654  1.6343
 1238TIP3   OH225272   5.428   4.846   8.453 -0.4989 -0.4909 -0.5256
 1238TIP3    H125273   5.452   4.802   8.534 -0.3814 -0.0538 -0.3184
 1238TIP3    H225274   5.511   4.858   8.407 -0.5430 -0.5772 -0.6275
 1239TIP3   OH225275   5.667   1.127   8.059 -0.1012 -0.0332  0.0468
 1239TIP3    H125276   5.571   1.128   8.049  0.0075  0.3356 -1.1680
 1239TIP3    H225277   5.684   1.183   8.134 -0.8241  0.2224  0.0304
 1240TIP3   OH225278   4.639   1.007   8.710  0.1910  0.0419  0.3977
 1240TIP3    H125279   4.608   0.922   8.680 -0.8068  0.6792 -0.4735
 1240TIP3    H225280   4.711   0.987   8.770  0.5491 -1.3684 -0.4549
 1241TIP3   OH225281   3.680   6.485   0.596 -0.0859  0.0332 -0.3653
 1241TIP3    H125282   3.586   6.465   0.588 -0.1482  0.5591 -0.9607
 1241TIP3    H225283   3.723   6.421   0.540  0.0352 -1.1372  0.9986
 1242TIP3   OH225284   6.478   6.367   0.809  0.4730 -0.1382 -0.0119
 1242TIP3    H125285   6.503   6.275   0.815  0.2819 -0.5564 -3.7624
 1242TIP3    H225286   6.391   6.371   0.849  0.4844 -1.5872  0.2053
 1243TIP3   OH225287   2.938   2.853   8.097  0.0587 -0.1115 -0.9172
 1243TIP3    H125288   3.031   2.870   8.082 -0.3220  0.7426 -2.5317
 1243TIP3    H225289   2.931   2.757   8.096  0.6743 -0.1749 -2.6554
 1244TIP3   OH225290   3.482   6.401   7.424  0.0253  0.0987 -0.0165
 1244TIP3    H125291   3.404   6.401   7.480 -0.1801  0.4467 -0.2947
 1244TIP3    H225292   3.452   6.364   7.341  0.5953 -1.4502  0.4399
 1245TIP3   OH225293   1.809   5.556   1.681  0.0742  0.4302 -0.1798
 1245TIP3    H125294   1.782   5.597   1.599 -2.2838  1.4352  1.0251
 1245TIP3    H225295   1.743   5.490   1.698  0.3562  0.4545  1.0793
 1246TIP3   OH225296   1.312   1.748   6.666 -0.8207 -0.4004  0.2086
 1246TIP3    H125297   1.370   1.738   6.741 -0.7725  1.6019  0.4849
 1246TIP3    H225298   1.363   1.801   6.604 -2.6067  2.2222  0.8354
 1247TIP3   OH225299   2.100   3.174   0.968  0.5325  0.0581 -0.2577
 1247TIP3    H125300   2.025   3.123   1.002  1.0669 -0.1554  0.6442
 1247TIP3    H225301   2.101   3.253   1.022  1.9017 -0.6650  0.8306
 1248TIP3   OH225302   2.412   6.085   0.054  0.3649 -0.2069 -0.6498
 1248TIP3    H125303   2.466   6.090   0.133 -0.6228  0.3145  0.0094
 1248TIP3    H225304   2.451   6.150  -0.005 -0.2026  0.9896  0.2502
 1249TIP3   OH225305   3.342   0.992   6.209  0.0714  0.1996 -0.1014
 1249TIP3    H125306   3.405   1.053   6.172  0.5907 -0.9840 -1.2478
 1249TIP3    H225307   3.320   0.933   6.137 -0.9264 -0.5521  0.7771
 1250TIP3   OH225308   0.656   0.088   7.091 -0.6699 -0.2501 -0.0811
 1250TIP3    H125309   0.645   0.073   7.185  1.7674 -1.4481  0.0730
 1250TIP3    H225310   0.652   0.001   7.051 -2.0638  0.2710 -1.1852
 1251TIP3   OH225311   2.617   6.774   1.206  0.0405  0.2633  0.2691
 1251TIP3    H125312   2.665   6.806   1.282 -0.2906 -1.2614  1.1532
 1251TIP3    H225313   2.682   6.728   1.153  0.4722  2.0812 -0.9029
 1252TIP3   OH225314   0.454   5.542   8.789  0.2907 -0.1276 -0.1324
 1252TIP3    H125315   0.490   5.521   8.875 -0.2276  0.5296  0.2605
 1252TIP3    H225316   0.364   5.570   8.808 -0.0031 -0.5015 -0.9491
 1253TIP3   OH225317   2.829   6.349   7.275  0.0847  0.3871 -0.2521
 1253TIP3    H125318   2.870   6.329   7.191  2.1402  1.3937  0.4432
 1253TIP3    H225319   2.747   6.300   7.274  1.1960 -1.5797 -1.8181
 1254TIP3   OH225320   2.317   4.242   7.127  0.0338 -0.1908 -0.1713
 1254TIP3    H125321   2.244   4.301   7.146  0.7354  1.1457 -1.3251
 1254TIP3    H225322   2.310   4.172   7.191 -1.5801  0.5111  0.4655
 1255TIP3   OH225323   0.519   0.572   1.627 -0.2298 -0.0305 -0.1313
 1255TIP3    H125324   0.424   0.568   1.639 -0.2510  0.3472 -0.1466
 1255TIP3    H225325   0.544   0.483   1.605 -0.1356 -0.9230  3.0553
 1256TIP3   OH225326   6.271   5.721   7.973  0.3562  0.4544 -0.0403
 1256TIP3    H125327   6.227   5.650   8.020  0.7604  0.7000  0.7448
 1256TIP3    H225328   6.344   5.745   8.030  2.5796 -1.0848 -2.0661
 1257TIP3   OH225329   5.900   4.023   1.495 -0.0359 -0.2608  0.3234
 1257TIP3    H125330   5.908   3.934   1.459  0.9035  0.2068 -0.6755
 1257TIP3    H225331   5.990   4.053   1.506 -0.3468  0.7758  0.1185
 1258TIP3   OH225332   5.310   4.262   7.392  0.3044  0.2097  0.2298
 1258TIP3    H125333   5.362   4.219   7.460  0.1040 -0.7327 -0.1957
 1258TIP3    H225334   5.375   4.290   7.327  0.2259 -2.3747 -1.0843
 1259TIP3   OH225335   1.925   1.581   8.154  0.2960 -0.1700  0.1004
 1259TIP3    H125336   1.932   1.493   8.117 -1.5423  0.3833 -1.7422
 1259TIP3    H225337   1.832   1.592   8.173  0.0573  2.1356 -1.8781
 1260TIP3   OH225338   6.316   0.694   0.820 -0.0897 -0.3160  0.4456
 1260TIP3    H125339   6.230   0.733   0.835  0.6878  1.2082  1.0857
 1260TIP3    H225340   6.367   0.717   0.898  0.4326 -2.6319  0.8575
 1261TIP3   OH225341   4.534   2.280   1.870 -0.0125  0.1019 -0.1038
 1261TIP3    H125342   4.548   2.208   1.809  0.4009 -0.6893  0.9035
 1261TIP3    H225343   4.448   2.315   1.846  0.1747 -0.1313 -1.1861
 1262TIP3   OH225344   0.613   3.114   0.530 -0.2305 -0.0042 -0.1799
 1262TIP3    H125345   0.603   3.021   0.550 -1.7525  0.0006 -0.8582
 1262TIP3    H225346   0.706   3.124   0.510  0.1168 -1.2057  0.7288
 1263TIP3   OH225347   0.866   3.945   0.056  0.1292 -0.6295  0.0005
 1263TIP3    H125348   0.774   3.918   0.059  0.0437 -0.3495 -0.0356
 1263TIP3    H225349   0.874   4.010   0.126  0.2186 -0.4102 -0.2130
 1264TIP3   OH225350   2.777   0.300   7.599 -0.1398 -0.3951  0.3291
 1264TIP3    H125351   2.773   0.325   7.691 -2.9743  0.2042  0.1327
 1264TIP3    H225352   2.812   0.377   7.554 -1.2425  0.3109  0.6418
 1265TIP3   OH225353   6.125   6.065   2.420  0.3328  0.2795  0.0460
 1265TIP3    H125354   6.077   6.135   2.464 -1.7246  0.0356 -1.6362
 1265TIP3    H225355   6.153   6.103   2.337 -1.4212 -0.9629 -1.2121
 1266TIP3   OH225356   2.491   3.711   1.039 -0.4360 -0.2734  0.5650
 1266TIP3    H125357   2.469   3.620   1.062  1.5376 -0.4663  1.8740
 1266TIP3    H225358   2.407   3.749   1.014 -1.2655 -2.5835 -0.5386
 1267TIP3   OH225359   4.556   1.784   7.647 -0.2582 -0.3722  0.5265
 1267TIP3    H125360   4.544   1.805   7.554 -1.2866 -2.2646  0.1862
 1267TIP3    H225361   4.507   1.852   7.693 -0.4563  0.0958 -0.3416
 1268TIP3   OH225362   3.700   0.983   1.516 -0.1775 -0.1086  0.3475
 1268TIP3    H125363   3.756   0.915   1.552 -0.1815  0.0608  0.6772
 1268TIP3    H225364   3.758   1.036   1.462 -0.0506 -0.0235  0.5668
 1269TIP3   OH225365   2.199   4.802   7.360 -0.7052 -0.1591  0.8326
 1269TIP3    H125366   2.235   4.838   7.279 -0.3400 -0.1501  0.9962
 1269TIP3    H225367   2.108   4.834   7.362 -0.5172  0.4011  0.7596
 1270TIP3   OH225368   0.533   0.951   1.256 -0.4163  0.6381 -0.0057
 1270TIP3    H125369   0.460   1.004   1.225  0.1305  1.1728 -0.4120
 1270TIP3    H225370   0.550   0.983   1.344 -2.0013 -0.9131  0.9241
 1271TIP3   OH225371   2.862   1.428   8.686 -0.6246  0.4631 -0.0249
 1271TIP3    H125372   2.922   1.407   8.614 -2.4535 -0.7612 -1.2422
 1271TIP3    H225373   2.899   1.508   8.724  1.4541  0.0783 -1.0758
 1272TIP3   OH225374   2.259   3.689   0.558 -0.0750 -0.6200  0.6683
 1272TIP3    H125375   2.274   3.779   0.530 -1.0675 -0.4202  0.7173
 1272TIP3    H225376   2.345   3.658   0.587  0.7185 -0.4021 -1.3050
 1273TIP3   OH225377   1.570   5.628   0.612 -0.0356 -0.0276  0.0951
 1273TIP3    H125378   1.586   5.712   0.655  0.8571  0.0879 -0.4294
 1273TIP3    H225379   1.648   5.576   0.632 -0.3162 -0.5223 -0.0808
 1274TIP3   OH225380   5.424   1.493   2.106  0.3652  0.5468  0.1323
 1274TIP3    H125381   5.465   1.579   2.112  1.2239  0.0569  1.9259
 1274TIP3    H225382   5.332   1.509   2.127  0.5947  0.9989  0.8557
 1275TIP3   OH225383   3.637   4.258   0.334 -0.4243  0.0402 -0.0472
 1275TIP3    H125384   3.677   4.196   0.273  0.2562  0.0684  0.3563
 1275TIP3    H225385   3.681   4.241   0.418 -1.7606 -0.4123  0.5921
 1276TIP3   OH225386   6.216   0.863   8.066 -0.5654 -0.0904  0.6825
 1276TIP3    H125387   6.304   0.888   8.093 -0.0212 -0.8949 -0.2952
 1276TIP3    H225388   6.229   0.788   8.008 -1.7753  0.6830 -0.6724
 1277TIP3   OH225389   0.212   0.888   8.232  0.1144 -0.3024  0.1255
 1277TIP3    H125390   0.197   0.966   8.286 -2.1103  0.6829 -1.7325
 1277TIP3    H225391   0.161   0.819   8.275  0.2686 -0.1482  0.5618
 1278TIP3   OH225392   2.715   3.150   8.222 -0.0765 -0.6581  0.3788
 1278TIP3    H125393   2.784   3.125   8.161  0.5742 -1.7184  1.4911
 1278TIP3    H225394   2.752   3.220   8.275 -0.6358  0.2525 -0.3943
 1279TIP3   OH225395   0.565   4.682   0.336 -0.4566  0.1915  0.0121
 1279TIP3    H125396   0.538   4.591   0.329  0.7292 -0.0144 -3.7542
 1279TIP3    H225397   0.643   4.689   0.281  0.7508  3.0768  1.8434
 1280TIP3   OH225398   2.850   5.555   0.227 -0.1503  0.3277  0.0997
 1280TIP3    H125399   2.833   5.566   0.134  0.3321  0.6176  0.0421
 1280TIP3    H225400   2.770   5.515   0.262  1.1563 -3.9819 -1.2283
 1281TIP3   OH225401   3.383   1.143   1.814 -0.4796  0.1484 -0.2075
 1281TIP3    H125402   3.434   1.083   1.760 -0.2914  1.8588 -2.0557
 1281TIP3    H225403   3.396   1.113   1.904  2.2160 -0.6036 -0.7825
 1282TIP3   OH225404   6.715   3.256   7.717 -0.3452  0.2194  0.5503
 1282TIP3    H125405   6.781   3.324   7.719  1.1618 -1.1764  0.5838
 1282TIP3    H225406   6.688   3.247   7.809 -0.6389  0.8348  0.5279
 1283TIP3   OH225407   2.075   2.564   8.219 -0.4593 -0.2553  1.1322
 1283TIP3    H125408   2.081   2.483   8.271  0.8028  0.1097  1.5971
 1283TIP3    H225409   2.038   2.536   8.135  0.6775 -1.4584  1.0006
 1284TIP3   OH225410   6.648   1.040   6.990 -0.2008  0.2569  0.1315
 1284TIP3    H125411   6.593   1.041   6.912  0.0398 -0.0904 -0.0465
 1284TIP3    H225412   6.735   1.066   6.958  0.0280 -0.4425  0.1792
 1285TIP3   OH225413   1.537   3.861   0.155 -0.1778  0.4158  0.2405
 1285TIP3    H125414   1.612   3.856   0.213 -0.5572 -0.5662  0.6701
 1285TIP3    H225415   1.466   3.895   0.210 -0.0044  1.5122 -0.2092
 1286TIP3   OH225416   1.036   3.653   0.580  0.3426  0.1888 -0.1788
 1286TIP3    H125417   1.098   3.712   0.622  2.0411 -0.7220 -1.3183
 1286TIP3    H225418   1.021   3.691   0.494  0.3575 -0.3113 -0.4053
 1287TIP3   OH225419   3.320   0.218   1.271 -0.4327  0.1942  0.3990
 1287TIP3    H125420   3.409   0.241   1.246 -0.6818  0.3244 -0.4061
 1287TIP3    H225421   3.283   0.300   1.306 -0.6757  0.5147 -0.5803
 1288TIP3   OH225422   4.611   1.163   0.957  0.0843  0.4643 -0.1412
 1288TIP3    H125423   4.581   1.232   1.017  2.5493  3.1044 -1.7269
 1288TIP3    H225424   4.646   1.096   1.015 -1.0569  1.1672  1.4465
 1289TIP3   OH225425   5.036   6.084   7.359  0.1320  0.0832  0.0069
 1289TIP3    H125426   4.980   6.132   7.298 -1.1490 -0.8036  0.4252
 1289TIP3    H225427   4.977   6.060   7.431  1.2904 -0.0520  0.9457
 1290TIP3   OH225428   5.454   4.624   6.435  0.5898 -0.3304 -0.2878
 1290TIP3    H125429   5.514   4.696   6.454 -0.3399  0.0854  1.2643
 1290TIP3    H225430   5.510   4.553   6.405  1.6856  0.5628 -0.3893
 1291TIP3   OH225431   0.513   6.373   7.214 -0.8492  1.1090  0.1706
 1291TIP3    H125432   0.427   6.413   7.204 -2.0613 -0.7058  2.2623
 1291TIP3    H225433   0.536   6.387   7.306  0.2054 -0.0567  0.1228
 1292TIP3   OH225434   2.776   1.889   8.096  0.4974  0.0669 -0.5447
 1292TIP3    H125435   2.734   1.884   8.182  1.2248 -3.0391 -0.2412
 1292TIP3    H225436   2.847   1.825   8.100  0.8118  0.0992 -3.3617
 1293TIP3   OH225437   1.441   6.191   7.365 -0.3319  0.4182  0.0903
 1293TIP3    H125438   1.409   6.266   7.416  0.0862 -0.2464  1.3618
 1293TIP3    H225439   1.495   6.230   7.297 -1.1204  1.3453 -0.0286
 1294TIP3   OH225440   0.540   6.390   0.141 -0.0410 -0.1076 -0.2014
 1294TIP3    H125441   0.522   6.374   0.048  1.0568  0.5030 -0.5345
 1294TIP3    H225442   0.478   6.334   0.187 -1.4452  0.5045 -1.2896
 1295TIP3   OH225443   4.207   3.363   0.179 -0.5690  0.1991 -0.1814
 1295TIP3    H125444   4.177   3.357   0.269 -2.0969 -0.1307 -0.6760
 1295TIP3    H225445   4.168   3.444   0.146 -3.7451 -1.7455 -1.7501
 1296TIP3   OH225446   0.377   4.350   8.290 -0.1870  0.1944 -0.7169
 1296TIP3    H125447   0.371   4.386   8.378 -0.3250 -0.1206 -0.5941
 1296TIP3    H225448   0.444   4.282   8.296  0.3487  0.6873 -1.0381
 1297TIP3   OH225449   4.220   3.541   1.401  0.0600  0.0961  0.1928
 1297TIP3    H125450   4.155   3.596   1.444  0.1023  0.2250  0.0908
 1297TIP3    H225451   4.229   3.465   1.459 -0.3854 -0.0553  0.0618
 1298TIP3   OH225452   6.731   2.162   0.241  0.2729 -0.5176  0.0448
 1298TIP3    H125453   6.650   2.163   0.190  0.3473  0.0658 -0.0754
 1298TIP3    H225454   6.704   2.189   0.329 -0.3522 -4.1762  1.1588
 1299TIP3   OH225455   0.503   2.550   6.511  0.2714  0.1895 -0.4445
 1299TIP3    H125456   0.595   2.577   6.510 -0.1970  1.9188  0.0507
 1299TIP3    H225457   0.470   2.577   6.596 -0.9185  0.3589 -0.9368
 1300TIP3   OH225458   0.320   5.432   7.653  0.1316  0.4706  0.2352
 1300TIP3    H125459   0.290   5.496   7.717  0.1711  1.5191 -0.7582
 1300TIP3    H225460   0.300   5.347   7.692 -0.6812  1.0983  1.2246
 1301TIP3   OH225461   0.103   1.169   8.150 -0.3537 -0.0450  0.0445
 1301TIP3    H125462   0.046   1.154   8.226  0.2441 -0.6310  0.3907
 1301TIP3    H225463   0.045   1.206   8.083 -1.1129 -0.5191  0.4281
 1302TIP3   OH225464   1.651   5.412   7.811  0.0476  0.2172 -0.6415
 1302TIP3    H125465   1.697   5.349   7.867  1.4835 -1.0560 -3.0704
 1302TIP3    H225466   1.586   5.360   7.765 -1.5595  1.3699  0.2323
 1303TIP3   OH225467   2.244   1.252   0.187  0.7161 -0.0866 -0.1375
 1303TIP3    H125468   2.273   1.226   0.274  0.9374 -3.0115 -0.9854
 1303TIP3    H225469   2.167   1.198   0.170  0.0856  1.1532 -1.3941
 1304TIP3   OH225470   2.412   3.242   0.401  1.0280 -0.1108  0.4693
 1304TIP3    H125471   2.504   3.266   0.390  1.1031 -0.9579 -1.0415
 1304TIP3    H225472   2.396   3.176   0.334 -0.2125 -1.3449  1.9005
 1305TIP3   OH225473   1.213   6.742   8.715  0.1603  0.0260  0.1020
 1305TIP3    H125474   1.166   6.801   8.657  0.2320 -0.6272 -0.6350
 1305TIP3    H225475   1.145   6.699   8.767  0.0703  0.3213  0.2312
 1306TIP3   OH225476   4.295   5.479   2.282  0.0562 -0.3025  0.6559
 1306TIP3    H125477   4.385   5.512   2.283 -0.2530  0.6020 -0.0929
 1306TIP3    H225478   4.242   5.554   2.311 -0.6999  0.0311 -1.4079
 1307TIP3   OH225479   4.951   2.054   6.708  0.2126 -0.1989 -0.4195
 1307TIP3    H125480   4.979   2.000   6.634  0.9222 -0.4563  0.0200
 1307TIP3    H225481   4.972   2.144   6.682  0.8944 -0.3308 -0.3528
 1308TIP3   OH225482   0.326   1.389   1.841  0.2303  0.1089  0.7380
 1308TIP3    H125483   0.377   1.379   1.921  0.9466  0.8397  0.3948
 1308TIP3    H225484   0.301   1.300   1.817 -1.5665  0.0173  2.7364
 1309TIP3   OH225485   2.943   3.174   6.420  0.1298  0.5894 -0.5354
 1309TIP3    H125486   2.992   3.255   6.403  1.4910 -0.2575 -0.8482
 1309TIP3    H225487   3.004   3.104   6.395 -0.5681 -0.5607  0.8672
 1310TIP3   OH225488   6.468   0.047   0.787  0.4004  0.1401  0.0629
 1310TIP3    H125489   6.510  -0.033   0.819  0.0755  1.0284  3.0165
 1310TIP3    H225490   6.532   0.086   0.727  1.0698 -1.6765 -0.4681
 1311TIP3   OH225491   0.124   3.371   8.146 -0.1670 -0.2382  0.1496
 1311TIP3    H125492   0.085   3.445   8.193 -0.2323 -0.0864 -0.1421
 1311TIP3    H225493   0.158   3.314   8.215 -0.2290  0.0028  0.3803
 1312TIP3   OH225494   0.752   1.989   6.886 -0.2074 -0.5012 -0.1826
 1312TIP3    H125495   0.711   2.010   6.802 -2.5165 -2.8847  0.2167
 1312TIP3    H225496   0.832   1.942   6.863 -0.7319 -0.9886 -1.0672
 1313TIP3   OH225497   1.546   3.591   1.796  0.6744 -0.1265  0.1569
 1313TIP3    H125498   1.485   3.576   1.867 -0.6744 -0.6163 -1.0560
 1313TIP3    H225499   1.581   3.504   1.775  1.9788  0.1719  0.9704
 1314TIP3   OH225500   4.666   0.447   0.196 -0.0926 -0.3054  0.3730
 1314TIP3    H125501   4.603   0.375   0.197  1.7401 -2.0399 -0.6329
 1314TIP3    H225502   4.701   0.446   0.107  0.1904  1.6706  0.4321
 1315TIP3   OH225503   4.329   4.612   2.065 -0.3452  0.4375  0.4507
 1315TIP3    H125504   4.311   4.664   2.143  0.9334  0.9144  0.4523
 1315TIP3    H225505   4.424   4.598   2.067 -0.6368 -2.1491  0.5972
 1316TIP3   OH225506   3.813   2.980   7.208  0.1425  0.1638 -0.3572
 1316TIP3    H125507   3.718   2.992   7.207 -0.3458 -2.3442  2.2163
 1316TIP3    H225508   3.825   2.885   7.215  2.7741  0.4812  0.5255
 1317TIP3   OH225509   3.117   3.451   8.638 -0.6262  0.2350 -0.1442
 1317TIP3    H125510   3.133   3.534   8.682 -0.2700  0.6159 -0.9854
 1317TIP3    H225511   3.025   3.432   8.655 -0.3237  0.0163  1.3647
 1318TIP3   OH225512   4.186   6.579   0.973  0.1933 -0.2395 -0.2432
 1318TIP3    H125513   4.260   6.605   1.028  0.0187  0.8090 -0.4727
 1318TIP3    H225514   4.159   6.494   1.006  0.7033 -0.0594  0.6571
 1319TIP3   OH225515   6.227   4.389   7.958  0.2574  0.4409 -0.1654
 1319TIP3    H125516   6.309   4.389   7.909  1.8316  0.0400  2.2789
 1319TIP3    H225517   6.169   4.332   7.908  2.3048 -1.2925 -0.7230
 1320TIP3   OH225518   4.396   5.331   8.486 -0.3691 -0.1578  0.2490
 1320TIP3    H125519   4.448   5.338   8.406 -0.2456 -1.0817  0.2338
 1320TIP3    H225520   4.452   5.283   8.546 -1.4534 -1.8245 -0.0110
 1321TIP3   OH225521   3.025   4.420   1.329 -0.9842 -0.2590 -0.3295
 1321TIP3    H125522   3.061   4.503   1.360 -0.1602 -0.2605 -1.2289
 1321TIP3    H225523   2.964   4.393   1.397  0.8459 -0.3499  1.3836
 1322TIP3   OH225524   5.492   3.257   8.638 -0.2206 -0.5541  0.0463
 1322TIP3    H125525   5.515   3.316   8.566  0.7113 -1.3113 -0.2845
 1322TIP3    H225526   5.576   3.225   8.671 -0.6010  0.0208  1.6971
 1323TIP3   OH225527   1.581   5.674   8.720 -0.1875 -0.4581 -0.3529
 1323TIP3    H125528   1.489   5.672   8.693 -0.3027 -0.9915  0.0747
 1323TIP3    H225529   1.613   5.585   8.706 -0.4362 -0.9652  1.8403
 1324TIP3   OH225530   6.376   4.707   0.318  0.4804  0.3971  0.0054
 1324TIP3    H125531   6.331   4.783   0.354 -1.1870 -0.0031 -1.1114
 1324TIP3    H225532   6.313   4.668   0.257  2.6576  0.2666 -2.3131
 1325TIP3   OH225533   2.552   2.219   7.009 -0.0171  0.0569  0.0267
 1325TIP3    H125534   2.617   2.149   7.009  0.4464  0.4452  1.3425
 1325TIP3    H225535   2.556   2.256   6.921  1.6109  0.1239  0.0995
 1326TIP3   OH225536   6.547   1.151   7.765  0.5064  0.1778  0.0955
 1326TIP3    H125537   6.534   1.064   7.801  0.5899 -0.1145 -0.5798
 1326TIP3    H225538   6.470   1.200   7.792  0.3592 -0.1602  0.2926
 1327TIP3   OH225539   3.835   1.768   1.914 -0.3934 -0.4894 -0.0284
 1327TIP3    H125540   3.927   1.778   1.939 -0.3763 -0.2631 -0.1781
 1327TIP3    H225541   3.787   1.774   1.997 -0.5600  2.9640 -0.2660
 1328TIP3   OH225542   4.530   1.519   1.661 -0.2210  0.0459  0.1622
 1328TIP3    H125543   4.499   1.572   1.587 -2.3475  0.7207  1.4480
 1328TIP3    H225544   4.451   1.500   1.711  1.2998  0.7117  2.9783
 1329TIP3   OH225545   3.808   2.089   8.753 -0.4641 -0.3060 -0.3813
 1329TIP3    H125546   3.782   2.084   8.661 -0.9472 -0.9604 -0.2124
 1329TIP3    H225547   3.866   2.165   8.757 -0.9450  0.1128 -1.1056
 1330TIP3   OH225548   4.411   6.466   0.701  0.0174 -0.1054  0.8161
 1330TIP3    H125549   4.347   6.399   0.728  0.3047 -0.6506  0.1804
 1330TIP3    H225550   4.382   6.546   0.745  0.6658 -1.0060  3.0364
 1331TIP3   OH225551   1.447   1.411   6.906 -0.1685  0.1706  0.0138
 1331TIP3    H125552   1.427   1.330   6.953  2.1254  1.0570  2.7923
 1331TIP3    H225553   1.411   1.480   6.961 -1.3350  1.1575 -1.8777
 1332TIP3   OH225554   2.048   4.363   1.119 -0.5339 -0.6846 -0.1718
 1332TIP3    H125555   1.967   4.369   1.169 -0.6494 -0.4554 -0.3826
 1332TIP3    H225556   2.020   4.375   1.028 -0.2106 -0.1652 -0.2075
 1333TIP3   OH225557   6.243   5.275   0.359  0.0887  0.5506  0.3501
 1333TIP3    H125558   6.249   5.370   0.366  3.0597  0.5453 -0.6020
 1333TIP3    H225559   6.329   5.244   0.388 -1.1783 -1.9639  1.7084
 1334TIP3   OH225560   1.811   0.044   7.097 -0.2806 -0.2605  0.4160
 1334TIP3    H125561   1.836   0.128   7.137  0.0852 -0.3159  0.3065
 1334TIP3    H225562   1.895   0.001   7.078 -0.4388 -0.0992 -0.7072
 1335TIP3   OH225563   5.766   4.666   6.843  0.1570  0.1316  0.2182
 1335TIP3    H125564   5.732   4.624   6.922 -0.9666 -0.2394 -0.4352
 1335TIP3    H225565   5.856   4.688   6.865  0.3507 -1.3625  1.0710
 1336TIP3   OH225566   6.653   4.696   7.640  0.6625  0.0566 -0.1088
 1336TIP3    H125567   6.740   4.678   7.603  1.5505  0.7924  1.5387
 1336TIP3    H225568   6.637   4.788   7.618 -0.1263 -0.3119 -1.1742
 1337TIP3   OH225569   3.952   3.970   1.777  0.0820  0.3580 -0.0228
 1337TIP3    H125570   4.027   3.911   1.770 -1.8300 -2.2110 -0.1257
 1337TIP3    H225571   3.952   3.998   1.868  1.9717  1.6239 -0.3591
 1338TIP3   OH225572   1.405   5.473   1.902 -0.0464 -0.2839 -0.5486
 1338TIP3    H125573   1.355   5.553   1.884  0.6640  0.0683 -1.0152
 1338TIP3    H225574   1.429   5.439   1.816  1.5337  0.2281 -0.3425
 1339TIP3   OH225575   2.518   4.770   6.712  0.3785 -0.1640 -0.0419
 1339TIP3    H125576   2.575   4.846   6.703  0.5345 -0.4810 -2.3817
 1339TIP3    H225577   2.546   4.710   6.642 -0.5732 -1.8342  0.9319
 1340TIP3   OH225578   4.571   0.515   8.316  0.3465 -0.5487 -0.4280
 1340TIP3    H125579   4.602   0.445   8.258  1.5939 -1.9645  1.8407
 1340TIP3    H225580   4.639   0.524   8.382 -1.0186  0.9962  0.8627
 1341TIP3   OH225581   3.751   5.163   1.218  0.3466 -0.5545  0.0480
 1341TIP3    H125582   3.723   5.097   1.281 -0.8951  0.1270  0.2241
 1341TIP3    H225583   3.697   5.147   1.140 -0.1578  0.4002  0.1828
 1342TIP3   OH225584   2.430   2.791   2.267  0.1637 -0.2732 -0.0414
 1342TIP3    H125585   2.504   2.752   2.221  1.5706  1.3602  0.7290
 1342TIP3    H225586   2.376   2.828   2.197 -0.9690 -3.0410 -0.7510
 1343TIP3   OH225587   5.457   4.901   7.215 -0.4155 -0.4070  0.2115
 1343TIP3    H125588   5.544   4.937   7.199 -0.1083 -1.2114 -0.0032
 1343TIP3    H225589   5.406   4.974   7.248  0.4924 -0.0472  0.8487
 1344TIP3   OH225590   4.166   5.766   1.606 -0.2711 -0.1592  0.0788
 1344TIP3    H125591   4.151   5.697   1.542  0.6257 -0.4063  0.1163
 1344TIP3    H225592   4.124   5.734   1.686 -2.6189  0.7704 -0.6980
 1345TIP3   OH225593   5.536   1.200   0.724 -0.1597  0.0669  0.3690
 1345TIP3    H125594   5.455   1.150   0.730 -0.7458  1.0747  1.0343
 1345TIP3    H225595   5.571   1.200   0.814  0.3094  0.0816  0.1915
 1346TIP3   OH225596   4.448   0.313   6.610 -0.3353 -0.0043 -0.6090
 1346TIP3    H125597   4.363   0.268   6.612 -0.5593  0.3626 -1.4193
 1346TIP3    H225598   4.428   0.398   6.572 -0.4215  1.9101  3.1899
 1347TIP3   OH225599   1.484   1.766   6.901 -0.0001  0.5038 -0.6413
 1347TIP3    H125600   1.456   1.855   6.918  1.3192  0.8535 -0.1879
 1347TIP3    H225601   1.429   1.712   6.958  1.8953  1.3708  2.2300
 1348TIP3   OH225602   6.296   4.101   1.717  0.2935  0.6293 -0.1484
 1348TIP3    H125603   6.259   4.147   1.643  0.6144  2.3906  0.7300
 1348TIP3    H225604   6.284   4.161   1.791 -2.8311 -2.2124  1.9828
 1349TIP3   OH225605   4.832   3.973   6.885  0.3014  0.1389  0.4852
 1349TIP3    H125606   4.737   3.975   6.893  0.1675  0.1845 -0.8346
 1349TIP3    H225607   4.858   4.065   6.879  0.1810  0.0947 -1.3068
 1350TIP3   OH225608   5.768   5.996   7.572 -0.9264  0.4019 -0.7932
 1350TIP3    H125609   5.731   6.027   7.654  0.8939  0.6822 -0.0203
 1350TIP3    H225610   5.787   6.077   7.523  0.0802  0.3530 -0.5042
 1351TIP3   OH225611   0.896   1.983   1.587 -0.4509  0.8667  0.1465
 1351TIP3    H125612   0.880   2.010   1.677 -2.3504  2.5780 -0.6389
 1351TIP3    H225613   0.809   1.979   1.547  0.3007 -0.3410 -1.5031
 1352TIP3   OH225614   2.868   0.016   0.897  0.3694  0.4790 -0.3172
 1352TIP3    H125615   2.799  -0.044   0.926  1.8623  0.0125  2.6419
 1352TIP3    H225616   2.865   0.088   0.960  2.0326  0.8626 -0.6521
 1353TIP3   OH225617   3.369   6.172   0.532  0.7508 -0.0282 -0.1213
 1353TIP3    H125618   3.364   6.145   0.624  0.4828  0.1375 -0.0886
 1353TIP3    H225619   3.448   6.128   0.500  1.1856  0.3857  0.3436
 1354TIP3   OH225620   1.649   2.276   0.733 -0.3221 -0.1707  0.2387
 1354TIP3    H125621   1.568   2.229   0.754 -0.1318 -1.5007 -1.8287
 1354TIP3    H225622   1.651   2.280   0.638  2.9421 -1.8357  0.1197
 1355TIP3   OH225623   3.043   5.148   8.183  1.6833  0.1503 -0.0150
 1355TIP3    H125624   3.089   5.069   8.157  0.5378 -0.3940 -0.4949
 1355TIP3    H225625   2.976   5.160   8.115  1.3127  1.0738  0.4833
 1356TIP3   OH225626   6.166   5.588   0.960 -0.4630  0.4301 -0.3733
 1356TIP3    H125627   6.166   5.492   0.959  0.9605  0.3827 -2.5217
 1356TIP3    H225628   6.258   5.612   0.969 -0.7981  1.6127  0.0743
 1357TIP3   OH225629   1.909   3.031   7.676  0.1734 -0.1323 -0.1266
 1357TIP3    H125630   1.819   3.043   7.646 -0.2129 -0.6016  0.7898
 1357TIP3    H225631   1.962   3.082   7.615 -0.6018 -0.7274 -1.3383
 1358TIP3   OH225632   3.654   2.001   7.038 -0.3957 -0.4339 -0.4947
 1358TIP3    H125633   3.734   1.961   7.002  0.2009 -1.4059  1.7595
 1358TIP3    H225634   3.653   2.089   7.001  0.9526 -0.8747 -1.6791
 1359TIP3   OH225635   1.535   1.707   8.490 -0.2236  0.0275  0.2147
 1359TIP3    H125636   1.492   1.630   8.526 -0.9136  0.3479  0.0808
 1359TIP3    H225637   1.590   1.739   8.562  1.0382 -1.2953 -0.1204
 1360TIP3   OH225638   0.365   5.795   0.564 -0.6132 -0.5534 -0.4798
 1360TIP3    H125639   0.384   5.784   0.657  2.1963 -0.8613 -0.9999
 1360TIP3    H225640   0.443   5.838   0.529 -1.6361 -0.3827 -2.6975
 1361TIP3   OH225641   3.110   5.494   1.241  0.9492 -0.5397 -0.1856
 1361TIP3    H125642   3.138   5.427   1.180 -0.3166 -1.6248  0.3815
 1361TIP3    H225643   3.101   5.573   1.187 -2.8264 -2.0371 -2.1738
 1362TIP3   OH225644   1.337   3.166   0.991  0.3095  0.6578 -0.6594
 1362TIP3    H125645   1.340   3.175   1.086 -0.0356  1.1898 -0.6945
 1362TIP3    H225646   1.272   3.098   0.975  0.5102  0.4306 -0.5076
 1363TIP3   OH225647   1.409   1.786   8.073 -0.2508 -0.0553 -0.0709
 1363TIP3    H125648   1.370   1.870   8.049 -0.6429 -0.2017  0.0538
 1363TIP3    H225649   1.472   1.807   8.142 -0.0704  0.1881 -0.3082
 1364TIP3   OH225650   5.807   0.167   0.940  0.1918 -0.0911 -0.2439
 1364TIP3    H125651   5.853   0.244   0.907 -1.2911  0.1633 -1.8665
 1364TIP3    H225652   5.775   0.193   1.027  1.0334  0.5481 -0.1130
 1365TIP3   OH225653   2.494   0.449   7.791 -0.0686 -0.3905  0.2655
 1365TIP3    H125654   2.562   0.458   7.859  1.7939  0.7474 -1.6490
 1365TIP3    H225655   2.417   0.492   7.829  1.2333  1.1844  1.2610
 1366TIP3   OH225656   2.973   2.538   2.305  0.3812 -0.1164 -0.0212
 1366TIP3    H125657   2.961   2.443   2.312  1.1117 -0.2712 -0.7732
 1366TIP3    H225658   3.067   2.551   2.309  0.4203  0.3941 -1.8936
 1367TIP3   OH225659   6.108   5.114   1.742  0.0333 -0.4258 -0.7270
 1367TIP3    H125660   6.199   5.091   1.723  0.7661  0.4322  1.4444
 1367TIP3    H225661   6.109   5.208   1.761 -1.2975 -0.4047 -0.6127
 1368TIP3   OH225662   5.442   2.677   0.691  0.1822  0.0005 -0.1325
 1368TIP3    H125663   5.431   2.591   0.649  1.0486 -0.6307  0.8782
 1368TIP3    H225664   5.442   2.657   0.785 -0.5852  1.2426  0.1462
 1369TIP3   OH225665   0.255   4.242   1.369  0.6748  0.1306  0.1973
 1369TIP3    H125666   0.196   4.204   1.305  1.0282 -0.0181 -0.0454
 1369TIP3    H225667   0.320   4.290   1.317  0.1815  1.1519  0.5056
 1370TIP3   OH225668   5.149   2.273   8.173  0.9938  0.0392  0.1940
 1370TIP3    H125669   5.076   2.239   8.120  0.7962  0.7396  0.0082
 1370TIP3    H225670   5.178   2.351   8.127  1.5534  0.0315  0.5282
 1371TIP3   OH225671   0.935   3.540   1.990 -0.1352 -0.4024  0.2887
 1371TIP3    H125672   0.920   3.500   1.905  0.3575 -0.0851  0.0500
 1371TIP3    H225673   1.019   3.586   1.981 -0.6212  0.5769  0.5918
 1372TIP3   OH225674   0.714   5.224   7.678 -0.4353 -0.3031  0.3978
 1372TIP3    H125675   0.723   5.134   7.709 -0.0030 -0.5253 -0.3397
 1372TIP3    H225676   0.804   5.255   7.670 -0.4771 -0.5705 -1.5035
 1373TIP3   OH225677   2.152   3.450   0.955 -0.4158  0.0026 -0.0080
 1373TIP3    H125678   2.157   3.521   0.891 -0.5908  0.4599  0.4803
 1373TIP3    H225679   2.225   3.468   1.015 -0.4042 -0.2831  0.0618
 1374TIP3   OH225680   6.569   2.925   0.262  0.3082  0.0690  0.3503
 1374TIP3    H125681   6.494   2.971   0.299 -1.8403 -0.9027 -2.4017
 1374TIP3    H225682   6.619   2.993   0.217  0.1517  0.4894  0.8044
 1375TIP3   OH225683   5.268   6.306   0.136  0.4810  0.0674 -0.1209
 1375TIP3    H125684   5.300   6.381   0.186  0.3487  0.7755 -1.0704
 1375TIP3    H225685   5.173   6.307   0.149  0.4834  0.0400 -0.1001
 1376TIP3   OH225686   0.721   5.953   1.852 -0.2699  0.4586 -1.1471
 1376TIP3    H125687   0.792   5.890   1.856 -1.1157 -0.5022 -0.9332
 1376TIP3    H225688   0.753   6.029   1.901  0.9239  0.3781 -1.7726
 1377TIP3   OH225689   2.957   4.971   8.384  0.0847 -0.2704  0.2748
 1377TIP3    H125690   3.009   5.045   8.353  0.1662 -0.4416 -0.0115
 1377TIP3    H225691   2.882   4.967   8.324 -0.0548 -0.2598  0.4480
 1378TIP3   OH225692   2.682   2.200   1.378  0.2626  0.5265  0.4693
 1378TIP3    H125693   2.592   2.166   1.376  0.5639 -0.2560 -0.2749
 1378TIP3    H225694   2.717   2.170   1.462  0.1981 -0.1740  0.2568
 1379TIP3   OH225695   5.372   0.983   0.730  0.1837  0.1541 -0.0734
 1379TIP3    H125696   5.430   0.916   0.694 -0.0877 -0.8545  1.2519
 1379TIP3    H225697   5.287   0.966   0.688 -0.4872 -1.8974  1.8718
 1380TIP3   OH225698   5.660   6.782   2.366  0.2733 -0.6508 -0.0995
 1380TIP3    H125699   5.583   6.742   2.406 -0.4187  1.2321  0.5596
 1380TIP3    H225700   5.683   6.854   2.424  3.1818 -1.7148  0.2606
 1381TIP3   OH225701   1.881   0.845   1.049 -0.5657 -0.1664 -0.0651
 1381TIP3    H125702   1.821   0.907   1.092 -0.4018  1.4546 -2.0284
 1381TIP3    H225703   1.967   0.866   1.086 -0.5603  0.6086 -0.4889
 1382TIP3   OH225704   1.933   0.199   1.510 -0.1831 -0.2863  0.1173
 1382TIP3    H125705   2.026   0.181   1.495  0.1056  0.3568  1.0055
 1382TIP3    H225706   1.893   0.112   1.521  0.2676 -0.5745 -0.4975
 1383TIP3   OH225707   0.892   5.337   8.565 -0.2376  0.2399 -0.0966
 1383TIP3    H125708   0.941   5.389   8.629  0.6633 -0.8643  0.1414
 1383TIP3    H225709   0.933   5.251   8.568 -2.2405 -0.7582  0.1561
 1384TIP3   OH225710   3.451   0.378   7.817 -0.0464 -0.6577  0.4313
 1384TIP3    H125711   3.417   0.335   7.739 -0.5251  0.0623  0.2271
 1384TIP3    H225712   3.478   0.465   7.786 -2.2886  0.4855  1.4330
 1385TIP3   OH225713   3.933   0.547   0.945 -0.6967 -0.0800 -0.5726
 1385TIP3    H125714   3.995   0.594   1.001 -1.5677  0.0056  0.3419
 1385TIP3    H225715   3.853   0.542   0.997 -1.1144 -1.1774 -1.2958
 1386TIP3   OH225716   1.149   4.204   8.825 -0.3687  0.2637  0.5066
 1386TIP3    H125717   1.166   4.289   8.866 -0.1784  0.3823  0.1971
 1386TIP3    H225718   1.079   4.222   8.761  1.4112  0.8036 -1.4258
 1387TIP3   OH225719   1.195   2.062   6.583  0.6537 -0.1650  0.1961
 1387TIP3    H125720   1.240   1.985   6.618  1.3602  0.4517  0.6835
 1387TIP3    H225721   1.261   2.131   6.587  0.1098  0.3992 -0.4868
 1388TIP3   OH225722   2.115   4.694   7.616 -0.0851  0.4994  0.0454
 1388TIP3    H125723   2.133   4.767   7.676  4.8503  0.0595 -0.4863
 1388TIP3    H225724   2.147   4.725   7.531 -1.4448 -1.0171 -1.0952
 1389TIP3   OH225725   6.318   6.696   7.435  0.2320 -0.4473 -0.6840
 1389TIP3    H125726   6.394   6.645   7.408  2.3980  0.8544  2.3587
 1389TIP3    H225727   6.280   6.646   7.508  0.9327  0.9726  0.7248
 1390TIP3   OH225728   4.653   4.248   8.007  0.2886  0.0502 -0.0623
 1390TIP3    H125729   4.584   4.314   8.002 -0.2478 -0.4926  0.1710
 1390TIP3    H225730   4.680   4.234   7.916  0.4510  0.6358 -0.1078
 1391TIP3   OH225731   5.974   0.940   6.252  0.3207 -0.0516  0.4525
 1391TIP3    H125732   5.918   1.001   6.299 -1.2530 -0.9234 -0.2408
 1391TIP3    H225733   5.997   0.873   6.316  0.9454  0.5316  0.8499
 1392TIP3   OH225734   1.137   3.134   8.234 -0.2716  0.5523  0.5849
 1392TIP3    H125735   1.225   3.170   8.239  0.0439  0.2920 -2.0477
 1392TIP3    H225736   1.131   3.077   8.311  2.8589 -1.4868 -0.4969
 1393TIP3   OH225737   4.952   0.551   8.302 -0.0317 -0.3902 -0.4615
 1393TIP3    H125738   4.878   0.594   8.344 -0.3620 -0.0112 -1.3958
 1393TIP3    H225739   4.978   0.482   8.363  0.6002  1.1924  1.1337
 1394TIP3   OH225740   0.216   3.708   2.707  0.2433 -0.3111 -0.2160
 1394TIP3    H125741   0.299   3.662   2.696  0.5267  0.3329 -0.8765
 1394TIP3    H225742   0.239   3.792   2.744 -0.3392 -0.8999  1.5783
 1395TIP3   OH225743   2.745   4.942   8.167  0.0406 -0.4942 -0.1987
 1395TIP3    H125744   2.808   4.897   8.111  0.6695  1.2208 -0.9690
 1395TIP3    H225745   2.670   4.958   8.111  0.3340  0.4828 -0.3413
 1396TIP3   OH225746   1.839   1.032   1.415 -0.2811  0.0710  0.0824
 1396TIP3    H125747   1.787   1.051   1.337  0.2785  2.7101  0.2609
 1396TIP3    H225748   1.794   1.078   1.486  1.1390  0.7170  0.6159
 1397TIP3   OH225749   3.684   1.031   8.473 -0.4872  0.2355 -0.1469
 1397TIP3    H125750   3.652   1.017   8.561  0.2545  0.2591  0.1347
 1397TIP3    H225751   3.653   0.955   8.423  2.1509 -1.7398  0.9926
 1398TIP3   OH225752   3.236   3.822   7.949  0.5810  0.1658  0.4547
 1398TIP3    H125753   3.143   3.798   7.957  0.8420 -0.8774  0.4781
 1398TIP3    H225754   3.263   3.786   7.865  1.0918 -0.0014  0.6839
 1399TIP3   OH225755   3.290   3.691   7.161  0.4128 -0.1578  0.3532
 1399TIP3    H125756   3.246   3.768   7.197  0.8579 -0.6397  2.0765
 1399TIP3    H225757   3.341   3.657   7.235 -0.1516 -2.3940 -0.2089
 1400TIP3   OH225758   2.798   1.254   0.067 -0.9996 -0.0482  0.1180
 1400TIP3    H125759   2.712   1.219   0.090 -1.1675  2.1572  3.5796
 1400TIP3    H225760   2.778   1.335   0.019 -0.7869 -0.6092 -0.9320
 1401TIP3   OH225761   3.392   6.747   7.014  0.5926  0.2062  0.9560
 1401TIP3    H125762   3.357   6.669   7.056  0.3517  0.7528  1.8123
 1401TIP3    H225763   3.406   6.722   6.923  0.3706 -0.7783  1.1841
 1402TIP3   OH225764   3.549   3.581   6.399 -0.8363 -0.4065  0.2426
 1402TIP3    H125765   3.542   3.499   6.449 -2.7725 -0.5317 -0.1885
 1402TIP3    H225766   3.459   3.605   6.378 -0.2795  1.6333 -0.0175
 1403TIP3   OH225767   3.499   0.431   6.660 -0.4540  0.1799 -0.2053
 1403TIP3    H125768   3.479   0.486   6.583 -1.1548 -0.1658 -0.2756
 1403TIP3    H225769   3.594   0.431   6.664 -0.3800 -0.2796 -1.4331
 1404TIP3   OH225770   2.873   4.739   6.764  0.3751  0.2001 -0.2634
 1404TIP3    H125771   2.851   4.795   6.690  2.6489  1.0018 -0.4073
 1404TIP3    H225772   2.912   4.661   6.725 -2.5246 -1.4865 -0.0510
 1405TIP3   OH225773   0.835   2.795   0.414 -0.6700 -0.4458 -0.2459
 1405TIP3    H125774   0.859   2.808   0.322 -0.1482  1.8258  0.1431
 1405TIP3    H225775   0.914   2.762   0.455 -0.1406  0.7935 -0.2088
 1406TIP3   OH225776   1.686   4.332   8.299  0.5571 -0.7079  0.0674
 1406TIP3    H125777   1.671   4.387   8.375 -0.5989 -0.8748 -0.0242
 1406TIP3    H225778   1.725   4.252   8.335 -0.4882 -1.0085  0.5645
 1407TIP3   OH225779   5.146   3.125   0.851 -0.5426 -0.5602  0.1797
 1407TIP3    H125780   5.232   3.095   0.880 -0.3774  1.5213  2.1089
 1407TIP3    H225781   5.155   3.135   0.756  0.6479 -2.3464  0.0452
 1408TIP3   OH225782   6.283   4.359   0.076 -0.2971 -0.4094  0.2901
 1408TIP3    H125783   6.319   4.316   0.153  0.9725  0.3293  0.1486
 1408TIP3    H225784   6.319   4.310   0.002  1.5292  1.0756  0.1168
 1409TIP3   OH225785   3.678   2.943   7.931 -0.0787 -0.5342  0.0518
 1409TIP3    H125786   3.585   2.924   7.918  0.1343 -0.1405 -2.9168
 1409TIP3    H225787   3.724   2.864   7.902  0.5621 -0.9152  1.9619
 1410TIP3   OH225788   6.654   3.392   6.400 -0.6444  0.4845 -0.0181
 1410TIP3    H125789   6.560   3.392   6.419 -0.9093  1.2771 -1.2185
 1410TIP3    H225790   6.661   3.434   6.314  0.6381 -1.3769 -0.8682
 1411TIP3   OH225791   3.459   5.866   7.814 -0.2893  0.2239  0.3116
 1411TIP3    H125792   3.426   5.853   7.903  0.8843 -2.2559  0.4585
 1411TIP3    H225793   3.381   5.876   7.760 -1.0521  0.5297  1.4313
 1412TIP3   OH225794   2.631   4.455   6.946 -0.1546  0.0757 -0.3729
 1412TIP3    H125795   2.648   4.474   6.854  1.7041  3.0518  0.4363
 1412TIP3    H225796   2.569   4.523   6.973 -0.5161 -0.6269  0.6503
 1413TIP3   OH225797   4.029   3.562   0.217 -0.2114  0.1558  0.4730
 1413TIP3    H125798   4.012   3.623   0.145  0.9044 -0.9338 -0.7575
 1413TIP3    H225799   3.947   3.514   0.227 -0.5865  0.7621  0.3914
 1414TIP3   OH225800   2.526   5.714   7.246  0.2698 -0.6357  0.2388
 1414TIP3    H125801   2.574   5.641   7.206 -0.6982 -0.7021 -0.8626
 1414TIP3    H225802   2.482   5.757   7.172 -0.1398  0.3318  1.0272
 1415TIP3   OH225803   2.779   5.592   7.789  0.6659 -0.1085  0.0472
 1415TIP3    H125804   2.713   5.653   7.755 -0.7462 -1.4938  0.1563
 1415TIP3    H225805   2.742   5.561   7.871  0.8997 -1.7955 -0.4527
 1416TIP3   OH225806   3.431   2.071   8.148 -0.8296 -0.3266 -0.2825
 1416TIP3    H125807   3.407   2.124   8.224  0.3458  1.7389 -1.2711
 1416TIP3    H225808   3.526   2.072   8.147 -0.6795 -3.6662  0.3965
 1417TIP3   OH225809   2.825   2.943   6.560 -0.1827 -0.0069  0.3883
 1417TIP3    H125810   2.816   2.848   6.547  0.3714  0.1094 -1.0784
 1417TIP3    H225811   2.896   2.968   6.501 -0.8102  1.4307  0.2043
 1418TIP3   OH225812   5.261   5.651   6.761 -0.1535 -0.3029 -0.2528
 1418TIP3    H125813   5.188   5.651   6.699 -0.1828  1.9190 -0.2794
 1418TIP3    H225814   5.221   5.671   6.846  0.4425  1.4173 -0.3475
 1419TIP3   OH225815   4.319   3.130   7.594  0.1579  0.1145 -0.0532
 1419TIP3    H125816   4.317   3.201   7.530 -0.2522  0.6134  0.5038
 1419TIP3    H225817   4.235   3.135   7.639  0.2934 -0.4590  0.2774
 1420TIP3   OH225818   0.098   1.995   7.499 -0.0303 -0.5472  0.3205
 1420TIP3    H125819   0.064   2.034   7.579  1.3498  0.0970  0.6265
 1420TIP3    H225820   0.090   2.064   7.433  0.6632 -0.3883  0.3974
 1421TIP3   OH225821   2.227   0.575   8.805 -0.1244  0.2776  0.5533
 1421TIP3    H125822   2.150   0.520   8.788 -0.1152  0.3912  0.1180
 1421TIP3    H225823   2.240   0.623   8.723 -0.0648  0.8465  0.8872
 1422TIP3   OH225824   1.559   6.393   7.843 -1.1004 -0.1229  0.3711
 1422TIP3    H125825   1.511   6.321   7.801 -3.4602  1.1822  0.6289
 1422TIP3    H225826   1.536   6.470   7.790  1.0408  0.5408  0.3298
 1423TIP3   OH225827   4.967   4.600   1.958 -0.6854 -0.4154  0.2595
 1423TIP3    H125828   4.891   4.653   1.981 -0.0379  1.2268 -1.2101
 1423TIP3    H225829   5.040   4.662   1.957  0.3769 -1.6346 -0.0241
 1424TIP3   OH225830   0.531   3.060   1.647  0.5736  0.0697 -0.0446
 1424TIP3    H125831   0.565   3.069   1.737 -0.6053  0.0390  0.4225
 1424TIP3    H225832   0.516   2.966   1.636 -4.1436  0.3485  1.6849
 1425TIP3   OH225833   4.639   1.896   8.014  0.1082 -0.1385 -0.5968
 1425TIP3    H125834   4.712   1.948   7.980 -1.1603  1.6971 -0.6670
 1425TIP3    H225835   4.598   1.953   8.079 -1.2140 -1.1625 -0.4944
 1426TIP3   OH225836   0.315   4.572   6.262 -0.0325  0.4201 -0.5670
 1426TIP3    H125837   0.346   4.482   6.257 -0.2299  0.3831 -1.1855
 1426TIP3    H225838   0.391   4.625   6.236  1.2555  0.7012  3.1159
 1427TIP3   OH225839   4.788   2.129   8.380  0.2447  0.0167  0.0136
 1427TIP3    H125840   4.708   2.079   8.399  1.0101 -0.4091  2.6320
 1427TIP3    H225841   4.758   2.206   8.332 -1.6194 -0.5900  0.1106
 1428TIP3   OH225842   4.252   1.216   0.185 -0.1007 -0.2161 -0.1904
 1428TIP3    H125843   4.332   1.198   0.135  0.8382  0.4954  0.9711
 1428TIP3    H225844   4.240   1.138   0.239 -0.1007 -0.2576 -0.2494
 1429TIP3   OH225845   6.613   3.778   7.366  0.2499 -0.0631 -0.0509
 1429TIP3    H125846   6.598   3.746   7.278 -1.0120 -1.3959  0.6116
 1429TIP3    H225847   6.542   3.741   7.418  1.4232 -0.0072  1.6864
 1430TIP3   OH225848   5.593   2.363   1.667 -0.3593  0.1404 -0.0894
 1430TIP3    H125849   5.579   2.447   1.623 -2.1785  0.1191  0.3948
 1430TIP3    H225850   5.662   2.381   1.731 -2.3297  1.9519  1.6753
 1431TIP3   OH225851   3.967   5.130   0.856  0.3133 -0.2112 -0.0421
 1431TIP3    H125852   3.913   5.075   0.798 -0.6989 -0.1850  0.8500
 1431TIP3    H225853   3.942   5.220   0.834 -0.2078 -0.2056  0.5413
 1432TIP3   OH225854   3.144   1.230   7.108 -0.0018 -0.3130 -0.4195
 1432TIP3    H125855   3.220   1.172   7.111  0.1637 -0.2640 -2.4582
 1432TIP3    H225856   3.075   1.182   7.154  1.2599 -0.2322  1.7372
 1433TIP3   OH225857   2.252   4.815   0.265 -0.2418 -0.5322  0.1901
 1433TIP3    H125858   2.302   4.832   0.185  1.3655 -0.7709  1.1052
 1433TIP3    H225859   2.232   4.902   0.300 -0.0278 -0.4373  0.0771
 1434TIP3   OH225860   6.597   6.207   0.360  0.2063  0.2985  0.2196
 1434TIP3    H125861   6.541   6.167   0.426  0.1822  0.4779  0.3085
 1434TIP3    H225862   6.598   6.144   0.288 -0.1991  0.3482  0.1719
 1435TIP3   OH225863   3.289   4.120   1.422  0.2486  0.3245 -0.3172
 1435TIP3    H125864   3.350   4.066   1.472  0.1508  0.2195 -0.3098
 1435TIP3    H225865   3.337   4.142   1.342 -0.1677 -0.8827 -0.9335
 1436TIP3   OH225866   2.157   1.496   2.457 -0.0357 -0.0887  0.0238
 1436TIP3    H125867   2.194   1.551   2.526 -1.5717  0.8527  0.1406
 1436TIP3    H225868   2.184   1.538   2.376 -0.5917  0.4598  0.1082
 1437TIP3   OH225869   1.507   4.708   0.692  0.3817 -1.4239  0.9110
 1437TIP3    H125870   1.580   4.656   0.657  0.7690  0.3691 -1.1740
 1437TIP3    H225871   1.550   4.783   0.735 -0.2102 -0.9621  0.7039
 1438TIP3   OH225872   1.094   3.006   7.533 -0.3689 -0.0079  0.5301
 1438TIP3    H125873   1.075   3.041   7.619 -1.8492  3.7638 -1.1177
 1438TIP3    H225874   1.010   2.974   7.501 -0.1387 -0.0645 -0.0364
 1439TIP3   OH225875   0.411   4.577   7.606 -0.2742 -0.5750 -0.7530
 1439TIP3    H125876   0.461   4.628   7.542 -0.9286  0.6577 -0.3183
 1439TIP3    H225877   0.435   4.615   7.691 -0.1679 -1.5349 -0.3400
 1440TIP3   OH225878   2.021   3.911   7.056  0.2245 -0.5131 -0.1168
 1440TIP3    H125879   2.075   3.978   7.012 -0.3302  0.5507  0.7672
 1440TIP3    H225880   1.997   3.850   6.986  0.2034  0.5814 -1.0975
 1441TIP3   OH225881   5.541   5.792   1.209  0.3123 -0.0503 -0.2499
 1441TIP3    H125882   5.616   5.740   1.181  1.4597  2.4940 -2.3218
 1441TIP3    H225883   5.580   5.866   1.256 -1.0925  0.2279  0.5289
 1442TIP3   OH225884   5.289   3.020   8.520 -0.1134  0.0992 -0.2183
 1442TIP3    H125885   5.204   2.999   8.483 -0.1126  0.3217 -0.3491
 1442TIP3    H225886   5.274   3.020   8.615 -0.9030  2.6783 -0.2705
 1443TIP3   OH225887   0.696   5.267   7.341 -0.7525 -0.1550  0.1005
 1443TIP3    H125888   0.643   5.343   7.365 -2.1073 -0.9067 -0.4488
 1443TIP3    H225889   0.633   5.199   7.320  0.3349 -0.2998 -3.2128
 1444TIP3   OH225890   2.957   6.259   6.599 -0.0681  0.3873 -0.4351
 1444TIP3    H125891   3.039   6.276   6.553 -1.1158 -1.3345 -3.2400
 1444TIP3    H225892   2.906   6.207   6.537 -2.9428  0.6363  1.5356
 1445TIP3   OH225893   4.456   5.690   2.295 -0.3429 -0.3748 -0.4210
 1445TIP3    H125894   4.520   5.648   2.352 -0.7905  0.1480  0.5031
 1445TIP3    H225895   4.443   5.777   2.334 -2.4167 -0.8463  0.0932
 1446TIP3   OH225896   0.446   0.191   6.594  0.4233 -0.5765  0.0187
 1446TIP3    H125897   0.533   0.153   6.608  0.6842 -0.0393 -0.1503
 1446TIP3    H225898   0.462   0.280   6.566 -0.1822 -0.5386 -0.2294
 1447TIP3   OH225899   0.026   1.444   8.309 -0.2714  0.3939 -0.4715
 1447TIP3    H125900  -0.040   1.380   8.336 -0.1007  0.3491 -0.1463
 1447TIP3    H225901   0.094   1.391   8.267  0.6985  0.1188  1.3449
 1448TIP3   OH225902   2.518   6.583   7.879 -0.1139 -0.1928  0.1823
 1448TIP3    H125903   2.472   6.567   7.962  0.2565  0.7756  0.5873
 1448TIP3    H225904   2.488   6.670   7.851  2.6365  1.2401  1.3019
 1449TIP3   OH225905   5.311   6.280   8.039  0.3568 -0.4927  0.3155
 1449TIP3    H125906   5.394   6.240   8.012  1.2389  0.4411  1.5306
 1449TIP3    H225907   5.319   6.289   8.134 -0.3020  1.4323  0.2215
 1450TIP3   OH225908   4.231   4.146   8.532  0.4218 -0.8963 -0.4066
 1450TIP3    H125909   4.180   4.069   8.560 -0.1930  0.5772  3.0230
 1450TIP3    H225910   4.321   4.125   8.557  0.3160 -0.6924  0.1656
 1451TIP3   OH225911   2.975   5.909   8.764  0.6464 -0.4757  0.2750
 1451TIP3    H125912   3.001   5.977   8.825 -1.3355  0.4571  0.1737
 1451TIP3    H225913   2.881   5.925   8.749  0.5397 -2.1206 -1.1620
 1452TIP3   OH225914   4.155   0.224   0.575  0.2665  0.1257 -0.1599
 1452TIP3    H125915   4.135   0.175   0.495 -2.8877  2.9112 -1.3295
 1452TIP3    H225916   4.110   0.177   0.645  1.3119 -1.1966 -0.3453
 1453TIP3   OH225917   5.637   1.918   7.157 -0.5038 -0.1405  0.2340
 1453TIP3    H125918   5.726   1.945   7.133 -0.6325 -0.0093 -0.0987
 1453TIP3    H225919   5.597   1.997   7.194 -0.6554 -0.0548 -0.1091
 1454TIP3   OH225920   5.897   1.784   1.730 -0.1103 -0.2788  0.2204
 1454TIP3    H125921   5.804   1.775   1.708 -0.1403  0.3559  0.0579
 1454TIP3    H225922   5.921   1.870   1.696  0.4832 -0.3439  0.4638
 1455TIP3   OH225923   4.705   5.878   7.886  0.4487 -0.9997 -0.6119
 1455TIP3    H125924   4.627   5.823   7.887  0.3412 -0.8572  0.6500
 1455TIP3    H225925   4.719   5.899   7.794 -0.2682 -2.0593 -0.9779
 1456TIP3   OH225926   2.470   3.638   8.473 -0.4531  0.1631 -0.1536
 1456TIP3    H125927   2.463   3.554   8.427 -0.6439  0.2358 -0.2585
 1456TIP3    H225928   2.471   3.704   8.404 -1.7475  0.3343 -0.0316
 1457TIP3   OH225929   5.390   3.644   0.594 -0.4518  0.2201  0.4952
 1457TIP3    H125930   5.295   3.637   0.596 -0.3888 -2.0687 -1.2243
 1457TIP3    H225931   5.420   3.580   0.659 -0.0673  0.5847  0.6829
 1458TIP3   OH225932   2.233   3.584   8.061 -0.1588 -0.1626  0.1178
 1458TIP3    H125933   2.149   3.552   8.029  0.7399 -2.8941  0.2152
 1458TIP3    H225934   2.222   3.589   8.156 -0.5379  0.6269  0.0409
 1459TIP3   OH225935   3.372   3.528   0.398 -0.0319 -0.2690 -0.4858
 1459TIP3    H125936   3.435   3.464   0.431  0.9856  1.2016  0.5641
 1459TIP3    H225937   3.363   3.592   0.469 -1.3275  0.5518 -1.3299
 1460TIP3   OH225938   2.622   1.888   1.190  0.2919  0.0247  0.0616
 1460TIP3    H125939   2.573   1.807   1.204  0.7779  0.0983  2.6865
 1460TIP3    H225940   2.557   1.958   1.202  0.8095  0.1105  3.2065
 1461TIP3   OH225941   2.028   4.364   1.428 -0.0502  0.3209  0.1675
 1461TIP3    H125942   1.996   4.392   1.514  2.5790  0.5900  1.1843
 1461TIP3    H225943   2.052   4.446   1.384  1.3473  0.0739  0.4173
 1462TIP3   OH225944   4.365   4.622   1.516  0.0980  0.3152 -0.1198
 1462TIP3    H125945   4.456   4.633   1.491 -0.3600 -0.9028 -2.6286
 1462TIP3    H225946   4.327   4.569   1.446 -2.0305 -1.1135  1.9577
 1463TIP3   OH225947   4.214   0.543   2.019 -0.1452  0.4997  0.4422
 1463TIP3    H125948   4.293   0.591   2.041 -0.4911  0.4686  1.8351
 1463TIP3    H225949   4.142   0.595   2.056 -0.8777  0.9298 -1.4503
 1464TIP3   OH225950   3.963   0.853   1.915  0.0811  0.0312  0.2014
 1464TIP3    H125951   3.920   0.878   1.998  1.3407  0.5471  0.7260
 1464TIP3    H225952   3.959   0.757   1.914 -0.5233  0.0453  0.5362
 1465TIP3   OH225953   2.682   0.948   1.049  0.6748  0.3746 -0.2295
 1465TIP3    H125954   2.708   0.891   1.122  2.1316  1.1166 -0.1361
 1465TIP3    H225955   2.589   0.966   1.065  0.3500 -1.4064  0.1016
 1466TIP3   OH225956   3.408   4.972   0.822  0.3083  1.1257  0.0671
 1466TIP3    H125957   3.324   4.980   0.776  0.0864  0.1803  0.2890
 1466TIP3    H225958   3.458   4.910   0.769  1.2241  2.3481 -0.5512
 1467TIP3   OH225959   5.232   6.792   0.475  0.0020  0.5130 -0.4110
 1467TIP3    H125960   5.240   6.746   0.558 -2.4068  2.9046  1.3234
 1467TIP3    H225961   5.313   6.844   0.468 -0.1914  1.0327  0.9699
 1468TIP3   OH225962   4.974   5.789   2.415 -0.0154 -0.0889 -0.9066
 1468TIP3    H125963   4.988   5.851   2.487  1.2200 -3.8962  2.5468
 1468TIP3    H225964   5.062   5.774   2.379  0.3940 -2.3449  0.8086
 1469TIP3   OH225965   5.369   0.392   0.426  0.1631  0.2270 -0.1070
 1469TIP3    H125966   5.278   0.370   0.445  0.7372 -0.1324  2.5018
 1469TIP3    H225967   5.416   0.309   0.431  1.2032  0.8866  2.6158
 1470TIP3   OH225968   5.330   3.454   7.216 -0.1220  0.3779  0.7270
 1470TIP3    H125969   5.369   3.533   7.253  0.3341  0.5164 -0.0296
 1470TIP3    H225970   5.305   3.402   7.293 -1.5494  1.7683  1.2503
 1471TIP3   OH225971   0.260   5.165   7.757 -0.3204 -0.4516 -0.5997
 1471TIP3    H125972   0.272   5.072   7.740  0.0533 -0.3774 -0.7638
 1471TIP3    H225973   0.169   5.173   7.786 -0.4392 -0.8281 -0.8563
 1472TIP3   OH225974   1.445   0.295   7.231 -0.5721 -0.0531  0.6659
 1472TIP3    H125975   1.363   0.318   7.187 -0.0861 -0.8786 -0.7533
 1472TIP3    H225976   1.507   0.363   7.204 -0.9504  0.9771  2.3211
 1473TIP3   OH225977   2.946   2.582   8.072  0.3484 -0.0056 -0.3345
 1473TIP3    H125978   2.966   2.494   8.104  1.2861  0.9108  1.8740
 1473TIP3    H225979   2.987   2.587   7.986  2.1099 -1.0513  0.4010
 1474TIP3   OH225980   0.239   1.869   8.173 -0.2151  0.5012 -0.2141
 1474TIP3    H125981   0.218   1.808   8.244  0.9190  0.0265 -0.2628
 1474TIP3    H225982   0.296   1.934   8.213  0.6686  0.0671 -0.7281
 1475TIP3   OH225983   6.467   5.152   7.968 -0.4557 -0.0835 -1.1805
 1475TIP3    H125984   6.383   5.135   7.927 -1.2522  0.2912  0.2139
 1475TIP3    H225985   6.479   5.247   7.959 -0.6646  0.0107 -0.5363
 1476TIP3   OH225986   0.751   3.120   7.999  0.4410 -0.5762 -0.1025
 1476TIP3    H125987   0.752   3.062   7.923  1.6942  0.9204 -1.2964
 1476TIP3    H225988   0.717   3.203   7.967 -0.7185 -0.4181  1.4204
 1477TIP3   OH225989   1.648   1.366   8.039  0.3034 -0.3723 -0.1425
 1477TIP3    H125990   1.658   1.297   8.104  1.4338  1.4004  1.7004
 1477TIP3    H225991   1.566   1.410   8.062 -1.1541 -1.8469 -2.1625
 1478TIP3   OH225992   4.718   5.865   8.505 -0.1214 -0.0543  0.3604
 1478TIP3    H125993   4.764   5.909   8.576  0.5130  0.0209 -0.0924
 1478TIP3    H225994   4.674   5.935   8.457  0.8061  0.0867 -0.3004
 1479TIP3   OH225995   6.176   5.957   0.805  0.4382 -0.1099 -0.0982
 1479TIP3    H125996   6.136   5.975   0.890  0.5970  1.4337 -0.3186
 1479TIP3    H225997   6.240   5.888   0.823  0.2592 -0.0210  0.9693
 1480TIP3   OH225998   3.987   5.343   7.111 -0.5919 -0.3090  0.0583
 1480TIP3    H125999   4.076   5.316   7.130  0.2653  0.5056 -2.4353
 1480TIP3    H226000   3.996   5.423   7.058 -2.7683 -0.2981 -0.4109
 1481TIP3   OH226001   2.397   3.795   7.831 -0.4098 -0.0033 -0.3932
 1481TIP3    H126002   2.318   3.740   7.833 -1.1836  1.0063 -1.7096
 1481TIP3    H226003   2.370   3.873   7.783  1.2275  0.6524 -0.2833
 1482TIP3   OH226004   4.050   2.064   7.663  0.1566 -0.5116 -0.1049
 1482TIP3    H126005   3.975   2.006   7.674  1.0129 -1.5979  0.1622
 1482TIP3    H226006   4.102   2.052   7.742  0.0280  1.1652  0.2924
 1483TIP3   OH226007   3.725   4.005   1.328 -0.7648 -0.0033 -0.3873
 1483TIP3    H126008   3.794   4.053   1.375 -1.3665 -1.0142  1.6223
 1483TIP3    H226009   3.645   4.054   1.347 -0.8060  0.5041 -1.7649
 1484TIP3   OH226010   5.182   1.593   7.141 -0.3536 -0.1326  0.2836
 1484TIP3    H126011   5.138   1.640   7.211  0.5184 -0.7125  1.2552
 1484TIP3    H226012   5.221   1.662   7.086  3.4982  0.4929  3.3159
 1485TIP3   OH226013   1.756   1.605   6.140 -0.0220  0.1929 -0.2589
 1485TIP3    H126014   1.822   1.555   6.188 -1.2850 -1.4891 -0.2198
 1485TIP3    H226015   1.691   1.541   6.113  0.4755  1.0538 -4.0712
 1486TIP3   OH226016   0.838   3.514   0.723  0.3212  0.7037 -0.4339
 1486TIP3    H126017   0.913   3.566   0.694  1.6149 -1.7575 -1.8044
 1486TIP3    H226018   0.792   3.491   0.642 -0.0530 -0.4663  0.0953
 1487TIP3   OH226019   3.612   2.769   8.217 -0.4190  0.2425  0.1395
 1487TIP3    H126020   3.698   2.810   8.231 -0.2095 -0.4604  1.0003
 1487TIP3    H226021   3.550   2.840   8.231 -0.0772  0.2267  2.0419
 1488TIP3   OH226022   4.508   1.373   1.084  0.1097  0.1777 -0.4702
 1488TIP3    H126023   4.431   1.381   1.140 -0.3151 -0.2121 -0.9866
 1488TIP3    H226024   4.579   1.412   1.135 -0.1723 -0.5751  0.5256
 1489TIP3   OH226025   6.637   0.645   0.059  0.3819  0.1373 -0.3312
 1489TIP3    H126026   6.600   0.588   0.126  0.3786 -0.7508 -1.0579
 1489TIP3    H226027   6.662   0.585  -0.012 -1.0173  1.1609 -1.7680
 1490TIP3   OH226028   1.317   4.691   7.747  0.4551 -0.1465 -0.3259
 1490TIP3    H126029   1.300   4.756   7.679  1.3959 -0.4607 -0.8779
 1490TIP3    H226030   1.409   4.668   7.736  0.6364 -0.1830  1.0808
 1491TIP3   OH226031   4.643   1.500   1.297  0.3814 -0.3223 -0.2568
 1491TIP3    H126032   4.571   1.556   1.327  0.0596 -0.9587  0.1689
 1491TIP3    H226033   4.721   1.539   1.336  0.4791  1.2431 -1.8953
 1492TIP3   OH226034   1.602   3.083   7.381 -0.5723 -0.1150  0.0127
 1492TIP3    H126035   1.534   3.093   7.447 -0.9831 -0.4118 -0.3614
 1492TIP3    H226036   1.683   3.103   7.427 -0.8986  0.1065  0.4960
 1493TIP3   OH226037   1.173   1.341   8.807 -0.8796  0.2022  0.4387
 1493TIP3    H126038   1.149   1.430   8.784 -1.0357 -0.1646 -0.9103
 1493TIP3    H226039   1.129   1.286   8.742  0.9234 -0.7011 -0.1041
 1494TIP3   OH226040   1.883   4.047   7.264  0.7491  0.3223  0.0531
 1494TIP3    H126041   1.792   4.050   7.234 -0.3469 -0.8453  2.9157
 1494TIP3    H226042   1.928   3.996   7.197 -1.3355 -1.4523 -0.1193
 1495TIP3   OH226043   6.196   6.454   0.745  0.5072 -0.2657 -0.4080
 1495TIP3    H126044   6.239   6.502   0.674 -0.5931  0.2062 -0.7813
 1495TIP3    H226045   6.174   6.521   0.810 -0.0283 -0.4324 -0.4132
 1496TIP3   OH226046   3.268   4.423   7.561  0.5520 -0.3164  0.4208
 1496TIP3    H126047   3.239   4.445   7.650  1.2689  0.8264  0.3887
 1496TIP3    H226048   3.187   4.401   7.515  0.1032 -0.3436  1.1896
 1497TIP3   OH226049   6.748   6.584   1.691 -0.0583  0.3879  0.1631
 1497TIP3    H126050   6.830   6.548   1.656 -0.3103  0.2141 -0.2542
 1497TIP3    H226051   6.679   6.532   1.649 -0.3406 -1.4432  2.6792
 1498TIP3   OH226052   0.096   2.989   7.235 -0.4521 -0.0083 -0.1937
 1498TIP3    H126053   0.111   3.083   7.245 -4.0849  0.7610 -0.4007
 1498TIP3    H226054   0.050   2.963   7.315 -0.5375 -1.3307 -0.6422
 1499TIP3   OH226055   2.419   5.694   7.494  0.3122  0.1583  0.0436
 1499TIP3    H126056   2.464   5.752   7.556  0.4722 -1.9410  2.0301
 1499TIP3    H226057   2.476   5.693   7.417  2.3352 -0.3128  1.4549
 1500TIP3   OH226058   4.941   5.297   1.652 -0.6635  0.8059  0.0628
 1500TIP3    H126059   4.948   5.331   1.741 -1.4903 -1.0665  0.9002
 1500TIP3    H226060   5.025   5.318   1.611 -0.1077  1.3188  1.4257
 1501TIP3   OH226061   1.243   2.935   1.441  0.4278  0.6595  0.4413
 1501TIP3    H126062   1.256   3.002   1.509  0.0604  2.7581 -1.4472
 1501TIP3    H226063   1.161   2.961   1.398 -1.3451 -2.7173  1.4633
 1502TIP3   OH226064   1.957   5.120   7.473 -0.2607 -0.4600 -0.0282
 1502TIP3    H126065   2.008   5.198   7.455 -1.4243  0.4594  0.4929
 1502TIP3    H226066   1.945   5.120   7.568 -1.2674 -0.6004 -0.1366
 1503TIP3   OH226067   4.831   2.257   1.198 -0.2543 -0.2333 -0.0893
 1503TIP3    H126068   4.770   2.298   1.260 -1.8454 -0.4457 -1.4528
 1503TIP3    H226069   4.891   2.207   1.253 -0.9024  0.5044  1.3441
 1504TIP3   OH226070   6.068   6.617   1.356 -0.0391 -0.2106 -0.2164
 1504TIP3    H126071   6.158   6.639   1.332 -0.3767  0.7044 -0.6670
 1504TIP3    H226072   6.013   6.669   1.297 -0.8687 -0.9201 -0.0911
 1505TIP3   OH226073   5.152   5.106   8.248 -0.6330 -0.1294 -0.7600
 1505TIP3    H126074   5.177   5.157   8.170 -1.2396  2.8551  0.8384
 1505TIP3    H226075   5.222   5.123   8.311 -0.7508 -1.5247 -0.2204
 1506TIP3   OH226076   0.559   0.706   8.292  0.1425  0.1289 -0.5888
 1506TIP3    H126077   0.502   0.633   8.269  0.0006 -0.5870  1.8278
 1506TIP3    H226078   0.646   0.668   8.301  0.1036  0.2785  0.4935
 1507TIP3   OH226079   1.810   5.572   7.367 -0.1990  0.0781  0.3831
 1507TIP3    H126080   1.848   5.503   7.421  0.8901 -0.7594 -1.3527
 1507TIP3    H226081   1.875   5.586   7.297 -0.9629  1.9984  0.0116
 1508TIP3   OH226082   5.924   4.088   0.692 -0.3276  0.0758 -0.0040
 1508TIP3    H126083   5.862   4.030   0.649  0.3419 -0.2821 -0.5016
 1508TIP3    H226084   6.002   4.034   0.706  0.4370  0.9477 -0.7992
 1509TIP3   OH226085   6.647   5.581   1.368 -0.1383  0.2757  0.0493
 1509TIP3    H126086   6.714   5.628   1.418 -1.3853  0.3047  1.8215
 1509TIP3    H226087   6.607   5.521   1.432 -1.5630  0.0420 -1.0054
 1510TIP3   OH226088   1.941   1.869   1.351  0.2841  0.2421 -0.1843
 1510TIP3    H126089   1.854   1.830   1.343 -1.0734  3.2165 -1.2694
 1510TIP3    H226090   1.941   1.910   1.438 -0.2868  2.0366 -0.9802
 1511TIP3   OH226091   3.072   2.285   6.482 -0.1187  0.2228  0.3937
 1511TIP3    H126092   3.113   2.238   6.409 -0.3770  0.1049  0.3258
 1511TIP3    H226093   3.038   2.365   6.442  0.8813  0.7790  0.6249
 1512TIP3   OH226094   5.721   1.588   6.565  0.0592 -0.0526 -0.1230
 1512TIP3    H126095   5.728   1.496   6.590 -1.2191 -0.3616 -0.8307
 1512TIP3    H226096   5.774   1.595   6.486 -0.2960 -0.3000 -0.3812
 1513TIP3   OH226097   1.098   3.551   0.028  0.3789 -0.5980  0.3875
 1513TIP3    H126098   1.192   3.561   0.037  0.3761 -0.3789  0.2059
 1513TIP3    H226099   1.087   3.493  -0.048  0.3766 -1.1521  0.8067
 1514TIP3   OH226100   1.639   6.752   1.227  0.1341  0.1300  0.9381
 1514TIP3    H126101   1.687   6.800   1.160 -1.5052 -1.0010 -1.1386
 1514TIP3    H226102   1.684   6.667   1.232 -0.8506 -0.4819 -0.1396
 1515TIP3   OH226103   3.578   2.046   0.416  0.4461  0.5638 -0.0446
 1515TIP3    H126104   3.553   1.972   0.472  1.4162  0.6545  0.5218
 1515TIP3    H226105   3.622   2.007   0.341  0.6340  0.5473  0.0750
 1516TIP3   OH226106   5.365   3.971   6.848 -0.3628  0.3561 -0.2798
 1516TIP3    H126107   5.404   3.917   6.779  1.0290  1.6205 -0.5158
 1516TIP3    H226108   5.380   4.061   6.821 -0.7290  0.8833  1.1618
 1517TIP3   OH226109   2.782   4.983   1.726  0.0859 -0.2257 -0.3175
 1517TIP3    H126110   2.861   5.038   1.725  0.7866 -1.2023 -0.1487
 1517TIP3    H226111   2.711   5.044   1.745  0.9904  0.4506  1.0758
 1518TIP3   OH226112   3.777   2.393   1.403  0.0553 -0.0943 -0.5798
 1518TIP3    H126113   3.866   2.363   1.420 -0.0229 -0.6124 -1.0790
 1518TIP3    H226114   3.723   2.314   1.411  0.1569 -0.7889 -4.6653
 1519TIP3   OH226115   3.819   2.519   1.027  0.2682  0.3143 -0.4598
 1519TIP3    H126116   3.805   2.613   1.037  0.4293  0.7210 -3.2600
 1519TIP3    H226117   3.912   2.510   1.007  0.4402 -0.5520  0.6440
 1520TIP3   OH226118   0.130   5.363   0.681  0.1149  0.5819  0.7309
 1520TIP3    H126119   0.093   5.444   0.716  0.7479  1.1197  0.1647
 1520TIP3    H226120   0.145   5.381   0.588 -0.8834 -0.5979  0.3066
 1521TIP3   OH226121   2.691   5.191   8.402 -0.5209 -0.0503  0.1842
 1521TIP3    H126122   2.657   5.279   8.420 -0.2262  0.2259 -0.5654
 1521TIP3    H226123   2.780   5.207   8.368 -0.6219 -0.6120 -0.3515
 1522TIP3   OH226124   6.603   1.070   0.972  0.4790 -0.8946  0.0500
 1522TIP3    H126125   6.639   1.107   1.052 -0.9118  0.9125 -0.0951
 1522TIP3    H226126   6.645   1.119   0.901 -0.0912 -0.7767 -0.2175
 1523TIP3   OH226127   0.165   4.471   0.349  0.3005  0.2932  0.4228
 1523TIP3    H126128   0.149   4.528   0.424  0.0655 -0.4887  0.9833
 1523TIP3    H226129   0.084   4.421   0.339  0.9526 -0.8853  0.7877
 1524TIP3   OH226130   1.195   6.749   1.680 -0.5587  0.0097  0.5795
 1524TIP3    H126131   1.147   6.669   1.662 -0.1799 -0.1639  0.3143
 1524TIP3    H226132   1.227   6.739   1.770 -1.5845  0.4248  0.9986
 1525TIP3   OH226133   2.458   4.711   6.963 -0.0331  0.0523 -0.0796
 1525TIP3    H126134   2.490   4.733   6.875  1.4470  1.5167  0.7858
 1525TIP3    H226135   2.511   4.763   7.022 -1.4574 -0.3911  1.6816
 1526TIP3   OH226136   0.121   5.400   8.751  0.2538  0.1886  0.3311
 1526TIP3    H126137   0.191   5.415   8.688 -0.4700  3.2238  0.1048
 1526TIP3    H226138   0.051   5.359   8.700  0.4709  0.6363 -0.3395
 1527TIP3   OH226139   5.648   1.864   7.647  0.0807 -0.4218 -0.1439
 1527TIP3    H126140   5.695   1.783   7.627  0.7603  0.1344 -0.8370
 1527TIP3    H226141   5.556   1.838   7.652  0.3933 -1.4513  0.8203
 1528TIP3   OH226142   6.595   4.984   7.591  0.8512 -0.0632 -0.5850
 1528TIP3    H126143   6.586   5.032   7.509  0.2358  1.8140  0.5087
 1528TIP3    H226144   6.505   4.963   7.617  1.0913 -1.4520 -0.8237
 1529TIP3   OH226145   2.277   2.905   6.380 -0.5041 -0.0387  0.3556
 1529TIP3    H126146   2.187   2.911   6.347 -0.4599  0.8872  0.3946
 1529TIP3    H226147   2.330   2.947   6.312 -0.1355 -0.3136  0.4738
 1530TIP3   OH226148   5.413   2.044   6.299  0.3473 -0.3174 -0.0554
 1530TIP3    H126149   5.415   2.127   6.251 -0.2744 -0.7514 -0.8584
 1530TIP3    H226150   5.379   2.067   6.386 -0.3831  0.1757 -0.4627
 1531TIP3   OH226151   0.891   4.270   2.552  0.1181  0.3544 -0.1770
 1531TIP3    H126152   0.894   4.358   2.514 -0.8043 -0.3619 -1.9802
 1531TIP3    H226153   0.812   4.230   2.516  0.7597 -1.3854  0.2382
 1532TIP3   OH226154   2.720   4.526   0.099 -0.5088  0.6033 -0.5823
 1532TIP3    H126155   2.669   4.559   0.174  0.0246  0.2219 -0.0414
 1532TIP3    H226156   2.676   4.445   0.074  0.3822 -0.2442  0.5119
 1533TIP3   OH226157   3.530   3.563   1.269 -0.1582 -0.2742 -0.3170
 1533TIP3    H126158   3.440   3.594   1.256  0.3773  1.5264  0.0592
 1533TIP3    H226159   3.585   3.640   1.255  1.3771 -1.4101 -0.8457
 1534TIP3   OH226160   3.747   3.733   7.018  0.3660 -0.2676 -0.1276
 1534TIP3    H126161   3.731   3.755   7.110  3.8323 -0.6767  0.7056
 1534TIP3    H226162   3.755   3.637   7.019  2.6894 -0.1137 -0.3572
 1535TIP3   OH226163   2.817   6.671   0.172 -0.4590 -0.7082 -0.4473
 1535TIP3    H126164   2.842   6.590   0.127  1.0638 -1.1036  1.0340
 1535TIP3    H226165   2.837   6.655   0.264 -3.2089  0.1962  0.4155
 1536TIP3   OH226166   5.085   3.129   1.586 -0.1652  0.2071  0.2188
 1536TIP3    H126167   5.030   3.108   1.661  0.6902  0.1175  0.8334
 1536TIP3    H226168   5.175   3.122   1.618  0.2089  1.1640 -0.5347
 1537TIP3   OH226169   5.667   6.074   0.970  0.0873 -0.4243 -0.6422
 1537TIP3    H126170   5.735   6.009   0.987 -0.4283 -0.7765  0.1653
 1537TIP3    H226171   5.682   6.101   0.879  0.6433 -1.2703 -0.8215
 1538TIP3   OH226172   1.099   3.089   7.774 -0.2299  0.1312 -0.6847
 1538TIP3    H126173   1.176   3.133   7.810  0.7454 -2.0546  0.0256
 1538TIP3    H226174   1.104   3.000   7.807 -2.4209 -0.4090 -1.6418
 1539TIP3   OH226175   4.253   4.913   7.395 -0.2203 -0.3106  0.0409
 1539TIP3    H126176   4.341   4.948   7.388 -1.0357  1.8718 -0.2228
 1539TIP3    H226177   4.222   4.905   7.305 -0.5201 -0.4142  0.1490
 1540TIP3   OH226178   0.830   4.815   8.136 -0.2380 -0.3374 -0.1105
 1540TIP3    H126179   0.838   4.720   8.143 -1.7766 -0.9577 -4.0114
 1540TIP3    H226180   0.739   4.833   8.160 -0.1368  0.0600 -0.0124
 1541TIP3   OH226181   5.215   3.863   8.113 -0.6593  0.1724 -0.3535
 1541TIP3    H126182   5.296   3.891   8.071 -1.4244 -0.3977 -2.3462
 1541TIP3    H226183   5.243   3.796   8.175  0.5707  1.3341  0.3971
 1542TIP3   OH226184   1.920   2.761   6.964  0.1224  0.3174 -0.3995
 1542TIP3    H126185   1.915   2.676   7.007  0.7654  0.5535  0.1641
 1542TIP3    H226186   1.864   2.753   6.887  0.2730 -0.6544 -0.4197
 1543TIP3   OH226187   5.208   4.355   0.845 -0.4206 -0.3808 -0.1458
 1543TIP3    H126188   5.301   4.371   0.834 -0.2173 -0.4702  1.2837
 1543TIP3    H226189   5.201   4.305   0.926 -1.8066  0.8426  0.5525
 1544TIP3   OH226190   0.732   6.557   8.725  0.3698 -0.3715 -0.9593
 1544TIP3    H126191   0.823   6.564   8.695  1.3197  0.7562  1.7950
 1544TIP3    H226192   0.727   6.471   8.767  0.8949  0.4066  0.8005
 1545TIP3   OH226193   1.350   6.432   7.533  0.4695  0.4646  0.0483
 1545TIP3    H126194   1.413   6.482   7.586  0.4659 -0.5666  1.0746
 1545TIP3    H226195   1.343   6.481   7.451  0.1943  2.3427  1.1400
 1546TIP3   OH226196   1.419   0.516   0.429 -0.7346  0.0288 -0.5046
 1546TIP3    H126197   1.444   0.467   0.351 -0.0078  0.4167 -0.5239
 1546TIP3    H226198   1.445   0.460   0.503  1.2928  0.9000 -0.4990
 1547TIP3   OH226199   4.048   6.554   7.579  0.5657  0.6689  0.3614
 1547TIP3    H126200   3.980   6.572   7.643 -0.4584 -3.5773  0.7276
 1547TIP3    H226201   4.130   6.556   7.629 -0.0719 -1.0318  1.5441
 1548TIP3   OH226202   0.517   6.403   7.496  0.4680  0.0644 -0.1326
 1548TIP3    H126203   0.480   6.412   7.584 -0.1510 -0.6339 -0.3024
 1548TIP3    H226204   0.588   6.466   7.492  0.6671 -0.0813  0.9581
 1549TIP3   OH226205   2.389   0.361   1.848  0.5222  0.7123  0.2246
 1549TIP3    H126206   2.415   0.357   1.939 -1.5099  2.9765  1.0236
 1549TIP3    H226207   2.310   0.307   1.843  1.1289 -0.1236 -0.4050
 1550TIP3   OH226208   2.614   4.278   0.088 -0.2006 -0.3775 -0.0803
 1550TIP3    H126209   2.616   4.193   0.043  3.2740 -0.6001  0.2561
 1550TIP3    H226210   2.606   4.255   0.181  2.8296 -0.6029  0.2252
 1551TIP3   OH226211   1.155   2.836   7.857 -0.0661 -0.4271 -0.3091
 1551TIP3    H126212   1.242   2.798   7.846  0.1655  0.1245 -0.4593
 1551TIP3    H226213   1.139   2.832   7.952  0.2177 -0.3342 -0.2555
 1552TIP3   OH226214   3.836   4.457   8.772 -0.0821 -0.3220 -0.5795
 1552TIP3    H126215   3.854   4.440   8.864  0.2185  0.6128 -0.4546
 1552TIP3    H226216   3.760   4.515   8.773  0.1605  0.0055 -0.8993
 1553TIP3   OH226217   3.095   6.341   7.122 -0.9984 -0.1140 -0.6620
 1553TIP3    H126218   3.122   6.261   7.168  2.4516  1.5771  0.6343
 1553TIP3    H226219   3.097   6.317   7.029  2.6201 -1.0379 -0.5157
 1554TIP3   OH226220   5.132   6.588   0.845 -0.2093 -0.6224 -0.6278
 1554TIP3    H126221   5.133   6.502   0.887  1.8698  0.2087  1.2467
 1554TIP3    H226222   5.111   6.569   0.753 -2.6520 -2.7647  0.2445
 1555TIP3   OH226223   2.330   1.236   1.709  0.3348  0.8558 -0.0917
 1555TIP3    H126224   2.294   1.318   1.745 -0.5262 -0.3708  2.0230
 1555TIP3    H226225   2.411   1.263   1.667  1.6871  2.4629  3.1711
 1556TIP3   OH226226   2.766   0.338   8.124 -0.1560 -0.4869  0.6835
 1556TIP3    H126227   2.828   0.371   8.189  0.8817 -1.7958  0.3811
 1556TIP3    H226228   2.815   0.333   8.043 -1.4506  1.1568 -0.2757
 1557TIP3   OH226229   6.751   2.495   7.893 -0.8861 -0.3308 -0.0004
 1557TIP3    H126230   6.744   2.543   7.975  1.0363 -0.2660  0.1554
 1557TIP3    H226231   6.771   2.405   7.919  0.2759 -0.2000 -0.3878
 1558TIP3   OH226232   0.330   2.405   1.886 -0.1498 -0.4730  0.6008
 1558TIP3    H126233   0.334   2.316   1.852 -1.3473 -0.1695 -0.3944
 1558TIP3    H226234   0.422   2.432   1.893  0.1951 -0.9859 -1.2961
 1559TIP3   OH226235   1.951   1.685   2.055 -0.0605 -0.8406 -0.2711
 1559TIP3    H126236   1.892   1.759   2.039 -0.3568 -0.9843  0.1560
 1559TIP3    H226237   1.923   1.618   1.994  0.6764 -0.3537 -1.1851
 1560TIP3   OH226238   6.542   5.427   7.921  0.2451  0.1481  0.0032
 1560TIP3    H126239   6.485   5.495   7.886  1.0049  0.7552 -0.0578
 1560TIP3    H226240   6.626   5.469   7.934  0.7870 -0.8339 -0.2359
 1561TIP3   OH226241   1.380   1.418   7.572  0.2984 -0.1302 -0.5215
 1561TIP3    H126242   1.295   1.375   7.583 -0.1082  0.6067 -0.7279
 1561TIP3    H226243   1.442   1.358   7.613  0.0475 -1.9125 -2.6234
 1562TIP3   OH226244   0.226   5.031   8.448 -0.0237  0.1025  0.0137
 1562TIP3    H126245   0.196   5.075   8.528  0.5829  1.6185 -0.5532
 1562TIP3    H226246   0.315   5.004   8.467  0.1466  0.5295 -0.1610
 1563TIP3   OH226247   5.006   0.393   7.247 -0.0112 -0.1068 -0.4545
 1563TIP3    H126248   5.039   0.483   7.246 -0.3271  0.1186  1.8964
 1563TIP3    H226249   4.913   0.402   7.224 -0.4540  0.4594  1.3385
 1564TIP3   OH226250   2.581   0.580   1.685 -0.2969  0.1745 -0.2489
 1564TIP3    H126251   2.646   0.627   1.632  1.4953 -0.4745  1.2839
 1564TIP3    H226252   2.627   0.501   1.715 -1.8863 -0.4279  0.7170
 1565TIP3   OH226253   0.463   6.117   8.359 -0.3910 -0.2297 -0.3687
 1565TIP3    H126254   0.505   6.201   8.344 -2.0692  0.8870  0.7418
 1565TIP3    H226255   0.400   6.108   8.288 -0.5204 -0.3396 -0.2431
 1566TIP3   OH226256   6.532   5.045   1.537 -0.1355 -0.2856 -0.5013
 1566TIP3    H126257   6.596   4.982   1.569  0.2355  0.7512  0.9512
 1566TIP3    H226258   6.452   5.026   1.586  0.1870  0.7724  0.5045
 1567TIP3   OH226259   1.436   1.481   7.317  0.1605 -1.2177 -0.4998
 1567TIP3    H126260   1.409   1.470   7.409  0.3652 -1.1757 -0.4344
 1567TIP3    H226261   1.402   1.404   7.273 -0.1668 -1.1106 -0.4399
 1568TIP3   OH226262   5.238   6.282   1.937 -0.4247  0.0524  0.3253
 1568TIP3    H126263   5.207   6.372   1.942  0.3524  0.4410 -1.2102
 1568TIP3    H226264   5.323   6.284   1.981  0.2954  0.4367 -1.0457
 1569TIP3   OH226265   3.319   2.302   7.917 -0.2769 -0.7963  1.1422
 1569TIP3    H126266   3.399   2.341   7.952 -0.7503 -0.7254  2.1853
 1569TIP3    H226267   3.332   2.303   7.822  0.4872  0.2411  1.2324
 1570TIP3   OH226268   0.616   4.950   8.276 -0.7969  1.2230 -0.5063
 1570TIP3    H126269   0.597   4.980   8.187 -2.3418 -0.2626 -0.7264
 1570TIP3    H226270   0.579   5.019   8.332 -0.3772  1.8618 -0.9917
 1571TIP3   OH226271   1.918   4.101   6.791 -0.7753 -0.3763 -0.2712
 1571TIP3    H126272   1.876   4.149   6.862 -0.9771 -2.3812  1.0703
 1571TIP3    H226273   2.002   4.074   6.827 -0.4394 -0.5542 -1.1650
 1572TIP3   OH226274   4.207   1.718   7.019 -0.1500 -0.0668 -0.2124
 1572TIP3    H126275   4.211   1.787   7.085  3.7552 -0.7058  0.4854
 1572TIP3    H226276   4.218   1.764   6.936 -3.1307  0.5384 -0.3911
 1573TIP3   OH226277   3.377   4.262   0.265  0.4786 -0.0167  0.0639
 1573TIP3    H126278   3.470   4.264   0.286  0.7826  0.5656 -1.2087
 1573TIP3    H226279   3.355   4.169   0.261  1.4517 -0.2270 -1.3219
 1574TIP3   OH226280   2.483   2.244   7.532  0.2434  0.1427  0.0209
 1574TIP3    H126281   2.446   2.313   7.588  2.6243 -0.3906  2.4630
 1574TIP3    H226282   2.446   2.163   7.567  0.1091 -0.0609 -0.5863
 1575TIP3   OH226283   0.298   5.110   1.301 -0.2074 -0.1899 -0.0014
 1575TIP3    H126284   0.329   5.029   1.341 -0.5039  0.4489  1.6056
 1575TIP3    H226285   0.258   5.158   1.373  0.8796  1.8507 -0.6770
 1576TIP3   OH226286   3.857   6.048   8.064  0.1425  0.0102 -0.2639
 1576TIP3    H126287   3.869   6.143   8.071 -1.6455  0.3278 -0.9917
 1576TIP3    H226288   3.804   6.036   7.985  0.4280 -1.6153 -0.2442
 1577TIP3   OH226289   6.664   0.551   1.294 -0.5245 -0.0465  0.2677
 1577TIP3    H126290   6.619   0.610   1.233  0.2047 -0.3186 -0.5458
 1577TIP3    H226291   6.753   0.584   1.297  0.2725 -1.8865 -1.2627
 1578TIP3   OH226292   3.118   2.620   7.097  0.4297  0.1751 -0.2660
 1578TIP3    H126293   3.069   2.694   7.062  0.3217  0.4418  0.4546
 1578TIP3    H226294   3.107   2.625   7.191  0.4937 -0.7094 -0.2013
 1579TIP3   OH226295   2.247   0.382   8.041  0.1143  0.0306  0.3882
 1579TIP3    H126296   2.190   0.433   8.098  0.4394 -0.2590  0.9713
 1579TIP3    H226297   2.268   0.442   7.969  0.3901  0.6846  0.9997
 1580TIP3   OH226298   2.242   5.452   1.509 -0.6258 -0.2595 -0.0110
 1580TIP3    H126299   2.337   5.459   1.518 -0.6932  0.2148  0.3638
 1580TIP3    H226300   2.210   5.434   1.597 -0.8472 -0.9328 -0.2207
 1581TIP3   OH226301   5.803   4.440   8.422  0.0076 -0.1776  0.7848
 1581TIP3    H126302   5.734   4.481   8.370  0.2990  0.3376  0.8026
 1581TIP3    H226303   5.814   4.353   8.383  1.2348  0.7044 -0.9513
 1582TIP3   OH226304   1.865   1.916   0.206  0.3800  0.2627  0.1500
 1582TIP3    H126305   1.843   1.981   0.140 -1.6436 -0.2576  0.2336
 1582TIP3    H226306   1.872   1.834   0.157  0.8548  0.1999  0.3207
 1583TIP3   OH226307   2.190   1.052   8.123 -0.0726 -0.1400  0.0473
 1583TIP3    H126308   2.235   1.130   8.090  0.7063 -0.5498  0.1030
 1583TIP3    H226309   2.247   1.020   8.193 -0.5943 -0.5310  0.3007
 1584TIP3   OH226310   6.427   2.404   1.502  0.1756 -0.1454  0.0443
 1584TIP3    H126311   6.356   2.449   1.456  1.3451  1.4590 -0.3094
 1584TIP3    H226312   6.472   2.474   1.550  1.8556 -1.0020 -0.2070
 1585TIP3   OH226313   1.407   3.393   8.707  0.3232  0.0210 -0.0327
 1585TIP3    H126314   1.411   3.408   8.801 -1.0762 -1.0690  0.2242
 1585TIP3    H226315   1.499   3.393   8.679  0.7944 -0.3394  1.4386
 1586TIP3   OH226316   3.296   1.065   0.937  0.4963 -0.0886 -0.0728
 1586TIP3    H126317   3.260   1.023   1.015 -0.1449  0.6525  0.0405
 1586TIP3    H226318   3.261   1.155   0.939  1.3685  0.2806 -0.6146
 1587TIP3   OH226319   4.010   0.418   7.176 -0.1641 -0.0872  0.4670
 1587TIP3    H126320   3.937   0.417   7.238  0.0935 -1.3621  0.7733
 1587TIP3    H226321   4.083   0.377   7.223 -0.2434 -2.0200 -0.9536
 1588TIP3   OH226322   6.778   1.265   6.758 -0.1320 -0.1902 -0.1278
 1588TIP3    H126323   6.782   1.295   6.667  0.1294 -0.0333 -0.0652
 1588TIP3    H226324   6.799   1.172   6.754 -1.1619 -0.4262 -0.3518
 1589TIP3   OH226325   2.807   2.993   6.831  0.3964  0.1324  0.0693
 1589TIP3    H126326   2.774   2.974   6.743  2.3931 -0.2238 -0.6535
 1589TIP3    H226327   2.821   3.087   6.831  2.5256 -0.1356 -0.8374
 1590TIP3   OH226328   1.567   0.160   6.825 -0.3808 -0.0020 -0.3392
 1590TIP3    H126329   1.506   0.230   6.800  0.9291  0.9794 -0.9085
 1590TIP3    H226330   1.512   0.083   6.834 -1.7726  0.9382 -0.4049
 1591TIP3   OH226331   0.984   5.711   0.474 -0.3720 -0.0329 -0.1380
 1591TIP3    H126332   1.005   5.796   0.514  1.1086  0.7171 -2.3062
 1591TIP3    H226333   1.068   5.678   0.442 -0.7058 -3.0032  1.7697
 1592TIP3   OH226334   6.234   2.485   8.737 -0.5598 -0.2147 -0.2616
 1592TIP3    H126335   6.253   2.579   8.745  0.1909 -0.3334 -0.5363
 1592TIP3    H226336   6.194   2.461   8.821  0.9067 -0.0164  0.5299
 1593TIP3   OH226337   4.575   5.118   7.921 -0.2735 -0.1084 -0.2335
 1593TIP3    H126338   4.562   5.147   7.830 -0.9410  0.5474  0.0594
 1593TIP3    H226339   4.530   5.033   7.925 -0.3759 -0.0688 -0.4748
 1594TIP3   OH226340   4.293   6.358   0.147 -0.1371 -0.5466 -0.1934
 1594TIP3    H126341   4.306   6.305   0.226 -0.8631 -1.0481 -0.4064
 1594TIP3    H226342   4.381   6.368   0.110  0.2349 -0.1452  0.7753
 1595TIP3   OH226343   1.078   5.426   7.918  0.6150 -0.2244 -0.2477
 1595TIP3    H126344   0.983   5.422   7.924  0.5789  0.3006 -0.3880
 1595TIP3    H226345   1.100   5.515   7.946  0.7388  1.0328 -3.8296
 1596TIP3   OH226346   2.699   0.763   1.292 -0.2604 -0.0650 -0.5659
 1596TIP3    H126347   2.671   0.808   1.371  0.6229 -1.4238  0.5873
 1596TIP3    H226348   2.639   0.689   1.284  0.1823 -0.4209 -0.6596
 1597TIP3   OH226349   5.535   2.948   1.459  0.7201  0.0328 -0.5194
 1597TIP3    H126350   5.517   2.887   1.531 -0.8467  0.6487 -0.3454
 1597TIP3    H226351   5.573   3.025   1.502  0.0276  0.2974 -0.3720
 1598TIP3   OH226352   6.128   0.063   7.630  0.4941  0.2285 -0.3869
 1598TIP3    H126353   6.127   0.095   7.540 -0.1422  0.0535 -0.4459
 1598TIP3    H226354   6.130   0.142   7.684  0.3161  0.3426 -0.5489
 1599TIP3   OH226355   3.450   2.010   1.012 -0.4215 -0.4922 -0.3864
 1599TIP3    H126356   3.422   2.045   0.927 -0.6441 -0.4242 -0.2855
 1599TIP3    H226357   3.542   2.035   1.019 -0.2468 -0.9716 -0.8547
 1600TIP3   OH226358   2.616   2.850   7.476  0.4701 -0.2045  0.0865
 1600TIP3    H126359   2.540   2.845   7.418  1.5879 -0.1452 -1.4339
 1600TIP3    H226360   2.629   2.760   7.507 -1.3550  0.0914  1.9628
 1601TIP3   OH226361   2.092   3.303   0.611 -0.3399 -0.2740 -0.1122
 1601TIP3    H126362   2.102   3.346   0.526  1.0710  1.5641  0.8902
 1601TIP3    H226363   2.000   3.315   0.634 -1.1956 -2.3661 -2.0893
 1602TIP3   OH226364   0.083   1.510   8.002  0.2190 -0.2672  0.3182
 1602TIP3    H126365   0.025   1.434   7.995  1.0957 -0.9976  0.7757
 1602TIP3    H226366   0.164   1.475   8.037  0.4866  0.9646  1.0018
 1603TIP3   OH226367   6.497   6.363   7.152  0.2349 -0.4490  0.3664
 1603TIP3    H126368   6.475   6.327   7.066 -1.0780  0.9618  0.0731
 1603TIP3    H226369   6.544   6.292   7.196  2.1499 -0.7601 -1.9766
 1604TIP3   OH226370   5.692   5.939   0.456  0.2473 -0.0287 -0.1020
 1604TIP3    H126371   5.759   6.006   0.467  0.0351 -0.1451  2.5007
 1604TIP3    H226372   5.653   5.958   0.370  1.5810  1.8572 -0.3597
 1605TIP3   OH226373   5.096   4.620   6.896 -0.0397  0.2891 -0.2071
 1605TIP3    H126374   5.011   4.612   6.940 -0.2131  0.1254 -0.5654
 1605TIP3    H226375   5.153   4.662   6.960 -0.0638 -0.6845  0.4622
 1606TIP3   OH226376   4.033   0.975   1.474 -0.2475 -0.2638  0.4703
 1606TIP3    H126377   4.084   0.897   1.495 -0.7822 -0.3402  1.5565
 1606TIP3    H226378   3.995   1.002   1.557  0.0223  1.2382  0.1432
 1607TIP3   OH226379   6.543   6.410   8.374  0.1193  0.2833  0.2024
 1607TIP3    H126380   6.503   6.371   8.452  1.7642 -1.1161  0.3979
 1607TIP3    H226381   6.624   6.450   8.406  0.7039 -0.1133 -0.7382
 1608TIP3   OH226382   0.404   0.078   1.850  0.0787  0.1995 -0.1702
 1608TIP3    H126383   0.465   0.008   1.831  1.2353  0.9767  0.5754
 1608TIP3    H226384   0.419   0.143   1.781  1.4340  1.2143  1.0284
 1609TIP3   OH226385   0.308   4.673   1.685  0.2722  0.4328 -0.5082
 1609TIP3    H126386   0.262   4.668   1.601 -0.0863  0.8685 -0.3441
 1609TIP3    H226387   0.244   4.711   1.745  0.8024  0.9249 -0.2447
 1610TIP3   OH226388   6.744   2.376   8.740  0.0761 -0.2070 -0.1588
 1610TIP3    H126389   6.748   2.470   8.757 -1.4509  0.1849 -1.5733
 1610TIP3    H226390   6.652   2.361   8.715  0.6277 -1.7694 -1.4333
 1611TIP3   OH226391   6.277   1.186   0.173 -0.0198  0.1002  0.0182
 1611TIP3    H126392   6.230   1.204   0.255  1.1097  0.3576  0.6335
 1611TIP3    H226393   6.225   1.229   0.106 -0.7811  0.1881  0.6473
 1612TIP3   OH226394   4.560   1.048   8.040 -0.9689 -0.2137 -0.1357
 1612TIP3    H126395   4.632   1.097   8.002 -0.1273  0.5231  2.2339
 1612TIP3    H226396   4.592   1.021   8.126 -3.3238 -0.3454  0.7725
 1613TIP3   OH226397   2.900   1.835   7.746 -0.3429  0.1446 -0.0129
 1613TIP3    H126398   2.858   1.752   7.726 -3.6931  1.6485  0.1516
 1613TIP3    H226399   2.842   1.902   7.709  2.1835  2.4599 -0.1352
 1614TIP3   OH226400   3.807   4.866   0.315  0.8615  0.3351  0.3553
 1614TIP3    H126401   3.718   4.897   0.297  0.9002 -0.0445 -0.6008
 1614TIP3    H226402   3.856   4.945   0.337  0.0249  0.4026  2.1612
 1615TIP3   OH226403   5.987   1.812   0.158  0.1936  0.3631  0.2036
 1615TIP3    H126404   5.914   1.750   0.169  0.2357 -0.7018 -3.9666
 1615TIP3    H226405   5.945   1.897   0.145 -0.4808 -0.2758 -2.3936
 1616TIP3   OH226406   0.652   3.377   1.119  0.0299 -0.4438 -0.1563
 1616TIP3    H126407   0.597   3.303   1.095 -0.5705  0.5517 -2.0508
 1616TIP3    H226408   0.592   3.451   1.125  0.7708  0.1183  0.6166
 1617TIP3   OH226409   6.206   2.173   7.334 -0.9616  0.0834  0.1069
 1617TIP3    H126410   6.233   2.264   7.349  0.1575 -0.4382  1.4772
 1617TIP3    H226411   6.158   2.176   7.252 -1.0602  1.9377  0.1820
 1618TIP3   OH226412   3.474   4.981   7.112  0.3062  0.3767 -0.0283
 1618TIP3    H126413   3.472   4.951   7.203  1.2994  1.6378  0.4365
 1618TIP3    H226414   3.384   4.967   7.081 -0.3704  1.0232  1.5203
 1619TIP3   OH226415   2.004   2.884   8.089  0.1506 -0.0547  0.3031
 1619TIP3    H126416   2.011   2.904   8.182 -0.1305  0.3162  0.2480
 1619TIP3    H226417   1.929   2.824   8.083 -2.4588  2.9868 -0.0977
 1620TIP3   OH226418   0.858   0.632   6.783 -0.0644 -0.3887  0.3656
 1620TIP3    H126419   0.812   0.569   6.727  0.1589 -0.0405 -0.2187
 1620TIP3    H226420   0.818   0.716   6.762  2.3997  0.3288 -1.9536
 1621TIP3   OH226421   2.071   4.649   1.318 -0.5476  0.3038  0.5235
 1621TIP3    H126422   2.049   4.688   1.402 -1.9429 -2.0502  1.3522
 1621TIP3    H226423   2.159   4.615   1.329 -0.7998 -0.1713  1.1169
 1622TIP3   OH226424   1.329   5.579   7.487 -0.7485  0.3302 -0.0169
 1622TIP3    H126425   1.240   5.565   7.456 -0.8963  2.7354 -0.9306
 1622TIP3    H226426   1.383   5.570   7.408  0.3538 -4.1838  0.9993
 1623TIP3   OH226427   6.049   3.536   8.069 -0.3276 -0.6362 -0.4885
 1623TIP3    H126428   5.975   3.489   8.030 -0.3403 -0.9769 -0.0767
 1623TIP3    H226429   6.126   3.499   8.026 -0.4306  0.3745 -1.5849
 1624TIP3   OH226430   0.264   2.979   7.007 -0.6176  0.2035  0.6769
 1624TIP3    H126431   0.249   3.073   6.997  0.4265  0.2775 -0.3405
 1624TIP3    H226432   0.201   2.952   7.074 -1.3736  1.5010  0.5211
 1625TIP3   OH226433   3.789   3.782   1.653 -0.3520 -0.1844  0.1238
 1625TIP3    H126434   3.838   3.855   1.692 -0.7521  0.9954 -1.5153
 1625TIP3    H226435   3.851   3.742   1.592 -0.4226 -0.6846  0.3749
 1626TIP3   OH226436   1.376   3.198   6.146  0.0099 -0.4934  0.4459
 1626TIP3    H126437   1.289   3.194   6.187 -0.1552  1.4039  0.3547
 1626TIP3    H226438   1.359   3.226   6.056  0.7664  0.7323  0.6695
 1627TIP3   OH226439   5.840   1.233   7.274 -0.4540  0.2459 -0.0820
 1627TIP3    H126440   5.869   1.317   7.238 -0.8671  1.4958  2.2812
 1627TIP3    H226441   5.917   1.177   7.271 -0.0352  0.8419 -1.2150
 1628TIP3   OH226442   1.538   3.505   6.813  0.0179 -0.3411 -0.4605
 1628TIP3    H126443   1.470   3.445   6.781  1.2077 -1.5338 -0.8273
 1628TIP3    H226444   1.602   3.508   6.741  1.0972 -0.4364  0.4781
 1629TIP3   OH226445   5.696   1.776   8.711  0.4724  0.0083 -0.7286
 1629TIP3    H126446   5.735   1.846   8.764 -0.6426  0.0911  0.0206
 1629TIP3    H226447   5.752   1.700   8.725 -0.4309 -0.3047  1.5357
 1630TIP3   OH226448   2.041   6.699   7.111 -0.1055 -0.0833 -0.7414
 1630TIP3    H126449   2.097   6.768   7.148 -0.5887 -0.3137  0.4837
 1630TIP3    H226450   2.094   6.660   7.042  1.8973 -1.2644  1.3155
 1631TIP3   OH226451   0.045   3.165   7.964 -0.1809 -0.0412  0.2640
 1631TIP3    H126452   0.071   3.255   7.981 -0.2993 -0.2304  1.4910
 1631TIP3    H226453   0.102   3.112   8.019 -2.4210 -0.5068  2.2719
 1632TIP3   OH226454   0.708   3.933   8.578 -0.2612 -0.0264  0.0445
 1632TIP3    H126455   0.714   3.849   8.624 -0.4649  0.1317  0.3591
 1632TIP3    H226456   0.618   3.936   8.546  0.0428 -0.4071 -0.8884
 1633TIP3   OH226457   0.109   2.833   6.777 -0.5251  0.4356  0.4359
 1633TIP3    H126458   0.065   2.876   6.850  0.6357 -0.4396  1.7018
 1633TIP3    H226459   0.193   2.878   6.770  0.8408 -1.6907  1.9828
 1634TIP3   OH226460   5.882   2.987   6.902  0.1126  0.2944  0.5772
 1634TIP3    H126461   5.880   2.965   6.808 -0.8595 -1.9701  1.0448
 1634TIP3    H226462   5.911   3.078   6.905  0.3641  0.3725 -1.9102
 1635TIP3   OH226463   4.533   0.768   6.722 -0.1862 -0.4455  0.1581
 1635TIP3    H126464   4.457   0.826   6.723 -0.6107 -0.9804 -0.4821
 1635TIP3    H226465   4.531   0.726   6.636  0.2772 -1.1905  0.4938
 1636TIP3   OH226466   0.445   3.227   8.233 -0.0046  0.2101 -0.5622
 1636TIP3    H126467   0.356   3.191   8.228  0.3953 -0.8461 -0.3672
 1636TIP3    H226468   0.486   3.200   8.151  0.0928  0.8171 -0.7118
 1637TIP3   OH226469   1.966   4.881   0.055  0.0252  0.5317  0.4905
 1637TIP3    H126470   1.993   4.936   0.128  0.7271  0.6919  0.1155
 1637TIP3    H226471   1.998   4.793   0.077  0.8545  0.7162  0.0588
 1638TIP3   OH226472   6.498   0.649   7.054 -0.1112 -0.2406  0.1618
 1638TIP3    H126473   6.577   0.698   7.075  1.3839 -0.8476 -3.3529
 1638TIP3    H226474   6.505   0.569   7.106  0.8695  0.3336  0.9443
 1639TIP3   OH226475   2.181   4.926   1.446 -0.2757  0.6080 -0.8241
 1639TIP3    H126476   2.193   4.997   1.383 -1.0345 -0.3909 -2.1528
 1639TIP3    H226477   2.266   4.883   1.451  0.6406  2.4875  1.1793
 1640TIP3   OH226478   2.325   6.751   8.441 -0.2803  0.0080  0.0400
 1640TIP3    H126479   2.231   6.740   8.429 -0.3917 -0.4283  1.1672
 1640TIP3    H226480   2.360   6.662   8.445 -0.0505  0.1229  1.1312
 1641TIP3   OH226481   4.569   4.675   7.741 -0.8736 -0.0252 -0.2225
 1641TIP3    H126482   4.578   4.766   7.713 -1.7307  0.0607 -0.2519
 1641TIP3    H226483   4.477   4.666   7.767 -0.3914 -0.4049  1.5253
 1642TIP3   OH226484   0.683   3.451   1.391 -0.1741  0.2996 -0.0577
 1642TIP3    H126485   0.737   3.525   1.364  0.8409 -0.4250 -0.0678
 1642TIP3    H226486   0.667   3.402   1.311  1.4541 -0.9532  0.3336
 1643TIP3   OH226487   5.697   3.065   8.752  0.3002  0.3284  0.7470
 1643TIP3    H126488   5.791   3.073   8.738  0.5094 -1.5565  0.9240
 1643TIP3    H226489   5.688   3.021   8.836 -0.7783  1.1171  1.0710
 1644TIP3   OH226490   4.213   2.415   1.250  0.3158 -0.1539  0.1945
 1644TIP3    H126491   4.178   2.348   1.309 -0.6700 -0.6798 -0.9321
 1644TIP3    H226492   4.147   2.486   1.253  0.3992 -0.0644 -0.0565
 1645TIP3   OH226493   5.899   0.460   1.443 -0.2786  0.5237  0.0885
 1645TIP3    H126494   5.900   0.391   1.377 -2.2088  2.6752 -2.4335
 1645TIP3    H226495   5.991   0.482   1.456  0.1896 -0.4769 -1.3343
 1646TIP3   OH226496   5.476   3.954   1.691  0.3071  0.1348 -0.1155
 1646TIP3    H126497   5.503   3.878   1.640  1.1346  0.9732 -0.9938
 1646TIP3    H226498   5.465   4.024   1.626 -0.0312  0.8751  0.7027
 1647TIP3   OH226499   6.192   5.413   8.576 -0.4463 -0.3211 -0.5118
 1647TIP3    H126500   6.274   5.419   8.624 -0.2318 -0.9385 -0.7897
 1647TIP3    H226501   6.146   5.495   8.595  0.2971  0.0945 -0.4815
 1648TIP3   OH226502   3.412   0.669   1.598 -0.1243 -0.4471  0.2110
 1648TIP3    H126503   3.443   0.582   1.623  3.1993  0.4103 -0.4353
 1648TIP3    H226504   3.394   0.661   1.504 -0.9791 -0.6742  0.3795
 1649TIP3   OH226505   1.071   2.837   0.716 -0.1218 -0.4306 -0.2594
 1649TIP3    H126506   1.055   2.804   0.627  0.3441 -0.5741 -0.2903
 1649TIP3    H226507   1.150   2.890   0.708  0.1402 -0.7580  0.1517
 1650TIP3   OH226508   4.676   5.561   0.410  0.4720 -0.2916 -0.1462
 1650TIP3    H126509   4.671   5.466   0.416  0.7116 -0.3513 -0.7945
 1650TIP3    H226510   4.602   5.592   0.462  0.2994 -0.8388 -0.0584
 1651TIP3   OH226511   6.157   1.768   1.803 -0.1022  0.2373  0.4317
 1651TIP3    H126512   6.063   1.764   1.787 -0.1720  1.1196  0.5966
 1651TIP3    H226513   6.189   1.681   1.777 -0.7562  0.3728 -0.9542
 1652TIP3   OH226514   1.087   2.011   7.450  0.3406 -0.0401 -0.0543
 1652TIP3    H126515   1.052   2.009   7.360  0.7492 -0.4508 -0.2072
 1652TIP3    H226516   1.033   1.948   7.498 -0.4920  0.8597  0.2248
 1653TIP3   OH226517   1.426   0.830   0.850  0.2602 -0.0068 -0.0102
 1653TIP3    H126518   1.460   0.910   0.811 -0.2015 -0.4684 -1.4290
 1653TIP3    H226519   1.353   0.805   0.794  0.2037 -1.2540  0.5783
 1654TIP3   OH226520   5.293   2.169   6.560  0.0882 -0.3445 -0.0789
 1654TIP3    H126521   5.201   2.188   6.577  0.5071  0.5979  1.3291
 1654TIP3    H226522   5.334   2.255   6.551  0.9682 -0.7283  0.1434
 1655TIP3   OH226523   0.698   5.862   7.645  0.3722  0.7036  0.7243
 1655TIP3    H126524   0.765   5.794   7.635 -2.8584 -2.4450 -2.1222
 1655TIP3    H226525   0.712   5.921   7.571  0.0436  0.0178  0.1023
 1656TIP3   OH226526   2.659   0.695   2.156 -0.4385  0.3732 -0.6293
 1656TIP3    H126527   2.726   0.758   2.128  0.8226 -1.7026 -2.6434
 1656TIP3    H226528   2.662   0.698   2.252  2.1552  0.8105 -0.6529
 1657TIP3   OH226529   6.211   6.310   8.296 -0.2371  0.3762  0.3194
 1657TIP3    H126530   6.204   6.307   8.391  0.8883  0.6266  0.4234
 1657TIP3    H226531   6.243   6.224   8.271 -0.6931  0.2533  0.1442
 1658TIP3   OH226532   0.174   0.550   1.036  0.1419 -0.5735  0.7614
 1658TIP3    H126533   0.157   0.513   1.122  0.4612 -2.0611  0.2178
 1658TIP3    H226534   0.131   0.635   1.037  0.8518 -0.1917  2.6683
 1659TIP3   OH226535   3.366   4.738   0.326  0.2125  0.1527 -0.0585
 1659TIP3    H126536   3.281   4.776   0.346 -0.2705 -1.0352  0.2318
 1659TIP3    H226537   3.348   4.670   0.261  1.0105  0.2465 -0.3892
 1660TIP3   OH226538   6.424   0.064   0.044  0.1346 -0.1514 -0.6091
 1660TIP3    H126539   6.423   0.156   0.019  0.0354  0.1173  0.3401
 1660TIP3    H226540   6.381   0.019  -0.029 -2.7364  0.9251  0.2758
 1661TIP3   OH226541   3.533   4.974   0.298  0.1416  0.1572  0.5818
 1661TIP3    H126542   3.493   5.029   0.231  1.9240  0.6858 -0.1121
 1661TIP3    H226543   3.483   4.892   0.295  0.7879 -0.2362 -2.1656
 1662TIP3   OH226544   5.753   5.445   8.124 -0.1305 -0.1492  0.4068
 1662TIP3    H126545   5.751   5.370   8.183 -0.6941 -0.7445 -0.3613
 1662TIP3    H226546   5.661   5.461   8.102  0.1755 -2.1838 -3.0947
 1663TIP3   OH226547   0.094   1.374   6.964 -0.6100 -0.5379  0.0783
 1663TIP3    H126548   0.158   1.325   7.015 -1.0109 -0.7293  0.4023
 1663TIP3    H226549   0.069   1.316   6.893  1.8823  0.6628 -1.9186
 1664TIP3   OH226550   6.231   1.919   0.049  0.2230 -0.1871  0.3947
 1664TIP3    H126551   6.193   1.851   0.103  0.8158 -1.8122 -1.1383
 1664TIP3    H226552   6.214   1.891  -0.041  2.2837  0.6176 -0.3106
 1665TIP3   OH226553   2.386   2.799   8.614 -0.1148  0.1956  0.2460
 1665TIP3    H126554   2.323   2.782   8.545  1.3526  0.8588 -1.3099
 1665TIP3    H226555   2.373   2.891   8.637 -0.0863  0.1806  0.3248
 1666TIP3   OH226556   1.914   5.408   1.330 -0.1064 -0.4251  0.3999
 1666TIP3    H126557   1.973   5.419   1.256  0.7741 -2.3180  0.7463
 1666TIP3    H226558   1.969   5.422   1.407 -1.1676  2.2579  0.7727
 1667TIP3   OH226559   1.356   1.015   1.656 -0.6665 -0.0545 -0.0792
 1667TIP3    H126560   1.424   1.016   1.723  1.2053 -0.0600 -1.8699
 1667TIP3    H226561   1.360   1.102   1.616 -0.9741 -0.4085 -0.9035
 1668TIP3   OH226562   2.982   4.199   8.422 -0.3744  0.2380 -0.0252
 1668TIP3    H126563   2.917   4.255   8.464 -1.0846 -1.5036  1.3248
 1668TIP3    H226564   2.932   4.123   8.392  0.4513  0.5024 -2.3280
 1669TIP3   OH226565   1.890   6.129   2.351 -0.2170  0.0614 -0.2446
 1669TIP3    H126566   1.796   6.134   2.339 -0.4730  2.8663  2.0053
 1669TIP3    H226567   1.902   6.090   2.438  0.5896  1.2270  0.1972
 1670TIP3   OH226568   0.120   4.207   7.565  0.0769 -0.4690 -0.1059
 1670TIP3    H126569   0.034   4.164   7.566 -0.3714  0.4132  0.3249
 1670TIP3    H226570   0.112   4.277   7.629  0.6054  0.6385 -1.2155
 1671TIP3   OH226571   3.087   0.461   7.855 -0.1794  0.0477  0.4665
 1671TIP3    H126572   3.145   0.395   7.817 -0.9922  0.1984 -1.0916
 1671TIP3    H226573   3.010   0.411   7.883  0.6948 -0.1764  2.6772
 1672TIP3   OH226574   5.314   6.482   1.672 -0.1328 -0.2759  0.8938
 1672TIP3    H126575   5.251   6.494   1.743  0.9851 -1.6660  2.1825
 1672TIP3    H226576   5.328   6.388   1.667  0.7825 -0.1026 -0.3171
 1673TIP3   OH226577   1.209   1.609   7.721  0.1311 -0.2825  0.1650
 1673TIP3    H126578   1.157   1.633   7.644  1.2058  4.2028  0.5886
 1673TIP3    H226579   1.299   1.604   7.689  0.5149  1.0616  0.9876
 1674TIP3   OH226580   3.895   6.705   8.789  0.2693  0.1142 -0.0913
 1674TIP3    H126581   3.936   6.636   8.843  0.8730  0.5799  0.0575
 1674TIP3    H226582   3.803   6.681   8.786  0.5885 -1.1137 -0.6567
 1675TIP3   OH226583   0.076   6.050   7.081 -0.4144  0.2521 -0.1748
 1675TIP3    H126584   0.063   6.069   6.988  2.0356 -0.4999 -0.7315
 1675TIP3    H226585   0.099   5.957   7.084 -2.9166 -0.4350  1.5157
 1676TIP3   OH226586   1.455   2.087   0.753 -0.0605 -0.1974  0.3327
 1676TIP3    H126587   1.367   2.122   0.745 -0.2442 -0.2261  1.9691
 1676TIP3    H226588   1.451   2.027   0.828  1.4980  0.3554  0.9044
 1677TIP3   OH226589   3.391   4.952   1.089 -0.3897  0.2095  0.1325
 1677TIP3    H126590   3.450   4.877   1.080 -0.6943 -0.0396  0.1772
 1677TIP3    H226591   3.389   4.991   1.002 -0.3612  0.0610  0.0642
 1678TIP3   OH226592   5.269   6.221   0.735 -0.6402  0.2745 -0.8693
 1678TIP3    H126593   5.307   6.190   0.818 -1.4790  0.4749 -0.3940
 1678TIP3    H226594   5.318   6.175   0.667  0.2346  0.2965 -0.2707
 1679TIP3   OH226595   6.414   4.590   7.559 -0.3517  0.4178 -0.4182
 1679TIP3    H126596   6.487   4.629   7.608  0.5099 -1.4221 -0.1502
 1679TIP3    H226597   6.429   4.618   7.468  1.3528 -0.7791 -0.5592
 1680TIP3   OH226598   3.899   3.000   7.626  0.4695  0.5806  0.4498
 1680TIP3    H126599   3.892   2.957   7.712 -0.0140 -1.8204 -0.6967
 1680TIP3    H226600   3.808   3.015   7.600  0.3656 -1.9907 -1.0722
 1681TIP3   OH226601   4.471   3.697   0.275 -0.4566 -0.3144 -0.1937
 1681TIP3    H126602   4.447   3.720   0.186 -0.2130 -0.1737 -0.2242
 1681TIP3    H226603   4.517   3.613   0.268  1.4550  0.6957 -0.4690
 1682TIP3   OH226604   2.837   3.975   8.333 -1.0455  0.2245  0.5911
 1682TIP3    H126605   2.915   3.933   8.297 -1.8163 -1.3372  0.6513
 1682TIP3    H226606   2.784   3.998   8.257 -0.4153  1.6029  0.5307
 1683TIP3   OH226607   1.279   3.321   1.770  0.3824  0.2833  0.3848
 1683TIP3    H126608   1.274   3.260   1.843 -1.8470 -1.2393 -0.8736
 1683TIP3    H226609   1.236   3.401   1.802 -0.6276 -0.3851  0.7581
 1684TIP3   OH226610   1.776   4.526   0.178 -0.2267 -0.4854  0.3043
 1684TIP3    H126611   1.845   4.548   0.116 -0.6491 -1.8588 -0.6940
 1684TIP3    H226612   1.819   4.524   0.263  0.6442  0.1063 -0.1090
 1685TIP3   OH226613   1.073   0.119   7.585 -0.0722 -0.4253 -0.6001
 1685TIP3    H126614   1.069   0.025   7.569  0.6893 -0.6154  0.2301
 1685TIP3    H226615   1.148   0.149   7.534 -0.4831 -0.2078 -1.0882
 1686TIP3   OH226616   0.218   6.777   1.586 -0.0493 -0.8545  0.3867
 1686TIP3    H126617   0.284   6.764   1.518 -1.6601 -0.2471 -1.3998
 1686TIP3    H226618   0.167   6.696   1.586 -1.6308  0.0619 -1.0317
 1687TIP3   OH226619   6.359   5.382   1.175  0.0304 -0.3011 -0.7767
 1687TIP3    H126620   6.419   5.434   1.122  2.3133 -2.4888 -0.5239
 1687TIP3    H226621   6.415   5.318   1.219 -2.3352 -1.4673  0.7586
 1688TIP3   OH226622   6.696   6.208   7.268  0.1562  0.3771 -0.4883
 1688TIP3    H126623   6.786   6.218   7.298 -0.0790 -3.7794  2.5187
 1688TIP3    H226624   6.703   6.158   7.186  0.5087  2.7749 -2.0227
 1689TIP3   OH226625   4.116   0.693   1.702 -0.2788  0.6425  0.1094
 1689TIP3    H126626   4.172   0.769   1.720 -0.5397  1.2238 -1.3689
 1689TIP3    H226627   4.174   0.618   1.714  0.9453  1.2359 -1.5400
 1690TIP3   OH226628   6.041   5.899   1.928  0.0299 -0.3605 -0.4767
 1690TIP3    H126629   5.971   5.964   1.919  1.0651  0.5954 -2.1512
 1690TIP3    H226630   6.043   5.879   2.022 -0.2769  2.0890  0.1206
 1691TIP3   OH226631   3.478   4.582   8.151  0.1313 -0.0125 -0.4991
 1691TIP3    H126632   3.426   4.629   8.216  0.4617 -0.0242 -0.2274
 1691TIP3    H226633   3.565   4.575   8.189  0.1237 -0.7163 -0.6002
 1692TIP3   OH226634   5.712   0.957   1.382 -0.0443  0.1859 -0.2419
 1692TIP3    H126635   5.722   0.872   1.424  0.6744 -0.0565 -0.8912
 1692TIP3    H226636   5.702   1.019   1.454 -0.7895 -0.4634  0.2280
 1693TIP3   OH226637   0.462   6.620   6.379 -0.1016  0.2643  0.8346
 1693TIP3    H126638   0.423   6.689   6.325 -0.4703  0.2633  1.0943
 1693TIP3    H226639   0.554   6.644   6.386 -0.1469  0.5175  0.5932
 1694TIP3   OH226640   1.738   0.323   6.956 -0.5177  0.1101 -0.5569
 1694TIP3    H126641   1.818   0.325   6.903  0.8856  0.5791  1.4457
 1694TIP3    H226642   1.686   0.253   6.918  2.2086 -2.3244 -0.1670
 1695TIP3   OH226643   5.508   6.506   7.812  0.1842 -0.4275  0.1505
 1695TIP3    H126644   5.462   6.428   7.781  0.5792 -0.3169 -0.7177
 1695TIP3    H226645   5.598   6.496   7.782  0.4798 -0.1125  0.8964
 1696TIP3   OH226646   3.713   6.541   8.288 -0.2014 -0.0475 -0.2300
 1696TIP3    H126647   3.734   6.574   8.201 -1.3816  0.5773 -0.3019
 1696TIP3    H226648   3.617   6.540   8.290 -0.2471  1.9284  1.7844
 1697TIP3   OH226649   0.696   6.135   7.260 -0.2708 -0.7491  0.2075
 1697TIP3    H126650   0.791   6.147   7.266  0.0594 -2.3803 -1.1489
 1697TIP3    H226651   0.673   6.173   7.175 -0.8942 -0.1104  0.6553
 1698TIP3   OH226652   1.698   1.719   7.550 -0.6245  0.2117 -0.6444
 1698TIP3    H126653   1.760   1.792   7.554 -0.7066  0.2461  0.1963
 1698TIP3    H226654   1.745   1.645   7.589 -0.1416 -0.4994 -2.4932
 1699TIP3   OH226655   1.110   0.702   8.047 -0.1387  0.1939  0.5518
 1699TIP3    H126656   1.137   0.783   8.004  1.0672 -1.5387 -2.2402
 1699TIP3    H226657   1.040   0.668   7.990  1.8864 -2.4688 -0.5620
 1700TIP3   OH226658   6.455   1.719   8.620 -0.4925  0.2938  0.0420
 1700TIP3    H126659   6.462   1.626   8.600 -1.2128  0.2082  0.1588
 1700TIP3    H226660   6.506   1.763   8.551  1.2115 -0.2540  0.8914
 1701TIP3   OH226661   3.584   6.226   8.775 -0.0441  0.8934  0.2927
 1701TIP3    H126662   3.558   6.265   8.691  0.8173  0.4103 -0.2033
 1701TIP3    H226663   3.576   6.132   8.762 -0.4056  0.8288  0.9276
 1702TIP3   OH226664   6.647   4.853   1.682 -0.1500 -0.2463 -0.2492
 1702TIP3    H126665   6.654   4.758   1.679  0.8430 -0.2104  0.6002
 1702TIP3    H226666   6.668   4.876   1.773 -0.5153  0.7710 -0.4103
 1703TIP3   OH226667   5.693   5.619   1.069 -0.0322  0.4576 -0.2587
 1703TIP3    H126668   5.777   5.579   1.091  0.1283  0.6354 -0.5279
 1703TIP3    H226669   5.651   5.557   1.010 -0.7267 -0.2942  1.0014
 1704TIP3   OH226670   1.582   4.606   8.516  0.9328 -0.2471 -0.3119
 1704TIP3    H126671   1.508   4.619   8.576  0.2361  0.3942 -1.2842
 1704TIP3    H226672   1.657   4.593   8.574 -0.1875 -2.7939  0.7548
 1705TIP3   OH226673   0.090   6.091   6.505 -0.5432 -0.3612 -0.0833
 1705TIP3    H126674   0.106   6.161   6.443  1.1559 -0.2302  0.4544
 1705TIP3    H226675   0.125   6.012   6.463  1.2731 -0.1515  0.9322
 1706TIP3   OH226676   6.195   2.674   0.379  0.6312 -0.2813  0.0151
 1706TIP3    H126677   6.265   2.673   0.443 -0.0585 -0.3421  0.7806
 1706TIP3    H226678   6.129   2.613   0.413 -0.6660  1.2109  0.3205
 1707TIP3   OH226679   5.959   1.631   0.731  0.3185  0.5027 -0.6720
 1707TIP3    H126680   6.032   1.595   0.780  0.2109  0.0871 -0.8111
 1707TIP3    H226681   5.881   1.592   0.772  0.2651 -0.6196 -1.7716
 1708TIP3   OH226682   3.275   0.153   8.374  0.2055  0.2857  0.5931
 1708TIP3    H126683   3.344   0.129   8.312 -0.8434 -0.8126 -0.2012
 1708TIP3    H226684   3.218   0.076   8.378  0.3117  0.2500  3.0736
 1709TIP3   OH226685   2.577   3.657   0.611  1.1948 -0.3310 -0.4460
 1709TIP3    H126686   2.665   3.676   0.579  0.6244 -0.3748 -2.1017
 1709TIP3    H226687   2.583   3.672   0.706  2.3829  1.9543 -0.8141
 1710TIP3   OH226688   5.756   6.468   1.187  0.2343  0.4231  0.4528
 1710TIP3    H126689   5.678   6.461   1.131  1.3162  1.2817 -1.2334
 1710TIP3    H226690   5.748   6.394   1.247 -0.0183 -1.8261 -2.1295
 1711TIP3   OH226691   1.337   5.996   1.291 -0.5673  0.2627  0.4870
 1711TIP3    H126692   1.391   6.074   1.277 -1.8411  1.2783  1.0529
 1711TIP3    H226693   1.332   5.987   1.386 -0.9795 -0.1022  0.4336
 1712TIP3   OH226694   6.709   1.794   7.721 -0.3344  0.5626  0.5838
 1712TIP3    H126695   6.704   1.758   7.809  0.8330 -0.5406  0.2273
 1712TIP3    H226696   6.802   1.794   7.699 -0.6039  0.7306 -0.6750
 1713TIP3   OH226697   2.080   5.516   0.527 -0.1954 -0.1151 -0.1584
 1713TIP3    H126698   2.000   5.569   0.518  0.1311  0.3308 -0.4796
 1713TIP3    H226699   2.118   5.545   0.610 -0.6149 -0.6718  0.2321
 1714TIP3   OH226700   5.785   5.277   0.483 -0.5515  0.7083  0.4158
 1714TIP3    H126701   5.763   5.369   0.491  0.6326  1.1355 -0.8654
 1714TIP3    H226702   5.715   5.240   0.430 -0.7655  0.9818  0.5076
 1715TIP3   OH226703   2.567   5.447   1.279 -0.2513  0.0318 -0.2800
 1715TIP3    H126704   2.573   5.535   1.242 -0.2171 -0.2652 -1.0022
 1715TIP3    H226705   2.642   5.441   1.338 -0.0179  0.3433 -0.5412
 1716TIP3   OH226706   2.861   3.978   6.661 -0.0626  0.0884  0.4208
 1716TIP3    H126707   2.808   4.012   6.589 -0.0898 -0.8913 -0.0385
 1716TIP3    H226708   2.948   4.016   6.646 -0.0363 -0.2016 -0.2055
 1717TIP3   OH226709   6.185   3.184   8.173  0.3742 -0.4446  0.6427
 1717TIP3    H126710   6.234   3.259   8.208  0.9833 -0.5451  0.0342
 1717TIP3    H226711   6.240   3.150   8.103 -1.3196  0.5041 -1.2679
 1718TIP3   OH226712   6.570   0.355   1.669  0.1592  0.0024 -0.5827
 1718TIP3    H126713   6.514   0.398   1.605  1.0398  0.7775 -0.8525
 1718TIP3    H226714   6.639   0.313   1.616  1.7014  1.8257 -0.1148
 1719TIP3   OH226715   1.258   6.777   0.782  0.6090 -0.4403 -0.5382
 1719TIP3    H126716   1.260   6.868   0.754 -0.2897 -0.4152 -0.5674
 1719TIP3    H226717   1.215   6.731   0.710 -0.4828 -0.5995  0.1939
 1720TIP3   OH226718   6.393   2.594   1.178  0.2428  0.6783 -0.2364
 1720TIP3    H126719   6.440   2.537   1.117  0.2972  0.5480 -0.0735
 1720TIP3    H226720   6.390   2.678   1.133  0.8783  0.7629 -0.1340
 1721TIP3   OH226721   1.987   5.817   8.413  0.3256 -0.3398 -0.3630
 1721TIP3    H126722   1.919   5.805   8.479  0.2431  1.8338  0.0442
 1721TIP3    H226723   1.965   5.755   8.344 -2.2196  0.4286 -0.3404
 1722TIP3   OH226724   1.473   5.370   7.124  0.0574 -1.1329  0.2367
 1722TIP3    H126725   1.412   5.439   7.096  1.7374  0.0730 -0.6474
 1722TIP3    H226726   1.490   5.320   7.044  0.5915 -1.1654  0.3694
 1723TIP3   OH226727   0.826   1.212   1.579  0.0597 -0.0787  1.1433
 1723TIP3    H126728   0.886   1.255   1.517 -0.1096 -0.2480  0.8557
 1723TIP3    H226729   0.871   1.217   1.663  0.2598  0.2276  1.0228
 1724TIP3   OH226730   3.951   1.772   7.670 -0.2169 -0.0208 -0.2504
 1724TIP3    H126731   3.986   1.697   7.718  0.2092 -0.7195 -1.5969
 1724TIP3    H226732   4.010   1.784   7.596  1.4143  3.4875  1.3955
 1725TIP3   OH226733   1.903   4.400   7.841  0.2317 -0.1385 -0.1674
 1725TIP3    H126734   1.992   4.406   7.807  0.6801  3.1853  1.2096
 1725TIP3    H226735   1.890   4.482   7.889 -1.8967 -2.4829  3.8247
 1726TIP3   OH226736   5.963   2.822   2.607 -0.3882  0.4206  0.3151
 1726TIP3    H126737   6.025   2.755   2.632 -0.7042  0.0588  0.1371
 1726TIP3    H226738   6.016   2.901   2.593 -0.0436  0.2538  0.6995
 1727TIP3   OH226739   2.038   5.712   0.748  0.2205 -0.2499  0.5438
 1727TIP3    H126740   2.056   5.797   0.789  2.4845 -0.3947 -0.0497
 1727TIP3    H226741   2.031   5.651   0.821  0.0519  0.2051  0.9087
 1728TIP3   OH226742   4.734   1.004   1.144  0.5039  0.0652  0.6413
 1728TIP3    H126743   4.801   1.044   1.200  0.3507  0.6611  0.4058
 1728TIP3    H226744   4.763   0.913   1.134  1.6611  0.4780 -0.0277
 1729TIP3   OH226745   4.113   6.770   1.241 -0.3800  0.2311 -0.5535
 1729TIP3    H126746   4.072   6.852   1.214  0.3351  0.2894 -1.5321
 1729TIP3    H226747   4.205   6.792   1.256  0.0756 -0.5713 -1.9137
 1730TIP3   OH226748   0.485   5.815   7.828  0.0831 -0.0923 -0.3795
 1730TIP3    H126749   0.548   5.848   7.762  2.6178 -1.2761  1.2839
 1730TIP3    H226750   0.447   5.894   7.865 -0.9323  0.6264 -2.7290
 1731TIP3   OH226751   4.982   2.570   7.426 -0.1374  0.0274  0.4230
 1731TIP3    H126752   5.060   2.617   7.458 -0.2950  0.8259 -0.3429
 1731TIP3    H226753   4.932   2.636   7.378 -0.0550 -1.0666 -1.2434
 1732TIP3   OH226754   0.298   3.787   2.063  0.1988 -0.0865 -0.2433
 1732TIP3    H126755   0.212   3.767   2.098  0.3674 -1.4426 -0.5305
 1732TIP3    H226756   0.343   3.702   2.060  0.8131  0.2558 -2.0381
 1733TIP3   OH226757   5.448   4.535   0.928 -0.6478 -0.2343 -0.5149
 1733TIP3    H126758   5.534   4.516   0.892 -0.9756 -0.4590 -1.2079
 1733TIP3    H226759   5.448   4.496   1.016  0.8688  2.0298  0.5784
 1734TIP3   OH226760   1.864   3.458   1.008  0.0680 -0.2463 -0.3775
 1734TIP3    H126761   1.958   3.477   1.009 -0.0394  0.2866 -0.2478
 1734TIP3    H226762   1.825   3.531   0.959 -0.3416 -0.1728  0.0575
 1735TIP3   OH226763   6.609   3.899   0.908  0.4253 -0.0383 -0.0392
 1735TIP3    H126764   6.636   3.854   0.989  1.7548  0.7184 -0.0229
 1735TIP3    H226765   6.691   3.917   0.863 -0.1693  1.1651 -0.6854
 1736TIP3   OH226766   1.785   2.232   1.881  0.0882 -0.0487  0.2947
 1736TIP3    H126767   1.873   2.230   1.842  0.3117 -0.2174  0.7978
 1736TIP3    H226768   1.728   2.256   1.809  0.4252 -0.8836 -0.2741
 1737TIP3   OH226769   1.845   6.009   8.756  0.2637  0.1459 -0.7048
 1737TIP3    H126770   1.917   6.070   8.770  0.4635 -0.6575  2.3410
 1737TIP3    H226771   1.775   6.063   8.719  1.3696  1.5801 -0.7799
 1738TIP3   OH226772   3.002   0.364   8.335  0.3228 -0.1045 -0.0202
 1738TIP3    H126773   2.975   0.456   8.343  0.6457  0.3362 -2.6980
 1738TIP3    H226774   3.084   0.369   8.284 -1.0493 -1.9213 -2.6370
 1739TIP3   OH226775   2.025   1.263   8.517 -0.3123 -0.2478  0.0534
 1739TIP3    H126776   2.121   1.271   8.514 -0.4479  3.7515  0.1328
 1739TIP3    H226777   2.002   1.292   8.605 -1.6429  0.9626 -0.6523
 1740TIP3   OH226778   4.244   0.982   8.754 -0.0020  0.7634  0.6672
 1740TIP3    H126779   4.242   1.027   8.670 -0.5519  0.2587  0.4021
 1740TIP3    H226780   4.277   0.894   8.734 -1.9971 -0.0437  0.6060
 1741TIP3   OH226781   0.712   6.577   7.445  0.1290  0.8329 -0.5540
 1741TIP3    H126782   0.781   6.511   7.437  0.4237  0.9604  0.6496
 1741TIP3    H226783   0.737   6.646   7.384  1.6221  1.3180  0.5377
 1742TIP3   OH226784   5.920   2.790   8.462 -0.1183 -0.2150 -0.1824
 1742TIP3    H126785   5.924   2.697   8.440 -0.1852 -0.1291 -0.5699
 1742TIP3    H226786   5.933   2.793   8.557  0.6333 -0.5615 -0.2692
 1743TIP3   OH226787   5.168   5.466   7.748  0.2214  0.2218  0.8149
 1743TIP3    H126788   5.096   5.528   7.734  1.0793  0.7600 -1.8075
 1743TIP3    H226789   5.246   5.521   7.750  0.8285 -0.6062  0.4515
 1744TIP3   OH226790   5.375   4.449   0.604 -0.0619  0.0062  0.1266
 1744TIP3    H126791   5.462   4.424   0.634 -0.0667 -0.1530  0.0052
 1744TIP3    H226792   5.326   4.367   0.599  0.4191 -0.2049 -1.8981
 1745TIP3   OH226793   6.281   6.508   0.322 -0.4452  0.2418  0.3476
 1745TIP3    H126794   6.347   6.460   0.272  0.5531  0.2204  1.6616
 1745TIP3    H226795   6.248   6.573   0.260  1.2437  0.6564 -0.1665
 1746TIP3   OH226796   3.234   6.284   0.260  0.5531  0.9988  0.6481
 1746TIP3    H126797   3.191   6.200   0.241  3.1597 -0.1876 -0.5030
 1746TIP3    H226798   3.273   6.272   0.347 -1.0983  1.9738  1.5738
 1747TIP3   OH226799   6.233   0.117   0.929 -0.7831  0.4608  0.4791
 1747TIP3    H126800   6.318   0.111   0.885 -1.0495 -1.7069  0.1586
 1747TIP3    H226801   6.226   0.209   0.955  0.9491  1.0290 -0.8779
 1748TIP3   OH226802   3.431   6.284   7.181 -0.2452 -0.1001  0.2795
 1748TIP3    H126803   3.357   6.230   7.152  0.0991 -0.4847  0.0962
 1748TIP3    H226804   3.489   6.286   7.105  0.1108 -0.1180  0.5500
 1749TIP3   OH226805   6.283   2.769   1.398 -0.0097 -0.0151  0.1257
 1749TIP3    H126806   6.292   2.676   1.381 -1.3207 -0.2834  0.7545
 1749TIP3    H226807   6.217   2.775   1.467 -0.8464  1.4297 -0.7263
 1750TIP3   OH226808   5.823   2.794   7.385 -0.5882 -0.1760 -0.0506
 1750TIP3    H126809   5.802   2.850   7.310 -1.5922 -1.4690 -0.7870
 1750TIP3    H226810   5.824   2.853   7.460 -0.2884  1.0318 -0.9798
 1751TIP3   OH226811   4.235   3.679   6.938 -0.7811  0.1225 -0.1198
 1751TIP3    H126812   4.320   3.676   6.895 -0.5171 -1.1705  0.4679
 1751TIP3    H226813   4.174   3.647   6.872 -0.2959 -2.4538  0.5886
 1752TIP3   OH226814   0.229   4.075   8.724 -0.5081  0.1709  0.1386
 1752TIP3    H126815   0.156   4.135   8.713  0.7723  1.5840 -1.1826
 1752TIP3    H226816   0.299   4.128   8.763 -0.5525 -1.4805  2.7416
 1753TIP3   OH226817   5.472   3.029   0.311  0.3773  0.0055 -0.2503
 1753TIP3    H126818   5.488   3.028   0.216 -0.8460  2.0898 -0.5220
 1753TIP3    H226819   5.455   2.937   0.333 -1.4987 -0.2538 -2.4677
 1754TIP3   OH226820   2.388   4.550   8.167  0.2489 -0.2069  0.1676
 1754TIP3    H126821   2.393   4.510   8.080 -0.2779  2.7796 -1.3964
 1754TIP3    H226822   2.295   4.546   8.189  0.0117  0.9427 -0.4929
 1755TIP3   OH226823   5.572   2.662   1.295  0.1571  0.4985  0.4984
 1755TIP3    H126824   5.574   2.567   1.302  0.5460  0.5010  0.4472
 1755TIP3    H226825   5.491   2.688   1.340 -0.5604  0.0689 -0.5137
 1756TIP3   OH226826   5.992   3.579   7.515  0.0479  0.9842 -0.0943
 1756TIP3    H126827   6.042   3.649   7.556 -0.3652  1.3724 -0.2428
 1756TIP3    H226828   6.053   3.538   7.454  0.4016  0.9715  0.2684
 1757TIP3   OH226829   4.296   3.116   7.239 -0.2665 -0.2269  0.3050
 1757TIP3    H126830   4.308   3.192   7.296  2.8957 -1.9887  2.3013
 1757TIP3    H226831   4.217   3.073   7.272 -1.8296  1.8355 -0.5566
 1758TIP3   OH226832   3.058   6.388   0.849  0.2931 -0.5326 -0.1188
 1758TIP3    H126833   3.145   6.347   0.841 -0.1866 -1.3501 -1.4516
 1758TIP3    H226834   3.076   6.481   0.854  1.4840 -0.7895  3.7469
 1759TIP3   OH226835   6.458   4.936   7.066 -0.4139 -0.1919  0.3455
 1759TIP3    H126836   6.494   4.848   7.077 -0.9001 -0.5566 -0.8235
 1759TIP3    H226837   6.365   4.922   7.046  0.0347  0.3715 -2.6567
 1760TIP3   OH226838   2.370   4.739   1.165  0.4276  0.1174 -0.1079
 1760TIP3    H126839   2.423   4.788   1.103  0.2006  1.1727  0.4978
 1760TIP3    H226840   2.407   4.762   1.251  0.3901 -0.8795  0.1903
 1761TIP3   OH226841   6.596   3.701   1.564 -0.0995 -0.3264  0.4608
 1761TIP3    H126842   6.556   3.619   1.592 -0.3006 -0.2852  0.2992
 1761TIP3    H226843   6.521   3.757   1.540  0.0866 -0.6516 -0.9936
 1762TIP3   OH226844   1.987   1.960   2.274 -0.2366  0.0645 -0.3725
 1762TIP3    H126845   2.030   1.886   2.317 -2.2707 -0.6655  0.5354
 1762TIP3    H226846   1.906   1.972   2.323 -0.9703  1.5140 -1.8602
 1763TIP3   OH226847   6.399   5.095   1.006  0.7401 -0.0623  0.1286
 1763TIP3    H126848   6.447   5.019   0.974  0.1931 -0.5695  0.5073
 1763TIP3    H226849   6.415   5.096   1.100 -2.5201 -2.1205  0.8463
 1764TIP3   OH226850   3.933   3.907   7.113  0.6695  0.3077 -0.2332
 1764TIP3    H126851   3.888   3.834   7.071 -0.6003  0.7287  0.3766
 1764TIP3    H226852   4.012   3.868   7.151 -0.1648 -0.8083  0.3814
 1765TIP3   OH226853   0.378   6.742   7.723 -0.2019 -0.1146  1.0456
 1765TIP3    H126854   0.395   6.670   7.784  0.2592 -1.2255 -0.3602
 1765TIP3    H226855   0.465   6.776   7.701 -0.3663  0.2480  0.9415
 1766TIP3   OH226856   6.161   5.632   7.366 -0.8545  0.3096  0.5078
 1766TIP3    H126857   6.138   5.690   7.293  0.5250  1.2139  0.7549
 1766TIP3    H226858   6.079   5.620   7.414 -1.3360  1.4057 -0.0111
 1767TIP3   OH226859   5.772   1.378   2.312 -0.3102 -0.4153 -0.4214
 1767TIP3    H126860   5.708   1.405   2.377 -1.2455 -1.1024 -1.0250
 1767TIP3    H226861   5.850   1.357   2.363 -0.5450  0.4640  0.3272
 1768TIP3   OH226862   5.408   3.381   1.468  0.6490  0.8071  0.4347
 1768TIP3    H126863   5.316   3.360   1.485  0.5514  2.7391  2.9040
 1768TIP3    H226864   5.406   3.434   1.388 -0.3047  0.3561  0.1419
 1769TIP3   OH226865   5.359   1.116   8.154  0.9168  0.3787  0.6239
 1769TIP3    H126866   5.297   1.043   8.148  1.5598 -0.0854 -1.2381
 1769TIP3    H226867   5.346   1.165   8.073  0.5146  2.3725  1.8273
 1770TIP3   OH226868   5.618   0.682   7.430 -0.1290  0.1704 -0.2831
 1770TIP3    H126869   5.605   0.680   7.525 -0.2804  1.8796 -0.2415
 1770TIP3    H226870   5.651   0.595   7.408 -1.3539 -0.6959  1.1481
 1771TIP3   OH226871   1.499   1.140   8.123  0.2178 -0.2225 -0.4443
 1771TIP3    H126872   1.429   1.205   8.129  0.9291  0.4653  0.8407
 1771TIP3    H226873   1.461   1.060   8.160  0.4533  0.4824  1.4353
 1772TIP3   OH226874   4.683   2.587   1.340  0.5293 -0.0441  0.1625
 1772TIP3    H126875   4.698   2.681   1.328 -0.6496  0.3598  1.5649
 1772TIP3    H226876   4.608   2.567   1.284 -0.1108  0.1826  0.9135
 1773TIP3   OH226877   6.635   6.272   7.534  0.6626 -0.2952 -0.4741
 1773TIP3    H126878   6.721   6.290   7.570  0.0788  2.9733 -0.4368
 1773TIP3    H226879   6.652   6.237   7.446  1.9747 -1.9687  0.3850
 1774TIP3   OH226880   2.643   2.320   0.371  0.3479  0.5707  0.2250
 1774TIP3    H126881   2.687   2.318   0.286 -0.7370  0.1895 -0.3618
 1774TIP3    H226882   2.585   2.396   0.366  0.6946  0.8716  0.8416
 1775TIP3   OH226883   0.589   3.371   1.886  0.1297  0.1222  0.1671
 1775TIP3    H126884   0.639   3.296   1.853 -0.3120  0.1943 -0.7168
 1775TIP3    H226885   0.653   3.423   1.935  1.2168  0.7182 -1.7397
 1776TIP3   OH226886   0.513   4.130   0.787  0.5683 -0.2730 -0.0683
 1776TIP3    H126887   0.550   4.217   0.802 -2.4289  1.2406 -0.7233
 1776TIP3    H226888   0.515   4.088   0.873  0.9520  0.9088  0.5251
 1777TIP3   OH226889   0.926   1.682   6.838  0.1388  0.1647  0.5332
 1777TIP3    H126890   0.924   1.587   6.825 -0.6065  0.4097 -1.3353
 1777TIP3    H226891   1.016   1.707   6.817  0.5003 -0.1697  1.5977
 1778TIP3   OH226892   1.485   0.056   8.750 -0.2835 -0.4581  0.0518
 1778TIP3    H126893   1.446  -0.029   8.730  2.3535 -2.0579  1.2331
 1778TIP3    H226894   1.431   0.090   8.821 -1.3561 -1.1296 -0.4036
 1779TIP3   OH226895   3.940   5.594   8.367  0.2871 -0.3197 -0.0190
 1779TIP3    H126896   3.968   5.684   8.387 -0.4401  0.2089 -1.2428
 1779TIP3    H226897   4.010   5.539   8.401  1.1544  0.7694  0.0110
 1780TIP3   OH226898   1.544   0.610   1.147 -0.7052 -0.3743 -0.1047
 1780TIP3    H126899   1.504   0.693   1.123  0.1431  0.4279  1.1890
 1780TIP3    H226900   1.526   0.600   1.241  3.0304  0.6037  0.8627
 1781TIP3   OH226901   4.892   6.462   7.439 -0.2974  0.2916  0.0883
 1781TIP3    H126902   4.945   6.516   7.381  0.5883 -0.7750 -0.1328
 1781TIP3    H226903   4.884   6.512   7.520 -0.2704  1.1308 -0.4178
 1782TIP3   OH226904   3.282   1.658   0.057  0.0843 -0.0617  0.2971
 1782TIP3    H126905   3.308   1.727  -0.005 -1.5642  0.4139  0.0743
 1782TIP3    H226906   3.361   1.605   0.069  0.2206 -0.8570 -3.1024
 1783TIP3   OH226907   4.775   0.126   8.466 -0.2697 -0.5465 -0.3203
 1783TIP3    H126908   4.703   0.155   8.410 -0.4019 -0.3591 -0.0576
 1783TIP3    H226909   4.819   0.057   8.416  0.1925  0.2644 -1.0585
 1784TIP3   OH226910   2.434   5.657   6.711 -0.4920 -0.3529  0.0962
 1784TIP3    H126911   2.361   5.620   6.760 -1.1469  0.4977 -0.2112
 1784TIP3    H226912   2.393   5.719   6.650  0.6587  1.8668  1.4712
 1785TIP3   OH226913   6.072   5.299   8.013  0.1420  0.4773  0.5052
 1785TIP3    H126914   6.083   5.393   8.026  1.1429  0.5750 -0.7994
 1785TIP3    H226915   6.004   5.292   7.946 -0.0269  0.2691  0.6993
 1786TIP3   OH226916   4.971   6.001   0.587 -0.0797  0.0484  0.0109
 1786TIP3    H126917   4.975   5.984   0.681 -0.5687  0.8855  0.1883
 1786TIP3    H226918   4.886   5.967   0.560 -0.8140  1.5754  0.2619
 1787TIP3   OH226919   4.393   0.579   1.443  0.2509  0.7999 -0.2809
 1787TIP3    H126920   4.436   0.504   1.401  1.2055 -0.0796  2.0776
 1787TIP3    H226921   4.408   0.565   1.536 -2.0390  2.4631  0.4175
 1788TIP3   OH226922   3.550   6.085   2.087  0.1073 -0.6465  0.1676
 1788TIP3    H126923   3.619   6.020   2.105  0.0236 -1.1275 -1.1718
 1788TIP3    H226924   3.469   6.042   2.114  0.3556  0.3559  2.8877
 1789TIP3   OH226925   5.188   0.894   7.598  0.3959  0.0095 -0.0616
 1789TIP3    H126926   5.102   0.854   7.594 -0.2801  1.0978  1.9673
 1789TIP3    H226927   5.209   0.916   7.507 -1.4225 -0.3708 -0.6084
 1790TIP3   OH226928   4.492   4.811   8.235  0.4439 -0.1383 -0.1243
 1790TIP3    H126929   4.511   4.829   8.143 -2.6428 -0.5074 -0.9198
 1790TIP3    H226930   4.513   4.893   8.280 -2.7097  1.8595 -1.9874
 1791TIP3   OH226931   4.420   2.768   8.262 -0.6106  0.2512  0.1752
 1791TIP3    H126932   4.411   2.797   8.352 -0.2576  1.2041 -0.0805
 1791TIP3    H226933   4.492   2.705   8.263 -0.6152  0.2534  0.5551
 1792TIP3   OH226934   3.493   0.388   1.435  0.5689 -0.6387  0.9298
 1792TIP3    H126935   3.564   0.331   1.403  1.1462  0.5582 -0.0217
 1792TIP3    H226936   3.504   0.390   1.530  1.3821 -1.0379  0.8517
 1793TIP3   OH226937   1.320   5.787   8.842 -0.2136 -0.5951  0.1483
 1793TIP3    H126938   1.413   5.808   8.840 -0.1941 -0.5347  1.2305
 1793TIP3    H226939   1.316   5.697   8.875 -0.6286  0.2953  2.7388
 1794TIP3   OH226940   3.085   2.290   0.348 -0.9117 -0.0830 -0.5738
 1794TIP3    H126941   3.168   2.334   0.333 -1.2937 -0.3217 -4.3191
 1794TIP3    H226942   3.033   2.353   0.399  1.4850 -0.0347  2.0710
 1795TIP3   OH226943   1.171   1.680   1.207 -0.1685 -0.7838 -0.1549
 1795TIP3    H126944   1.232   1.740   1.249 -1.8739  0.6610  0.3813
 1795TIP3    H226945   1.087   1.697   1.249 -0.8109 -3.2986 -0.2826
 1796TIP3   OH226946   5.594   0.575   1.410  0.0017 -0.2748 -0.1388
 1796TIP3    H126947   5.634   0.619   1.336 -2.2753 -1.8064 -2.4423
 1796TIP3    H226948   5.664   0.522   1.447  1.2895  0.8245 -0.9041
 1797TIP3   OH226949   0.525   4.231   7.545 -0.7036  0.1339 -0.2665
 1797TIP3    H126950   0.601   4.178   7.566  0.0910  1.1450 -0.5144
 1797TIP3    H226951   0.472   4.176   7.487 -0.4602 -0.7960  0.3727
 1798TIP3   OH226952   0.436   2.706   7.848  0.1896 -0.2014 -0.4558
 1798TIP3    H126953   0.382   2.628   7.834 -2.6674  1.6600 -0.8323
 1798TIP3    H226954   0.460   2.735   7.760  0.9295 -0.4252 -0.3358
 1799TIP3   OH226955   4.152   5.533   7.281 -0.1575  0.1533  0.3611
 1799TIP3    H126956   4.082   5.593   7.254 -0.1938  0.5768  1.3687
 1799TIP3    H226957   4.229   5.563   7.232 -1.0091 -1.3892 -2.1209
 1800TIP3   OH226958   4.527   6.165   1.692  0.3863  0.3371 -0.2057
 1800TIP3    H126959   4.516   6.176   1.786  1.2150 -0.4689 -0.0029
 1800TIP3    H226960   4.450   6.115   1.664  0.5838 -0.1960  0.1964
 1801TIP3   OH226961   6.537   2.692   7.776  0.1493  0.5390  0.3193
 1801TIP3    H126962   6.532   2.774   7.727 -1.7729  0.7923  0.8719
 1801TIP3    H226963   6.629   2.665   7.768  0.4734  1.9385 -1.1468
 1802TIP3   OH226964   6.298   5.085   0.743 -0.1703 -0.4797  0.7317
 1802TIP3    H126965   6.393   5.087   0.732 -0.1219 -0.8905  1.0918
 1802TIP3    H226966   6.281   5.145   0.816 -0.1354 -0.8507  1.0461
 1803TIP3   OH226967   4.333   4.950   8.697  0.2165 -0.1428  0.2828
 1803TIP3    H126968   4.329   4.910   8.610  2.1626  1.4998 -0.6336
 1803TIP3    H226969   4.261   4.909   8.745  0.7095 -3.0347 -1.2430
 1804TIP3   OH226970   3.035   5.161   1.750  0.2746  0.2866 -0.0519
 1804TIP3    H126971   2.992   5.222   1.810 -0.1427  0.5910 -0.6512
 1804TIP3    H226972   3.128   5.177   1.763  0.2112 -0.0221  0.8910
 1805TIP3   OH226973   2.917   4.537   0.910 -0.0206 -0.3227  0.1702
 1805TIP3    H126974   2.953   4.449   0.897  1.4606  0.0596  1.4289
 1805TIP3    H226975   2.977   4.594   0.863 -0.9812  0.0447 -0.6428
 1806TIP3   OH226976   1.378   4.550   6.903  0.0373 -0.6416  0.9113
 1806TIP3    H126977   1.427   4.468   6.898  2.3687  0.6665  0.9918
 1806TIP3    H226978   1.333   4.556   6.819  0.6001 -1.5544  0.5242
 1807TIP3   OH226979   1.039   5.996   6.666 -0.0546 -0.5122  0.1410
 1807TIP3    H126980   1.043   5.901   6.675  1.3968 -0.3597  1.5117
 1807TIP3    H226981   1.088   6.029   6.741  0.0003  1.3091 -0.6536
 1808TIP3   OH226982   2.823   4.740   0.314  0.0657 -0.1380  0.3705
 1808TIP3    H126983   2.866   4.751   0.229  0.8664  2.7399  1.0549
 1808TIP3    H226984   2.731   4.730   0.293  0.2395  0.6743 -0.8552
 1809TIP3   OH226985   3.106   2.343   8.100 -0.6085  0.4263 -0.8069
 1809TIP3    H126986   3.172   2.373   8.038 -0.2076  0.6972 -0.2607
 1809TIP3    H226987   3.083   2.255   8.070  0.0356  0.3096 -0.9883
 1810TIP3   OH226988   0.543   3.374   6.533 -0.4867  0.3066  0.2845
 1810TIP3    H126989   0.450   3.395   6.531 -0.4379  0.4918 -0.2969
 1810TIP3    H226990   0.580   3.430   6.601 -0.2890  2.4783 -1.4824
 1811TIP3   OH226991   2.798   3.214   5.878 -0.7125 -0.1796  0.1786
 1811TIP3    H126992   2.786   3.308   5.864  1.8009  0.0787 -0.7440
 1811TIP3    H226993   2.869   3.207   5.941  0.4410 -1.4077 -1.1594
 1812TIP3   OH226994   5.354   6.720   7.743 -0.4277  0.2968 -0.2093
 1812TIP3    H126995   5.418   6.790   7.734 -0.0694 -0.0789 -0.6102
 1812TIP3    H226996   5.406   6.640   7.753 -0.8242 -0.0143 -0.5697
 1813TIP3   OH226997   2.426   1.614   8.724  0.7332 -0.2117  0.9357
 1813TIP3    H126998   2.332   1.598   8.720  0.5875  0.2575  2.0649
 1813TIP3    H226999   2.434   1.709   8.733  1.4441  0.0936 -1.9162
 1814TIP3   OH227000   2.398   1.596   0.344 -0.1812 -0.3981 -0.7719
 1814TIP3    H127001   2.415   1.520   0.401 -0.4666 -0.2801 -0.5298
 1814TIP3    H227002   2.459   1.663   0.375 -1.3536  0.1789  0.3929
 1815TIP3   OH227003   6.198   2.563   7.813  0.4892  0.3956  0.1733
 1815TIP3    H127004   6.127   2.512   7.851  0.2430  0.2595 -0.4596
 1815TIP3    H227005   6.187   2.651   7.849 -0.4311  0.5565 -0.4518
 1816TIP3   OH227006   2.588   5.952   0.786  0.2154  0.1237  0.0055
 1816TIP3    H127007   2.494   5.964   0.775 -0.2169 -1.2797  1.8066
 1816TIP3    H227008   2.609   5.998   0.867  1.3532  1.4306 -0.9723
 1817TIP3   OH227009   4.608   1.947   0.133 -0.0766  0.1006  0.1203
 1817TIP3    H127010   4.613   1.961   0.038 -0.9401 -2.1694 -0.3234
 1817TIP3    H227011   4.669   1.875   0.150  0.4064  0.7794  1.3848
 1818TIP3   OH227012   0.313   0.040   8.460 -0.0922 -0.0902 -0.2329
 1818TIP3    H127013   0.399  -0.000   8.449  0.3495  0.7969 -0.0703
 1818TIP3    H227014   0.327   0.133   8.445 -0.9389  0.1332  0.2655
 1819TIP3   OH227015   4.120   4.570   6.501  0.0416 -0.2104 -0.3538
 1819TIP3    H127016   4.155   4.515   6.571 -0.6827 -0.6574 -0.3272
 1819TIP3    H227017   4.093   4.508   6.433  0.5172  0.2055 -0.9269
 1820TIP3   OH227018   5.906   2.575   6.336  0.4365  0.1504  0.0414
 1820TIP3    H127019   5.811   2.569   6.342  0.4090  0.9182  0.4823
 1820TIP3    H227020   5.928   2.532   6.253 -0.6063  2.7759 -1.7537
 1821TIP3   OH227021   4.271   5.246   6.918  0.2146 -0.6227 -0.2339
 1821TIP3    H127022   4.241   5.197   6.842  0.2673 -0.0767 -0.6044
 1821TIP3    H227023   4.214   5.322   6.923 -0.5121 -1.1992  0.9250
 1822TIP3   OH227024   5.386   0.845   7.788  0.1173  0.0985  0.2019
 1822TIP3    H127025   5.314   0.847   7.724 -0.7099 -1.4065  1.0271
 1822TIP3    H227026   5.342   0.847   7.873  1.0553 -0.6699  0.7191
 1823TIP3   OH227027   2.082   6.150   0.746  0.0843 -0.0219 -0.2467
 1823TIP3    H127028   1.991   6.134   0.720  0.0230  0.7075 -0.4994
 1823TIP3    H227029   2.096   6.243   0.727  1.4768 -0.5413 -2.0413
 1824TIP3   OH227030   4.584   6.740   0.762  0.1666  0.2126  0.4142
 1824TIP3    H127031   4.509   6.763   0.708 -2.3883 -1.3977  2.9460
 1824TIP3    H227032   4.611   6.654   0.731  1.2372  0.8993 -0.6633
 1825TIP3   OH227033   4.963   3.370   2.263  0.1622  0.0931  0.7655
 1825TIP3    H127034   5.049   3.328   2.268  0.5065  0.9087  2.3121
 1825TIP3    H227035   4.901   3.297   2.255  0.9575 -0.5166 -0.0775
 1826TIP3   OH227036   2.725   5.848   8.385 -0.0993  0.4127 -0.7760
 1826TIP3    H127037   2.705   5.938   8.408 -0.7578  0.0969 -0.0823
 1826TIP3    H227038   2.681   5.795   8.451  1.0159 -0.3962 -0.6325
 1827TIP3   OH227039   4.106   1.699   8.786 -0.1162  0.4883 -1.1033
 1827TIP3    H127040   4.123   1.610   8.814 -3.0761 -0.7027 -2.6623
 1827TIP3    H227041   4.028   1.726   8.834  1.5837  2.9619  0.5425
 1828TIP3   OH227042   3.378   5.201   0.586  0.0753 -0.2430  0.0828
 1828TIP3    H127043   3.348   5.253   0.512  1.1351 -0.1927 -0.3251
 1828TIP3    H227044   3.318   5.127   0.589 -1.7551  1.1970  0.9716
 1829TIP3   OH227045   5.669   1.332   6.656 -0.7413  0.7263  0.2383
 1829TIP3    H127046   5.626   1.252   6.628 -1.2099  0.3714  1.8468
 1829TIP3    H227047   5.598   1.383   6.697 -0.2704  1.5685  0.0194
 1830TIP3   OH227048   4.846   3.365   6.748  0.0946 -0.6073  0.0029
 1830TIP3    H127049   4.787   3.292   6.766  0.0324 -1.3892 -2.8625
 1830TIP3    H227050   4.931   3.324   6.734  0.4418  0.0640  0.1061
 1831TIP3   OH227051   3.075   2.314   7.729  0.0775  0.5830 -0.2321
 1831TIP3    H127052   3.110   2.252   7.794 -1.0342  0.1567 -0.0205
 1831TIP3    H227053   3.127   2.297   7.650  0.9267  0.5755  0.3123
 1832TIP3   OH227054   3.619   3.358   6.578  0.7789 -0.3368 -0.8492
 1832TIP3    H127055   3.652   3.273   6.605 -1.7291 -1.0653  0.1746
 1832TIP3    H227056   3.528   3.343   6.553 -0.2986  2.2309  0.9486
 1833TIP3   OH227057   3.335   2.478   7.336 -0.0759 -0.3044  0.5293
 1833TIP3    H127058   3.421   2.447   7.365  0.3701  0.9049  0.5566
 1833TIP3    H227059   3.321   2.559   7.384 -0.3048  0.5917 -0.9977
 1834TIP3   OH227060   4.385   5.750   8.409  0.2742  0.7140 -0.4956
 1834TIP3    H127061   4.439   5.748   8.488 -1.2011 -1.8512  0.5551
 1834TIP3    H227062   4.297   5.773   8.441 -0.5881 -1.4892 -1.1424
 1835TIP3   OH227063   1.987   3.515   7.995  0.4519 -0.3259 -0.1676
 1835TIP3    H127064   1.988   3.599   7.947 -0.0465 -0.7008 -0.8503
 1835TIP3    H227065   1.929   3.459   7.943  0.8431 -1.1193  0.2486
 1836TIP3   OH227066   1.185   4.787   8.582 -0.0834 -0.2340 -0.0002
 1836TIP3    H127067   1.236   4.768   8.661 -0.1682  0.4660  0.2266
 1836TIP3    H227068   1.250   4.816   8.518  0.2144 -2.3436 -0.7376
 1837TIP3   OH227069   0.973   0.735   2.313 -0.0145  0.3939  0.2051
 1837TIP3    H127070   1.039   0.756   2.379 -1.4975  2.1879  1.2121
 1837TIP3    H227071   0.968   0.813   2.258 -0.4471 -0.1999 -0.6298
 1838TIP3   OH227072   1.555   1.542   0.373 -0.3572  0.6253 -0.1709
 1838TIP3    H127073   1.597   1.604   0.433 -0.4274 -0.1297  0.6847
 1838TIP3    H227074   1.463   1.540   0.402  0.1517 -1.8299  1.5781
 1839TIP3   OH227075   0.151   0.605   1.859 -0.4314 -0.6538  0.1580
 1839TIP3    H127076   0.060   0.586   1.883 -0.5751 -0.2420 -0.0351
 1839TIP3    H227077   0.204   0.556   1.921 -0.7598 -2.4240 -0.8988
 1840TIP3   OH227078   6.534   0.405   7.159 -0.0448  0.2703  0.1370
 1840TIP3    H127079   6.607   0.391   7.219 -0.7066 -0.4194  0.8165
 1840TIP3    H227080   6.492   0.319   7.153 -1.0259  0.7446  0.0737
 1841TIP3   OH227081   4.064   1.794   8.123 -0.6248  0.2798 -0.0083
 1841TIP3    H127082   3.970   1.776   8.118 -0.5086 -0.1793 -0.6542
 1841TIP3    H227083   4.105   1.708   8.118 -0.1056  0.5959 -1.8439
 1842TIP3   OH227084   5.503   2.967   8.367 -0.1048 -0.4062 -0.3533
 1842TIP3    H127085   5.427   2.979   8.424  0.7005  1.3579  0.4001
 1842TIP3    H227086   5.554   3.047   8.376  1.7420 -1.4258 -1.0334
 1843TIP3   OH227087   4.822   6.733   8.045 -0.1160 -0.5600  0.5271
 1843TIP3    H127088   4.801   6.826   8.040 -0.8894 -0.7778 -1.6954
 1843TIP3    H227089   4.790   6.697   7.962  0.3801 -2.7681  1.2208
 1844TIP3   OH227090   4.784   4.171   6.289  0.2253 -0.0920  0.1728
 1844TIP3    H127091   4.732   4.177   6.369 -0.3301 -1.9289 -0.0064
 1844TIP3    H227092   4.735   4.222   6.225 -0.3544 -0.2288  0.5023
 1845TIP3   OH227093   3.413   2.864   7.875 -0.3766 -0.1922 -0.1066
 1845TIP3    H127094   3.383   2.907   7.796 -0.3946 -0.7294 -0.3940
 1845TIP3    H227095   3.346   2.883   7.941 -0.9369 -0.7019 -0.5247
 1846TIP3   OH227096   0.203   5.651   0.034 -0.8154 -0.4149 -0.4564
 1846TIP3    H127097   0.208   5.699  -0.049 -0.4495  1.5575  0.6246
 1846TIP3    H227098   0.132   5.588   0.021 -0.7698 -0.1518 -2.2496
 1847TIP3   OH227099   0.005   0.783   1.071  0.1702  0.4713 -0.2437
 1847TIP3    H127100  -0.077   0.735   1.084  0.1266  0.5029 -0.4129
 1847TIP3    H227101  -0.009   0.837   0.993  0.0481  1.1210  0.2150
 1848TIP3   OH227102   0.579   5.272   0.883 -0.3010  0.0455 -0.0415
 1848TIP3    H127103   0.625   5.329   0.945  1.5025 -1.1814 -0.1809
 1848TIP3    H227104   0.486   5.281   0.906  0.1979  0.7186  1.8720
 1849TIP3   OH227105   4.081   0.690   7.252 -0.1682  0.0844 -0.4985
 1849TIP3    H127106   4.044   0.676   7.339  0.9766 -0.9542 -0.1441
 1849TIP3    H227107   4.044   0.620   7.198  0.3176 -0.2370 -0.4319
 1850TIP3   OH227108   6.406   1.329   7.145  0.4763 -0.2275 -0.2670
 1850TIP3    H127109   6.440   1.400   7.200 -0.6184 -0.8015  1.2286
 1850TIP3    H227110   6.417   1.250   7.198 -2.6115 -0.5094  0.1807
 1851TIP3   OH227111   0.344   2.587   0.106  0.3903 -0.6871  0.1203
 1851TIP3    H127112   0.324   2.663   0.053 -0.4167 -0.0651  1.2597
 1851TIP3    H227113   0.340   2.513   0.045  3.0393  0.3086 -1.3956
 1852TIP3   OH227114   4.154   3.348   8.259  0.2465 -0.2050 -0.1276
 1852TIP3    H127115   4.100   3.403   8.202  0.5833  0.1475 -0.1077
 1852TIP3    H227116   4.130   3.258   8.236  0.1913 -0.0582 -0.6451
 1853TIP3   OH227117   5.594   2.854   0.053 -0.3423  0.5224 -0.7057
 1853TIP3    H127118   5.631   2.781   0.004 -0.4354  1.1708 -1.7789
 1853TIP3    H227119   5.666   2.888   0.105 -0.2816 -0.2802 -0.2488
 1854TIP3   OH227120   1.816   0.991   7.795 -0.2352  0.2075  0.2289
 1854TIP3    H127121   1.723   0.988   7.818  0.1874 -1.2452  2.0008
 1854TIP3    H227122   1.858   1.029   7.872  0.8624 -1.3362  0.4264
 1855TIP3   OH227123   0.326   1.041   1.113 -0.2903  0.3857  0.1172
 1855TIP3    H127124   0.318   0.956   1.069  1.2679 -0.1414  0.7559
 1855TIP3    H227125   0.236   1.070   1.126 -0.8381 -0.8742 -0.6805
 1856TIP3   OH227126   5.680   6.277   0.767  0.0866 -0.0769  0.1878
 1856TIP3    H127127   5.746   6.254   0.702  1.7552 -0.0757  1.7927
 1856TIP3    H227128   5.599   6.238   0.735  1.0582 -0.8748 -1.3850
 1857TIP3   OH227129   2.084   4.676   6.799  0.4675 -0.2393  0.1050
 1857TIP3    H127130   2.110   4.624   6.874  0.2302 -0.6837 -0.1131
 1857TIP3    H227131   2.065   4.612   6.730  0.3418  0.1404 -0.2254
 1858TIP3   OH227132   4.150   5.444   1.734  0.2031 -0.4515 -0.0457
 1858TIP3    H127133   4.091   5.397   1.794 -1.0342 -0.4201 -1.1888
 1858TIP3    H227134   4.161   5.530   1.773 -0.8227 -0.3329 -0.0057
 1859TIP3   OH227135   0.930   5.439   0.573  0.0170  0.6852 -0.2305
 1859TIP3    H127136   0.974   5.517   0.606 -0.4120  0.8461 -0.0301
 1859TIP3    H227137   0.991   5.402   0.508  0.8204  0.4322  0.6357
 1860TIP3   OH227138   2.433   3.236   0.900 -0.0145  0.7535  0.7223
 1860TIP3    H127139   2.484   3.159   0.876 -1.3635  0.1683 -0.4027
 1860TIP3    H227140   2.499   3.302   0.922  1.2140 -0.0885 -0.2637
 1861TIP3   OH227141   1.912   4.438   0.377 -0.3306  0.0870  0.2514
 1861TIP3    H127142   2.002   4.464   0.398 -0.2113 -0.2665  0.1907
 1861TIP3    H227143   1.900   4.355   0.423 -0.6046  0.1025  0.2063
 1862TIP3   OH227144   0.839   3.744   7.674  0.1466 -0.2685 -0.7978
 1862TIP3    H127145   0.793   3.719   7.754  1.5177  0.9005  0.4229
 1862TIP3    H227146   0.812   3.679   7.609 -1.7381 -0.6882  0.3409
 1863TIP3   OH227147   3.523   2.424   8.058  0.0184  0.3252  0.2704
 1863TIP3    H127148   3.538   2.366   8.132  1.6142 -0.2639 -0.4571
 1863TIP3    H227149   3.494   2.506   8.097 -0.1392 -0.2766  1.4691
 1864TIP3   OH227150   5.526   5.691   0.486  0.6167 -0.6772  0.2962
 1864TIP3    H127151   5.541   5.785   0.486  0.7112 -0.6264 -2.0409
 1864TIP3    H227152   5.611   5.653   0.466  0.7326 -1.3324  1.9063
 1865TIP3   OH227153   4.068   3.242   7.655  0.0626  0.5559  0.2709
 1865TIP3    H127154   4.040   3.253   7.746 -3.0658  1.2047 -0.6525
 1865TIP3    H227155   3.997   3.191   7.614  0.7077  1.4404 -2.0964
 1866TIP3   OH227156   0.159   6.351   8.172  0.1796 -0.1148 -0.0355
 1866TIP3    H127157   0.133   6.363   8.081 -0.6478  0.4709  0.2601
 1866TIP3    H227158   0.093   6.292   8.208 -2.1240  2.9465  1.2535
 1867TIP3   OH227159   5.930   4.508   0.354 -0.5888  0.0234  0.4464
 1867TIP3    H127160   5.943   4.552   0.270 -1.5551 -1.3582 -0.4834
 1867TIP3    H227161   6.014   4.464   0.370 -0.4285  0.2125  0.1535
 1868TIP3   OH227162   5.749   2.655   6.686 -0.4477  0.0139  0.4295
 1868TIP3    H127163   5.724   2.728   6.629  1.1668  0.6389  0.4724
 1868TIP3    H227164   5.844   2.660   6.691 -0.4229 -1.1616  1.7014
 1869TIP3   OH227165   4.345   3.990   7.442  0.1617  0.2574  0.1739
 1869TIP3    H127166   4.361   3.920   7.506 -3.7917 -0.8213  0.2470
 1869TIP3    H227167   4.371   3.952   7.358  0.8879 -0.1159  0.5568
 1870TIP3   OH227168   3.678   6.535   1.210  0.2368  0.6603  0.2538
 1870TIP3    H127169   3.632   6.610   1.248  0.0170  0.1382  1.0446
 1870TIP3    H227170   3.661   6.463   1.271 -0.9177 -0.4613 -1.3316
 1871TIP3   OH227171   5.891   2.279   8.307  0.2284  0.0364  0.3371
 1871TIP3    H127172   5.892   2.223   8.229  1.4168  1.6600 -0.8629
 1871TIP3    H227173   5.979   2.271   8.343  0.5632  1.4158 -0.1046
 1872TIP3   OH227174   6.587   3.146   1.710  0.2175  0.7279 -0.2179
 1872TIP3    H127175   6.517   3.201   1.675 -1.2205  0.3255  1.8723
 1872TIP3    H227176   6.662   3.166   1.654 -1.5934  0.9329 -2.7663
 1873TIP3   OH227177   0.144   5.631   7.253 -0.0796  0.0427  0.1899
 1873TIP3    H127178   0.149   5.562   7.320 -0.6760  0.4698  0.6926
 1873TIP3    H227179   0.146   5.584   7.170 -3.1323 -0.8778  0.5035
 1874TIP3   OH227180   0.568   5.015   8.006  0.1588 -0.5683 -0.3690
 1874TIP3    H127181   0.620   4.974   7.937  0.0402  0.7579 -1.2940
 1874TIP3    H227182   0.557   5.106   7.976 -1.2800 -0.3956  0.6123
 1875TIP3   OH227183   1.887   3.946   0.674  0.0228  0.0210 -0.0955
 1875TIP3    H127184   1.924   3.993   0.749  0.4694 -0.0580 -0.2610
 1875TIP3    H227185   1.815   4.001   0.644 -1.1066 -0.6530  1.2786
 1876TIP3   OH227186   3.626   5.013   1.621 -0.2927 -0.8270 -0.1781
 1876TIP3    H127187   3.586   5.025   1.707 -0.1820  0.1291 -0.2499
 1876TIP3    H227188   3.693   5.081   1.616 -0.2563 -0.9097 -0.9938
 1877TIP3   OH227189   3.282   4.932   1.646 -0.5000  0.4087 -0.1067
 1877TIP3    H127190   3.342   4.963   1.713  0.8353 -1.1839 -0.5093
 1877TIP3    H227191   3.288   4.996   1.576  2.1214 -0.5653 -0.8853
 1878TIP3   OH227192   1.163   5.272   0.085 -0.4292 -0.3436 -0.5514
 1878TIP3    H127193   1.174   5.204   0.018 -0.3707 -0.1991 -0.6865
 1878TIP3    H227194   1.068   5.279   0.096 -0.4151 -1.4587  0.4848
 1879TIP3   OH227195   2.826   4.923   0.513 -0.7073  0.0385  0.3096
 1879TIP3    H127196   2.806   4.841   0.468  0.5858 -0.6057  0.8262
 1879TIP3    H227197   2.894   4.964   0.459 -1.3323  0.7693  0.0649
 1880TIP3   OH227198   4.043   4.349   8.095  0.3365  0.1009  0.0307
 1880TIP3    H127199   4.068   4.265   8.134  1.4787  1.0435  1.4081
 1880TIP3    H227200   4.030   4.408   8.169 -0.5571  1.1401 -0.9055
 1881TIP3   OH227201   0.377   2.021   7.048  0.0658  0.0342 -0.5525
 1881TIP3    H127202   0.363   2.062   6.962 -0.4108 -1.7294 -1.3495
 1881TIP3    H227203   0.411   2.092   7.102  1.7472  0.8765 -2.5718
 1882TIP3   OH227204   0.260   2.470   7.847  0.1719  0.2127 -0.0959
 1882TIP3    H127205   0.287   2.463   7.756  1.0863  0.2988  0.1499
 1882TIP3    H227206   0.166   2.487   7.844 -0.0051 -0.8206 -0.9857
 1883TIP3   OH227207   0.399   4.031   1.204 -0.1291  0.1949 -0.2953
 1883TIP3    H127208   0.376   3.954   1.255 -0.0974  0.3248 -0.0845
 1883TIP3    H227209   0.327   4.040   1.141  0.1466 -0.3268 -0.6851
 1884TIP3   OH227210   6.644   5.810   7.221  0.0529  0.1744  0.0815
 1884TIP3    H127211   6.628   5.837   7.311 -0.5605  1.1287 -0.3058
 1884TIP3    H227212   6.737   5.830   7.206  0.3403 -0.6384  0.7127
 1885TIP3   OH227213   5.641   3.998   1.291  0.5528  0.2244 -0.4194
 1885TIP3    H127214   5.707   4.047   1.340 -0.1360  1.1367 -0.3704
 1885TIP3    H227215   5.632   4.045   1.208 -1.0828  1.0210  0.1597
 1886TIP3   OH227216   1.311   1.924   1.336 -0.1032  0.0771 -0.2735
 1886TIP3    H127217   1.392   1.974   1.347 -0.8612  1.8068 -2.0087
 1886TIP3    H227218   1.261   1.943   1.415  0.5971  0.1266  0.1709
 1887TIP3   OH227219   2.016   4.635   8.545  0.4941  0.1703  0.4703
 1887TIP3    H127220   2.088   4.590   8.590  0.1159  0.8794  1.8303
 1887TIP3    H227221   1.937   4.595   8.580  0.1874  0.8802  0.6032
 1888TIP3   OH227222   3.156   3.513   2.258  0.1510  0.2205  0.1560
 1888TIP3    H127223   3.200   3.474   2.183 -0.1148 -2.4580  1.2805
 1888TIP3    H227224   3.075   3.463   2.267 -1.0227  2.1198  0.7906
 1889TIP3   OH227225   1.954   1.378   8.750 -0.5725  0.0071 -0.1214
 1889TIP3    H127226   1.963   1.393   8.844  2.4012  1.1144 -0.4984
 1889TIP3    H227227   1.911   1.457   8.717  1.0050  0.9282 -0.0373
 1890TIP3   OH227228   1.010   4.419   1.416  0.3178  0.1875  0.7201
 1890TIP3    H127229   1.004   4.500   1.467 -0.1211 -0.1120  1.1522
 1890TIP3    H227230   1.094   4.381   1.440 -0.3928 -0.5444  2.1233
 1891TIP3   OH227231   6.754   3.098   0.154  0.9934 -0.6529  0.0956
 1891TIP3    H127232   6.809   3.176   0.166  0.5966 -0.3038 -0.3035
 1891TIP3    H227233   6.709   3.113   0.071 -0.2432 -0.5922  0.7519
 1892TIP3   OH227234   1.774   1.823   6.673  0.4873  0.2207  0.4663
 1892TIP3    H127235   1.799   1.844   6.583 -0.1590 -1.1878 -0.0720
 1892TIP3    H227236   1.795   1.902   6.723  0.7262  1.0770 -0.9392
 1893TIP3   OH227237   4.753   6.761   1.394  0.0245  0.5754 -0.0957
 1893TIP3    H127238   4.743   6.722   1.307 -1.9937 -1.3258  0.8743
 1893TIP3    H227239   4.691   6.834   1.394  0.9023  1.3322 -0.6231
 1894TIP3   OH227240   3.853   1.992   0.250 -0.4472  0.1991 -0.2582
 1894TIP3    H127241   3.929   2.024   0.202 -0.4665  0.7585  0.0755
 1894TIP3    H227242   3.888   1.964   0.334 -0.5288 -0.0459 -0.3068
 1895TIP3   OH227243   5.166   3.124   2.097  0.2173  0.7347 -0.0737
 1895TIP3    H127244   5.173   3.176   2.177 -0.4516  0.5440  0.1171
 1895TIP3    H227245   5.212   3.042   2.117 -1.2893  0.0294  0.6961
 1896TIP3   OH227246   2.393   2.583   7.586 -0.0451  0.1765 -0.0060
 1896TIP3    H127247   2.324   2.572   7.652 -0.1811  2.0628  0.2288
 1896TIP3    H227248   2.353   2.554   7.504 -0.2757 -1.0520  0.5240
 1897TIP3   OH227249   4.912   2.059   7.686 -0.1266 -0.2181 -0.3646
 1897TIP3    H127250   4.906   2.043   7.780  0.6157  0.8116 -0.1298
 1897TIP3    H227251   4.886   2.151   7.676 -1.1289 -0.5847 -1.2809
 1898TIP3   OH227252   3.645   1.617   7.964  0.7877 -0.1801 -0.4699
 1898TIP3    H127253   3.655   1.521   7.963  1.9367 -0.0625 -1.4658
 1898TIP3    H227254   3.607   1.638   7.879  1.1908  0.3107 -0.5323
 1899TIP3   OH227255   3.610   0.900   0.910 -0.1336 -0.1085 -0.1701
 1899TIP3    H127256   3.569   0.974   0.864 -0.9426 -2.1383 -2.9607
 1899TIP3    H227257   3.704   0.911   0.893 -0.2225  0.3779 -0.3786
 1900TIP3   OH227258   2.877   5.349   0.646 -0.0304 -0.5305 -0.3996
 1900TIP3    H127259   2.957   5.298   0.632 -0.6213 -1.4206 -0.5676
 1900TIP3    H227260   2.905   5.440   0.632  0.3977 -0.9911 -3.1471
 1901TIP3   OH227261   2.937   6.653   6.834  0.4034  0.6269  0.2607
 1901TIP3    H127262   2.924   6.747   6.843  2.5336  0.8304  2.0227
 1901TIP3    H227263   2.995   6.643   6.759 -0.9455  0.5708 -0.8023
 1902TIP3   OH227264   6.063   4.764   8.455  0.9608  0.1769 -0.5336
 1902TIP3    H127265   6.013   4.711   8.516 -0.2838 -1.5858 -2.9364
 1902TIP3    H227266   6.150   4.770   8.494  0.3859 -1.3527  1.1038
 1903TIP3   OH227267   5.278   0.401   1.911  0.4318  0.3063  0.5448
 1903TIP3    H127268   5.361   0.371   1.948 -0.1090  0.2651  1.7791
 1903TIP3    H227269   5.213   0.379   1.978 -0.7866 -0.9348 -0.9645
 1904TIP3   OH227270   5.785   3.455   8.272  0.1634 -0.1238  0.5131
 1904TIP3    H127271   5.869   3.455   8.317  0.8347 -0.3299 -0.6873
 1904TIP3    H227272   5.791   3.382   8.210 -0.6517  0.2444 -0.0220
 1905TIP3   OH227273   0.217   5.484   8.278 -0.0008  0.8495  0.7796
 1905TIP3    H127274   0.299   5.532   8.286  0.0527  0.7591  0.7741
 1905TIP3    H227275   0.150   5.544   8.311 -0.0693  1.3181 -0.1954
 1906TIP3   OH227276   2.067   0.293   6.534  0.3414 -0.2230  0.1921
 1906TIP3    H127277   2.042   0.226   6.471 -0.7651  0.7804 -0.4691
 1906TIP3    H227278   2.157   0.318   6.510  0.7549 -1.4256  0.4357
 1907TIP3   OH227279   4.021   1.715   1.072  0.4334 -0.3638  0.4275
 1907TIP3    H127280   3.938   1.737   1.115  0.2958 -0.9534  0.4658
 1907TIP3    H227281   4.085   1.771   1.116 -0.1265  1.0086 -0.4432
 1908TIP3   OH227282   3.029   1.433   1.553  0.0560 -0.0012  0.1591
 1908TIP3    H127283   2.985   1.508   1.593 -0.8124 -1.9262  3.1511
 1908TIP3    H227284   3.108   1.421   1.607  0.1159 -1.2844 -0.1831
 1909TIP3   OH227285   3.460   6.126   1.117  0.6548  0.0370 -0.2805
 1909TIP3    H127286   3.392   6.153   1.055 -1.0173  1.1974  1.9381
 1909TIP3    H227287   3.536   6.106   1.062 -0.4851  1.7334 -2.6381
 1910TIP3   OH227288   1.878   3.934   8.518  0.5103 -0.4032  0.6776
 1910TIP3    H127289   1.798   3.950   8.569  0.0848 -0.6051  0.0971
 1910TIP3    H227290   1.860   3.853   8.471  1.5250 -1.0764  1.4150
 1911TIP3   OH227291   6.402   0.191   8.590 -0.1833 -0.0616 -0.2293
 1911TIP3    H127292   6.496   0.205   8.604  0.0720  1.1316 -2.6990
 1911TIP3    H227293   6.397   0.117   8.530 -0.5853  1.6080 -2.4007
 1912TIP3   OH227294   2.678   5.927   8.749  0.0811 -0.2452  0.2177
 1912TIP3    H127295   2.612   5.876   8.703  0.3013  0.1264 -0.5138
 1912TIP3    H227296   2.643   6.016   8.750  0.1290 -0.2249  0.6860
 1913TIP3   OH227297   6.630   2.025   8.404 -0.2582 -0.2036 -0.2377
 1913TIP3    H127298   6.680   2.007   8.484 -0.1589  1.7526  0.2049
 1913TIP3    H227299   6.543   2.051   8.436  0.1725  1.8753 -0.6301
 1914TIP3   OH227300   3.265   4.484   2.444  0.4416  0.4183 -0.2899
 1914TIP3    H127301   3.170   4.481   2.440  0.2474  2.0075  1.6560
 1914TIP3    H227302   3.293   4.400   2.409 -1.7297 -0.6036  0.2642
 1915TIP3   OH227303   2.528   5.486   1.607 -0.2987  0.6602  0.0503
 1915TIP3    H127304   2.597   5.439   1.653 -1.0759 -0.5456  0.0471
 1915TIP3    H227305   2.486   5.539   1.674  0.2624  0.9634  0.1657
 1916TIP3   OH227306   4.493   6.036   1.235 -0.0552  0.1758 -0.4684
 1916TIP3    H127307   4.516   6.010   1.325 -3.1550 -0.6935  0.2129
 1916TIP3    H227308   4.547   6.113   1.218  0.7791  0.2650  2.0891
 1917TIP3   OH227309   4.039   1.287   1.455 -0.2179 -0.1719  0.1176
 1917TIP3    H127310   3.974   1.322   1.395 -0.8397 -1.9285 -0.3057
 1917TIP3    H227311   4.022   1.193   1.457  0.9733 -0.4090  1.6301
 1918TIP3   OH227312   6.727   3.996   7.454 -0.4968  0.6305 -0.0530
 1918TIP3    H127313   6.672   3.920   7.434 -0.3763  0.1445  1.3523
 1918TIP3    H227314   6.804   3.986   7.398  0.1320 -1.0135  1.0344
 1919TIP3   OH227315   3.892   1.995   1.266 -0.0610  0.2592 -0.3164
 1919TIP3    H127316   3.861   1.907   1.287  0.6916  0.4135  1.6270
 1919TIP3    H227317   3.912   2.035   1.351 -0.0071  2.1802 -1.1687
 1920TIP3   OH227318   6.593   3.088   8.752 -0.5383 -0.0077 -0.3784
 1920TIP3    H127319   6.505   3.114   8.780 -0.5783 -0.6445  0.1232
 1920TIP3    H227320   6.583   2.995   8.730  0.6276 -0.8946  2.4693
 1921TIP3   OH227321   2.201   2.834   0.643  0.2673 -0.3082 -0.2314
 1921TIP3    H127322   2.212   2.755   0.590 -0.8490 -0.6362 -0.0064
 1921TIP3    H227323   2.227   2.905   0.584 -2.3744 -0.5166 -1.8622
 1922TIP3   OH227324   5.225   3.304   8.502  0.1931 -0.2869  0.4150
 1922TIP3    H127325   5.275   3.318   8.422  0.2474  0.7240  0.6094
 1922TIP3    H227326   5.266   3.228   8.543  1.9513  0.8469  0.8534
 1923TIP3   OH227327   0.239   3.243   7.220  0.1288  0.5912 -0.1657
 1923TIP3    H127328   0.196   3.279   7.142  1.9782  0.6585 -1.2100
 1923TIP3    H227329   0.330   3.231   7.194 -0.0219 -3.6951  0.5022
 1924TIP3   OH227330   2.768   2.697   2.363 -0.4883  0.2553  0.0461
 1924TIP3    H127331   2.741   2.734   2.278 -0.0769  0.7293  0.1181
 1924TIP3    H227332   2.846   2.646   2.343  0.2673  1.2645  0.2998
 1925TIP3   OH227333   0.300   3.402   1.295 -0.5468 -0.2369 -0.3533
 1925TIP3    H127334   0.318   3.465   1.365  1.3099 -0.7673 -0.3046
 1925TIP3    H227335   0.303   3.317   1.339 -2.7798 -0.4317 -0.4646
 1926TIP3   OH227336   2.191   2.769   1.226 -0.4748 -0.0308 -0.3852
 1926TIP3    H127337   2.148   2.735   1.148 -1.6015 -1.6249  0.8672
 1926TIP3    H227338   2.281   2.735   1.222 -0.0866  1.0531 -1.6335
 1927TIP3   OH227339   6.627   5.632   0.997  0.9387  0.2696  0.0646
 1927TIP3    H127340   6.607   5.556   1.052  0.0338  1.3158  1.2471
 1927TIP3    H227341   6.566   5.700   1.027  1.5310  1.3789 -1.1468
 1928TIP3   OH227342   6.550   4.582   8.624 -0.0110  0.2638  0.9241
 1928TIP3    H127343   6.639   4.549   8.635  0.8784  2.1926 -0.0525
 1928TIP3    H227344   6.544   4.605   8.532 -0.5688  2.6299  1.4666
 1929TIP3   OH227345   3.083   2.663   7.362 -0.0360 -0.0730 -0.9733
 1929TIP3    H127346   2.993   2.635   7.349  0.3245 -1.9697  0.2060
 1929TIP3    H227347   3.079   2.727   7.433 -0.4542 -0.0148 -1.0453
 1930TIP3   OH227348   6.424   0.404   7.732  0.5671  0.0564 -0.1336
 1930TIP3    H127349   6.433   0.432   7.823 -1.5817 -1.9333  0.7873
 1930TIP3    H227350   6.491   0.337   7.721 -1.1129 -1.9623  1.0778
 1931TIP3   OH227351   5.301   5.451   0.289 -0.4938 -0.3612 -0.6922
 1931TIP3    H127352   5.302   5.545   0.270  1.1094 -0.1902  0.0636
 1931TIP3    H227353   5.310   5.445   0.384  0.0642 -1.2717 -0.7878
 1932TIP3   OH227354   1.101   3.177   0.026 -0.3775  0.0465  0.5620
 1932TIP3    H127355   1.110   3.208   0.117 -0.3193  0.6167  0.3689
 1932TIP3    H227356   1.006   3.177   0.011 -0.3374  1.3841  0.1581
 1933TIP3   OH227357   5.998   3.729   1.552  0.3508  0.1958  0.0438
 1933TIP3    H127358   5.959   3.731   1.640  2.0382  0.6206  0.8206
 1933TIP3    H227359   6.050   3.649   1.552 -0.5318 -0.3996 -1.0044
 1934TIP3   OH227360   2.966   6.029   6.179  0.3214 -0.0935  0.5142
 1934TIP3    H127361   2.926   6.047   6.264 -0.1005  2.1448 -0.0890
 1934TIP3    H227362   3.047   6.080   6.180  0.1617  0.2027 -0.5244
 1935TIP3   OH227363   4.858   4.281   8.556 -0.4306  0.4522 -0.6250
 1935TIP3    H127364   4.799   4.354   8.538  0.3487  0.9892 -1.0696
 1935TIP3    H227365   4.912   4.274   8.477 -0.4828 -0.5962 -0.5790
 1936TIP3   OH227366   4.959   0.742   7.603 -0.5535 -0.3249 -0.6781
 1936TIP3    H127367   4.996   0.655   7.592 -2.1944 -1.3158  1.2087
 1936TIP3    H227368   4.865   0.731   7.588 -0.8051  1.1126 -0.3595
 1937TIP3   OH227369   0.475   3.317   1.569 -0.1966  0.5349  0.3969
 1937TIP3    H127370   0.522   3.381   1.515  0.2619 -0.8448 -0.9078
 1937TIP3    H227371   0.542   3.254   1.594 -0.7910  0.1445  1.0167
 1938TIP3   OH227372   1.894   0.472   1.566  0.0339 -0.0618 -0.3582
 1938TIP3    H127373   1.824   0.533   1.543 -0.3734 -0.5292 -0.3781
 1938TIP3    H227374   1.872   0.391   1.520  0.1807 -0.4447  0.2328
 1939TIP3   OH227375   1.344   6.526   6.673  0.6018 -0.0541  0.2688
 1939TIP3    H127376   1.287   6.451   6.686  0.8305 -0.7162 -2.1607
 1939TIP3    H227377   1.299   6.580   6.608  0.7684  1.5883  1.4576
 1940TIP3   OH227378   6.652   5.030   8.451 -0.2330 -0.4279 -0.0331
 1940TIP3    H127379   6.697   4.965   8.397 -2.4262 -2.0184 -0.0731
 1940TIP3    H227380   6.566   5.040   8.411  0.3190  3.3699 -0.6393
 1941TIP3   OH227381   3.177   2.621   0.798 -0.3074  0.0840 -0.5417
 1941TIP3    H127382   3.210   2.552   0.855 -0.7900  2.3815  2.8351
 1941TIP3    H227383   3.082   2.609   0.799 -0.4511  1.0990  0.6355
 1942TIP3   OH227384   5.422   2.877   7.295  0.0784  0.3580 -0.0298
 1942TIP3    H127385   5.388   2.956   7.338  3.5225  0.8866  2.0791
 1942TIP3    H227386   5.473   2.910   7.221  0.4820  0.0170  0.0945
 1943TIP3   OH227387   4.046   2.793   2.046  0.0356 -0.3187 -0.0507
 1943TIP3    H127388   4.134   2.758   2.033  0.1792  0.3080 -0.8255
 1943TIP3    H227389   4.019   2.824   1.959  0.3486  2.4652  0.7428
 1944TIP3   OH227390   5.000   2.422   8.636 -0.3702 -0.0688  0.2193
 1944TIP3    H127391   5.082   2.460   8.668 -1.1391  1.2530  0.6955
 1944TIP3    H227392   5.024   2.333   8.608  0.9208 -0.2298  1.7050
 1945TIP3   OH227393   2.248   6.295   7.433 -0.2498 -0.7931  0.3289
 1945TIP3    H127394   2.299   6.365   7.393  0.0754 -0.9117  0.5276
 1945TIP3    H227395   2.157   6.322   7.422 -0.1157  0.9890  2.6866
 1946TIP3   OH227396   0.769   5.740   0.104  0.1177  0.3996 -0.2156
 1946TIP3    H127397   0.744   5.740   0.011  1.5880 -0.2632 -0.6374
 1946TIP3    H227398   0.865   5.739   0.103  0.1503 -0.0347  1.3117
 1947TIP3   OH227399   6.740   4.251   0.440  0.1479 -0.2252 -0.5601
 1947TIP3    H127400   6.721   4.162   0.472  1.3346 -0.7555 -1.2462
 1947TIP3    H227401   6.743   4.242   0.345  1.9742  0.1510 -0.5793
 1948TIP3   OH227402   3.787   1.402   0.002 -0.1273  0.4350 -0.5161
 1948TIP3    H127403   3.858   1.433   0.057  0.4348  1.7953 -1.9529
 1948TIP3    H227404   3.764   1.477  -0.052 -1.1884 -0.6314 -1.5886
 1949TIP3   OH227405   0.924   0.954   2.139 -0.2916  0.2871 -0.8218
 1949TIP3    H127406   0.897   1.044   2.121 -0.9963  0.0004 -1.2487
 1949TIP3    H227407   0.920   0.911   2.053  0.4344 -0.0500 -0.6915
 1950TIP3   OH227408   0.384   0.495   8.719 -0.6928  0.2968  0.6730
 1950TIP3    H127409   0.321   0.504   8.648 -0.9282 -1.0628  0.6791
 1950TIP3    H227410   0.334   0.456   8.791  0.0439 -0.3791  0.8322
 1951TIP3   OH227411   4.454   5.650   1.258  0.0963  0.3014 -0.6844
 1951TIP3    H127412   4.546   5.662   1.282  0.1546  0.2346 -0.8742
 1951TIP3    H227413   4.413   5.619   1.338  0.2904  0.0876 -0.6665
 1952TIP3   OH227414   2.437   2.257   1.663 -0.0029  0.7249 -0.0793
 1952TIP3    H127415   2.498   2.184   1.651  1.2963  2.0468 -2.2440
 1952TIP3    H227416   2.382   2.231   1.737  2.4411 -1.0568  1.2507
 1953TIP3   OH227417   3.004   0.730   7.607 -0.0546 -0.2343 -0.7736
 1953TIP3    H127418   3.043   0.792   7.545 -0.8074  0.2893 -0.7433
 1953TIP3    H227419   3.078   0.690   7.652  0.4970 -0.4767 -1.8739
 1954TIP3   OH227420   0.405   3.578   1.817 -0.3173 -0.4318  0.1745
 1954TIP3    H127421   0.426   3.552   1.907 -0.6797 -0.5396  0.2311
 1954TIP3    H227422   0.488   3.573   1.771  0.1229  0.8537  0.7871
 1955TIP3   OH227423   2.404   1.351   8.071  0.4288  0.0917 -0.1009
 1955TIP3    H127424   2.399   1.447   8.071 -1.0484  0.1272  2.4683
 1955TIP3    H227425   2.472   1.331   8.135 -1.4018 -0.5021  1.7537
 1956TIP3   OH227426   4.423   3.798   7.632  0.4281 -0.4515 -0.0184
 1956TIP3    H127427   4.359   3.789   7.703 -0.2699 -1.9191 -0.7807
 1956TIP3    H227428   4.501   3.833   7.675 -0.6306  0.6928  1.0725
 1957TIP3   OH227429   1.789   0.109   8.440  0.1713 -0.0471 -0.5162
 1957TIP3    H127430   1.788   0.177   8.507  0.8371  2.2807 -2.7144
 1957TIP3    H227431   1.877   0.113   8.403 -0.2258 -1.1070 -1.6627
 1958TIP3   OH227432   4.030   0.868   8.473 -0.8555 -0.6995 -0.0852
 1958TIP3    H127433   3.938   0.894   8.474 -0.9654 -0.8652 -1.9122
 1958TIP3    H227434   4.078   0.949   8.488 -1.2808 -0.6134  0.8868
 1959TIP3   OH227435   3.059   0.794   1.423  0.5879 -0.1957  0.6228
 1959TIP3    H127436   3.131   0.775   1.482  0.2647 -0.6139  0.8892
 1959TIP3    H227437   2.987   0.739   1.454  0.7855 -1.4409 -0.9212
 1960TIP3   OH227438   4.383   0.472   7.321  0.2491  0.8012 -0.0466
 1960TIP3    H127439   4.319   0.402   7.333  0.6580  0.3905 -0.2592
 1960TIP3    H227440   4.385   0.516   7.406  0.4827  0.1366  0.2972
 1961TIP3   OH227441   2.328   2.454   7.355  0.0677 -0.3820 -0.7189
 1961TIP3    H127442   2.264   2.476   7.287 -0.2534  1.5384  0.1271
 1961TIP3    H227443   2.323   2.358   7.363 -1.3563 -0.4478 -1.9603
 1962TIP3   OH227444   5.504   3.355   0.199 -0.1993  0.6132 -0.3179
 1962TIP3    H127445   5.581   3.400   0.166  0.1081  0.1093 -0.2975
 1962TIP3    H227446   5.465   3.416   0.261 -1.7187  2.2975 -2.7567
 1963TIP3   OH227447   3.221   0.455   0.667  0.1452  0.1475  0.0875
 1963TIP3    H127448   3.231   0.360   0.671 -1.2782 -0.0004  0.5812
 1963TIP3    H227449   3.211   0.474   0.573 -0.1114 -0.2490  0.0331
 1964TIP3   OH227450   0.568   5.807   7.333  0.1726  0.3727 -0.0691
 1964TIP3    H127451   0.638   5.752   7.369  0.7221  0.1399 -1.4421
 1964TIP3    H227452   0.494   5.792   7.391  0.5065 -1.3008 -0.0238
 1965TIP3   OH227453   4.094   2.195   1.093 -0.1206 -0.0199 -0.0496
 1965TIP3    H127454   4.040   2.132   1.142 -1.0600 -0.3966 -1.5077
 1965TIP3    H227455   4.132   2.143   1.022  0.6798  0.6606 -0.1323
 1966TIP3   OH227456   5.479   1.338   0.114 -0.1674  0.5654 -0.1772
 1966TIP3    H127457   5.552   1.304   0.166 -0.3061  0.8917  0.2392
 1966TIP3    H227458   5.513   1.418   0.075 -0.2384  0.6123 -0.1433
 1967TIP3   OH227459   0.450   2.980   7.945 -0.7821 -0.2161 -0.3437
 1967TIP3    H127460   0.504   3.028   7.882 -0.8099 -1.7635 -1.6015
 1967TIP3    H227461   0.466   2.888   7.925 -1.7588 -0.7298  1.1111
 1968TIP3   OH227462   4.515   2.562   0.023  0.4023 -0.1135  0.1157
 1968TIP3    H127463   4.533   2.586   0.114 -0.2132 -1.0551  0.4979
 1968TIP3    H227464   4.537   2.469   0.017 -1.3474 -0.5504 -0.1852
 1969TIP3   OH227465   5.793   1.392   0.135  0.1301 -0.3709 -0.5299
 1969TIP3    H127466   5.749   1.347   0.207 -1.0471  0.9876 -0.3544
 1969TIP3    H227467   5.879   1.350   0.129  0.4576 -0.2055  1.9928
 1970TIP3   OH227468   2.194   3.785   6.363  0.3130  0.6456  0.0011
 1970TIP3    H127469   2.164   3.773   6.453 -0.4258 -0.8877 -0.4088
 1970TIP3    H227470   2.125   3.835   6.321 -0.4101 -0.5279 -0.2478
 1971TIP3   OH227471   3.082   2.875   8.601  0.5042  0.5441  0.4451
 1971TIP3    H127472   3.019   2.946   8.592  1.0836  0.8092 -3.5486
 1971TIP3    H227473   3.166   2.919   8.616  0.3284  0.3867  2.0815
 1972TIP3   OH227474   1.010   1.628   0.224  0.3562  0.0802 -0.0587
 1972TIP3    H127475   0.934   1.580   0.191  0.9221 -1.6678  1.0571
 1972TIP3    H227476   0.978   1.717   0.238 -1.8962 -0.9238  1.7132
 1973TIP3   OH227477   2.332   1.600   6.681 -0.0096  0.5132 -0.4834
 1973TIP3    H127478   2.334   1.509   6.652  1.0012  0.3913 -0.0695
 1973TIP3    H227479   2.389   1.646   6.620 -1.0645  1.0195 -1.1207
 1974TIP3   OH227480   6.142   6.347   8.587  0.1911  0.5018  0.0012
 1974TIP3    H127481   6.127   6.253   8.597 -0.2606  0.4979 -0.6351
 1974TIP3    H227482   6.068   6.387   8.634  0.5170  0.5483  0.4837
 1975TIP3   OH227483   6.451   1.515   1.411 -0.6995 -0.0343 -0.6645
 1975TIP3    H127484   6.377   1.500   1.469 -0.5285  1.1488 -0.1112
 1975TIP3    H227485   6.416   1.569   1.340 -0.1436  1.5592  0.2234
 1976TIP3   OH227486   4.800   4.146   0.929  0.1302  0.3022 -0.5508
 1976TIP3    H127487   4.891   4.117   0.923 -0.5972 -1.8476 -2.8122
 1976TIP3    H227488   4.748   4.067   0.912 -2.0746  2.0192 -2.5098
 1977TIP3   OH227489   1.290   2.299   0.605 -0.5445  0.1723  0.0446
 1977TIP3    H127490   1.312   2.254   0.523 -4.1094 -0.5976 -0.6885
 1977TIP3    H227491   1.307   2.392   0.587  1.6037 -0.2618 -0.4132
 1978TIP3   OH227492   0.189   2.427   1.567 -0.1536  0.1975  0.6700
 1978TIP3    H127493   0.279   2.442   1.595  0.2397  0.9151 -0.8709
 1978TIP3    H227494   0.146   2.511   1.580 -0.2903  0.1841  0.3036
 1979TIP3   OH227495   5.544   3.831   7.287 -0.1357 -0.0783 -0.3019
 1979TIP3    H127496   5.499   3.750   7.311  1.8091 -0.6074  1.8951
 1979TIP3    H227497   5.475   3.897   7.282 -1.3671 -1.2043  1.1127
 1980TIP3   OH227498   4.770   1.430   7.326 -0.0011 -0.2153  0.2796
 1980TIP3    H127499   4.735   1.393   7.407  0.0112 -1.6066 -0.3259
 1980TIP3    H227500   4.808   1.514   7.352  0.5247 -0.9056  1.8243
 1981TIP3   OH227501   1.575   0.348   0.613  0.6197 -0.2485 -0.2336
 1981TIP3    H127502   1.604   0.386   0.695  0.1338  1.2002 -0.6868
 1981TIP3    H227503   1.541   0.261   0.636  1.1218 -0.1341  0.9654
 1982TIP3   OH227504   1.541   5.877   1.120 -0.4875  0.0751 -0.0512
 1982TIP3    H127505   1.583   5.828   1.191 -1.1264 -0.3979  0.0057
 1982TIP3    H227506   1.465   5.917   1.161 -1.7151 -1.4280 -0.7911
 1983TIP3   OH227507   6.528   6.524   1.578 -0.4781 -0.1015  0.3855
 1983TIP3    H127508   6.478   6.498   1.655  2.1568  1.6278  2.9066
 1983TIP3    H227509   6.480   6.599   1.542 -2.5137 -1.8098 -0.6653
 1984TIP3   OH227510   5.107   3.183   8.186 -0.3729 -0.5291  0.4500
 1984TIP3    H127511   5.193   3.221   8.205 -0.4375 -0.5044  0.7062
 1984TIP3    H227512   5.087   3.209   8.097 -0.4015  0.0065  0.6119
 1985TIP3   OH227513   6.664   4.945   7.266  0.1218  0.4163  0.3408
 1985TIP3    H127514   6.698   5.033   7.283  1.0362  0.1607 -0.0862
 1985TIP3    H227515   6.621   4.953   7.181 -1.5125  0.8951  1.1711
 1986TIP3   OH227516   0.235   3.229   6.874 -0.1810  0.1647  0.3077
 1986TIP3    H127517   0.260   3.321   6.882 -2.0177  0.6275  1.0340
 1986TIP3    H227518   0.146   3.231   6.838 -0.1746 -1.3373  0.1454
 1987TIP3   OH227519   1.267   6.314   0.930  0.4310  0.6926  0.1308
 1987TIP3    H127520   1.246   6.365   1.009 -0.6428  1.8969 -0.8773
 1987TIP3    H227521   1.293   6.380   0.866 -0.8159 -0.0212 -1.1588
 1988TIP3   OH227522   1.788   0.084   7.405 -0.3501 -0.1685 -0.6037
 1988TIP3    H127523   1.803   0.131   7.323  0.2432  0.3409 -0.2134
 1988TIP3    H227524   1.853   0.119   7.465  0.3723 -1.7432 -0.3942
 1989TIP3   OH227525   1.749   2.552   1.374  0.2021  0.1378  0.4898
 1989TIP3    H127526   1.753   2.462   1.342  0.4620 -0.4409  2.0553
 1989TIP3    H227527   1.693   2.597   1.312  0.2288 -1.0529 -0.4355
 1990TIP3   OH227528   6.271   3.900   8.534 -0.9508 -0.5939  0.2221
 1990TIP3    H127529   6.254   3.908   8.628 -1.1011 -1.4015  0.2644
 1990TIP3    H227530   6.366   3.909   8.527 -0.8969 -0.9452  0.4922
 1991TIP3   OH227531   0.844   0.542   1.330 -0.2410  0.0807 -0.4530
 1991TIP3    H127532   0.819   0.480   1.399 -1.0180  0.1994 -0.6194
 1991TIP3    H227533   0.935   0.563   1.349 -0.1319 -0.6911 -0.0723
 1992TIP3   OH227534   6.112   5.442   1.266  0.6421  0.0788 -0.0607
 1992TIP3    H127535   6.199   5.404   1.255  0.4636 -1.1536  2.1242
 1992TIP3    H227536   6.128   5.530   1.301  1.1471 -1.2197  3.4001
 1993TIP3   OH227537   4.380   4.839   1.180 -0.3374 -0.5477  0.7731
 1993TIP3    H127538   4.371   4.869   1.089  2.5189  1.1213  0.9116
 1993TIP3    H227539   4.290   4.824   1.209 -1.3686 -0.9806 -2.2445
 1994TIP3   OH227540   2.317   1.886   0.559 -0.6616 -0.0896  0.4451
 1994TIP3    H127541   2.292   1.970   0.521 -1.7172 -0.6959 -0.2519
 1994TIP3    H227542   2.264   1.822   0.512 -0.5782 -1.0548  1.6231
 1995TIP3   OH227543   4.821   4.798   8.052  0.6339 -0.6923 -0.3426
 1995TIP3    H127544   4.757   4.834   7.991  0.3462 -1.7075 -0.6513
 1995TIP3    H227545   4.845   4.872   8.108  0.7928  0.2202 -1.5773
 1996TIP3   OH227546   0.098   3.334   0.084 -0.0689  0.2824  0.7260
 1996TIP3    H127547   0.152   3.376   0.151  1.9297 -0.4163 -0.3508
 1996TIP3    H227548   0.026   3.395   0.068  1.5663  2.3079  0.7192
 1997TIP3   OH227549   4.450   0.602   7.569  0.5699  0.1177  0.6242
 1997TIP3    H127550   4.464   0.544   7.644  1.2024  1.3048  1.4403
 1997TIP3    H227551   4.381   0.662   7.597 -0.7523 -0.7722 -0.5575
 1998TIP3   OH227552   4.061   6.179   6.891 -0.2356  0.8575 -0.8026
 1998TIP3    H127553   4.055   6.119   6.817 -0.6485  2.1408 -1.8603
 1998TIP3    H227554   4.003   6.143   6.958 -0.7139  0.2620 -1.5357
 1999TIP3   OH227555   1.022   6.203   7.184 -0.2613  0.0569  0.1734
 1999TIP3    H127556   1.117   6.206   7.188 -0.1910 -1.5510  0.5388
 1999TIP3    H227557   0.995   6.293   7.167  1.3226  0.5074 -0.0664
 2000TIP3   OH227558   6.656   6.722   0.083  0.0506  0.4474 -0.2754
 2000TIP3    H127559   6.658   6.674   0.166  0.4250  0.3173 -0.3593
 2000TIP3    H227560   6.570   6.764   0.082 -0.0111  0.3328  0.1125
 2001TIP3   OH227561   2.095   3.904   8.710 -0.1027  0.5830  0.1112
 2001TIP3    H127562   2.020   3.926   8.655 -0.6007 -0.6468  0.2523
 2001TIP3    H227563   2.171   3.922   8.655 -0.5960 -1.8950 -1.5926
 2002TIP3   OH227564   1.520   2.026   7.805  0.0049  0.2818  0.5635
 2002TIP3    H127565   1.531   1.950   7.748 -0.7043  1.0901 -0.7005
 2002TIP3    H227566   1.601   2.076   7.796  0.2849 -0.0830  1.0343
 2003TIP3   OH227567   6.598   0.211   6.844 -0.1561  0.4352  0.2160
 2003TIP3    H127568   6.597   0.224   6.749 -0.8082  0.0463  0.1636
 2003TIP3    H227569   6.556   0.126   6.857  1.6870 -0.4478  0.7262
 2004TIP3   OH227570   4.025   1.257   7.182 -1.0484 -0.0193 -0.4654
 2004TIP3    H127571   4.053   1.253   7.274 -0.9422 -1.1466 -0.5349
 2004TIP3    H227572   3.966   1.183   7.172 -0.3034 -0.4855 -1.5557
 2005TIP3   OH227573   0.390   4.103   6.999 -0.1636 -0.1914 -0.4842
 2005TIP3    H127574   0.436   4.156   7.065 -1.4813 -0.3859  0.6433
 2005TIP3    H227575   0.345   4.168   6.945  2.5387  0.1141 -2.5936
 2006TIP3   OH227576   1.978   2.009   1.639  0.1322  0.0469  0.3812
 2006TIP3    H127577   1.986   1.926   1.687 -0.1789  1.1853  2.5296
 2006TIP3    H227578   2.039   2.068   1.683 -0.7283  1.3682 -0.1289
 2007TIP3   OH227579   4.448   4.706   0.004 -0.3840 -0.3563  0.7573
 2007TIP3    H127580   4.440   4.678  -0.087  0.4891 -0.2029  0.6186
 2007TIP3    H227581   4.409   4.793   0.006  3.7834  1.8407 -0.6486
 2008TIP3   OH227582   4.668   0.043   7.071 -0.4929  0.8622 -0.0456
 2008TIP3    H127583   4.626   0.129   7.075 -0.8245  0.7585 -1.1105
 2008TIP3    H227584   4.671   0.021   6.978  2.7773  1.2549 -0.1294
 2009TIP3   OH227585   6.729   5.271   8.572 -1.0702  0.1761  0.2241
 2009TIP3    H127586   6.694   5.183   8.558 -0.5476  0.2910 -2.2516
 2009TIP3    H227587   6.678   5.327   8.513  0.1686  1.1130 -0.0052
 2010TIP3   OH227588   6.246   0.383   0.545 -0.2806 -0.5208 -0.3015
 2010TIP3    H127589   6.311   0.453   0.552  1.4700 -2.1456  0.7062
 2010TIP3    H227590   6.212   0.373   0.634  0.6113 -1.9241 -0.0914
 2011TIP3   OH227591   0.894   0.640   7.896 -0.1561  0.2525 -0.1457
 2011TIP3    H127592   0.823   0.703   7.896 -1.1989 -0.8827  0.2004
 2011TIP3    H227593   0.892   0.601   7.809 -0.7943 -0.6600  0.2582
 2012TIP3   OH227594   6.146   0.922   8.328 -0.1725  0.2687 -0.3188
 2012TIP3    H127595   6.140   0.882   8.241  0.6848 -1.2891  0.2980
 2012TIP3    H227596   6.058   0.912   8.365 -0.6098  1.1526 -1.0597
 2013TIP3   OH227597   4.364   1.419   8.182  0.1085 -0.2127 -0.2622
 2013TIP3    H127598   4.292   1.409   8.244  0.9043 -0.9345  0.5684
 2013TIP3    H227599   4.387   1.330   8.158  0.8748  0.0037 -0.3439
 2014TIP3   OH227600   1.926   1.041   8.066  0.0594  0.0818 -0.3006
 2014TIP3    H127601   1.857   0.992   8.110 -0.2422  1.1840  0.5004
 2014TIP3    H227602   2.004   1.025   8.118  0.3470 -0.8637 -0.9938
 2015TIP3   OH227603   1.128   6.641   0.157 -0.0200 -0.0176 -0.5336
 2015TIP3    H127604   1.177   6.577   0.104  0.7383  0.2353 -0.1579
 2015TIP3    H227605   1.188   6.716   0.165 -1.0092  0.8723 -1.2144
 2016TIP3   OH227606   6.365   3.234   0.629  0.4858 -0.1412  0.0808
 2016TIP3    H127607   6.296   3.245   0.695  0.2848 -0.2287 -0.1130
 2016TIP3    H227608   6.442   3.210   0.679  0.7697  1.4475  0.4526
 2017TIP3   OH227609   5.737   2.074   2.559 -0.1478 -0.0021 -0.2694
 2017TIP3    H127610   5.697   2.153   2.595 -0.2172 -0.5171  0.8143
 2017TIP3    H227611   5.831   2.087   2.571 -0.1330  0.1183 -0.5169
 2018TIP3   OH227612   5.764   0.173   8.130 -0.7043 -0.0505 -0.4779
 2018TIP3    H127613   5.723   0.184   8.215 -0.0254  0.0419 -0.1536
 2018TIP3    H227614   5.837   0.113   8.146 -1.0877 -0.7120 -1.1625
 2019TIP3   OH227615   4.034   3.895   8.304 -0.0442  0.0556  0.4364
 2019TIP3    H127616   3.978   3.955   8.255 -0.3730  1.2823  2.2129
 2019TIP3    H227617   4.092   3.857   8.238 -1.2701  0.6739 -1.0650
 2020TIP3   OH227618   0.255   4.831   7.092 -0.5188  0.6649 -0.3625
 2020TIP3    H127619   0.280   4.775   7.018 -0.6180  2.6419 -1.9882
 2020TIP3    H227620   0.165   4.858   7.073 -0.5626  1.1745  0.5082
 2021TIP3   OH227621   4.656   2.682   7.313  0.0981  0.1886  0.2886
 2021TIP3    H127622   4.726   2.738   7.280  0.4538  0.4623  1.4545
 2021TIP3    H227623   4.579   2.738   7.315  0.0486  0.1385 -0.1661
 2022TIP3   OH227624   3.390   1.934   7.084 -0.2990  0.2055 -0.7555
 2022TIP3    H127625   3.484   1.923   7.097 -0.4456 -0.1717  0.0666
 2022TIP3    H227626   3.356   1.955   7.171 -1.1070 -0.6974 -0.8359
 2023TIP3   OH227627   0.313   3.251   7.737 -0.0717 -0.4101 -0.6907
 2023TIP3    H127628   0.339   3.284   7.651 -1.0122  2.0490 -0.1157
 2023TIP3    H227629   0.306   3.329   7.792 -0.4702 -1.8070  1.3660
 2024TIP3   OH227630   4.398   6.697   1.542 -0.1702 -0.4852 -0.0790
 2024TIP3    H127631   4.423   6.625   1.484 -1.1624 -0.2126 -0.8815
 2024TIP3    H227632   4.471   6.705   1.604  0.1216 -1.9215 -0.2050
 2025TIP3   OH227633   1.228   5.048   0.346 -0.5328  0.2247  0.4219
 2025TIP3    H127634   1.300   5.020   0.403 -0.6514  0.0718  0.4990
 2025TIP3    H227635   1.212   4.974   0.288  0.6824  0.9774 -0.9378
 2026TIP3   OH227636   4.307   6.590   7.752 -0.2472  0.3748 -0.3758
 2026TIP3    H127637   4.308   6.570   7.846 -2.0279  0.5658 -0.2855
 2026TIP3    H227638   4.283   6.683   7.748 -0.1824  0.3636 -1.0332
 2027TIP3   OH227639   6.087   4.892   1.970 -0.2496 -0.1142 -0.0223
 2027TIP3    H127640   6.162   4.944   1.999  1.5407 -2.4469 -0.1682
 2027TIP3    H227641   6.020   4.907   2.036  1.1553  0.3041  1.3607
 2028TIP3   OH227642   6.251   0.616   1.804 -0.0945  0.6910  0.5547
 2028TIP3    H127643   6.250   0.521   1.815  0.6762  0.8840  2.9970
 2028TIP3    H227644   6.339   0.636   1.774 -0.0902  0.6849  0.5643
 2029TIP3   OH227645   4.691   3.224   7.594  0.2872 -0.0758 -0.0207
 2029TIP3    H127646   4.663   3.158   7.657  1.9156 -1.1609 -0.3850
 2029TIP3    H227647   4.776   3.254   7.626  0.2444  0.7878 -0.6600
 2030TIP3   OH227648   0.375   5.173   8.193 -0.1683  0.0346 -0.1245
 2030TIP3    H127649   0.398   5.185   8.100  1.7459 -3.1646 -0.2239
 2030TIP3    H227650   0.432   5.233   8.240 -0.0706  0.5931 -0.9380
 2031TIP3   OH227651   0.160   3.299   2.196 -0.0319 -0.0146  0.2284
 2031TIP3    H127652   0.227   3.302   2.129  0.5051  0.2371  0.7688
 2031TIP3    H227653   0.163   3.385   2.238 -0.1040 -0.2903  0.8202
 2032TIP3   OH227654   3.375   6.443   0.499  0.1491  0.4821 -0.0229
 2032TIP3    H127655   3.302   6.489   0.541 -0.6142 -1.0176  0.3630
 2032TIP3    H227656   3.351   6.350   0.504  1.5925  0.0329 -0.8527
 2033TIP3   OH227657   3.195   2.509   8.611  0.3155 -0.1814  0.3616
 2033TIP3    H127658   3.205   2.530   8.518 -1.7672 -0.3069  0.0626
 2033TIP3    H227659   3.188   2.413   8.614 -0.7389 -0.1187  0.4813
 2034TIP3   OH227660   0.539   2.656   1.345  0.2624  0.0573 -0.4678
 2034TIP3    H127661   0.504   2.732   1.392  2.8907 -0.5214  2.8515
 2034TIP3    H227662   0.466   2.623   1.294 -2.0603  2.5474  1.0088
 2035TIP3   OH227663   3.827   1.467   0.556  0.4818  0.4003 -0.6150
 2035TIP3    H127664   3.823   1.455   0.650  1.6736 -1.1654 -0.7212
 2035TIP3    H227665   3.748   1.517   0.534 -0.6752 -0.6506  0.9885
 2036TIP3   OH227666   2.948   3.509   0.680 -0.1958  0.1944  0.3780
 2036TIP3    H127667   2.912   3.587   0.638 -1.8180 -1.3546 -1.3069
 2036TIP3    H227668   3.013   3.476   0.618  0.6941  0.3442  1.2112
 2037TIP3   OH227669   0.472   2.262   7.166  0.6408  0.6850  0.1138
 2037TIP3    H127670   0.422   2.337   7.136 -0.0794 -0.4066 -1.5598
 2037TIP3    H227671   0.564   2.287   7.153  0.4036  1.2291 -0.5643
 2038TIP3   OH227672   4.290   6.079   1.069  0.0039 -0.1707  0.4334
 2038TIP3    H127673   4.366   6.052   1.121 -0.1243 -0.2960  0.5567
 2038TIP3    H227674   4.295   6.175   1.067  0.8938 -0.2160 -0.6567
 2039TIP3   OH227675   1.394   6.117   0.273  0.0266 -0.7854  0.2280
 2039TIP3    H127676   1.486   6.139   0.264 -0.0356  0.3444  1.9844
 2039TIP3    H227677   1.347   6.199   0.257 -0.6142 -1.1053  0.3978
 2040TIP3   OH227678   2.663   2.773   2.114  0.1220  0.4078  0.5107
 2040TIP3    H127679   2.611   2.793   2.036 -1.0621 -2.5584  0.4046
 2040TIP3    H227680   2.753   2.787   2.087 -0.3107  0.2638 -1.1147
 2041TIP3   OH227681   3.255   0.052   1.057 -0.4232 -0.1168 -0.2839
 2041TIP3    H127682   3.268   0.107   1.135  2.8086 -1.1114  0.0146
 2041TIP3    H227683   3.293   0.102   0.985 -2.2399  0.2355 -1.0550
 2042TIP3   OH227684   5.039   2.963   1.903 -0.1493 -0.2152 -0.4292
 2042TIP3    H127685   5.017   2.941   1.993 -1.9885  2.9448  0.0446
 2042TIP3    H227686   5.119   3.016   1.910 -0.9595  1.0485 -0.4666
 2043TIP3   OH227687   2.677   3.787   7.869 -0.3134 -0.3059  0.3722
 2043TIP3    H127688   2.690   3.817   7.779  1.5966 -0.3882  0.5728
 2043TIP3    H227689   2.585   3.762   7.873 -0.7578  0.9027 -1.1873
 2044TIP3   OH227690   4.718   6.708   1.134  0.1744  0.6880  0.4081
 2044TIP3    H127691   4.772   6.636   1.106  0.7083  1.0494  0.4971
 2044TIP3    H227692   4.749   6.783   1.084 -1.9406  0.4132 -1.4779
 2045TIP3   OH227693   2.401   1.844   8.393  0.3196 -0.5065  0.3870
 2045TIP3    H127694   2.378   1.904   8.465  1.5813  1.0993 -0.4841
 2045TIP3    H227695   2.316   1.812   8.362 -0.4878  1.4407  0.4058
 2046TIP3   OH227696   5.419   0.609   1.019 -0.0110  0.2329  0.2515
 2046TIP3    H127697   5.480   0.550   0.975  2.8106  2.7932  0.4085
 2046TIP3    H227698   5.409   0.572   1.107  0.4464 -0.8056 -0.1102
 2047TIP3   OH227699   3.104   6.321   8.719  0.4709  0.5288  0.1939
 2047TIP3    H127700   3.087   6.397   8.774 -0.8197  1.3731 -1.2844
 2047TIP3    H227701   3.145   6.356   8.640 -0.0787 -0.3003 -0.4841
 2048TIP3   OH227702   1.022   3.455   7.131  0.3651 -0.4484  0.6070
 2048TIP3    H127703   0.950   3.511   7.100  1.8579  1.4852  0.4539
 2048TIP3    H227704   1.029   3.476   7.224 -0.1054 -1.6346  0.9215
 2049TIP3   OH227705   1.679   4.347   6.706  0.2177  0.1181  0.0411
 2049TIP3    H127706   1.730   4.415   6.663 -0.4239  0.6511  0.1023
 2049TIP3    H227707   1.597   4.343   6.655  1.3580 -2.6794 -1.8607
 2050TIP3   OH227708   5.422   5.354   7.222  0.1617  0.0171  0.2858
 2050TIP3    H127709   5.448   5.439   7.256  2.5089 -0.3731 -0.3436
 2050TIP3    H227710   5.375   5.374   7.141  2.1835  0.7522 -0.7946
 2051TIP3   OH227711   1.735   2.414   7.360 -0.5082 -0.0317  0.2005
 2051TIP3    H127712   1.753   2.409   7.266 -1.0557 -0.5039  0.1120
 2051TIP3    H227713   1.714   2.323   7.385 -1.9736  0.3399  0.4320
 2052TIP3   OH227714   5.178   4.304   6.768  0.7150  0.1734 -0.0848
 2052TIP3    H127715   5.267   4.268   6.762  0.5881 -0.3077  0.7505
 2052TIP3    H227716   5.174   4.370   6.699  1.8578  0.4747  0.1109
 2053TIP3   OH227717   6.438   4.324   2.485  0.4107 -0.3421  0.6724
 2053TIP3    H127718   6.396   4.311   2.399 -1.2037  0.2994  1.3205
 2053TIP3    H227719   6.504   4.391   2.470 -1.0157  1.0426  0.2266
 2054TIP3   OH227720   3.978   0.210   8.473 -0.5452  0.1825 -0.1307
 2054TIP3    H127721   3.991   0.264   8.551  2.4719 -0.0087 -0.3942
 2054TIP3    H227722   3.989   0.120   8.504  0.5477  0.0971 -0.7413
 2055TIP3   OH227723   2.698   3.275   1.151  0.0771  0.2939 -0.3846
 2055TIP3    H127724   2.650   3.204   1.195 -0.2269  0.8466  0.1996
 2055TIP3    H227725   2.727   3.237   1.068  0.4803 -0.7155  0.1987
 2056TIP3   OH227726   2.551   6.241   8.726  0.6135 -0.5578 -0.3648
 2056TIP3    H127727   2.590   6.241   8.638  0.1667 -0.9167 -0.5700
 2056TIP3    H227728   2.527   6.332   8.741  2.0003 -0.2411 -0.0162
 2057TIP3   OH227729   5.073   4.439   7.958 -0.7774 -0.1862  0.3483
 2057TIP3    H127730   5.032   4.353   7.949  0.8849 -0.9777  0.0650
 2057TIP3    H227731   5.094   4.446   8.051 -0.0540 -0.5155  0.2182
 2058TIP3   OH227732   1.928   2.961   8.402  0.2681  0.2638  0.0838
 2058TIP3    H127733   2.019   2.990   8.398  0.9901 -1.9004 -3.3202
 2058TIP3    H227734   1.881   3.026   8.349  0.4452 -0.2477 -0.7295
 2059TIP3   OH227735   6.403   2.389   8.004 -0.4146  0.2869 -0.4380
 2059TIP3    H127736   6.330   2.397   8.065  0.6915  2.1859  0.7610
 2059TIP3    H227737   6.459   2.322   8.044 -0.7301 -0.0337 -0.5270
 2060TIP3   OH227738   0.234   1.292   0.851  0.6613  0.2836 -0.2304
 2060TIP3    H127739   0.273   1.319   0.767  1.3841  0.1170  0.0480
 2060TIP3    H227740   0.276   1.348   0.916 -0.0936  0.5936  0.0018
 2061TIP3   OH227741   3.738   1.588   7.389 -0.5778  0.0618  0.0680
 2061TIP3    H127742   3.746   1.494   7.371  0.9185  0.4840 -1.8371
 2061TIP3    H227743   3.644   1.603   7.402 -0.9428 -1.5458 -0.5206
 2062TIP3   OH227744   0.593   1.582   1.023 -0.5292 -0.0419  0.0739
 2062TIP3    H127745   0.636   1.507   0.983  0.0748 -0.1692  0.9479
 2062TIP3    H227746   0.555   1.630   0.949 -0.3443 -0.8408 -0.5459
 2063TIP3   OH227747   2.331   3.276   1.242 -0.0259  0.7782 -0.5534
 2063TIP3    H127748   2.361   3.255   1.330  0.1919  1.7725 -0.3887
 2063TIP3    H227749   2.349   3.196   1.191  1.6642  0.8745 -0.1621
 2064TIP3   OH227750   5.161   0.286   1.686 -0.8224  0.1198 -0.4452
 2064TIP3    H127751   5.214   0.342   1.629 -0.0493  1.7503  1.7688
 2064TIP3    H227752   5.185   0.312   1.775 -2.2959 -2.0337  0.6652
 2065TIP3   OH227753   5.066   1.490   2.284  0.2447 -0.1171  0.1238
 2065TIP3    H127754   4.976   1.513   2.262  0.5241  0.8861 -0.0298
 2065TIP3    H227755   5.118   1.523   2.211  0.5465 -2.7684 -0.9731
 2066TIP3   OH227756   5.940   0.796   2.066  0.0743 -0.3149  0.3289
 2066TIP3    H127757   5.920   0.747   1.986 -1.5875  1.1245 -0.2045
 2066TIP3    H227758   6.030   0.772   2.087  0.0059 -1.9624 -1.0568
 2067TIP3   OH227759   3.804   0.103   0.227  0.0094 -0.3987  0.6339
 2067TIP3    H127760   3.840   0.186   0.259  0.0807  0.0415 -0.5412
 2067TIP3    H227761   3.843   0.092   0.140 -3.0122  0.3643 -0.9622
 2068TIP3   OH227762   1.868   5.490   7.645 -0.1635  0.2151 -0.1275
 2068TIP3    H127763   1.792   5.471   7.701  0.0266 -0.2144 -0.0092
 2068TIP3    H227764   1.940   5.443   7.686 -0.6073 -2.7678 -2.3890
 2069TIP3   OH227765   3.540   4.370   5.991  0.1759 -0.1405  0.3477
 2069TIP3    H127766   3.447   4.378   5.969  0.2562  0.7573  0.2967
 2069TIP3    H227767   3.585   4.386   5.908  0.3886  0.0883  0.5059
 2070TIP3   OH227768   1.876   1.115   7.335  0.3768 -0.1933  0.0678
 2070TIP3    H127769   1.820   1.167   7.393 -0.7562 -0.5733 -0.6692
 2070TIP3    H227770   1.946   1.084   7.392  1.4612  2.5974  0.4519
 2071TIP3   OH227771   5.675   3.937   8.293 -0.1156 -0.0028 -0.8600
 2071TIP3    H127772   5.760   3.926   8.336 -0.4167 -0.0833 -0.2932
 2071TIP3    H227773   5.659   3.853   8.251  0.5022  0.2948 -1.7288
 2072TIP3   OH227774   3.224   5.697   7.081 -0.6062 -0.8537  0.2198
 2072TIP3    H127775   3.305   5.746   7.093 -1.3019  0.6674 -1.0454
 2072TIP3    H227776   3.231   5.659   6.994  0.4558 -4.2024  1.5857
 2073TIP3   OH227777   3.314   3.038   8.607 -0.1855  0.1384  0.1947
 2073TIP3    H127778   3.365   2.964   8.575 -0.7463  0.5751 -1.8757
 2073TIP3    H227779   3.347   3.114   8.558 -1.7907  0.6679 -0.1534
 2074TIP3   OH227780   4.389   2.026   7.065  0.3681 -0.0399  0.0083
 2074TIP3    H127781   4.416   2.088   6.998  0.7441  0.6507  0.7917
 2074TIP3    H227782   4.471   1.987   7.096  0.1395 -0.9115 -0.4498
 2075TIP3   OH227783   1.553   4.987   0.766  0.3424  0.4840 -0.0518
 2075TIP3    H127784   1.510   5.019   0.687  1.0048  0.9651 -0.2321
 2075TIP3    H227785   1.491   5.005   0.837  0.8232  2.6100 -0.0772
 2076TIP3   OH227786   0.515   2.338   6.822  0.4368  0.0396  0.0357
 2076TIP3    H127787   0.568   2.418   6.818 -0.2652  0.4649 -0.8612
 2076TIP3    H227788   0.561   2.276   6.766  0.0344  0.3853 -0.6836
 2077TIP3   OH227789   5.400   1.295   1.215  0.0980 -0.1200 -0.4957
 2077TIP3    H127790   5.362   1.211   1.189  2.4292 -1.8666  1.2532
 2077TIP3    H227791   5.429   1.281   1.305  3.1801  1.5246 -1.0869
 2078TIP3   OH227792   1.768   5.182   7.040 -0.1044 -0.8218  0.0696
 2078TIP3    H127793   1.842   5.122   7.028  0.1910 -0.2923 -0.8814
 2078TIP3    H227794   1.722   5.180   6.957 -1.6525 -1.7504  0.9150
 2079TIP3   OH227795   4.515   3.620   1.082 -0.5205 -0.4012 -0.3577
 2079TIP3    H127796   4.585   3.624   1.017 -1.1455 -0.3243 -1.0471
 2079TIP3    H227797   4.552   3.660   1.160  0.0048  0.1820 -0.8951
 2080TIP3   OH227798   4.542   5.951   0.951 -0.0204 -0.8596 -0.2689
 2080TIP3    H127799   4.576   5.865   0.975 -0.9930 -1.0468  0.4898
 2080TIP3    H227800   4.541   6.000   1.034  1.5049  0.2585 -0.8485
 2081TIP3   OH227801   0.149   1.668   8.375 -0.0030  0.0167 -1.3496
 2081TIP3    H127802   0.236   1.629   8.382  0.9212  2.2423  0.8359
 2081TIP3    H227803   0.093   1.595   8.347  1.9994 -2.2939  0.2072
 2082TIP3   OH227804   2.428   2.861   1.630 -0.0110 -0.2658 -0.2767
 2082TIP3    H127805   2.400   2.900   1.547  0.2147  1.7456  0.5237
 2082TIP3    H227806   2.354   2.877   1.689 -0.7656 -2.9106 -0.3635
 2083TIP3   OH227807   2.514   0.145   1.567  0.1189 -0.0941 -0.0036
 2083TIP3    H127808   2.496   0.139   1.661  0.1674  0.2250  0.0261
 2083TIP3    H227809   2.427   0.147   1.526  0.0886 -1.3936 -0.0462
 2084TIP3   OH227810   0.791   4.172   8.713 -0.5423 -0.3410 -0.1681
 2084TIP3    H127811   0.804   4.217   8.630 -0.5390 -0.6085 -0.3106
 2084TIP3    H227812   0.760   4.085   8.690 -2.8073  0.3158  0.1531
 2085TIP3   OH227813   6.772   2.110   1.100  0.0149 -0.1526  0.4045
 2085TIP3    H127814   6.690   2.066   1.121 -0.5835  1.2631  1.1527
 2085TIP3    H227815   6.821   2.110   1.182  1.2604 -1.9092 -0.2735
 2086TIP3   OH227816   1.927   5.142   6.683 -0.0052  0.0267 -0.4007
 2086TIP3    H127817   1.902   5.066   6.736  0.0723 -0.8950 -1.6354
 2086TIP3    H227818   2.021   5.133   6.671 -0.0784  0.0095 -1.0043
 2087TIP3   OH227819   4.025   0.600   8.801  0.0081  0.4674 -0.2344
 2087TIP3    H127820   3.942   0.647   8.799 -0.3578  0.2410  3.3695
 2087TIP3    H227821   4.051   0.602   8.893  0.7416 -4.9694 -0.0332
 2088TIP3   OH227822   0.374   3.626   7.259  0.0981 -0.6215  0.6745
 2088TIP3    H127823   0.371   3.701   7.200  0.9934 -1.2478 -0.2237
 2088TIP3    H227824   0.287   3.620   7.296 -0.7085 -0.5709 -1.1054
 2089TIP3   OH227825   4.471   2.419   1.580 -0.3396  0.3967 -0.1161
 2089TIP3    H127826   4.525   2.489   1.616 -1.5880  2.3175 -1.7447
 2089TIP3    H227827   4.409   2.397   1.650 -0.4932  1.5759  0.1339
 2090TIP3   OH227828   6.115   0.958   0.273  0.3482 -0.3876 -0.3998
 2090TIP3    H127829   6.021   0.966   0.287  0.1291 -1.5986 -1.0517
 2090TIP3    H227830   6.155   0.985   0.356 -0.3931  3.0409 -1.0024
 2091TIP3   OH227831   2.623   5.180   0.531  0.1385 -0.5046  0.4307
 2091TIP3    H127832   2.690   5.163   0.597  0.5453 -3.4363 -0.5727
 2091TIP3    H227833   2.668   5.229   0.462  0.9729 -1.4822  0.2685
 2092TIP3   OH227834   5.067   0.741   0.582  0.1879  0.8527 -0.5667
 2092TIP3    H127835   5.098   0.702   0.664  2.3299  0.5118 -1.4718
 2092TIP3    H227836   5.062   0.835   0.600 -2.4113  0.5618  0.8174
 2093TIP3   OH227837   0.037   1.422   7.329 -0.5264  0.3479  0.4564
 2093TIP3    H127838   0.082   1.466   7.401  0.4472 -0.2363  0.2181
 2093TIP3    H227839  -0.035   1.375   7.371 -2.2327  2.8992  0.6195
 2094TIP3   OH227840   3.063   5.005   1.064  0.1140 -0.3584  0.1451
 2094TIP3    H127841   2.988   4.960   1.103  0.2473 -0.4582  0.2892
 2094TIP3    H227842   3.133   4.992   1.127  0.2765 -0.3407 -0.0322
 2095TIP3   OH227843   0.549   6.738   8.819  0.0488 -0.0691  0.7307
 2095TIP3    H127844   0.466   6.699   8.792 -0.6431  0.3586  2.1139
 2095TIP3    H227845   0.616   6.690   8.771 -1.0420  0.3243 -1.2903
 2096TIP3   OH227846   2.268   4.162   0.639  0.2139  0.4363  0.5234
 2096TIP3    H127847   2.309   4.208   0.712 -0.5928  0.7414  0.7917
 2096TIP3    H227848   2.290   4.215   0.562  1.4402 -0.1259  0.4636
 2097TIP3   OH227849   3.960   4.788   6.490 -0.5021 -0.0036 -0.0854
 2097TIP3    H127850   4.022   4.860   6.483  0.3890 -0.5150  1.9788
 2097TIP3    H227851   4.014   4.709   6.480 -0.7403 -0.4561  1.7910
 2098TIP3   OH227852   5.360   5.688   7.804  0.1242 -0.2931 -0.6107
 2098TIP3    H127853   5.378   5.778   7.829  0.5308 -0.4052 -0.4787
 2098TIP3    H227854   5.438   5.639   7.833 -1.4977 -1.2990  2.4753
 2099TIP3   OH227855   6.617   5.448   8.415  0.0687 -0.2643 -0.5468
 2099TIP3    H127856   6.550   5.455   8.346  1.3965 -1.0881 -1.9796
 2099TIP3    H227857   6.666   5.530   8.410  0.0014 -0.2127 -0.3866
 2100TIP3   OH227858   3.055   2.013   1.411  0.1432 -0.3299 -0.2408
 2100TIP3    H127859   2.973   1.974   1.380 -0.9742  0.7827  1.1780
 2100TIP3    H227860   3.057   1.993   1.505  1.2177  0.1536 -0.1429
 2101TIP3   OH227861   4.898   6.790   7.718  0.2432  0.0333  0.2065
 2101TIP3    H127862   4.900   6.822   7.628 -2.7782  1.0640  0.3993
 2101TIP3    H227863   4.810   6.754   7.729  1.0421 -1.4845  2.3251
 2102TIP3   OH227864   1.041   6.060   8.088  0.4263 -0.1117 -0.7326
 2102TIP3    H127865   0.953   6.085   8.058 -0.3118 -0.5818  0.8718
 2102TIP3    H227866   1.024   5.990   8.151  1.8657  0.6216  0.5128
 2103TIP3   OH227867   1.756   0.363   7.594 -0.1448  0.0246 -0.3381
 2103TIP3    H127868   1.799   0.355   7.679 -1.5812 -0.5918  0.3704
 2103TIP3    H227869   1.817   0.415   7.541  1.8654 -1.5768  0.2866
 2104TIP3   OH227870   5.568   3.931   0.218  0.3334 -0.4494 -0.4735
 2104TIP3    H127871   5.535   4.018   0.239  2.8134 -0.0613  2.5686
 2104TIP3    H227872   5.494   3.872   0.236 -0.6226  0.8277 -0.0869
 2105TIP3   OH227873   1.146   3.020   1.731  0.6048 -0.5090  0.3552
 2105TIP3    H127874   1.131   2.930   1.759  1.1669 -0.0398  2.3468
 2105TIP3    H227875   1.177   3.064   1.810  0.7077  1.3451 -0.6751
 2106TIP3   OH227876   1.527   3.142   7.091 -0.3670 -0.0445 -0.0947
 2106TIP3    H127877   1.586   3.113   7.021 -0.5738  1.4447 -0.9268
 2106TIP3    H227878   1.575   3.122   7.171  0.3260 -0.8602 -0.6854
 2107TIP3   OH227879   2.569   2.071   0.892 -0.4184  0.0887  0.5056
 2107TIP3    H127880   2.548   2.044   0.982 -1.5348  1.3937  0.6655
 2107TIP3    H227881   2.547   2.164   0.890 -1.3653 -0.1416 -1.4139
 2108TIP3   OH227882   1.705   3.427   0.220 -0.0511  0.3768 -0.1032
 2108TIP3    H127883   1.778   3.414   0.280  0.5333  1.0671 -0.6536
 2108TIP3    H227884   1.718   3.515   0.185 -1.7206  0.9429  0.5835
 2109TIP3   OH227885   3.200   0.567   6.912 -0.4915  0.5153 -0.2548
 2109TIP3    H127886   3.241   0.481   6.909 -0.6397  0.3382  1.6355
 2109TIP3    H227887   3.272   0.628   6.925 -0.6304  0.3417  1.5850
 2110TIP3   OH227888   1.654   3.567   8.263  0.1797 -0.6429 -0.3491
 2110TIP3    H127889   1.627   3.543   8.174  0.9736  0.2661 -0.8470
 2110TIP3    H227890   1.705   3.647   8.252  1.7655 -1.4658  0.7368
 2111TIP3   OH227891   0.991   6.466   8.554 -0.5355 -0.4288 -0.6642
 2111TIP3    H127892   1.019   6.551   8.520 -0.3377 -1.2453 -2.7032
 2111TIP3    H227893   0.930   6.433   8.487 -0.7464 -1.8061  0.1788
 2112TIP3   OH227894   0.529   0.888   8.097  0.9706 -0.1773 -0.3183
 2112TIP3    H127895   0.543   0.846   8.182  1.2673 -0.4369 -0.4889
 2112TIP3    H227896   0.449   0.938   8.107  0.4111 -1.0721 -0.2138
 2113TIP3   OH227897   0.637   5.706   8.677 -0.7777  0.6500 -0.2954
 2113TIP3    H127898   0.561   5.658   8.710  0.7536 -1.2138  0.6903
 2113TIP3    H227899   0.639   5.685   8.584 -1.0692  0.1458 -0.1942
 2114TIP3   OH227900   2.867   3.894   7.648 -0.6459 -0.0912  0.4769
 2114TIP3    H127901   2.956   3.887   7.682 -1.6336 -1.3970  3.0550
 2114TIP3    H227902   2.878   3.922   7.557  2.5015 -2.2320  0.0365
 2115TIP3   OH227903   3.278   4.803   2.212 -0.2692  0.0058 -0.3547
 2115TIP3    H127904   3.340   4.778   2.143  1.5809 -0.9455  1.5048
 2115TIP3    H227905   3.193   4.773   2.181  0.4461 -0.0601 -2.3493
 2116TIP3   OH227906   3.234   2.916   1.591  0.0354 -0.9074 -0.2276
 2116TIP3    H127907   3.173   2.853   1.628 -0.4720 -1.3267 -1.7292
 2116TIP3    H227908   3.295   2.863   1.540  1.4218 -0.4546  0.8870
 2117TIP3   OH227909   3.030   6.208   8.264  0.3249  0.5621  0.0801
 2117TIP3    H127910   3.000   6.135   8.318 -2.3074  0.6233 -1.0996
 2117TIP3    H227911   3.013   6.179   8.174 -1.2373  2.7359 -0.4056
 2118TIP3   OH227912   6.605   5.227   7.438 -0.5320 -0.0727 -0.2259
 2118TIP3    H127913   6.607   5.243   7.343 -0.1039 -1.4403 -0.4718
 2118TIP3    H227914   6.697   5.211   7.461 -0.6330  0.2708  0.4402
 2119TIP3   OH227915   5.175   0.854   0.996  0.1632 -0.4116  0.0378
 2119TIP3    H127916   5.193   0.798   0.920 -0.0828 -1.1885  0.5412
 2119TIP3    H227917   5.198   0.800   1.072  3.0122  1.2451  0.5056
 2120TIP3   OH227918   5.928   5.748   2.485  0.1054 -0.5039  0.5312
 2120TIP3    H127919   6.020   5.758   2.505  0.3635 -0.0353 -0.7464
 2120TIP3    H227920   5.913   5.654   2.482  0.8322 -0.6021 -0.3864
 2121TIP3   OH227921   4.394   0.903   7.790  0.6400 -0.2454 -0.1447
 2121TIP3    H127922   4.316   0.849   7.775  0.3589 -0.3068  1.3686
 2121TIP3    H227923   4.364   0.973   7.848  1.9712 -1.0118  1.5578
 2122TIP3   OH227924   2.215   6.636   6.616 -0.4922 -0.3775 -0.1736
 2122TIP3    H127925   2.279   6.647   6.545  0.0397  0.2404  0.3856
 2122TIP3    H227926   2.157   6.567   6.585  0.3120 -0.7977 -0.8012
 2123TIP3   OH227927   2.303   5.284   1.769 -0.1216 -0.1622 -0.6314
 2123TIP3    H127928   2.359   5.274   1.846 -0.3337 -0.5548 -0.5274
 2123TIP3    H227929   2.255   5.365   1.786 -2.4758 -1.7755  1.1584
 2124TIP3   OH227930   5.923   6.471   7.537 -0.2162  0.3083 -0.0095
 2124TIP3    H127931   5.958   6.410   7.601  0.3232  0.5204 -0.0953
 2124TIP3    H227932   5.989   6.473   7.467 -1.0510 -0.3398 -0.8329
 2125TIP3   OH227933   1.252   5.610   0.399 -0.3683  0.2442 -0.2914
 2125TIP3    H127934   1.347   5.605   0.387 -0.6738  0.1455 -3.2098
 2125TIP3    H227935   1.217   5.537   0.349 -2.0269  0.3586  0.6151
 2126TIP3   OH227936   5.363   4.830   2.649 -0.4725 -0.2971  0.3164
 2126TIP3    H127937   5.385   4.898   2.713  0.1682  0.1428 -0.3581
 2126TIP3    H227938   5.343   4.878   2.569  1.4294 -0.9254 -0.5900
 2127TIP3   OH227939   5.346   3.980   7.156 -0.0835 -0.1908  0.6214
 2127TIP3    H127940   5.254   3.972   7.181 -0.4883  1.9490  0.0315
 2127TIP3    H227941   5.344   4.003   7.063  1.1350 -1.4175  0.2586
 2128TIP3   OH227942   1.874   2.835   2.123 -0.0411 -0.0227  0.1113
 2128TIP3    H127943   1.871   2.754   2.073 -0.9038  0.1700 -0.1694
 2128TIP3    H227944   1.802   2.828   2.185  1.9338 -0.9396  2.4818
 2129TIP3   OH227945   1.957   4.056   0.330 -0.5880 -0.5727  0.3510
 2129TIP3    H127946   1.907   4.120   0.279 -0.3015  0.3111  1.1640
 2129TIP3    H227947   1.933   4.073   0.421 -1.4056 -2.4083  0.5273
 2130TIP3   OH227948   3.677   5.146   8.707  0.1395  0.0645 -0.1421
 2130TIP3    H127949   3.763   5.108   8.688  0.0231  0.1671 -0.9132
 2130TIP3    H227950   3.680   5.233   8.666  0.1353  0.5946  0.9603
 2131TIP3   OH227951   0.264   5.747   8.631 -0.6730 -0.1318  0.3147
 2131TIP3    H127952   0.184   5.743   8.579 -0.4969  1.0853 -0.0842
 2131TIP3    H227953   0.299   5.834   8.614  0.2527 -0.3116  1.2095
 2132TIP3   OH227954   1.326   4.459   8.195 -0.2281 -0.5562  0.2018
 2132TIP3    H127955   1.300   4.497   8.111 -0.9760 -1.3851  0.0488
 2132TIP3    H227956   1.421   4.454   8.191 -0.2121  0.0417 -0.3120
 2133TIP3   OH227957   3.387   3.264   6.451  0.5575  0.0498 -0.3464
 2133TIP3    H127958   3.342   3.184   6.477 -0.3766  0.6100 -0.2048
 2133TIP3    H227959   3.324   3.311   6.397  1.4772  0.2108 -1.3083
 2134TIP3   OH227960   5.459   6.579   8.223 -0.2174 -0.1714 -0.2497
 2134TIP3    H127961   5.441   6.650   8.285 -2.1620 -0.7798 -0.0495
 2134TIP3    H227962   5.482   6.624   8.142  0.6388  0.6525  0.4323
 2135TIP3   OH227963   0.904   1.212   7.904 -0.1815 -0.0965  0.4202
 2135TIP3    H127964   0.999   1.222   7.905 -0.1096 -0.6135  2.4231
 2135TIP3    H227965   0.870   1.301   7.918  0.0382 -0.0425  0.6218
 2136TIP3   OH227966   6.492   5.151   0.390 -0.0194  0.6689 -0.1606
 2136TIP3    H127967   6.518   5.189   0.474 -0.2550 -1.4831  0.9612
 2136TIP3    H227968   6.569   5.160   0.334  0.9874 -0.0068  1.0777
 2137TIP3   OH227969   1.676   3.861   2.057 -0.3585 -0.0521 -0.8008
 2137TIP3    H127970   1.611   3.927   2.033 -1.9943 -1.5560 -0.6459
 2137TIP3    H227971   1.647   3.828   2.142  0.9370 -0.3628 -0.4504
 2138TIP3   OH227972   0.733   1.623   0.443  0.0607  0.6959 -0.0100
 2138TIP3    H127973   0.773   1.629   0.530 -1.5895 -1.7033  1.0571
 2138TIP3    H227974   0.754   1.706   0.401  1.9164  1.4934  2.2274
 2139TIP3   OH227975   1.662   6.702   6.890  0.0414 -0.5454 -0.0547
 2139TIP3    H127976   1.711   6.736   6.965 -0.5765  0.9852 -0.3100
 2139TIP3    H227977   1.730   6.672   6.829  0.5564 -1.3485  0.8855
 2140TIP3   OH227978   5.605   1.700   0.584  0.1454 -0.0013 -0.1849
 2140TIP3    H127979   5.591   1.748   0.665 -1.0632 -0.8974  0.1600
 2140TIP3    H227980   5.580   1.610   0.604  1.4934 -0.6197 -1.0730
 2141TIP3   OH227981   0.415   6.515   0.527  0.1313 -0.0321 -0.5857
 2141TIP3    H127982   0.500   6.559   0.528 -0.7033  1.7065  1.1486
 2141TIP3    H227983   0.373   6.544   0.445  0.7512 -0.0075 -0.8974
 2142TIP3   OH227984   2.444   2.410   8.617  0.1175  0.2129 -0.0478
 2142TIP3    H127985   2.450   2.478   8.550 -0.4710  0.0950 -0.2231
 2142TIP3    H227986   2.379   2.443   8.680  0.8272  0.4255  0.5935
 2143TIP3   OH227987   2.709   1.131   7.560 -0.1987  0.5606  0.5469
 2143TIP3    H127988   2.769   1.063   7.592 -0.8140 -0.4537 -0.3827
 2143TIP3    H227989   2.622   1.094   7.575 -0.5293  0.2431 -1.7731
 2144TIP3   OH227990   0.107   0.850   7.527 -0.0264 -0.9192 -0.3959
 2144TIP3    H127991   0.139   0.858   7.437  0.4862 -0.5058 -0.1817
 2144TIP3    H227992   0.187   0.851   7.580 -0.1662 -3.0961 -0.0493
 2145TIP3   OH227993   2.661   4.609   0.795  0.1970 -0.1480  0.4317
 2145TIP3    H127994   2.726   4.544   0.820  0.7556  0.2280 -0.0055
 2145TIP3    H227995   2.691   4.690   0.837  1.6642  0.7203 -2.0511
 2146TIP3   OH227996   6.368   5.160   1.332 -0.6533  0.0691  0.0848
 2146TIP3    H127997   6.450   5.128   1.369  0.1667  1.8981 -0.0288
 2146TIP3    H227998   6.312   5.083   1.327  0.7941 -1.0843  0.8614
 2147TIP3   OH227999   0.322   2.863   0.640  0.5909 -0.2869 -0.1719
 2147TIP3    H128000   0.336   2.905   0.724  0.2455 -2.4443  1.0391
 2147TIP3    H228001   0.403   2.814   0.623 -0.3209 -2.0410  0.2926
 2148TIP3   OH228002   1.113   3.331   6.146 -0.4077 -0.5258 -0.0881
 2148TIP3    H128003   1.033   3.320   6.095 -1.4500  1.9428  0.8492
 2148TIP3    H228004   1.181   3.348   6.081 -1.0228 -0.7761 -0.8077
 2149TIP3   OH228005   5.196   2.553   6.218  0.5699  0.0462  0.5304
 2149TIP3    H128006   5.176   2.491   6.288 -0.6044  1.5195  1.5427
 2149TIP3    H228007   5.125   2.542   6.155  0.0452  0.7525  0.9912
 2150TIP3   OH228008   2.225   0.107   7.167  0.2888 -0.5787 -0.2983
 2150TIP3    H128009   2.297   0.138   7.111  1.7719 -1.9830  0.7294
 2150TIP3    H228010   2.202   0.183   7.220  1.3763 -0.2263 -0.2993
 2151TIP3   OH228011   5.951   1.235   1.809  0.4570  0.4846  0.0023
 2151TIP3    H128012   5.859   1.258   1.797  0.0372 -1.1660 -0.1247
 2151TIP3    H228013   5.992   1.317   1.836 -1.0829  1.1983  0.3099
 2152TIP3   OH228014   6.729   5.974   2.273 -0.5869 -0.2755 -0.4088
 2152TIP3    H128015   6.747   5.892   2.318  0.8538  0.7206  0.9077
 2152TIP3    H228016   6.647   6.006   2.311 -0.6547 -0.6389 -0.2531
 2153TIP3   OH228017   4.144   5.064   1.075 -0.0274 -0.1990 -0.1566
 2153TIP3    H128018   4.081   5.121   1.031 -0.6837  1.1558  2.2993
 2153TIP3    H228019   4.208   5.043   1.008 -0.1110  2.9294 -1.4178
 2154TIP3   OH228020   6.102   2.160   0.959 -0.1281 -0.3938  0.0910
 2154TIP3    H128021   6.126   2.253   0.969  0.3823 -0.0789 -2.8890
 2154TIP3    H228022   6.167   2.127   0.897 -0.2486 -2.8242  1.1761
 2155TIP3   OH228023   6.624   5.324   1.550  0.3692  0.0037  0.4679
 2155TIP3    H128024   6.716   5.303   1.533  0.1585 -1.2651  0.7827
 2155TIP3    H228025   6.577   5.243   1.531 -0.6580  0.5532  0.5850
 2156TIP3   OH228026   4.678   1.995   6.691 -0.3623  0.1100  0.1295
 2156TIP3    H128027   4.673   1.899   6.692 -2.3561  0.1444 -0.3581
 2156TIP3    H228028   4.769   2.015   6.710  0.6551 -1.9446 -2.1004
 2157TIP3   OH228029   5.127   6.688   6.863  0.0894  0.3567  0.3063
 2157TIP3    H128030   5.195   6.720   6.922  0.1702  1.1851 -0.2160
 2157TIP3    H228031   5.169   6.689   6.776  0.5158 -2.3683  0.3852
 2158TIP3   OH228032   1.028   0.043   0.412 -0.0268  0.4397  0.2652
 2158TIP3    H128033   0.996  -0.017   0.344  0.2810 -0.8611  1.2401
 2158TIP3    H228034   0.948   0.078   0.452 -0.2095  0.9094 -0.4902
 2159TIP3   OH228035   3.770   3.575   6.624 -0.2656  0.1939 -0.1907
 2159TIP3    H128036   3.723   3.501   6.587  2.3746 -1.3175 -0.7822
 2159TIP3    H228037   3.708   3.647   6.620 -1.4963 -0.8293 -3.9119
 2160TIP3   OH228038   4.860   3.003   7.824 -0.4911  0.1353 -0.2695
 2160TIP3    H128039   4.795   3.013   7.894 -0.5448 -1.2554 -0.0726
 2160TIP3    H228040   4.816   2.947   7.760  0.1153  0.1119 -0.6685
 2161TIP3   OH228041   0.888   0.748   7.118 -0.6160  0.2415 -0.0484
 2161TIP3    H128042   0.923   0.786   7.199 -1.3398 -0.4458  0.6023
 2161TIP3    H228043   0.963   0.747   7.058  0.5748 -1.3656  1.3657
 2162TIP3   OH228044   5.207   1.091   7.114 -0.6547 -0.2979  0.3647
 2162TIP3    H128045   5.286   1.098   7.062 -0.7482 -0.2405  0.2305
 2162TIP3    H228046   5.172   1.180   7.118  0.3124  0.0427  2.0433
 2163TIP3   OH228047   0.760   5.715   7.893 -0.2443 -0.0848 -0.1647
 2163TIP3    H128048   0.685   5.760   7.856  0.8645  1.9764 -0.1026
 2163TIP3    H228049   0.731   5.625   7.908 -3.0220  0.8867  0.8568
 2164TIP3   OH228050   1.501   2.997   0.054 -0.1047  0.3838  0.1582
 2164TIP3    H128051   1.573   3.033   0.104  0.5431 -1.3449  0.5491
 2164TIP3    H228052   1.441   2.962   0.120 -0.8636  0.9955 -0.1907
 2165TIP3   OH228053   5.909   3.406   7.740 -0.3964 -0.0830 -0.3455
 2165TIP3    H128054   5.973   3.339   7.715  0.2821  1.0506 -1.8255
 2165TIP3    H228055   5.911   3.469   7.668 -1.0164  1.5259  0.9701
 2166TIP3   OH228056   2.696   3.287   0.374 -0.2684  0.7488 -0.1717
 2166TIP3    H128057   2.769   3.306   0.316  0.7216  1.4850  1.2491
 2166TIP3    H228058   2.733   3.229   0.441 -0.6204  2.1201  1.2641
 2167TIP3   OH228059   4.775   1.746   0.244 -0.0652  0.1391  0.5892
 2167TIP3    H128060   4.723   1.677   0.283  0.1844  0.6399  1.8538
 2167TIP3    H228061   4.855   1.749   0.296  0.4039  0.6569 -0.1305
 2168TIP3   OH228062   5.847   1.688   7.410 -0.3668 -0.2583  0.0494
 2168TIP3    H128063   5.934   1.663   7.440  0.7216 -0.4397 -2.9184
 2168TIP3    H228064   5.789   1.620   7.444  1.2642 -2.2181 -0.9256
 2169TIP3   OH228065   1.935   1.223   6.660  0.7397  0.4038 -0.5112
 2169TIP3    H128066   1.903   1.152   6.605  0.3053  1.8526 -2.2315
 2169TIP3    H228067   1.995   1.181   6.722 -0.6017 -1.6397 -0.5044
 2170TIP3   OH228068   4.516   3.937   0.133  0.1825  0.5802  0.3494
 2170TIP3    H128069   4.590   3.880   0.111 -0.5557 -0.5926  0.7662
 2170TIP3    H228070   4.556   4.022   0.153  1.3268  0.2097 -0.2658
 2171TIP3   OH228071   0.332   0.533   8.218 -0.0283 -0.3634 -0.3541
 2171TIP3    H128072   0.337   0.512   8.124  0.0665  0.0040 -0.4321
 2171TIP3    H228073   0.348   0.449   8.262  0.0502 -0.5139 -0.6656
 2172TIP3   OH228074   6.130   6.062   1.572 -0.3066  0.2698 -0.0050
 2172TIP3    H128075   6.189   6.116   1.520  0.1230  2.0391  2.1553
 2172TIP3    H228076   6.043   6.096   1.553  0.0163  2.3168  1.8523
 2173TIP3   OH228077   3.211   2.890   0.811 -0.9244  0.4428 -0.0281
 2173TIP3    H128078   3.261   2.893   0.892 -1.8263 -2.8182  0.7848
 2173TIP3    H228079   3.197   2.797   0.794 -1.3314  0.9903 -3.6200
 2174TIP3   OH228080   6.524   2.698   2.125 -0.2526 -0.2265  1.2126
 2174TIP3    H128081   6.525   2.609   2.088  1.6171 -0.2644  1.2867
 2174TIP3    H228082   6.447   2.739   2.086  0.0524 -1.1966 -0.4838
 2175TIP3   OH228083   0.918   0.050   1.879 -0.2893  0.0146 -0.3794
 2175TIP3    H128084   0.905   0.143   1.898 -1.3329 -0.4895  1.6546
 2175TIP3    H228085   1.003   0.029   1.918 -0.0222  0.1075 -0.8970
 2176TIP3   OH228086   1.090   2.861   8.832 -0.1210  0.1821 -0.0961
 2176TIP3    H128087   1.013   2.848   8.776  0.4694 -1.2619 -0.6262
 2176TIP3    H228088   1.091   2.955   8.851 -0.8976  0.5413 -1.6813
 2177TIP3   OH228089   2.836   1.244   6.606  0.0522 -0.3459 -0.0414
 2177TIP3    H128090   2.746   1.253   6.636  0.0241 -0.7951  0.0060
 2177TIP3    H228091   2.830   1.193   6.526  0.1854  0.3330 -0.4982
 2178TIP3   OH228092   2.545   0.955   8.743 -0.1716 -0.0860 -0.0217
 2178TIP3    H128093   2.608   1.007   8.692  2.4712 -1.3246  1.7578
 2178TIP3    H228094   2.511   1.016   8.808 -0.4784  0.4856 -0.7051
 2179TIP3   OH228095   3.092   6.667   0.887 -0.0171 -0.5123 -0.7326
 2179TIP3    H128096   3.013   6.721   0.893  0.1868 -0.3678  1.2310
 2179TIP3    H228097   3.156   6.713   0.941  0.5480 -2.0773 -0.0253
 2180TIP3   OH228098   0.982   4.192   7.552 -0.5583  0.6170 -0.0263
 2180TIP3    H128099   0.910   4.205   7.614 -1.1576 -0.0453 -0.5732
 2180TIP3    H228100   1.003   4.099   7.558  0.5055  0.8743  0.3925
 2181TIP3   OH228101   1.939   5.161   8.734 -0.1325  0.3241 -0.0802
 2181TIP3    H128102   1.898   5.182   8.650  1.4334  2.5341 -0.3774
 2181TIP3    H228103   1.969   5.071   8.725  0.2125  0.6039 -1.9821
 2182TIP3   OH228104   6.786   3.716   8.608  0.1475 -0.0152 -0.3767
 2182TIP3    H128105   6.705   3.708   8.659  0.0670 -3.1395 -0.7978
 2182TIP3    H228106   6.767   3.784   8.543 -1.6968  0.1573  0.2734
 2183TIP3   OH228107   0.796   3.205   6.214 -0.1870 -0.1230 -0.2345
 2183TIP3    H128108   0.764   3.290   6.244  1.0004  0.3810 -0.3284
 2183TIP3    H228109   0.832   3.222   6.126  0.1683 -0.6884 -0.2082
 2184TIP3   OH228110   0.142   0.229   7.687  0.2550 -0.1176 -0.2341
 2184TIP3    H128111   0.081   0.159   7.706 -1.3304  1.6580  1.6113
 2184TIP3    H228112   0.191   0.242   7.768  1.3626  0.1624 -0.9141
 2185TIP3   OH228113   6.430   5.715   1.217 -0.5484 -0.2425 -0.3578
 2185TIP3    H128114   6.494   5.661   1.263  0.5735 -0.1490 -1.7526
 2185TIP3    H228115   6.345   5.687   1.253 -0.0068 -2.8006 -0.8373
 2186TIP3   OH228116   3.231   0.847   1.111  0.0639  0.5153 -0.3979
 2186TIP3    H128117   3.206   0.786   1.041 -0.1533 -1.0257  0.9441
 2186TIP3    H228118   3.315   0.813   1.142  0.2716  1.3281 -0.0747
 2187TIP3   OH228119   4.788   1.493   8.513  0.3067 -0.1275  0.3310
 2187TIP3    H128120   4.792   1.428   8.583  3.7230  1.3592  1.7700
 2187TIP3    H228121   4.702   1.534   8.523  0.2488 -0.7069  3.0402
 2188TIP3   OH228122   5.492   0.023   1.616 -0.5951  0.5758  0.4739
 2188TIP3    H128123   5.490  -0.061   1.571 -1.0441  1.5258 -1.3688
 2188TIP3    H228124   5.558   0.012   1.684  1.7040 -0.3104 -1.7584
 2189TIP3   OH228125   5.374   4.683   6.747 -0.4676  0.0272  0.3818
 2189TIP3    H128126   5.416   4.601   6.721  0.0014 -0.1407  1.6007
 2189TIP3    H228127   5.286   4.656   6.776 -0.1174 -0.1399  1.3214
 2190TIP3   OH228128   2.982   0.062   0.663 -0.1506  0.4016 -0.5203
 2190TIP3    H128129   3.038   0.135   0.636  2.1593 -0.9475  0.3651
 2190TIP3    H228130   2.978   0.069   0.759  0.3754 -0.7721 -0.3907
 2191TIP3   OH228131   1.028   4.679   6.125 -0.1993  0.1031  0.0363
 2191TIP3    H128132   1.123   4.673   6.116  0.1310  0.4800  2.4851
 2191TIP3    H228133   1.004   4.759   6.079  0.6980  0.1190 -0.4212
 2192TIP3   OH228134   1.559   1.051   7.888 -0.8796 -0.8542  0.3463
 2192TIP3    H128135   1.568   1.081   7.979 -1.4024  1.5054 -0.2910
 2192TIP3    H228136   1.485   0.990   7.890 -1.3873 -0.2439  1.4198
 2193TIP3   OH228137   4.500   3.420   7.777 -0.6997 -0.5485 -0.2709
 2193TIP3    H128138   4.560   3.457   7.842  0.2619  0.1073 -1.4879
 2193TIP3    H228139   4.476   3.334   7.812 -0.6261 -0.0110  1.1837
 2194TIP3   OH228140   2.815   5.536   8.565 -0.0621 -0.3807  0.5063
 2194TIP3    H128141   2.889   5.480   8.544  0.9030  1.2376 -0.6862
 2194TIP3    H228142   2.740   5.477   8.571  1.4845 -2.2964  3.2166
 2195TIP3   OH228143   4.527   2.831   1.159  0.1469 -0.1023  0.5331
 2195TIP3    H128144   4.554   2.885   1.085 -0.1705 -0.4584  0.1518
 2195TIP3    H228145   4.584   2.857   1.231  0.0502  0.6829  0.3307
 2196TIP3   OH228146   4.512   1.741   1.884 -0.2159 -0.4388  0.1094
 2196TIP3    H128147   4.474   1.657   1.858  0.1778 -0.4162 -0.5532
 2196TIP3    H228148   4.573   1.719   1.955  0.6456 -0.8612 -0.7409
 2197TIP3   OH228149   0.469   5.619   8.469  0.2330  0.0930  0.4961
 2197TIP3    H128150   0.404   5.668   8.519 -0.3668 -1.0012  0.8056
 2197TIP3    H228151   0.463   5.530   8.502  1.8474 -0.0469  0.4677
 2198TIP3   OH228152   5.178   3.972   7.535 -0.6154  0.1897  0.8204
 2198TIP3    H128153   5.247   3.965   7.601 -1.6939 -2.0612  1.8332
 2198TIP3    H228154   5.106   4.015   7.581 -1.4370 -1.5483  1.2575
 2199TIP3   OH228155   5.901   0.731   8.342  0.2257 -0.2980 -0.5757
 2199TIP3    H128156   5.884   0.778   8.261 -1.1602  1.0486  0.4535
 2199TIP3    H228157   5.841   0.657   8.340  0.6664 -0.6500 -1.0655
 2200TIP3   OH228158   5.432   1.045   2.539  0.0067  0.2286 -0.1590
 2200TIP3    H128159   5.340   1.024   2.552  0.1859  0.3524  1.6355
 2200TIP3    H228160   5.444   1.128   2.585  0.9494  0.3472 -0.5982
 2201TIP3   OH228161   4.699   2.008   7.486 -0.4164  0.0898  0.2158
 2201TIP3    H128162   4.699   2.098   7.452 -0.5640  0.0340  0.0680
 2201TIP3    H228163   4.745   2.014   7.570 -1.6632  0.5482  0.8794
 2202TIP3   OH228164   4.097   5.675   0.999 -0.7690 -0.7620 -0.2465
 2202TIP3    H128165   4.144   5.720   1.070 -1.1757 -0.9332  0.1291
 2202TIP3    H228166   4.160   5.673   0.927 -1.3880  2.2802 -1.0144
 2203TIP3   OH228167   3.025   0.343   0.377 -0.3400 -0.1522  0.1769
 2203TIP3    H128168   2.991   0.429   0.403 -1.3177  0.5385 -2.9439
 2203TIP3    H228169   2.952   0.300   0.333  1.1496 -1.0170 -1.6114
 2204TIP3   OH228170   2.738   5.184   0.815 -0.0083 -0.0233 -0.7420
 2204TIP3    H128171   2.807   5.243   0.784  0.9624 -1.3069 -1.1417
 2204TIP3    H228172   2.684   5.237   0.872  2.1663  0.7059  0.7652
 2205TIP3   OH228173   5.093   1.005   0.669  0.0643 -0.5394 -0.1042
 2205TIP3    H128174   5.087   1.069   0.599 -2.7353  1.1793  1.5187
 2205TIP3    H228175   5.104   1.057   0.749 -0.2026 -2.2004  1.0804
 2206TIP3   OH228176   5.100   6.406   6.660  0.2317 -0.2236 -0.4695
 2206TIP3    H128177   5.136   6.444   6.580  3.1543 -1.1392  0.2990
 2206TIP3    H228178   5.117   6.313   6.653 -0.1638 -0.4265  0.8839
 2207TIP3   OH228179   2.308   3.246   8.211 -0.7137  0.0140 -0.3049
 2207TIP3    H128180   2.215   3.267   8.200 -0.1818  2.4377 -0.8399
 2207TIP3    H228181   2.342   3.242   8.122  0.0388  1.0924 -0.0854
 2208TIP3   OH228182   1.778   2.638   1.955 -0.7471  0.2938 -0.4251
 2208TIP3    H128183   1.717   2.589   2.011 -0.0151  0.4296  0.5105
 2208TIP3    H228184   1.763   2.603   1.867 -0.3570 -1.5184  0.1858
 2209TIP3   OH228185   1.871   2.314   0.361  0.1704  0.6055  1.0640
 2209TIP3    H128186   1.791   2.316   0.414  0.3153 -0.2322  1.3298
 2209TIP3    H228187   1.909   2.402   0.372 -1.6016  1.6305 -0.4784
 2210TIP3   OH228188   1.845   6.132   6.916  0.2210 -0.3098  0.4751
 2210TIP3    H128189   1.757   6.122   6.880  0.0143  1.7170  0.2942
 2210TIP3    H228190   1.894   6.180   6.849  0.8442  0.4151  1.3996
 2211TIP3   OH228191   4.759   5.458   8.731  0.7245  0.4415 -1.0026
 2211TIP3    H128192   4.760   5.530   8.794  0.8504 -1.3387  1.1470
 2211TIP3    H228193   4.850   5.432   8.723  0.4987 -0.5487 -0.4521
 2212TIP3   OH228194   0.237   5.800   8.021  0.0120 -0.1947  0.3795
 2212TIP3    H128195   0.251   5.879   7.968  0.0041 -0.1011  0.5182
 2212TIP3    H228196   0.325   5.771   8.046  0.2104 -1.5476 -1.5910
 2213TIP3   OH228197   3.202   1.816   0.974 -0.2102  0.1531 -0.0913
 2213TIP3    H128198   3.298   1.821   0.976 -0.2325  0.2162  1.4577
 2213TIP3    H228199   3.183   1.747   0.910  0.9105 -0.7193  0.4792
 2214TIP3   OH228200   3.847   6.479   0.811 -0.0249  0.1811  0.6732
 2214TIP3    H128201   3.785   6.478   0.738  0.3032 -1.7310  0.3482
 2214TIP3    H228202   3.921   6.530   0.778  0.9637 -2.2464 -1.1839
 2215TIP3   OH228203   6.142   5.027   8.159 -0.0252  0.0375 -0.2274
 2215TIP3    H128204   6.237   5.022   8.158  0.0415  0.0694  2.2223
 2215TIP3    H228205   6.123   5.116   8.127  0.8569  0.6573  0.8937
 2216TIP3   OH228206   1.588   2.620   0.371  0.3575 -0.5896  0.0977
 2216TIP3    H128207   1.520   2.686   0.379 -0.9502 -2.0767  2.1998
 2216TIP3    H228208   1.660   2.653   0.425  0.9315  0.4797 -1.2718
 2217TIP3   OH228209   0.322   0.785   0.883  0.2974  0.3678  0.3168
 2217TIP3    H128210   0.337   0.700   0.842 -1.8427 -0.4773  1.1475
 2217TIP3    H228211   0.280   0.838   0.815 -2.4431 -0.7478  1.0252
 2218TIP3   OH228212   2.405   1.646   1.769  0.0307  0.0161 -0.3394
 2218TIP3    H128213   2.496   1.667   1.790 -0.5185  1.0183  1.2137
 2218TIP3    H228214   2.354   1.690   1.836 -1.5563 -1.5685 -0.4219
 2219TIP3   OH228215   0.110   5.785   0.283 -0.2512 -0.6481 -0.1399
 2219TIP3    H128216   0.127   5.750   0.195  0.1618 -0.0096 -0.3156
 2219TIP3    H228217   0.075   5.873   0.267  1.6414  0.2344  0.3715
 2220TIP3   OH228218   1.621   2.329   0.471 -0.3661  0.1748  0.5251
 2220TIP3    H128219   1.562   2.260   0.439 -0.9788  0.1200  1.6936
 2220TIP3    H228220   1.596   2.406   0.422 -1.5240  0.1762  1.0757
 2221TIP3   OH228221   5.095   5.029   7.093  0.3336  0.1223  0.3557
 2221TIP3    H128222   5.066   5.105   7.042 -3.2434 -1.0483  0.3553
 2221TIP3    H228223   5.065   5.048   7.182 -1.4829 -1.6119  0.1727
 2222TIP3   OH228224   4.521   3.387   1.336  0.2741  0.4502  0.4517
 2222TIP3    H128225   4.488   3.405   1.424 -0.0205 -2.1422  0.9336
 2222TIP3    H228226   4.555   3.298   1.341  0.9033  0.5057 -1.8913
 2223TIP3   OH228227   5.943   2.720   1.079  0.2438  0.3866  0.2136
 2223TIP3    H128228   5.898   2.781   1.137 -0.8301 -0.0628 -0.1049
 2223TIP3    H228229   5.958   2.642   1.133 -1.0826 -0.1710 -0.1582
 2224TIP3   OH228230   6.320   3.984   7.411 -0.4681  0.6874  0.7762
 2224TIP3    H128231   6.322   4.009   7.319 -0.2498  0.3872  0.7004
 2224TIP3    H228232   6.391   3.920   7.420  0.2879  1.5773  1.3909
 2225TIP3   OH228233   5.527   1.656   8.061  0.0183 -0.3496  0.9125
 2225TIP3    H128234   5.491   1.574   8.026  0.8107 -1.5850  2.8586
 2225TIP3    H228235   5.461   1.722   8.038 -1.1670 -1.6996  0.2249
 2226TIP3   OH228236   1.346   1.157   0.998 -0.1514  1.0637  0.0920
 2226TIP3    H128237   1.404   1.225   1.031 -1.4370  2.2073  0.0753
 2226TIP3    H228238   1.298   1.127   1.075 -1.4339  2.0359 -0.3006
 2227TIP3   OH228239   2.042   1.249   7.093  0.3509  0.3517  0.5602
 2227TIP3    H128240   2.045   1.341   7.068  0.9259  0.2181  0.1148
 2227TIP3    H228241   1.965   1.242   7.150  0.4696  1.1585  0.8269
 2228TIP3   OH228242   0.619   2.256   0.902 -0.3206 -0.3320 -0.0462
 2228TIP3    H128243   0.631   2.348   0.923 -0.8959 -0.2787  0.0501
 2228TIP3    H228244   0.652   2.247   0.812  1.1021 -0.3368  0.4373
 2229TIP3   OH228245   0.231   0.087   0.212 -0.1852  0.5240 -0.0552
 2229TIP3    H128246   0.191   0.096   0.299 -1.2835 -1.5957 -0.2548
 2229TIP3    H228247   0.318   0.050   0.230 -0.3246  0.3004  0.1726
 2230TIP3   OH228248   0.052   1.508   7.718  0.1200 -0.1676 -0.1269
 2230TIP3    H128249   0.084   1.566   7.649 -0.6939  0.0570 -0.3256
 2230TIP3    H228250   0.091   1.542   7.798 -2.6768  2.6171  0.2664
 2231TIP3   OH228251   0.072   4.606   0.588 -0.3241 -0.6975  0.0166
 2231TIP3    H128252   0.097   4.668   0.657 -0.4079 -0.4958 -0.1302
 2231TIP3    H228253  -0.018   4.630   0.567 -0.5381 -1.2139  0.3244
 2232TIP3   OH228254   5.543   3.639   7.905  0.0530  0.2872  0.1232
 2232TIP3    H128255   5.589   3.722   7.895 -0.4002  0.5525  0.2143
 2232TIP3    H228256   5.557   3.613   7.996 -1.3864  1.2298  0.6533
 2233TIP3   OH228257   2.092   2.730   0.966  0.9575  0.9721  0.3324
 2233TIP3    H128258   2.007   2.711   1.005  2.4146  1.3554  4.2309
 2233TIP3    H228259   2.136   2.646   0.961  1.0732  1.0298  0.3639
 2234TIP3   OH228260   6.049   2.918   1.477  0.7767 -0.9329  0.1847
 2234TIP3    H128261   5.964   2.911   1.434  0.4291  0.7177  0.5607
 2234TIP3    H228262   6.042   2.859   1.552  0.2325 -1.3596 -0.1887
 2235TIP3   OH228263   5.247   5.783   2.346  0.2434  0.5253  0.1692
 2235TIP3    H128264   5.338   5.779   2.316 -0.3366 -0.0968 -1.6527
 2235TIP3    H228265   5.196   5.797   2.266 -1.2341  1.6056  1.2294
 2236TIP3   OH228266   5.332   3.325   8.230 -0.1377 -0.3558  0.4290
 2236TIP3    H128267   5.401   3.281   8.181 -0.4026  0.7575 -1.0330
 2236TIP3    H228268   5.371   3.408   8.258 -1.3410  1.2998 -2.2462
 2237TIP3   OH228269   0.054   2.672   1.572 -0.0670 -0.6641 -0.2532
 2237TIP3    H128270   0.037   2.743   1.511  0.3332 -1.2372 -1.0427
 2237TIP3    H228271   0.011   2.700   1.653 -0.2679  0.2816 -0.6683
 2238TIP3   OH228272   3.635   5.998   7.437 -0.1078 -0.0183  0.2181
 2238TIP3    H128273   3.552   5.991   7.389 -0.7516  0.4533  1.2301
 2238TIP3    H228274   3.623   6.073   7.495  0.6019 -0.6299  1.1843
 2239TIP3   OH228275   0.492   3.630   2.648  0.2128  0.6333  0.7625
 2239TIP3    H128276   0.542   3.634   2.566 -1.4386  0.7501 -0.2934
 2239TIP3    H228277   0.529   3.555   2.695 -1.2930 -1.9970 -1.8946
 2240TIP3   OH228278   2.441   1.913   0.206  0.0878  0.3445  0.0164
 2240TIP3    H128279   2.364   1.918   0.263 -0.1653 -1.7720 -0.0659
 2240TIP3    H228280   2.513   1.888   0.264  0.2730  0.2610 -0.2470
 2241TIP3   OH228281   5.167   1.735   7.495  0.2022 -0.1714 -0.0988
 2241TIP3    H128282   5.229   1.793   7.539 -1.6271  0.1630  2.2643
 2241TIP3    H228283   5.205   1.647   7.505 -0.1481 -0.1093  2.3086
 2242TIP3   OH228284   1.257   3.224   0.322  1.3923 -0.2199  0.2027
 2242TIP3    H128285   1.208   3.282   0.380 -0.4528 -0.5921 -0.8880
 2242TIP3    H228286   1.312   3.282   0.270  0.7363  0.4033  0.1975
 2243TIP3   OH228287   1.310   4.510   8.563 -0.0570 -0.1414 -0.1452
 2243TIP3    H128288   1.264   4.593   8.550 -0.6214 -0.6544 -1.5791
 2243TIP3    H228289   1.283   4.456   8.489 -0.9398 -2.1813  1.5661
 2244TIP3   OH228290   0.151   1.764   8.657 -0.0188  0.9443 -0.0529
 2244TIP3    H128291   0.240   1.798   8.642 -0.2518  1.9594  0.7694
 2244TIP3    H228292   0.126   1.726   8.572  1.4842 -0.0762 -0.0815
 2245TIP3   OH228293   3.285   4.733   2.598 -0.0816  0.1059 -0.8794
 2245TIP3    H128294   3.258   4.649   2.559  0.2274 -0.1754 -0.4918
 2245TIP3    H228295   3.205   4.766   2.639  0.4223 -1.4048  1.4975
 2246TIP3   OH228296   2.863   5.619   0.951  0.3345 -0.0173  0.0890
 2246TIP3    H128297   2.846   5.698   1.002  1.6116  2.1299 -2.5234
 2246TIP3    H228298   2.791   5.615   0.889  0.6480 -0.4942 -0.2500
 2247TIP3   OH228299   0.032   2.780   2.162  0.1621  0.4532 -0.4231
 2247TIP3    H128300   0.014   2.771   2.255  0.7890  3.6972  0.1327
 2247TIP3    H228301  -0.052   2.763   2.119 -0.0072 -1.6603  0.5928
 2248TIP3   OH228302   5.759   3.381   6.222  0.3793  0.0868  0.3877
 2248TIP3    H128303   5.821   3.424   6.163  0.8910 -2.2942 -0.9293
 2248TIP3    H228304   5.704   3.328   6.165  0.3477 -1.6749  1.9681
 2249TIP3   OH228305   5.374   6.472   0.554 -0.0033  0.6237 -0.6039
 2249TIP3    H128306   5.335   6.388   0.578  1.6093 -0.5671 -1.9140
 2249TIP3    H228307   5.370   6.524   0.634 -0.7741 -0.7979  0.3267
 2250TIP3   OH228308   5.687   5.856   2.491 -0.2157  0.2225  0.5381
 2250TIP3    H128309   5.772   5.832   2.455 -0.6648  0.9580 -1.1163
 2250TIP3    H228310   5.684   5.813   2.576  2.5437  1.6280  1.4662
 2251TIP3   OH228311   6.587   3.647   8.767  0.1616  0.2520  0.5480
 2251TIP3    H128312   6.614   3.578   8.828  1.3565  0.2995  0.1068
 2251TIP3    H228313   6.516   3.608   8.716 -0.6459  0.1097  1.7471
 2252TIP3   OH228314   2.931   6.485   1.430 -0.1713 -0.1651 -0.5347
 2252TIP3    H128315   2.871   6.470   1.503 -0.3976  0.0192 -0.6848
 2252TIP3    H228316   3.014   6.449   1.461 -0.6519 -1.5542 -0.7983
 2253TIP3   OH228317   4.569   5.470   7.531 -0.0258  0.2828 -0.5865
 2253TIP3    H128318   4.477   5.486   7.554  0.0698  0.4317 -0.3095
 2253TIP3    H228319   4.565   5.434   7.442 -0.5459 -2.0793  0.3276
 2254TIP3   OH228320   2.460   3.867   7.439  0.0546 -0.9584  0.2093
 2254TIP3    H128321   2.472   3.837   7.349 -0.9996  0.1586 -0.3376
 2254TIP3    H228322   2.507   3.802   7.493  1.7517 -0.9689 -1.2009
 2255TIP3   OH228323   3.609   2.918   2.338  0.0187  0.0916 -0.6451
 2255TIP3    H128324   3.516   2.898   2.337  0.2842 -1.2970 -0.5207
 2255TIP3    H228325   3.644   2.865   2.409  1.0082  0.0277 -1.1521
 2256TIP3   OH228326   6.213   1.185   8.362 -0.6035  0.3808  0.4479
 2256TIP3    H128327   6.188   1.093   8.352 -2.0526  0.8565 -0.5179
 2256TIP3    H228328   6.186   1.208   8.451 -1.2331  0.1735  0.3097
 2257TIP3   OH228329   3.752   3.079   1.271  0.1967  0.0767 -0.2801
 2257TIP3    H128330   3.711   3.128   1.342 -0.9815  1.1714 -1.6473
 2257TIP3    H228331   3.704   2.996   1.268  0.8669 -0.3683  0.7571
 2258TIP3   OH228332   4.503   5.572   0.644 -0.2534 -0.1722 -0.3393
 2258TIP3    H128333   4.556   5.632   0.696  1.4038 -1.0269 -0.9584
 2258TIP3    H228334   4.556   5.492   0.640 -2.2629 -1.6011  0.2337
 2259TIP3   OH228335   4.529   2.520   8.508  0.2775  0.4916 -0.4793
 2259TIP3    H128336   4.542   2.603   8.554  0.8232  0.8365 -1.2318
 2259TIP3    H228337   4.613   2.475   8.515 -0.2496 -0.3569  0.6019
 2260TIP3   OH228338   0.740   5.129   0.011 -0.2640  0.2178  0.6784
 2260TIP3    H128339   0.809   5.190   0.039  0.9536 -0.7225 -0.1396
 2260TIP3    H228340   0.785   5.068  -0.048 -1.8343 -0.3831  0.0508
 2261TIP3   OH228341   0.968   4.587   7.361  0.7311 -0.1783  0.1908
 2261TIP3    H128342   1.039   4.563   7.301  1.4682  2.1129  0.0406
 2261TIP3    H228343   0.899   4.622   7.305 -0.6136 -2.3918  0.3382
 2262TIP3   OH228344   0.927   3.321   7.788 -0.2235  0.2905 -0.5201
 2262TIP3    H128345   0.851   3.264   7.791 -0.6867  0.9174  0.1567
 2262TIP3    H228346   1.002   3.261   7.789 -0.7002 -0.3212 -0.8612
 2263TIP3   OH228347   1.762   0.726   1.440  0.1935  0.3132 -0.9073
 2263TIP3    H128348   1.850   0.763   1.440  0.4518 -0.1819  1.2770
 2263TIP3    H228349   1.706   0.798   1.411  1.2494  0.7118 -2.0924
 2264TIP3   OH228350   2.940   6.072   7.268  0.5159  0.3262  0.1151
 2264TIP3    H128351   2.962   6.147   7.323  1.4010 -0.4266  0.8403
 2264TIP3    H228352   2.847   6.058   7.282  0.3488  1.2419  0.0119
 2265TIP3   OH228353   5.515   5.252   1.168  0.3451 -0.5144 -0.2519
 2265TIP3    H128354   5.539   5.246   1.076 -2.1560 -0.7074 -0.9653
 2265TIP3    H228355   5.500   5.345   1.183 -0.7803 -0.6445 -0.4981
 2266TIP3   OH228356   5.591   1.039   1.143  0.3352  0.0135  0.0159
 2266TIP3    H128357   5.623   1.020   1.231 -0.4191  1.2557  0.5955
 2266TIP3    H228358   5.495   1.033   1.150  0.2887 -0.5680 -0.8979
 2267TIP3   OH228359   5.835   2.563   8.363 -0.6708  0.0620  0.3648
 2267TIP3    H128360   5.860   2.471   8.351  0.8190  0.6404 -1.3435
 2267TIP3    H228361   5.740   2.561   8.374 -0.8568 -1.5622 -1.1360
 2268TIP3   OH228362   4.437   4.470   7.023 -0.0221  0.3620  0.6420
 2268TIP3    H128363   4.522   4.505   6.996  0.6661 -1.1201  0.7521
 2268TIP3    H228364   4.425   4.501   7.113  0.8917 -0.1984  0.9773
 2269TIP3   OH228365   0.830   1.452   0.110  0.0174 -0.2530 -0.5111
 2269TIP3    H128366   0.894   1.383   0.093 -1.1288 -1.4095 -0.3183
 2269TIP3    H228367   0.779   1.458   0.030 -0.2117 -0.0014 -0.3468
 2270TIP3   OH228368   1.254   0.235   0.575  0.6712  0.4854  0.2818
 2270TIP3    H128369   1.304   0.199   0.502  1.7750 -0.4997  1.4774
 2270TIP3    H228370   1.168   0.255   0.538  0.6911 -1.4403 -0.9266
 2271TIP3   OH228371   3.034   1.805   2.401  0.1201  0.2576  0.4118
 2271TIP3    H128372   2.967   1.763   2.455 -0.0104  1.0678  0.8846
 2271TIP3    H228373   2.986   1.869   2.349  0.1041 -1.1107 -1.3346
 2272TIP3   OH228374   1.755   4.617   1.472 -0.0098  0.1890 -0.4180
 2272TIP3    H128375   1.667   4.634   1.506 -0.3534 -0.3204 -1.0299
 2272TIP3    H228376   1.804   4.697   1.492 -0.5307  0.3634  0.1876
 2273TIP3   OH228377   1.109   1.202   0.471  0.3419  0.3734  0.4492
 2273TIP3    H128378   1.201   1.195   0.447  0.2442 -0.1454  0.2203
 2273TIP3    H228379   1.092   1.296   0.473  0.8938  0.4708  0.5620
 2274TIP3   OH228380   1.199   3.780   7.791  0.3697 -0.2318 -0.0397
 2274TIP3    H128381   1.133   3.711   7.796  0.4350 -0.2212  1.1921
 2274TIP3    H228382   1.204   3.815   7.880 -0.6790  2.3119 -0.8659
 2275TIP3   OH228383   5.578   3.203   7.167 -0.2133 -0.0216 -0.4560
 2275TIP3    H128384   5.641   3.270   7.192  0.8029 -1.0747 -0.0693
 2275TIP3    H228385   5.528   3.241   7.095 -0.9114  1.8077  0.9300
 2276TIP3   OH228386   4.718   0.460   0.467 -0.2586  0.1943 -0.1494
 2276TIP3    H128387   4.686   0.462   0.376 -0.9250  1.2251  0.0964
 2276TIP3    H228388   4.782   0.389   0.467  0.6028  0.9166 -1.7113
 2277TIP3   OH228389   3.178   0.272   7.656  0.6630  0.3523 -0.1177
 2277TIP3    H128390   3.238   0.315   7.596  0.0189 -0.5519 -1.4611
 2277TIP3    H228391   3.122   0.217   7.600  2.2136 -3.2364  1.5046
 2278TIP3   OH228392   6.049   1.079   2.342 -0.6950  0.3084  0.2049
 2278TIP3    H128393   5.990   1.031   2.400  1.2526 -0.9045  1.2958
 2278TIP3    H228394   6.072   1.158   2.391  1.2504 -0.8995  1.3455
 2279TIP3   OH228395   6.028   2.747   0.171 -0.3879  0.7540  0.5501
 2279TIP3    H128396   5.945   2.784   0.201 -1.3923 -1.7712  1.1569
 2279TIP3    H228397   6.074   2.724   0.251  0.6703  1.5562  0.2028
 2280TIP3   OH228398   0.250   5.947   8.298  0.0096 -0.3644 -0.6571
 2280TIP3    H128399   0.202   5.880   8.345 -0.1081 -1.2333 -1.9889
 2280TIP3    H228400   0.270   6.013   8.365 -0.0324 -1.6132  0.6343
 2281TIP3   OH228401   3.779   6.400   6.854 -0.5193  0.2965 -0.4457
 2281TIP3    H128402   3.746   6.312   6.868  0.1823 -0.1469 -1.5007
 2281TIP3    H228403   3.761   6.419   6.762  1.1366  0.4620 -0.7616
 2282TIP3   OH228404   2.786   2.361   7.640  0.0705 -0.4379 -0.0881
 2282TIP3    H128405   2.879   2.357   7.619 -0.0856 -0.5137 -0.7893
 2282TIP3    H228406   2.759   2.448   7.611  0.6547  1.0534  3.2985
 2283TIP3   OH228407   6.761   6.029   1.134 -0.1469 -0.1459 -0.1683
 2283TIP3    H128408   6.856   6.032   1.123 -0.3318  1.5639 -1.9243
 2283TIP3    H228409   6.739   6.113   1.174 -1.0765  0.2833 -1.5330
 2284TIP3   OH228410   1.269   2.743   8.422 -0.0134 -0.8181  0.1698
 2284TIP3    H128411   1.347   2.741   8.367  0.1371 -1.2623  0.3990
 2284TIP3    H228412   1.280   2.671   8.483  0.7059  0.7675  2.0157
 2285TIP3   OH228413   2.772   5.181   2.317  0.0829 -0.3807 -0.1817
 2285TIP3    H128414   2.776   5.140   2.231  0.2941 -1.8429  0.5021
 2285TIP3    H228415   2.860   5.172   2.353 -0.1797 -0.4177  0.4695
 2286TIP3   OH228416   4.137   6.275   0.954  0.2272 -0.2644  0.6474
 2286TIP3    H128417   4.047   6.307   0.956  0.5832  0.7619  1.4501
 2286TIP3    H228418   4.145   6.231   0.870 -0.7433  0.4874  0.1384
 2287TIP3   OH228419   6.169   1.829   8.645  0.2276  0.2860 -0.4962
 2287TIP3    H128420   6.222   1.806   8.569 -0.3955 -0.9808 -0.5769
 2287TIP3    H228421   6.129   1.747   8.672 -1.0114  1.0498  0.0887
 2288TIP3   OH228422   6.569   5.862   1.596  0.3124 -0.0668  0.1840
 2288TIP3    H128423   6.623   5.819   1.662 -0.9570 -1.0170  0.6448
 2288TIP3    H228424   6.479   5.852   1.628 -0.1199  2.2052 -0.1235
 2289TIP3   OH228425   0.757   1.058   8.828  0.1674  0.2591  0.4157
 2289TIP3    H128426   0.756   1.142   8.873  1.6695  0.4272  0.1623
 2289TIP3    H228427   0.813   1.002   8.883  0.3502 -0.1419 -0.1682
 2290TIP3   OH228428   2.579   0.995   1.994 -0.7681  0.4268 -0.0603
 2290TIP3    H128429   2.529   0.924   1.955 -0.3523  0.4478 -0.6503
 2290TIP3    H228430   2.668   0.959   2.003 -0.3012  1.1850 -1.3125
 2291TIP3   OH228431   6.125   0.971   7.694 -0.7380  0.1434 -0.2596
 2291TIP3    H128432   6.142   1.025   7.772 -0.6106 -0.4163  0.1021
 2291TIP3    H228433   6.211   0.965   7.651 -0.6554 -0.1635 -0.0499
 2292TIP3   OH228434   5.495   6.022   8.363  0.2163 -0.0688  0.6777
 2292TIP3    H128435   5.411   6.002   8.406  0.0942  1.3516  1.1538
 2292TIP3    H228436   5.561   5.994   8.427  0.1460 -1.5084  0.1612
 2293TIP3   OH228437   1.336   5.335   0.655 -0.3421 -0.6126  0.1733
 2293TIP3    H128438   1.414   5.347   0.709 -1.2709  0.3285  1.3822
 2293TIP3    H228439   1.308   5.425   0.634 -1.8661 -0.8571  0.9702
 2294TIP3   OH228440   2.986   2.315   1.267  0.1348  0.1952 -0.4524
 2294TIP3    H128441   2.914   2.255   1.249  1.8545 -2.1430 -0.0450
 2294TIP3    H228442   2.962   2.359   1.348 -0.7275 -0.7562 -0.1763
 2295TIP3   OH228443   0.076   1.658   1.540  0.0700  0.1871 -0.1232
 2295TIP3    H128444   0.107   1.602   1.469  0.7049  0.2043  0.1306
 2295TIP3    H228445   0.073   1.746   1.503 -0.1381  0.1116 -0.2868
 2296TIP3   OH228446   0.098   4.718   1.866  0.2351  0.0730  0.0657
 2296TIP3    H128447   0.016   4.694   1.824  0.3855  1.9384 -1.4441
 2296TIP3    H228448   0.077   4.723   1.959 -1.5683  1.1681 -0.3499
 2297TIP3   OH228449   5.649   4.393   2.332 -0.3512 -0.2401 -0.6853
 2297TIP3    H128450   5.745   4.387   2.334 -0.3311 -0.1906 -1.2851
 2297TIP3    H228451   5.631   4.484   2.308 -0.5503 -0.2080 -0.4188
 2298TIP3   OH228452   0.316   2.594   1.198 -0.5671 -0.2289  0.1201
 2298TIP3    H128453   0.298   2.607   1.105  0.4436 -0.1108 -0.0741
 2298TIP3    H228454   0.332   2.500   1.207 -0.5023 -0.2149  0.1481
 2299TIP3   OH228455   2.686   6.059   7.316 -0.0685  0.3741 -0.9093
 2299TIP3    H128456   2.655   6.011   7.239  0.1400  0.6222 -1.1512
 2299TIP3    H228457   2.609   6.069   7.371 -0.9610  2.7891 -2.4157
 2300TIP3   OH228458   4.754   3.406   1.542  0.4639 -0.2007  0.0892
 2300TIP3    H128459   4.662   3.383   1.557  0.3178  0.6712  0.6379
 2300TIP3    H228460   4.751   3.493   1.502  1.0548  0.0768  0.6149
 2301TIP3   OH228461   2.763   2.944   2.509 -0.4899 -0.1576  0.3537
 2301TIP3    H128462   2.765   2.852   2.482  1.5863 -0.1870  0.4549
 2301TIP3    H228463   2.699   2.985   2.449 -2.4631 -1.8634  1.1724
 2302TIP3   OH228464   3.117   0.872   7.410 -0.4399  0.5073  0.4983
 2302TIP3    H128465   3.087   0.832   7.329 -0.7201  1.1563  0.2689
 2302TIP3    H228466   3.212   0.872   7.404 -0.4669  0.8697  0.0071
 2303TIP3   OH228467   4.187   0.321   7.416 -0.1181 -0.0299  0.3979
 2303TIP3    H128468   4.210   0.229   7.416 -0.0310 -0.0075  0.3025
 2303TIP3    H228469   4.133   0.332   7.495 -0.6591 -0.2932  0.0716
 2304TIP3   OH228470   6.114   3.267   0.731 -0.0454  0.3469 -0.2991
 2304TIP3    H128471   6.090   3.299   0.819 -1.4983  1.6173 -1.0977
 2304TIP3    H228472   6.061   3.320   0.672  1.9019  0.4641 -2.0396
 2305TIP3   OH228473   0.719   0.830   6.565 -0.3894 -0.1924 -0.1883
 2305TIP3    H128474   0.703   0.868   6.479  0.4855 -2.8866 -1.6587
 2305TIP3    H228475   0.644   0.857   6.618 -0.2308  2.7235 -1.3131
 2306TIP3   OH228476   6.705   4.484   8.361 -0.0333 -0.0527  0.0010
 2306TIP3    H128477   6.784   4.517   8.318 -0.2606 -0.8733 -1.0880
 2306TIP3    H228478   6.645   4.464   8.289 -0.8198 -0.4738  0.7569
 2307TIP3   OH228479   5.630   4.706   0.040  0.1111 -0.0052  0.1074
 2307TIP3    H128480   5.584   4.658   0.109 -0.1370 -1.3584 -0.9506
 2307TIP3    H228481   5.721   4.675   0.045  0.2495  0.4273  0.2841
 2308TIP3   OH228482   5.406   2.388   7.237 -0.6370  0.3141  0.0233
 2308TIP3    H128483   5.445   2.472   7.264  0.0893 -0.3257  1.0498
 2308TIP3    H228484   5.312   2.401   7.248 -0.4363  0.4133  2.0809
 2309TIP3   OH228485   5.352   2.276   1.190 -0.0425  0.1207  0.0260
 2309TIP3    H128486   5.385   2.188   1.173 -0.7066 -0.1358  0.0436
 2309TIP3    H228487   5.287   2.292   1.121 -0.0092  0.5519  0.0865
 2310TIP3   OH228488   6.115   1.262   1.273  0.4778  0.5129 -0.2541
 2310TIP3    H128489   6.105   1.300   1.361  0.0212  0.4421 -0.2735
 2310TIP3    H228490   6.159   1.330   1.223 -0.9648  1.3239 -0.4786
 2311TIP3   OH228491   1.402   1.870   8.709 -0.2781 -0.3975  0.0867
 2311TIP3    H128492   1.492   1.844   8.728 -0.6453 -1.4777  0.3772
 2311TIP3    H228493   1.359   1.875   8.794 -0.5584 -0.0835 -0.0654
 2312TIP3   OH228494   0.463   4.924   8.745 -0.6264 -0.6296 -0.2123
 2312TIP3    H128495   0.525   4.854   8.724  1.4939  0.8193  0.9006
 2312TIP3    H228496   0.450   4.916   8.839 -0.4441  0.4021 -0.0964
 2313TIP3   OH228497   3.188   0.184   0.533 -0.0217 -0.1702  0.1600
 2313TIP3    H128498   3.181   0.251   0.464 -1.1826  0.6069  0.9932
 2313TIP3    H228499   3.212   0.104   0.486 -0.7849  0.3431 -1.1623
 2314TIP3   OH228500   4.651   3.157   7.346  0.7985 -0.3801  0.1857
 2314TIP3    H128501   4.638   3.221   7.277 -1.4890 -0.4394  0.4863
 2314TIP3    H228502   4.655   3.209   7.427 -0.1742 -0.5290  0.3409
 2315TIP3   OH228503   6.188   6.469   7.165  0.3391  0.4495 -0.5126
 2315TIP3    H128504   6.183   6.446   7.072  1.0497 -1.4885 -0.1277
 2315TIP3    H228505   6.278   6.497   7.178  0.0039  1.6024 -0.5628
 2316TIP3   OH228506   4.164   6.451   1.590  0.4424 -0.4188 -0.2400
 2316TIP3    H128507   4.210   6.530   1.562 -2.2410  1.1393 -0.6627
 2316TIP3    H228508   4.137   6.409   1.508 -2.5575  1.1187 -0.1948
 2317TIP3   OH228509   1.705   3.943   8.790 -0.0477 -0.0403  0.0037
 2317TIP3    H128510   1.619   3.931   8.829 -0.2913 -0.4024 -0.6458
 2317TIP3    H228511   1.745   3.856   8.792 -0.7248 -0.4378 -2.1068
 2318TIP3   OH228512   5.839   4.084   8.797 -0.2291  0.9508 -0.1079
 2318TIP3    H128513   5.911   4.137   8.830 -0.0999  1.4267 -1.1134
 2318TIP3    H228514   5.837   4.007   8.853 -0.3439  1.9578  1.3224
 2319TIP3   OH228515   0.947   4.466   7.803 -0.0184  0.2207  0.0157
 2319TIP3    H128516   0.994   4.426   7.730 -1.7366 -0.1978 -0.9319
 2319TIP3    H228517   0.912   4.548   7.767 -1.0244 -0.0677  0.3098
 2320TIP3   OH228518   6.288   1.444   1.175 -0.3082 -0.0160  0.0062
 2320TIP3    H128519   6.301   1.538   1.188  0.9791 -0.2498  0.6334
 2320TIP3    H228520   6.365   1.417   1.125 -0.1126 -0.9191  0.7740
 2321TIP3   OH228521   1.083   0.675   6.925 -0.3615  0.7508 -0.1457
 2321TIP3    H128522   0.997   0.641   6.899  0.4814  0.3559 -2.7004
 2321TIP3    H228523   1.142   0.601   6.915  0.6811  1.6547 -0.8553
 2322TIP3   OH228524   6.289   5.445   7.684  0.1140 -0.3841  0.1551
 2322TIP3    H128525   6.203   5.488   7.691  0.9771  1.6047 -0.7042
 2322TIP3    H228526   6.269   5.355   7.661 -1.7535  0.1401 -0.4451
 2323TIP3   OH228527   2.351   4.922   1.837  0.2050 -0.6147 -0.0348
 2323TIP3    H128528   2.352   4.905   1.743  0.0593 -0.4941 -0.0574
 2323TIP3    H228529   2.269   4.968   1.853  0.6911  0.2511 -0.0080
 2324TIP3   OH228530   3.379   2.998   1.038 -0.2248  0.2641 -0.1701
 2324TIP3    H128531   3.381   3.029   1.129 -1.3676 -0.4938  0.1314
 2324TIP3    H228532   3.470   3.005   1.009  0.5210 -1.1538  1.6139
 2325TIP3   OH228533   4.476   3.296   1.078  0.1362 -0.2831  0.9127
 2325TIP3    H128534   4.545   3.316   1.015 -0.5178 -1.2458 -0.1493
 2325TIP3    H228535   4.477   3.371   1.138 -0.7318  1.8707 -1.5437
 2326TIP3   OH228536   6.789   0.368   8.180 -0.2169  0.4282  1.0447
 2326TIP3    H128537   6.708   0.317   8.182 -1.1394  1.8163  0.3035
 2326TIP3    H228538   6.819   0.369   8.271 -0.2381 -1.2810  1.1142
 2327TIP3   OH228539   0.012   6.034   7.656  0.3697  0.6681 -0.4759
 2327TIP3    H128540   0.045   5.953   7.616  0.0155 -0.8649  2.1220
 2327TIP3    H228541  -0.076   6.012   7.685  1.3827  0.8138  3.1661
 2328TIP3   OH228542   5.880   1.382   8.472 -0.1834  0.1202 -0.6332
 2328TIP3    H128543   5.949   1.416   8.416 -1.7504 -1.3384 -3.6968
 2328TIP3    H228544   5.865   1.451   8.537  1.1381  2.3665 -2.5596
 2329TIP3   OH228545   2.972   3.047   0.016  0.0832 -0.1297 -0.1270
 2329TIP3    H128546   2.965   2.966   0.066 -1.4902  0.0161 -0.0489
 2329TIP3    H228547   2.957   3.116   0.080 -0.3049  0.1323 -0.4881
 2330TIP3   OH228548   3.301   6.581   1.144  0.2160  0.1119  0.0858
 2330TIP3    H128549   3.288   6.671   1.114  2.3329  1.0310  1.6760
 2330TIP3    H228550   3.358   6.541   1.078 -1.5970 -0.4621 -1.1895
 2331TIP3   OH228551   1.472   4.335   7.719 -0.4379 -0.9150 -0.5103
 2331TIP3    H128552   1.506   4.420   7.749 -0.4940  0.1598 -3.1805
 2331TIP3    H228553   1.550   4.288   7.690 -0.5774 -1.0592 -0.6494
 2332TIP3   OH228554   5.651   3.208   6.823 -0.2492  0.1896  0.6096
 2332TIP3    H128555   5.637   3.174   6.735  0.1217  0.7988  0.2996
 2332TIP3    H228556   5.597   3.154   6.880 -1.9608  0.9528 -0.2134
 2333TIP3   OH228557   3.278   5.262   0.873  0.4671  0.2894  0.0128
 2333TIP3    H128558   3.249   5.350   0.852 -0.7283 -0.4084 -1.5262
 2333TIP3    H228559   3.328   5.234   0.796  0.7535 -0.3953  0.4368
 2334TIP3   OH228560   1.616   4.964   0.232 -0.0179 -0.4019 -0.0757
 2334TIP3    H128561   1.672   5.034   0.199  0.9620 -1.8896 -1.7799
 2334TIP3    H228562   1.527   4.990   0.206  0.2930  0.3385 -0.4321
 2335TIP3   OH228563   5.069   1.131   8.021  0.3348 -0.1325 -0.0317
 2335TIP3    H128564   5.119   1.213   8.023  0.1843 -0.0462  1.6553
 2335TIP3    H228565   5.046   1.119   7.929  1.0427  1.2998 -0.4237
 2336TIP3   OH228566   2.371   4.825   7.729  0.5687  0.4539 -0.6111
 2336TIP3    H128567   2.459   4.857   7.709  3.2089 -4.5391  1.0320
 2336TIP3    H228568   2.365   4.741   7.684 -2.7266 -0.1960  0.6930
 2337TIP3   OH228569   5.431   6.012   2.135 -0.2950  0.4831 -1.1643
 2337TIP3    H128570   5.462   5.969   2.055 -0.6641  0.4595 -1.2948
 2337TIP3    H228571   5.428   6.105   2.114  1.9575  0.7841 -0.4177
 2338TIP3   OH228572   1.660   1.645   7.275  0.5443 -0.2273  0.0089
 2338TIP3    H128573   1.592   1.579   7.290  0.0721  0.2895  0.1622
 2338TIP3    H228574   1.685   1.674   7.362  0.6079 -0.0596 -0.0656
 2339TIP3   OH228575   1.896   0.570   6.352 -0.3155 -0.0676 -0.0007
 2339TIP3    H128576   1.849   0.494   6.387  0.7715 -1.2010 -0.9002
 2339TIP3    H228577   1.839   0.604   6.283 -0.7008 -0.2045  0.2457
 2340TIP3   OH228578   1.351   4.865   8.074  0.4322 -0.1604 -0.4123
 2340TIP3    H128579   1.439   4.864   8.039  0.1955  1.9610 -1.1835
 2340TIP3    H228580   1.304   4.798   8.024  1.8433 -2.2161  0.8715
 2341TIP3   OH228581   4.001   2.601   0.236 -0.5678 -0.2144  0.8298
 2341TIP3    H128582   4.096   2.608   0.246 -0.4295 -0.4175 -0.2429
 2341TIP3    H228583   3.979   2.516   0.272  0.0554 -1.3788 -1.3584
 2342TIP3   OH228584   0.097   5.027   0.085 -0.4508 -0.6187  0.0730
 2342TIP3    H128585   0.150   5.083   0.028  0.3980 -2.6395 -1.2274
 2342TIP3    H228586   0.051   4.969   0.025  0.4712 -2.8169  1.3932
 2343TIP3   OH228587   0.011   0.634   7.866 -0.3759 -0.0557  0.5190
 2343TIP3    H128588   0.037   0.710   7.918 -1.0100  1.5640 -1.3630
 2343TIP3    H228589  -0.040   0.580   7.925  0.5731  0.7014  2.0774
 2344TIP3   OH228590   6.390   2.218   6.992  0.0692  0.0827 -0.6765
 2344TIP3    H128591   6.440   2.140   6.971 -0.3655  0.0705 -1.7578
 2344TIP3    H228592   6.392   2.270   6.912 -0.9859  0.4292 -0.4984
 2345TIP3   OH228593   0.363   4.761   8.409  0.1458  0.5180 -0.1768
 2345TIP3    H128594   0.342   4.697   8.341 -0.7691  0.0991  0.4833
 2345TIP3    H228595   0.407   4.832   8.362 -1.8277  0.9520 -1.4543
 2346TIP3   OH228596   0.520   4.415   6.285 -0.1367 -0.2694 -0.3478
 2346TIP3    H128597   0.486   4.326   6.281  1.0277 -0.7364 -0.3949
 2346TIP3    H228598   0.613   4.404   6.306  0.6825  0.7811 -3.0374
 2347TIP3   OH228599   1.788   0.277   0.439  0.0737 -0.8615  0.0694
 2347TIP3    H128600   1.712   0.284   0.497 -1.9770 -2.7038 -2.1938
 2347TIP3    H228601   1.802   0.183   0.430  2.7886 -0.5731  0.5067
 2348TIP3   OH228602   2.822   4.479   7.990 -0.0397  0.4131  0.2613
 2348TIP3    H128603   2.893   4.422   8.021  1.1663  0.5878 -1.9594
 2348TIP3    H228604   2.768   4.493   8.068  1.2086 -1.3961  1.5665
 2349TIP3   OH228605   3.652   3.347   1.088  0.4839 -0.5282  0.7306
 2349TIP3    H128606   3.592   3.396   1.145  0.7153 -0.2898  0.7729
 2349TIP3    H228607   3.718   3.311   1.148  1.9780  1.5151  0.4265
 2350TIP3   OH228608   4.769   5.643   6.868 -0.1639  0.5630  0.1572
 2350TIP3    H128609   4.834   5.583   6.832 -0.9193 -0.8856  1.1104
 2350TIP3    H228610   4.812   5.729   6.867  2.0619 -0.4511  1.5119
 2351TIP3   OH228611   3.793   4.272   8.562  0.7959  0.3789 -0.0504
 2351TIP3    H128612   3.833   4.187   8.581  1.0597  0.0882 -1.7417
 2351TIP3    H228613   3.827   4.330   8.629  0.0276 -1.0004  1.6008
 2352TIP3   OH228614   1.126   5.022   8.184 -0.3110  0.3594  0.0222
 2352TIP3    H128615   1.221   5.025   8.173 -0.1271  0.0635  1.4219
 2352TIP3    H228616   1.108   4.936   8.220 -1.0758  0.5504  0.1107
 2353TIP3   OH228617   5.160   2.904   0.631 -0.4436  0.0970 -0.0010
 2353TIP3    H128618   5.183   2.821   0.590 -0.7852 -0.7844  1.5420
 2353TIP3    H228619   5.230   2.964   0.603  0.1014 -0.8367 -0.6898
 2354TIP3   OH228620   5.095   1.653   8.166 -0.1907  0.0845  0.0736
 2354TIP3    H128621   5.027   1.632   8.101 -1.2148  3.8658 -0.3254
 2354TIP3    H228622   5.068   1.607   8.245 -1.8682 -0.4322 -0.7448
 2355TIP3   OH228623   4.078   3.082   8.207 -0.3536  1.0993 -0.2186
 2355TIP3    H128624   4.006   3.067   8.146 -0.6242  1.9701 -0.1285
 2355TIP3    H228625   4.100   2.995   8.241 -0.7321  0.7096 -0.9498
 2356TIP3   OH228626   0.628   1.907   1.536  0.1581  0.0460 -0.4989
 2356TIP3    H128627   0.560   1.874   1.478  1.7538 -2.2197 -1.1857
 2356TIP3    H228628   0.624   1.851   1.613  1.1993 -0.0928 -0.5264
 2357TIP3   OH228629   0.798   3.615   6.943  0.5080 -0.4599  1.3018
 2357TIP3    H128630   0.742   3.675   6.994 -1.6255  0.1238 -1.4628
 2357TIP3    H228631   0.855   3.673   6.892 -0.8815 -0.7113 -0.6463
 2358TIP3   OH228632   1.500   0.682   1.876 -0.3390  0.1260  0.6073
 2358TIP3    H128633   1.425   0.677   1.817  0.1244 -1.4674  0.1167
 2358TIP3    H228634   1.519   0.776   1.882 -0.6685  0.3674 -1.4401
 2359TIP3   OH228635   1.595   3.382   1.452  0.4746  0.7190  0.2665
 2359TIP3    H128636   1.527   3.323   1.484 -0.5046  1.9076  0.4551
 2359TIP3    H228637   1.677   3.341   1.480 -0.2388  0.2249  1.7571
 2360TIP3   OH228638   0.807   1.847   2.350  0.6751 -0.1597 -0.0157
 2360TIP3    H128639   0.791   1.866   2.257  0.9854 -0.3058 -0.1007
 2360TIP3    H228640   0.888   1.893   2.370  0.0169  0.8139  0.4892
 2361TIP3   OH228641   6.461   4.365   1.268 -0.2166 -0.2416  0.4102
 2361TIP3    H128642   6.521   4.291   1.264 -0.0849 -0.1157 -0.0493
 2361TIP3    H228643   6.517   4.442   1.270 -0.3593 -0.1065 -0.4535
 2362TIP3   OH228644   2.953   1.537   7.459 -0.1441  0.2287 -0.1014
 2362TIP3    H128645   2.882   1.475   7.441 -0.6588  0.4354  1.1066
 2362TIP3    H228646   2.917   1.622   7.436  0.3053  0.1771 -1.0523
 2363TIP3   OH228647   1.207   4.165   8.385 -0.6864  0.3966 -0.0660
 2363TIP3    H128648   1.156   4.108   8.443 -0.7297 -0.7492 -1.1818
 2363TIP3    H228649   1.154   4.245   8.378 -0.8786  0.3959  1.1226
 2364TIP3   OH228650   3.146   5.805   6.061  0.3041  0.0639  0.4602
 2364TIP3    H128651   3.063   5.853   6.054 -0.4456 -1.0691  1.0818
 2364TIP3    H228652   3.122   5.725   6.109  1.4314 -1.0738 -0.7922
 2365TIP3   OH228653   0.753   3.926   1.458  0.5545 -0.3297  0.6012
 2365TIP3    H128654   0.798   4.003   1.425 -0.1185  0.1018  0.6750
 2365TIP3    H228655   0.664   3.956   1.478  0.4105 -1.0200  1.0413
 2366TIP3   OH228656   4.384   4.248   6.263 -0.4886  0.2551 -0.3150
 2366TIP3    H128657   4.308   4.295   6.229 -2.3961 -1.1411  1.7385
 2366TIP3    H228658   4.369   4.157   6.238 -0.5597 -0.3647  1.8232
 2367TIP3   OH228659   6.553   6.443   1.279 -0.3817  0.2563  0.2302
 2367TIP3    H128660   6.472   6.394   1.293  0.1233  0.1065  3.2380
 2367TIP3    H228661   6.569   6.487   1.362  2.5341  0.4008 -0.3168
 2368TIP3   OH228662   3.943   0.936   2.187  0.1212 -0.1394  0.1680
 2368TIP3    H128663   3.864   0.965   2.233 -0.4214  1.2258 -1.5152
 2368TIP3    H228664   3.991   1.016   2.168  0.4991 -0.6829 -1.2987
 2369TIP3   OH228665   0.834   1.992   2.108 -0.0752 -0.2735  0.2846
 2369TIP3    H128666   0.762   2.053   2.117 -0.5706 -0.0846 -3.4283
 2369TIP3    H228667   0.900   2.022   2.171 -0.8532  3.2477 -0.4014
 2370TIP3   OH228668   2.157   2.555   7.756  0.2063 -0.2332 -0.2745
 2370TIP3    H128669   2.103   2.633   7.748  1.2114  0.4314 -0.8302
 2370TIP3    H228670   2.115   2.504   7.825 -1.4684 -0.0460 -1.1082
 2371TIP3   OH228671   0.218   1.480   1.389 -0.6275 -0.2893 -0.2417
 2371TIP3    H128672   0.271   1.528   1.324  0.4381 -0.9820  0.0855
 2371TIP3    H228673   0.282   1.432   1.441 -1.3546  1.0419  2.0389
 2372TIP3   OH228674   4.314   1.175   7.103 -0.6027  0.4970  0.0749
 2372TIP3    H128675   4.223   1.205   7.107 -0.5825  0.7535 -1.0696
 2372TIP3    H228676   4.308   1.080   7.094 -0.6769  0.1380  3.0371
 2373TIP3   OH228677   5.853   0.825   8.076  0.3410  0.2213  0.0590
 2373TIP3    H128678   5.885   0.828   7.986  1.8583 -0.8307  0.5078
 2373TIP3    H228679   5.830   0.915   8.097  2.0635  0.8711 -0.6833
 2374TIP3   OH228680   0.229   3.763   2.393 -0.2227 -0.3413  0.1510
 2374TIP3    H128681   0.242   3.763   2.488 -0.2477 -2.9139  0.2459
 2374TIP3    H228682   0.317   3.751   2.357 -0.4478 -1.9881  0.0387
 2375TIP3   OH228683   4.711   0.650   1.341 -0.3717 -0.0808 -0.1745
 2375TIP3    H128684   4.656   0.715   1.383 -0.2139  0.4522 -0.7800
 2375TIP3    H228685   4.755   0.697   1.271 -0.4306 -0.8957 -0.7739
 2376TIP3   OH228686   0.245   2.054   8.440  0.3474  0.7025  0.3637
 2376TIP3    H128687   0.320   2.066   8.498  0.3919  0.6474  0.3164
 2376TIP3    H228688   0.172   2.095   8.487  0.4312  0.8647  0.3560
 2377TIP3   OH228689   5.777   2.047   8.169 -0.0336 -0.0965  0.3045
 2377TIP3    H128690   5.821   1.962   8.178  0.2034 -0.0062  0.0255
 2377TIP3    H228691   5.686   2.029   8.190  0.0705 -0.3628  0.5342
 2378TIP3   OH228692   0.684   3.570   7.858  0.2632  0.5524 -0.6438
 2378TIP3    H128693   0.648   3.482   7.849  2.5829 -0.3785 -1.5485
 2378TIP3    H228694   0.721   3.572   7.946  1.3534  0.1178 -1.0703
 2379TIP3   OH228695   2.145   4.707   7.967  0.5552  0.2916 -0.0459
 2379TIP3    H128696   2.179   4.681   7.881  0.2891 -4.1410  0.9482
 2379TIP3    H228697   2.223   4.732   8.017  1.0920 -0.1634 -0.6417
 2380TIP3   OH228698   6.001   4.515   6.637  0.4473  0.4875 -0.0973
 2380TIP3    H128699   5.910   4.541   6.652  0.4058  0.5081 -0.3734
 2380TIP3    H228700   5.996   4.423   6.613  0.7956 -0.5125  3.2363
 2381TIP3   OH228701   5.920   2.512   7.363  0.1791 -0.4141 -0.2781
 2381TIP3    H128702   5.874   2.494   7.445  0.9770  1.6979  0.7007
 2381TIP3    H228703   5.897   2.602   7.342  1.1167 -0.4595 -1.6303
 2382TIP3   OH228704   0.476   5.422   7.411 -0.0458  0.4397 -0.2998
 2382TIP3    H128705   0.472   5.391   7.501  1.4348  0.0448 -0.3525
 2382TIP3    H228706   0.396   5.473   7.400 -1.0574 -0.8753  0.7097
 2383TIP3   OH228707   0.628   5.484   7.759  0.2764  0.1902 -0.0696
 2383TIP3    H128708   0.579   5.510   7.837 -0.7701 -1.9566  0.0551
 2383TIP3    H228709   0.628   5.389   7.762  0.7338  0.0737 -2.3823
 2384TIP3   OH228710   4.303   5.698   0.811 -0.0410  0.5137 -0.6143
 2384TIP3    H128711   4.384   5.680   0.859 -0.3259  0.1649 -0.2572
 2384TIP3    H228712   4.291   5.620   0.756 -0.5953  0.1661 -0.0173
 2385TIP3   OH228713   6.220   3.755   7.062  0.9572 -0.2176 -0.3854
 2385TIP3    H128714   6.195   3.725   7.149  2.0543 -0.6284 -0.2009
 2385TIP3    H228715   6.305   3.798   7.075  1.3298 -0.6551 -1.3198
 2386TIP3   OH228716   0.675   3.650   2.444 -0.3423  0.2092 -0.4741
 2386TIP3    H128717   0.692   3.714   2.514  1.2965 -1.1273  0.4283
 2386TIP3    H228718   0.761   3.631   2.407 -0.9343 -0.6728 -1.4572
 2387TIP3   OH228719   4.781   6.412   0.431  0.3912  0.2495  0.6218
 2387TIP3    H128720   4.697   6.445   0.399  0.7052  0.4461 -0.0224
 2387TIP3    H228721   4.794   6.330   0.382  1.3229  1.0270 -0.4931
 2388TIP3   OH228722   3.236   2.317   7.118  0.0368 -0.2365  0.4128
 2388TIP3    H128723   3.258   2.369   7.195  2.6234 -0.3998 -0.1071
 2388TIP3    H228724   3.225   2.381   7.048  1.0776 -0.2408  0.2298
 2389TIP3   OH228725   2.187   6.371   0.093 -0.1280 -0.0503 -0.2081
 2389TIP3    H128726   2.134   6.296   0.120 -0.8214  0.8223  0.9467
 2389TIP3    H228727   2.264   6.332   0.050 -0.6054 -1.4007  0.1166
 2390TIP3   OH228728   5.739   5.400   8.477  0.0931 -0.1553 -0.0470
 2390TIP3    H128729   5.667   5.427   8.420  0.5256 -1.0823 -1.0731
 2390TIP3    H228730   5.773   5.321   8.436  2.4552  0.8845 -0.2756
 2391TIP3   OH228731   1.107   3.397   0.466 -0.1698  0.4059  0.3278
 2391TIP3    H128732   1.087   3.482   0.504 -1.0324  2.0686 -3.3558
 2391TIP3    H228733   1.070   3.333   0.527 -1.9030  2.7777  1.9140
 2392TIP3   OH228734   3.714   3.794   7.268  0.1638  0.1215 -0.0619
 2392TIP3    H128735   3.763   3.869   7.301  0.1652 -0.8060  2.3296
 2392TIP3    H228736   3.644   3.781   7.333 -1.3760 -0.4373 -1.7536
 2393TIP3   OH228737   2.223   0.098   8.066  0.1379  0.4716  0.4585
 2393TIP3    H128738   2.185   0.183   8.046  0.4019  0.8204  1.4008
 2393TIP3    H228739   2.174   0.036   8.011  1.2931  1.4392 -1.7784
 2394TIP3   OH228740   4.790   3.071   1.553 -0.3522 -0.1031  0.3629
 2394TIP3    H128741   4.792   3.125   1.474  0.2011 -0.9833 -0.2572
 2394TIP3    H228742   4.758   3.128   1.622  1.4360  1.3908  0.0334
 2395TIP3   OH228743   2.859   4.265   0.409 -0.3275 -0.3872  0.2575
 2395TIP3    H128744   2.891   4.270   0.319 -0.4415 -0.0317  0.2325
 2395TIP3    H228745   2.763   4.269   0.401 -0.3909 -1.6075  0.3208
 2396TIP3   OH228746   0.108   2.662   7.116 -0.2919 -0.4253  0.1667
 2396TIP3    H128747   0.120   2.639   7.208  0.7375 -0.9188 -0.0787
 2396TIP3    H228748   0.197   2.667   7.080 -0.6874 -0.4949 -0.8678
 2397TIP3   OH228749   6.150   0.309   7.760  0.4016  0.5128 -0.4519
 2397TIP3    H128750   6.242   0.335   7.759  0.5918 -0.0988  0.6034
 2397TIP3    H228751   6.104   0.387   7.728  1.3464  0.4473 -2.1247
 2398TIP3   OH228752   4.911   0.445   6.333 -0.0785  0.2856  0.0434
 2398TIP3    H128753   4.840   0.413   6.388  0.2750 -0.7110 -0.0545
 2398TIP3    H228754   4.967   0.369   6.320  1.2842  1.1641  0.5432
 2399TIP3   OH228755   3.374   0.826   2.329  0.6394 -0.0881 -0.2161
 2399TIP3    H128756   3.456   0.813   2.280  3.1496  2.5554  2.8086
 2399TIP3    H228757   3.345   0.737   2.350  2.8447 -1.1474 -1.2277
 2400TIP3   OH228758   4.802   0.073   0.858  0.0943 -0.0544 -0.2738
 2400TIP3    H128759   4.761   0.151   0.896  0.8703  1.1521 -1.7847
 2400TIP3    H228760   4.732   0.008   0.855 -0.2561  0.1141  2.1949
 2401TIP3   OH228761   3.195   1.605   0.394  0.5525  0.0335  0.2367
 2401TIP3    H128762   3.218   1.513   0.378  0.0088 -0.2873  1.2129
 2401TIP3    H228763   3.105   1.613   0.363  0.0497 -0.1846  1.5649
 2402TIP3   OH228764   4.435   4.194   1.490 -0.6208  0.3554  0.3622
 2402TIP3    H128765   4.380   4.116   1.483  0.0570 -0.2160  1.2230
 2402TIP3    H228766   4.399   4.254   1.425 -0.0398 -1.3414 -1.6425
 2403TIP3   OH228767   2.340   0.810   8.243 -0.5050  0.6571 -0.3907
 2403TIP3    H128768   2.297   0.879   8.294 -0.4929 -0.1919  0.8313
 2403TIP3    H228769   2.432   0.834   8.242 -0.3004  0.0863  1.0851
 2404TIP3   OH228770   2.698   4.521   6.670 -0.7909 -0.6880 -0.7420
 2404TIP3    H128771   2.720   4.611   6.646 -1.2839  0.2303  1.9271
 2404TIP3    H228772   2.606   4.512   6.648 -0.8081 -0.4313 -0.7818
 2405TIP3   OH228773   3.958   0.844   0.435 -0.8525  0.3253  0.1422
 2405TIP3    H128774   4.025   0.833   0.502 -0.3313 -0.6833 -0.5240
 2405TIP3    H228775   3.981   0.927   0.393  1.2430 -0.9154 -1.3933
 2406TIP3   OH228776   2.264   1.893   1.916 -0.0002 -0.2707 -0.0144
 2406TIP3    H128777   2.339   1.871   1.972  0.0590  0.2974  0.1352
 2406TIP3    H228778   2.283   1.981   1.885 -0.4139 -0.2831 -0.3043
 2407TIP3   OH228779   5.638   2.356   8.650  0.1586  0.0467 -0.2123
 2407TIP3    H128780   5.702   2.295   8.615  1.3961 -0.4101  2.5697
 2407TIP3    H228781   5.556   2.305   8.655  0.0956 -0.0406 -1.7544
 2408TIP3   OH228782   0.849   1.328   1.887 -0.0813 -0.2870  0.6264
 2408TIP3    H128783   0.934   1.284   1.883  0.9097  1.6134 -0.7152
 2408TIP3    H228784   0.803   1.285   1.960  1.2471 -2.6486  0.1734
 2409TIP3   OH228785   6.354   3.152   1.307 -0.7469  0.0675 -0.5390
 2409TIP3    H128786   6.278   3.106   1.273 -0.3753  0.9656 -2.8154
 2409TIP3    H228787   6.326   3.187   1.392 -2.1761 -1.2685 -0.4255
 2410TIP3   OH228788   2.808   1.907   1.397 -0.0040 -0.5870  0.0732
 2410TIP3    H128789   2.774   1.936   1.482 -0.6014 -0.5957 -0.1572
 2410TIP3    H228790   2.739   1.931   1.335  0.9491  0.5203 -0.5858
 2411TIP3   OH228791   6.164   2.071   7.850  0.0330  0.2158  0.1650
 2411TIP3    H128792   6.201   1.985   7.871  0.5292  0.2024 -0.7618
 2411TIP3    H228793   6.069   2.055   7.847  0.1219 -0.3078 -0.0385
 2412TIP3   OH228794   2.002   3.308   7.553  0.7482  0.1142  0.0380
 2412TIP3    H128795   1.962   3.330   7.469 -0.7255 -0.8370  0.4485
 2412TIP3    H228796   2.090   3.277   7.531  0.1979 -0.6388 -1.2241
 2413TIP3   OH228797   6.419   2.013   7.595 -0.4642  0.1473  0.2919
 2413TIP3    H128798   6.397   1.935   7.646 -1.1596 -1.1467 -1.8022
 2413TIP3    H228799   6.406   1.985   7.504 -1.8531  3.0588 -0.5129
 2414TIP3   OH228800   6.522   1.547   7.326 -0.2088 -0.5689 -0.2192
 2414TIP3    H128801   6.614   1.521   7.315 -0.4945 -2.9828  2.0772
 2414TIP3    H228802   6.520   1.595   7.408 -1.0329 -0.5840 -0.2243
 2415TIP3   OH228803   5.980   4.894   7.472  0.6628  0.1215  0.0480
 2415TIP3    H128804   5.895   4.878   7.431  0.7978  0.8179 -0.5199
 2415TIP3    H228805   6.044   4.863   7.408  0.8464 -1.4260  0.9221
 2416TIP3   OH228806   3.739   2.033   0.646  0.5911  0.7359 -0.2635
 2416TIP3    H128807   3.646   2.047   0.661  0.7870  0.2974  1.5271
 2416TIP3    H228808   3.781   2.111   0.684  1.0151  0.4234 -0.0855
 2417TIP3   OH228809   5.318   5.889   1.071 -0.4222 -0.4942  0.4284
 2417TIP3    H128810   5.318   5.824   1.000 -0.1750  0.9117 -0.9103
 2417TIP3    H228811   5.392   5.865   1.126  0.7244 -0.3585 -1.0126
 2418TIP3   OH228812   3.742   5.042   0.723 -0.1087  0.3955  0.2266
 2418TIP3    H128813   3.691   4.962   0.726 -1.3878  1.0819 -1.5342
 2418TIP3    H228814   3.701   5.094   0.654 -0.6789  3.5148  2.7187
 2419TIP3   OH228815   4.513   5.904   0.016 -0.1472 -0.0936 -0.0183
 2419TIP3    H128816   4.469   5.914   0.100  0.1649 -1.3629  0.3128
 2419TIP3    H228817   4.484   5.819  -0.017  1.1672 -0.4544 -0.3057
 2420TIP3   OH228818   3.785   1.772   8.139 -0.2600 -0.1007  0.0568
 2420TIP3    H128819   3.819   1.704   8.197 -2.0698 -1.1066 -0.0067
 2420TIP3    H228820   3.781   1.732   8.053 -1.0061  0.1927 -0.0528
 2421TIP3   OH228821   0.575   0.086   1.110 -0.2719  0.2247  0.0542
 2421TIP3    H128822   0.643   0.150   1.133  0.2734 -0.2614 -0.1697
 2421TIP3    H228823   0.612   0.002   1.136 -0.2354 -0.1835 -1.2497
 2422TIP3   OH228824   2.589   2.427   1.515  0.5423  0.6775  0.2533
 2422TIP3    H128825   2.571   2.366   1.443  0.0176  1.0941  0.0211
 2422TIP3    H228826   2.578   2.375   1.594 -0.8331  0.6783  0.0890
 2423TIP3   OH228827   1.247   2.329   6.825  0.3057 -0.0834 -0.6138
 2423TIP3    H128828   1.230   2.409   6.873 -0.0148  0.2408 -1.2496
 2423TIP3    H228829   1.251   2.357   6.733  0.6362 -0.7226 -0.7986
 2424TIP3   OH228830   1.261   0.775   8.503 -0.0173 -0.1841  0.1169
 2424TIP3    H128831   1.186   0.727   8.537 -2.6258  3.1096 -0.5089
 2424TIP3    H228832   1.262   0.755   8.409  1.4477 -2.0231  0.4615
 2425TIP3   OH228833   3.310   3.626   0.668 -0.2780  0.3846  0.5511
 2425TIP3    H128834   3.250   3.636   0.742  0.5710  0.9350  1.1911
 2425TIP3    H228835   3.377   3.564   0.700 -1.7911 -2.2553 -1.0085
 2426TIP3   OH228836   1.937   3.331   0.015  0.0614  0.0148  0.0966
 2426TIP3    H128837   1.891   3.397  -0.037 -0.9371 -0.6447  0.1144
 2426TIP3    H228838   1.982   3.381   0.083 -0.4503  0.6998 -0.0552
 2427TIP3   OH228839   0.353   2.321   6.490  0.0512  0.7457 -0.1694
 2427TIP3    H128840   0.408   2.396   6.515 -0.0677 -0.0854  2.9587
 2427TIP3    H228841   0.276   2.360   6.450  1.3178  2.0987 -1.4331
 2428TIP3   OH228842   2.280   0.900   2.129  0.1074 -0.2725 -0.2251
 2428TIP3    H128843   2.224   0.945   2.192 -0.5691  1.5957 -2.0471
 2428TIP3    H228844   2.368   0.904   2.168 -0.2133  1.2574  0.4126
 2429TIP3   OH228845   4.100   3.256   1.197  0.6855  0.1487  0.8549
 2429TIP3    H128846   4.117   3.339   1.153  0.1275  0.6751  1.6084
 2429TIP3    H228847   4.028   3.275   1.257  0.6485 -0.8466  1.1417
 2430TIP3   OH228848   2.495   0.095   0.722 -0.2698 -0.0908 -0.8382
 2430TIP3    H128849   2.426   0.157   0.697 -1.2418 -0.6397  0.3880
 2430TIP3    H228850   2.572   0.151   0.740 -0.1733  0.4739 -2.8255
 2431TIP3   OH228851   3.974   4.898   1.856 -0.5578  0.1665 -0.0287
 2431TIP3    H128852   3.968   4.820   1.911  0.4826 -0.6679 -1.0455
 2431TIP3    H228853   4.030   4.958   1.906 -0.2541 -0.2788  0.1812
 2432TIP3   OH228854   0.185   1.014   0.788 -0.1798 -0.1049 -0.8059
 2432TIP3    H128855   0.206   1.091   0.841  1.3448 -0.3918 -0.9487
 2432TIP3    H228856   0.100   0.985   0.821 -2.1317  3.1381 -2.4967
 2433TIP3   OH228857   3.120   0.784   7.110  0.9900 -0.0143  0.0587
 2433TIP3    H128858   3.141   0.695   7.082 -0.9565 -0.7549  0.7256
 2433TIP3    H228859   3.105   0.832   7.029 -0.7537 -1.1008 -0.3225
 2434TIP3   OH228860   3.007   1.632   8.775 -0.0929  0.1878 -0.1727
 2434TIP3    H128861   3.035   1.652   8.864 -1.6396 -0.1929  0.4470
 2434TIP3    H228862   3.084   1.646   8.721  1.1325 -0.4276  1.3447
 2435TIP3   OH228863   5.578   2.580   7.331 -0.1637 -0.1674 -0.3957
 2435TIP3    H128864   5.623   2.503   7.364  0.8741  0.7255  0.3396
 2435TIP3    H228865   5.641   2.651   7.341 -1.6509  1.1017  0.4734
 2436TIP3   OH228866   2.050   3.779   6.593 -1.0484 -0.3957 -0.4361
 2436TIP3    H128867   2.090   3.843   6.652 -0.5944 -0.5225 -0.6046
 2436TIP3    H228868   1.992   3.830   6.537 -1.6086 -0.2946  0.2234
 2437TIP3   OH228869   1.519   5.389   0.861 -0.5533 -0.4838  0.4004
 2437TIP3    H128870   1.537   5.481   0.876  0.6680 -0.6768  0.2449
 2437TIP3    H228871   1.575   5.342   0.923  0.0046 -1.1379 -0.5590
 2438TIP3   OH228872   3.950   5.717   7.242 -0.2059  0.0415 -0.1723
 2438TIP3    H128873   3.894   5.767   7.182 -0.1351  0.2970 -0.0266
 2438TIP3    H228874   3.912   5.733   7.328  2.0204  3.0143  0.4324
 2439TIP3   OH228875   5.020   3.674   1.470 -0.2889 -0.2164  0.2253
 2439TIP3    H128876   4.932   3.667   1.432 -0.0207  1.0025 -0.6937
 2439TIP3    H228877   5.006   3.708   1.558 -0.7830 -0.9540  0.4428
 2440TIP3   OH228878   4.552   4.211   8.520  0.1055 -0.2914 -0.1710
 2440TIP3    H128879   4.625   4.269   8.501  2.0492 -2.2904  0.7146
 2440TIP3    H228880   4.534   4.225   8.614 -1.0263  0.5322 -0.4854
 2441TIP3   OH228881   2.064   0.805   7.155  0.4013  0.3365 -0.0545
 2441TIP3    H128882   2.109   0.888   7.138 -0.3619  0.8044  0.1871
 2441TIP3    H228883   2.026   0.781   7.070  0.8795  0.0688 -0.1985
 2442TIP3   OH228884   4.688   3.962   8.586 -0.7209  0.3837  0.5063
 2442TIP3    H128885   4.636   4.035   8.552  0.8431  1.4515  0.2593
 2442TIP3    H228886   4.682   3.969   8.681  0.4492  1.6853  0.5217
 2443TIP3   OH228887   2.651   0.578   8.517 -0.6508  0.7527  0.1707
 2443TIP3    H128888   2.623   0.491   8.490 -0.7682  0.2495  1.8136
 2443TIP3    H228889   2.724   0.599   8.459 -0.0650 -0.8040  0.2967
 2444TIP3   OH228890   3.911   1.646   1.640  0.7282  0.0433  0.1074
 2444TIP3    H128891   3.828   1.694   1.651  0.4508  0.5496 -3.2876
 2444TIP3    H228892   3.978   1.709   1.667  0.1756  1.1479 -0.9786
 2445TIP3   OH228893   1.811   3.229   1.631 -1.0661 -0.0573  0.1543
 2445TIP3    H128894   1.755   3.229   1.709 -1.7088 -0.3116 -0.2979
 2445TIP3    H228895   1.876   3.162   1.650  0.1679  1.4270  1.4190
 2446TIP3   OH228896   3.340   4.192   1.128 -0.2817  0.8875  0.0205
 2446TIP3    H128897   3.248   4.213   1.113  0.1553  2.5834 -0.5612
 2446TIP3    H228898   3.375   4.269   1.173  0.3951 -0.6173  2.2340
 2447TIP3   OH228899   4.828   5.361   1.264  0.4883  0.4293 -0.2234
 2447TIP3    H128900   4.830   5.423   1.337  1.3524  0.1503 -0.0024
 2447TIP3    H228901   4.797   5.279   1.303  0.3950  0.4277 -0.2975
 2448TIP3   OH228902   4.991   6.062   7.890  0.5910  0.9881 -0.2893
 2448TIP3    H128903   4.969   5.987   7.945  2.1606  0.8529  0.1954
 2448TIP3    H228904   4.924   6.062   7.821 -0.8538  0.6000  1.0509
 2449TIP3   OH228905   2.121   2.077   8.771 -0.3005  0.2015  0.7669
 2449TIP3    H128906   2.193   2.086   8.833 -0.8871  0.5110  1.4110
 2449TIP3    H228907   2.053   2.136   8.804 -0.5681  0.4836 -0.2455
 2450TIP3   OH228908   4.494   4.909   1.610 -0.3542  0.5235 -0.3701
 2450TIP3    H128909   4.588   4.926   1.623 -0.5368  0.3595  1.4460
 2450TIP3    H228910   4.475   4.946   1.524  0.8372  2.8882  0.2849
 2451TIP3   OH228911   3.078   4.439   6.922 -0.4049 -0.4728  0.2635
 2451TIP3    H128912   3.047   4.400   6.840 -1.9924  0.8728  0.1724
 2451TIP3    H228913   3.015   4.408   6.988 -0.7809  0.6559  0.4557
 2452TIP3   OH228914   0.804   4.743   7.217 -0.2511  0.4153 -0.0259
 2452TIP3    H128915   0.761   4.778   7.295  0.8681  0.0330  0.7979
 2452TIP3    H228916   0.868   4.811   7.193  0.7152 -0.2630  0.5386
 2453TIP3   OH228917   3.070   1.119   0.568 -0.3826 -0.4777 -0.3117
 2453TIP3    H128918   3.055   1.114   0.473 -1.7250  0.9359 -0.2227
 2453TIP3    H228919   3.019   1.195   0.596  2.0753  0.7744  1.1501
 2454TIP3   OH228920   4.032   0.030   1.531  0.5714 -0.1622  0.3890
 2454TIP3    H128921   4.070  -0.002   1.449 -0.0950  2.0516 -0.8967
 2454TIP3    H228922   3.976  -0.041   1.561  1.3937 -1.3122 -0.6807
 2455TIP3   OH228923   2.337   2.209   8.213  0.2321 -0.0360  0.0777
 2455TIP3    H128924   2.421   2.217   8.169 -1.0477  0.6956 -2.4503
 2455TIP3    H228925   2.304   2.299   8.217 -0.0065 -0.1818  1.9593
 2456TIP3   OH228926   2.575   4.875   1.024 -0.5238 -0.2850 -0.0624
 2456TIP3    H128927   2.577   4.959   1.069  1.1839 -0.7756  0.8787
 2456TIP3    H228928   2.617   4.891   0.940 -2.1463  0.2439 -0.8111
 2457TIP3   OH228929   0.045   4.649   6.225 -0.0622  0.4251 -0.0534
 2457TIP3    H128930   0.047   4.732   6.177 -0.7775  1.7362  2.0450
 2457TIP3    H228931   0.137   4.627   6.238  0.1571 -0.0339 -2.0430
 2458TIP3   OH228932   3.543   2.553   1.383  0.0547 -0.4984  0.3304
 2458TIP3    H128933   3.520   2.520   1.470 -2.1693 -0.4461 -0.1903
 2458TIP3    H228934   3.599   2.485   1.345  0.5052 -0.8202  1.5365
 2459TIP3   OH228935   5.580   0.744   6.955 -0.2285 -0.1914  0.0666
 2459TIP3    H128936   5.664   0.726   6.912 -0.5547 -0.6324 -0.4062
 2459TIP3    H228937   5.525   0.669   6.931 -0.7347  0.0579  0.4353
 2460TIP3   OH228938   4.675   2.176   7.062  0.4010  0.1563 -0.2342
 2460TIP3    H128939   4.659   2.082   7.062  0.2643  0.1771 -0.0261
 2460TIP3    H228940   4.601   2.213   7.014  1.5924 -0.0100 -2.2698
 2461TIP3   OH228941   1.680   3.202   6.109 -0.0578 -0.3530 -0.4692
 2461TIP3    H128942   1.682   3.235   6.019 -2.0374  1.6665  0.1372
 2461TIP3    H228943   1.587   3.186   6.127  0.4585 -2.5581  0.6446
 2462TIP3   OH228944   5.862   3.211   0.174 -0.3073 -0.1364 -0.3878
 2462TIP3    H128945   5.837   3.288   0.123  1.1973  2.0387  1.8892
 2462TIP3    H228946   5.821   3.225   0.260 -0.0677 -1.9648  0.0730
 2463TIP3   OH228947   4.526   2.494   2.048  0.1278  0.3819  0.8952
 2463TIP3    H128948   4.555   2.423   1.991 -1.6731  0.6361 -0.3960
 2463TIP3    H228949   4.477   2.450   2.118  1.0815  0.2021  1.4851
 2464TIP3   OH228950   6.214   0.126   8.283 -0.3948  0.2635 -0.4880
 2464TIP3    H128951   6.139   0.168   8.241 -0.0647 -0.9040 -2.3418
 2464TIP3    H228952   6.221   0.041   8.241  1.8282  0.2365 -0.2063
 2465TIP3   OH228953   0.691   1.416   0.822 -0.6380 -0.1337 -0.4322
 2465TIP3    H128954   0.775   1.370   0.832  0.8435  2.2337 -1.1718
 2465TIP3    H228955   0.633   1.351   0.783  0.8469 -1.8483  0.0650
 2466TIP3   OH228956   6.288   4.867   7.441  0.1120 -0.4789 -0.3691
 2466TIP3    H128957   6.289   4.880   7.536  1.8106 -1.2572 -0.2373
 2466TIP3    H228958   6.324   4.948   7.405  1.1897 -0.8697 -0.2084
 2467TIP3   OH228959   2.657   2.451   8.205 -0.3843  0.1564 -0.8276
 2467TIP3    H128960   2.723   2.442   8.135  1.1009 -1.9141  0.7101
 2467TIP3    H228961   2.574   2.457   8.159  0.6603  0.5360 -2.7952
 2468TIP3   OH228962   5.365   1.425   0.953  0.6847  0.3685  0.1782
 2468TIP3    H128963   5.381   1.510   0.993 -0.9562  0.6258  0.3852
 2468TIP3    H228964   5.400   1.362   1.017  0.8211  0.8599  0.5949
 2469TIP3   OH228965   1.579   0.980   8.650  0.0218 -0.1573 -0.0896
 2469TIP3    H128966   1.634   0.915   8.693  0.5483 -0.3752 -1.0599
 2469TIP3    H228967   1.641   1.040   8.608 -0.4709  0.0656 -0.5144
 2470TIP3   OH228968   5.613   1.251   0.336  0.1921 -0.5835 -0.1685
 2470TIP3    H128969   5.644   1.183   0.397  0.5377 -1.6077 -1.4359
 2470TIP3    H228970   5.522   1.266   0.362  0.1972 -1.3249  0.3162
 2471TIP3   OH228971   0.724   0.128   1.694  0.5992  0.1336  0.0994
 2471TIP3    H128972   0.705   0.208   1.743  2.6310  1.2041 -0.7853
 2471TIP3    H228973   0.796   0.087   1.742 -0.0532 -0.9119  0.2261
 2472TIP3   OH228974   0.663   3.689   8.772  0.2719 -0.2431 -0.1540
 2472TIP3    H128975   0.701   3.639   8.844 -1.5543  0.0841  1.1086
 2472TIP3    H228976   0.642   3.775   8.810 -0.4441  0.0483 -1.1524
 2473TIP3   OH228977   2.711   3.091   7.640 -0.3283  0.7259  0.6099
 2473TIP3    H128978   2.668   3.012   7.607  0.9158  0.0568  0.5194
 2473TIP3    H228979   2.670   3.163   7.592 -0.0591 -0.0453 -0.8597
 2474TIP3   OH228980   4.911   1.742   1.867  0.2385 -0.2062 -0.1546
 2474TIP3    H128981   4.871   1.772   1.949  1.1534  0.1564  0.1815
 2474TIP3    H228982   4.897   1.648   1.867 -2.4404  0.1094 -1.0879
 2475TIP3   OH228983   0.622   1.724   7.974 -0.0807 -0.6716 -0.0768
 2475TIP3    H128984   0.584   1.811   7.983 -0.0905 -0.3435 -2.5722
 2475TIP3    H228985   0.684   1.718   8.047 -0.0306  1.4355  0.1317
 2476TIP3   OH228986   1.869   5.517   2.434  0.2667  0.2131  0.3935
 2476TIP3    H128987   1.964   5.530   2.431  0.2321  0.2526 -1.6731
 2476TIP3    H228988   1.833   5.605   2.445  0.4328  0.4535 -0.8416
 2477TIP3   OH228989   4.879   5.268   7.105 -0.4017 -0.4124  0.5058
 2477TIP3    H128990   4.800   5.322   7.096 -0.4553 -0.2926  1.5603
 2477TIP3    H228991   4.923   5.276   7.020 -1.2524 -0.0514  0.0849
 2478TIP3   OH228992   4.393   2.524   0.839 -0.7856 -0.1575  0.3308
 2478TIP3    H128993   4.460   2.457   0.827  0.4486  0.9651  0.6880
 2478TIP3    H228994   4.372   2.553   0.750  0.2026  0.3976  0.2592
 2479TIP3   OH228995   1.893   2.399   1.070  0.5304  0.6162 -0.2295
 2479TIP3    H128996   1.849   2.354   1.142  3.5784  0.5919  1.8158
 2479TIP3    H228997   1.928   2.328   1.015  0.7004  0.5749 -0.0694
 2480TIP3   OH228998   2.921   4.556   7.233  0.2196  0.6913 -0.3226
 2480TIP3    H128999   2.913   4.613   7.156 -0.0939  0.9310 -0.1133
 2480TIP3    H229000   2.999   4.587   7.278  0.6461  0.2845 -0.7573
 2481TIP3   OH229001   6.093   5.853   2.220 -0.2207  0.0953 -0.8960
 2481TIP3    H129002   5.999   5.837   2.218  0.0241 -1.5648 -0.7757
 2481TIP3    H229003   6.108   5.899   2.303 -0.8035 -0.6373 -0.3652
 2482TIP3   OH229004   2.108   1.725   8.010  0.2516 -0.2812 -0.1560
 2482TIP3    H129005   2.030   1.692   8.054  0.1368 -0.5230 -0.5334
 2482TIP3    H229006   2.082   1.810   7.975 -0.4450 -1.1565 -1.8912
 2483TIP3   OH229007   1.470   3.027   1.904 -0.7905 -0.3046  0.6940
 2483TIP3    H129008   1.513   3.014   1.988 -1.7845 -0.5013  1.1918
 2483TIP3    H229009   1.396   3.085   1.924 -0.5558  0.3173 -0.1969
 2484TIP3   OH229010   5.990   4.314   7.432  0.2215  0.1822  0.0321
 2484TIP3    H129011   6.047   4.237   7.433  0.1695  0.1421 -0.1132
 2484TIP3    H229012   6.007   4.356   7.348 -0.3012 -0.0884 -0.2166
 2485TIP3   OH229013   4.381   5.542   1.519 -0.7791 -0.0647  0.8743
 2485TIP3    H129014   4.424   5.464   1.555 -1.6830 -0.5519  0.9237
 2485TIP3    H229015   4.291   5.515   1.504 -0.9717  0.8159  0.3693
 2486TIP3   OH229016   6.555   1.384   1.005  0.2406 -0.1616  0.5085
 2486TIP3    H129017   6.548   1.318   1.073 -0.6588 -1.1562 -0.5002
 2486TIP3    H229018   6.647   1.384   0.980  0.1018 -1.7335 -0.1156
 2487TIP3   OH229019   0.438   3.863   0.644  0.2400 -0.1291 -0.1335
 2487TIP3    H129020   0.478   3.942   0.680  1.6361 -0.7443 -0.2774
 2487TIP3    H229021   0.408   3.814   0.720  1.8146 -0.7190  0.1197
 2488TIP3   OH229022   6.724   4.138   8.662  0.0550  0.2822 -0.4118
 2488TIP3    H129023   6.714   4.153   8.568  1.4185  1.6815 -0.3730
 2488TIP3    H229024   6.669   4.204   8.703  0.3751  0.4449 -0.2390
 2489TIP3   OH229025   2.662   3.971   8.116  0.1301  1.5671  0.6292
 2489TIP3    H129026   2.575   3.935   8.099  1.1825 -2.7453  3.0822
 2489TIP3    H229027   2.709   3.959   8.034  0.0539 -1.9758  0.9476
 2490TIP3   OH229028   2.209   3.633   8.330 -0.3955  0.0260 -0.3591
 2490TIP3    H129029   2.131   3.679   8.360  0.1975 -0.7878  2.7055
 2490TIP3    H229030   2.230   3.571   8.400  0.3246 -3.1830 -3.1028
 2491TIP3   OH229031   1.528   5.364   8.816  0.1460 -0.2772  0.2838
 2491TIP3    H129032   1.618   5.355   8.783  0.5704  1.5736  0.8256
 2491TIP3    H229033   1.522   5.298   8.885  2.7515  2.4708  3.4951
 2492TIP3   OH229034   0.008   4.518   8.608  0.4778 -0.8750  0.2204
 2492TIP3    H129035   0.083   4.576   8.597 -2.1927  2.4021 -3.4529
 2492TIP3    H229036  -0.029   4.509   8.521 -3.0056 -2.8742  1.6999
 2493TIP3   OH229037   0.585   0.336   1.486  0.4030 -0.3542 -0.3540
 2493TIP3    H129038   0.632   0.269   1.435  1.6492 -0.5161  0.9393
 2493TIP3    H229039   0.502   0.295   1.510  0.7496 -1.0908 -0.3922
 2494TIP3   OH229040   1.689   1.077   0.420 -0.0460 -0.2597 -0.4770
 2494TIP3    H129041   1.679   1.014   0.491  1.9847  1.2504  1.2504
 2494TIP3    H229042   1.600   1.092   0.389 -0.6997 -3.0866 -0.2113
 2495TIP3   OH229043   0.114   4.104   2.011  0.0246 -0.4763  0.9678
 2495TIP3    H129044   0.205   4.133   2.014 -0.5286  1.3316  1.6278
 2495TIP3    H229045   0.109   4.034   2.076  1.1325 -1.2997  0.2130
 2496TIP3   OH229046   5.853   2.087   1.910 -0.0952  0.1926 -0.0854
 2496TIP3    H129047   5.841   2.000   1.949  1.0816  0.5413  1.1462
 2496TIP3    H229048   5.947   2.103   1.917  0.1181  0.4674 -2.7911
 2497TIP3   OH229049   4.874   1.189   7.099 -0.5810 -0.3219  0.1954
 2497TIP3    H129050   4.955   1.239   7.093 -0.3300 -0.6324  0.8851
 2497TIP3    H229051   4.863   1.172   7.193 -0.4140 -1.9311 -0.0404
 2498TIP3   OH229052   0.971   1.562   1.789  0.2700 -0.0618 -0.0682
 2498TIP3    H129053   0.911   1.491   1.813 -1.1652  0.6850 -1.2534
 2498TIP3    H229054   0.948   1.633   1.849 -0.3909  0.3810 -0.8235
 2499TIP3   OH229055   0.097   5.044   8.053 -0.3580  0.1928  0.5656
 2499TIP3    H129056   0.173   4.988   8.043 -0.3726  0.2977 -0.1629
 2499TIP3    H229057   0.027   4.985   8.082 -0.4493 -0.2251 -0.4760
 2500TIP3   OH229058   0.201   2.221   1.003 -0.1061  0.1637  0.7791
 2500TIP3    H129059   0.287   2.181   1.022 -0.3086 -1.0198 -0.6239
 2500TIP3    H229060   0.139   2.150   1.015 -0.6210  0.3605 -0.5857
 2501TIP3   OH229061   5.915   0.875   8.595  0.0233 -0.3934 -0.2016
 2501TIP3    H129062   5.886   0.800   8.542 -1.9880 -0.6034  1.0753
 2501TIP3    H229063   5.842   0.936   8.592  0.8570  0.6541  0.3614
 2502TIP3   OH229064   6.293   1.257   6.881 -0.0579 -0.0847 -0.3620
 2502TIP3    H129065   6.328   1.309   6.809  0.6812  0.3097  0.2686
 2502TIP3    H229066   6.353   1.272   6.954  1.0025 -2.8946 -0.5232
 2503TIP3   OH229067   5.223   4.658   0.272 -0.2464 -0.2893 -0.4918
 2503TIP3    H129068   5.173   4.733   0.240  0.3556  0.0132 -0.7306
 2503TIP3    H229069   5.159   4.604   0.318 -0.6647  0.4143 -0.2477
 2504TIP3   OH229070   3.589   1.056   8.129  0.0373 -0.2172 -0.3691
 2504TIP3    H129071   3.589   1.085   8.038  1.5619  0.5175 -0.1724
 2504TIP3    H229072   3.501   1.073   8.160  0.0530  1.4399 -1.1418
 2505TIP3   OH229073   2.041   1.792   0.483 -0.4369 -0.1621  0.2171
 2505TIP3    H129074   1.987   1.868   0.462 -0.4928  0.5434  2.6235
 2505TIP3    H229075   1.981   1.731   0.527  0.3728  0.0622  1.7115
 2506TIP3   OH229076   3.707   5.018   6.470 -0.2562  1.0479  0.0027
 2506TIP3    H129077   3.615   4.991   6.475 -0.4303  1.4568 -0.6941
 2506TIP3    H229078   3.702   5.110   6.444  0.2837  2.0436  3.0111
 2507TIP3   OH229079   3.326   2.402   0.148 -0.8508 -0.4322 -0.0905
 2507TIP3    H129080   3.355   2.424   0.060 -3.4295 -0.6630 -1.0788
 2507TIP3    H229081   3.357   2.313   0.163  0.3655 -0.0735 -0.3709
 2508TIP3   OH229082   5.333   5.111   8.449  0.8957  0.2026 -0.3295
 2508TIP3    H129083   5.347   5.174   8.520  1.7614  0.8160 -1.0282
 2508TIP3    H229084   5.322   5.027   8.494 -0.7184  0.8920  0.6398
 2509TIP3   OH229085   5.986   3.176   7.183 -0.0967  0.8548 -0.0669
 2509TIP3    H129086   5.916   3.229   7.220  2.0891  1.8182  3.1787
 2509TIP3    H229087   5.966   3.086   7.209  0.7810  1.3772  2.7468
 2510TIP3   OH229088   4.447   0.659   2.234 -0.1749  0.7795  0.3742
 2510TIP3    H129089   4.378   0.725   2.244 -0.6459  0.4855 -0.7640
 2510TIP3    H229090   4.528   0.707   2.249 -0.5880  1.2065  1.3905
 2511TIP3   OH229091   1.669   5.704   8.126 -0.1468  0.5293  0.1404
 2511TIP3    H129092   1.627   5.785   8.156  0.6873  0.7023  0.8764
 2511TIP3    H229093   1.622   5.682   8.045 -0.4280  1.7208 -0.0487
 2512TIP3   OH229094   3.706   4.248   6.195 -0.0035 -0.1117 -0.6777
 2512TIP3    H129095   3.661   4.293   6.123 -2.8554  0.5371  1.3367
 2512TIP3    H229096   3.720   4.159   6.163  1.8873  0.9787 -3.1861
 2513TIP3   OH229097   3.129   1.231   7.753 -0.2631  0.1471 -0.6173
 2513TIP3    H129098   3.137   1.174   7.676 -0.9859  0.7593 -1.1656
 2513TIP3    H229099   3.181   1.308   7.730  2.2379 -0.9844  0.8611
 2514TIP3   OH229100   3.103   6.677   7.740 -0.2277  0.0012  0.0084
 2514TIP3    H129101   3.152   6.717   7.812  0.8398  2.2320 -1.8295
 2514TIP3    H229102   3.015   6.664   7.774  0.6553 -0.5924  2.2141
 2515TIP3   OH229103   2.131   5.892   6.321  0.4765 -0.2363  0.5432
 2515TIP3    H129104   2.075   5.815   6.332  0.2302  0.1416  2.1784
 2515TIP3    H229105   2.077   5.954   6.273  0.2059 -0.5887  0.3831
 2516TIP3   OH229106   1.545   2.718   1.560  0.2496  0.1909 -0.0985
 2516TIP3    H129107   1.519   2.695   1.471  0.3490 -0.9145  0.1549
 2516TIP3    H229108   1.483   2.672   1.616  0.9551 -0.1284  0.4307
 2517TIP3   OH229109   5.496   4.386   1.195 -0.5232 -0.6741  0.0400
 2517TIP3    H129110   5.496   4.293   1.172 -0.8645 -0.5278 -0.5661
 2517TIP3    H229111   5.585   4.403   1.227  0.0837 -0.8196 -1.4978
 2518TIP3   OH229112   4.016   4.597   8.610  0.1876  0.2466 -0.1832
 2518TIP3    H129113   3.960   4.532   8.652  0.8448  1.3154  2.5139
 2518TIP3    H229114   4.100   4.552   8.597  0.1102  0.0370  0.0393
 2519TIP3   OH229115   2.162   2.421   8.425 -0.4281  0.2723 -0.0520
 2519TIP3    H129116   2.154   2.403   8.519  1.1527 -1.5619 -0.2162
 2519TIP3    H229117   2.216   2.500   8.421 -0.8713  0.6223  0.5647
 2520TIP3   OH229118   1.523   5.616   7.922 -0.7953 -0.2145  0.5027
 2520TIP3    H129119   1.445   5.563   7.907  0.5535 -2.1202 -0.2227
 2520TIP3    H229120   1.596   5.557   7.905  0.8739  0.8824  3.1069
 2521TIP3   OH229121   0.595   3.280   0.735  0.5247  0.0066 -0.5154
 2521TIP3    H129122   0.575   3.216   0.667  0.0130 -1.3706  0.8779
 2521TIP3    H229123   0.668   3.241   0.783 -0.0866  0.2479  0.6355
 2522TIP3   OH229124   4.025   6.147   0.408  0.7382  0.3495  0.5233
 2522TIP3    H129125   4.105   6.200   0.411 -0.3581  2.1665 -0.2429
 2522TIP3    H229126   4.010   6.120   0.499  1.3962  1.2986  0.9273
 2523TIP3   OH229127   5.342   0.042   7.392 -0.0296  0.0210  0.3996
 2523TIP3    H129128   5.291   0.071   7.316  1.9077  3.9150  0.3224
 2523TIP3    H229129   5.281   0.049   7.465 -0.6286  1.0579 -0.1646
 2524TIP3   OH229130   0.490   0.438   6.490  0.5984 -0.1268  0.4105
 2524TIP3    H129131   0.433   0.515   6.490  1.5425  0.7805 -3.3788
 2524TIP3    H229132   0.576   0.471   6.464  1.2556 -2.2891 -0.4532
 2525TIP3   OH229133   0.205   5.027   2.513  0.3684  0.1441  0.0918
 2525TIP3    H129134   0.301   5.017   2.512  0.4706  1.0438  0.1079
 2525TIP3    H229135   0.191   5.119   2.536 -0.4822  0.3115 -1.0411
 2526TIP3   OH229136   4.994   4.832   1.745  0.3169  0.4869 -0.1229
 2526TIP3    H129137   5.000   4.838   1.840 -2.1242  1.2193  0.0494
 2526TIP3    H229138   5.068   4.882   1.713 -0.3770  2.6551  1.4259
 2527TIP3   OH229139   0.975   4.656   8.398  0.0786  0.7082  0.0153
 2527TIP3    H129140   0.968   4.714   8.473 -0.3180 -1.3625  1.6753
 2527TIP3    H229141   0.885   4.644   8.368 -0.1502 -0.8304  1.1834
 2528TIP3   OH229142   3.286   2.495   6.922 -0.3847 -0.7016  0.2032
 2528TIP3    H129143   3.264   2.525   6.834  2.0237  0.0447 -0.2351
 2528TIP3    H229144   3.238   2.554   6.980  0.9191  1.3414 -0.6682
 2529TIP3   OH229145   0.431   3.152   1.110  0.3863  0.2171 -0.2337
 2529TIP3    H129146   0.414   3.172   1.202 -1.3780  0.3325 -0.5438
 2529TIP3    H229147   0.481   3.071   1.113  0.5166  0.3190  0.8410
 2530TIP3   OH229148   4.944   1.652   7.341 -0.7165  0.0451 -0.1095
 2530TIP3    H129149   4.928   1.741   7.312  0.5962  0.2735 -0.1927
 2530TIP3    H229150   5.004   1.660   7.415  0.3291 -0.7928 -0.8176
 2531TIP3   OH229151   0.940   6.204   0.471  0.3771 -0.0239 -0.2169
 2531TIP3    H129152   0.871   6.248   0.521  0.4099 -1.1533  0.8853
 2531TIP3    H229153   0.958   6.263   0.397 -0.4617  1.1653  0.4890
 2532TIP3   OH229154   0.326   0.190   2.070  0.3378 -0.2227  0.0107
 2532TIP3    H129155   0.311   0.115   2.127 -1.5382  0.3348  0.3334
 2532TIP3    H229156   0.363   0.153   1.990  1.1590 -1.2472  0.8294
 2533TIP3   OH229157   3.187   0.632   0.351  0.1472  0.0522  0.5331
 2533TIP3    H129158   3.098   0.627   0.385  0.4939 -0.0507  1.4693
 2533TIP3    H229159   3.222   0.544   0.362  0.2033 -0.0383 -0.3095
 2534TIP3   OH229160   2.604   4.761   8.355 -0.0374  0.3399 -0.3899
 2534TIP3    H129161   2.641   4.820   8.289  0.3965  0.5146  0.0002
 2534TIP3    H229162   2.513   4.788   8.364  0.3498  1.4985  0.3623
 2535TIP3   OH229163   2.253   5.700   0.365  0.2858 -0.0535  0.4546
 2535TIP3    H129164   2.198   5.625   0.384 -0.4467  0.0537 -1.0724
 2535TIP3    H229165   2.333   5.663   0.328  0.6294 -0.1357  1.2532
 2536TIP3   OH229166   3.300   0.430   0.958  0.5177 -0.1230  0.0026
 2536TIP3    H129167   3.225   0.430   1.017  0.5642 -0.7189  0.0607
 2536TIP3    H229168   3.323   0.338   0.948  0.4205 -0.0468 -1.0583
 2537TIP3   OH229169   2.829   3.689   0.252  0.8445 -0.0391 -0.4495
 2537TIP3    H129170   2.748   3.639   0.257  1.0323 -0.3059 -0.0602
 2537TIP3    H229171   2.837   3.712   0.159 -0.1633  0.8009 -0.3465
 2538TIP3   OH229172   1.715   3.125   0.177 -0.2709  0.3245 -0.0059
 2538TIP3    H129173   1.733   3.209   0.137  0.9582 -0.0168 -0.2153
 2538TIP3    H229174   1.800   3.093   0.206 -0.5544 -1.2692 -0.7836
 2539TIP3   OH229175   1.771   1.024   0.796 -0.4069 -0.1109 -0.7458
 2539TIP3    H129176   1.683   0.986   0.787  0.0731 -1.1234 -1.2882
 2539TIP3    H229177   1.829   0.948   0.807  0.4030  0.5473 -0.3562
 2540TIP3   OH229178   5.570   3.754   7.643 -0.1371  0.1668 -0.4286
 2540TIP3    H129179   5.661   3.784   7.636 -0.6193  1.9791  0.5810
 2540TIP3    H229180   5.518   3.830   7.620 -1.4224 -0.5690 -0.0193
 2541TIP3   OH229181   0.984   6.526   6.861 -0.2663 -0.1512 -0.0951
 2541TIP3    H129182   0.947   6.596   6.807 -0.4642  0.3507  0.6778
 2541TIP3    H229183   1.033   6.471   6.799  2.2663  2.1903 -0.3808
 2542TIP3   OH229184   4.853   0.745   1.136 -0.5562 -0.0034  0.0942
 2542TIP3    H129185   4.834   0.771   1.046 -2.3973  0.3307  0.5246
 2542TIP3    H229186   4.942   0.709   1.133  0.3490  2.1600 -1.3935
 2543TIP3   OH229187   2.010   2.554   0.388  0.3511 -0.1340  0.3280
 2543TIP3    H129188   1.960   2.623   0.344 -1.9422 -0.8731  1.6244
 2543TIP3    H229189   2.087   2.598   0.422 -0.1206  1.3888 -0.4886
 2544TIP3   OH229190   0.713   1.573   8.697 -0.3577  0.3545 -0.1996
 2544TIP3    H129191   0.627   1.548   8.730 -0.9672  0.3197 -1.7413
 2544TIP3    H229192   0.697   1.599   8.606  1.2539  0.3934 -0.4957
 2545TIP3   OH229193   3.578   5.569   8.835 -0.2013  0.3988  0.0304
 2545TIP3    H129194   3.613   5.592   8.922  1.1366  0.9855 -0.6387
 2545TIP3    H229195   3.637   5.611   8.773 -0.2690 -1.2120 -1.2008
 2546TIP3   OH229196   5.817   3.095   7.459 -0.6649  0.6101  0.1032
 2546TIP3    H129197   5.903   3.070   7.494 -0.5330 -0.0711 -0.6710
 2546TIP3    H229198   5.831   3.182   7.421 -0.3862  0.6253  0.2356
 2547TIP3   OH229199   0.708   6.628   1.217  0.1189  0.4798  0.2588
 2547TIP3    H129200   0.685   6.540   1.186  0.5921  0.4578 -0.0303
 2547TIP3    H229201   0.781   6.655   1.163 -1.5216  2.0401 -1.3277
 2548TIP3   OH229202   4.047   2.949   1.368 -0.2771  0.2863  0.1067
 2548TIP3    H129203   4.029   2.968   1.276 -0.7681 -1.1547 -0.1324
 2548TIP3    H229204   3.982   2.883   1.392 -0.5896  1.1220  1.6958
 2549TIP3   OH229205   5.837   2.307   1.761  0.2791  0.0795 -0.0937
 2549TIP3    H129206   5.815   2.214   1.756  0.1648  0.1490 -0.9843
 2549TIP3    H229207   5.878   2.327   1.677 -0.2177  0.9620 -0.1426
 2550TIP3   OH229208   4.793   6.132   6.654  0.0847  0.1163 -0.0019
 2550TIP3    H129209   4.833   6.148   6.569  0.1217  0.1475  0.0206
 2550TIP3    H229210   4.718   6.192   6.658  2.5209  3.4411  1.7031
 2551TIP3   OH229211   1.236   0.718   0.484  0.0242  0.0813  0.0837
 2551TIP3    H129212   1.263   0.785   0.422 -0.3312  1.4713  1.3799
 2551TIP3    H229213   1.298   0.646   0.471 -0.4587  0.0154 -2.3387
 2552TIP3   OH229214   0.571   2.191   0.304  0.4775  0.3921  0.3347
 2552TIP3    H129215   0.645   2.241   0.269  1.0916 -1.0483 -0.5289
 2552TIP3    H229216   0.495   2.222   0.254  0.8640  0.3988 -0.2530
 2553TIP3   OH229217   6.648   0.173   0.614 -0.3809 -0.0273  0.5696
 2553TIP3    H129218   6.728   0.200   0.660 -1.2595 -0.9049  2.7477
 2553TIP3    H229219   6.601   0.254   0.598  1.0246  0.5520 -1.0764
 2554TIP3   OH229220   2.635   0.394   8.779  0.4081 -0.1246  0.5132
 2554TIP3    H129221   2.630   0.304   8.813 -0.6807 -0.0560  0.5528
 2554TIP3    H229222   2.654   0.382   8.685  0.2881 -0.3947  0.5218
 2555TIP3   OH229223   0.784   2.825   0.031  0.0161  0.4853 -0.2855
 2555TIP3    H129224   0.764   2.826  -0.062 -0.8054 -0.5172 -0.1397
 2555TIP3    H229225   0.701   2.804   0.073  0.6219 -0.2446  0.5846
 2556TIP3   OH229226   3.868   2.732   7.347  0.6717 -0.0172  0.3228
 2556TIP3    H129227   3.864   2.644   7.311 -0.6609 -0.1417  0.7348
 2556TIP3    H229228   3.899   2.719   7.437 -0.1683 -0.1537  0.6046
 2557TIP3   OH229229   4.284   4.822   2.230  0.3115  0.3568 -0.9279
 2557TIP3    H129230   4.357   4.872   2.267 -0.0761  1.6110 -1.7837
 2557TIP3    H229231   4.210   4.882   2.234 -0.1918 -0.1784 -1.9159
 2558TIP3   OH229232   5.138   4.990   2.505  0.0494 -0.0227  0.2731
 2558TIP3    H129233   5.071   4.924   2.522  0.7371 -0.8117 -0.0335
 2558TIP3    H229234   5.154   5.031   2.590 -0.4862 -0.1388  0.4335
 2559TIP3   OH229235   2.271   5.267   1.311  0.6576 -0.1126  0.5432
 2559TIP3    H129236   2.265   5.276   1.406 -1.7585  2.1639  0.2766
 2559TIP3    H229237   2.353   5.311   1.288  1.1762 -0.5261  1.5350
 2560TIP3   OH229238   2.907   4.317   6.720 -0.1987 -0.0057 -0.1097
 2560TIP3    H129239   2.866   4.264   6.789  1.7254  1.8505  2.6282
 2560TIP3    H229240   2.844   4.388   6.705 -0.4246 -0.1614  0.0744
 2561TIP3   OH229241   3.070   5.434   8.012 -0.0687 -0.8169  0.5727
 2561TIP3    H129242   3.014   5.361   8.040  1.0128 -1.4388  1.1741
 2561TIP3    H229243   3.158   5.408   8.039  0.4540  0.3397  0.0266
 2562TIP3   OH229244   3.876   3.786   0.909 -0.2239  0.3015 -0.4996
 2562TIP3    H129245   3.955   3.839   0.919 -0.1980  0.3070 -0.7326
 2562TIP3    H229246   3.904   3.697   0.929 -0.6495  0.5929  1.6819
 2563TIP3   OH229247   3.835   1.835   8.502  0.5839  0.5541 -0.0855
 2563TIP3    H129248   3.850   1.921   8.462  0.1447  1.8228  2.2785
 2563TIP3    H229249   3.919   1.791   8.496  0.6561  0.8536 -1.9047
 2564TIP3   OH229250   6.400   2.819   1.019 -0.1508 -0.8473  0.3278
 2564TIP3    H129251   6.468   2.814   0.953 -1.1480  0.3500 -0.8490
 2564TIP3    H229252   6.405   2.909   1.052 -1.0985 -0.7664  0.2815
 2565TIP3   OH229253   6.224   3.357   0.985  0.1855 -0.7233 -0.3283
 2565TIP3    H129254   6.202   3.445   0.956 -0.6064 -1.4696 -2.1726
 2565TIP3    H229255   6.162   3.338   1.055  0.4675  0.2072  0.1947
 2566TIP3   OH229256   4.576   2.672   1.570 -0.2310  0.3069  0.3172
 2566TIP3    H129257   4.613   2.648   1.485 -1.3614 -1.0869  0.1930
 2566TIP3    H229258   4.640   2.734   1.607  1.0136 -0.1987 -0.8966
 2567TIP3   OH229259   4.900   6.081   1.476 -0.2300 -0.0084  0.2378
 2567TIP3    H129260   4.815   6.047   1.503 -1.0638  0.8738 -1.0880
 2567TIP3    H229261   4.929   6.021   1.407 -1.0299  1.0738 -1.1010
 2568TIP3   OH229262   2.429   3.019   0.154  0.1835 -0.3173  0.0391
 2568TIP3    H129263   2.337   2.994   0.163  0.0074  0.0138 -0.8000
 2568TIP3    H229264   2.434   3.067   0.072  0.9157  0.5778  0.5791
 2569TIP3   OH229265   1.718   3.799   1.744 -0.7788  0.2497  0.2174
 2569TIP3    H129266   1.669   3.870   1.786  0.5982  1.3170  0.0537
 2569TIP3    H229267   1.662   3.722   1.756 -2.1602  1.2858  0.6637
 2570TIP3   OH229268   4.781   4.987   1.648  0.1898 -0.0755  0.0946
 2570TIP3    H129269   4.808   5.042   1.721 -1.5497 -0.9100  1.4296
 2570TIP3    H229270   4.830   4.906   1.660 -0.7999 -0.5763  0.9515
 2571TIP3   OH229271   3.182   4.320   8.611 -0.4395 -0.1272  0.5861
 2571TIP3    H129272   3.108   4.269   8.577 -1.1231  1.2620 -0.1063
 2571TIP3    H229273   3.141   4.396   8.652  0.5815  0.2823  0.8514
 2572TIP3   OH229274   1.398   0.112   0.164  0.2422  0.1420  0.1547
 2572TIP3    H129275   1.360   0.195   0.191 -0.2863  0.4535 -1.4175
 2572TIP3    H229276   1.447   0.081   0.240 -1.1238  0.9509  1.4146
 2573TIP3   OH229277   0.133   0.185   0.475 -0.3017  0.4728  0.6802
 2573TIP3    H129278   0.115   0.107   0.528 -0.5798  0.7733  1.0295
 2573TIP3    H229279   0.199   0.233   0.524  0.5023  0.0348  0.0424
 2574TIP3   OH229280   1.109   4.723   1.108 -0.0355  0.1688 -0.2044
 2574TIP3    H129281   1.153   4.738   1.024  2.7146  0.1245  1.1120
 2574TIP3    H229282   1.147   4.641   1.140  1.1251  1.5519  2.2866
 2575TIP3   OH229283   0.633   3.323   8.409 -0.2862  0.0663 -0.4338
 2575TIP3    H129284   0.570   3.289   8.344 -1.4730 -0.0275  0.7317
 2575TIP3    H229285   0.580   3.341   8.486  1.1150  0.1350  0.5386
 2576TIP3   OH229286   3.219   3.104   7.448 -0.2213 -0.0928  0.8613
 2576TIP3    H129287   3.178   3.142   7.370 -0.6028 -1.1381  0.5387
 2576TIP3    H229288   3.160   3.129   7.520 -1.5004 -1.6116  0.3965
 2577TIP3   OH229289   5.213   4.142   6.127 -0.4076  0.2548  0.1597
 2577TIP3    H129290   5.129   4.095   6.124 -0.1468 -0.2017 -0.2221
 2577TIP3    H229291   5.200   4.218   6.070 -0.3964 -0.0991 -0.3212
 2578TIP3   OH229292   1.810   5.031   2.208 -0.2143 -0.3144  0.1088
 2578TIP3    H129293   1.810   5.090   2.132  0.8738 -0.4617 -0.0218
 2578TIP3    H229294   1.822   5.088   2.283 -0.0845 -0.2777  0.0609
 2579TIP3   OH229295   5.651   5.436   1.558  0.6585 -0.2771 -0.2840
 2579TIP3    H129296   5.655   5.528   1.535  1.7312 -0.6809 -1.8031
 2579TIP3    H229297   5.569   5.405   1.519  0.0500  0.1220  0.6486
 2580TIP3   OH229298   3.274   1.079   8.631 -0.5544 -0.1037  0.0329
 2580TIP3    H129299   3.215   1.035   8.570  1.1964 -0.6238 -1.4004
 2580TIP3    H229300   3.276   1.023   8.708 -1.9188 -0.0512  0.1316
 2581TIP3   OH229301   3.280   5.125   7.603 -0.0432 -0.1539 -0.0213
 2581TIP3    H129302   3.355   5.185   7.600 -0.1960  0.0430  0.0877
 2581TIP3    H229303   3.204   5.179   7.582 -0.0818 -0.4865 -0.7792
 2582TIP3   OH229304   0.557   6.714   8.355 -0.0627 -0.3769 -0.1986
 2582TIP3    H129305   0.547   6.698   8.261  0.8496 -0.6809 -0.2514
 2582TIP3    H229306   0.652   6.724   8.368 -0.1123 -1.0858  0.8048
 2583TIP3   OH229307   0.012   2.213   7.922 -0.1979 -0.6245  0.1798
 2583TIP3    H129308  -0.041   2.144   7.963  0.2325 -0.4513  1.0585
 2583TIP3    H229309   0.073   2.166   7.865  1.6241 -1.2181  2.4697
 2584TIP3   OH229310   6.401   5.407   2.025  0.0925  0.1638 -1.2563
 2584TIP3    H129311   6.473   5.467   2.046  0.6983 -1.0518  0.2739
 2584TIP3    H229312   6.445   5.329   1.991 -0.6001 -0.0188 -1.7350
 2585TIP3   OH229313   4.206   0.184   8.695 -0.4141 -0.6646  0.5607
 2585TIP3    H129314   4.177   0.269   8.663 -0.6872 -0.7555  0.5628
 2585TIP3    H229315   4.155   0.120   8.644 -1.8345 -0.7957  2.0448
 2586TIP3   OH229316   4.076   4.473   7.842  0.2959  0.5363  0.1847
 2586TIP3    H129317   3.984   4.499   7.840 -0.2851 -1.3470  0.0792
 2586TIP3    H229318   4.079   4.403   7.907  1.6142  0.4300  0.0322
 2587TIP3   OH229319   0.345   0.501   0.515 -0.4233 -0.0965  0.0673
 2587TIP3    H129320   0.353   0.477   0.423  0.6719 -0.1746  0.1724
 2587TIP3    H229321   0.370   0.422   0.562 -0.4711  0.1035  0.4293
 2588TIP3   OH229322   4.319   4.603   7.847 -0.1921 -0.0903 -0.3456
 2588TIP3    H129323   4.233   4.603   7.890  0.3371  0.6769  0.7753
 2588TIP3    H229324   4.362   4.524   7.880  0.0602  0.2835  0.2407
 2589TIP3   OH229325   3.293   5.749   0.966  0.4403  0.5821  0.0259
 2589TIP3    H129326   3.362   5.814   0.977  0.6985  0.4140 -0.5615
 2589TIP3    H229327   3.213   5.800   0.956  0.7807  0.8594 -1.5019
 2590TIP3   OH229328   4.061   1.706   2.047  0.1683 -0.0232  0.1742
 2590TIP3    H129329   4.041   1.615   2.028  0.0876 -0.1310  0.7481
 2590TIP3    H229330   4.061   1.711   2.143 -0.0132  0.6184  0.1461
 2591TIP3   OH229331   3.918   6.410   1.732  0.5610 -0.3185  0.1679
 2591TIP3    H129332   3.991   6.453   1.688 -0.9446  0.6490 -1.5176
 2591TIP3    H229333   3.877   6.478   1.784 -0.6091 -0.1592 -0.8994
 2592TIP3   OH229334   5.381   2.092   7.840  0.1751  0.5527 -0.2277
 2592TIP3    H129335   5.390   2.041   7.760  0.0403  1.7289 -1.0089
 2592TIP3    H229336   5.458   2.149   7.842  0.6847 -0.1465  0.9941
 2593TIP3   OH229337   1.934   2.896   0.668  0.4896 -0.3806  0.8916
 2593TIP3    H129338   2.030   2.895   0.665  0.5175 -0.4546  1.5655
 2593TIP3    H229339   1.913   2.866   0.757 -0.1836 -1.2216  0.4621
 2594TIP3   OH229340   4.093   2.319   0.697  0.0933  0.2997  0.0123
 2594TIP3    H129341   4.046   2.273   0.628 -0.2669  1.0578 -0.2591
 2594TIP3    H229342   4.143   2.251   0.742 -0.4679 -0.3582 -0.3433
 2595TIP3   OH229343   4.296   6.019   1.622  0.0455 -0.4111  0.0706
 2595TIP3    H129344   4.261   5.932   1.608 -0.3861 -0.2950  0.4304
 2595TIP3    H229345   4.225   6.079   1.599 -1.0966 -0.2041  3.5672
 2596TIP3   OH229346   1.645   2.962   6.916 -0.5039 -0.2125 -0.1220
 2596TIP3    H129347   1.566   2.908   6.916 -1.3193  0.9352  0.3830
 2596TIP3    H229348   1.707   2.915   6.860 -0.9342 -1.9878  0.8172
 2597TIP3   OH229349   6.454   1.427   6.720 -0.7710 -0.7370 -0.1130
 2597TIP3    H129350   6.493   1.443   6.634  0.3232 -0.4708  0.4279
 2597TIP3    H229351   6.522   1.450   6.783 -1.9022  0.0467  0.8698
 2598TIP3   OH229352   6.051   2.892   7.178 -0.5970  0.7376 -1.0787
 2598TIP3    H129353   6.117   2.831   7.146 -0.0493  0.2782  0.7653
 2598TIP3    H229354   5.987   2.900   7.107  0.7897  0.2269 -2.4175
 2599TIP3   OH229355   3.523   1.656   1.114  0.3992 -1.1282 -0.2525
 2599TIP3    H129356   3.486   1.618   1.193 -1.5750  0.5787 -0.2700
 2599TIP3    H229357   3.479   1.611   1.042 -1.1109  0.2804 -0.2782
 2600TIP3   OH229358   5.996   0.036   6.787 -0.7080 -0.5008 -0.4177
 2600TIP3    H129359   5.927   0.066   6.727 -0.9272 -0.1058  0.0189
 2600TIP3    H229360   6.016  -0.053   6.758  1.4653  0.7104 -3.1273
 2601TIP3   OH229361   5.737   3.468   0.101 -0.2235  0.2557 -0.0552
 2601TIP3    H129362   5.712   3.527   0.030  0.0594  1.5318  0.8706
 2601TIP3    H229363   5.790   3.522   0.160 -2.0947 -0.1542  2.1691
 2602TIP3   OH229364   1.602   5.049   1.763 -0.0974 -0.4081 -0.1116
 2602TIP3    H129365   1.523   5.078   1.809 -0.1187 -1.4714  0.5670
 2602TIP3    H229366   1.623   4.964   1.803  1.8270  0.1933  0.2511
 2603TIP3   OH229367   0.835   2.268   6.959  0.3457 -0.2610  0.0126
 2603TIP3    H129368   0.795   2.194   6.913 -1.7475  0.4898  0.5130
 2603TIP3    H229369   0.928   2.246   6.964 -0.0541 -2.3498 -0.7773
 2604TIP3   OH229370   5.016   5.539   7.020 -0.2524  0.1088 -0.0117
 2604TIP3    H129371   4.942   5.539   7.080  0.1337 -0.1914  0.4816
 2604TIP3    H229372   5.024   5.629   6.990 -0.7291  0.1671  0.0424
 2605TIP3   OH229373   2.473   3.284   7.984  0.0573 -0.6082  0.0042
 2605TIP3    H129374   2.559   3.265   7.947  0.7699  2.3005 -0.0896
 2605TIP3    H229375   2.430   3.338   7.917 -0.6122  0.5141  1.3022
 2606TIP3   OH229376   6.463   3.219   0.893 -0.2244  0.2851 -0.2757
 2606TIP3    H129377   6.405   3.278   0.942 -0.8658 -1.0777  0.6621
 2606TIP3    H229378   6.501   3.162   0.960  2.8944  1.6121 -0.7291
 2607TIP3   OH229379   4.288   2.704   0.222 -0.3054 -0.0564  0.5219
 2607TIP3    H129380   4.315   2.769   0.157  0.6852 -0.3183  0.6510
 2607TIP3    H229381   4.370   2.674   0.261 -0.7889 -1.0158  0.8307
 2608TIP3   OH229382   0.043   4.400   1.578 -0.0036 -0.3296 -0.1238
 2608TIP3    H129383   0.060   4.310   1.605  0.2650  0.1534  1.4101
 2608TIP3    H229384   0.127   4.432   1.546  0.0855 -0.3867  0.0534
 2609TIP3   OH229385   4.377   4.654   0.280  0.1952  0.0133 -0.8398
 2609TIP3    H129386   4.445   4.601   0.322 -1.1734 -0.7264  0.5552
 2609TIP3    H229387   4.403   4.658   0.188  1.3709 -1.4328 -0.6091
 2610TIP3   OH229388   5.341   3.360   0.505 -0.0826 -0.1759 -0.3320
 2610TIP3    H129389   5.424   3.405   0.515  0.5732 -1.2795 -0.6068
 2610TIP3    H229390   5.322   3.366   0.411  0.2376 -0.8450 -0.4448
 2611TIP3   OH229391   3.094   1.633   0.778  0.9216  0.3360 -0.2140
 2611TIP3    H129392   3.074   1.715   0.733  0.4302 -0.4067 -1.3983
 2611TIP3    H229393   3.141   1.580   0.714 -0.5329 -1.0758 -0.2007
 2612TIP3   OH229394   1.390   2.333   8.797 -0.1642 -0.8573  0.2259
 2612TIP3    H129395   1.383   2.427   8.813 -2.2737 -1.0287  0.5642
 2612TIP3    H229396   1.453   2.303   8.862 -0.4945  0.1292  1.0283
 2613TIP3   OH229397   1.775   5.255   8.011 -0.3811  0.1986  0.1707
 2613TIP3    H129398   1.721   5.185   8.047  1.0028 -1.2300 -0.4034
 2613TIP3    H229399   1.827   5.285   8.086 -1.1587  0.8151  0.4754
 2614TIP3   OH229400   1.111   6.005   0.535  0.3225  0.4841  0.2920
 2614TIP3    H129401   1.136   6.030   0.624  0.1152 -2.6860  1.3792
 2614TIP3    H229402   1.044   6.068   0.510  2.6036  3.4114  1.0229
 2615TIP3   OH229403   5.911   2.475   0.944  0.3225 -0.1391 -0.3760
 2615TIP3    H129404   5.925   2.562   0.982  0.3304  0.6358 -2.0255
 2615TIP3    H229405   5.998   2.437   0.938  0.9814  1.4589 -3.3448
 2616TIP3   OH229406   1.524   1.822   1.164 -0.3407 -0.3216 -0.1351
 2616TIP3    H129407   1.438   1.830   1.207 -0.3761 -1.3248  0.0011
 2616TIP3    H229408   1.587   1.829   1.236 -0.3821 -1.4520  0.0283
 2617TIP3   OH229409   0.342   1.443   0.128 -0.4361  0.1188  0.1858
 2617TIP3    H129410   0.422   1.452   0.180  0.7607  2.2619 -1.8474
 2617TIP3    H229411   0.285   1.514   0.159 -0.8139 -0.2677  0.3844
 2618TIP3   OH229412   0.840   4.658   7.619  0.0899 -0.2685 -0.7281
 2618TIP3    H129413   0.804   4.579   7.579  0.1773 -0.6731 -0.0212
 2618TIP3    H229414   0.798   4.730   7.572  1.0941 -0.7096 -2.3715
 2619TIP3   OH229415   5.853   2.766   7.746  0.6301  0.5691  0.0943
 2619TIP3    H129416   5.775   2.734   7.792  1.4481  0.7109  1.6459
 2619TIP3    H229417   5.864   2.705   7.673 -1.8744  1.5017 -1.2137
 2620TIP3   OH229418   4.799   5.863   1.688 -0.4381  0.2512  0.5129
 2620TIP3    H129419   4.740   5.820   1.749  1.3959 -1.4889  1.1869
 2620TIP3    H229420   4.838   5.935   1.738 -1.0004  0.5961  0.4651
 2621TIP3   OH229421   4.341   3.138   0.841 -0.3957 -0.0655  0.2767
 2621TIP3    H129422   4.417   3.107   0.792 -1.8215  0.9453 -2.8449
 2621TIP3    H229423   4.363   3.228   0.866  0.1607 -0.4390  1.2060
 2622TIP3   OH229424   2.328   0.652   1.048  0.3110  0.1680 -0.5449
 2622TIP3    H129425   2.317   0.725   0.987  0.6468  0.1058 -0.6860
 2622TIP3    H229426   2.314   0.574   0.994  0.2273  0.1240 -0.4579
 2623TIP3   OH229427   0.575   3.991   1.012  0.1318 -0.0761  0.5375
 2623TIP3    H129428   0.651   3.942   1.045 -0.8674 -1.7732  0.4765
 2623TIP3    H229429   0.516   3.997   1.087 -0.9196 -1.4238 -0.1351
 2624TIP3   OH229430   1.887   5.633   0.250 -0.2223 -0.6169 -0.8656
 2624TIP3    H129431   1.904   5.653   0.342 -2.2760  0.9446 -0.7560
 2624TIP3    H229432   1.799   5.594   0.250 -1.2065  1.4174 -2.3261
 2625TIP3   OH229433   2.976   6.362   2.343  0.3919  0.1918  0.9764
 2625TIP3    H129434   2.926   6.374   2.424 -0.2932 -0.9627  0.7370
 2625TIP3    H229435   2.916   6.391   2.274  0.0423 -1.1417  0.6925
 2626TIP3   OH229436   6.054   4.259   7.800 -0.2569  0.7196  0.1517
 2626TIP3    H129437   6.011   4.191   7.851  0.0795 -1.7491 -2.6295
 2626TIP3    H229438   5.985   4.297   7.746 -0.3321  2.3161  1.2770
 2627TIP3   OH229439   3.506   0.732   6.699  0.3509 -0.0397  0.7314
 2627TIP3    H129440   3.431   0.742   6.757  0.7948  1.5776  1.0873
 2627TIP3    H229441   3.468   0.728   6.612 -0.1543  2.4268  0.7473
 2628TIP3   OH229442   1.584   2.475   0.912  0.3701 -0.0383  0.0537
 2628TIP3    H129443   1.617   2.565   0.903  0.0551  0.1945  1.0466
 2628TIP3    H229444   1.620   2.429   0.837  1.4485  0.6516  0.1120
 2629TIP3   OH229445   4.882   4.428   7.103  0.4963 -0.1195  0.0063
 2629TIP3    H129446   4.971   4.463   7.111  0.3013  0.2591  0.6037
 2629TIP3    H229447   4.851   4.424   7.193  0.1114 -0.7921 -0.1521
 2630TIP3   OH229448   5.681   6.367   6.319 -0.3265 -0.2702 -0.6363
 2630TIP3    H129449   5.651   6.344   6.231 -1.0914 -4.0199  0.4290
 2630TIP3    H229450   5.769   6.329   6.325 -0.7520 -1.1242  0.5673
 2631TIP3   OH229451   0.999   3.254   0.662  0.1082 -0.2927 -0.8439
 2631TIP3    H129452   0.906   3.254   0.684  0.0944 -0.1066 -0.8941
 2631TIP3    H229453   1.040   3.302   0.734  0.1453 -0.2400 -0.9002
 2632TIP3   OH229454   4.330   4.347   1.302 -0.3302  0.0532  0.2311
 2632TIP3    H129455   4.256   4.407   1.306 -1.2091 -0.9288 -0.5519
 2632TIP3    H229456   4.395   4.392   1.248 -1.0296  0.2461 -0.4664
 2633TIP3   OH229457   1.779   5.274   2.023  0.3596 -0.5372  0.5596
 2633TIP3    H129458   1.787   5.268   1.928 -1.4159  0.7118  0.2920
 2633TIP3    H229459   1.860   5.316   2.052 -0.0619  1.2063 -0.6755
 2634TIP3   OH229460   3.499   1.223   7.540  0.0426  0.0232  0.3884
 2634TIP3    H129461   3.556   1.190   7.471 -0.9747 -0.1065 -0.4184
 2634TIP3    H229462   3.539   1.305   7.568  0.5998 -0.0448 -0.1860
 2635TIP3   OH229463   5.435   5.288   1.479 -0.5086  0.4398  0.7719
 2635TIP3    H129464   5.505   5.244   1.526  2.9478  4.9533  0.5639
 2635TIP3    H229465   5.407   5.226   1.412  3.8056 -1.4880  0.4673
 2636TIP3   OH229466   6.755   3.181   6.832  0.2991 -0.0029 -0.2497
 2636TIP3    H129467   6.763   3.176   6.737 -0.4933 -1.6692 -0.2638
 2636TIP3    H229468   6.661   3.179   6.849  0.4158 -2.6728  0.6201
 2637TIP3   OH229469   4.221   1.530   1.535  0.0511  0.3281 -0.5610
 2637TIP3    H129470   4.130   1.500   1.525  0.1622  0.3780 -1.8720
 2637TIP3    H229471   4.218   1.592   1.607 -0.7970 -0.3145 -0.0196
 2638TIP3   OH229472   2.588   1.780   0.470  0.2775  0.1949  0.2580
 2638TIP3    H129473   2.672   1.800   0.429 -1.0320 -0.4160 -3.1148
 2638TIP3    H229474   2.560   1.862   0.509  1.0098  1.3208 -1.4543
 2639TIP3   OH229475   4.836   2.188   0.898  0.0493 -0.2907  0.0303
 2639TIP3    H129476   4.799   2.100   0.897  0.0704 -0.3117  1.0335
 2639TIP3    H229477   4.839   2.213   0.990  1.5814  0.1184 -0.0985
 2640TIP3   OH229478   4.362   2.817   1.679 -0.0089 -0.0423  0.0687
 2640TIP3    H129479   4.412   2.896   1.700 -1.2510  0.6293  0.6497
 2640TIP3    H229480   4.427   2.755   1.646  1.1389  0.8996  0.4817
 2641TIP3   OH229481   2.541   2.970   8.042 -0.0197  0.3268 -0.0324
 2641TIP3    H129482   2.549   3.065   8.051 -2.9308  0.7072 -0.5084
 2641TIP3    H229483   2.506   2.941   8.126 -0.1519 -0.1629 -0.2510
 2642TIP3   OH229484   2.149   5.631   7.488 -0.2998  0.1265  0.0146
 2642TIP3    H129485   2.078   5.660   7.431 -0.1622  1.5317  0.5033
 2642TIP3    H229486   2.228   5.643   7.436 -0.4461 -2.3125 -0.8610
 2643TIP3   OH229487   4.500   2.861   0.797  0.1700  0.3577 -0.2592
 2643TIP3    H129488   4.538   2.907   0.872  2.6590  1.2338 -1.9307
 2643TIP3    H229489   4.428   2.810   0.834  0.5567  1.6484  2.5059
 2644TIP3   OH229490   1.434   5.109   0.541  0.4548 -0.2167  0.3902
 2644TIP3    H129491   1.475   5.157   0.469 -1.2151  1.2671  0.3728
 2644TIP3    H229492   1.377   5.174   0.584 -1.1484 -1.9396  0.9829
 2645TIP3   OH229493   6.395   6.673   7.186 -0.2728 -0.3598  0.3020
 2645TIP3    H129494   6.357   6.734   7.250 -0.5216  0.7226 -0.8495
 2645TIP3    H229495   6.385   6.717   7.102  2.3752 -0.6065 -0.2110
 2646TIP3   OH229496   1.698   5.538   7.053  0.0504 -0.0013  0.2036
 2646TIP3    H129497   1.669   5.507   6.967 -0.8614  0.1891  0.4270
 2646TIP3    H229498   1.774   5.592   7.035  0.7330 -1.1075 -0.3406
 2647TIP3   OH229499   6.137   6.771   1.701  0.1198  0.5680 -1.0623
 2647TIP3    H129500   6.066   6.803   1.644 -0.9766  1.3476  0.6477
 2647TIP3    H229501   6.095   6.707   1.757  0.0964  2.7231  1.5743
 2648TIP3   OH229502   0.798   0.897   0.227  0.1401 -0.6040 -0.4299
 2648TIP3    H129503   0.845   0.857   0.300  0.5492 -1.3132 -1.0692
 2648TIP3    H229504   0.728   0.947   0.269  0.5598 -0.7353  0.4632
 2649TIP3   OH229505   3.598   2.215   6.568  0.2598 -0.4159  0.3202
 2649TIP3    H129506   3.653   2.278   6.521 -1.7913  0.7022 -0.7530
 2649TIP3    H229507   3.536   2.269   6.617 -0.3896 -1.6024  0.8541
 2650TIP3   OH229508   5.908   0.614   0.090 -0.5639 -0.2315 -0.3258
 2650TIP3    H129509   5.992   0.606   0.135 -1.8386 -0.2066  2.2377
 2650TIP3    H229510   5.858   0.539   0.121 -2.4979  1.3618  0.5736
 2651TIP3   OH229511   5.670   3.539   7.467 -0.4249  0.2593 -0.6667
 2651TIP3    H129512   5.739   3.596   7.501 -0.2802  0.6215 -1.5430
 2651TIP3    H229513   5.656   3.474   7.536 -0.3965  1.1898  0.2269
 2652TIP3   OH229514   1.273   4.108   6.661  0.1322 -0.0864 -0.0955
 2652TIP3    H129515   1.329   4.185   6.653 -1.1717  0.8250 -1.1262
 2652TIP3    H229516   1.324   4.036   6.625  0.5707  0.7614 -1.2153
 2653TIP3   OH229517   3.870   6.359   1.485  0.0687  0.7398 -0.0359
 2653TIP3    H129518   3.875   6.351   1.580  0.5418  0.3274 -0.0876
 2653TIP3    H229519   3.832   6.445   1.469 -1.4037  0.2243  0.5380
 2654TIP3   OH229520   5.472   6.258   1.420  0.5111  0.3196  0.2688
 2654TIP3    H129521   5.443   6.285   1.333 -0.0498  0.4095  0.4803
 2654TIP3    H229522   5.392   6.258   1.473  0.7533 -0.3003  0.6399
 2655TIP3   OH229523   4.831   3.763   1.827  0.4389 -0.5119  0.1049
 2655TIP3    H129524   4.848   3.677   1.788  0.4537 -0.3374 -0.2852
 2655TIP3    H229525   4.816   3.746   1.920 -0.5859 -1.0620 -0.1460
 2656TIP3   OH229526   3.215   3.408   1.999 -0.4360 -0.2293 -0.3123
 2656TIP3    H129527   3.271   3.412   1.922 -0.8562 -0.9038 -0.6627
 2656TIP3    H229528   3.158   3.333   1.983  1.3830 -2.2301  1.9643
 2657TIP3   OH229529   6.344   3.094   7.940  0.3282 -0.5594 -0.6102
 2657TIP3    H129530   6.296   3.012   7.925  1.4234 -0.9943 -2.1146
 2657TIP3    H229531   6.436   3.069   7.929  0.7782  0.6197  0.2855
 2658TIP3   OH229532   2.923   4.707   6.362  0.2099  0.2141  0.6997
 2658TIP3    H129533   2.903   4.763   6.436 -3.6304  0.5889 -0.4083
 2658TIP3    H229534   2.985   4.759   6.309 -2.1508  2.9717  0.3839
 2659TIP3   OH229535   5.380   2.010   0.140 -0.1490 -0.1738  0.8051
 2659TIP3    H129536   5.438   1.945   0.178  2.3253  1.2991 -0.2408
 2659TIP3    H229537   5.426   2.093   0.150 -1.7882  1.0017 -0.6822
 2660TIP3   OH229538   4.320   1.384   1.297  0.4637 -0.4986 -0.7175
 2660TIP3    H129539   4.229   1.390   1.266  0.6293  0.8257 -1.0137
 2660TIP3    H229540   4.321   1.436   1.378  0.7744 -1.2152 -0.2535
 2661TIP3   OH229541   0.034   6.156   8.835 -0.1221 -0.3537  0.0703
 2661TIP3    H129542  -0.036   6.147   8.771  0.7456  1.1989 -1.1723
 2661TIP3    H229543   0.042   6.250   8.849 -0.1277 -0.6400  2.3325
 2662TIP3   OH229544   5.868   1.972   1.173 -0.1735  0.3215 -0.1631
 2662TIP3    H129545   5.943   1.916   1.152 -0.2481 -0.6667  1.9424
 2662TIP3    H229546   5.863   1.970   1.268 -3.1523 -0.0061 -0.2281
 2663TIP3   OH229547   0.081   3.921   2.213  0.1209  0.4116 -0.7141
 2663TIP3    H129548   0.143   3.892   2.281 -0.9471  0.7471  0.4406
 2663TIP3    H229549   0.041   3.840   2.182  2.3173 -0.0043 -2.7318
 2664TIP3   OH229550   3.617   6.707   0.908 -0.4476 -0.1231  0.0794
 2664TIP3    H129551   3.674   6.633   0.926 -1.0584 -0.4676  0.6215
 2664TIP3    H229552   3.564   6.680   0.833 -0.4011 -0.0831  0.0317
 2665TIP3   OH229553   4.046   6.763   8.580  0.2813 -0.1121  0.0820
 2665TIP3    H129554   4.112   6.693   8.580 -0.0073 -0.3872  0.2286
 2665TIP3    H229555   3.980   6.735   8.644 -1.5779 -1.4009 -2.2217
 2666TIP3   OH229556   6.708   4.350   0.946  0.0636 -0.1301  0.4776
 2666TIP3    H129557   6.744   4.355   0.858  1.6043  0.5452  1.1057
 2666TIP3    H229558   6.623   4.306   0.935  0.7668 -1.1750 -1.1577
 2667TIP3   OH229559   1.543   2.589   1.198  0.4485  0.2480 -0.4087
 2667TIP3    H129560   1.474   2.622   1.256  0.4488  0.3198 -0.4500
 2667TIP3    H229561   1.514   2.612   1.110  1.1079  1.3586 -0.3528
 2668TIP3   OH229562   6.698   1.810   7.369  0.2089 -0.0520 -0.1667
 2668TIP3    H129563   6.640   1.748   7.414 -3.3397  2.3323 -1.0607
 2668TIP3    H229564   6.754   1.844   7.439 -0.0017 -1.8577  0.9473
 2669TIP3   OH229565   1.605   4.721   0.364  0.5865  0.3436 -0.0747
 2669TIP3    H129566   1.612   4.809   0.328 -0.7233  1.0324  1.2302
 2669TIP3    H229567   1.527   4.684   0.323  0.9451 -0.0892 -0.3710
 2670TIP3   OH229568   4.027   1.877   0.710  0.0771  0.0192  0.3959
 2670TIP3    H129569   4.035   1.806   0.645  0.3578 -0.8525  1.3606
 2670TIP3    H229570   3.936   1.872   0.738  0.2831 -0.4477  0.9972
 2671TIP3   OH229571   4.342   0.725   6.933 -0.3832 -0.0360 -0.2612
 2671TIP3    H129572   4.280   0.791   6.900 -1.0067 -0.1385  0.6668
 2671TIP3    H229573   4.312   0.643   6.894  0.2989  0.1766 -1.2902
 2672TIP3   OH229574   3.100   0.282   7.127  0.2172 -0.4236  0.2137
 2672TIP3    H129575   3.105   0.206   7.185  0.8116 -0.6627 -0.1409
 2672TIP3    H229576   3.151   0.256   7.050 -2.5364 -1.1054 -1.5301
 2673TIP3   OH229577   5.955   4.872   1.709  0.6034 -0.3296  0.6455
 2673TIP3    H129578   6.020   4.934   1.678  0.0151 -0.2725 -0.5212
 2673TIP3    H229579   5.957   4.882   1.804 -0.3236  2.3649  0.4741
 2674TIP3   OH229580   4.790   5.443   7.979  0.4078 -0.3735  0.0353
 2674TIP3    H129581   4.742   5.480   8.053  2.9221  0.0628  1.5672
 2674TIP3    H229582   4.875   5.420   8.015  1.2027 -1.5823 -2.4125
 2675TIP3   OH229583   5.886   4.668   1.494  0.5667 -0.3741 -0.1492
 2675TIP3    H129584   5.835   4.599   1.537 -4.0771  1.5421 -1.8727
 2675TIP3    H229585   5.893   4.737   1.561  1.4830 -0.8548  0.2664
 2676TIP3   OH229586   2.602   2.704   1.819  0.0640 -0.1141  0.1679
 2676TIP3    H129587   2.530   2.652   1.854 -0.3644  1.1143  1.1824
 2676TIP3    H229588   2.559   2.778   1.774  0.6675  0.8927  1.2019
 2677TIP3   OH229589   1.723   4.123   0.551  0.5248 -0.1741  0.3552
 2677TIP3    H129590   1.664   4.123   0.476  0.3523  0.7855  0.4784
 2677TIP3    H229591   1.688   4.191   0.609  0.5159 -1.0608  1.4140
 2678TIP3   OH229592   2.025   1.924   6.471  0.3287 -0.6415  0.1980
 2678TIP3    H129593   2.120   1.912   6.463  0.5153  0.2688  0.9108
 2678TIP3    H229594   2.011   2.017   6.454 -0.5606 -0.9430 -0.8466
 2679TIP3   OH229595   1.569   1.640   7.903  0.5615 -0.3067  0.1812
 2679TIP3    H129596   1.547   1.549   7.922 -1.0971 -0.5317 -2.2910
 2679TIP3    H229597   1.524   1.691   7.970 -0.6444 -1.2036  0.0732
 2680TIP3   OH229598   2.999   1.923   8.425  0.0665  0.3096 -0.5965
 2680TIP3    H129599   2.961   2.007   8.398  0.1353  0.6574  0.3797
 2680TIP3    H229600   3.049   1.943   8.504  0.6389 -0.5293 -0.7368
 2681TIP3   OH229601   3.749   3.780   1.184 -0.6911  0.3059 -0.1872
 2681TIP3    H129602   3.806   3.787   1.108  1.2417 -2.0664  0.8957
 2681TIP3    H229603   3.741   3.869   1.216  0.9584  0.9610 -1.4452
 2682TIP3   OH229604   3.646   6.223   0.916 -0.6590  0.1143  0.1080
 2682TIP3    H129605   3.656   6.129   0.905 -2.1737 -0.1022  0.4259
 2682TIP3    H229606   3.736   6.257   0.913 -0.0238 -1.4130  0.8537
 2683TIP3   OH229607   5.257   2.831   6.548  0.6729 -0.3090  0.0207
 2683TIP3    H129608   5.200   2.875   6.484 -1.1699 -1.5815  0.6980
 2683TIP3    H229609   5.333   2.802   6.497  1.1326  2.0927 -0.7610
 2684TIP3   OH229610   5.371   5.806   1.462  0.2012  0.3499 -0.6057
 2684TIP3    H129611   5.451   5.785   1.413  2.1311  2.8370  1.2452
 2684TIP3    H229612   5.398   5.805   1.553 -2.5791 -1.2246  0.3225
 2685TIP3   OH229613   4.663   5.591   8.473  0.6071  0.6458  0.5292
 2685TIP3    H129614   4.693   5.547   8.552 -4.0010 -0.7641  1.8187
 2685TIP3    H229615   4.636   5.678   8.502 -0.4100  0.3821  0.4230
 2686TIP3   OH229616   1.972   0.376   1.838 -0.2807  0.1246  0.1650
 2686TIP3    H129617   2.043   0.313   1.827  0.1496  0.5981  0.1835
 2686TIP3    H229618   1.953   0.406   1.749  1.8701  2.5014  0.3639
 2687TIP3   OH229619   0.578   0.654   8.602  0.1582 -0.7230  0.0193
 2687TIP3    H129620   0.626   0.601   8.539  0.3412 -0.8735  0.2828
 2687TIP3    H229621   0.494   0.609   8.611 -0.4420  0.0931 -1.1993
 2688TIP3   OH229622   0.311   1.694   7.333 -0.0338 -0.8782  0.1218
 2688TIP3    H129623   0.357   1.615   7.304  1.9207 -0.3975  1.7224
 2688TIP3    H229624   0.381   1.756   7.355 -1.4341  0.0549  2.2512
 2689TIP3   OH229625   5.152   5.102   0.862 -0.1481  0.5219  0.1601
 2689TIP3    H129626   5.098   5.130   0.936 -3.6947  0.6096 -2.2076
 2689TIP3    H229627   5.178   5.183   0.818 -0.7317  0.4231 -0.3853
 2690TIP3   OH229628   1.822   1.091   8.510 -0.5132 -0.4468  0.3967
 2690TIP3    H129629   1.838   1.043   8.591 -0.0616 -0.6731  0.1747
 2690TIP3    H229630   1.894   1.154   8.504 -1.6790  1.0533  1.2510
 2691TIP3   OH229631   6.517   2.609   1.647  0.2766 -0.1290  0.2611
 2691TIP3    H129632   6.434   2.617   1.694  0.0657 -0.9661  0.0549
 2691TIP3    H229633   6.582   2.597   1.716  0.0922 -0.4407  0.3818
 2692TIP3   OH229634   5.808   6.547   0.791  0.7799 -0.2160  0.3315
 2692TIP3    H129635   5.771   6.463   0.767  2.6240 -1.1503  0.5578
 2692TIP3    H229636   5.891   6.552   0.743  0.2235  1.9963 -0.5613
 2693TIP3   OH229637   0.087   5.205   1.023  0.6135 -0.1433 -0.2940
 2693TIP3    H129638   0.182   5.210   1.030  0.9058 -3.1830 -0.8466
 2693TIP3    H229639   0.057   5.193   1.113  0.8096 -0.1071 -0.2229
 2694TIP3   OH229640   6.779   4.911   2.592 -0.2498 -0.1191 -0.1657
 2694TIP3    H129641   6.771   4.833   2.537 -0.5431 -0.2619  0.0737
 2694TIP3    H229642   6.858   4.955   2.560  0.5801 -1.1139  0.4413
 2695TIP3   OH229643   2.455   5.534   0.542  0.5925 -0.1176 -0.4195
 2695TIP3    H129644   2.460   5.500   0.452  0.4931 -0.7189 -0.2046
 2695TIP3    H229645   2.538   5.509   0.582  0.2719 -0.6603 -0.0763
 2696TIP3   OH229646   0.444   0.291   8.407  0.0299  0.1233  0.0915
 2696TIP3    H129647   0.468   0.273   8.498 -0.1635  0.0224  0.1221
 2696TIP3    H229648   0.527   0.285   8.359  0.2695  0.9128  0.3719
 2697TIP3   OH229649   0.556   0.581   1.325  0.1297  0.0838  0.3020
 2697TIP3    H129650   0.585   0.524   1.396  3.0717 -0.5376 -1.2276
 2697TIP3    H229651   0.516   0.521   1.261  1.1988  0.0149 -0.3229
 2698TIP3   OH229652   0.012   3.466   7.075 -0.3740  0.0163 -0.3508
 2698TIP3    H129653  -0.040   3.525   7.021 -0.9557 -0.3521 -0.2040
 2698TIP3    H229654   0.102   3.482   7.049 -0.5216  0.9926 -0.2870
 2699TIP3   OH229655   1.461   1.764   7.676  0.5410  0.1861  0.0044
 2699TIP3    H129656   1.531   1.750   7.612  0.0543  0.1111 -0.5189
 2699TIP3    H229657   1.486   1.710   7.751  0.4982 -0.6989 -0.6035
 2700TIP3   OH229658   1.586   2.715   8.547  0.1134  0.3154  0.1358
 2700TIP3    H129659   1.511   2.662   8.520  0.7540  0.5451 -2.3332
 2700TIP3    H229660   1.548   2.789   8.593 -0.8981 -1.3133  2.1211
 2701TIP3   OH229661   3.331   5.794   7.539  0.5289  0.5367  0.4093
 2701TIP3    H129662   3.333   5.873   7.484  1.4315  1.3053  1.4818
 2701TIP3    H229663   3.346   5.722   7.479  1.1905  1.3277 -0.3996
 2702TIP3   OH229664   0.871   4.724   1.294  0.1879  0.1625  0.1112
 2702TIP3    H129665   0.942   4.728   1.230  1.2843  2.2980  1.3804
 2702TIP3    H229666   0.843   4.815   1.305 -2.0169 -0.4973  0.4779
 2703TIP3   OH229667   3.644   5.421   7.523 -0.5885 -0.0798 -0.5275
 2703TIP3    H129668   3.559   5.378   7.507 -0.4902 -0.3447 -0.3508
 2703TIP3    H229669   3.706   5.371   7.470 -0.2196 -1.1104  0.8197
 2704TIP3   OH229670   4.493   1.198   0.065  0.1570  0.5493 -0.7480
 2704TIP3    H129671   4.519   1.152  -0.015  0.0124  1.0786 -1.1055
 2704TIP3    H229672   4.553   1.166   0.132  0.6956  0.5857 -1.2101
 2705TIP3   OH229673   1.189   5.226   0.859  0.1469 -0.2665  0.0331
 2705TIP3    H129674   1.227   5.236   0.946 -1.9533 -0.7115  1.0601
 2705TIP3    H229675   1.242   5.283   0.803  1.2071  0.4434  1.6905
 2706TIP3   OH229676   5.215   1.925   2.443 -0.1555  0.7394  0.8361
 2706TIP3    H129677   5.295   1.887   2.405  0.2202  1.5132  0.8192
 2706TIP3    H229678   5.165   1.955   2.367  0.3228  1.7543  0.8986
 2707TIP3   OH229679   3.252   3.579   1.187 -0.0061  0.4474 -0.6876
 2707TIP3    H129680   3.235   3.498   1.235  1.0027  0.1676 -0.7751
 2707TIP3    H229681   3.259   3.552   1.096  0.4635  0.6125 -0.7015
 2708TIP3   OH229682   4.518   1.515   7.086 -0.2451 -0.3167  0.1638
 2708TIP3    H129683   4.445   1.537   7.145 -1.6091 -0.3958 -1.4321
 2708TIP3    H229684   4.524   1.591   7.028  0.7573 -0.4607  0.0665
 2709TIP3   OH229685   5.698   5.176   0.032 -1.2798 -0.2252 -0.2367
 2709TIP3    H129686   5.709   5.157  -0.061 -1.5839  2.9253 -1.0141
 2709TIP3    H229687   5.631   5.114   0.061 -0.8391 -1.6106 -1.9309
 2710TIP3   OH229688   2.407   5.770   6.995  0.1924 -0.5569  0.0423
 2710TIP3    H129689   2.450   5.685   7.001  2.0818  0.2828 -0.7266
 2710TIP3    H229690   2.314   5.750   6.982  0.8978 -2.6008 -2.8601
 2711TIP3   OH229691   2.768   4.767   1.944  0.2539  0.5518  0.6867
 2711TIP3    H129692   2.775   4.833   1.875 -0.0613  2.6625  2.5569
 2711TIP3    H229693   2.831   4.699   1.918  1.5891  2.2052 -0.6914
 2712TIP3   OH229694   0.078   6.072   7.970 -0.3694  0.4918  0.2207
 2712TIP3    H129695   0.028   5.990   7.975 -1.3844  1.0861  0.2327
 2712TIP3    H229696   0.013   6.137   7.942  0.7076  1.0411 -1.1136
 2713TIP3   OH229697   4.976   0.602   8.824 -0.2848 -0.1673  0.1723
 2713TIP3    H129698   5.002   0.525   8.775  0.4385  0.2656 -0.1425
 2713TIP3    H229699   4.991   0.579   8.915 -0.3148 -0.4894  0.0959
 2714TIP3   OH229700   4.694   1.422   7.817  0.0812 -0.3944  0.2830
 2714TIP3    H129701   4.721   1.514   7.807 -1.2608 -0.0766 -0.6270
 2714TIP3    H229702   4.616   1.425   7.872 -0.7532 -0.8521 -0.8512
 2715TIP3   OH229703   0.978   4.499   6.360  0.1679  0.1914  0.1086
 2715TIP3    H129704   1.014   4.576   6.315 -0.5602  0.5325  0.0980
 2715TIP3    H229705   1.055   4.453   6.392  0.6938  0.1880 -1.0756
 2716TIP3   OH229706   3.171   4.614   1.422  0.8068 -0.4657 -0.3877
 2716TIP3    H129707   3.198   4.699   1.387  2.4679 -0.5910  0.4957
 2716TIP3    H229708   3.239   4.591   1.486 -0.4887 -1.6811  0.6278
 2717TIP3   OH229709   3.188   3.872   7.557 -0.1555 -0.0803 -0.2745
 2717TIP3    H129710   3.192   3.928   7.479 -0.4709  0.6398  0.2144
 2717TIP3    H229711   3.147   3.927   7.624  1.7970 -0.0185  0.9543
 2718TIP3   OH229712   4.300   6.727   7.323  0.7860 -0.6945 -0.0847
 2718TIP3    H129713   4.312   6.819   7.301 -1.1560  0.1368  1.9057
 2718TIP3    H229714   4.282   6.684   7.239  1.5711  0.7353 -1.0267
 2719TIP3   OH229715   6.414   5.429   0.897 -0.0712 -0.1304 -0.0268
 2719TIP3    H129716   6.424   5.459   0.806  0.5014  0.7243  0.3147
 2719TIP3    H229717   6.447   5.339   0.895 -0.9242 -0.4589 -0.8495
 2720TIP3   OH229718   2.577   2.066   0.506 -0.0086  0.2101  0.1224
 2720TIP3    H129719   2.611   2.101   0.588 -1.1664  0.7101  0.4136
 2720TIP3    H229720   2.548   2.143   0.457 -0.2427 -0.1578 -0.3310
 2721TIP3   OH229721   1.249   1.585   7.978 -1.1067  0.4526 -0.0513
 2721TIP3    H129722   1.240   1.596   7.883  0.5228  0.4198 -0.2264
 2721TIP3    H229723   1.323   1.641   8.002 -0.1738 -1.1053  0.8712
 2722TIP3   OH229724   0.055   2.201   7.267  0.1130  0.2397  0.2123
 2722TIP3    H129725   0.133   2.159   7.230  0.6836  0.0147  1.5701
 2722TIP3    H229726   0.002   2.226   7.192  0.8260 -0.9055 -0.7065
 2723TIP3   OH229727   6.672   3.987   0.515  0.2876  0.2412 -0.0248
 2723TIP3    H129728   6.763   3.969   0.539  0.4429  0.5515 -0.3654
 2723TIP3    H229729   6.647   3.914   0.459 -0.3394 -0.9148  1.6844
 2724TIP3   OH229730   1.864   2.607   7.836  0.5664  0.3573 -0.1907
 2724TIP3    H129731   1.838   2.584   7.747 -0.4933 -0.0960  0.2098
 2724TIP3    H229732   1.886   2.700   7.832 -0.5777  0.6222 -0.6960
 2725TIP3   OH229733   0.762   1.951   6.542 -0.5999 -0.0595  0.4184
 2725TIP3    H129734   0.828   1.882   6.533  0.5086  0.8163  1.4673
 2725TIP3    H229735   0.705   1.939   6.466 -0.9240 -2.5960  0.9656
 2726TIP3   OH229736   3.373   4.648   1.675  0.2786  0.0031 -0.2531
 2726TIP3    H129737   3.355   4.740   1.658  2.6083  0.7946  1.1255
 2726TIP3    H229738   3.317   4.625   1.749 -0.2216  0.3453 -0.5238
 2727TIP3   OH229739   1.259   5.899   7.088  0.3522  0.2545 -0.2419
 2727TIP3    H129740   1.324   5.834   7.062 -0.2614 -1.1230  1.4221
 2727TIP3    H229741   1.283   5.922   7.178 -0.3786  1.1222 -0.2559
 2728TIP3   OH229742   5.853   0.062   7.650 -0.3299  0.1777 -0.1264
 2728TIP3    H129743   5.851   0.116   7.730  0.0768 -1.7731  1.2588
 2728TIP3    H229744   5.946   0.049   7.632 -0.4100 -1.0489  0.2744
 2729TIP3   OH229745   5.416   1.083   1.447 -0.3140  0.4808 -0.1170
 2729TIP3    H129746   5.503   1.095   1.485 -0.8516 -0.2299  1.4088
 2729TIP3    H229747   5.361   1.146   1.495 -0.5195  1.4538 -1.5819
 2730TIP3   OH229748   2.960   0.671   1.175 -0.3761 -0.2742 -0.2528
 2730TIP3    H129749   3.011   0.701   1.250  2.7282  0.0367 -2.2608
 2730TIP3    H229750   2.870   0.698   1.194  0.5959  1.5798  2.3894
 2731TIP3   OH229751   4.815   3.823   1.077 -0.0355  0.1351  0.0298
 2731TIP3    H129752   4.738   3.832   1.021  0.2064 -0.7967 -0.4817
 2731TIP3    H229753   4.780   3.792   1.161 -0.3515  1.0757  0.2546
 2732TIP3   OH229754   4.939   5.538   8.270  0.4259  0.4110 -0.3448
 2732TIP3    H129755   4.860   5.589   8.253  0.4465  0.1378 -1.3198
 2732TIP3    H229756   4.986   5.587   8.338 -0.8935  0.2365  0.7284
 2733TIP3   OH229757   6.621   3.907   0.099 -0.0601  0.2269 -0.1145
 2733TIP3    H129758   6.578   3.827   0.067 -0.8586  0.5656  0.0820
 2733TIP3    H229759   6.711   3.899   0.069  1.8509 -3.8363  5.1237
 2734TIP3   OH229760   5.631   1.026   2.341 -0.0952 -0.0546 -0.6356
 2734TIP3    H129761   5.714   1.011   2.386  0.9443  3.4185 -1.1419
 2734TIP3    H229762   5.566   1.034   2.411  0.5531  0.2326 -0.0642
 2735TIP3   OH229763   3.138   4.038   6.582 -0.2396 -0.3673  0.0520
 2735TIP3    H129764   3.180   3.981   6.518  1.0052  0.4727  0.0776
 2735TIP3    H229765   3.208   4.099   6.609 -0.3996 -1.3030  2.9309
 2736TIP3   OH229766   1.922   3.480   1.621  0.7339  0.1816  0.3034
 2736TIP3    H129767   2.017   3.490   1.619  0.8644 -0.9058  0.4023
 2736TIP3    H229768   1.908   3.388   1.640 -0.3506  0.3785  0.5265
 2737TIP3   OH229769   6.302   5.432   1.524  0.8796 -0.1676 -0.1224
 2737TIP3    H129770   6.304   5.425   1.620  2.1980  0.7471 -0.0604
 2737TIP3    H229771   6.317   5.343   1.493 -1.3339 -0.8183  0.4756
 2738TIP3   OH229772   1.284   1.795   7.474 -0.1378  0.1838 -0.6723
 2738TIP3    H129773   1.227   1.856   7.522  1.0169  0.9005 -0.1737
 2738TIP3    H229774   1.364   1.791   7.526  0.0947 -1.1870 -1.1113
 2739TIP3   OH229775   3.958   3.692   0.003  0.5339  0.1584 -0.0567
 2739TIP3    H129776   3.995   3.750  -0.064  1.2028 -1.6785 -1.3490
 2739TIP3    H229777   3.916   3.622  -0.047 -1.3690  0.1513  1.4398
 2740TIP3   OH229778   5.286   3.073   7.452 -0.2790 -0.2511 -0.3665
 2740TIP3    H129779   5.347   3.140   7.484 -0.8468 -0.7521  1.9071
 2740TIP3    H229780   5.204   3.121   7.438  0.2266  0.1674 -2.1922
 2741TIP3   OH229781   3.465   5.048   6.754 -0.0983  0.0075 -0.4186
 2741TIP3    H129782   3.405   5.113   6.789  1.9948  1.2230  1.1727
 2741TIP3    H229783   3.483   5.076   6.664 -0.8792  0.3844 -0.4583
 2742TIP3   OH229784   5.152   4.309   7.717 -0.4602 -0.2197 -0.1023
 2742TIP3    H129785   5.109   4.345   7.795  0.2242 -1.1611  0.7370
 2742TIP3    H229786   5.239   4.347   7.719  0.2920 -1.8628  0.8240
 2743TIP3   OH229787   1.141   6.010   0.015 -0.0938 -0.6564 -0.2066
 2743TIP3    H129788   1.203   5.938   0.007  0.1876 -0.4341 -0.0298
 2743TIP3    H229789   1.120   6.014   0.108 -0.4698 -0.8089 -0.2812
 2744TIP3   OH229790   6.259   2.537   7.025  0.4727  0.5267 -0.3084
 2744TIP3    H129791   6.295   2.487   6.951  0.8476  0.7945 -0.3083
 2744TIP3    H229792   6.218   2.613   6.984 -1.5614 -0.5745 -0.4642
 2745TIP3   OH229793   6.653   4.849   1.266 -0.5806  0.0412 -0.2641
 2745TIP3    H129794   6.704   4.888   1.337 -1.3055  1.4977 -0.4966
 2745TIP3    H229795   6.717   4.800   1.214 -0.0255 -0.9571  1.3124
 2746TIP3   OH229796   5.859   5.174   8.556 -0.2251  0.1983 -0.1895
 2746TIP3    H129797   5.772   5.204   8.585  0.1278 -0.0811  1.2265
 2746TIP3    H229798   5.877   5.097   8.609  2.0278  1.7856  1.5376
 2747TIP3   OH229799   0.460   2.108   1.496 -0.8368 -0.2599 -0.1938
 2747TIP3    H129800   0.545   2.067   1.511 -1.1312 -1.7558 -2.2221
 2747TIP3    H229801   0.446   2.164   1.573  3.2214  2.2745 -0.9874
 2748TIP3   OH229802   1.964   6.333   7.743  0.2299  0.6259 -0.3884
 2748TIP3    H129803   1.869   6.321   7.731  0.0222  1.1068  0.6799
 2748TIP3    H229804   1.974   6.423   7.773  1.0493  0.6339 -0.6569
 2749TIP3   OH229805   0.978   5.330   6.607 -0.0895  0.6365 -0.0466
 2749TIP3    H129806   0.910   5.379   6.654 -1.2055 -0.7614 -0.1430
 2749TIP3    H229807   1.031   5.398   6.565 -0.5557  1.8233  1.1861
 2750TIP3   OH229808   5.612   2.400   1.272  0.1678  0.8649  0.5158
 2750TIP3    H129809   5.677   2.334   1.296  0.3552  1.2271  1.0252
 2750TIP3    H229810   5.528   2.353   1.275  0.4248  0.3127 -0.4601
 2751TIP3   OH229811   5.783   6.533   1.483  0.5102  0.0797  0.7344
 2751TIP3    H129812   5.693   6.545   1.454  0.6275  1.9063  1.0438
 2751TIP3    H229813   5.829   6.498   1.406 -0.2259  0.1844  0.2459
 2752TIP3   OH229814   2.780   6.702   1.574  0.1197  0.4128 -0.6111
 2752TIP3    H129815   2.711   6.715   1.638  0.7154  0.2804  0.0721
 2752TIP3    H229816   2.833   6.631   1.610  0.9403  0.8989 -0.8347
 2753TIP3   OH229817   0.733   1.444   7.252 -0.5732  0.0166  0.6863
 2753TIP3    H129818   0.763   1.522   7.298 -1.0178  1.6771 -1.6670
 2753TIP3    H229819   0.638   1.456   7.243 -0.2046  1.2285 -3.0078
 2754TIP3   OH229820   0.667   1.305   1.249  1.0195 -0.9817 -0.1997
 2754TIP3    H129821   0.760   1.288   1.230  0.9230 -0.5344 -1.1256
 2754TIP3    H229822   0.620   1.266   1.175  0.5311 -0.4073 -0.1933
 2755TIP3   OH229823   0.189   2.473   7.555 -0.5542 -0.3791  0.1091
 2755TIP3    H129824   0.247   2.442   7.485 -1.2860 -1.1010 -0.1885
 2755TIP3    H229825   0.102   2.475   7.516 -0.8402  0.0512  0.7482
 2756TIP3   OH229826   2.366   1.636   0.703 -0.0648 -0.4528  0.1037
 2756TIP3    H129827   2.363   1.698   0.630  0.1171  0.2448  0.6760
 2756TIP3    H229828   2.375   1.551   0.661  1.1530  0.0283 -0.6590
 2757TIP3   OH229829   1.835   2.985   1.897  0.0419  0.6291  0.2629
 2757TIP3    H129830   1.894   2.932   1.950 -1.0154 -0.5164  0.3529
 2757TIP3    H229831   1.788   2.922   1.843 -0.8995  1.5179  0.0043
 2758TIP3   OH229832   0.531   2.267   7.879 -0.0280 -0.1834 -0.2477
 2758TIP3    H129833   0.436   2.257   7.878  0.0165 -1.2834  1.7194
 2758TIP3    H229834   0.546   2.351   7.923 -0.0930 -0.2208 -0.1528
 2759TIP3   OH229835   4.936   0.843   1.602 -0.3277  0.1054  0.4209
 2759TIP3    H129836   4.888   0.923   1.583 -0.0589 -0.3771 -2.7801
 2759TIP3    H229837   4.869   0.777   1.618 -0.5890  0.5098  1.0186
 2760TIP3   OH229838   2.233   4.959   8.525 -0.0332  0.2626  0.1786
 2760TIP3    H129839   2.144   4.934   8.550  0.3904 -0.4608  1.0106
 2760TIP3    H229840   2.257   4.895   8.457 -0.8217  1.6254 -1.4650
 2761TIP3   OH229841   1.729   2.181   6.591 -0.2638 -0.4289 -0.1438
 2761TIP3    H129842   1.807   2.165   6.644 -0.8587  0.9989  1.2588
 2761TIP3    H229843   1.761   2.229   6.515  0.4686 -1.5789 -0.5833
 2762TIP3   OH229844   1.963   5.697   7.920 -0.1037  0.0379 -0.0184
 2762TIP3    H129845   2.049   5.717   7.881 -0.6373  1.8599 -0.3364
 2762TIP3    H229846   1.918   5.646   7.853  0.7653 -1.1272  0.2301
 2763TIP3   OH229847   4.986   1.129   8.647 -0.3901 -0.7554  0.5503
 2763TIP3    H129848   5.045   1.089   8.711 -0.4499  1.0889  1.8436
 2763TIP3    H229849   5.040   1.191   8.599 -0.4130 -1.9275 -1.0493
 2764TIP3   OH229850   1.003   5.519   2.360 -0.3831  1.1425 -0.1637
 2764TIP3    H129851   1.060   5.560   2.295  4.0619 -1.0778  1.8637
 2764TIP3    H229852   0.992   5.429   2.329  1.4359  0.1855  1.7429
 2765TIP3   OH229853   1.653   2.952   1.393 -0.0126 -0.1119 -0.3604
 2765TIP3    H129854   1.635   2.980   1.483  0.4600 -2.7811  0.6716
 2765TIP3    H229855   1.745   2.927   1.394  0.1245  0.2814 -1.7326
 2766TIP3   OH229856   6.614   5.420   1.807  0.0472  0.3249 -0.1477
 2766TIP3    H129857   6.675   5.356   1.843  0.9926  0.7152 -0.9950
 2766TIP3    H229858   6.596   5.388   1.718  1.1518  1.6029 -0.8745
 2767TIP3   OH229859   6.355   3.794   8.148 -0.6597  0.5922  0.7061
 2767TIP3    H129860   6.404   3.807   8.229 -0.3370  0.0605  0.6057
 2767TIP3    H229861   6.397   3.717   8.107 -0.4813  1.1541 -0.2033
 2768TIP3   OH229862   5.933   4.139   1.122  0.1355  0.2014 -0.2598
 2768TIP3    H129863   5.918   4.076   1.052 -0.8132 -0.4215  0.4719
 2768TIP3    H229864   5.980   4.090   1.189 -0.8835  0.1425  0.4477
 2769TIP3   OH229865   6.662   3.788   1.842 -0.2206 -0.0022  0.0579
 2769TIP3    H129866   6.627   3.874   1.817  0.1875 -0.3385 -1.8026
 2769TIP3    H229867   6.658   3.737   1.762  0.1435 -1.5439  0.9904
 2770TIP3   OH229868   2.221   1.581   6.948 -0.5392  0.1063 -0.5306
 2770TIP3    H129869   2.238   1.669   6.979  1.5038 -0.6529  0.6726
 2770TIP3    H229870   2.252   1.580   6.858 -1.4379  0.8419 -0.8612
 2771TIP3   OH229871   4.381   1.819   0.596  0.2629 -0.8018  0.3404
 2771TIP3    H129872   4.376   1.811   0.501  2.1992 -2.1799  0.2990
 2771TIP3    H229873   4.336   1.741   0.629 -0.1697 -0.4610  0.5775
 2772TIP3   OH229874   3.551   5.657   7.657 -0.3333 -0.1488 -0.2037
 2772TIP3    H129875   3.494   5.722   7.699 -1.6602 -1.2540 -0.2430
 2772TIP3    H229876   3.492   5.604   7.604  1.1311  0.4655 -2.6078
 2773TIP3   OH229877   2.394   3.727   1.632  0.4361 -0.0960 -0.6270
 2773TIP3    H129878   2.436   3.649   1.669 -0.3316 -0.0938  0.2753
 2773TIP3    H229879   2.444   3.800   1.668 -0.8001 -0.0523  1.1499
 2774TIP3   OH229880   1.790   0.493   1.075 -0.2631 -0.3820  0.1974
 2774TIP3    H129881   1.857   0.559   1.096  1.5856 -2.2347  0.4578
 2774TIP3    H229882   1.710   0.527   1.115  0.3524  2.1587 -0.5248
 2775TIP3   OH229883   0.021   1.420   1.173 -0.7954  0.0348  0.4085
 2775TIP3    H129884   0.063   1.506   1.172 -1.2557  0.2871  1.4042
 2775TIP3    H229885  -0.026   1.417   1.257 -0.0019 -1.5607  0.8413
 2776TIP3   OH229886   0.822   6.443   8.361  0.1018 -0.2787  0.8566
 2776TIP3    H129887   0.797   6.370   8.303  0.5663 -0.5869  1.0360
 2776TIP3    H229888   0.771   6.517   8.329 -1.9414 -1.1322  1.9159
 2777TIP3   OH229889   1.080   2.175   6.997  0.2806 -0.1684 -0.5412
 2777TIP3    H129890   1.128   2.233   6.938  0.1406  0.4850 -0.0250
 2777TIP3    H229891   1.148   2.124   7.041  0.4348 -0.0369 -0.6251
 2778TIP3   OH229892   2.274   0.331   1.244  0.5805  0.6715 -0.0042
 2778TIP3    H129893   2.215   0.284   1.185  0.1061  0.0349  0.9511
 2778TIP3    H229894   2.358   0.333   1.197  0.3399 -0.2373 -0.5030
 2779TIP3   OH229895   2.851   5.878   7.905 -0.6469 -0.2547  0.4151
 2779TIP3    H129896   2.825   5.795   7.945 -2.0315  0.6642  1.5214
 2779TIP3    H229897   2.934   5.859   7.862  0.2650 -1.6625  2.6014
 2780TIP3   OH229898   2.765   6.143   8.536  0.0621  0.3206 -0.6627
 2780TIP3    H129899   2.778   6.223   8.485  4.2829 -0.2886 -0.9569
 2780TIP3    H229900   2.854   6.108   8.548 -1.2993 -2.7480  2.0357
 2781TIP3   OH229901   1.023   4.138   0.781  0.1223  0.1624  0.1632
 2781TIP3    H129902   0.929   4.131   0.768  0.2117 -0.9490  0.0284
 2781TIP3    H229903   1.042   4.078   0.853  0.6174  1.0399  0.7912
 2782TIP3   OH229904   3.565   5.520   6.946  0.2988 -0.1381 -0.3185
 2782TIP3    H129905   3.582   5.526   7.041 -0.5153 -1.9982 -0.0165
 2782TIP3    H229906   3.652   5.512   6.907  0.5805 -1.1205  0.4510
 2783TIP3   OH229907   5.019   4.176   7.997  0.0415 -0.3377 -0.2783
 2783TIP3    H129908   4.939   4.124   7.996  0.5592 -1.1572 -0.6193
 2783TIP3    H229909   5.055   4.166   8.085  0.0797 -0.4736 -0.3085
 2784TIP3   OH229910   2.813   6.380   8.354 -0.1396 -0.2079 -0.3900
 2784TIP3    H129911   2.897   6.335   8.348  0.1873 -0.2220  2.7307
 2784TIP3    H229912   2.787   6.395   8.263  2.6769 -1.1853 -1.4516
 2785TIP3   OH229913   6.501   2.144   1.812  0.3180 -0.7144  0.0689
 2785TIP3    H129914   6.460   2.223   1.845  0.5176 -1.0586  1.2038
 2785TIP3    H229915   6.436   2.105   1.753  0.5386  0.6846 -1.1451
 2786TIP3   OH229916   0.399   1.551   8.364  0.2826  0.3233  0.1287
 2786TIP3    H129917   0.380   1.458   8.376  0.6533  0.1072 -0.8871
 2786TIP3    H229918   0.474   1.567   8.423  0.4078 -0.0884  0.0846
 2787TIP3   OH229919   5.563   6.447   0.957  0.2797  0.1290 -0.3907
 2787TIP3    H129920   5.632   6.394   0.918  1.3535  1.0734  0.1649
 2787TIP3    H229921   5.548   6.517   0.894  0.7093  0.6109  0.0288
 2788TIP3   OH229922   1.356   2.049   1.014 -0.2222 -0.4838 -0.3474
 2788TIP3    H129923   1.349   1.972   0.958 -1.6330 -0.6007 -0.0352
 2788TIP3    H229924   1.306   2.027   1.092  2.2910 -0.6153  1.3527
 2789TIP3   OH229925   5.280   5.049   7.601  0.1920 -0.0178 -0.0110
 2789TIP3    H129926   5.340   4.984   7.638  1.2708  1.5371  1.0961
 2789TIP3    H229927   5.298   5.047   7.507 -0.0740 -1.5392 -0.0639
 2790TIP3   OH229928   2.347   5.029   0.873 -0.0668 -0.4849 -0.3600
 2790TIP3    H129929   2.392   5.068   0.948  2.3991 -2.4142 -0.7209
 2790TIP3    H229930   2.363   5.091   0.801  0.9896 -0.5463 -0.1894
 2791TIP3   OH229931   0.761   5.211   2.129  0.4114  0.5989  0.1775
 2791TIP3    H129932   0.739   5.266   2.053 -2.1574  1.7308  1.6172
 2791TIP3    H229933   0.847   5.242   2.157  1.1863  0.5051 -1.8915
 2792TIP3   OH229934   3.280   3.841   2.507 -0.5305 -0.4000 -0.3962
 2792TIP3    H129935   3.297   3.918   2.562 -0.6076  0.1685 -1.1587
 2792TIP3    H229936   3.259   3.877   2.421  0.0196 -1.3008 -0.9141
 2793TIP3   OH229937   5.970   5.254   0.126  0.0927  0.4592  0.4938
 2793TIP3    H129938   6.012   5.210   0.199  2.2675 -1.7630 -1.8891
 2793TIP3    H229939   5.896   5.198   0.103  0.7592 -0.1058 -0.3464
 2794TIP3   OH229940   4.555   3.430   0.269 -0.1623 -0.4974  0.1959
 2794TIP3    H129941   4.516   3.351   0.305 -0.3958 -1.1200 -1.3270
 2794TIP3    H229942   4.558   3.414   0.175 -1.2611  1.7781 -0.2885
 2795TIP3   OH229943   1.018   2.947   6.673 -0.7137 -0.2773  0.3856
 2795TIP3    H129944   1.001   3.041   6.664 -0.0566  0.1854  3.0754
 2795TIP3    H229945   0.986   2.909   6.592  0.7987  2.4678 -1.6574
 2796TIP3   OH229946   0.008   1.524   0.317 -0.3003  0.1279 -0.2866
 2796TIP3    H129947   0.076   1.587   0.295  0.9203 -0.5359  1.3227
 2796TIP3    H229948   0.055   1.452   0.359 -1.9901 -0.3626  0.8821
 2797TIP3   OH229949   0.887   3.074   0.230 -0.7324  0.0042  0.2615
 2797TIP3    H129950   0.813   3.130   0.256 -0.3333  0.1277  1.1454
 2797TIP3    H229951   0.851   3.019   0.161 -2.1434 -1.0540  1.7522
 2798TIP3   OH229952   5.860   5.449   0.823  0.0060 -0.2610  0.1706
 2798TIP3    H129953   5.901   5.440   0.909 -1.5243 -2.5684  0.7384
 2798TIP3    H229954   5.907   5.386   0.768 -0.4869 -0.3923 -0.1024
 2799TIP3   OH229955   1.490   0.880   1.483  0.8318  0.1741  0.4473
 2799TIP3    H129956   1.405   0.906   1.518 -0.5482 -1.1893 -1.6609
 2799TIP3    H229957   1.521   0.956   1.435 -0.4515 -0.1131 -0.9002
 2800TIP3   OH229958   4.115   4.097   7.546 -0.6787 -0.6282 -0.1869
 2800TIP3    H129959   4.060   4.157   7.495 -1.5949 -1.0668  0.2659
 2800TIP3    H229960   4.192   4.082   7.491 -0.3485  1.0826 -0.2477
 2801TIP3   OH229961   6.527   3.442   1.560  0.1492 -0.2345 -0.3536
 2801TIP3    H129962   6.463   3.417   1.626 -0.4037 -0.3510 -0.9191
 2801TIP3    H229963   6.502   3.392   1.482  0.5051  0.2427 -0.7866
 2802TIP3   OH229964   5.844   3.819   1.757 -0.4150 -0.3503 -0.1980
 2802TIP3    H129965   5.845   3.913   1.739 -0.4792 -0.2538  0.2871
 2802TIP3    H229966   5.768   3.786   1.711  0.3107 -0.3795 -1.4191
 2803TIP3   OH229967   4.221   0.953   6.839 -0.2874 -0.1480 -0.4290
 2803TIP3    H129968   4.288   1.000   6.790 -1.1526  1.1940 -0.3705
 2803TIP3    H229969   4.149   1.015   6.847 -0.3959 -0.4774  2.1029
 2804TIP3   OH229970   4.206   5.646   0.207 -0.6467 -0.5143 -0.6350
 2804TIP3    H129971   4.157   5.728   0.205 -2.0168 -1.2105  1.1661
 2804TIP3    H229972   4.239   5.635   0.118  1.2831  2.9356 -0.4864
 2805TIP3   OH229973   4.449   6.643   1.103  0.1740 -0.1983 -0.3598
 2805TIP3    H129974   4.544   6.652   1.109  0.5168 -3.5819  1.4735
 2805TIP3    H229975   4.414   6.711   1.160  1.4414  1.0841 -1.0606
 2806TIP3   OH229976   2.127   1.463   7.549  0.0319 -0.0095  0.7921
 2806TIP3    H129977   2.096   1.373   7.562 -1.3208  0.2917 -0.1246
 2806TIP3    H229978   2.209   1.468   7.599  0.4263 -1.9062  0.3934
 2807TIP3   OH229979   5.355   1.598   1.790  0.8115 -0.3885 -0.2430
 2807TIP3    H129980   5.384   1.681   1.827  0.8804 -0.8427  0.7575
 2807TIP3    H229981   5.260   1.606   1.782  0.8637 -0.0650 -0.5436
 2808TIP3   OH229982   6.416   4.736   1.933 -0.6752  0.0610  0.4191
 2808TIP3    H129983   6.337   4.686   1.910 -2.2194  1.6925  1.8162
 2808TIP3    H229984   6.407   4.752   2.027  0.3836  1.8789  0.2524
 2809TIP3   OH229985   5.621   2.596   0.364 -0.1567  0.0816  0.1899
 2809TIP3    H129986   5.706   2.618   0.327 -0.9181 -0.1232 -1.7641
 2809TIP3    H229987   5.628   2.504   0.388  0.3251  0.2001  0.5126
 2810TIP3   OH229988   2.794   2.622   1.206  0.1544 -0.4052 -0.0656
 2810TIP3    H129989   2.795   2.671   1.124  0.0914  0.0939  0.2282
 2810TIP3    H229990   2.772   2.533   1.180 -1.0875 -0.0080 -0.4697
 2811TIP3   OH229991   0.619   1.914   0.358  0.6137 -0.4032  0.2534
 2811TIP3    H129992   0.529   1.891   0.381  0.7177 -1.6044 -0.4359
 2811TIP3    H229993   0.617   2.008   0.342 -0.8255 -0.6311 -1.1145
 2812TIP3   OH229994   2.832   0.627   1.542  0.1190  0.2483 -0.3180
 2812TIP3    H129995   2.905   0.600   1.597 -0.2782  0.7804  0.4989
 2812TIP3    H229996   2.822   0.721   1.560 -0.2934  0.3434 -0.9853
 2813TIP3   OH229997   2.667   4.082   6.964 -0.2409  0.1281  0.0202
 2813TIP3    H129998   2.719   4.095   7.043  0.9630  2.0327 -1.0123
 2813TIP3    H229999   2.723   4.030   6.906 -0.2744  0.4976 -0.3500
 2814TIP3   OH230000   2.813   6.022   0.995 -0.0874  0.2872  0.1785
 2814TIP3    H130001   2.808   6.092   1.060  1.8904  0.4213  0.2547
 2814TIP3    H230002   2.830   6.066   0.912  1.0054 -0.0588  0.1990
 2815TIP3   OH230003   4.818   3.862   0.770 -0.6323 -0.0732  0.3853
 2815TIP3    H130004   4.752   3.914   0.725 -0.4327  0.4474  0.6825
 2815TIP3    H230005   4.768   3.799   0.823 -0.8961  0.3415  0.6389
 2816TIP3   OH230006   2.646   0.671   0.685 -0.3139 -0.7641  0.5080
 2816TIP3    H130007   2.725   0.714   0.719 -0.9640  1.0410 -0.1278
 2816TIP3    H230008   2.679   0.597   0.635  1.0738  0.3695 -0.3631
 2817TIP3   OH230009   5.349   4.737   0.750  0.2184  0.2704 -0.0975
 2817TIP3    H130010   5.423   4.758   0.693 -0.1362  0.8295 -0.3647
 2817TIP3    H230011   5.365   4.647   0.778  0.8386  0.2797 -0.3950
 2818TIP3   OH230012   2.043   3.002   5.953  0.7229  0.0936  0.4214
 2818TIP3    H130013   1.987   2.988   5.877  0.4831 -0.4847  0.6957
 2818TIP3    H230014   2.132   3.002   5.918  0.6464 -0.7016  0.2024
 2819TIP3   OH230015   4.550   1.480   6.502 -0.7057  0.2707  0.8163
 2819TIP3    H130016   4.635   1.505   6.464 -0.7903  3.5166  2.3822
 2819TIP3    H230017   4.568   1.399   6.550  0.8058 -0.5753 -1.0210
 2820TIP3   OH230018   4.606   4.054   1.226  0.2718 -0.1500 -0.3793
 2820TIP3    H130019   4.644   3.967   1.226  1.2438  0.2557 -1.0592
 2820TIP3    H230020   4.521   4.044   1.183 -0.3207 -1.0232  0.9302
 2821TIP3   OH230021   4.392   5.062   7.077  0.2959 -0.1049  0.1161
 2821TIP3    H130022   4.341   5.135   7.043 -0.1324 -0.8340 -0.8781
 2821TIP3    H230023   4.327   4.993   7.093  0.8438 -0.7117 -0.2205
 2822TIP3   OH230024   0.052   0.261   0.793 -0.1197 -1.0729 -0.5344
 2822TIP3    H130025   0.138   0.302   0.801  0.4024 -1.8468 -1.8097
 2822TIP3    H230026   0.050   0.194   0.861  0.6476 -1.6257 -1.0448
 2823TIP3   OH230027   3.620   3.993   0.274 -0.2770 -0.2747 -0.0683
 2823TIP3    H130028   3.594   3.982   0.182 -0.6514 -0.4904  0.0601
 2823TIP3    H230029   3.560   3.936   0.323 -0.3613  0.1679  0.3500
 2824TIP3   OH230030   4.450   3.861   7.219 -0.1754  0.2888  0.3192
 2824TIP3    H130031   4.522   3.803   7.243 -0.3754  0.0766  0.4056
 2824TIP3    H230032   4.489   3.922   7.157 -0.2370 -0.6571 -0.6885
 2825TIP3   OH230033   5.880   4.141   8.509  0.6837 -0.2764 -0.0278
 2825TIP3    H130034   5.866   4.124   8.602  0.7674  0.8890  0.2127
 2825TIP3    H230035   5.943   4.213   8.507  0.0039  0.3057 -0.9714
 2826TIP3   OH230036   5.800   4.774   8.014 -0.4924 -0.0970 -0.2408
 2826TIP3    H130037   5.807   4.687   8.054 -1.1868 -0.0184  0.0772
 2826TIP3    H230038   5.722   4.769   7.959 -1.3113  0.7066  0.8021
 2827TIP3   OH230039   0.180   6.074   0.513  0.1010  0.0531  0.3033
 2827TIP3    H130040   0.199   6.107   0.425  1.2834 -0.6232  0.2899
 2827TIP3    H230041   0.248   6.008   0.529  1.1179  1.4980  2.4535
 2828TIP3   OH230042   3.704   0.763   6.899  0.3175 -0.1053 -0.1416
 2828TIP3    H130043   3.757   0.684   6.894 -1.9256 -1.7149 -0.0548
 2828TIP3    H230044   3.637   0.752   6.832  0.2995  2.0291 -0.5388
 2829TIP3   OH230045   6.226   2.457   7.289  0.2141  0.6915 -0.1316
 2829TIP3    H130046   6.132   2.467   7.303 -0.5426 -2.3783 -1.9019
 2829TIP3    H230047   6.240   2.488   7.199  1.0437  1.7147  0.3356
 2830TIP3   OH230048   5.510   6.232   0.298 -0.1054  0.0238 -0.1807
 2830TIP3    H130049   5.533   6.316   0.337  0.4938 -0.1729 -0.1010
 2830TIP3    H230050   5.414   6.232   0.296 -0.1053  1.3027 -1.5005
 2831TIP3   OH230051   1.161   5.478   1.681  0.2416  0.1543  0.1623
 2831TIP3    H130052   1.127   5.524   1.605  0.2652 -0.8698 -0.4815
 2831TIP3    H230053   1.102   5.503   1.753 -0.3005  0.4455 -0.3808
 2832TIP3   OH230054   4.888   0.298   6.563  0.5617 -0.0795  0.4653
 2832TIP3    H130055   4.912   0.207   6.575  0.0991 -0.0709  1.5786
 2832TIP3    H230056   4.832   0.318   6.638  0.5211  1.0701  0.1458
 2833TIP3   OH230057   0.079   2.173   8.621 -0.1528 -0.0755  0.2411
 2833TIP3    H130058   0.057   2.100   8.678  1.0883  0.1582  1.0417
 2833TIP3    H230059   0.026   2.246   8.654  0.9161  0.1872  1.4362
 2834TIP3   OH230060   2.796   6.221   7.007 -0.2006  0.0928  0.4436
 2834TIP3    H130061   2.806   6.130   7.035 -0.6064  0.3614  1.5002
 2834TIP3    H230062   2.714   6.249   7.047 -1.1766  0.3051 -1.5697
 2835TIP3   OH230063   1.586   2.286   1.660  0.0178 -0.1463  0.2931
 2835TIP3    H130064   1.553   2.206   1.701 -0.7485  0.5308  1.0345
 2835TIP3    H230065   1.511   2.346   1.662  0.6803  0.7010  0.0592
 2836TIP3   OH230066   5.702   6.665   7.551  0.5553 -0.2962  0.2764
 2836TIP3    H130067   5.752   6.585   7.537  0.1863 -0.7515  1.4926
 2836TIP3    H230068   5.767   6.728   7.583  0.5981 -0.4994  0.5902
 2837TIP3   OH230069   0.397   6.112   7.617  0.5533 -0.7045 -0.1355
 2837TIP3    H130070   0.489   6.120   7.592  0.8372  0.4499  1.0784
 2837TIP3    H230071   0.349   6.113   7.535  1.5248  0.9192 -0.7419
 2838TIP3   OH230072   4.588   6.670   6.200 -0.1596  0.3185 -0.1216
 2838TIP3    H130073   4.554   6.734   6.137  1.7591  0.5357 -1.0056
 2838TIP3    H230074   4.581   6.586   6.154 -1.6368  0.0102  0.6106
 2839TIP3   OH230075   6.536   5.216   0.643 -0.2637 -0.4075  0.0202
 2839TIP3    H130076   6.619   5.211   0.691  0.1969 -0.3113 -0.7539
 2839TIP3    H230077   6.506   5.306   0.656  0.1215 -0.2317 -0.2920
 2840TIP3   OH230078   5.562   1.966   6.544 -0.0261 -0.3051 -0.3847
 2840TIP3    H130079   5.637   1.911   6.569 -0.2967 -0.2906  0.5036
 2840TIP3    H230080   5.569   1.975   6.449  2.0707  1.1124 -0.1583
 2841TIP3   OH230081   0.861   2.570   6.968 -0.0176  0.0147 -0.0781
 2841TIP3    H130082   0.804   2.642   6.993 -2.2226 -1.0223 -1.7553
 2841TIP3    H230083   0.811   2.491   6.989  2.1578 -1.0879  1.3665
 2842TIP3   OH230084   2.126   0.823   6.773  0.1987  0.0622  0.0556
 2842TIP3    H130085   2.138   0.728   6.776  0.3837  0.0777 -0.1878
 2842TIP3    H230086   2.090   0.840   6.686 -0.2642  0.1672  0.2660
 2843TIP3   OH230087   5.003   3.386   1.266 -0.2248 -0.0254  0.7684
 2843TIP3    H130088   5.029   3.437   1.190 -0.3927 -1.0289  0.0232
 2843TIP3    H230089   4.910   3.407   1.278 -0.8596 -1.6557 -0.8008
 2844TIP3   OH230090   4.320   6.276   7.585  0.5261 -0.6962 -0.0395
 2844TIP3    H130091   4.314   6.184   7.611  2.5226 -0.7314  0.4460
 2844TIP3    H230092   4.344   6.322   7.666 -3.1978  0.7783  0.4787
 2845TIP3   OH230093   4.975   2.962   8.756 -0.1980  0.6395 -0.2945
 2845TIP3    H130094   5.015   3.028   8.813 -0.6592  0.7474 -0.0859
 2845TIP3    H230095   4.974   3.002   8.669 -1.5382  1.4085  0.0386
 2846TIP3   OH230096   3.793   5.578   6.769 -0.2576  0.1281 -0.4401
 2846TIP3    H130097   3.864   5.620   6.818 -1.2116  0.9813  0.2588
 2846TIP3    H230098   3.774   5.638   6.697 -2.6259  1.7769  1.3996
 2847TIP3   OH230099   4.084   5.874   8.710  0.2964 -0.2411 -0.1103
 2847TIP3    H130100   4.008   5.880   8.768 -1.3710 -0.8416 -2.1154
 2847TIP3    H230101   4.142   5.945   8.738 -1.2667  0.5986  1.1170
 2848TIP3   OH230102   1.696   1.199   7.527  0.4019  0.0141 -0.0079
 2848TIP3    H130103   1.657   1.256   7.593 -1.3305  0.4788 -1.3640
 2848TIP3    H230104   1.681   1.110   7.560  1.1646  0.2561  1.0526
 2849TIP3   OH230105   3.127   1.986   2.090  0.3749 -0.8577 -0.0921
 2849TIP3    H130106   3.195   2.051   2.076 -1.5620  1.0583 -1.2755
 2849TIP3    H230107   3.063   2.030   2.147 -0.8393 -1.8092 -0.6610
 2850TIP3   OH230108   6.324   0.945   0.511  0.4998  0.1261  0.3773
 2850TIP3    H130109   6.348   0.967   0.601  0.7774 -1.2750  0.6718
 2850TIP3    H230110   6.261   0.873   0.520 -1.1110  1.3629 -0.5003
 2851TIP3   OH230111   4.185   6.051   7.650 -0.4054 -0.4872  0.0666
 2851TIP3    H130112   4.135   6.098   7.716  0.3956 -0.4048  0.6227
 2851TIP3    H230113   4.183   5.960   7.679  1.3098 -0.2385  1.1344
 2852TIP3   OH230114   4.783   2.416   8.501 -0.1236 -0.0499 -0.0301
 2852TIP3    H130115   4.858   2.430   8.558  0.5675 -0.8126 -0.7217
 2852TIP3    H230116   4.821   2.381   8.420 -1.2910 -1.3389 -0.0624
 2853TIP3   OH230117   4.500   5.292   1.568  0.0393  0.5280  0.0173
 2853TIP3    H130118   4.472   5.228   1.502  0.2827 -1.3744  1.6611
 2853TIP3    H230119   4.595   5.293   1.562  0.1698 -0.7587  1.2317
 2854TIP3   OH230120   5.511   3.668   6.971 -0.5470  0.4701  0.0399
 2854TIP3    H130121   5.528   3.685   7.064 -1.1111  3.2502 -0.2695
 2854TIP3    H230122   5.559   3.737   6.926  1.2399 -1.9124 -1.9321
 2855TIP3   OH230123   4.629   4.626   1.355 -0.1164  0.1307  0.0074
 2855TIP3    H130124   4.697   4.568   1.389 -0.7424  0.0030  1.0977
 2855TIP3    H230125   4.585   4.574   1.288 -0.7050 -0.7058  1.0118
 2856TIP3   OH230126   3.531   1.210   0.275  0.1428 -0.0534  0.2998
 2856TIP3    H130127   3.555   1.163   0.196 -2.0644 -1.0801  0.1400
 2856TIP3    H230128   3.604   1.196   0.335  0.8941 -1.0904 -0.8147
 2857TIP3   OH230129   0.943   5.965   7.047  0.0606  0.2189 -0.3390
 2857TIP3    H130130   0.974   6.044   7.090 -0.9549  0.8795 -0.7784
 2857TIP3    H230131   1.000   5.954   6.971 -1.5361  2.2286 -1.9630
 2858TIP3   OH230132   5.198   3.828   8.538  0.1515  0.1653  0.3292
 2858TIP3    H130133   5.249   3.908   8.551  0.1484  0.1340  0.5401
 2858TIP3    H230134   5.107   3.856   8.541  0.1527  0.3258 -0.7203
 2859TIP3   OH230135   2.890   4.342   7.074 -0.5358 -0.0814  0.2228
 2859TIP3    H130136   2.802   4.363   7.041  0.3361  1.0207 -1.5737
 2859TIP3    H230137   2.904   4.404   7.146 -1.6218 -1.0292  1.2984
 2860TIP3   OH230138   1.720   5.976   7.363  0.7468 -0.1076 -0.5206
 2860TIP3    H130139   1.713   5.892   7.409  0.3138  0.0152 -0.3586
 2860TIP3    H230140   1.727   6.041   7.433  2.0752 -0.0794 -0.6467
 2861TIP3   OH230141   5.528   4.976   8.829 -0.4499 -0.5697 -0.8575
 2861TIP3    H130142   5.568   4.889   8.834  0.7557 -0.1009 -1.7983
 2861TIP3    H230143   5.446   4.968   8.878  1.1097 -1.3943  1.8439
 2862TIP3   OH230144   1.757   5.430   6.736 -0.0336  0.1842  0.1922
 2862TIP3    H130145   1.849   5.417   6.714 -0.0505 -0.6436  0.5708
 2862TIP3    H230146   1.725   5.343   6.759 -0.9767  0.4191 -0.1704
 2863TIP3   OH230147   1.475   3.731   8.084 -0.4422  0.3458 -0.8141
 2863TIP3    H130148   1.524   3.748   8.164 -0.6834  1.6451 -0.9142
 2863TIP3    H230149   1.465   3.817   8.043  0.9327 -0.4531 -2.9934
 2864TIP3   OH230150   1.619   2.994   8.367  0.6068  0.3460 -0.1205
 2864TIP3    H130151   1.661   3.039   8.293  0.1468 -0.3421 -0.8134
 2864TIP3    H230152   1.544   3.049   8.389  0.5332  0.3659 -0.4129
 2865TIP3   OH230153   0.893   3.433   1.711 -0.0664 -0.0104  0.3984
 2865TIP3    H130154   0.952   3.398   1.645  1.9204  2.5488  0.6945
 2865TIP3    H230155   0.853   3.355   1.750  0.3226 -1.6871 -2.2650
 2866TIP3   OH230156   0.476   4.661   7.043  0.1657  0.2087  0.0906
 2866TIP3    H130157   0.483   4.740   6.989  1.6707 -1.0384 -1.6601
 2866TIP3    H230158   0.433   4.597   6.986  0.6899 -0.7917  0.7928
 2867TIP3   OH230159   6.085   5.369   1.843 -0.2195 -0.3652  0.3935
 2867TIP3    H130160   6.150   5.438   1.826  1.4147 -1.9632 -0.0738
 2867TIP3    H230161   6.054   5.388   1.932  0.3713  0.8298  0.3740
 2868TIP3   OH230162   4.243   0.481   1.761  0.1404  0.8927 -0.3983
 2868TIP3    H130163   4.242   0.478   1.857 -1.9872  1.7382 -0.3311
 2868TIP3    H230164   4.184   0.412   1.735  0.2155  1.0836 -1.0824
 2869TIP3   OH230165   6.411   6.667   8.703  0.0543 -0.6597  0.0389
 2869TIP3    H130166   6.358   6.629   8.632  1.0149 -0.6187 -0.7277
 2869TIP3    H230167   6.484   6.607   8.712  0.6998  0.1089 -0.0130
 2870TIP3   OH230168   2.791   6.410   0.071  0.4596 -0.3018 -0.3342
 2870TIP3    H130169   2.736   6.432  -0.005  0.3742 -0.3580 -0.2886
 2870TIP3    H230170   2.849   6.341   0.041  1.8015  1.0312 -0.9518
 2871TIP3   OH230171   2.546   2.955   6.828  0.7078  0.5790 -0.0908
 2871TIP3    H130172   2.637   2.924   6.828  0.8300  0.9227 -0.1249
 2871TIP3    H230173   2.545   3.023   6.760  0.6888  1.3172  0.6259
 2872TIP3   OH230174   2.387   1.512   8.404 -0.0454  0.3483 -0.1151
 2872TIP3    H130175   2.381   1.541   8.495 -1.5916 -2.1664  0.7034
 2872TIP3    H230176   2.309   1.546   8.362  0.3547  0.9897 -0.3493
 2873TIP3   OH230177   6.747   1.273   0.821  0.3888 -0.3082  0.5265
 2873TIP3    H130178   6.749   1.234   0.734  0.9189 -1.3746  0.9980
 2873TIP3    H230179   6.788   1.359   0.810  2.7260 -1.3890  0.1470
 2874TIP3   OH230180   2.433   0.533   2.153 -0.1699  0.5152 -0.7157
 2874TIP3    H130181   2.458   0.442   2.172 -1.6903 -0.0458 -1.2680
 2874TIP3    H230182   2.514   0.574   2.122  0.6344 -0.5259 -0.0805
 2875TIP3   OH230183   3.698   1.415   7.651 -0.8394  0.6467 -0.0268
 2875TIP3    H130184   3.786   1.377   7.652 -1.0861 -0.2930  3.9048
 2875TIP3    H230185   3.712   1.506   7.624  1.3264  0.4791  0.3250
 2876TIP3   OH230186   6.431   2.039   8.711  0.3396  0.5006 -1.0233
 2876TIP3    H130187   6.386   2.027   8.627  1.0078  0.6426 -1.4124
 2876TIP3    H230188   6.426   1.954   8.754 -1.5172  0.8700 -0.4275
 2877TIP3   OH230189   3.193   6.501   8.477  0.1664  0.0264  0.3070
 2877TIP3    H130190   3.254   6.532   8.544 -0.5992  1.5601  0.3505
 2877TIP3    H230191   3.248   6.454   8.414  1.3298  0.9470  0.6035
 2878TIP3   OH230192   1.391   2.914   8.066  0.1184  0.2750 -0.0653
 2878TIP3    H130193   1.337   2.986   8.031 -1.1829 -1.4011 -1.6841
 2878TIP3    H230194   1.328   2.846   8.090  1.3911 -0.9054  0.0543
 2879TIP3   OH230195   1.682   1.970   1.633 -0.0117  0.1730 -0.7359
 2879TIP3    H130196   1.621   2.016   1.690  0.1496  0.0597 -0.4691
 2879TIP3    H230197   1.769   1.996   1.665  0.0809 -0.2645 -0.6236
 2880TIP3   OH230198   3.948   1.179   1.130  0.4481 -0.1062  0.4824
 2880TIP3    H130199   3.974   1.248   1.068  0.5219 -1.5801 -1.2216
 2880TIP3    H230200   4.027   1.162   1.181  0.3754  1.1660  1.0726
 2881TIP3   OH230201   4.614   6.752   6.827 -0.2706 -0.5004  0.3722
 2881TIP3    H130202   4.595   6.662   6.854 -0.2586 -0.8424 -0.6792
 2881TIP3    H230203   4.609   6.749   6.731 -1.8792  0.9856  0.3729
 2882TIP3   OH230204   4.774   3.100   1.882 -0.2010 -0.0944 -0.2805
 2882TIP3    H130205   4.806   3.185   1.911  1.1650  0.1097 -2.1712
 2882TIP3    H230206   4.823   3.037   1.934  0.9653  0.2735 -0.8933
 2883TIP3   OH230207   6.486   5.962   8.291  0.1460  0.2240 -0.0596
 2883TIP3    H130208   6.564   6.018   8.291  0.8283 -0.6607  1.5049
 2883TIP3    H230209   6.510   5.888   8.235  0.4740 -0.0906  0.4907
 2884TIP3   OH230210   6.687   1.292   7.979  0.0256 -0.2777  0.5706
 2884TIP3    H130211   6.636   1.353   7.926  1.0769  0.4745  0.3754
 2884TIP3    H230212   6.656   1.205   7.952 -3.1483  0.1061  2.4945
 2885TIP3   OH230213   0.166   0.873   7.957 -0.3568  0.2472 -0.0808
 2885TIP3    H130214   0.241   0.871   7.898 -0.7737  2.4509 -0.7798
 2885TIP3    H230215   0.204   0.880   8.044  0.2477 -0.9799 -0.2243
 2886TIP3   OH230216   0.458   4.847   7.736  0.6343 -0.5761 -0.3012
 2886TIP3    H130217   0.538   4.847   7.788  0.6279 -0.2380 -0.2886
 2886TIP3    H230218   0.481   4.894   7.656  0.1997  0.3233  0.0917
 2887TIP3   OH230219   0.671   4.633   1.860 -0.1371 -0.1386 -0.0743
 2887TIP3    H130220   0.681   4.706   1.800 -1.2214  1.1435  1.2427
 2887TIP3    H230221   0.750   4.636   1.915 -0.8805  0.9881  0.9492
 2888TIP3   OH230222   3.909   6.020   0.906 -0.1761  0.0013 -0.1652
 2888TIP3    H130223   3.995   5.978   0.896  0.4592  1.2373 -0.1569
 2888TIP3    H230224   3.879   5.994   0.992  1.6239  1.9498  1.1671
 2889TIP3   OH230225   0.970   1.211   0.193 -0.1870  0.1736  0.7600
 2889TIP3    H130226   1.055   1.250   0.217  0.2112  0.1673 -0.5403
 2889TIP3    H230227   0.953   1.147   0.261  0.8964  0.1312  1.0165
 2890TIP3   OH230228   3.444   5.024   6.485  0.3727  0.4549 -0.4961
 2890TIP3    H130229   3.372   5.006   6.425 -0.9723 -0.1653  1.2228
 2890TIP3    H230230   3.473   5.112   6.463  1.9334 -0.7637 -3.9876
 2891TIP3   OH230231   3.556   2.588   0.279 -0.2316 -0.3734 -0.1304
 2891TIP3    H130232   3.486   2.550   0.332 -0.5963  0.5343  0.0554
 2891TIP3    H230233   3.568   2.676   0.314  0.9439 -0.4843 -0.2227
 2892TIP3   OH230234   3.036   5.381   8.498  0.2855  0.2087 -0.0680
 2892TIP3    H130235   3.079   5.391   8.413  1.0969  0.4481  0.3643
 2892TIP3    H230236   3.098   5.332   8.551 -1.1086 -1.9131 -0.2580
 2893TIP3   OH230237   1.206   0.188   0.994  0.1908  0.2856  0.2621
 2893TIP3    H130238   1.203   0.280   1.021  1.8463 -0.1185  2.0956
 2893TIP3    H230239   1.267   0.147   1.057  0.4854 -1.7935 -1.2795
 2894TIP3   OH230240   1.765   0.606   0.455  0.0304  0.3435 -0.4656
 2894TIP3    H130241   1.732   0.684   0.501 -0.4521  0.7089 -1.3944
 2894TIP3    H230242   1.722   0.532   0.499 -1.7893  0.7823 -1.3843
 2895TIP3   OH230243   0.326   1.290   6.610  0.1712  0.3904  0.0719
 2895TIP3    H130244   0.331   1.208   6.561 -1.3652  1.7841 -2.6194
 2895TIP3    H230245   0.303   1.356   6.545  0.0032  2.7619  2.3641
 2896TIP3   OH230246   4.030   1.792   0.448 -0.0631 -0.0482  0.1022
 2896TIP3    H130247   4.087   1.770   0.374  0.4037 -0.4468  0.5617
 2896TIP3    H230248   3.943   1.762   0.421  0.2578 -0.9765  0.0416
 2897TIP3   OH230249   5.122   3.651   7.174  0.0203 -0.7034 -0.2315
 2897TIP3    H130250   5.105   3.683   7.262 -1.2130 -1.6997 -0.0621
 2897TIP3    H230251   5.186   3.581   7.185 -2.5611 -3.1973  0.4450
 2898TIP3   OH230252   6.089   1.558   8.675  0.2423 -0.2401 -0.1898
 2898TIP3    H130253   6.108   1.468   8.699 -0.6224 -0.6384 -0.9544
 2898TIP3    H230254   6.091   1.559   8.579  0.4154  0.5870 -0.1863
 2899TIP3   OH230255   3.695   0.168   1.800 -0.3174 -0.2256 -0.2729
 2899TIP3    H130256   3.696   0.079   1.765  0.5480  0.0640 -1.0303
 2899TIP3    H230257   3.603   0.194   1.798 -0.3585 -0.3737 -1.9937
 2900TIP3   OH230258   3.928   3.671   1.411 -0.0508  0.0090 -0.4162
 2900TIP3    H130259   3.904   3.735   1.344 -0.8592  0.6430  0.4456
 2900TIP3    H230260   3.997   3.713   1.462 -1.8667  1.0702  1.3377
 2901TIP3   OH230261   5.587   2.913   0.783 -0.5505 -0.1957  0.2519
 2901TIP3    H130262   5.669   2.894   0.828 -0.7407  0.1380  0.7536
 2901TIP3    H230263   5.580   2.845   0.716  1.1681  0.9755 -1.2066
 2902TIP3   OH230264   6.208   1.859   8.286 -0.6582 -0.1379  0.6274
 2902TIP3    H130265   6.197   1.946   8.249  0.4659  0.1984  1.0568
 2902TIP3    H230266   6.125   1.815   8.268 -0.7039  0.5211 -0.9078
 2903TIP3   OH230267   1.782   0.355   6.461  0.1256  0.4731 -0.2301
 2903TIP3    H130268   1.699   0.307   6.460  0.5414 -0.2871 -1.6674
 2903TIP3    H230269   1.831   0.317   6.534 -0.9134  1.2010  0.8794
 2904TIP3   OH230270   2.850   2.889   7.329 -0.3212  0.2321 -0.0918
 2904TIP3    H130271   2.773   2.852   7.371 -2.1965  0.8380 -2.7398
 2904TIP3    H230272   2.874   2.964   7.384  0.2182 -1.5811  2.3211
 2905TIP3   OH230273   5.729   6.662   0.469  0.8077 -0.2901 -0.1834
 2905TIP3    H130274   5.815   6.669   0.427  1.7053 -0.5644  1.5163
 2905TIP3    H230275   5.743   6.694   0.558 -0.9363 -0.0807  0.0580
 2906TIP3   OH230276   5.730   6.260   1.350 -0.2773 -0.7550  0.2813
 2906TIP3    H130277   5.797   6.238   1.416 -1.2245  0.4803  1.7318
 2906TIP3    H230278   5.647   6.253   1.397 -0.9451  0.7954 -0.5864
 2907TIP3   OH230279   6.524   3.669   7.129  0.2780  0.5690 -0.4133
 2907TIP3    H130280   6.518   3.576   7.148 -2.7197  0.5402 -0.9947
 2907TIP3    H230281   6.528   3.674   7.033 -0.1341  1.0376 -0.4107
 2908TIP3   OH230282   4.777   4.470   1.083 -0.2103 -0.1849  0.3302
 2908TIP3    H130283   4.747   4.559   1.105 -1.4436 -0.6367  0.5642
 2908TIP3    H230284   4.803   4.476   0.991 -0.3616  0.4032  0.3201
 2909TIP3   OH230285   4.909   6.512   1.121 -0.0313 -0.1787  0.0414
 2909TIP3    H130286   4.901   6.453   1.196  0.9032  0.1475  0.4174
 2909TIP3    H230287   4.971   6.468   1.063 -0.6146 -0.3440 -0.4738
 2910TIP3   OH230288   0.690   4.645   8.369 -0.0730  0.1057  0.3346
 2910TIP3    H130289   0.693   4.550   8.368  1.6154  0.1190 -0.9809
 2910TIP3    H230290   0.631   4.668   8.297  0.0205  0.0428  0.2360
 2911TIP3   OH230291   5.628   5.604   1.929  0.2659 -0.4005 -0.6187
 2911TIP3    H130292   5.700   5.542   1.934  0.9350  0.4612  2.1351
 2911TIP3    H230293   5.589   5.603   2.016 -1.3481  1.1708 -1.2476
 2912TIP3   OH230294   3.214   2.898   8.063 -0.1470  0.6646 -0.2337
 2912TIP3    H130295   3.238   2.881   8.154  3.4699  0.5213 -1.0720
 2912TIP3    H230296   3.175   2.986   8.064 -1.4440  0.1291  1.5590
 2913TIP3   OH230297   2.158   1.452   1.793  0.2547  0.2216  0.0437
 2913TIP3    H130298   2.116   1.538   1.797  0.2832  0.2505 -0.2233
 2913TIP3    H230299   2.085   1.389   1.795  0.1046  0.2959 -1.5527
 2914TIP3   OH230300   4.633   2.746   2.040 -0.2202  0.2208 -1.0005
 2914TIP3    H130301   4.627   2.758   1.946  0.3408 -0.9761 -1.2103
 2914TIP3    H230302   4.587   2.664   2.058 -2.7102  1.7479  0.1697
 2915TIP3   OH230303   6.076   5.142   7.577 -0.0380  0.5256  0.0953
 2915TIP3    H130304   6.106   5.198   7.506 -0.7172  0.7050 -0.0591
 2915TIP3    H230305   6.048   5.061   7.534 -0.1427  0.5109  0.1886
 2916TIP3   OH230306   0.476   6.282   8.707 -0.5152 -0.3201  0.6865
 2916TIP3    H130307   0.519   6.202   8.738  1.4095  0.9432  1.4740
 2916TIP3    H230308   0.509   6.293   8.618 -0.9878 -0.5319  0.4828
 2917TIP3   OH230309   1.564   0.086   7.571  0.3033  0.1297 -0.4209
 2917TIP3    H130310   1.548   0.150   7.641  1.2819 -0.2057  0.1238
 2917TIP3    H230311   1.645   0.116   7.530 -0.6399  0.7427 -1.9169
 2918TIP3   OH230312   3.240   3.028   0.047 -0.0041  0.0018 -0.4928
 2918TIP3    H130313   3.145   3.038   0.047 -0.0789 -0.4714 -1.7563
 2918TIP3    H230314   3.266   3.053  -0.042  1.0943  0.4426 -0.0564
 2919TIP3   OH230315   5.448   6.677   1.213  0.2455 -0.2234  0.4074
 2919TIP3    H130316   5.410   6.698   1.128  1.5113  1.5342  0.2049
 2919TIP3    H230317   5.375   6.680   1.274 -0.7080 -1.6544 -0.6045
 2920TIP3   OH230318   5.139   1.725   0.758  0.2803 -0.2723  0.4567
 2920TIP3    H130319   5.073   1.776   0.710  0.0521 -0.8200  0.1823
 2920TIP3    H230320   5.089   1.674   0.821  0.7024  1.6971  2.5046
 2921TIP3   OH230321   5.842   2.908   0.873 -0.2477  0.8933  0.0299
 2921TIP3    H130322   5.906   2.905   0.943 -0.5965 -1.0994  0.3251
 2921TIP3    H230323   5.894   2.919   0.793  0.3861  0.4763  0.3763
 2922TIP3   OH230324   5.022   1.045   8.273 -0.0504 -0.0942 -0.2080
 2922TIP3    H130325   5.039   1.062   8.181  1.2308 -0.8781 -0.1409
 2922TIP3    H230326   4.962   1.115   8.300  0.7026  0.9927 -1.2683
 2923TIP3   OH230327   5.075   3.940   2.034 -0.0187  0.3564 -0.1959
 2923TIP3    H130328   5.042   3.868   2.087  1.2624 -0.5798 -0.6065
 2923TIP3    H230329   5.129   3.992   2.094  0.8030 -0.2635 -0.3845
 2924TIP3   OH230330   3.923   6.650   7.795  0.7760 -0.0552 -0.2962
 2924TIP3    H130331   3.960   6.689   7.874  0.8872  0.5100 -0.6260
 2924TIP3    H230332   3.895   6.724   7.742  2.8286 -0.2924 -1.8281
 2925TIP3   OH230333   3.555   0.350   0.679 -0.1672  0.4070 -0.0937
 2925TIP3    H130334   3.546   0.317   0.590  0.9299  2.1384 -0.8999
 2925TIP3    H230335   3.647   0.374   0.687  0.1159 -1.0759  2.0518
 2926TIP3   OH230336   1.737   5.979   0.919 -0.0298  0.2541 -0.4115
 2926TIP3    H130337   1.820   5.946   0.954 -0.1753 -0.5185 -0.7815
 2926TIP3    H230338   1.680   5.986   0.995 -0.9753 -3.2488 -0.6101
 2927TIP3   OH230339   3.457   3.253   0.832  0.1212 -0.0397  0.1423
 2927TIP3    H130340   3.514   3.253   0.909  1.8249 -0.8441 -1.0415
 2927TIP3    H230341   3.491   3.324   0.777 -0.5583  0.0069 -0.2283
 2928TIP3   OH230342   4.129   2.894   8.395  0.1037  0.1046  0.0900
 2928TIP3    H130343   4.223   2.903   8.406  0.0835  1.0260 -0.4117
 2928TIP3    H230344   4.093   2.907   8.483  0.2655  2.7517 -0.1570
 2929TIP3   OH230345   1.182   3.508   7.490  0.4733  0.7100 -0.3964
 2929TIP3    H130346   1.100   3.551   7.466 -0.3826 -0.9656 -0.6570
 2929TIP3    H230347   1.182   3.507   7.586 -1.1148 -1.4743 -0.3359
 2930TIP3   OH230348   3.648   0.482   6.932 -0.3360  0.5780  0.4573
 2930TIP3    H130349   3.686   0.454   7.015  1.0774  0.3615 -0.2326
 2930TIP3    H230350   3.580   0.417   6.914  2.0341 -1.8519 -0.4958
 2931TIP3   OH230351   0.155   6.452   1.336  0.3046 -0.3928  0.1450
 2931TIP3    H130352   0.118   6.536   1.308  0.3874  0.0326  1.2669
 2931TIP3    H230353   0.165   6.460   1.431  0.7852 -1.4900  0.2068
 2932TIP3   OH230354   1.174   6.447   1.148  0.0974 -0.0224 -0.2962
 2932TIP3    H130355   1.090   6.422   1.187 -0.3711 -1.0274 -1.8899
 2932TIP3    H230356   1.227   6.475   1.223 -1.0765 -0.9850  0.9447
 2933TIP3   OH230357   0.827   2.388   0.238  0.6666 -0.1606 -0.6138
 2933TIP3    H130358   0.890   2.317   0.226  2.0226  1.1324 -1.4567
 2933TIP3    H230359   0.813   2.424   0.150  0.0625  0.6697 -0.1994
 2934TIP3   OH230360   3.671   0.843   0.282  0.2525  0.1658  0.0503
 2934TIP3    H130361   3.723   0.890   0.348  1.8376  0.2172 -1.1863
 2934TIP3    H230362   3.615   0.785   0.334  1.3422  0.3103  1.4752
 2935TIP3   OH230363   2.949   2.233   7.103 -0.9737 -0.0429 -0.5700
 2935TIP3    H130364   3.005   2.278   7.166 -2.1209  1.7255 -0.7368
 2935TIP3    H230365   3.009   2.205   7.034 -0.0646  0.3096  0.0537
 2936TIP3   OH230366   6.007   3.953   0.386  0.0238  0.1409  0.0987
 2936TIP3    H130367   6.026   3.869   0.428 -0.1788  0.6486  1.2224
 2936TIP3    H230368   5.914   3.967   0.400  0.0998  0.6565  0.1041
 2937TIP3   OH230369   4.815   4.590   0.277 -0.5426  0.5534 -0.1514
 2937TIP3    H130370   4.895   4.545   0.304 -1.5346 -1.1709  0.0353
 2937TIP3    H230371   4.818   4.592   0.182 -0.3068  0.4261 -0.1456
 2938TIP3   OH230372   6.462   4.768   1.032 -0.1253 -0.2137 -0.0954
 2938TIP3    H130373   6.518   4.791   1.106 -0.1628  1.7179 -0.5963
 2938TIP3    H230374   6.458   4.673   1.033 -1.0092 -0.2600  3.0675
 2939TIP3   OH230375   4.522   2.795   6.493  0.3857 -0.4893 -0.3160
 2939TIP3    H130376   4.599   2.849   6.507 -0.1133 -0.1237  1.3135
 2939TIP3    H230377   4.524   2.772   6.400  0.0982  3.1121 -1.3508
 2940TIP3   OH230378   4.101   6.504   1.265 -0.3147  0.0351 -0.2025
 2940TIP3    H130379   4.030   6.476   1.207  1.5670 -2.2613 -1.6026
 2940TIP3    H230380   4.107   6.599   1.251 -1.6034 -0.0708 -1.8189
 2941TIP3   OH230381   4.281   6.103   8.824  0.2378 -0.0700  0.2214
 2941TIP3    H130382   4.347   6.036   8.806  0.9990  1.5465 -3.9634
 2941TIP3    H230383   4.331   6.184   8.832 -1.0040  0.6853  0.5879
 2942TIP3   OH230384   5.138   2.162   7.893 -0.7275 -0.5105 -0.0332
 2942TIP3    H130385   5.177   2.241   7.933 -1.1563 -0.3761  0.1324
 2942TIP3    H230386   5.212   2.111   7.862 -0.2986 -1.0406  1.7299
 2943TIP3   OH230387   6.521   0.040   2.165  0.0390  0.2225  0.6856
 2943TIP3    H130388   6.583   0.110   2.146  0.7245 -0.6564 -0.4619
 2943TIP3    H230389   6.479   0.066   2.247 -0.0018  2.1456  0.1067
 2944TIP3   OH230390   1.936   0.259   7.219 -0.0580 -0.0544  0.2511
 2944TIP3    H130391   1.973   0.327   7.276  1.5858 -1.2273  0.6763
 2944TIP3    H230392   1.942   0.295   7.131 -0.7210  0.9848  0.6272
 2945TIP3   OH230393   3.705   1.984   7.295 -0.0689  0.0424 -0.0023
 2945TIP3    H130394   3.670   1.991   7.206  1.2367  1.5683 -0.4502
 2945TIP3    H230395   3.781   2.043   7.295  1.5484 -1.8809  1.3434
 2946TIP3   OH230396   6.450   6.571   7.903  0.3043  0.0255  0.0572
 2946TIP3    H130397   6.422   6.511   7.972 -0.9493 -0.3511 -0.7522
 2946TIP3    H230398   6.431   6.525   7.821  2.0866  0.3106 -0.5697
 2947TIP3   OH230399   2.941   1.146   8.248  0.0131 -0.8678 -0.0345
 2947TIP3    H130400   2.974   1.175   8.162 -1.4456  1.0769 -0.0162
 2947TIP3    H230401   2.878   1.077   8.227 -1.1363  0.3380 -0.6472
 2948TIP3   OH230402   5.540   0.828   0.575 -0.1813 -0.4179  0.7161
 2948TIP3    H130403   5.486   0.785   0.509 -0.4215 -1.5586  1.6129
 2948TIP3    H230404   5.566   0.757   0.634 -0.1253  0.5851  1.9417
 2949TIP3   OH230405   1.905   4.632   7.279 -0.3022  1.0155  0.6222
 2949TIP3    H130406   1.862   4.605   7.198 -0.0637 -1.2207  1.1949
 2949TIP3    H230407   1.932   4.723   7.262 -1.7414  1.1649 -1.1556
 2950TIP3   OH230408   4.143   3.683   8.641  0.4010  0.1909 -0.3637
 2950TIP3    H130409   4.155   3.602   8.592  0.1626  1.1572 -2.1098
 2950TIP3    H230410   4.232   3.712   8.663  0.4574 -1.2620  1.6314
 2951TIP3   OH230411   3.545   3.496   0.729 -0.0961 -0.1965 -0.5200
 2951TIP3    H130412   3.545   3.587   0.757 -1.2009 -0.3915  0.1735
 2951TIP3    H230413   3.636   3.478   0.704  0.1612  1.0371 -0.5203
 2952TIP3   OH230414   6.109   3.030   0.984  0.0388  0.0385  0.3086
 2952TIP3    H130415   6.130   2.968   1.054  0.1108 -1.3100 -0.8561
 2952TIP3    H230416   6.166   3.105   1.000  1.4443 -1.0522  0.5974
 2953TIP3   OH230417   6.567   2.167   1.426  0.1233  0.2130 -0.8667
 2953TIP3    H130418   6.653   2.190   1.391 -0.1954  1.1622 -1.0628
 2953TIP3    H230419   6.526   2.252   1.446 -0.2273 -0.2554  0.5178
 2954TIP3   OH230420   3.666   5.164   0.464  0.5903  0.2799 -0.0387
 2954TIP3    H130421   3.624   5.095   0.414 -1.4642  0.6267  1.1123
 2954TIP3    H230422   3.605   5.237   0.461  0.8120  0.6156  2.1717
 2955TIP3   OH230423   3.782   2.283   1.767 -0.8458  0.6584  0.0814
 2955TIP3    H130424   3.723   2.322   1.703 -3.4811  0.1123  2.0283
 2955TIP3    H230425   3.742   2.199   1.789  0.1660  0.6531  2.1534
 2956TIP3   OH230426   6.654   6.587   0.323  0.1655  0.2352 -0.0098
 2956TIP3    H130427   6.704   6.556   0.398 -0.1579 -0.0451  0.0898
 2956TIP3    H230428   6.584   6.641   0.361 -0.6989 -0.8428 -0.0273
 2957TIP3   OH230429   6.614   6.647   6.659  0.7181 -0.8309  0.2360
 2957TIP3    H130430   6.679   6.702   6.617 -0.3676  0.7736  0.5797
 2957TIP3    H230431   6.593   6.581   6.593  1.0264  0.0065 -0.7242
 2958TIP3   OH230432   1.559   6.322   8.182  0.6783 -0.3740  0.3823
 2958TIP3    H130433   1.503   6.273   8.242 -0.4915  0.2333 -0.1936
 2958TIP3    H230434   1.624   6.258   8.152 -0.3370 -1.3706  0.2598
 2959TIP3   OH230435   0.639   0.736   0.465  0.2517  0.6179 -0.9012
 2959TIP3    H130436   0.730   0.741   0.435  0.0854 -0.0757 -1.5435
 2959TIP3    H230437   0.591   0.699   0.391 -0.4014  0.1298 -0.2492
 2960TIP3   OH230438   5.801   4.203   7.692 -0.7632  0.0392 -0.2616
 2960TIP3    H130439   5.839   4.119   7.716 -0.2659  0.5488  0.7756
 2960TIP3    H230440   5.807   4.206   7.596 -0.1382 -0.7919 -0.2491
 2961TIP3   OH230441   0.764   2.646   1.537 -0.0923  0.0750  0.0724
 2961TIP3    H130442   0.704   2.662   1.464  0.4526  1.2418 -0.1318
 2961TIP3    H230443   0.767   2.728   1.586 -0.0484 -0.5297  1.1279
 2962TIP3   OH230444   6.411   0.327   6.486  0.4378 -0.1410  0.0315
 2962TIP3    H130445   6.484   0.268   6.505 -1.0019 -2.2372 -0.5422
 2962TIP3    H230446   6.351   0.316   6.560 -0.3136 -0.2000 -0.5654
 2963TIP3   OH230447   5.781   6.552   8.338 -0.0767 -0.3590 -0.0982
 2963TIP3    H130448   5.699   6.577   8.295 -0.4113  0.6220  1.0370
 2963TIP3    H230449   5.755   6.534   8.429  0.8627 -0.6771  0.1187
 2964TIP3   OH230450   0.355   4.066   2.267 -0.2742  0.0942  0.3710
 2964TIP3    H130451   0.384   4.121   2.339  2.6886 -0.6396 -0.1518
 2964TIP3    H230452   0.412   3.990   2.269 -0.9325 -0.5605 -1.9735
 2965TIP3   OH230453   1.019   0.400   7.520 -0.1196  0.6651 -0.4336
 2965TIP3    H130454   1.098   0.455   7.515  0.0616  0.3506 -1.1802
 2965TIP3    H230455   1.051   0.313   7.542 -0.4179  0.8542  0.8527
 2966TIP3   OH230456   6.353   6.186   7.886 -0.2515 -0.4010  0.0658
 2966TIP3    H130457   6.307   6.102   7.886 -0.2644 -0.3934  0.3983
 2966TIP3    H230458   6.293   6.246   7.930 -0.3105 -0.1775 -0.3108
 2967TIP3   OH230459   3.222   3.352   0.959  0.2043  0.0801  0.4035
 2967TIP3    H130460   3.191   3.268   0.991  1.2951 -0.6733 -0.4348
 2967TIP3    H230461   3.300   3.331   0.907  0.7527  1.6486  0.5311
 2968TIP3   OH230462   2.785   3.793   7.097  0.0645 -0.3792  0.0640
 2968TIP3    H130463   2.870   3.748   7.101  0.3515  0.0617 -0.7277
 2968TIP3    H230464   2.725   3.727   7.061 -0.0863 -0.8962  1.2302
 2969TIP3   OH230465   4.465   0.251   7.105  0.2284 -0.0152 -0.0049
 2969TIP3    H130466   4.474   0.290   7.191 -0.1876  2.3335 -0.9472
 2969TIP3    H230467   4.374   0.221   7.101 -0.1533  1.1086 -0.0708
 2970TIP3   OH230468   1.471   5.805   7.730 -0.0628  0.1154 -0.0745
 2970TIP3    H130469   1.465   5.741   7.802  1.3199 -0.5064 -0.4889
 2970TIP3    H230470   1.537   5.769   7.671 -0.1683  1.3191 -0.9581
 2971TIP3   OH230471   4.632   5.476   6.586 -0.6317  0.1726  0.6002
 2971TIP3    H130472   4.569   5.464   6.656 -0.4227  2.9560  1.4048
 2971TIP3    H230473   4.714   5.496   6.631  0.1589 -0.5847 -0.4527
 2972TIP3   OH230474   2.765   4.683   7.618 -0.3868  0.1087  0.2164
 2972TIP3    H130475   2.747   4.602   7.571  1.8928 -0.2098 -0.2031
 2972TIP3    H230476   2.823   4.732   7.560  0.2857  0.9382  1.5419
 2973TIP3   OH230477   0.694   2.739   8.355 -0.1677 -0.3164  0.7493
 2973TIP3    H130478   0.737   2.824   8.364  0.5931 -0.7034  0.8557
 2973TIP3    H230479   0.720   2.709   8.268 -0.1419 -0.5940  0.8527
 2974TIP3   OH230480   6.391   2.516   7.511  0.2089  0.0440  0.1556
 2974TIP3    H130481   6.356   2.469   7.435  2.6683  0.8043 -1.5855
 2974TIP3    H230482   6.376   2.608   7.491  2.3171  0.3471 -0.2746
 2975TIP3   OH230483   5.824   4.900   0.595  0.5236 -0.1964 -0.9103
 2975TIP3    H130484   5.870   4.822   0.626 -0.0710 -0.2107 -0.0344
 2975TIP3    H230485   5.885   4.972   0.613  0.4619 -0.2870 -0.3046
 2976TIP3   OH230486   2.852   1.401   7.692  0.2374 -0.6414 -0.0692
 2976TIP3    H130487   2.878   1.309   7.699  1.6903 -0.2664 -0.2972
 2976TIP3    H230488   2.915   1.439   7.632 -2.0564 -0.1158 -2.3367
 2977TIP3   OH230489   1.733   6.139   8.078 -0.4622 -0.0724  0.1042
 2977TIP3    H130490   1.739   6.120   7.984 -0.8271 -1.2593  0.3079
 2977TIP3    H230491   1.812   6.100   8.115 -0.2183  0.5713  0.2723
 2978TIP3   OH230492   3.338   2.319   1.240  0.4555 -0.4186 -0.4198
 2978TIP3    H130493   3.360   2.407   1.273  1.7653 -0.1034 -2.0305
 2978TIP3    H230494   3.384   2.312   1.157 -0.1394 -2.4186 -0.6327
 2979TIP3   OH230495   4.736   1.517   0.969  0.1238 -0.0166  0.3490
 2979TIP3    H130496   4.677   1.592   0.977 -0.2397 -0.1641 -0.8665
 2979TIP3    H230497   4.821   1.555   0.948 -0.3884  0.0135 -1.8860
 2980TIP3   OH230498   3.288   5.278   0.060  0.0093  0.5265 -0.2715
 2980TIP3    H130499   3.307   5.345  -0.006 -0.1912  0.7088 -0.1454
 2980TIP3    H230500   3.355   5.291   0.127  1.7555 -1.2049 -1.5357
 2981TIP3   OH230501   1.683   6.171   0.296 -0.0688 -0.1748  0.6305
 2981TIP3    H130502   1.734   6.238   0.251  0.7191 -0.5693  0.9205
 2981TIP3    H230503   1.726   6.088   0.272  0.1811 -0.4155  1.8550
 2982TIP3   OH230504   1.838   6.567   7.217  0.0669  0.1029 -0.2338
 2982TIP3    H130505   1.792   6.544   7.137 -2.0818 -1.2087  1.2882
 2982TIP3    H230506   1.917   6.612   7.187 -1.3094  0.8741 -3.0206
 2983TIP3   OH230507   3.625   5.602   1.530  0.9142 -0.2797 -0.5029
 2983TIP3    H130508   3.657   5.538   1.467  0.8994 -1.2735  0.4763
 2983TIP3    H230509   3.705   5.638   1.569  0.9063 -1.0091  0.2138
 2984TIP3   OH230510   3.361   4.463   1.187  0.4059  0.2073 -0.1531
 2984TIP3    H130511   3.280   4.504   1.157  1.0360 -0.2752 -2.7885
 2984TIP3    H230512   3.429   4.528   1.169  0.7104  0.3859  1.5110
 2985TIP3   OH230513   5.401   3.041   0.930  0.1149 -1.1056  0.1754
 2985TIP3    H130514   5.430   3.011   1.016 -1.0430 -3.9481 -0.2829
 2985TIP3    H230515   5.458   2.996   0.868 -0.6427 -1.1056 -0.5507
 2986TIP3   OH230516   2.722   1.577   8.052  0.2742 -0.1150  0.5483
 2986TIP3    H130517   2.647   1.621   8.092 -0.4771  0.7519 -1.6818
 2986TIP3    H230518   2.784   1.565   8.124 -1.3127  0.6501  2.1017
 2987TIP3   OH230519   2.903   3.517   1.847 -0.3636  0.1396 -0.8356
 2987TIP3    H130520   2.985   3.560   1.870 -0.8338 -0.2653  1.8893
 2987TIP3    H230521   2.835   3.576   1.879 -1.0531 -1.1996  0.2394
 2988TIP3   OH230522   0.507   6.669   0.238  0.2142 -0.3957  0.2169
 2988TIP3    H130523   0.548   6.583   0.247 -0.5602 -0.7291  0.6666
 2988TIP3    H230524   0.537   6.702   0.153  0.1480 -1.3088 -0.1683
 2989TIP3   OH230525   4.717   4.201   1.500  0.0117  0.1862 -0.1378
 2989TIP3    H130526   4.762   4.234   1.422  1.5226  2.2736  1.5013
 2989TIP3    H230527   4.624   4.202   1.475  0.5109 -0.0714 -2.1855
 2990TIP3   OH230528   2.801   2.355   7.973  0.1043 -0.0510  0.0069
 2990TIP3    H130529   2.836   2.359   7.884 -0.2924  0.7650 -0.1242
 2990TIP3    H230530   2.859   2.295   8.019  1.5417  1.0780 -0.2606
 2991TIP3   OH230531   3.905   0.448   8.334 -0.6202 -0.3166  0.3199
 2991TIP3    H130532   3.929   0.364   8.373 -0.6873  0.1682  1.4666
 2991TIP3    H230533   3.814   0.461   8.359 -0.7142 -0.0698 -0.1493
 2992TIP3   OH230534   0.655   5.457   0.687  0.2055  0.1303 -0.2896
 2992TIP3    H130535   0.714   5.456   0.612  0.6002  0.2903  0.0135
 2992TIP3    H230536   0.639   5.365   0.706  2.1981 -0.0284  1.0329
 2993TIP3   OH230537   0.772   4.497   8.086 -0.0431  0.7054 -0.4407
 2993TIP3    H130538   0.861   4.504   8.050  0.5499  0.4952  0.9323
 2993TIP3    H230539   0.752   4.403   8.083  0.8281  0.4143  1.6129
 2994TIP3   OH230540   3.555   4.843   2.362  0.2502 -0.4703 -0.5903
 2994TIP3    H130541   3.606   4.888   2.430  0.4225 -1.7256  0.1255
 2994TIP3    H230542   3.546   4.909   2.293 -0.2875  0.9944  0.7953
 2995TIP3   OH230543   0.142   1.767   7.930  0.4123  0.1570  0.2475
 2995TIP3    H130544   0.186   1.812   8.003  2.8982  0.1868 -1.1343
 2995TIP3    H230545   0.138   1.675   7.957 -1.5241  0.5836  1.6362
 2996TIP3   OH230546   4.280   0.821   1.378 -1.2394  0.0553  0.1511
 2996TIP3    H130547   4.341   0.845   1.309 -0.1267 -2.0929  0.3238
 2996TIP3    H230548   4.320   0.746   1.421 -2.1069  1.0338  2.8801
 2997TIP3   OH230549   4.701   5.476   7.077  0.0023 -0.9432 -0.4509
 2997TIP3    H130550   4.725   5.558   7.121 -0.8351  0.3611 -2.2814
 2997TIP3    H230551   4.689   5.500   6.986 -0.6994 -3.0506 -0.9797
 2998TIP3   OH230552   1.542   3.287   8.015 -0.8445 -0.0386  0.3068
 2998TIP3    H130553   1.625   3.242   8.005 -0.7203  0.4801 -1.1133
 2998TIP3    H230554   1.551   3.367   7.963 -2.4182 -0.2365 -0.3185
 2999TIP3   OH230555   3.473   1.843   7.988  0.3849  0.0785 -0.5579
 2999TIP3    H130556   3.418   1.908   8.031  0.3662  0.7425 -1.5622
 2999TIP3    H230557   3.520   1.801   8.060  1.1144  1.8482  0.0551
 3000TIP3   OH230558   5.738   6.639   6.821  0.7789 -0.3956 -0.1561
 3000TIP3    H130559   5.814   6.589   6.792 -1.3923 -3.5563 -0.8573
 3000TIP3    H230560   5.675   6.632   6.750 -0.9245  0.4474  1.1882
 3001TIP3   OH230561   2.208   5.676   7.750 -0.8527 -0.3002 -0.2052
 3001TIP3    H130562   2.185   5.658   7.658  0.8322  0.0556 -0.7209
 3001TIP3    H230563   2.285   5.731   7.745  0.0000 -1.2734  1.4451
 3002TIP3   OH230564   4.171   0.049   7.556  0.3008  0.2097  0.1778
 3002TIP3    H130565   4.191  -0.020   7.493  0.2454 -0.5354  0.9592
 3002TIP3    H230566   4.082   0.077   7.535  0.9932  1.4149 -1.3710
 3003TIP3   OH230567   3.771   4.597   6.549  0.0155  0.0019 -0.6319
 3003TIP3    H130568   3.803   4.666   6.491 -0.0290 -1.6057 -2.6655
 3003TIP3    H230569   3.679   4.619   6.564  0.3626  1.1507 -0.0162
 3004TIP3   OH230570   4.733   5.095   1.124  0.2056 -0.7315 -1.0156
 3004TIP3    H130571   4.828   5.101   1.138  0.0991  0.2556 -0.6355
 3004TIP3    H230572   4.703   5.031   1.189  0.2928  0.7619  0.5486
 3005TIP3   OH230573   5.319   2.864   7.753 -0.0689 -0.2240 -0.4700
 3005TIP3    H130574   5.271   2.945   7.737 -0.7856 -0.4186  0.5707
 3005TIP3    H230575   5.290   2.804   7.685  0.2392  0.2909 -1.0630
 3006TIP3   OH230576   0.683   3.653   7.352 -0.3740 -0.2632 -0.7664
 3006TIP3    H130577   0.697   3.745   7.330  0.3319  0.2050  1.3838
 3006TIP3    H230578   0.588   3.644   7.361 -0.4039  0.4473 -0.3023
 3007TIP3   OH230579   4.195   4.047   0.004 -0.3146  0.6176  0.3304
 3007TIP3    H130580   4.143   4.100   0.065 -1.4658  0.1060 -0.1707
 3007TIP3    H230581   4.246   3.989   0.061  0.7155  2.0055  0.8686
 3008TIP3   OH230582   4.006   2.460   7.790 -0.1642  0.4695 -0.0816
 3008TIP3    H130583   3.988   2.503   7.707 -0.1421 -1.9428 -1.4223
 3008TIP3    H230584   4.086   2.409   7.774 -0.1494 -0.0271  1.4230
 3009TIP3   OH230585   3.159   4.422   8.341  0.1257  0.0919 -0.3369
 3009TIP3    H130586   3.245   4.381   8.338 -0.5098 -1.2082 -1.4347
 3009TIP3    H230587   3.115   4.382   8.416  0.9755  1.8947  1.2195
 3010TIP3   OH230588   2.274   4.377   0.216  0.1686 -0.6428  0.0984
 3010TIP3    H130589   2.288   4.305   0.154  1.2101 -0.0864 -0.3509
 3010TIP3    H230590   2.307   4.455   0.170  0.9601 -0.2107  1.3436
 3011TIP3   OH230591   5.870   3.177   6.342 -0.6491  0.3517 -0.1529
 3011TIP3    H130592   5.831   3.248   6.290 -0.8439  0.5267  0.2288
 3011TIP3    H230593   5.834   3.097   6.304 -0.2236  0.4404 -0.7569
 3012TIP3   OH230594   6.480   2.089   2.424 -0.3878  0.0025  0.3034
 3012TIP3    H130595   6.411   2.154   2.438  0.3212  0.7014  0.6401
 3012TIP3    H230596   6.452   2.013   2.475 -0.3159  0.7206  1.4510
 3013TIP3   OH230597   1.425   3.959   7.963  0.3707  0.1309  0.9885
 3013TIP3    H130598   1.382   4.024   8.018 -0.0411  0.0089  0.8148
 3013TIP3    H230599   1.427   3.998   7.876 -0.9136 -0.5428  0.6327
 3014TIP3   OH230600   5.849   1.577   2.112  0.1503  0.1450 -0.3200
 3014TIP3    H130601   5.881   1.493   2.146  0.6260  0.6768  0.5705
 3014TIP3    H230602   5.872   1.641   2.179  1.1122  1.2371 -1.6226
 3015TIP3   OH230603   5.958   0.300   7.248 -0.4321 -0.4491  0.6485
 3015TIP3    H130604   6.009   0.375   7.278 -1.8582 -0.0510  2.2216
 3015TIP3    H230605   5.996   0.225   7.294  0.6282 -0.6447 -0.4935
 3016TIP3   OH230606   3.913   5.482   0.424 -0.4185 -0.0780 -1.0366
 3016TIP3    H130607   3.993   5.459   0.471 -0.3768  0.2223 -0.9564
 3016TIP3    H230608   3.901   5.411   0.361 -0.5301 -0.5381 -0.5088
 3017TIP3   OH230609   5.806   5.812   2.178  0.0856  0.2414  0.3638
 3017TIP3    H130610   5.725   5.789   2.223  0.3495  0.3677  0.9045
 3017TIP3    H230611   5.784   5.890   2.127 -0.8830 -1.2594 -1.6667
 3018TIP3   OH230612   5.231   1.127   2.241 -0.0614  0.4600 -0.5236
 3018TIP3    H130613   5.315   1.168   2.263 -0.2265  0.1914  0.6883
 3018TIP3    H230614   5.167   1.175   2.293 -0.3034 -1.0640  0.6752
 3019TIP3   OH230615   1.114   0.538   0.276 -0.5029  0.6851  0.1189
 3019TIP3    H130616   1.081   0.494   0.198  1.4950 -0.2344 -0.2704
 3019TIP3    H230617   1.145   0.623   0.245  0.1910  0.3638 -0.0621
 3020TIP3   OH230618   5.834   3.937   0.940  0.2653  0.0041 -0.1445
 3020TIP3    H130619   5.752   3.985   0.931  0.2082  0.1817  1.1143
 3020TIP3    H230620   5.853   3.904   0.852 -0.3254  1.3035 -0.7786
 3021TIP3   OH230621   0.989   1.926   8.426 -0.1650  0.3078 -0.0214
 3021TIP3    H130622   0.942   1.888   8.352  1.9457 -3.0228  0.1288
 3021TIP3    H230623   1.081   1.908   8.407  0.4797 -0.4256  3.2153
 3022TIP3   OH230624   2.231   2.033   0.339  0.7192 -0.2701 -0.1892
 3022TIP3    H130625   2.136   2.025   0.336  0.5020  1.3325  1.0369
 3022TIP3    H230626   2.247   2.126   0.349  2.3251 -0.6911  1.7421
 3023TIP3   OH230627   3.601   0.549   8.795 -0.2178 -0.2512 -0.1077
 3023TIP3    H130628   3.547   0.604   8.739 -0.8007 -1.4809 -0.7908
 3023TIP3    H230629   3.602   0.464   8.752  0.2712 -0.9185  1.1604
 3024TIP3   OH230630   2.982   2.084   7.547  0.3324  0.0454  0.1995
 3024TIP3    H130631   3.005   2.161   7.494 -0.2682 -0.4085 -0.7351
 3024TIP3    H230632   3.012   2.010   7.495 -2.1109 -0.5202 -0.5213
 3025TIP3   OH230633   1.410   3.994   2.130 -0.1281  0.0351 -0.6966
 3025TIP3    H130634   1.337   4.049   2.103 -0.2192  0.1997 -0.1284
 3025TIP3    H230635   1.429   4.022   2.220  1.6195  1.0715 -1.3333
 3026TIP3   OH230636   5.027   1.506   6.141 -0.1762 -0.3640  0.1462
 3026TIP3    H130637   5.119   1.492   6.119 -0.5185 -0.6344 -1.1931
 3026TIP3    H230638   5.027   1.587   6.192  1.0787 -1.6483  2.3484
 3027TIP3   OH230639   2.846   5.599   1.892 -0.0802  0.0352 -0.1643
 3027TIP3    H130640   2.937   5.605   1.919  0.1722  2.0317 -1.2669
 3027TIP3    H230641   2.846   5.536   1.820  0.0114 -1.6724  1.2609
 3028TIP3   OH230642   6.094   6.648   0.955 -0.3465 -0.6112 -0.2636
 3028TIP3    H130643   6.151   6.720   0.928  1.5326 -1.2538  1.7294
 3028TIP3    H230644   6.016   6.692   0.990  0.2123  0.4191 -0.2588
 3029TIP3   OH230645   0.219   5.328   0.149  0.2100  0.8990 -0.3996
 3029TIP3    H130646   0.293   5.279   0.115  0.6790  0.9031  0.5925
 3029TIP3    H230647   0.172   5.357   0.071  1.1700  0.7766 -1.0443
 3030TIP3   OH230648   1.308   4.667   1.505 -0.6209 -0.7283  0.1447
 3030TIP3    H130649   1.262   4.727   1.447 -0.1148 -1.3107 -0.8964
 3030TIP3    H230650   1.240   4.612   1.542 -1.0747  0.3819  1.0067
 3031TIP3   OH230651   5.745   1.433   7.474 -0.2888  0.3460 -0.1332
 3031TIP3    H130652   5.735   1.361   7.411 -0.4884  1.3123 -1.2359
 3031TIP3    H230653   5.753   1.389   7.559 -1.5703 -0.9532 -0.6322
 3032TIP3   OH230654   1.754   6.654   7.786 -0.2304 -0.0086  0.0469
 3032TIP3    H130655   1.780   6.596   7.858 -0.7740 -1.0712 -0.5983
 3032TIP3    H230656   1.662   6.632   7.770 -0.2937  0.6725 -0.5637
 3033TIP3   OH230657   1.669   4.485   1.733 -0.4361  0.3359  0.1377
 3033TIP3    H130658   1.622   4.564   1.707  1.9832  2.3568  1.4376
 3033TIP3    H230659   1.743   4.480   1.671 -0.9137 -1.3386 -0.3449
 3034TIP3   OH230660   5.268   4.777   1.393 -0.0680 -0.1562  0.1175
 3034TIP3    H130661   5.174   4.764   1.409 -0.5721  1.3177 -1.3749
 3034TIP3    H230662   5.301   4.688   1.378 -1.0641 -0.7748  1.3266
 3035TIP3   OH230663   2.103   1.166   7.867 -0.2473  0.4044 -0.7842
 3035TIP3    H130664   2.194   1.140   7.883  0.3560  2.4839 -0.6133
 3035TIP3    H230665   2.053   1.122   7.935  0.5687 -1.0088 -1.0658
 3036TIP3   OH230666   5.440   0.704   6.233  0.0780 -0.3934 -0.0909
 3036TIP3    H130667   5.524   0.699   6.188  0.3818  1.4804  0.1612
 3036TIP3    H230668   5.406   0.790   6.209 -1.7449 -1.0782 -0.1159
 3037TIP3   OH230669   5.252   0.471   8.099  0.4146  0.1764  0.0041
 3037TIP3    H130670   5.343   0.460   8.072  0.3412  0.0034 -0.1731
 3037TIP3    H230671   5.257   0.491   8.193  0.6070 -0.3551  0.1086
 3038TIP3   OH230672   4.976   3.169   8.562  0.4976 -0.0917 -0.6247
 3038TIP3    H130673   4.955   3.175   8.469 -1.1196 -1.7951 -0.4356
 3038TIP3    H230674   5.048   3.231   8.575 -0.6597  1.7797 -2.5561
 3039TIP3   OH230675   4.860   3.813   6.278 -0.9691  0.7971 -0.2144
 3039TIP3    H130676   4.781   3.854   6.242 -0.3209  0.1883 -2.5239
 3039TIP3    H230677   4.827   3.750   6.342 -2.4607  0.1424 -1.5354
 3040TIP3   OH230678   2.334   0.160   2.088  0.5072 -0.0163 -0.3371
 3040TIP3    H130679   2.270   0.090   2.076  0.6981 -0.6053  1.6126
 3040TIP3    H230680   2.418   0.114   2.094  0.7512  0.4663 -0.0215
 3041TIP3   OH230681   3.385   3.924   6.736  0.3587 -0.6543  0.3627
 3041TIP3    H130682   3.341   3.879   6.664  2.0458 -2.0714  0.1317
 3041TIP3    H230683   3.383   4.016   6.711 -1.0229 -0.8640 -0.3895
 3042TIP3   OH230684   1.871   1.626   8.530  0.8852 -0.4397 -0.2605
 3042TIP3    H130685   1.801   1.602   8.468 -1.6182  0.5135  2.0066
 3042TIP3    H230686   1.875   1.721   8.524  1.4307 -0.4316  0.2450
 3043TIP3   OH230687   5.314   1.301   1.852  0.4864 -0.0148  0.3389
 3043TIP3    H130688   5.342   1.389   1.876  0.6089  0.0897 -0.1738
 3043TIP3    H230689   5.366   1.243   1.907  0.2992  0.2346  0.7848
 3044TIP3   OH230690   3.973   5.784   0.677 -0.5072  0.2793  0.0133
 3044TIP3    H130691   3.903   5.727   0.710  0.0577 -0.5904 -0.2328
 3044TIP3    H230692   4.038   5.784   0.746 -0.9212  1.4436  0.4279
 3045TIP3   OH230693   5.726   0.160   0.246 -0.1130  0.1411  0.0490
 3045TIP3    H130694   5.783   0.220   0.198 -0.3179  1.1363  1.0167
 3045TIP3    H230695   5.753   0.169   0.337  0.2336 -1.6891  0.1523
 3046TIP3   OH230696   5.366   6.483   6.758  0.6802  0.3806  0.3378
 3046TIP3    H130697   5.277   6.487   6.722  0.9313  1.5484 -0.1975
 3046TIP3    H230698   5.399   6.573   6.751  1.0556  0.5110  2.7433
 3047TIP3   OH230699   2.414   4.808   8.698 -0.5267  0.4101  0.0345
 3047TIP3    H130700   2.356   4.844   8.631  0.1757  0.0391 -0.7967
 3047TIP3    H230701   2.434   4.719   8.667 -0.7148 -0.0222  1.0784
 3048TIP3   OH230702   3.092   3.052   7.181 -0.1070 -0.2224  0.2298
 3048TIP3    H130703   3.083   2.968   7.225 -1.9663  0.1690  0.6817
 3048TIP3    H230704   3.003   3.086   7.174  0.3439  0.7260 -1.9289
 3049TIP3   OH230705   4.415   4.282   7.472  0.5751 -0.3269 -0.1294
 3049TIP3    H130706   4.383   4.198   7.439  2.2003 -1.5419  1.2102
 3049TIP3    H230707   4.357   4.303   7.545  0.5876 -0.6529 -0.0246
 3050TIP3   OH230708   1.013   2.178   0.199 -0.1014  0.0660 -0.2834
 3050TIP3    H130709   1.074   2.144   0.266 -1.5537 -1.0983  0.5042
 3050TIP3    H230710   1.070   2.214   0.132  1.4526  0.0029  0.9324
 3051TIP3   OH230711   1.414   2.572   7.952 -0.2342  0.3424 -0.3941
 3051TIP3    H130712   1.365   2.490   7.945  0.5182 -0.2619  0.9500
 3051TIP3    H230713   1.460   2.580   7.869 -0.4320 -0.5255 -0.5975
 3052TIP3   OH230714   6.148   4.059   0.185 -0.2184  0.0889 -0.1758
 3052TIP3    H130715   6.091   4.010   0.244 -1.7854 -0.1001 -1.7629
 3052TIP3    H230716   6.089   4.122   0.143  0.9669  0.5953 -1.1250
 3053TIP3   OH230717   6.768   0.122   1.554  0.1585  0.0193  0.3898
 3053TIP3    H130718   6.693   0.119   1.494  0.2919  1.6292  0.0985
 3053TIP3    H230719   6.823   0.048   1.528 -1.3525 -1.2577  0.6797
 3054TIP3   OH230720   1.654   2.141   7.393 -0.0317 -0.3784 -0.2564
 3054TIP3    H130721   1.558   2.138   7.390 -0.1933  2.4146 -1.1107
 3054TIP3    H230722   1.683   2.064   7.346 -1.8654 -1.1419 -0.1990
 3055TIP3   OH230723   4.561   5.033   8.835  0.0302 -0.1579  0.2001
 3055TIP3    H130724   4.491   4.989   8.785 -2.3561  1.9705  1.4323
 3055TIP3    H230725   4.575   5.116   8.789  0.3882  0.2542  1.0304
 3056TIP3   OH230726   6.410   0.342   8.827 -0.1152  0.2206 -0.2468
 3056TIP3    H130727   6.361   0.305   8.754 -0.1653 -0.6865  0.2228
 3056TIP3    H230728   6.376   0.431   8.837 -1.5415 -0.3182 -0.0518
 3057TIP3   OH230729   5.991   6.612   0.516  0.4674 -0.0609 -0.6888
 3057TIP3    H130730   6.081   6.595   0.542  0.5602  0.8715 -0.3502
 3057TIP3    H230731   5.991   6.703   0.487 -0.7141  0.5274  0.9767
 3058TIP3   OH230732   2.603   5.975   8.124 -0.1955  0.2937  0.1739
 3058TIP3    H130733   2.526   5.933   8.162 -0.6114  0.3009 -0.6368
 3058TIP3    H230734   2.673   5.911   8.135 -1.1306 -1.3133 -2.3548
 3059TIP3   OH230735   6.755   2.617   0.034  0.0927 -0.5650  0.0461
 3059TIP3    H130736   6.765   2.696   0.087  1.2173 -0.6125 -0.0582
 3059TIP3    H230737   6.826   2.560   0.064  1.6197 -0.0960 -2.3669
 3060TIP3   OH230738   3.735   3.126   6.767 -0.0606 -0.5682 -0.1883
 3060TIP3    H130739   3.718   3.079   6.685 -0.3337 -0.7689 -0.0185
 3060TIP3    H230740   3.708   3.065   6.835  1.0818 -0.7966  0.0862
 3061TIP3   OH230741   4.474   6.321   8.722 -0.5423  0.0278 -0.2930
 3061TIP3    H130742   4.400   6.306   8.664  0.9843 -2.8692 -1.6617
 3061TIP3    H230743   4.533   6.377   8.672 -0.3203 -0.4281 -0.5404
 3062TIP3   OH230744   3.962   2.402   2.330 -0.6094 -0.2126  0.2557
 3062TIP3    H130745   3.973   2.366   2.242 -1.8411  1.9803 -0.8863
 3062TIP3    H230746   4.048   2.391   2.371  0.1025 -0.9657 -1.3457
 3063TIP3   OH230747   2.980   5.878   7.596  0.0833  0.1991  0.5210
 3063TIP3    H130748   2.942   5.826   7.666  1.5829  0.1116  1.3262
 3063TIP3    H230749   3.018   5.814   7.536  0.3972  0.3094  0.5983
 3064TIP3   OH230750   5.153   5.964   1.765 -0.4102 -0.3953 -0.0685
 3064TIP3    H130751   5.081   5.978   1.825 -0.9665  2.6801 -1.2688
 3064TIP3    H230752   5.117   5.985   1.678  1.3795 -0.7576 -0.9507
 3065TIP3   OH230753   2.188   3.904   0.308 -0.0149 -0.2329  0.6170
 3065TIP3    H130754   2.254   3.967   0.334 -0.8875  0.1084  2.1070
 3065TIP3    H230755   2.105   3.942   0.337 -0.7835 -1.1062 -0.3186
 3066TIP3   OH230756   1.347   1.810   0.841  0.4983 -0.1262 -0.3313
 3066TIP3    H130757   1.256   1.782   0.844 -0.0230  1.5156  0.7634
 3066TIP3    H230758   1.368   1.813   0.748 -1.3418  1.6848 -0.7576
 3067TIP3   OH230759   3.522   6.446   1.000 -0.1132  0.1992  0.1145
 3067TIP3    H130760   3.559   6.363   0.971 -0.5551 -0.7653  2.1522
 3067TIP3    H230761   3.590   6.485   1.055 -0.3257  0.6818  0.0404
 3068TIP3   OH230762   2.429   2.524   0.310 -0.0600  0.0656  0.5022
 3068TIP3    H130763   2.458   2.563   0.228 -0.9142  2.3236  1.2109
 3068TIP3    H230764   2.380   2.593   0.354 -1.2517 -1.6681  2.0830
 3069TIP3   OH230765   6.771   3.737   6.956 -0.0081 -0.4049 -0.0446
 3069TIP3    H130766   6.850   3.737   6.902 -0.8503 -0.8836 -1.3201
 3069TIP3    H230767   6.751   3.829   6.970  0.2695 -0.2755 -0.4787
 3070TIP3   OH230768   5.192   2.029   7.593  0.4697 -0.4115 -0.0666
 3070TIP3    H130769   5.097   2.023   7.603  0.5120 -0.4582  0.3537
 3070TIP3    H230770   5.208   2.119   7.565  0.2356 -0.6646 -1.0314
 3071TIP3   OH230771   5.447   0.408   7.713 -0.2061 -0.1184 -0.2877
 3071TIP3    H130772   5.359   0.420   7.678  0.4950  0.0319 -2.0808
 3071TIP3    H230773   5.487   0.341   7.658  1.5824  1.5008 -1.0876
 3072TIP3   OH230774   2.102   0.019   8.617 -0.7436  0.3604 -0.3189
 3072TIP3    H130775   2.056   0.066   8.547  0.7209  0.1065 -1.5052
 3072TIP3    H230776   2.178   0.074   8.636 -0.3894 -0.2611  0.0899
 3073TIP3   OH230777   4.003   3.257   8.506 -0.0672 -0.5480  0.3937
 3073TIP3    H130778   4.093   3.284   8.489 -0.1366 -1.6749 -2.2838
 3073TIP3    H230779   4.010   3.171   8.548  0.0952 -0.1017  1.2901
 3074TIP3   OH230780   1.766   6.377   6.978 -0.5064 -0.2630 -0.0669
 3074TIP3    H130781   1.768   6.283   6.959  0.3692 -0.4001  0.6429
 3074TIP3    H230782   1.837   6.413   6.925 -2.2027  0.3782 -2.0691
 3075TIP3   OH230783   3.202   1.562   6.772 -0.5726  0.3999 -0.4850
 3075TIP3    H130784   3.112   1.539   6.749 -0.0251 -0.2203 -2.1641
 3075TIP3    H230785   3.224   1.634   6.713 -0.3942  1.4786  0.8564
 3076TIP3   OH230786   3.597   2.888   1.587 -0.0004 -0.1089  0.0330
 3076TIP3    H130787   3.644   2.972   1.587  1.0256 -0.5614  3.2762
 3076TIP3    H230788   3.661   2.824   1.617 -1.1944 -1.8358 -0.9075
 3077TIP3   OH230789   1.455   2.884   1.200  0.5084 -0.1443  0.1244
 3077TIP3    H130790   1.368   2.875   1.239  0.1702  3.0316  0.3683
 3077TIP3    H230791   1.511   2.909   1.273  1.2041 -0.2159 -0.3792
 3078TIP3   OH230792   5.839   4.943   1.234  0.5213 -0.0995  0.4639
 3078TIP3    H130793   5.893   4.864   1.233  1.6559  0.6294 -1.6497
 3078TIP3    H230794   5.900   5.013   1.256 -0.2684  0.3436  1.3009
 3079TIP3   OH230795   1.461   1.526   1.463  0.3123  0.2546 -0.1959
 3079TIP3    H130796   1.398   1.580   1.414  1.3181  0.5686 -1.1788
 3079TIP3    H230797   1.502   1.587   1.525  0.3927  0.2845 -0.2785
 3080TIP3   OH230798   5.244   0.149   1.440  0.3658  0.1686 -0.0991
 3080TIP3    H130799   5.321   0.206   1.439 -1.1345  2.3999 -2.3791
 3080TIP3    H230800   5.213   0.152   1.530  1.9300  0.6531  0.4616
 3081TIP3   OH230801   5.835   5.228   6.974  0.3869 -0.1692 -0.1646
 3081TIP3    H130802   5.929   5.224   6.989  1.0261 -0.5998 -3.4952
 3081TIP3    H230803   5.819   5.320   6.951  0.1936 -0.2845 -0.5040
 3082TIP3   OH230804   5.967   5.655   0.418  0.1355  0.3786  0.2549
 3082TIP3    H130805   5.993   5.730   0.365  0.2349  0.6375  0.6599
 3082TIP3    H230806   6.040   5.641   0.478  0.5118 -0.6243 -0.4176
 3083TIP3   OH230807   6.777   4.932   0.407  0.2237 -0.1779  0.1085
 3083TIP3    H130808   6.695   4.923   0.358 -0.5317 -2.9180  1.6705
 3083TIP3    H230809   6.751   4.926   0.499  1.6759  4.1698  1.0388
 3084TIP3   OH230810   5.087   5.259   7.591 -0.4235  0.0268 -0.0222
 3084TIP3    H130811   5.121   5.339   7.630 -0.1992  0.5957 -1.3306
 3084TIP3    H230812   5.164   5.201   7.585 -0.0143  0.6776 -1.4053
 3085TIP3   OH230813   1.474   4.308   8.604  0.4480  0.3001  0.5316
 3085TIP3    H130814   1.550   4.328   8.660  0.8341  0.7945 -0.1565
 3085TIP3    H230815   1.423   4.389   8.603 -0.5095 -0.2663  1.6126
 3086TIP3   OH230816   3.756   5.411   8.577 -0.1689  0.1709 -0.1420
 3086TIP3    H130817   3.756   5.506   8.589 -0.7009  0.2061 -0.3831
 3086TIP3    H230818   3.817   5.395   8.506  0.2872  0.2899  0.2228
 3087TIP3   OH230819   6.563   4.038   1.761 -0.1910  0.1364 -0.0784
 3087TIP3    H130820   6.597   4.042   1.672 -0.6784 -2.1263 -0.4203
 3087TIP3    H230821   6.468   4.046   1.751 -0.2386  0.0191  0.2558
 3088TIP3   OH230822   0.742   0.218   1.316 -0.0780 -0.5283  0.0863
 3088TIP3    H130823   0.745   0.262   1.231 -1.7420 -1.5560 -0.5480
 3088TIP3    H230824   0.830   0.181   1.327 -0.0154 -0.9035 -1.4700
 3089TIP3   OH230825   3.689   1.773   0.641 -0.7284 -0.3337 -1.1892
 3089TIP3    H130826   3.677   1.758   0.735  0.1696 -0.3929 -1.0684
 3089TIP3    H230827   3.723   1.863   0.635 -0.7715 -0.3331 -1.4526
 3090TIP3   OH230828   3.925   5.093   0.368  0.3020  0.1918  0.1346
 3090TIP3    H130829   3.851   5.152   0.381 -2.6716 -3.1503  0.0078
 3090TIP3    H230830   3.995   5.129   0.422 -1.5845  3.2405  0.7667
 3091TIP3   OH230831   0.862   4.454   0.965  0.3957  0.0482 -0.2566
 3091TIP3    H130832   0.783   4.477   1.013 -0.2587 -1.2267 -0.6685
 3091TIP3    H230833   0.915   4.405   1.028 -0.0907 -0.8944 -0.5501
 3092TIP3   OH230834   6.766   2.004   6.942  0.4325  0.5945 -0.7568
 3092TIP3    H130835   6.784   2.062   6.868  0.2970  1.0113 -0.4659
 3092TIP3    H230836   6.674   2.021   6.964  0.3143  0.0788 -0.8357
 3093TIP3   OH230837   6.331   3.104   8.813 -0.3071  0.0025 -0.0223
 3093TIP3    H130838   6.287   3.038   8.866 -0.9556  1.1786  0.9757
 3093TIP3    H230839   6.264   3.135   8.752 -0.5373  0.9377  0.6806
 3094TIP3   OH230840   1.180   3.870   8.138 -0.0207  0.0774 -0.0484
 3094TIP3    H130841   1.271   3.854   8.162  0.0379  0.8816  0.2872
 3094TIP3    H230842   1.177   3.963   8.115 -0.4622 -0.2456 -1.4203
 3095TIP3   OH230843   1.941   6.358   1.470  0.1421  0.2896  0.3048
 3095TIP3    H130844   1.921   6.420   1.400 -1.4577  0.0740  0.5364
 3095TIP3    H230845   1.869   6.296   1.469  0.8662 -0.6046  1.1699
 3096TIP3   OH230846   5.551   4.527   7.652 -0.7129 -0.1162  0.0925
 3096TIP3    H130847   5.599   4.608   7.635 -0.4532  0.1342  1.8285
 3096TIP3    H230848   5.561   4.476   7.572  0.3709  0.9590 -0.4893
 3097TIP3   OH230849   2.252   3.495   7.381 -0.0565 -0.4866  0.3219
 3097TIP3    H130850   2.329   3.550   7.396 -0.8768  0.0733  2.9127
 3097TIP3    H230851   2.216   3.526   7.298  1.3836  0.5910  0.0699
 3098TIP3   OH230852   3.419   0.208   7.115 -0.1390  0.2179 -0.1608
 3098TIP3    H130853   3.408   0.272   7.045  1.7074  0.7944  0.0156
 3098TIP3    H230854   3.400   0.124   7.074 -3.5314  0.8469 -0.1763
 3099TIP3   OH230855   4.549   1.656   8.251 -0.0707  0.6720  0.3948
 3099TIP3    H130856   4.567   1.719   8.181  0.5604 -0.0771 -0.1383
 3099TIP3    H230857   4.465   1.618   8.228  0.2614  0.2293 -0.1235
 3100TIP3   OH230858   1.832   4.196   1.692 -0.1395  0.3357  0.3133
 3100TIP3    H130859   1.890   4.269   1.713 -0.9219  0.9467  0.4182
 3100TIP3    H230860   1.845   4.133   1.762  1.1750 -0.0257 -0.2255
 3101TIP3   OH230861   2.331   4.566   7.326  0.2521 -0.0669  0.2851
 3101TIP3    H130862   2.300   4.657   7.321  0.6214  0.0741  0.5107
 3101TIP3    H230863   2.257   4.514   7.296 -0.7593  0.1689  2.2304
 3102TIP3   OH230864   6.195   0.106   0.199  0.1699  0.2699  0.0666
 3102TIP3    H130865   6.239   0.033   0.156  0.1167  1.3181 -1.8429
 3102TIP3    H230866   6.267   0.161   0.231  0.2070 -0.3217  1.0489
 3103TIP3   OH230867   3.854   6.310   8.663 -0.3512  0.5515 -0.1666
 3103TIP3    H130868   3.916   6.262   8.718  0.6455  1.5655 -0.3538
 3103TIP3    H230869   3.768   6.278   8.688  0.3006 -2.2874 -1.1709
 3104TIP3   OH230870   1.296   2.028   8.020  0.2316 -0.1410 -0.1353
 3104TIP3    H130871   1.254   1.978   7.951  0.9696 -0.7028 -0.1851
 3104TIP3    H230872   1.375   2.064   7.979  1.4863 -1.7276  0.7960
 3105TIP3   OH230873   4.929   1.359   0.424 -0.2161 -0.3046  0.2215
 3105TIP3    H130874   5.014   1.402   0.431 -0.1431 -0.4604  0.2908
 3105TIP3    H230875   4.938   1.299   0.350  1.5532 -4.4006  3.3402
 3106TIP3   OH230876   1.072   1.986   1.095 -0.1993 -0.3424 -0.1418
 3106TIP3    H130877   1.010   1.931   1.143 -0.5530  0.5971  0.5206
 3106TIP3    H230878   1.059   2.074   1.132  1.1501 -0.0251 -0.3667
 3107TIP3   OH230879   3.565   1.073   6.642 -0.0781 -0.0639  0.0604
 3107TIP3    H130880   3.551   1.008   6.573 -1.5285  0.0271  0.2497
 3107TIP3    H230881   3.630   1.133   6.605 -0.2141 -0.4835 -0.8881
 3108TIP3   OH230882   3.119   0.972   8.402 -0.2130 -0.4598 -0.0551
 3108TIP3    H130883   3.060   0.902   8.430 -0.6462 -0.2123 -0.3390
 3108TIP3    H230884   3.086   0.998   8.316 -1.0359  1.1882  0.7203
 3109TIP3   OH230885   1.399   1.246   7.105  0.0939  0.2713 -0.0697
 3109TIP3    H130886   1.443   1.160   7.106 -0.4667 -0.0184  0.9641
 3109TIP3    H230887   1.306   1.225   7.115  0.0623  1.0440  1.5527
 3110TIP3   OH230888   4.179   2.180   7.063  0.1514  0.1933  0.0594
 3110TIP3    H130889   4.267   2.153   7.035  0.4745  1.8979 -0.6654
 3110TIP3    H230890   4.148   2.106   7.116  1.1865 -1.3391 -1.3596
 3111TIP3   OH230891   1.105   3.942   1.692  0.7804  0.1297 -0.3150
 3111TIP3    H130892   1.116   3.855   1.655  0.4651  0.0645 -0.2591
 3111TIP3    H230893   1.010   3.950   1.707  1.0043 -0.3337  1.6539
 3112TIP3   OH230894   2.084   1.004   2.312  0.0662 -0.2344  0.4073
 3112TIP3    H130895   2.005   1.033   2.358  1.9856  1.3378  2.9464
 3112TIP3    H230896   2.085   0.909   2.325 -0.8174 -0.1400  1.3105
 3113TIP3   OH230897   0.433   1.662   1.961  1.1716 -0.0919  0.5855
 3113TIP3    H130898   0.420   1.619   2.045  0.6380 -0.9216  0.0923
 3113TIP3    H230899   0.423   1.592   1.896  1.8228  0.4823 -0.1596
 3114TIP3   OH230900   4.188   4.588   1.287 -0.0628 -0.0084  0.5657
 3114TIP3    H130901   4.181   4.663   1.345  1.1313  0.2527  0.4000
 3114TIP3    H230902   4.113   4.596   1.228  0.5186  1.5529 -0.0165
 3115TIP3   OH230903   5.599   0.893   0.171  0.6928 -0.4034 -0.2867
 3115TIP3    H130904   5.585   0.826   0.103 -2.2906  1.0627 -1.2639
 3115TIP3    H230905   5.629   0.970   0.122  1.5497 -0.2167  0.5043
 3116TIP3   OH230906   1.459   3.823   8.379  0.2340  0.2104 -0.2304
 3116TIP3    H130907   1.477   3.916   8.375 -0.0820  0.2759 -0.1733
 3116TIP3    H230908   1.372   3.817   8.419 -0.0971 -0.0642 -0.9681
 3117TIP3   OH230909   0.897   5.896   7.303  1.0796  0.6528  0.4310
 3117TIP3    H130910   0.811   5.856   7.292  2.0487 -1.5193  0.1841
 3117TIP3    H230911   0.927   5.913   7.213  0.9697  1.3402  0.5139
 3118TIP3   OH230912   4.636   4.806   7.351 -0.6684 -0.3833  0.2289
 3118TIP3    H130913   4.679   4.780   7.433 -1.1561 -0.2318  0.5352
 3118TIP3    H230914   4.590   4.887   7.374 -2.6132 -1.4894  0.3868
 3119TIP3   OH230915   5.707   4.439   8.145  0.4321  0.2772  0.1002
 3119TIP3    H130916   5.716   4.414   8.053  0.7705  0.9116 -0.0517
 3119TIP3    H230917   5.614   4.457   8.156  0.6818  2.4639 -0.7637
 3120TIP3   OH230918   2.345   0.083   0.074 -0.5626 -0.1475 -0.0989
 3120TIP3    H130919   2.401   0.006   0.071  0.4571  0.5833 -0.5954
 3120TIP3    H230920   2.338   0.111  -0.017  0.4970  1.2994  0.2121
 3121TIP3   OH230921   0.394   6.006   6.929  0.3430  0.1023 -0.0022
 3121TIP3    H130922   0.489   6.010   6.918  0.6964  0.1132  2.4885
 3121TIP3    H230923   0.380   6.013   7.023 -2.2174  1.2831 -0.3643
 3122TIP3   OH230924   5.741   3.177   0.423  0.0498 -0.1423 -0.2478
 3122TIP3    H130925   5.650   3.176   0.392  0.5848  2.1574 -2.1331
 3122TIP3    H230926   5.733   3.180   0.518 -1.7289 -3.1310 -0.1689
 3123TIP3   OH230927   0.064   5.106   7.051 -0.2470 -0.0591  0.1015
 3123TIP3    H130928   0.020   5.021   7.052 -1.1538  0.3810 -0.3950
 3123TIP3    H230929  -0.004   5.168   7.079  0.2989  0.5458  0.1123
 3124TIP3   OH230930   5.696   4.842   8.374  0.4984 -0.3815  0.2646
 3124TIP3    H130931   5.745   4.807   8.448  0.4425 -2.1044 -0.4635
 3124TIP3    H230932   5.761   4.891   8.324  0.9292 -0.6301  0.5683
 3125TIP3   OH230933   2.291   3.442   7.743  0.5525 -0.7160 -0.3603
 3125TIP3    H130934   2.236   3.505   7.791  1.4234 -0.7069  0.6647
 3125TIP3    H230935   2.363   3.494   7.709 -0.3093 -0.6372 -2.1491
 3126TIP3   OH230936   6.601   2.878   7.574 -0.0202 -0.9185  0.0058
 3126TIP3    H130937   6.524   2.863   7.519  1.7257 -3.7429 -1.9423
 3126TIP3    H230938   6.665   2.916   7.514  0.1454  1.6310  1.6527
 3127TIP3   OH230939   5.056   0.014   8.331 -0.2219 -0.2797  0.2050
 3127TIP3    H130940   5.146   0.011   8.362 -0.2835 -0.4378  0.3710
 3127TIP3    H230941   5.046  -0.066   8.279 -0.2594 -0.2511  0.1694
 3128TIP3   OH230942   1.128   3.497   7.767 -0.4056  0.1219 -0.1757
 3128TIP3    H130943   1.066   3.425   7.763 -0.9464  0.5768 -0.0654
 3128TIP3    H230944   1.171   3.487   7.852  1.7718 -1.8859 -1.3922
 3129TIP3   OH230945   4.905   5.473   1.899 -0.2999  0.6843 -0.0133
 3129TIP3    H130946   4.934   5.564   1.903 -0.3453  0.6577  1.7339
 3129TIP3    H230947   4.897   5.446   1.991 -0.4718 -1.0225 -0.4881
 3130TIP3   OH230948   5.942   4.001   7.567  0.3512  0.6804  0.2645
 3130TIP3    H130949   6.018   3.944   7.555  1.6211  2.2558  0.5366
 3130TIP3    H230950   5.882   3.976   7.497  0.4431 -1.6149  0.9316
 3131TIP3   OH230951   4.405   4.245   5.955  0.4897  0.1331  0.0638
 3131TIP3    H130952   4.333   4.290   6.000 -0.9575 -1.6126 -0.3917
 3131TIP3    H230953   4.397   4.154   5.984  2.6881 -0.0680  0.1694
 3132TIP3   OH230954   5.816   6.709   0.047 -0.3015  0.3013  0.1058
 3132TIP3    H130955   5.723   6.696   0.066 -0.4977  1.8107  0.2635
 3132TIP3    H230956   5.822   6.799   0.016  1.1709  0.3510  0.4771
 3133TIP3   OH230957   1.736   5.782   1.293  0.0119  0.7863  0.2482
 3133TIP3    H130958   1.710   5.786   1.385  0.4757 -3.0273  0.7034
 3133TIP3    H230959   1.831   5.774   1.294  0.1237  1.7064 -0.6726
 3134TIP3   OH230960   6.366   5.304   6.917  0.1788  0.0102  0.0418
 3134TIP3    H130961   6.384   5.297   7.011  1.1255 -1.3756 -0.2120
 3134TIP3    H230962   6.429   5.244   6.876 -0.9979 -0.3155 -1.3771
 3135TIP3   OH230963   4.387   3.891   0.757 -0.0278 -0.5396  0.0176
 3135TIP3    H130964   4.444   3.967   0.767  1.1288 -1.2291 -1.0756
 3135TIP3    H230965   4.337   3.909   0.678  0.4636 -1.0256 -0.4137
 3136TIP3   OH230966   1.629   0.168   2.127 -0.3585 -0.1698 -0.1389
 3136TIP3    H130967   1.580   0.249   2.142  0.3138  0.3523 -0.7087
 3136TIP3    H230968   1.645   0.167   2.032  0.0067 -0.7549 -0.0748
 3137TIP3   OH230969   3.206   5.886   0.603  0.2266 -0.1973 -0.0262
 3137TIP3    H130970   3.245   5.956   0.654 -0.0299 -0.2035  0.1826
 3137TIP3    H230971   3.277   5.855   0.546  0.8469 -0.9377  1.1110
 3138TIP3   OH230972   6.262   6.651   0.552  0.8996  0.3719  0.2291
 3138TIP3    H130973   6.278   6.622   0.462  1.0444 -1.2962  0.7503
 3138TIP3    H230974   6.328   6.717   0.569  1.3845  0.1136 -0.6317
 3139TIP3   OH230975   5.990   1.914   7.299 -0.0315  0.3535 -0.3559
 3139TIP3    H130976   5.992   1.996   7.348  1.0529 -0.7382  1.5452
 3139TIP3    H230977   5.924   1.861   7.343  1.5639 -0.9670  0.5719
 3140TIP3   OH230978   3.839   4.912   2.508  0.7815 -0.0925 -0.4603
 3140TIP3    H130979   3.876   4.827   2.528 -0.5055 -1.2427 -2.5376
 3140TIP3    H230980   3.838   4.915   2.412 -1.0787  1.3775 -0.4559
 3141TIP3   OH230981   4.130   1.234   7.437  0.2170 -0.3002  0.2717
 3141TIP3    H130982   4.204   1.276   7.481 -0.0959  0.4369  0.1079
 3141TIP3    H230983   4.151   1.141   7.439  0.1097 -0.3232  2.1824
 3142TIP3   OH230984   2.848   2.063   1.058  0.4469 -0.1190  0.4950
 3142TIP3    H130985   2.794   1.994   1.098 -0.8601  0.7412  0.2803
 3142TIP3    H230986   2.797   2.143   1.071  2.1202  0.8923  1.1048
 3143TIP3   OH230987   2.498   1.672   7.180  0.3111  0.5103  0.2109
 3143TIP3    H130988   2.568   1.663   7.246  0.7371 -1.3637 -0.4357
 3143TIP3    H230989   2.419   1.688   7.231  1.0165  1.5993  1.0176
 3144TIP3   OH230990   3.626   3.223   8.240 -0.2187 -0.1488 -0.2207
 3144TIP3    H130991   3.670   3.288   8.295  0.7806 -0.7785 -0.2478
 3144TIP3    H230992   3.575   3.274   8.178 -0.5985  0.5865  0.6723
 3145TIP3   OH230993   1.790   3.662   0.090 -0.1397  0.4790 -0.0899
 3145TIP3    H130994   1.875   3.676   0.132  0.4961 -2.9346  0.0859
 3145TIP3    H230995   1.812   3.627   0.003 -1.3757  0.3515 -0.3689
 3146TIP3   OH230996   5.136   3.082   7.751 -0.1005  0.7544 -0.4369
 3146TIP3    H130997   5.121   3.127   7.668 -0.8788  1.7843  0.2248
 3146TIP3    H230998   5.049   3.074   7.790  0.3708  1.3278  0.7880
 3147TIP3   OH230999   3.727   3.906   8.768  0.0762 -0.3285 -0.0206
 3147TIP3    H131000   3.810   3.951   8.753 -0.5039  0.4714 -0.9713
 3147TIP3    H231001   3.713   3.855   8.688 -0.2065 -0.6880  0.2557
 3148TIP3   OH231002   2.578   1.287   8.269 -0.0305 -0.0905  0.1184
 3148TIP3    H131003   2.585   1.310   8.361  0.1890 -0.6876  0.2556
 3148TIP3    H231004   2.654   1.329   8.228  0.0641 -0.1143  0.2691
 3149TIP3   OH231005   3.774   2.456   2.510 -0.1512  0.1226  0.0280
 3149TIP3    H131006   3.784   2.384   2.571  2.4894  2.0815  2.1362
 3149TIP3    H231007   3.836   2.437   2.439  0.2420  0.1183  0.3728
 3150TIP3   OH231008   3.184   0.714   6.673 -0.0517 -0.1389  0.1744
 3150TIP3    H131009   3.209   0.699   6.764 -1.9085 -1.1473  0.5615
 3150TIP3    H231010   3.098   0.757   6.678  0.5668  1.3659 -1.1039
 3151TIP3   OH231011   4.133   5.593   8.752  0.0709 -0.3914 -0.5041
 3151TIP3    H131012   4.083   5.518   8.786  0.9992 -0.2435  1.3121
 3151TIP3    H231013   4.079   5.669   8.771  0.0161 -0.4229 -0.5337
 3152TIP3   OH231014   2.803   1.181   6.002  0.1952 -0.3936  0.0729
 3152TIP3    H131015   2.851   1.260   5.980 -1.2113  1.7611  3.7307
 3152TIP3    H231016   2.870   1.116   6.023  1.3776  0.1337 -1.8793
 3153TIP3   OH231017   6.753   6.011   8.489 -0.2621  0.3500  0.4665
 3153TIP3    H131018   6.847   6.024   8.484 -0.2259  0.1054  0.4930
 3153TIP3    H231019   6.740   5.919   8.465 -0.5661  0.5934 -0.3575
 3154TIP3   OH231020   5.214   4.364   8.732 -0.0531 -0.9013 -0.3363
 3154TIP3    H131021   5.283   4.356   8.666  2.4633  0.1275  1.9422
 3154TIP3    H231022   5.163   4.440   8.704  1.3524 -0.0935 -0.8006
 3155TIP3   OH231023   5.722   0.612   6.416 -0.0311  0.0487  0.0440
 3155TIP3    H131024   5.648   0.552   6.423 -0.6096  0.8422  0.8829
 3155TIP3    H231025   5.772   0.598   6.497  0.8533 -0.6017 -0.5854
 3156TIP3   OH231026   1.953   1.840   7.427  0.1141 -0.5184  0.0500
 3156TIP3    H131027   2.011   1.765   7.412  1.1472  0.5118 -1.4345
 3156TIP3    H231028   2.011   1.908   7.461 -0.2557  0.4248 -1.1381
 3157TIP3   OH231029   5.291   0.799   1.608  0.3860 -0.1426 -0.2258
 3157TIP3    H131030   5.232   0.723   1.602  0.1822  0.0811 -1.1213
 3157TIP3    H231031   5.368   0.765   1.655  0.2283 -0.8601 -0.4643
 3158TIP3   OH231032   2.690   4.646   8.591  0.0289  0.2581  0.6097
 3158TIP3    H131033   2.672   4.726   8.541 -0.2782  0.4725  1.0537
 3158TIP3    H231034   2.769   4.611   8.551 -0.9950 -0.3707 -0.9848
 3159TIP3   OH231035   0.903   6.394   7.391 -0.4518 -0.0155 -0.2164
 3159TIP3    H131036   0.911   6.306   7.426  0.3094 -0.0236 -0.3827
 3159TIP3    H231037   0.988   6.411   7.350 -0.7759  0.5889 -0.6572
 3160TIP3   OH231038   6.038   2.953   0.681 -0.1376 -0.2450  0.2712
 3160TIP3    H131039   6.020   2.984   0.592 -2.6233  0.2836  0.8926
 3160TIP3    H231040   6.035   3.033   0.734  0.8229 -0.6287  0.9245
 3161TIP3   OH231041   3.715   3.752   8.537  0.8362 -0.0918  0.8458
 3161TIP3    H131042   3.758   3.752   8.451  0.2271  1.8756  0.4902
 3161TIP3    H231043   3.623   3.735   8.517  0.9518 -1.4369  1.3277
 3162TIP3   OH231044   5.973   3.702   1.160 -0.0119 -0.8326 -0.4603
 3162TIP3    H131045   6.048   3.677   1.105  0.2578  2.2499 -1.7296
 3162TIP3    H231046   6.006   3.777   1.211 -1.9244 -0.0290 -0.3387
 3163TIP3   OH231047   5.428   1.900   1.632 -0.3114  0.7113 -0.2769
 3163TIP3    H131048   5.341   1.892   1.670 -0.5056 -0.5694 -0.9301
 3163TIP3    H231049   5.414   1.930   1.543 -0.1533 -0.0993 -0.5902
 3164TIP3   OH231050   4.471   3.201   0.417 -0.0634 -0.3081  0.0919
 3164TIP3    H131051   4.383   3.218   0.453 -0.1501  0.2259 -0.3586
 3164TIP3    H231052   4.515   3.150   0.485 -0.7592 -0.6745  0.2811
 3165TIP3   OH231053   2.059   4.096   0.865  0.4050 -0.4246 -0.2503
 3165TIP3    H131054   2.020   4.051   0.940  0.5131 -0.2648 -0.0973
 3165TIP3    H231055   2.138   4.137   0.900 -0.1479  0.6220 -0.1749
 3166TIP3   OH231056   6.730   0.245   7.358 -0.3588  0.8930 -0.0904
 3166TIP3    H131057   6.740   0.230   7.452 -1.3781  1.7263  0.1620
 3166TIP3    H231058   6.796   0.311   7.338 -0.0620  0.6311  0.0126
 3167TIP3   OH231059   1.232   4.240   7.080 -0.3167  0.5337  0.2837
 3167TIP3    H131060   1.265   4.180   7.147 -1.0690 -0.5910 -0.3258
 3167TIP3    H231061   1.307   4.254   7.022 -0.0262  0.4895  0.6443
 3168TIP3   OH231062   0.587   4.163   0.332  0.1578 -0.2194  0.3110
 3168TIP3    H131063   0.536   4.238   0.361  1.6159  1.1551 -0.5098
 3168TIP3    H231064   0.524   4.091   0.329 -1.0611  0.6959  2.1165
 3169TIP3   OH231065   5.479   0.144   0.091  0.3088  0.2632 -0.1645
 3169TIP3    H131066   5.536   0.144   0.167  0.6549  1.8148 -0.3915
 3169TIP3    H231067   5.494   0.059   0.050  1.2514  0.0118  0.6530
 3170TIP3   OH231068   5.506   5.615   7.277  0.8158  0.3723  0.1070
 3170TIP3    H131069   5.430   5.647   7.228 -0.5139  1.4701  2.6928
 3170TIP3    H231070   5.572   5.683   7.267  1.2035 -0.1840 -1.4388
 3171TIP3   OH231071   2.877   6.700   7.910 -0.9020  0.5506 -0.1277
 3171TIP3    H131072   2.835   6.615   7.901  1.0591 -0.3937 -1.0524
 3171TIP3    H231073   2.866   6.724   8.002 -0.9195 -1.0370  0.3031
 3172TIP3   OH231074   0.493   0.923   0.591  0.2348  0.6879 -0.7789
 3172TIP3    H131075   0.559   0.864   0.557 -0.2066  0.1649 -0.7378
 3172TIP3    H231076   0.458   0.968   0.513  0.0762  0.3770 -0.8881
 3173TIP3   OH231077   3.765   2.932   8.636  0.4832  0.1887  0.5996
 3173TIP3    H131078   3.726   2.949   8.722 -1.9559 -0.6994 -0.2495
 3173TIP3    H231079   3.854   2.965   8.643  0.3248  0.2272  3.4372
 3174TIP3   OH231080   4.855   6.301   0.815  0.1513 -0.8095 -0.0378
 3174TIP3    H131081   4.822   6.317   0.903  0.0113 -0.7544 -0.1007
 3174TIP3    H231082   4.838   6.208   0.800 -2.0885 -0.3198 -0.9447
 3175TIP3   OH231083   4.211   3.086   0.292  0.0186 -0.1319  1.1479
 3175TIP3    H131084   4.305   3.071   0.303  0.4396  1.7506  0.4071
 3175TIP3    H231085   4.190   3.157   0.353 -0.4594  0.9422 -0.2298
 3176TIP3   OH231086   1.407   1.757   6.210  0.4953  0.2738 -0.5215
 3176TIP3    H131087   1.316   1.731   6.227  0.5921  1.5044  2.5481
 3176TIP3    H231088   1.446   1.682   6.166 -1.5204 -1.0452 -0.1746
 3177TIP3   OH231089   0.861   2.877   7.506 -0.3600 -0.6698  0.2354
 3177TIP3    H131090   0.786   2.883   7.447  0.6079  0.9132 -0.9171
 3177TIP3    H231091   0.900   2.791   7.487  0.4365  0.1344 -2.1551
 3178TIP3   OH231092   3.402   2.124   8.637 -0.3656  0.0752  0.2616
 3178TIP3    H131093   3.460   2.055   8.605 -2.4842 -1.3296 -0.7180
 3178TIP3    H231094   3.453   2.167   8.705  2.3281 -0.2180 -1.3928
 3179TIP3   OH231095   3.557   2.287   8.818 -0.5134  0.0065 -0.2137
 3179TIP3    H131096   3.649   2.281   8.795 -0.2945  0.8296  0.3915
 3179TIP3    H231097   3.524   2.362   8.768 -0.5584  0.4499  0.4722
 3180TIP3   OH231098   1.630   2.039   0.332 -0.6415  0.1207 -0.9396
 3180TIP3    H131099   1.617   2.008   0.422  0.7964  1.0689 -0.3649
 3180TIP3    H231100   1.669   1.965   0.286 -1.1995 -0.3051 -0.7405
 3181TIP3   OH231101   1.982   6.032   1.269  0.6803  0.2228  0.4797
 3181TIP3    H131102   1.898   6.069   1.242 -0.5089 -0.9978  2.2382
 3181TIP3    H231103   2.047   6.100   1.248 -1.3010  3.2876  3.1969
 3182TIP3   OH231104   6.777   6.289   0.548 -0.4730 -0.4736 -0.4234
 3182TIP3    H131105   6.684   6.281   0.528 -0.3425 -1.2658 -0.7985
 3182TIP3    H231106   6.796   6.212   0.602 -0.6508  1.2376  2.2408
 3183TIP3   OH231107   3.563   5.841   1.272  0.6351  0.3613 -0.1009
 3183TIP3    H131108   3.618   5.764   1.266  1.8970  1.2051  0.2525
 3183TIP3    H231109   3.572   5.870   1.363 -1.8155 -0.4721  0.4810
 3184TIP3   OH231110   2.206   2.491   8.749 -0.5958 -0.3159  0.6992
 3184TIP3    H131111   2.173   2.417   8.800  1.3450  0.0461  2.6633
 3184TIP3    H231112   2.152   2.565   8.776 -0.2324 -0.3336  1.5194
 3185TIP3   OH231113   0.088   3.427   0.742  0.2370  0.3536  0.3457
 3185TIP3    H131114   0.087   3.515   0.706  0.5652  0.3671  0.3646
 3185TIP3    H231115   0.181   3.409   0.759  0.1280  0.1985  0.8050
 3186TIP3   OH231116   6.136   4.663   7.890 -0.1448 -0.1762  0.5146
 3186TIP3    H131117   6.183   4.587   7.924  0.7492  0.8176  1.5861
 3186TIP3    H231118   6.124   4.644   7.797  0.8176 -1.2485  0.5870
 3187TIP3   OH231119   5.891   6.777   1.570 -0.0127  0.1386  0.7995
 3187TIP3    H131120   5.938   6.818   1.497 -0.6795  2.6869  1.7085
 3187TIP3    H231121   5.851   6.698   1.532  1.0181  0.5055 -1.1495
 3188TIP3   OH231122   0.260   3.772   6.345 -0.1039 -0.1295  0.5189
 3188TIP3    H131123   0.205   3.848   6.364  3.4616  2.7451  0.3540
 3188TIP3    H231124   0.266   3.726   6.429  0.3101  1.7084  1.5505
 3189TIP3   OH231125   6.435   0.580   0.579 -0.3198  0.2408  0.4086
 3189TIP3    H131126   6.515   0.565   0.630 -0.7756  1.0474  1.4008
 3189TIP3    H231127   6.463   0.636   0.507 -0.1201  1.2125  1.2133
 3190TIP3   OH231128   1.818   0.483   0.792 -0.6309 -0.0269 -0.6006
 3190TIP3    H131129   1.784   0.572   0.789 -3.7170 -1.1195 -2.5329
 3190TIP3    H231130   1.803   0.455   0.883 -2.4792  0.4657 -0.7169
 3191TIP3   OH231131   4.981   4.794   1.051 -0.1405 -0.1469 -0.2276
 3191TIP3    H131132   5.014   4.722   0.998 -2.5643  0.1110 -2.2794
 3191TIP3    H231133   4.885   4.786   1.045 -0.5407  0.7648  2.9924
 3192TIP3   OH231134   1.878   4.698   8.286  0.4374  0.5458  0.0680
 3192TIP3    H131135   1.877   4.794   8.289 -0.4418  0.5999  4.1457
 3192TIP3    H231136   1.921   4.672   8.368 -1.8560 -2.4603  0.4912
 3193TIP3   OH231137   1.978   0.470   7.434 -0.0045 -0.3005 -0.5065
 3193TIP3    H131138   2.031   0.549   7.435 -0.7073  0.2106 -1.7268
 3193TIP3    H231139   2.015   0.415   7.503 -0.2938  1.5914  1.2371
 3194TIP3   OH231140   1.175   2.013   1.550 -0.0752 -0.1963  0.6484
 3194TIP3    H131141   1.081   2.029   1.550 -0.2042 -0.9099  1.4783
 3194TIP3    H231142   1.206   2.059   1.628  0.2043 -0.3380  0.6196
 3195TIP3   OH231143   2.433   5.089   1.611 -0.5950  0.2300  0.2601
 3195TIP3    H131144   2.519   5.104   1.649 -0.8189  0.1469  0.8136
 3195TIP3    H231145   2.378   5.158   1.649 -0.8485  0.0715  0.1862
 3196TIP3   OH231146   5.135   3.167   0.024 -0.4536  0.1634  0.5560
 3196TIP3    H131147   5.138   3.261   0.004 -0.1683  0.9725  3.8924
 3196TIP3    H231148   5.225   3.138   0.012 -0.0672  0.8628  1.6011
 3197TIP3   OH231149   6.629   6.204   1.916 -0.1615 -0.0946 -0.0775
 3197TIP3    H131150   6.631   6.116   1.954 -0.1902  0.3058  0.8550
 3197TIP3    H231151   6.585   6.192   1.832 -1.4455 -0.7424  0.6647
 3198TIP3   OH231152   4.597   3.563   1.784 -0.1402 -0.3241  0.2485
 3198TIP3    H131153   4.582   3.489   1.726 -1.5989  0.9203 -1.0379
 3198TIP3    H231154   4.668   3.534   1.842  0.6233 -2.0092 -1.4305
 3199TIP3   OH231155   4.478   1.324   0.358 -0.9213 -0.0697  0.1272
 3199TIP3    H131156   4.404   1.360   0.309 -0.4011 -0.1652 -0.7544
 3199TIP3    H231157   4.467   1.229   0.351 -1.4637 -0.0942  1.1681
 3200TIP3   OH231158   4.558   5.226   0.202 -0.2073  0.4736  0.4443
 3200TIP3    H131159   4.565   5.143   0.154  1.5831 -1.4310  3.6330
 3200TIP3    H231160   4.648   5.247   0.226 -0.8824  2.1282  1.6589
 3201TIP3   OH231161   6.524   1.016   7.400 -0.1812 -0.4514 -0.2000
 3201TIP3    H131162   6.580   1.088   7.372  0.0180 -0.4660  0.1597
 3201TIP3    H231163   6.582   0.958   7.449 -0.3332 -0.8730 -0.5102
 3202TIP3   OH231164   4.315   6.517   8.003 -0.6734 -0.0189 -0.1005
 3202TIP3    H131165   4.243   6.489   8.060 -0.6706  1.1238  0.4902
 3202TIP3    H231166   4.386   6.539   8.064  0.0816 -0.8207 -0.6609
 3203TIP3   OH231167   5.554   3.013   7.766 -0.3707 -0.6136  0.5599
 3203TIP3    H131168   5.493   2.952   7.807  0.5230 -2.7663 -1.0878
 3203TIP3    H231169   5.500   3.084   7.734 -1.5598 -0.8530  1.9386
 3204TIP3   OH231170   6.595   3.256   8.174  0.8753  0.0564  0.5128
 3204TIP3    H131171   6.613   3.312   8.098 -2.8735 -1.2307 -1.6521
 3204TIP3    H231172   6.580   3.169   8.136 -1.9276 -0.4780  2.5248
 3205TIP3   OH231173   5.683   0.647   0.343 -0.2730 -0.0240 -0.1654
 3205TIP3    H131174   5.596   0.640   0.382 -0.6005  0.3467 -0.8195
 3205TIP3    H231175   5.689   0.737   0.312  1.0524  0.5116  1.4872
 3206TIP3   OH231176   5.644   5.720   1.538  0.4878 -0.3967 -0.4432
 3206TIP3    H131177   5.655   5.814   1.521 -0.5325  0.0562  1.1359
 3206TIP3    H231178   5.667   5.710   1.631 -1.2246 -1.3435 -0.0803
 3207TIP3   OH231179   5.901   1.060   2.114 -0.1988 -0.3011  0.1091
 3207TIP3    H131180   5.951   1.075   2.195 -1.0637 -1.8114  0.9781
 3207TIP3    H231181   5.911   0.966   2.098  0.0939  0.0041 -1.6578
 3208TIP3   OH231182   6.206   2.470   6.355  0.1526 -0.2122  0.5734
 3208TIP3    H131183   6.220   2.385   6.395 -0.2800 -0.4940  0.1370
 3208TIP3    H231184   6.155   2.452   6.276  0.2938  0.4181  0.3273
 3209TIP3   OH231185   5.877   5.611   7.921 -0.4089  0.3542 -0.2271
 3209TIP3    H131186   5.831   5.551   7.980 -1.2919  2.4539  1.3583
 3209TIP3    H231187   5.815   5.626   7.849  0.0034 -0.9268 -0.8792
 3210TIP3   OH231188   2.251   0.619   7.888 -0.0082  0.2369  0.0387
 3210TIP3    H131189   2.195   0.645   7.961 -0.9433 -0.9050 -0.2304
 3210TIP3    H231190   2.273   0.700   7.843 -3.1192  0.6034 -1.0161
 3211TIP3   OH231191   5.117   2.614   8.180  0.5793  0.3802 -0.0634
 3211TIP3    H131192   5.076   2.639   8.098  0.0026 -1.7086 -0.4638
 3211TIP3    H231193   5.135   2.697   8.224 -0.0244  1.4992 -1.8326
 3212TIP3   OH231194   0.221   6.110   8.540  0.4934 -0.1540  0.0719
 3212TIP3    H131195   0.206   6.153   8.624 -0.8862 -1.8062  0.7287
 3212TIP3    H231196   0.311   6.078   8.546  0.3931 -0.3055  0.9422
 3213TIP3   OH231197   1.733   1.671   6.902 -0.1053  0.1125 -0.1431
 3213TIP3    H131198   1.766   1.692   6.815  1.2328 -0.7040  0.1358
 3213TIP3    H231199   1.638   1.678   6.894 -0.1253 -1.3698 -2.0788
 3214TIP3   OH231200   3.991   3.654   6.796  0.1313  0.0661  0.0400
 3214TIP3    H131201   3.936   3.663   6.874 -0.8237 -2.3385 -0.2671
 3214TIP3    H231202   3.936   3.609   6.732  1.9612 -1.0882 -0.8269
 3215TIP3   OH231203   2.153   3.003   7.346  0.2937 -0.2811 -0.2196
 3215TIP3    H131204   2.159   3.087   7.392 -0.4041  0.5380 -1.5347
 3215TIP3    H231205   2.117   3.026   7.260  0.9365 -1.8190 -0.9388
 3216TIP3   OH231206   2.912   3.145   7.454 -0.3958  0.5451 -0.2578
 3216TIP3    H131207   2.939   3.235   7.475  0.7055  0.5199 -1.4189
 3216TIP3    H231208   2.850   3.122   7.523 -0.6492  2.1695  0.1049
 3217TIP3   OH231209   2.241   1.719   1.406 -0.2496  0.5723  0.3119
 3217TIP3    H131210   2.286   1.782   1.463 -2.4404 -1.4511  4.7905
 3217TIP3    H231211   2.155   1.758   1.391 -0.8288 -0.2955  1.2396
 3218TIP3   OH231212   5.638   6.060   7.836  0.5459 -0.3323  0.4812
 3218TIP3    H131213   5.715   6.004   7.848  0.0822 -0.7532  1.7356
 3218TIP3    H231214   5.608   6.078   7.925 -1.0636 -0.5389  0.0158
 3219TIP3   OH231215   6.338   4.945   7.713  0.5903  0.2161 -0.3351
 3219TIP3    H131216   6.346   4.893   7.792 -1.1563  1.3626  0.6662
 3219TIP3    H231217   6.325   5.034   7.744  1.6799  0.9962 -1.9696
 3220TIP3   OH231218   4.136   2.718   6.772 -0.0734 -0.2323  0.0873
 3220TIP3    H131219   4.111   2.681   6.857 -0.0213 -1.0703 -0.2542
 3220TIP3    H231220   4.231   2.728   6.777 -0.0248 -0.6405 -0.0105
 3221TIP3   OH231221   4.994   5.332   8.116 -0.2164  0.4172  0.0355
 3221TIP3    H131222   5.003   5.406   8.176 -1.3073  0.6564 -0.0749
 3221TIP3    H231223   5.076   5.331   8.067  0.6065  0.3637  1.3427
 3222TIP3   OH231224   6.471   2.321   8.637 -0.0558 -0.6979  0.3231
 3222TIP3    H131225   6.431   2.234   8.635  0.3531 -0.8785 -0.0629
 3222TIP3    H231226   6.402   2.377   8.673 -1.5162 -0.5835 -2.4118
 3223TIP3   OH231227   2.928   1.497   0.969  0.5243  0.0004  0.7758
 3223TIP3    H131228   2.972   1.546   0.900  0.1661 -1.5863 -0.6388
 3223TIP3    H231229   2.976   1.414   0.974 -0.7769 -0.7692  0.9163
 3224TIP3   OH231230   0.574   2.532   7.375  0.3425  0.6529 -0.0225
 3224TIP3    H131231   0.578   2.473   7.300  1.2774  1.5674 -0.7357
 3224TIP3    H231232   0.566   2.475   7.451 -1.0287 -0.2883 -0.8292
 3225TIP3   OH231233   1.074   3.308   1.526 -0.5845 -0.0876  0.0394
 3225TIP3    H131234   1.139   3.361   1.482 -0.4776 -2.9118 -3.7397
 3225TIP3    H231235   1.124   3.240   1.570 -0.8495 -0.1136  0.3030
 3226TIP3   OH231236   2.146   5.322   7.419 -0.1084 -0.3627 -0.5337
 3226TIP3    H131237   2.208   5.331   7.346 -0.5519  1.6873 -0.7067
 3226TIP3    H231238   2.131   5.411   7.448 -0.4907 -1.0868  1.6466
 3227TIP3   OH231239   0.023   6.435   8.429 -0.0443  0.0351 -0.8056
 3227TIP3    H131240   0.044   6.503   8.492  1.4048 -0.5262 -0.6604
 3227TIP3    H231241   0.105   6.419   8.382 -1.1761  0.8278 -3.2520
 3228TIP3   OH231242   1.802   3.353   1.237 -0.1761  0.1719 -0.3082
 3228TIP3    H131243   1.890   3.341   1.274  0.1085  1.5333 -0.4654
 3228TIP3    H231244   1.817   3.387   1.149 -0.8447  0.7328 -0.2190
 3229TIP3   OH231245   5.870   5.404   1.106 -0.1595  0.2960  0.2524
 3229TIP3    H131246   5.877   5.308   1.104  0.7583  0.3607 -0.5547
 3229TIP3    H231247   5.951   5.433   1.147  0.2002  0.7620 -0.7475
 3230TIP3   OH231248   0.117   3.262   8.431 -0.5125 -0.1197 -0.2590
 3230TIP3    H131249   0.042   3.257   8.489 -1.6790  0.4868 -1.6672
 3230TIP3    H231250   0.190   3.286   8.488 -1.3209 -0.9687  1.1704
 3231TIP3   OH231251   4.310   1.483   1.817 -0.0235  0.0391  0.3355
 3231TIP3    H131252   4.257   1.435   1.882  0.8131 -0.4589  0.6715
 3231TIP3    H231253   4.255   1.557   1.792 -1.3205 -1.0200 -0.1115
 3232TIP3   OH231254   6.759   2.683   1.831 -0.0670 -0.0437 -0.1869
 3232TIP3    H131255   6.777   2.628   1.907  0.6444 -0.4113 -0.6036
 3232TIP3    H231256   6.736   2.768   1.868 -0.0626 -0.3103  0.4464
 3233TIP3   OH231257   4.676   5.963   0.510 -0.1871  0.2740  0.0317
 3233TIP3    H131258   4.593   5.919   0.528  0.3290 -0.5364  0.5317
 3233TIP3    H231259   4.712   5.916   0.435 -0.2208  0.6858 -0.2448
 3234TIP3   OH231260   5.593   0.389   8.193 -0.1564  0.1250 -0.0155
 3234TIP3    H131261   5.588   0.480   8.162  0.9360  0.0830 -0.3522
 3234TIP3    H231262   5.647   0.345   8.128  0.2724 -0.4979  0.7490
 3235TIP3   OH231263   1.652   5.036   8.306 -0.3429 -0.0331 -0.2102
 3235TIP3    H131264   1.626   5.006   8.393 -1.5396  0.3399 -0.4203
 3235TIP3    H231265   1.747   5.027   8.305 -0.1736  1.0607  1.5643
 3236TIP3   OH231266   3.428   3.445   1.495  0.0469  0.1303  0.1155
 3236TIP3    H131267   3.476   3.474   1.416 -2.1106  0.8783 -0.9964
 3236TIP3    H231268   3.349   3.403   1.461 -0.8059  0.2093  1.8975
 3237TIP3   OH231269   2.483   6.494   8.718  0.0184 -0.2883 -0.0444
 3237TIP3    H131270   2.564   6.544   8.713  0.1993 -0.6900 -2.2520
 3237TIP3    H231271   2.418   6.557   8.749  0.9512  0.2969  0.7900
 3238TIP3   OH231272   3.612   1.890   1.494 -0.0492 -0.3909 -0.1745
 3238TIP3    H131273   3.643   1.857   1.578  0.8504 -1.0522 -0.7408
 3238TIP3    H231274   3.517   1.877   1.495 -0.2760  1.0449  1.3413
 3239TIP3   OH231275   3.964   4.641   1.113 -0.0625 -0.8384  0.2226
 3239TIP3    H131276   3.935   4.732   1.109  1.2650 -0.2419  2.3237
 3239TIP3    H231277   3.977   4.616   1.022 -2.1249  0.4850 -0.5043
 3240TIP3   OH231278   2.565   1.273   1.567 -0.5578 -0.1283 -0.0959
 3240TIP3    H131279   2.586   1.363   1.592 -1.1171 -0.3068  1.1257
 3240TIP3    H231280   2.586   1.267   1.474  1.1223  0.7703  0.1916
 3241TIP3   OH231281   2.914   2.230   1.683  0.4534 -0.1616 -0.7074
 3241TIP3    H131282   2.860   2.310   1.685 -1.1002 -1.1740  0.9359
 3241TIP3    H231283   2.852   2.160   1.662  1.5898 -1.1073 -1.0108
 3242TIP3   OH231284   0.768   4.343   6.328 -0.7164 -0.4603  0.4229
 3242TIP3    H131285   0.799   4.285   6.259 -2.1192 -2.3598  1.3012
 3242TIP3    H231286   0.843   4.398   6.348  0.6293 -1.8212 -0.6104
 3243TIP3   OH231287   4.639   1.310   7.554 -0.1430  0.6293  0.4551
 3243TIP3    H131288   4.610   1.349   7.636  0.7466 -1.0792  1.6415
 3243TIP3    H231289   4.558   1.290   7.506 -0.6626  1.7167  0.8524
 3244TIP3   OH231290   3.717   2.569   6.739 -0.3324  0.4708  0.1191
 3244TIP3    H131291   3.778   2.498   6.760  0.3617  1.1294  0.4019
 3244TIP3    H231292   3.764   2.624   6.676 -1.4946 -0.1897 -1.3891
 3245TIP3   OH231293   3.232   2.603   2.329 -0.2449 -0.7022 -0.1327
 3245TIP3    H131294   3.299   2.538   2.353 -2.9838 -3.3445  1.1046
 3245TIP3    H231295   3.246   2.675   2.391  2.0146 -0.6812 -0.5806
 3246TIP3   OH231296   5.406   1.404   6.749  0.8422  0.2422 -0.1859
 3246TIP3    H131297   5.366   1.318   6.735 -0.3101  1.1732 -3.7435
 3246TIP3    H231298   5.440   1.400   6.839 -2.9518 -2.3739  1.4234
 3247TIP3   OH231299   4.485   4.170   0.789 -0.1574  0.0174 -0.4119
 3247TIP3    H131300   4.456   4.184   0.879 -3.3604 -0.3105 -1.2729
 3247TIP3    H231301   4.468   4.253   0.745 -1.9946 -0.8253 -1.4277
 3248TIP3   OH231302   0.394   6.262   0.351 -0.1617 -0.0781 -0.3365
 3248TIP3    H131303   0.355   6.273   0.438  0.1227 -0.7421 -0.1192
 3248TIP3    H231304   0.358   6.180   0.318  1.2729 -0.8883  0.0136
 3249TIP3   OH231305   2.319   4.714   8.406 -0.0796 -0.0291  0.2203
 3249TIP3    H131306   2.312   4.635   8.460  1.8424 -0.3971  0.0110
 3249TIP3    H231307   2.240   4.713   8.351 -0.4775 -1.3808  0.7786
 3250TIP3   OH231308   6.598   5.964   0.219  0.0674 -0.0468 -0.5098
 3250TIP3    H131309   6.506   5.983   0.201  0.7701  2.9612 -1.5482
 3250TIP3    H231310   6.626   5.908   0.147 -0.3647  1.2130 -1.7082
 3251TIP3   OH231311   1.335   1.852   0.564 -0.3605  0.0672 -0.1581
 3251TIP3    H131312   1.431   1.852   0.559 -0.3541 -1.3274 -0.4199
 3251TIP3    H231313   1.307   1.871   0.474 -0.3014 -1.3489 -0.5026
 3252TIP3   OH231314   6.596   2.835   0.804  0.5309  0.5316 -0.1813
 3252TIP3    H131315   6.682   2.873   0.790  0.7202  0.4328  0.6517
 3252TIP3    H231316   6.546   2.858   0.726  1.1039  1.1703 -0.3646
 3253TIP3   OH231317   6.563   3.916   6.834 -0.0520  0.8065  0.0475
 3253TIP3    H131318   6.579   3.942   6.743  0.3501  0.2388 -0.0504
 3253TIP3    H231319   6.500   3.980   6.866  0.2560  1.3748 -0.4459
 3254TIP3   OH231320   6.480   5.081   0.074  0.0358  0.2271 -0.0306
 3254TIP3    H131321   6.537   5.118   0.141 -0.9072  0.3558  0.7271
 3254TIP3    H231322   6.404   5.139   0.072 -1.2398 -1.3242  0.8298
 3255TIP3   OH231323   2.499   3.433   8.271 -0.5320  0.1057  0.4176
 3255TIP3    H131324   2.577   3.381   8.251 -0.3798  1.1384 -1.9916
 3255TIP3    H231325   2.426   3.378   8.245 -0.4463  0.3960 -0.4580
 3256TIP3   OH231326   2.765   1.046   8.512 -0.4810 -0.0694  0.4374
 3256TIP3    H131327   2.821   1.073   8.585 -0.0503 -2.0897  0.8928
 3256TIP3    H231328   2.742   1.129   8.469  2.2533  0.9303  0.6556
 3257TIP3   OH231329   2.336   0.961   6.869 -0.3745 -0.3398  0.1513
 3257TIP3    H131330   2.272   0.902   6.829  0.2041  0.3322 -1.8785
 3257TIP3    H231331   2.412   0.906   6.887 -0.9178 -0.8068  1.0790
 3258TIP3   OH231332   2.187   5.549   8.253  1.0003 -0.2880  1.6650
 3258TIP3    H131333   2.224   5.601   8.181  0.2734  0.1572  1.5920
 3258TIP3    H231334   2.094   5.541   8.230  1.2885 -2.6128  1.0898
 3259TIP3   OH231335   4.802   5.791   8.256  1.3725 -0.0578  0.1699
 3259TIP3    H131336   4.772   5.789   8.347  0.9284  0.9513  0.0513
 3259TIP3    H231337   4.766   5.872   8.220 -0.4006 -1.5163 -1.5856
 3260TIP3   OH231338   5.516   5.813   2.297  1.2607 -0.1230 -0.5080
 3260TIP3    H131339   5.560   5.832   2.380 -2.9014 -0.2106  1.9846
 3260TIP3    H231340   5.509   5.898   2.253  0.4395  0.5969  0.9546
 3261TIP3   OH231341   5.755   5.839   8.215 -0.4332 -0.0248  0.3294
 3261TIP3    H131342   5.693   5.815   8.284  0.4368 -0.0689  1.1233
 3261TIP3    H231343   5.764   5.934   8.223  0.8513 -0.2010  1.3472
 3262TIP3   OH231344   5.917   0.921   0.040  0.2932  0.0103 -0.0731
 3262TIP3    H131345   5.911   0.838   0.087 -3.3851 -0.2703 -0.7344
 3262TIP3    H231346   5.926   0.895  -0.052 -1.4364  0.2641 -0.3394
 3263TIP3   OH231347   1.063   2.264   1.880  0.3632  0.3169 -0.5469
 3263TIP3    H131348   1.105   2.312   1.951  1.0055  1.7988 -1.8745
 3263TIP3    H231349   1.136   2.233   1.826 -0.1504  0.1785 -1.1668
 3264TIP3   OH231350   2.089   2.301   7.383 -0.2692  0.2024  0.2044
 3264TIP3    H131351   2.139   2.325   7.462 -1.8851  1.0625  1.0191
 3264TIP3    H231352   2.014   2.253   7.416 -0.1673 -0.8054 -0.9778
 3265TIP3   OH231353   3.040   3.950   1.140  0.7663  0.5945  0.3881
 3265TIP3    H131354   3.133   3.937   1.118  0.1979 -1.1900 -1.2728
 3265TIP3    H231355   3.028   4.045   1.135  2.2097  0.7677 -0.7605
 3266TIP3   OH231356   1.262   3.759   6.786  0.1847  0.4384 -0.4926
 3266TIP3    H131357   1.273   3.847   6.822  1.5460 -0.5194  1.6468
 3266TIP3    H231358   1.211   3.712   6.852  2.4276 -1.2787  0.1685
 3267TIP3   OH231359   4.984   4.926   7.459  0.6272 -0.3674  0.5896
 3267TIP3    H131360   4.917   4.969   7.513 -0.1580 -1.9528  0.9416
 3267TIP3    H231361   5.020   4.996   7.405 -1.3918  0.5338  0.3082
 3268TIP3   OH231362   4.104   0.099   0.360  0.5823 -0.0405 -0.1842
 3268TIP3    H131363   4.102   0.103   0.265 -0.5497 -0.6901 -0.2078
 3268TIP3    H231364   4.047   0.025   0.382  0.9711 -0.0115  0.9888
 3269TIP3   OH231365   5.891   5.331   1.465  0.1908 -0.5744 -0.4508
 3269TIP3    H131366   5.954   5.401   1.446 -1.1738  0.4303 -1.4874
 3269TIP3    H231367   5.808   5.377   1.479 -0.2884 -1.8397  1.1717
 3270TIP3   OH231368   0.942   0.799   8.839 -0.3102 -0.0496  0.4955
 3270TIP3    H131369   1.012   0.860   8.864  0.1414  0.1285 -1.1030
 3270TIP3    H231370   0.877   0.808   8.908 -0.1845  2.1236  0.3914
 3271TIP3   OH231371   0.747   0.730   0.752  0.7286 -0.0697  0.1288
 3271TIP3    H131372   0.819   0.793   0.747 -0.8355  1.9200  1.2851
 3271TIP3    H231373   0.704   0.737   0.666  0.8950  0.0073  0.0501
 3272TIP3   OH231374   3.947   0.599   7.450  0.3344 -0.8540 -0.7551
 3272TIP3    H131375   3.898   0.520   7.429  1.1384 -1.1903 -1.3929
 3272TIP3    H231376   3.912   0.626   7.535 -1.9254 -0.2945 -1.7824
 3273TIP3   OH231377   3.510   3.137   7.850 -0.0631  0.1801  0.2059
 3273TIP3    H131378   3.442   3.114   7.914 -1.0791 -0.0803 -0.9304
 3273TIP3    H231379   3.585   3.083   7.876  0.5819  2.1398  2.8822
 3274TIP3   OH231380   4.578   3.059   8.490  0.0078 -0.1510 -0.2794
 3274TIP3    H131381   4.561   3.125   8.422  0.0890 -0.4099 -0.5528
 3274TIP3    H231382   4.645   3.098   8.546 -0.9014  0.5608  0.3470
 3275TIP3   OH231383   3.949   2.977   0.824  0.4745 -0.1409  0.6534
 3275TIP3    H131384   3.932   3.030   0.902 -0.6447 -0.8185  0.9036
 3275TIP3    H231385   3.893   2.899   0.836 -0.3227  0.1086 -1.1790
 3276TIP3   OH231386   2.891   4.807   1.144 -0.3986 -0.1615  0.1248
 3276TIP3    H131387   2.842   4.876   1.189 -0.5104 -0.6503  0.7631
 3276TIP3    H231388   2.824   4.749   1.109 -0.3106  0.2101 -0.6736
 3277TIP3   OH231389   6.685   2.465   6.411 -0.7978 -0.5320  0.0465
 3277TIP3    H131390   6.769   2.510   6.414 -0.9879 -0.2030  0.4850
 3277TIP3    H231391   6.697   2.387   6.464 -1.2149  0.2852  1.3798
 3278TIP3   OH231392   1.872   3.567   8.682 -0.4509 -0.2386 -0.0372
 3278TIP3    H131393   1.934   3.609   8.622 -0.0617 -1.0412 -0.1978
 3278TIP3    H231394   1.787   3.578   8.640  0.0049 -2.3302 -1.6519
 3279TIP3   OH231395   0.629   1.290   8.153  0.3264  0.5412 -0.2443
 3279TIP3    H131396   0.599   1.202   8.129  0.2119  1.0904 -2.3111
 3279TIP3    H231397   0.661   1.280   8.242  0.0073 -1.5190 -0.2903
 3280TIP3   OH231398   4.775   5.813   0.287  0.7789  0.2353  0.1270
 3280TIP3    H131399   4.794   5.794   0.195  3.7027 -1.7011  1.0135
 3280TIP3    H231400   4.760   5.728   0.327  0.9485  0.9248  1.7233
 3281TIP3   OH231401   5.133   2.838   7.486  0.4522 -0.6982  0.0097
 3281TIP3    H131402   5.202   2.904   7.488  0.7097 -0.9789  0.3811
 3281TIP3    H231403   5.053   2.888   7.471  0.6172 -0.2787  0.4992
 3282TIP3   OH231404   2.670   4.910   0.753  0.0253 -0.2421 -0.1259
 3282TIP3    H131405   2.726   4.902   0.676 -0.8359  2.0768 -1.0827
 3282TIP3    H231406   2.670   5.003   0.773 -1.2620 -0.5584  1.5775
 3283TIP3   OH231407   2.287   4.489   8.589 -0.0837  0.2923  0.2226
 3283TIP3    H131408   2.217   4.447   8.640 -0.2091 -0.8610 -0.8710
 3283TIP3    H231409   2.367   4.464   8.634 -0.1543 -1.1872 -0.4483
 3284TIP3   OH231410   6.217   1.681   0.506  0.2186 -0.5248  0.1107
 3284TIP3    H131411   6.217   1.600   0.557  0.2319  0.9378  2.6075
 3284TIP3    H231412   6.243   1.749   0.568  2.3794  1.1548 -2.3945
 3285TIP3   OH231413   3.791   5.089   1.860 -0.2722 -0.4561 -0.4271
 3285TIP3    H131414   3.860   5.024   1.849 -0.2416 -0.3930 -0.6013
 3285TIP3    H231415   3.764   5.079   1.951  0.3010 -0.1525 -0.2184
 3286TIP3   OH231416   3.813   3.147   0.343  0.3704 -0.3183  0.1076
 3286TIP3    H131417   3.879   3.162   0.410  2.0346 -0.0838 -1.5196
 3286TIP3    H231418   3.818   3.054   0.323  0.7374 -0.1661 -0.5344
 3287TIP3   OH231419   1.083   0.322   1.590 -0.3080 -0.5136 -0.4409
 3287TIP3    H131420   1.006   0.363   1.551 -0.0938 -0.6663 -1.0227
 3287TIP3    H231421   1.049   0.241   1.629 -0.3918 -0.7175 -0.9372
 3288TIP3   OH231422   0.178   1.379   0.508 -0.7192 -0.3105  0.5172
 3288TIP3    H131423   0.194   1.286   0.493  0.7613  0.2033 -1.5007
 3288TIP3    H231424   0.225   1.399   0.589 -1.7588 -1.4424  1.4446
 3289TIP3   OH231425   6.539   2.003   7.167 -0.1940  0.0218 -0.1701
 3289TIP3    H131426   6.486   1.955   7.231  1.4256 -1.9777 -0.2236
 3289TIP3    H231427   6.508   2.094   7.173 -4.0338 -1.0629 -0.6791
 3290TIP3   OH231428   2.117   1.487   8.335  0.0537  0.0599 -0.0975
 3290TIP3    H131429   2.075   1.425   8.394  0.8062 -0.7739 -0.4149
 3290TIP3    H231430   2.052   1.506   8.268 -0.4036  0.1240  0.3611
 3291TIP3   OH231431   5.004   3.351   7.980 -0.2410 -0.0731  0.2938
 3291TIP3    H131432   4.954   3.322   7.903 -0.8965  0.0557  0.6575
 3291TIP3    H231433   5.082   3.392   7.944  0.2871 -1.5024 -0.2577
 3292TIP3   OH231434   4.165   6.415   7.379  0.2494 -0.1244 -0.2391
 3292TIP3    H131435   4.235   6.383   7.435 -0.3522  1.5717  1.6091
 3292TIP3    H231436   4.103   6.457   7.439 -0.6255  1.4878 -2.1281
 3293TIP3   OH231437   0.898   1.895   0.248  0.6575 -0.2087  0.2639
 3293TIP3    H131438   0.901   1.988   0.223 -0.2082 -0.2326  0.0462
 3293TIP3    H231439   0.829   1.858   0.193 -0.7331 -0.4464  2.0651
 3294TIP3   OH231440   2.682   5.798   1.083  0.2430  0.0952  0.3102
 3294TIP3    H131441   2.723   5.884   1.075  1.0344 -0.1262  1.5844
 3294TIP3    H231442   2.619   5.808   1.155 -0.6905 -0.0329 -0.4722
 3295TIP3   OH231443   5.195   2.487   2.417  0.0979 -0.5737 -0.4041
 3295TIP3    H131444   5.199   2.583   2.425 -0.1907 -0.6230  0.4142
 3295TIP3    H231445   5.112   2.470   2.374  0.5121 -0.4277 -1.2962
 3296TIP3   OH231446   1.799   2.608   7.567 -0.5626  0.1139 -0.6092
 3296TIP3    H131447   1.830   2.681   7.513  0.5605 -0.8668 -1.3569
 3296TIP3    H231448   1.779   2.539   7.504  0.8796 -1.0978  0.1976
 3297TIP3   OH231449   1.790   3.742   7.580  0.3213  0.9234 -0.5762
 3297TIP3    H131450   1.714   3.686   7.564  0.3282  0.2346  1.4231
 3297TIP3    H231451   1.865   3.686   7.563  0.3963  1.3408 -1.7003
 3298TIP3   OH231452   3.145   4.358   0.670 -0.3201 -0.2154  0.3004
 3298TIP3    H131453   3.060   4.335   0.708 -0.4945  3.4507  2.6411
 3298TIP3    H231454   3.125   4.377   0.578 -1.1806 -3.0405 -0.1887
 3299TIP3   OH231455   1.154   0.554   2.113 -0.0061  0.3587  0.2561
 3299TIP3    H131456   1.110   0.570   2.029  0.9392  0.8443 -0.1619
 3299TIP3    H231457   1.091   0.585   2.179 -0.4710  0.6220 -0.3015
 3300TIP3   OH231458   4.069   1.756   1.381  0.5370  0.0695  0.3084
 3300TIP3    H131459   4.084   1.784   1.472  1.5340 -0.2939  0.2700
 3300TIP3    H231460   4.024   1.672   1.389 -2.9332  1.7890  0.4237
 3301TIP3   OH231461   0.298   0.792   8.721 -0.6363  0.2804 -0.1060
 3301TIP3    H131462   0.377   0.837   8.750 -1.2114  0.7864  0.7226
 3301TIP3    H231463   0.267   0.745   8.799 -0.2983 -1.2197 -0.8218
 3302TIP3   OH231464   0.962   2.385   7.311  0.3811  0.5962 -0.4742
 3302TIP3    H131465   1.021   2.371   7.237  1.7275  0.8348  0.5203
 3302TIP3    H231466   1.017   2.374   7.389 -1.4272 -1.8742  0.6165
 3303TIP3   OH231467   3.707   2.873   6.609 -0.0662 -0.0172  0.8613
 3303TIP3    H131468   3.649   2.832   6.545  0.6135  1.0491 -0.4899
 3303TIP3    H231469   3.793   2.834   6.593  0.5222  1.6304 -0.2275
 3304TIP3   OH231470   4.721   0.704   0.221 -0.4815 -0.7559  0.0124
 3304TIP3    H131471   4.676   0.740   0.144 -0.8203 -0.9811  0.1033
 3304TIP3    H231472   4.703   0.610   0.217  0.1857 -0.8826 -0.0830
 3305TIP3   OH231473   3.315   0.535   8.670 -0.3890 -0.2362  0.4421
 3305TIP3    H131474   3.299   0.618   8.625  3.4045  0.5481  0.1478
 3305TIP3    H231475   3.368   0.485   8.608 -1.1285 -2.1827  1.3280
 3306TIP3   OH231476   2.328   1.186   0.438 -0.4303  0.1093 -0.2684
 3306TIP3    H131477   2.306   1.170   0.530 -0.7269  1.5615 -0.0638
 3306TIP3    H231478   2.370   1.105   0.409  0.5286 -0.0359  1.4054
 3307TIP3   OH231479   6.032   0.422   0.283  0.3597 -0.1082 -0.0158
 3307TIP3    H131480   6.099   0.488   0.265 -0.2998  0.6635  0.3077
 3307TIP3    H231481   6.027   0.418   0.378  0.2021 -0.4285 -0.0358
 3308TIP3   OH231482   3.760   0.700   8.218  1.1476  0.2649 -0.3650
 3308TIP3    H131483   3.762   0.729   8.310  0.0952  0.1497 -0.3001
 3308TIP3    H231484   3.825   0.755   8.175  0.0064  1.9745 -0.0079
 3309TIP3   OH231485   0.259   0.573   1.592  0.4053  0.3081 -0.3306
 3309TIP3    H131486   0.189   0.527   1.545  0.3469  1.0978 -1.0634
 3309TIP3    H231487   0.216   0.606   1.671  0.0592  0.3862 -0.5448
 3310TIP3   OH231488   6.210   4.699   1.595  0.0949  0.2796 -0.1853
 3310TIP3    H131489   6.155   4.654   1.531 -0.6244 -0.4457  0.9171
 3310TIP3    H231490   6.168   4.683   1.679  0.7011  1.7018  0.4286
 3311TIP3   OH231491   3.440   3.633   8.666 -0.1018  0.0866 -0.2855
 3311TIP3    H131492   3.457   3.590   8.582 -0.6837  0.8160 -0.7895
 3311TIP3    H231493   3.427   3.560   8.727  0.5894 -0.4554 -0.7632
 3312TIP3   OH231494   4.018   0.079   7.319 -0.1434 -0.0517  0.1748
 3312TIP3    H131495   3.953   0.011   7.337 -0.6245  0.3419 -0.0407
 3312TIP3    H231496   3.969   0.161   7.324  0.4806  0.3047  0.6933
 3313TIP3   OH231497   5.542   1.833   0.272  0.2130  0.7356 -0.2141
 3313TIP3    H131498   5.621   1.780   0.272 -0.2592 -0.0084 -1.3403
 3313TIP3    H231499   5.521   1.844   0.365  0.3983 -0.9666  0.0630
 3314TIP3   OH231500   0.945   4.566   8.675 -0.4069 -0.1896  0.4223
 3314TIP3    H131501   0.965   4.547   8.767  0.6187  0.3065  0.3167
 3314TIP3    H231502   1.027   4.599   8.639 -0.3798 -1.7112 -1.0524
 3315TIP3   OH231503   0.041   2.071   6.701  0.2231  0.1156  0.2167
 3315TIP3    H131504   0.136   2.083   6.703  0.3180 -0.4541  3.0743
 3315TIP3    H231505   0.029   1.977   6.693 -0.1297  0.1929 -0.2020
 3316TIP3   OH231506   4.962   6.298   1.643 -0.6313 -0.5448  0.7865
 3316TIP3    H131507   4.909   6.374   1.619  0.1192  0.0522  0.9637
 3316TIP3    H231508   4.932   6.229   1.585  0.0400  0.4383 -0.8272
 3317TIP3   OH231509   6.748   3.376   1.294  0.3255  0.2018  0.1240
 3317TIP3    H131510   6.780   3.313   1.358 -0.3065 -0.5639 -0.2999
 3317TIP3    H231511   6.803   3.454   1.307  0.2452  0.0379  1.5336
 3318TIP3   OH231512   6.280   0.000   1.229 -0.3709 -0.2538 -0.5356
 3318TIP3    H131513   6.215   0.068   1.210 -1.0693 -0.1884  1.7174
 3318TIP3    H231514   6.303  -0.035   1.144 -2.1155  0.8787 -1.5584
 3319TIP3   OH231515   1.255   3.593   8.524 -0.5433 -0.4624  0.8699
 3319TIP3    H131516   1.288   3.675   8.562 -1.8487 -0.0732  1.2149
 3319TIP3    H231517   1.265   3.529   8.595 -1.0140 -0.2231  1.1589
 3320TIP3   OH231518   5.384   5.823   1.725 -0.5250  0.2862 -0.5667
 3320TIP3    H131519   5.426   5.829   1.811 -0.0872 -1.1339 -0.6541
 3320TIP3    H231520   5.299   5.865   1.737 -1.3704 -1.6828  1.1881
 3321TIP3   OH231521   3.132   0.963   8.106 -0.2784  0.2080 -0.3179
 3321TIP3    H131522   3.195   0.948   8.036 -0.4671  0.7375 -0.6052
 3321TIP3    H231523   3.087   0.879   8.116  1.3737 -0.6048  0.8150
 3322TIP3   OH231524   1.018   4.027   1.037  0.1467 -0.0541  0.0508
 3322TIP3    H131525   1.022   4.121   1.055  1.1590  0.2551 -1.5940
 3322TIP3    H231526   1.088   3.989   1.091 -0.1370  0.1501  0.5676
 3323TIP3   OH231527   5.111   4.862   8.103  0.6434  0.0785 -0.1731
 3323TIP3    H131528   5.131   4.899   8.189 -1.7831  0.8372  0.1510
 3323TIP3    H231529   5.130   4.932   8.041 -0.7575  0.7503  0.1141
 3324TIP3   OH231530   2.850   5.707   7.345  0.4182 -0.1802  0.2076
 3324TIP3    H131531   2.793   5.774   7.383  0.4279 -0.3094  0.4510
 3324TIP3    H231532   2.804   5.679   7.265 -0.5875 -1.3260  1.1549
 3325TIP3   OH231533   1.040   4.877   7.141  0.3239  0.6262 -0.4406
 3325TIP3    H131534   1.092   4.894   7.062  0.5302 -1.5745 -0.8194
 3325TIP3    H231535   1.098   4.903   7.213  0.7358  1.1664 -0.9569
 3326TIP3   OH231536   6.519   0.357   1.391  0.6785  0.5238  0.1435
 3326TIP3    H131537   6.581   0.415   1.346  1.0483  0.0355  0.0120
 3326TIP3    H231538   6.545   0.269   1.364  0.1076  0.2955  0.3227
 3327TIP3   OH231539   6.736   6.717   1.926  0.1046 -0.0403 -0.1229
 3327TIP3    H131540   6.767   6.681   1.843 -0.1882 -0.5657 -0.0096
 3327TIP3    H231541   6.703   6.641   1.974  0.0658  0.2930  0.3821
 3328TIP3   OH231542   4.663   0.945   8.259  0.1528 -0.1012  0.3907
 3328TIP3    H131543   4.709   1.009   8.313 -2.5671  0.2053  2.5531
 3328TIP3    H231544   4.733   0.887   8.226  2.3757  2.2676  0.6314
 3329TIP3   OH231545   0.681   5.572   7.494  0.3262  0.2660  0.0726
 3329TIP3    H131546   0.675   5.574   7.590 -1.2106 -1.0756  0.0452
 3329TIP3    H231547   0.600   5.529   7.466  0.0121  1.9826 -1.9211
 3330TIP3   OH231548   4.072   6.273   8.271  0.2360 -0.1715  0.0016
 3330TIP3    H131549   4.092   6.180   8.280 -0.9161 -0.2861  2.0135
 3330TIP3    H231550   3.981   6.281   8.299  0.1351  1.4908 -0.7076
 3331TIP3   OH231551   3.523   6.189   1.570  0.2938 -0.3916 -0.1832
 3331TIP3    H131552   3.443   6.173   1.621 -0.6460  1.8242 -0.8436
 3331TIP3    H231553   3.588   6.214   1.636  0.1456 -1.1286  0.2561
 3332TIP3   OH231554   0.166   5.785   0.930  0.6168 -0.0461  0.0578
 3332TIP3    H131555   0.144   5.714   0.989 -0.3434 -0.6890 -1.0277
 3332TIP3    H231556   0.247   5.821   0.965  1.3202 -1.8889  0.4572
 3333TIP3   OH231557   3.175   3.671   8.777  0.6147  0.0679 -0.3704
 3333TIP3    H131558   3.196   3.752   8.729  1.2688 -0.1120 -0.3998
 3333TIP3    H231559   3.260   3.627   8.786 -0.0073 -1.6969 -2.3212
 3334TIP3   OH231560   1.805   6.458   7.961 -0.6680 -0.0071 -0.0297
 3334TIP3    H131561   1.728   6.413   7.925 -0.9875  0.5072  0.0006
 3334TIP3    H231562   1.801   6.440   8.055 -0.4252 -0.4618 -0.1022
 3335TIP3   OH231563   0.483   0.047   0.435  0.3353 -0.7179 -0.5024
 3335TIP3    H131564   0.499  -0.011   0.360  0.6128  1.0742 -1.9104
 3335TIP3    H231565   0.545   0.018   0.502  0.6667 -1.8486 -1.2729
 3336TIP3   OH231566   5.494   4.151   1.529 -0.3669 -0.6218  0.1212
 3336TIP3    H131567   5.511   4.218   1.463 -0.2795 -2.5173 -1.8934
 3336TIP3    H231568   5.576   4.143   1.577  0.1358 -0.4092 -0.6821
 3337TIP3   OH231569   3.044   5.093   0.078 -0.4700  0.1829 -0.0680
 3337TIP3    H131570   2.977   5.154   0.048 -0.2216  0.9054  0.7848
 3337TIP3    H231571   3.125   5.126   0.040 -0.4851 -0.2919 -0.5336
 3338TIP3   OH231572   0.271   2.078   1.286 -0.1250  0.4392  0.4111
 3338TIP3    H131573   0.345   2.071   1.345 -0.9186 -1.0644  1.2822
 3338TIP3    H231574   0.309   2.075   1.198  0.8509 -0.0532  0.8442
 3339TIP3   OH231575   3.657   0.063   7.439 -0.4465  0.0910  0.4964
 3339TIP3    H131576   3.657   0.034   7.347  1.7629 -1.4403  0.9214
 3339TIP3    H231577   3.701   0.148   7.437  0.0295 -0.1634  0.2142
 3340TIP3   OH231578   4.224   0.894   1.973 -0.0110  0.2780 -0.3636
 3340TIP3    H131579   4.140   0.864   1.939  0.5263  0.5002 -1.9599
 3340TIP3    H231580   4.287   0.825   1.949  0.2187 -0.0849  1.1734
 3341TIP3   OH231581   4.814   5.698   2.202  0.2491  0.1968 -0.1670
 3341TIP3    H131582   4.845   5.724   2.289  1.1475 -0.8979 -0.1353
 3341TIP3    H231583   4.849   5.609   2.190 -0.3270  0.1237 -1.4214
 3342TIP3   OH231584   2.005   0.401   8.722 -1.1770 -0.2259 -0.3449
 3342TIP3    H131585   1.967   0.466   8.781 -1.3694 -0.6747  0.0389
 3342TIP3    H231586   2.023   0.326   8.778  1.4385  0.3803 -0.2518
 3343TIP3   OH231587   2.010   0.809   0.805 -0.5590  0.0851  0.1316
 3343TIP3    H131588   2.030   0.718   0.784 -1.3157  0.2009 -1.2001
 3343TIP3    H231589   1.967   0.805   0.890  0.9813 -0.6096  0.9142
 3344TIP3   OH231590   3.993   1.859   6.743  0.5783 -0.2735  0.4864
 3344TIP3    H131591   3.947   1.933   6.784  1.7157  0.1292  1.0888
 3344TIP3    H231592   3.943   1.841   6.663  0.7620  1.7295 -0.1363
 3345TIP3   OH231593   5.218   1.972   8.723 -0.5691 -0.6187 -0.0107
 3345TIP3    H131594   5.135   1.928   8.704 -0.3699 -1.3729  0.8030
 3345TIP3    H231595   5.277   1.901   8.749  0.6297 -0.2362 -1.5204
 3346TIP3   OH231596   2.071   3.109   7.916  0.1220 -0.7707  0.1097
 3346TIP3    H131597   2.133   3.095   7.845 -1.3854 -2.6025 -0.9490
 3346TIP3    H231598   2.057   3.022   7.953 -1.7009 -0.4027  0.3895
 3347TIP3   OH231599   1.098   0.711   1.048  0.7505 -0.1374 -0.4749
 3347TIP3    H131600   1.007   0.682   1.047 -0.0418  2.1550 -0.9716
 3347TIP3    H231601   1.135   0.678   0.965 -0.2554  0.6779 -1.2720
 3348TIP3   OH231602   2.356   1.200   0.934  0.3717 -0.3449  0.1013
 3348TIP3    H131603   2.265   1.181   0.958  1.0047 -0.5384  2.7237
 3348TIP3    H231604   2.372   1.287   0.971  0.3804  1.1871 -3.1918
 3349TIP3   OH231605   5.717   4.302   1.419 -0.5135  0.0063 -0.1282
 3349TIP3    H131606   5.788   4.318   1.357 -0.3133 -0.5857 -0.0542
 3349TIP3    H231607   5.739   4.357   1.495 -0.0692 -0.2669 -0.0574
 3350TIP3   OH231608   1.243   6.724   7.740 -0.1302  0.0121 -0.0356
 3350TIP3    H131609   1.168   6.697   7.687 -0.0149  0.1234 -0.2553
 3350TIP3    H231610   1.213   6.804   7.784 -0.3138 -0.2192  0.2650
 3351TIP3   OH231611   0.147   6.721   7.370  0.1609 -0.4942 -0.4302
 3351TIP3    H131612   0.187   6.799   7.408  0.1532 -1.5238  1.8519
 3351TIP3    H231613   0.215   6.686   7.312  2.0126 -1.1952  1.9735
 3352TIP3   OH231614   6.109   2.764   2.317 -0.4361 -0.3539 -0.6422
 3352TIP3    H131615   6.167   2.726   2.383 -1.2698  0.7994  0.7944
 3352TIP3    H231616   6.168   2.800   2.251  0.4551 -0.3779  0.1269
 3353TIP3   OH231617   0.702   3.399   0.524 -0.0111  0.1187 -0.3908
 3353TIP3    H131618   0.645   3.366   0.593  0.2684  1.2400  0.4163
 3353TIP3    H231619   0.701   3.332   0.456 -3.3505  0.6403 -1.0211
 3354TIP3   OH231620   1.282   3.837   1.136 -0.3030 -0.1948  0.5271
 3354TIP3    H131621   1.219   3.868   1.200 -0.6343  2.2239 -0.8645
 3354TIP3    H231622   1.242   3.759   1.097 -2.4374  1.1959 -0.2199
 3355TIP3   OH231623   0.359   4.281   7.749  0.2050 -0.2358  0.0257
 3355TIP3    H131624   0.425   4.275   7.679 -0.0255 -0.6993 -0.1514
 3355TIP3    H231625   0.299   4.209   7.732  1.0834 -1.4187  1.6916
 3356TIP3   OH231626   4.028   3.015   8.659 -0.1822 -0.1609  0.5679
 3356TIP3    H131627   3.997   3.056   8.740 -1.4614 -0.0687  0.0507
 3356TIP3    H231628   4.076   2.937   8.689  2.2050  1.5577  1.5564
 3357TIP3   OH231629   6.529   0.744   1.067  0.0845 -0.1380 -0.0773
 3357TIP3    H131630   6.498   0.834   1.062 -1.9888 -0.7634  0.6854
 3357TIP3    H231631   6.459   0.696   1.110  2.1476 -1.6961  1.7777
 3358TIP3   OH231632   2.493   0.924   0.658  0.2328  0.0107  0.5429
 3358TIP3    H131633   2.528   0.837   0.676  1.5692  0.3377 -0.3642
 3358TIP3    H231634   2.413   0.907   0.607  1.8110 -0.6961 -1.8834
 3359TIP3   OH231635   4.328   3.255   7.897 -0.3400  0.2432 -0.9945
 3359TIP3    H131636   4.317   3.160   7.900  0.7104  0.1226 -0.0490
 3359TIP3    H231637   4.239   3.289   7.891 -0.6818 -0.8137 -2.7190
 3360TIP3   OH231638   5.878   1.174   6.405 -0.4613 -0.4614 -0.6765
 3360TIP3    H131639   5.808   1.208   6.349 -1.4535  0.8724  1.2073
 3360TIP3    H231640   5.832   1.140   6.482  0.9027 -0.8479 -0.0031
 3361TIP3   OH231641   5.275   3.463   7.923 -0.1240  0.5991  0.4507
 3361TIP3    H131642   5.261   3.543   7.873 -1.2685  1.6999  2.3792
 3361TIP3    H231643   5.365   3.471   7.955  1.0355 -0.6762 -2.2390
 3362TIP3   OH231644   4.151   0.278   8.272  0.0206  0.5778  0.3043
 3362TIP3    H131645   4.111   0.297   8.187  0.1142  1.8727  0.5330
 3362TIP3    H231646   4.076   0.260   8.329 -0.0761  0.3050  0.0960
 3363TIP3   OH231647   0.422   1.278   7.337  0.0861  0.1602  0.5603
 3363TIP3    H131648   0.507   1.243   7.311  0.1534  0.9282 -0.3141
 3363TIP3    H231649   0.442   1.362   7.378 -0.2215  0.1922  0.6480
 3364TIP3   OH231650   4.142   0.670   8.297  0.3521  0.0679 -0.2395
 3364TIP3    H131651   4.124   0.742   8.357 -0.5737 -0.3558  0.0143
 3364TIP3    H231652   4.063   0.615   8.301 -0.1932  0.5409 -2.5614
 3365TIP3   OH231653   6.186   4.803   0.653 -0.4008 -0.0236  0.0552
 3365TIP3    H131654   6.112   4.757   0.613 -0.6875 -0.7404  1.3402
 3365TIP3    H231655   6.252   4.808   0.584 -1.3451 -0.0781 -0.8781
 3366TIP3   OH231656   4.186   1.127   8.477 -0.0232  0.8746 -0.1894
 3366TIP3    H131657   4.213   1.207   8.521  0.9882 -0.4888  1.7741
 3366TIP3    H231658   4.101   1.149   8.438  1.3069  3.6232 -1.9040
 3367TIP3   OH231659   6.276   0.981   0.811  0.1521 -0.6509  0.6434
 3367TIP3    H131660   6.200   1.009   0.759  0.9058  0.6332  0.1970
 3367TIP3    H231661   6.261   1.017   0.898  0.7153  0.5083  0.2869
 3368TIP3   OH231662   1.534   4.341   7.179  0.0648 -0.8705  0.3585
 3368TIP3    H131663   1.495   4.418   7.221  0.1825 -0.5934 -0.0358
 3368TIP3    H231664   1.604   4.314   7.238 -0.4742 -1.1400  0.8818
 3369TIP3   OH231665   4.634   1.233   0.686 -0.1373  0.5072 -0.1271
 3369TIP3    H131666   4.647   1.143   0.656 -0.9085  0.0453  0.8690
 3369TIP3    H231667   4.637   1.228   0.782  0.3705  1.6360 -0.0604
 3370TIP3   OH231668   4.089   2.459   0.977  0.3896  0.0188 -0.3359
 3370TIP3    H131669   4.153   2.438   0.909  2.7152  0.2176  1.6681
 3370TIP3    H231670   4.089   2.382   1.034 -1.6091 -0.1944 -0.5563
 3371TIP3   OH231671   0.072   1.738   1.182 -0.8379  0.0589  0.4170
 3371TIP3    H131672   0.110   1.777   1.103 -1.6349 -0.3842 -0.1927
 3371TIP3    H231673  -0.021   1.756   1.176 -0.8469  0.4774  1.5312
 3372TIP3   OH231674   3.149   4.675   7.312  0.0374 -0.2786  0.2146
 3372TIP3    H131675   3.205   4.648   7.385 -2.3921 -1.2027  1.8639
 3372TIP3    H231676   3.153   4.770   7.313  0.2776 -0.2808  1.3858
 3373TIP3   OH231677   3.468   3.540   7.600 -0.4542  0.5281 -0.3917
 3373TIP3    H131678   3.434   3.451   7.613 -0.4282  0.7745  1.6141
 3373TIP3    H231679   3.563   3.530   7.607 -0.3638  0.5684 -1.3379
 3374TIP3   OH231680   3.440   3.810   0.533 -0.3658 -0.0531  0.2180
 3374TIP3    H131681   3.401   3.731   0.572 -1.4402 -0.2116 -1.1078
 3374TIP3    H231682   3.425   3.878   0.598 -1.4702 -0.4679  0.4185
 3375TIP3   OH231683   3.522   1.536   0.111 -1.4441 -0.0449 -0.2813
 3375TIP3    H131684   3.514   1.504   0.021  0.6409  1.9717 -1.2886
 3375TIP3    H231685   3.598   1.489   0.146 -1.2908  0.3313 -0.1135
 3376TIP3   OH231686   5.114   3.946   0.042 -0.0929  0.4691 -0.9902
 3376TIP3    H131687   5.054   3.954   0.117  0.3356  0.3499 -0.6281
 3376TIP3    H231688   5.086   4.015  -0.018  0.5785  1.6386 -0.0036
 3377TIP3   OH231689   3.038   4.250   7.455  0.2178  0.2825 -0.0003
 3377TIP3    H131690   2.968   4.201   7.412 -0.4836  1.1217  0.1660
 3377TIP3    H231691   3.109   4.252   7.390 -0.7038  1.2563 -1.0186
 3378TIP3   OH231692   1.023   2.221   1.249  0.4501 -0.7836  0.2208
 3378TIP3    H131693   1.038   2.289   1.184 -1.2920  0.6028  1.1820
 3378TIP3    H231694   1.088   2.239   1.318 -1.4891  1.5229  1.6077
 3379TIP3   OH231695   0.788   3.698   1.292  0.3099  0.4741 -0.1593
 3379TIP3    H131696   0.754   3.760   1.228 -0.3568  0.4225  0.1338
 3379TIP3    H231697   0.818   3.752   1.365 -0.9697  0.4341  0.4229
 3380TIP3   OH231698   1.511   1.124   1.362 -0.4789  0.6726  0.4668
 3380TIP3    H131699   1.526   1.215   1.390  1.0675  0.7150 -0.3911
 3380TIP3    H231700   1.427   1.127   1.317  0.4099  2.0991 -1.1930
 3381TIP3   OH231701   0.366   5.640   0.254 -0.3868 -0.3782  0.1194
 3381TIP3    H131702   0.311   5.633   0.176 -0.2275 -2.1194  0.1386
 3381TIP3    H231703   0.452   5.609   0.226 -0.1320 -0.2912  0.7947
 3382TIP3   OH231704   0.150   6.245   7.329  0.6106 -0.4290 -0.3771
 3382TIP3    H131705   0.185   6.165   7.367  2.5961  1.2575  1.6566
 3382TIP3    H231706   0.224   6.286   7.285 -0.4127  0.2274 -1.5743
 3383TIP3   OH231707   0.425   2.858   1.501  0.0550  0.5653 -0.2838
 3383TIP3    H131708   0.332   2.860   1.521  0.0939  0.1836 -0.0538
 3383TIP3    H231709   0.464   2.809   1.573  0.1557 -1.1843 -1.4616
 3384TIP3   OH231710   4.116   3.519   7.295  0.5852  0.4513  0.1387
 3384TIP3    H131711   4.133   3.613   7.287  0.2733  0.4506 -0.5775
 3384TIP3    H231712   4.057   3.499   7.222 -0.6870  0.0087  1.2554
 3385TIP3   OH231713   2.427   6.465   8.118 -0.4352  0.3631  0.0447
 3385TIP3    H131714   2.422   6.369   8.113  0.6324  0.2728  0.5497
 3385TIP3    H231715   2.452   6.483   8.209 -1.2840  1.1644  0.1442
 3386TIP3   OH231716   4.624   4.893   1.287 -0.1833 -0.7460  0.8207
 3386TIP3    H131717   4.542   4.873   1.242  0.1865 -0.9158  0.2014
 3386TIP3    H231718   4.640   4.817   1.344 -0.3368 -0.8181  0.7679
 3387TIP3   OH231719   3.969   5.738   6.903  0.3025  0.4298  0.7483
 3387TIP3    H131720   3.933   5.808   6.957  0.7572  2.8914 -1.9116
 3387TIP3    H231721   4.060   5.729   6.932  0.3791  1.2835  0.7873
 3388TIP3   OH231722   5.928   3.264   1.442 -0.0976 -0.3889 -0.4533
 3388TIP3    H131723   5.861   3.328   1.465 -0.4114 -0.4536 -1.1671
 3388TIP3    H231724   5.921   3.196   1.509  0.5063  0.5119  0.5399
 3389TIP3   OH231725   3.920   4.998   7.574 -0.0756  0.6554  0.5758
 3389TIP3    H131726   3.947   4.906   7.573  0.8388  0.9177  0.0724
 3389TIP3    H231727   3.892   5.015   7.484 -0.9425  0.6770  0.8442
 3390TIP3   OH231728   6.063   5.583   7.725  0.0607  0.1086 -0.0586
 3390TIP3    H131729   5.987   5.598   7.668 -1.0651 -1.7140  0.8807
 3390TIP3    H231730   6.029   5.596   7.813  1.6016  2.1225  0.3145
 3391TIP3   OH231731   5.696   1.797   1.020  0.5902 -0.5244 -0.2336
 3391TIP3    H131732   5.742   1.714   1.007  0.2314 -0.4300 -2.4799
 3391TIP3    H231733   5.762   1.855   1.057  1.5966 -1.0932 -1.0804
 3392TIP3   OH231734   2.130   5.410   2.391 -0.1238  0.2306  0.4762
 3392TIP3    H131735   2.223   5.425   2.408 -0.1844  0.1364  0.9223
 3392TIP3    H231736   2.110   5.329   2.438 -0.6086  0.6638  1.0426
 3393TIP3   OH231737   0.332   5.283   1.102  0.6348 -0.1507  0.3126
 3393TIP3    H131738   0.312   5.206   1.156  2.5612 -1.9418 -1.3539
 3393TIP3    H231739   0.340   5.355   1.165  1.3829 -1.8334  2.2633
 3394TIP3   OH231740   2.433   5.121   7.290 -0.7758  0.3261 -0.5351
 3394TIP3    H131741   2.508   5.170   7.324  0.1094 -0.9081 -0.6374
 3394TIP3    H231742   2.429   5.042   7.345 -2.8875  1.0101  0.4019
 3395TIP3   OH231743   1.540   5.544   6.812  0.0771 -0.4621  0.6872
 3395TIP3    H131744   1.477   5.472   6.819  0.3871 -0.7500  0.5943
 3395TIP3    H231745   1.600   5.516   6.742 -0.4502  0.4024 -0.1245
 3396TIP3   OH231746   5.781   3.894   7.371 -0.4012 -0.1644 -0.2083
 3396TIP3    H131747   5.835   3.872   7.295 -0.2620  2.2315 -0.8846
 3396TIP3    H231748   5.692   3.868   7.346 -0.4287  1.0016 -1.4064
 3397TIP3   OH231749   4.866   1.823   2.154 -0.2971  0.4593  0.7925
 3397TIP3    H131750   4.836   1.759   2.219 -1.9819  1.2056  0.8015
 3397TIP3    H231751   4.950   1.854   2.189 -0.3233 -0.4294  1.7060
 3398TIP3   OH231752   2.690   6.352   7.984 -0.2066  0.4673 -0.9981
 3398TIP3    H131753   2.635   6.421   7.947 -2.8325 -0.7040  0.4881
 3398TIP3    H231754   2.639   6.315   8.056  2.5397 -0.7607  0.5042
 3399TIP3   OH231755   4.601   0.400   1.232  0.4635  0.5218 -0.1044
 3399TIP3    H131756   4.626   0.479   1.279  1.6778  0.4807 -0.6359
 3399TIP3    H231757   4.582   0.430   1.143  4.0266 -0.0886 -1.2298
 3400TIP3   OH231758   4.551   2.012   1.833 -0.0528  0.3296  0.0724
 3400TIP3    H131759   4.590   2.040   1.916  2.6850  0.1928 -1.0751
 3400TIP3    H231760   4.537   1.918   1.843 -0.5728  0.4596  0.6589
 3401TIP3   OH231761   5.841   2.733   7.009 -0.0159 -0.1318 -0.7327
 3401TIP3    H131762   5.773   2.760   7.071  0.0402 -2.6119  0.5251
 3401TIP3    H231763   5.848   2.807   6.948 -2.7104  0.8664  0.0041
 3402TIP3   OH231764   2.831   4.439   0.624 -0.2035  0.1537  0.2032
 3402TIP3    H131765   2.836   4.397   0.538  1.5910 -0.5509  0.5859
 3402TIP3    H231766   2.754   4.401   0.665 -0.9458  0.3250 -0.9988
 3403TIP3   OH231767   1.368   3.494   8.285 -0.5454  0.2319  0.0218
 3403TIP3    H131768   1.453   3.530   8.308  0.3264 -1.1460 -0.9206
 3403TIP3    H231769   1.309   3.526   8.353  0.9109  0.4039  1.2443
 3404TIP3   OH231770   0.007   5.700   8.092  0.2944 -0.6152  0.3077
 3404TIP3    H131771   0.085   5.740   8.054 -0.0141  0.7602  1.0284
 3404TIP3    H231772   0.020   5.707   8.187 -0.1605 -1.4888  0.4458
 3405TIP3   OH231773   3.845   3.699   8.302  0.5431 -0.2679 -0.3860
 3405TIP3    H131774   3.816   3.729   8.216  1.0698 -1.8046 -1.1413
 3405TIP3    H231775   3.891   3.774   8.340 -3.7151  2.1032  0.6616
 3406TIP3   OH231776   0.759   0.460   0.426  0.2596 -0.7099 -0.9868
 3406TIP3    H131777   0.704   0.523   0.472  0.7206  1.0432 -2.6747
 3406TIP3    H231778   0.703   0.423   0.358  0.4043 -0.9867 -0.9583
 3407TIP3   OH231779   3.586   5.911   2.323 -0.1588 -0.4359 -0.1906
 3407TIP3    H131780   3.617   5.993   2.284 -0.1593  0.0737  0.8627
 3407TIP3    H231781   3.666   5.858   2.332  0.7000  1.1877  3.2822
 3408TIP3   OH231782   3.523   4.193   7.946  0.1199  0.2953  0.2942
 3408TIP3    H131783   3.562   4.251   8.012  1.3118  0.5350 -0.5820
 3408TIP3    H231784   3.533   4.241   7.864 -2.7053  0.6744  0.0703
 3409TIP3   OH231785   1.967   3.674   8.411  0.3055 -0.2260  0.1352
 3409TIP3    H131786   1.941   3.708   8.326 -0.9848  0.7145  0.8678
 3409TIP3    H231787   1.937   3.584   8.411  0.8987 -0.4369 -0.6309
 3410TIP3   OH231788   0.193   1.557   2.259  0.6416  0.9665 -0.4832
 3410TIP3    H131789   0.288   1.552   2.248  0.6586 -0.6663  0.1972
 3410TIP3    H231790   0.157   1.512   2.182  0.4046  1.5572 -0.7252
 3411TIP3   OH231791   6.362   1.967   1.487  0.2336  0.2736  0.3913
 3411TIP3    H131792   6.327   1.967   1.576  1.3580 -0.9408  0.8577
 3411TIP3    H231793   6.425   2.039   1.485  0.8654 -0.2649  0.8530
 3412TIP3   OH231794   4.282   5.435   0.356 -0.6947 -0.8398  0.2642
 3412TIP3    H131795   4.369   5.401   0.336 -0.9192 -0.9439 -0.5667
 3412TIP3    H231796   4.270   5.508   0.296 -0.8409 -0.2637  0.9744
 3413TIP3   OH231797   3.786   1.000   6.787 -0.1378 -0.0455  0.0588
 3413TIP3    H131798   3.750   0.918   6.821 -1.5610  0.8873  0.8470
 3413TIP3    H231799   3.715   1.039   6.736  0.5150  0.7300 -0.2818
 3414TIP3   OH231800   0.553   0.199   8.668 -0.4310  0.3110  0.2460
 3414TIP3    H131801   0.573   0.107   8.687  1.8103  0.7340  0.2127
 3414TIP3    H231802   0.542   0.239   8.754  2.9856  0.8275  0.6049
 3415TIP3   OH231803   3.968   4.039   7.902  0.3449 -0.6868  0.6365
 3415TIP3    H131804   3.922   4.071   7.980 -0.0103  0.3134  0.0382
 3415TIP3    H231805   3.911   3.969   7.868  1.1957 -2.1094  2.0318
 3416TIP3   OH231806   1.596   3.190   0.898  0.0023 -0.4872 -0.1888
 3416TIP3    H131807   1.502   3.180   0.882 -0.1370  0.4331  0.0363
 3416TIP3    H231808   1.607   3.173   0.991 -0.0081 -0.1007 -0.1182
 3417TIP3   OH231809   4.478   3.700   6.810  0.1633  0.1117 -0.2623
 3417TIP3    H131810   4.497   3.741   6.726  0.7890  1.4755  0.5253
 3417TIP3    H231811   4.563   3.670   6.842  0.1752  1.0256  0.6036
 3418TIP3   OH231812   2.911   1.644   1.194 -0.3557  0.0192 -0.0467
 3418TIP3    H131813   2.992   1.683   1.227 -0.1867  0.5915 -1.1040
 3418TIP3    H231814   2.906   1.558   1.237 -0.4567  0.9647  1.9060
 3419TIP3   OH231815   5.781   1.653   0.263  0.4508 -0.2097 -0.2505
 3419TIP3    H131816   5.741   1.578   0.220  1.6864 -0.0677 -1.7371
 3419TIP3    H231817   5.819   1.618   0.344 -1.5301 -0.5672  0.5775
 3420TIP3   OH231818   3.063   0.583   1.691 -0.6160 -0.2105  0.4912
 3420TIP3    H131819   3.060   0.630   1.774  0.7488  2.0266 -0.6264
 3420TIP3    H231820   3.136   0.521   1.701 -0.7035 -0.2173  1.0961
 3421TIP3   OH231821   0.619   2.705   6.880 -0.1172 -0.1892 -0.0003
 3421TIP3    H131822   0.647   2.756   6.955  2.6730 -0.2590 -0.8924
 3421TIP3    H231823   0.618   2.767   6.807  0.5321 -0.8054 -0.5461
 3422TIP3   OH231824   0.117   2.430   6.759  0.0124  0.0249  0.1867
 3422TIP3    H131825   0.191   2.467   6.711  1.2327 -0.8021  1.3646
 3422TIP3    H231826   0.085   2.360   6.703 -0.3551  0.8527 -0.6605
 3423TIP3   OH231827   1.215   2.250   7.309 -0.4121  0.3315  0.2580
 3423TIP3    H131828   1.200   2.276   7.400 -0.4374 -0.3121  0.4386
 3423TIP3    H231829   1.143   2.191   7.289  0.2412 -0.4554  0.1929
 3424TIP3   OH231830   0.405   2.140   1.830 -0.2538 -0.4123  0.5816
 3424TIP3    H131831   0.499   2.144   1.814  0.0393 -1.4258  1.9044
 3424TIP3    H231832   0.394   2.067   1.891 -1.8372  0.0585  0.9011
 3425TIP3   OH231833   5.027   0.438   1.093 -0.0489 -0.3397 -0.1823
 3425TIP3    H131834   5.025   0.362   1.035  0.2809  0.6353 -1.4995
 3425TIP3    H231835   4.948   0.487   1.071 -0.8074 -0.7909  1.3914
 3426TIP3   OH231836   2.714   5.430   2.185 -0.2688 -0.7756 -0.4416
 3426TIP3    H131837   2.702   5.336   2.193  0.6648 -0.8856 -0.1927
 3426TIP3    H231838   2.808   5.443   2.194 -0.4706  0.2592  0.3694
 3427TIP3   OH231839   4.915   3.390   0.545 -0.3083 -0.1028  0.1597
 3427TIP3    H131840   4.965   3.313   0.521  0.1322  0.4230 -0.6794
 3427TIP3    H231841   4.841   3.357   0.596  0.3510 -0.9775  0.5553
 3428TIP3   OH231842   1.417   4.540   7.320  0.1558  0.0231 -0.3281
 3428TIP3    H131843   1.324   4.521   7.308 -0.0072 -0.4941  1.5239
 3428TIP3    H231844   1.437   4.510   7.409  2.2017 -0.2777 -0.8359
 3429TIP3   OH231845   5.960   3.744   6.970 -0.2815  0.1062 -0.8792
 3429TIP3    H131846   5.934   3.800   7.043 -2.4755 -0.7669 -0.8888
 3429TIP3    H231847   6.047   3.712   6.993 -0.1623  1.3057  0.4472
 3430TIP3   OH231848   3.708   1.151   0.454  0.0695 -0.3603  0.3336
 3430TIP3    H131849   3.755   1.211   0.511 -0.9119  0.3827  0.4027
 3430TIP3    H231850   3.680   1.079   0.511 -1.3725  0.6379  0.9666
 3431TIP3   OH231851   3.364   2.675   7.539 -0.0223 -0.4968 -0.0306
 3431TIP3    H131852   3.416   2.617   7.595 -0.8282  0.3746  1.7209
 3431TIP3    H231853   3.384   2.763   7.572  0.0719  0.1234 -1.6730
 3432TIP3   OH231854   2.114   4.513   8.256  0.1676 -0.3119 -0.1228
 3432TIP3    H131855   2.030   4.546   8.224 -0.5443 -1.3376  0.6275
 3432TIP3    H231856   2.100   4.419   8.267  1.4979 -0.5392 -0.2150
 3433TIP3   OH231857   5.702   5.969   1.358  0.1768 -0.2272 -0.0768
 3433TIP3    H131858   5.795   5.990   1.347  0.3946 -1.2476 -0.2724
 3433TIP3    H231859   5.657   6.050   1.336  1.0835  0.8050  1.6708
 3434TIP3   OH231860   4.168   1.094   1.251 -0.0958  0.5422  0.3859
 3434TIP3    H131861   4.129   1.046   1.324 -1.1426 -0.1248 -0.5747
 3434TIP3    H231862   4.262   1.098   1.271  0.0475 -1.9884  0.4708
 3435TIP3   OH231863   0.736   2.581   7.962 -1.0586  0.5263  0.2604
 3435TIP3    H131864   0.652   2.625   7.950 -1.2981  0.5109  1.7408
 3435TIP3    H231865   0.785   2.638   8.022  0.3167  0.9491 -1.1913
 3436TIP3   OH231866   5.445   1.618   0.126 -0.1543  0.1238  0.1462
 3436TIP3    H131867   5.361   1.604   0.169 -0.8472 -0.0338 -1.1941
 3436TIP3    H231868   5.474   1.704   0.158 -1.4585  0.7728 -0.3214
 3437TIP3   OH231869   3.502   0.163   0.467 -0.5735  0.2830 -0.6177
 3437TIP3    H131870   3.461   0.106   0.402 -1.2106 -1.5369  1.2724
 3437TIP3    H231871   3.586   0.121   0.486 -0.0214  1.2609 -0.8533
 3438TIP3   OH231872   6.057   0.158   1.435  0.4402  0.2159 -0.2291
 3438TIP3    H131873   6.109   0.196   1.505  0.0072 -2.5294  1.7364
 3438TIP3    H231874   6.093   0.197   1.355  2.1611  2.1083  1.3591
 3439TIP3   OH231875   5.926   1.451   7.131  0.4728  0.0428 -0.2161
 3439TIP3    H131876   5.985   1.521   7.156  1.6340 -0.3219 -1.7860
 3439TIP3    H231877   5.847   1.495   7.101  0.7845  0.6277 -0.1827
 3440TIP3   OH231878   0.405   3.117   0.082 -0.3938  0.4444 -0.1520
 3440TIP3    H131879   0.411   3.031   0.124  0.2366  0.4866 -0.1406
 3440TIP3    H231880   0.391   3.178   0.154 -0.6156  0.3754 -0.1366
 3441TIP3   OH231881   5.051   5.036   0.475  0.3349 -0.4219  0.1128
 3441TIP3    H131882   5.111   4.982   0.527 -1.0419 -1.9461  0.1875
 3441TIP3    H231883   5.083   5.126   0.488  1.5188 -1.0036  1.5709
 3442TIP3   OH231884   4.448   0.336   8.675  0.2312  0.5513 -0.2755
 3442TIP3    H131885   4.391   0.268   8.711 -1.0753  1.6628 -0.1409
 3442TIP3    H231886   4.411   0.356   8.589  2.4437 -1.0266 -1.6907
 3443TIP3   OH231887   5.175   4.718   8.479  0.0780 -0.3789 -0.0027
 3443TIP3    H131888   5.090   4.721   8.523 -0.5277  1.3657 -1.1528
 3443TIP3    H231889   5.211   4.806   8.490  1.0338 -0.6439 -0.8311
 3444TIP3   OH231890   6.444   0.872   7.814  0.0965 -0.2312 -0.4101
 3444TIP3    H131891   6.496   0.846   7.739  1.4342 -1.0804  0.7612
 3444TIP3    H231892   6.486   0.829   7.889  0.9987  3.3404  1.3703
 3445TIP3   OH231893   5.609   5.778   8.474 -0.3029 -0.0492  0.0146
 3445TIP3    H131894   5.627   5.708   8.537  0.3308 -0.8094 -0.9881
 3445TIP3    H231895   5.527   5.751   8.431  0.3692 -0.6090 -0.9437
 3446TIP3   OH231896   2.450   3.874   6.246 -0.1214  0.2714  0.4744
 3446TIP3    H131897   2.355   3.866   6.247 -0.1289  0.3726  0.6478
 3446TIP3    H231898   2.468   3.957   6.291  0.0151  0.5959 -0.1684
 3447TIP3   OH231899   1.606   4.290   2.450  0.1191 -0.0249  0.2693
 3447TIP3    H131900   1.611   4.198   2.425 -0.2157  0.2617 -0.9137
 3447TIP3    H231901   1.513   4.305   2.470  0.3774 -0.2454  1.7377
 3448TIP3   OH231902   5.904   5.708   7.378 -0.3703 -0.2590  0.5529
 3448TIP3    H131903   5.840   5.778   7.362 -0.6276 -0.4541  0.7307
 3448TIP3    H231904   5.890   5.646   7.306  0.4203  0.2751 -0.0783
 3449TIP3   OH231905   5.076   0.184   1.009 -1.1588  0.5600  0.1251
 3449TIP3    H131906   5.026   0.151   0.934  0.4940 -0.9081 -0.3979
 3449TIP3    H231907   5.068   0.115   1.075 -0.5365  0.6936  0.3465
 3450TIP3   OH231908   0.739   6.174   8.129 -0.0835  0.4768  0.1632
 3450TIP3    H131909   0.709   6.192   8.040 -0.8199 -0.9246  0.1037
 3450TIP3    H231910   0.681   6.226   8.185 -0.2066  0.6600 -0.1319
 3451TIP3   OH231911   3.688   0.749   8.509  0.2940 -0.1695 -0.5651
 3451TIP3    H131912   3.677   0.656   8.528  2.1449 -0.0555  1.4967
 3451TIP3    H231913   3.681   0.792   8.594  2.9887  1.1478 -0.8991
 3452TIP3   OH231914   2.421   1.783   2.113 -0.0392  0.3458 -0.2310
 3452TIP3    H131915   2.442   1.843   2.184  0.5101  1.8023 -1.5571
 3452TIP3    H231916   2.493   1.720   2.112 -0.7991 -0.6074  1.3995
 3453TIP3   OH231917   5.016   5.048   1.128  0.0818  0.0906  0.2069
 3453TIP3    H131918   5.106   5.058   1.158 -0.1487 -0.5606  1.1437
 3453TIP3    H231919   5.004   4.953   1.118 -0.0747  0.2487 -1.2677
 3454TIP3   OH231920   5.607   0.144   7.406  0.1049  0.1636 -0.6190
 3454TIP3    H131921   5.625   0.050   7.402  1.0794  0.2521  0.9525
 3454TIP3    H231922   5.511   0.149   7.405  0.0359 -0.8419 -0.6314
 3455TIP3   OH231923   4.957   2.836   0.380 -0.0769 -0.0649  0.1446
 3455TIP3    H131924   5.003   2.759   0.345 -1.5263 -0.1084 -1.8669
 3455TIP3    H231925   4.997   2.910   0.334 -0.7512  0.0740 -0.2218
 3456TIP3   OH231926   5.004   2.212   7.193  0.1570 -0.1586  0.7376
 3456TIP3    H131927   5.096   2.232   7.214  0.5907 -1.0047 -0.3122
 3456TIP3    H231928   5.008   2.141   7.130 -1.0325  2.7431 -2.9640
 3457TIP3   OH231929   1.593   6.691   1.911 -0.2625  0.6233  0.2547
 3457TIP3    H131930   1.580   6.773   1.959 -1.9968  2.5368 -3.0831
 3457TIP3    H231931   1.509   6.647   1.915 -0.2436  0.5107 -0.4664
 3458TIP3   OH231932   5.587   5.141   0.361 -0.3376  0.0763  0.3192
 3458TIP3    H131933   5.501   5.132   0.402 -1.1054 -1.1724 -1.4448
 3458TIP3    H231934   5.604   5.055   0.321  0.4321  1.1490 -1.7947
 3459TIP3   OH231935   3.369   1.548   0.889 -0.2658 -0.1635 -0.2940
 3459TIP3    H131936   3.289   1.498   0.909 -0.7255  0.5010 -0.4288
 3459TIP3    H231937   3.353   1.585   0.802 -0.6932  1.6567  0.5070
 3460TIP3   OH231938   2.736   2.728   7.845 -0.1406  0.3478 -0.1736
 3460TIP3    H131939   2.743   2.753   7.937 -0.1654 -0.1253 -0.0389
 3460TIP3    H231940   2.821   2.690   7.824 -0.5108 -0.5833 -0.0215
 3461TIP3   OH231941   0.405   1.319   1.555 -0.1258  0.5276  0.0281
 3461TIP3    H131942   0.484   1.355   1.596  0.1712  0.6951 -0.6837
 3461TIP3    H231943   0.437   1.264   1.484 -0.6702  1.4621 -0.9680
 3462TIP3   OH231944   1.532   3.403   7.419 -0.1638 -0.2419 -0.7331
 3462TIP3    H131945   1.596   3.345   7.377 -0.1975 -0.6221 -0.2691
 3462TIP3    H231946   1.563   3.491   7.398  0.3895 -0.4243 -0.7118
 3463TIP3   OH231947   6.344   4.337   7.433 -0.3285 -0.2577  0.3371
 3463TIP3    H131948   6.377   4.426   7.432 -1.3024  0.1292 -1.0210
 3463TIP3    H231949   6.411   4.286   7.388 -0.3812  0.0408 -0.0846
 3464TIP3   OH231950   4.521   2.142   0.786  0.5756 -0.6718 -0.3260
 3464TIP3    H131951   4.552   2.225   0.750 -2.1751  0.3835 -0.5340
 3464TIP3    H231952   4.480   2.166   0.869  0.8222 -2.0273  0.2043
 3465TIP3   OH231953   4.304   3.562   8.062  0.2924  0.7428 -0.0489
 3465TIP3    H131954   4.302   3.531   7.971 -1.8017  2.7160 -0.7846
 3465TIP3    H231955   4.223   3.528   8.100  0.4434  1.1481  0.6403
 3466TIP3   OH231956   6.424   0.892   6.894  0.0353  0.1278  0.1156
 3466TIP3    H131957   6.421   0.814   6.949 -2.0119  0.1270  0.0875
 3466TIP3    H231958   6.443   0.859   6.806  0.2687 -0.2196  0.2949
 3467TIP3   OH231959   3.342   4.070   0.049  0.4305  0.0454  0.2857
 3467TIP3    H131960   3.364   4.160   0.072 -0.5987  0.2262  0.6194
 3467TIP3    H231961   3.308   4.032   0.130  1.6616 -0.9278  0.3816
 3468TIP3   OH231962   0.163   3.813   0.317  0.5053 -0.3960  0.1441
 3468TIP3    H131963   0.094   3.746   0.321 -0.2855  0.3972 -0.0562
 3468TIP3    H231964   0.182   3.822   0.223 -0.9434  1.1953 -0.0445
 3469TIP3   OH231965   3.224   6.532   7.515 -0.0762 -0.2415 -0.0916
 3469TIP3    H131966   3.153   6.558   7.455 -0.7984 -0.2232  0.7425
 3469TIP3    H231967   3.206   6.582   7.595  0.9737 -0.1338  0.0838
 3470TIP3   OH231968   6.142   2.372   0.161  0.3922 -0.5967 -0.0226
 3470TIP3    H131969   6.089   2.374   0.241  0.3382 -0.4815 -0.0616
 3470TIP3    H231970   6.220   2.423   0.182  0.6653 -1.0865  0.1612
 3471TIP3   OH231971   3.228   5.312   8.305  0.4321  0.5448 -0.2842
 3471TIP3    H131972   3.309   5.273   8.273 -0.4010 -0.1824 -1.6118
 3471TIP3    H231973   3.159   5.254   8.274 -0.7088  1.8962 -0.4079
 3472TIP3   OH231974   4.521   4.629   1.819  0.1945  0.2426 -0.1117
 3472TIP3    H131975   4.533   4.630   1.914 -0.7846 -0.4979  0.0305
 3472TIP3    H231976   4.608   4.649   1.784  0.6569  0.1210  0.9340
 3473TIP3   OH231977   3.455   5.970   1.827 -0.4841 -0.0779  0.1265
 3473TIP3    H131978   3.372   6.018   1.828  0.6128  1.9033  0.6476
 3473TIP3    H231979   3.507   6.011   1.896  0.9974 -1.1718 -0.2995
 3474TIP3   OH231980   1.697   4.210   7.669 -0.0732 -0.9146  0.3952
 3474TIP3    H131981   1.719   4.125   7.630  1.3429 -0.2379 -0.3261
 3474TIP3    H231982   1.779   4.258   7.670 -0.6098  0.0322  1.9121
 3475TIP3   OH231983   0.402   4.564   0.008 -0.0708  0.2556 -0.4529
 3475TIP3    H131984   0.482   4.513   0.022  0.2606  0.6510 -0.8753
 3475TIP3    H231985   0.333   4.498  -0.006  0.2996 -0.0799 -0.7235
 3476TIP3   OH231986   4.517   0.664   0.794 -0.6336 -0.3988 -0.6433
 3476TIP3    H131987   4.491   0.749   0.829 -1.6373 -0.0462 -2.1481
 3476TIP3    H231988   4.507   0.673   0.699  3.8287 -0.6562 -1.3542
 3477TIP3   OH231989   0.552   6.619   1.733  0.5922 -0.7326  0.1002
 3477TIP3    H131990   0.492   6.560   1.689  1.6412 -1.7465 -0.0218
 3477TIP3    H231991   0.589   6.672   1.662 -0.4993  0.2519  0.2327
 3478TIP3   OH231992   4.054   0.264   1.222 -0.4971 -0.3113  0.4738
 3478TIP3    H131993   4.059   0.302   1.310 -1.2161  2.8113 -0.6922
 3478TIP3    H231994   4.140   0.279   1.184 -0.2725 -1.4105  0.5070
 3479TIP3   OH231995   2.593   4.566   0.349 -0.5595  0.6418  0.7848
 3479TIP3    H131996   2.542   4.489   0.374 -0.1770  0.9854  2.7332
 3479TIP3    H231997   2.574   4.631   0.416 -0.1152  1.9339 -0.2886
 3480TIP3   OH231998   2.439   0.158   8.245  0.1679  0.2357  0.1821
 3480TIP3    H131999   2.370   0.116   8.296  0.5532 -0.1750  0.3668
 3480TIP3    H232000   2.411   0.148   8.154 -0.6166  1.1410  0.3096
 3481TIP3   OH232001   1.055   6.344   1.965  0.4599  0.0365 -0.5262
 3481TIP3    H132002   1.032   6.351   1.872 -0.2173  0.2594 -0.3466
 3481TIP3    H232003   1.009   6.418   2.006  0.4835 -0.2625  0.0404
 3482TIP3   OH232004   4.053   1.396   1.010 -0.5676  0.4117 -0.2123
 3482TIP3    H132005   4.055   1.426   0.919  1.8272  1.2812  0.0473
 3482TIP3    H232006   4.045   1.477   1.061 -0.5445  0.0408  0.3785
 3483TIP3   OH232007   1.186   3.589   1.856 -0.7581 -0.0211 -0.1220
 3483TIP3    H132008   1.226   3.657   1.911 -0.0915 -1.4236  1.2112
 3483TIP3    H232009   1.164   3.634   1.774 -1.6290  2.1220  1.1904
 3484TIP3   OH232010   3.762   3.893   0.670 -0.8405  0.4404 -0.4699
 3484TIP3    H132011   3.813   3.858   0.744 -1.4771 -1.7779 -1.0005
 3484TIP3    H232012   3.797   3.847   0.594 -2.5073  0.1221 -1.0701
 3485TIP3   OH232013   2.869   2.506   1.454 -0.1566 -0.2630  0.4039
 3485TIP3    H132014   2.961   2.525   1.470 -0.3268 -0.7496  2.1074
 3485TIP3    H232015   2.842   2.573   1.392  0.4492  2.2477  2.6490
 3486TIP3   OH232016   6.523   2.208   0.082  0.3057 -0.3384  0.3521
 3486TIP3    H132017   6.535   2.298   0.052  1.0434 -0.3985  0.4481
 3486TIP3    H232018   6.480   2.163   0.009 -0.4785  0.1937  0.4739
 3487TIP3   OH232019   5.776   2.118   0.840  0.2096  0.0267  0.2618
 3487TIP3    H132020   5.851   2.105   0.781 -0.2145  0.9885 -0.5093
 3487TIP3    H232021   5.793   2.058   0.913  0.7727 -1.1636 -0.7992
 3488TIP3   OH232022   3.565   5.437   0.464  0.4462  0.1867 -0.4616
 3488TIP3    H132023   3.505   5.467   0.532  0.0642  2.3451 -1.6812
 3488TIP3    H232024   3.631   5.505   0.458  1.6378 -0.9588 -0.8763
 3489TIP3   OH232025   0.863   4.171   1.382  0.1629  1.0024  0.2404
 3489TIP3    H132026   0.800   4.201   1.318  1.5167  1.2254 -1.0342
 3489TIP3    H232027   0.866   4.240   1.448 -1.3203  0.7194  0.6281
 3490TIP3   OH232028   3.336   6.037   7.401 -0.2552 -0.1816 -0.3449
 3490TIP3    H132029   3.297   6.055   7.315 -1.9898 -1.2362  0.1665
 3490TIP3    H232030   3.281   6.085   7.463  0.0183 -0.7074  0.3125
 3491TIP3   OH232031   1.110   1.098   0.740  0.0301  0.5513  0.1325
 3491TIP3    H132032   1.126   1.159   0.667 -0.6329  1.4420  0.7034
 3491TIP3    H232033   1.188   1.104   0.794  0.2873  0.3219 -0.2158
 3492TIP3   OH232034   3.511   2.840   8.595 -0.2905  0.3622 -0.4597
 3492TIP3    H132035   3.601   2.863   8.570 -0.2766 -1.5623 -2.4508
 3492TIP3    H232036   3.518   2.815   8.688  1.0779  0.9027 -0.3907
 3493TIP3   OH232037   3.775   5.758   1.719  0.0378  0.5977 -0.0327
 3493TIP3    H132038   3.798   5.727   1.806 -0.3381  1.8833  0.5523
 3493TIP3    H232039   3.790   5.852   1.722  1.1825  0.5149 -1.7411
 3494TIP3   OH232040   6.299   3.600   1.263  0.1646 -0.2187 -0.4306
 3494TIP3    H132041   6.334   3.681   1.226  0.1045  0.3178  0.6386
 3494TIP3    H232042   6.369   3.536   1.252  0.2844  0.0161 -1.1115
 3495TIP3   OH232043   1.905   5.160   7.761 -0.3698  0.1502 -0.0950
 3495TIP3    H132044   1.902   5.231   7.825 -1.2372 -0.3673  0.4616
 3495TIP3    H232045   1.888   5.081   7.813  1.5196 -0.6006 -0.5376
 3496TIP3   OH232046   2.567   6.491   0.722 -0.3877 -0.3608 -0.3067
 3496TIP3    H132047   2.565   6.398   0.744  1.0584 -0.0317  1.4168
 3496TIP3    H232048   2.623   6.496   0.644  2.6136 -0.6544  1.6790
 3497TIP3   OH232049   2.195   5.255   8.774  0.0649  0.1282  0.6637
 3497TIP3    H132050   2.209   5.350   8.774 -0.7104  0.2835  2.3003
 3497TIP3    H232051   2.100   5.245   8.764 -0.0668 -0.3795  2.0874
 3498TIP3   OH232052   2.241   4.953   8.165  0.0135  0.0921 -0.0022
 3498TIP3    H132053   2.286   5.020   8.216  1.2852  0.1331 -1.1229
 3498TIP3    H232054   2.309   4.889   8.142 -1.3383 -2.2032  1.9066
 3499TIP3   OH232055   1.732   3.394   5.909 -0.2423  0.8751  0.8615
 3499TIP3    H132056   1.684   3.459   5.857  0.0958  0.6206  0.2265
 3499TIP3    H232057   1.779   3.446   5.974  1.1470  1.4142 -0.5271
 3500TIP3   OH232058   6.581   0.498   0.274 -0.0488 -0.4424 -0.2528
 3500TIP3    H132059   6.654   0.445   0.304  0.4722 -0.1596 -0.9856
 3500TIP3    H232060   6.589   0.580   0.322 -0.6219 -0.8687  0.5859
 3501TIP3   OH232061   1.361   2.508   8.532 -0.2089  0.2721  0.1883
 3501TIP3    H132062   1.335   2.450   8.461 -0.7652  1.1030 -0.3016
 3501TIP3    H232063   1.339   2.460   8.612 -0.0010 -0.4764 -0.1999
 3502TIP3   OH232064   6.056   0.309   8.162 -0.4148 -0.3742 -0.2361
 3502TIP3    H132065   6.052   0.368   8.237 -0.9528 -0.9734  0.2289
 3502TIP3    H232066   6.021   0.359   8.089 -1.9139 -0.4601  0.3913
 3503TIP3   OH232067   4.727   2.040   2.083 -1.0465 -0.3312 -0.0986
 3503TIP3    H132068   4.706   2.044   2.176  0.6596  0.2690  0.2936
 3503TIP3    H232069   4.803   1.982   2.078 -0.6470  0.2445 -1.0237
 3504TIP3   OH232070   1.241   4.082   7.289 -0.0625  0.3113  0.1028
 3504TIP3    H132071   1.262   4.000   7.244 -1.2048  0.8264 -1.4933
 3504TIP3    H232072   1.312   4.095   7.351  1.1755 -0.9025 -0.9920
 3505TIP3   OH232073   2.271   3.583   8.799  0.0394 -0.4547  0.3688
 3505TIP3    H132074   2.196   3.630   8.836  0.6420 -2.1260  4.2127
 3505TIP3    H232075   2.346   3.640   8.815  0.0311 -0.1435 -0.6174
 3506TIP3   OH232076   3.551   5.451   7.848 -0.4587 -0.5956  0.4686
 3506TIP3    H132077   3.487   5.522   7.853 -2.0514 -2.0059  1.6383
 3506TIP3    H232078   3.620   5.484   7.790 -0.9750  1.9725  1.1831
 3507TIP3   OH232079   4.620   4.594   0.598 -0.2394 -0.3566 -0.5463
 3507TIP3    H132080   4.712   4.600   0.571  0.4251 -3.1481  0.7082
 3507TIP3    H232081   4.610   4.662   0.664  0.3811  1.1028 -1.8746
 3508TIP3   OH232082   3.935   1.430   8.027 -0.0250  0.7973 -0.1318
 3508TIP3    H132083   3.862   1.378   7.993  0.7356 -1.0314  0.8890
 3508TIP3    H232084   3.971   1.474   7.950 -1.2542  0.5165 -0.8878
 3509TIP3   OH232085   2.247   0.311   7.368  0.4421  0.0263 -0.3995
 3509TIP3    H132086   2.248   0.403   7.342  0.3408 -0.0161 -0.5583
 3509TIP3    H232087   2.218   0.312   7.459 -0.0989  0.1118 -0.5680
 3510TIP3   OH232088   2.809   0.984   6.936 -0.3656 -0.1652  0.5561
 3510TIP3    H132089   2.730   0.937   6.909 -0.5834 -0.8508  2.2879
 3510TIP3    H232090   2.824   0.957   7.027  0.4165  1.8991  1.1042
 3511TIP3   OH232091   4.145   5.064   1.968  0.1925 -0.4816 -0.3493
 3511TIP3    H132092   4.220   5.008   1.949  0.0900 -1.2071  1.2891
 3511TIP3    H232093   4.173   5.120   2.040  0.1405  1.3383 -1.6594
 3512TIP3   OH232094   2.932   0.505   7.468  0.3308 -0.0249  0.4472
 3512TIP3    H132095   3.012   0.468   7.432  1.0876  1.5653  0.4224
 3512TIP3    H232096   2.960   0.585   7.511 -1.1653  0.2345  0.9916
 3513TIP3   OH232097   0.147   0.275   7.974 -0.3608  0.0393 -0.2978
 3513TIP3    H132098   0.205   0.231   8.036  1.7051  1.5296 -1.0494
 3513TIP3    H232099   0.087   0.326   8.029  0.4545  0.1731  0.4916
 3514TIP3   OH232100   1.777   3.109   0.596  0.0063  0.4199 -0.6092
 3514TIP3    H132101   1.721   3.147   0.664  0.9192 -0.9241  0.9355
 3514TIP3    H232102   1.819   3.034   0.638  2.5927  1.0700 -1.8510
 3515TIP3   OH232103   6.766   6.756   8.007  0.1323  0.1964  0.3999
 3515TIP3    H132104   6.819   6.759   8.087  0.1408 -0.8797  0.4522
 3515TIP3    H232105   6.680   6.788   8.034 -0.1960 -1.2204  1.1425
 3516TIP3   OH232106   2.574   2.978   0.874  0.4117  0.2558  0.4757
 3516TIP3    H132107   2.502   2.920   0.899  0.6852 -0.0407  0.5852
 3516TIP3    H232108   2.580   2.969   0.779  0.3901  0.1798  0.4813
 3517TIP3   OH232109   1.876   3.986   7.790 -0.0685  0.2122 -0.3118
 3517TIP3    H132110   1.863   3.943   7.706  1.0652 -0.6038 -0.0942
 3517TIP3    H232111   1.944   4.051   7.774  0.5063 -0.2799  0.0628
 3518TIP3   OH232112   6.355   5.522   1.761 -0.0127 -0.2271  0.6830
 3518TIP3    H132113   6.376   5.606   1.720 -1.3177 -1.2561 -2.4010
 3518TIP3    H232114   6.439   5.489   1.793  0.7866  1.5032  0.4762
 3519TIP3   OH232115   1.800   6.102   1.570 -0.3255  0.2806  0.7622
 3519TIP3    H132116   1.893   6.095   1.591 -0.5953 -1.2723  1.5754
 3519TIP3    H232117   1.759   6.135   1.649 -0.3833  1.8328  0.1184
 3520TIP3   OH232118   1.831   4.036   1.064 -0.0368  0.6674  0.1310
 3520TIP3    H132119   1.736   4.035   1.074  0.1531  1.7037  3.1173
 3520TIP3    H232120   1.860   4.110   1.117  2.4679  0.2521 -0.5266
 3521TIP3   OH232121   5.721   1.272   2.085  0.2359 -0.1833  0.0129
 3521TIP3    H132122   5.772   1.195   2.107 -0.0360 -0.4697 -0.3539
 3521TIP3    H232123   5.742   1.335   2.153  0.9067 -0.3769 -0.0097
 3522TIP3   OH232124   3.845   4.498   1.350  0.2091 -0.1335  0.4015
 3522TIP3    H132125   3.785   4.473   1.280 -1.2561  1.5770  0.9710
 3522TIP3    H232126   3.905   4.561   1.309  0.2171 -0.1714  0.3547
 3523TIP3   OH232127   5.026   1.594   7.844 -0.3039  0.2320 -0.0766
 3523TIP3    H132128   5.057   1.530   7.780 -2.6864 -2.6517  1.3856
 3523TIP3    H232129   4.963   1.648   7.795  0.8685  0.7448 -1.0590
 3524TIP3   OH232130   0.385   4.715   0.897 -0.2680  0.0413  0.1549
 3524TIP3    H132131   0.423   4.740   0.981  1.4902  0.9841 -0.8615
 3524TIP3    H232132   0.417   4.627   0.880 -0.6014 -0.1379  0.4463
 3525TIP3   OH232133   0.627   1.467   1.690  0.5121  0.8424 -0.0974
 3525TIP3    H132134   0.704   1.476   1.634  0.4446  0.0547 -0.3356
 3525TIP3    H232135   0.658   1.420   1.767  0.0883 -0.3696 -0.6338
 3526TIP3   OH232136   4.986   3.386   0.849 -0.0625  0.4919 -0.4033
 3526TIP3    H132137   5.070   3.340   0.854  0.7641  1.9183 -0.4089
 3526TIP3    H232138   4.974   3.406   0.756 -1.3358 -1.2546 -0.6677
 3527TIP3   OH232139   4.009   4.061   2.045  0.5091  0.0439  0.0375
 3527TIP3    H132140   3.971   4.130   2.099  2.0481  0.0172  1.2247
 3527TIP3    H232141   4.057   4.006   2.107 -0.1256 -1.7349 -0.9628
 3528TIP3   OH232142   4.312   5.693   2.036  0.1019  1.1543 -0.3122
 3528TIP3    H132143   4.330   5.697   2.130  0.7682 -0.0341 -0.3731
 3528TIP3    H232144   4.348   5.775   2.001  2.3211  0.4266  0.1020
 3529TIP3   OH232145   1.521   0.402   0.895  0.3684 -0.5050  0.0142
 3529TIP3    H132146   1.569   0.476   0.933  0.7412 -0.5450 -0.3821
 3529TIP3    H232147   1.557   0.325   0.937  0.0235 -0.4717  0.3804
 3530TIP3   OH232148   4.019   2.376   7.164  0.4067 -0.1438 -0.1395
 3530TIP3    H132149   4.068   2.410   7.239  0.3524  1.2406 -0.7087
 3530TIP3    H232150   4.085   2.336   7.108  0.5126 -0.7267  0.3876
 3531TIP3   OH232151   3.678   0.797   1.197 -0.3862 -0.0796 -0.2354
 3531TIP3    H132152   3.730   0.837   1.128 -0.3146  0.3921  0.0852
 3531TIP3    H232153   3.604   0.858   1.209 -0.0012  0.2339  0.6151
 3532TIP3   OH232154   1.617   1.743   8.816  0.2320  0.2544 -0.4791
 3532TIP3    H132155   1.712   1.750   8.830  0.4096  1.6403 -2.0377
 3532TIP3    H232156   1.591   1.666   8.866  1.4466  2.1481  3.4960
 3533TIP3   OH232157   5.485   2.961   2.380  0.0552  0.1751  1.0243
 3533TIP3    H132158   5.567   2.989   2.339 -0.4470  0.1341 -0.0565
 3533TIP3    H232159   5.512   2.897   2.446  0.9630  0.9100  1.3801
 3534TIP3   OH232160   1.618   1.934   0.593  0.1953 -0.1092 -0.0482
 3534TIP3    H132161   1.697   1.898   0.633  0.6605  0.5606 -0.3446
 3534TIP3    H232162   1.579   1.987   0.662 -0.7124 -1.4561  0.5256
 3535TIP3   OH232163   5.797   3.001   1.359  0.1294 -0.7334  0.3808
 3535TIP3    H132164   5.782   3.034   1.271 -1.8492  1.7671  1.5142
 3535TIP3    H232165   5.711   2.971   1.389  0.7078 -1.3423  1.5146
 3536TIP3   OH232166   1.660   3.711   8.520  0.0040  0.0691  0.0635
 3536TIP3    H132167   1.686   3.641   8.460  0.9155  0.2422  0.2397
 3536TIP3    H232168   1.594   3.760   8.471 -0.0441 -0.4230 -0.3833
 3537TIP3   OH232169   5.187   6.767   1.238 -0.3373  0.7929 -0.4271
 3537TIP3    H132170   5.178   6.820   1.317  1.2863  0.8588 -0.2342
 3537TIP3    H232171   5.185   6.677   1.269 -0.2619  0.8089 -0.3738
 3538TIP3   OH232172   1.100   1.653   0.950 -0.0765 -0.3451 -0.0084
 3538TIP3    H132173   1.012   1.685   0.968 -0.1095 -1.0789  1.2910
 3538TIP3    H232174   1.136   1.633   1.037  1.1199 -0.6881 -0.5655
 3539TIP3   OH232175   5.834   1.871   8.506  0.8025 -0.4999  0.1260
 3539TIP3    H132176   5.767   1.847   8.442 -1.2354 -1.6144  2.4786
 3539TIP3    H232177   5.793   1.852   8.591  4.1682 -1.4054  1.7218
 3540TIP3   OH232178   4.679   2.117   0.331  0.3473  0.1457 -0.4904
 3540TIP3    H132179   4.608   2.176   0.355 -0.0161 -0.6209  0.4043
 3540TIP3    H232180   4.644   2.065   0.258  0.3010  0.3498 -0.6130
 3541TIP3   OH232181   3.468   3.618   2.044  0.0798 -0.2094  0.2927
 3541TIP3    H132182   3.468   3.532   2.087 -0.8410  0.0460  0.8276
 3541TIP3    H232183   3.550   3.619   1.994  0.3117 -1.2275  0.6129
 3542TIP3   OH232184   5.023   3.715   7.967  0.4776  0.6911  0.8160
 3542TIP3    H132185   5.034   3.621   7.986 -1.1437  0.0283 -1.1700
 3542TIP3    H232186   5.101   3.756   8.005  1.7450 -1.5816  0.8823
 3543TIP3   OH232187   1.466   1.526   0.944 -0.3054 -0.1890  0.2962
 3543TIP3    H132188   1.448   1.608   0.989  1.3529  0.5334 -0.2606
 3543TIP3    H232189   1.476   1.462   1.015 -0.9936  0.2091  0.7668
 3544TIP3   OH232190   2.106   4.389   8.764 -0.1196  0.2550  0.3717
 3544TIP3    H132191   2.013   4.372   8.746  0.0484 -0.8988  0.5150
 3544TIP3    H232192   2.148   4.304   8.754  1.0858  0.9480 -0.5977
 3545TIP3   OH232193   3.091   5.439   6.572  0.1856 -0.0661  0.3760
 3545TIP3    H132194   3.039   5.519   6.568  0.5308  0.4784  3.7365
 3545TIP3    H232195   3.026   5.368   6.565 -0.3171  0.4848 -0.8591
 3546TIP3   OH232196   0.849   6.387   0.733  0.4429 -0.1869 -0.0676
 3546TIP3    H132197   0.765   6.354   0.768 -0.6307  1.0358 -1.3806
 3546TIP3    H232198   0.834   6.481   0.721  1.9541  0.0080 -0.5147
 3547TIP3   OH232199   5.177   2.756   2.430  0.3666  0.3304 -0.2743
 3547TIP3    H132200   5.121   2.833   2.440  0.4466  0.5159 -1.1631
 3547TIP3    H232201   5.243   2.764   2.498 -0.4032  0.3592  0.4803
 3548TIP3   OH232202   3.120   4.698   6.887 -0.8500 -0.4920  0.0212
 3548TIP3    H132203   3.044   4.740   6.846  0.3462 -0.8177 -2.6777
 3548TIP3    H232204   3.091   4.609   6.905 -1.5844 -0.1649  0.5288
 3549TIP3   OH232205   3.872   2.782   0.440  0.3212  0.1640 -0.5896
 3549TIP3    H132206   3.779   2.805   0.429  0.0926 -0.5097 -0.1404
 3549TIP3    H232207   3.910   2.795   0.353  0.6564  4.0492 -0.0290
 3550TIP3   OH232208   5.176   5.837   2.094  0.1753  0.2160 -0.1091
 3550TIP3    H132209   5.267   5.866   2.099  0.0507  0.4707  0.9641
 3550TIP3    H232210   5.124   5.915   2.112 -0.3313  0.4219 -2.2099
 3551TIP3   OH232211   4.358   2.360   2.234 -0.6057  0.7528 -0.1383
 3551TIP3    H132212   4.341   2.274   2.195  0.6799  0.5923 -0.3965
 3551TIP3    H232213   4.310   2.358   2.317 -1.2060  0.0740 -0.4934
 3552TIP3   OH232214   5.800   0.121   6.953 -0.3041 -0.0637  0.1875
 3552TIP3    H132215   5.845   0.051   6.906 -1.3229  0.4966 -1.7302
 3552TIP3    H232216   5.867   0.158   7.011  1.3430 -0.1764 -1.5408
 3553TIP3   OH232217   1.734   2.039   8.809 -0.0554 -0.2846  0.3255
 3553TIP3    H132218   1.796   2.103   8.775 -0.5981 -0.4255 -0.9911
 3553TIP3    H232219   1.658   2.091   8.836 -0.5261 -0.3516 -0.8136
 3554TIP3   OH232220   4.723   0.281   1.018  0.3444 -0.2641 -0.1907
 3554TIP3    H132221   4.672   0.311   1.094 -1.4617 -0.5174 -1.2530
 3554TIP3    H232222   4.772   0.359   0.991  0.1084  0.1487  0.5262
 3555TIP3   OH232223   1.043   5.260   2.237  0.2311 -0.5158 -0.3056
 3555TIP3    H132224   1.123   5.250   2.290 -0.0730  1.0986  0.4891
 3555TIP3    H232225   1.075   5.284   2.151  0.6156  0.9405  0.2145
 3556TIP3   OH232226   4.111   6.146   1.257  0.2311 -0.5019  0.3574
 3556TIP3    H132227   4.039   6.192   1.214  0.5556  0.3432  0.7094
 3556TIP3    H232228   4.165   6.114   1.185  0.1302 -0.1282  0.1115
 3557TIP3   OH232229   3.403   4.805   8.828  0.1957 -0.1654  0.2069
 3557TIP3    H132230   3.320   4.804   8.878 -0.8314 -1.4271 -1.4262
 3557TIP3    H232231   3.440   4.891   8.847 -0.5298 -0.2682  2.4841
 3558TIP3   OH232232   1.115   1.315   1.648 -0.2757 -0.0025  0.1010
 3558TIP3    H132233   1.105   1.257   1.724 -1.9468 -2.4947 -1.8190
 3558TIP3    H232234   1.208   1.315   1.630  0.3044  1.3868  2.5767
 3559TIP3   OH232235   4.777   5.686   7.513  0.0183 -0.2412 -0.3891
 3559TIP3    H132236   4.685   5.663   7.529  0.3782 -1.6413 -0.1476
 3559TIP3    H232237   4.784   5.777   7.541 -1.0799 -0.4133  0.5445
 3560TIP3   OH232238   6.322   2.763   7.159 -0.8183 -0.5749  0.4754
 3560TIP3    H132239   6.300   2.670   7.163  1.4113 -1.1625  0.1971
 3560TIP3    H232240   6.345   2.778   7.067  0.3162 -0.1278  0.8189
 3561TIP3   OH232241   6.132   5.531   8.135 -0.2364 -0.2317  0.3606
 3561TIP3    H132242   6.063   5.578   8.182  0.6645  1.7901 -0.2376
 3561TIP3    H232243   6.172   5.475   8.201 -1.4149 -0.2652  1.0844
 3562TIP3   OH232244   3.044   1.050   0.313  0.3606 -0.0132 -0.0385
 3562TIP3    H132245   3.123   0.995   0.309  0.6054  0.2989 -4.5599
 3562TIP3    H232246   2.973   0.990   0.290 -0.0104  0.6328 -0.6023
 3563TIP3   OH232247   6.200   5.780   0.542  0.3189  0.2860  0.3531
 3563TIP3    H132248   6.245   5.863   0.555  0.5490  0.0630  0.9770
 3563TIP3    H232249   6.127   5.782   0.604  1.9170 -1.1419  2.4342
 3564TIP3   OH232250   3.272   6.720   8.004  0.2186 -0.0882  1.0095
 3564TIP3    H132251   3.212   6.777   8.053 -2.5689 -1.0804 -0.9694
 3564TIP3    H232252   3.302   6.775   7.931 -1.4416 -0.6758 -0.1687
 3565TIP3   OH232253   2.958   4.619   1.806 -0.2503 -0.1825 -0.6871
 3565TIP3    H132254   2.967   4.678   1.731  3.0586 -1.1324 -1.2193
 3565TIP3    H232255   3.037   4.635   1.859 -0.6410 -2.1376  0.6055
 3566TIP3   OH232256   2.258   0.998   8.415 -0.1145 -0.2620  0.1303
 3566TIP3    H132257   2.174   0.986   8.458 -1.2554  2.3556 -1.1576
 3566TIP3    H232258   2.275   1.092   8.421  2.8639 -0.7089  0.5012
 3567TIP3   OH232259   0.467   2.636   8.563  0.1788 -0.0418  0.7087
 3567TIP3    H132260   0.538   2.700   8.562  0.6273 -0.5411  0.3712
 3567TIP3    H232261   0.400   2.676   8.619  0.5073  0.6591  0.6158
 3568TIP3   OH232262   2.691   3.974   0.703  0.2364 -0.3925  0.5639
 3568TIP3    H132263   2.784   3.990   0.688  0.0713  3.6140  2.4664
 3568TIP3    H232264   2.689   3.898   0.763  2.2417 -0.5788  0.4661
 3569TIP3   OH232265   6.058   5.976   1.044 -0.3685 -0.3395  0.4212
 3569TIP3    H132266   6.070   5.979   1.139 -0.3645 -1.7621  0.4971
 3569TIP3    H232267   5.969   5.941   1.033 -0.6905  0.6297 -0.1076
 3570TIP3   OH232268   0.246   2.720   8.741  0.4239 -0.1600 -0.4755
 3570TIP3    H132269   0.161   2.722   8.695 -0.8214 -1.9601  1.5536
 3570TIP3    H232270   0.233   2.778   8.816  0.9065 -0.6797  0.0071
 3571TIP3   OH232271   0.450   5.951   8.565 -0.1046  0.1892 -0.1671
 3571TIP3    H132272   0.505   6.002   8.505 -1.5322  1.3849 -0.5098
 3571TIP3    H232273   0.512   5.915   8.629  1.3279 -0.3224 -1.7705
 3572TIP3   OH232274   6.349   3.627   0.222 -0.0419  0.1383 -0.2613
 3572TIP3    H132275   6.277   3.672   0.178  1.6621  1.3270 -2.0475
 3572TIP3    H232276   6.347   3.538   0.187 -1.4076 -0.2614  0.7457
 3573TIP3   OH232277   0.040   5.838   6.404 -0.5664 -0.4438  0.1021
 3573TIP3    H132278   0.076   5.752   6.380 -2.2863 -1.8785  2.2513
 3573TIP3    H232279  -0.047   5.840   6.364  0.5725  1.7024 -2.5199
 3574TIP3   OH232280   0.892   4.226   8.308 -0.0346  0.4573 -0.2108
 3574TIP3    H132281   0.951   4.162   8.350 -0.0910 -0.0183 -0.8383
 3574TIP3    H232282   0.950   4.282   8.257  0.0513  1.1414  0.6129
 3575TIP3   OH232283   1.123   5.121   1.426  0.4264  0.3457  0.1668
 3575TIP3    H132284   1.059   5.185   1.394 -0.1979 -0.8401 -1.1030
 3575TIP3    H232285   1.144   5.149   1.514 -1.3643  1.1584  0.3800
 3576TIP3   OH232286   1.904   2.526   7.109  0.4676 -0.0077 -0.0836
 3576TIP3    H132287   1.862   2.440   7.112  1.3575 -0.4407  0.2004
 3576TIP3    H232288   1.989   2.513   7.150  0.2759  1.2104  0.7490
 3577TIP3   OH232289   3.827   0.383   0.763 -0.3021 -0.6247  0.3664
 3577TIP3    H132290   3.890   0.313   0.775 -1.4464 -1.8053 -0.3345
 3577TIP3    H232291   3.860   0.455   0.818  2.5581 -0.5507 -1.2867
 3578TIP3   OH232292   4.372   1.719   8.471 -0.7186  0.2382 -0.2771
 3578TIP3    H132293   4.459   1.752   8.449  0.3336 -1.4159  1.0805
 3578TIP3    H232294   4.343   1.776   8.542 -1.1471  1.3244 -1.2946
 3579TIP3   OH232295   0.378   1.943   2.012  0.0373 -0.3659 -0.4564
 3579TIP3    H132296   0.309   1.950   2.079 -0.1732 -0.0591 -0.6997
 3579TIP3    H232297   0.376   1.852   1.984 -0.9710 -0.1421 -1.1886
 3580TIP3   OH232298   1.319   4.182   1.137 -0.3098 -0.0342  0.5565
 3580TIP3    H132299   1.307   4.155   1.228  1.3338  1.0593  1.1420
 3580TIP3    H232300   1.404   4.144   1.112 -1.7457 -2.2704 -1.3269
 3581TIP3   OH232301   3.205   1.617   7.251  0.5573  0.3947 -0.2954
 3581TIP3    H132302   3.120   1.588   7.283  0.5462 -0.1809 -0.8345
 3581TIP3    H232303   3.217   1.571   7.168  0.9355  1.2555 -0.7300
 3582TIP3   OH232304   3.372   0.336   6.864  0.0664  0.9081  0.1510
 3582TIP3    H132305   3.404   0.369   6.780  0.8527 -1.5046 -0.6045
 3582TIP3    H232306   3.285   0.302   6.844  1.0633 -1.6143 -0.3285
 3583TIP3   OH232307   0.834   2.243   7.627  0.1535 -0.3759 -0.0170
 3583TIP3    H132308   0.856   2.327   7.667  2.8983 -0.7521 -0.5688
 3583TIP3    H232309   0.867   2.178   7.688  1.4488 -0.9742 -1.2939
 3584TIP3   OH232310   0.433   3.712   8.009 -0.1262  0.0337  0.0208
 3584TIP3    H132311   0.479   3.671   8.083  0.3288 -0.6758 -0.6401
 3584TIP3    H232312   0.503   3.732   7.947 -0.4744  0.8854 -0.1047
 3585TIP3   OH232313   5.262   5.011   7.889 -0.0743  0.1477  0.1639
 3585TIP3    H132314   5.258   5.048   7.800  0.3008 -0.9093 -0.2998
 3585TIP3    H232315   5.307   4.927   7.879  0.7156  0.3805  1.4851
 3586TIP3   OH232316   5.065   2.017   1.107  0.2691  0.3957 -0.2389
 3586TIP3    H132317   5.118   2.013   1.187  0.9539  1.6761 -0.5992
 3586TIP3    H232318   5.127   2.038   1.038 -0.5931  1.1970 -0.8007
 3587TIP3   OH232319   6.551   2.293   0.462  0.5832 -0.5352  0.0421
 3587TIP3    H132320   6.470   2.322   0.422 -0.0658 -1.5928  0.5393
 3587TIP3    H232321   6.556   2.342   0.545  0.6308 -0.2170 -0.1492
 3588TIP3   OH232322   5.653   2.818   1.073  0.0537 -0.4102 -0.6152
 3588TIP3    H132323   5.651   2.757   0.999 -1.2588 -1.0902 -0.0810
 3588TIP3    H232324   5.622   2.765   1.147 -1.1212  0.8852 -0.1225
 3589TIP3   OH232325   4.578   4.957   0.954 -0.0026 -0.6917  0.4056
 3589TIP3    H132326   4.635   4.994   1.021 -1.6737 -0.3860  1.7570
 3589TIP3    H232327   4.608   4.996   0.872  1.2501 -0.0069  1.1592
 3590TIP3   OH232328   4.707   4.291   7.728  0.4070  0.1306 -0.1160
 3590TIP3    H132329   4.749   4.376   7.741 -1.0905  0.8803  0.1051
 3590TIP3    H232330   4.639   4.308   7.662 -0.7078 -0.5999  0.7938
 3591TIP3   OH232331   0.336   2.585   8.310  0.3055  0.0971 -0.1757
 3591TIP3    H132332   0.383   2.567   8.391  0.0750 -0.1204 -0.0883
 3591TIP3    H232333   0.244   2.585   8.335  0.3013  1.8233 -0.0875
 3592TIP3   OH232334   5.375   1.408   8.591 -0.3267  0.1093 -0.0376
 3592TIP3    H132335   5.417   1.349   8.654  0.6956  0.4143 -0.4260
 3592TIP3    H232336   5.395   1.496   8.622  0.1415  0.2648 -0.7452
 3593TIP3   OH232337   4.007   2.410   1.838  0.2387  0.1149  0.1409
 3593TIP3    H132338   3.927   2.365   1.813  0.0220 -0.2328  1.3937
 3593TIP3    H232339   4.022   2.384   1.929 -0.0056  2.6896  1.0129
 3594TIP3   OH232340   1.721   1.200   1.586 -0.0779 -0.0009  0.1689
 3594TIP3    H132341   1.673   1.163   1.660  1.1623 -0.1387  0.9271
 3594TIP3    H232342   1.717   1.295   1.600 -0.8729  0.0361 -0.2581
 3595TIP3   OH232343   1.575   4.261   1.531 -0.3171  0.2879 -0.6306
 3595TIP3    H132344   1.570   4.349   1.493 -3.1962  0.1453 -0.7819
 3595TIP3    H232345   1.657   4.261   1.579  0.3368  2.6555 -1.5751
 3596TIP3   OH232346   2.549   1.752   6.903 -0.1052  0.1003  0.2098
 3596TIP3    H132347   2.513   1.753   6.992 -0.8394  0.8847 -0.0901
 3596TIP3    H232348   2.511   1.829   6.861  1.6781  0.7968 -0.2174
 3597TIP3   OH232349   2.067   6.351   7.034  0.2385 -0.2430 -0.2814
 3597TIP3    H132350   1.997   6.307   7.082  0.6241  0.6916  1.1694
 3597TIP3    H232351   2.032   6.361   6.945 -0.9146 -1.0179  0.0621
 3598TIP3   OH232352   4.685   4.112   7.143  0.2618 -0.4174 -0.2221
 3598TIP3    H132353   4.688   4.068   7.228  1.5878  0.3702  0.1543
 3598TIP3    H232354   4.772   4.148   7.131 -0.8391  2.4460 -0.3497
 3599TIP3   OH232355   1.204   4.515   7.944 -0.0913  0.0404 -0.5860
 3599TIP3    H132356   1.152   4.473   7.876 -0.5543 -0.9086  0.3212
 3599TIP3    H232357   1.272   4.564   7.897  0.3305 -1.5535 -1.6961
 3600TIP3   OH232358   6.767   2.258   2.030  0.5014  0.0696  0.1086
 3600TIP3    H132359   6.763   2.352   2.048 -0.8701  0.2944 -1.2122
 3600TIP3    H232360   6.684   2.224   2.063  0.2128 -0.3620 -1.0354
 3601TIP3   OH232361   4.861   4.387   0.830  0.4855 -0.1298  0.1276
 3601TIP3    H132362   4.814   4.312   0.867  0.4535 -0.6850 -1.0001
 3601TIP3    H232363   4.933   4.348   0.780  0.7552  0.6091 -0.0721
 3602TIP3   OH232364   4.022   5.111   8.663 -0.4160 -0.1556  0.1983
 3602TIP3    H132365   4.080   5.123   8.588  0.1515  2.9189  1.0123
 3602TIP3    H232366   4.061   5.039   8.713 -0.0716 -1.3580 -1.7241
 3603TIP3   OH232367   1.551   5.560   0.346  0.1727 -0.2272 -0.2057
 3603TIP3    H132368   1.561   5.599   0.432 -1.5751 -0.0831 -0.0201
 3603TIP3    H232369   1.553   5.634   0.285  1.4792 -0.3356 -0.3180
 3604TIP3   OH232370   3.244   3.842   0.980  0.3270  0.8790 -0.0795
 3604TIP3    H132371   3.193   3.764   0.962  0.1544  0.2002  2.8765
 3604TIP3    H232372   3.335   3.815   0.969  0.3428 -0.2184  2.1718
 3605TIP3   OH232373   0.131   3.484   8.641 -0.4719  0.0898  0.0307
 3605TIP3    H132374   0.083   3.562   8.614 -0.4694 -0.0996 -0.5276
 3605TIP3    H232375   0.068   3.433   8.692  0.0969  1.4029  2.1946
 3606TIP3   OH232376   4.432   6.048   8.018 -0.4403 -0.3194 -0.4598
 3606TIP3    H132377   4.526   6.038   8.004 -0.2228  1.3884 -0.3845
 3606TIP3    H232378   4.407   5.967   8.064  1.4447  0.1596  1.6177
 3607TIP3   OH232379   6.504   2.030   6.802  0.3193 -0.3090 -0.1864
 3607TIP3    H132380   6.558   1.955   6.777  0.3903 -0.6253  0.8884
 3607TIP3    H232381   6.476   2.068   6.719  1.5742 -0.5940 -0.7634
 3608TIP3   OH232382   5.676   0.104   1.183 -0.0995  0.3050  0.3784
 3608TIP3    H132383   5.623   0.025   1.189 -0.2678  0.3451 -0.4277
 3608TIP3    H232384   5.667   0.146   1.269 -0.8130 -0.0359  0.4765
 3609TIP3   OH232385   1.028   2.844   1.198  0.1254 -0.0101 -0.5782
 3609TIP3    H132386   0.964   2.804   1.140 -0.4238  0.3724 -0.2432
 3609TIP3    H232387   1.035   2.783   1.272 -1.1916  0.7852  0.2452
 3610TIP3   OH232388   0.920   0.069   8.199  0.3366 -0.4668  0.3385
 3610TIP3    H132389   0.924   0.150   8.148 -1.7198  0.5111  1.6007
 3610TIP3    H232390   0.960   0.003   8.142 -0.7509  0.8024 -2.0595
 3611TIP3   OH232391   4.794   3.202   8.767  0.1797 -0.0386  0.1736
 3611TIP3    H132392   4.840   3.186   8.685  2.1572  2.6374  0.5972
 3611TIP3    H232393   4.822   3.132   8.825  0.8262 -0.5041 -0.6816
 3612TIP3   OH232394   1.247   4.324   1.486 -0.6133  0.4255  0.6684
 3612TIP3    H132395   1.338   4.324   1.454 -1.0707 -2.5375 -1.0540
 3612TIP3    H232396   1.255   4.325   1.581  1.2445  0.0612  0.5560
 3613TIP3   OH232397   3.122   1.278   1.033 -0.3658 -0.0222 -0.6949
 3613TIP3    H132398   3.086   1.208   1.089  0.8610  0.2393  0.4850
 3613TIP3    H232399   3.147   1.347   1.095  2.5809 -0.3811 -1.3158
 3614TIP3   OH232400   5.411   6.457   6.417  0.2827 -0.3407 -0.2752
 3614TIP3    H132401   5.340   6.502   6.464 -0.8168 -0.5250 -1.6977
 3614TIP3    H232402   5.389   6.364   6.424 -0.2610 -0.3391 -1.6685
 3615TIP3   OH232403   4.733   6.194   7.377 -0.2576 -0.8677 -0.0972
 3615TIP3    H132404   4.793   6.268   7.388 -1.9951  0.6462 -0.1525
 3615TIP3    H232405   4.753   6.135   7.449  0.2098  0.3771  0.8334
 3616TIP3   OH232406   5.626   0.704   8.437 -0.9516  0.1144 -0.2245
 3616TIP3    H132407   5.641   0.641   8.508 -1.7885 -0.0900 -0.2250
 3616TIP3    H232408   5.545   0.675   8.395 -0.9230  0.7339 -0.7259
 3617TIP3   OH232409   2.046   3.854   1.072 -0.0814 -0.3840 -0.0745
 3617TIP3    H132410   2.041   3.765   1.107 -0.3653 -0.3789 -0.1010
 3617TIP3    H232411   1.955   3.878   1.054  0.1726 -1.3539 -3.2615
 3618TIP3   OH232412   3.235   0.467   8.210 -0.3026  0.2372 -0.7492
 3618TIP3    H132413   3.232   0.526   8.134 -1.1968 -0.4113 -1.2356
 3618TIP3    H232414   3.254   0.381   8.172  0.2527  0.0776 -0.1241
 3619TIP3   OH232415   1.039   2.203   8.551  0.5117  0.0451 -0.1769
 3619TIP3    H132416   1.070   2.124   8.507  0.6067  0.0104 -0.0476
 3619TIP3    H232417   1.017   2.263   8.481 -0.0548 -0.2855 -0.2934
 3620TIP3   OH232418   0.571   0.310   0.340 -0.0863 -0.1768  0.4826
 3620TIP3    H132419   0.547   0.232   0.389 -0.4946 -0.6226 -0.4007
 3620TIP3    H232420   0.488   0.341   0.301  0.3230 -0.2395 -0.4788
 3621TIP3   OH232421   0.409   5.916   0.980  0.4337 -0.1824 -0.5497
 3621TIP3    H132422   0.450   5.880   0.902  0.7364 -2.6464  0.6336
 3621TIP3    H232423   0.480   5.961   1.026  1.4878 -2.7326  0.5092
 3622TIP3   OH232424   5.038   2.185   0.691  0.2967  0.4066 -0.0645
 3622TIP3    H132425   5.025   2.275   0.663  1.2321  1.0709  1.4690
 3622TIP3    H232426   4.986   2.177   0.771  1.0765 -0.0612  0.4135
 3623TIP3   OH232427   3.505   2.414   1.636  0.0627 -0.2289 -0.5940
 3623TIP3    H132428   3.422   2.452   1.664  0.2264 -0.8831  0.8668
 3623TIP3    H232429   3.498   2.321   1.657  0.3783 -0.7096 -2.3997
 3624TIP3   OH232430   4.044   1.207   7.881 -0.3859  0.0102 -0.4110
 3624TIP3    H132431   3.986   1.175   7.950 -0.2981  1.5363  0.4010
 3624TIP3    H232432   4.132   1.187   7.912 -0.3928 -0.9288 -0.9442
 3625TIP3   OH232433   2.418   0.953   0.343  0.4090 -0.0815 -0.5483
 3625TIP3    H132434   2.340   0.912   0.304  0.5023 -1.8820  1.0611
 3625TIP3    H232435   2.489   0.891   0.325  0.8187 -0.0211  0.8063
 3626TIP3   OH232436   0.342   2.456   7.019 -0.1681 -0.1448 -0.1031
 3626TIP3    H132437   0.369   2.548   7.022 -0.7926  0.1902 -2.4214
 3626TIP3    H232438   0.397   2.418   6.950 -0.0565 -1.4797  0.6962
 3627TIP3   OH232439   2.242   0.428   0.944 -0.2364  0.6232 -0.0295
 3627TIP3    H132440   2.200   0.342   0.944 -0.9577  0.9288 -1.8009
 3627TIP3    H232441   2.329   0.413   0.907  0.2673  0.4215  1.1835
 3628TIP3   OH232442   5.092   0.634   6.733  0.5004 -0.5028 -0.7119
 3628TIP3    H132443   5.087   0.684   6.815 -2.6097 -1.1846 -0.3890
 3628TIP3    H232444   5.149   0.560   6.753 -0.3971 -0.7809  0.9405
 3629TIP3   OH232445   1.057   4.949   2.365  0.0794 -1.0665  0.0668
 3629TIP3    H132446   1.120   5.021   2.367  0.3046 -1.2683  1.0481
 3629TIP3    H232447   1.106   4.875   2.402 -0.6394 -1.3037  0.5547
 3630TIP3   OH232448   1.450   1.357   1.192  0.0651 -0.0075  0.2938
 3630TIP3    H132449   1.521   1.419   1.209  1.4806 -1.5174  0.1093
 3630TIP3    H232450   1.379   1.387   1.248  1.0630  1.1616  0.9964
 3631TIP3   OH232451   4.938   6.502   7.820 -0.0383 -0.1123  0.4357
 3631TIP3    H132452   4.921   6.463   7.906  2.0390 -0.0697  0.9418
 3631TIP3    H232453   4.912   6.435   7.757 -2.2388  0.1187  1.0296
 3632TIP3   OH232454   2.121   6.113   7.808  0.4533 -0.1397 -0.4966
 3632TIP3    H132455   2.048   6.056   7.781 -1.7450  0.4218  3.4651
 3632TIP3    H232456   2.088   6.202   7.795  0.9321  0.1410  0.1780
 3633TIP3   OH232457   1.549   6.285   0.537  0.3598  0.5600  0.6965
 3633TIP3    H132458   1.547   6.222   0.609  0.8748 -0.9628 -0.5675
 3633TIP3    H232459   1.576   6.234   0.460  0.3659  2.2319 -0.4834
 3634TIP3   OH232460   3.847   5.656   0.891  0.5249 -0.5701 -0.6205
 3634TIP3    H132461   3.773   5.608   0.929 -0.3708  0.3024 -1.2069
 3634TIP3    H232462   3.918   5.645   0.955 -1.1105  1.4553  1.7277
 3635TIP3   OH232463   4.069   6.613   0.334 -0.5594 -0.9765 -0.2664
 3635TIP3    H132464   4.047   6.588   0.244  1.1351 -0.0483 -0.9891
 3635TIP3    H232465   4.027   6.546   0.388 -2.7724 -0.8106 -1.6278
 3636TIP3   OH232466   1.918   5.346   8.263 -0.2247  0.7275 -0.3379
 3636TIP3    H132467   2.012   5.332   8.273 -0.5612 -1.0488  0.7846
 3636TIP3    H232468   1.909   5.441   8.250  1.7658  0.8137 -1.4821
 3637TIP3   OH232469   4.922   3.004   0.984  0.0787  0.2112  0.0666
 3637TIP3    H132470   4.980   3.046   0.921  1.4933 -1.8427 -0.0867
 3637TIP3    H232471   4.978   2.944   1.033 -1.4497 -0.0055  1.6757
 3638TIP3   OH232472   0.786   3.604   0.168 -0.6401 -0.0621  0.2121
 3638TIP3    H132473   0.755   3.659   0.240 -1.6767 -1.2686  0.7169
 3638TIP3    H232474   0.863   3.560   0.202  0.4910  1.3746 -0.3545
 3639TIP3   OH232475   6.758   6.634   7.550 -0.0084 -0.0064  0.6220
 3639TIP3    H132476   6.833   6.669   7.502 -0.7764  0.1899 -0.4930
 3639TIP3    H232477   6.785   6.545   7.574  0.5685  0.0388  0.1766
 3640TIP3   OH232478   4.475   2.372   7.197  0.5298 -0.4816  0.5617
 3640TIP3    H132479   4.446   2.459   7.170 -1.0537 -0.8903  0.8295
 3640TIP3    H232480   4.464   2.318   7.119 -1.8162 -1.1519  1.2592
 3641TIP3   OH232481   6.726   2.402   7.435 -0.8466 -0.1874 -0.0695
 3641TIP3    H132482   6.770   2.318   7.418  0.8421  0.4399  1.0195
 3641TIP3    H232483   6.633   2.382   7.425 -0.4078 -1.7307 -1.7646
 3642TIP3   OH232484   5.567   3.238   7.458  0.5433  0.4789  0.0518
 3642TIP3    H132485   5.627   3.170   7.488 -2.6559 -3.4660 -1.5433
 3642TIP3    H232486   5.579   3.239   7.363  0.0740  1.7078 -0.0039
 3643TIP3   OH232487   1.521   4.154   0.799  0.2285  0.5099  0.3803
 3643TIP3    H132488   1.595   4.210   0.822 -0.4858  1.2219  1.0322
 3643TIP3    H232489   1.444   4.207   0.821 -0.4729 -0.5639  0.5929
 3644TIP3   OH232490   3.379   3.319   7.695  0.2374  0.2938  0.0650
 3644TIP3    H132491   3.409   3.234   7.727  0.3658  0.1140 -0.5270
 3644TIP3    H232492   3.287   3.304   7.674  0.3210  0.2406 -0.2597
 3645TIP3   OH232493   4.813   3.969   7.318 -0.3506  0.1252 -0.1841
 3645TIP3    H132494   4.808   3.969   7.413  2.0876 -3.5874  0.1527
 3645TIP3    H232495   4.899   4.007   7.298 -0.8034  0.7962 -0.9115
 3646TIP3   OH232496   0.133   3.567   2.252  0.1975  0.0659  0.7221
 3646TIP3    H132497   0.058   3.612   2.213  3.3754  3.6791 -1.9031
 3646TIP3    H232498   0.158   3.622   2.327  0.1489 -1.2674  1.7655
 3647TIP3   OH232499   0.150   4.159   1.109 -0.3366 -0.3661 -0.0026
 3647TIP3    H132500   0.162   4.229   1.044  0.3657 -1.7997 -1.5032
 3647TIP3    H232501   0.062   4.126   1.091 -0.4236 -0.2809  0.2714
 3648TIP3   OH232502   1.866   6.519   8.237  0.5430  0.1375  0.4745
 3648TIP3    H132503   1.802   6.532   8.307  0.5864 -0.7242  0.6790
 3648TIP3    H232504   1.891   6.608   8.211 -1.3954  0.5059 -0.2366
 3649TIP3   OH232505   2.380   2.816   8.261 -0.1786 -0.3853  0.1980
 3649TIP3    H132506   2.360   2.793   8.171  0.5613 -2.7307  0.5721
 3649TIP3    H232507   2.295   2.819   8.305 -0.5029  0.3541 -0.4548
 3650TIP3   OH232508   4.931   1.409   6.561  0.1107 -0.4367 -0.3479
 3650TIP3    H132509   4.867   1.400   6.491 -0.3601 -0.4243  0.0728
 3650TIP3    H232510   4.937   1.504   6.576 -2.4227 -0.5284  1.9751
 3651TIP3   OH232511   2.215   6.600   8.754  0.0269 -0.3686  0.2375
 3651TIP3    H132512   2.174   6.514   8.767 -1.4602  0.6256  3.0256
 3651TIP3    H232513   2.157   6.645   8.692 -0.7911 -0.4448  0.9245
 3652TIP3   OH232514   5.196   1.414   0.457 -0.3707  0.2724  0.4231
 3652TIP3    H132515   5.254   1.420   0.533 -0.3519  0.9205  0.3624
 3652TIP3    H232516   5.231   1.341   0.406  0.3342  0.6012  0.4355
 3653TIP3   OH232517   3.786   3.407   0.234 -0.7038 -0.1685 -0.0461
 3653TIP3    H132518   3.694   3.417   0.260 -1.2907 -0.8969 -1.7137
 3653TIP3    H232519   3.807   3.316   0.257 -0.4135 -0.0247  0.2615
 3654TIP3   OH232520   0.109   1.991   1.926  0.3019 -0.1786 -1.0387
 3654TIP3    H132521   0.126   1.924   1.993  2.4023 -0.4122 -1.7442
 3654TIP3    H232522   0.169   1.970   1.855 -0.6105  1.1421 -2.2483
 3655TIP3   OH232523   4.343   2.207   0.237 -0.1276  0.0982  0.4918
 3655TIP3    H132524   4.321   2.198   0.144  0.9863  1.0959  0.1012
 3655TIP3    H232525   4.306   2.291   0.262 -0.7298 -0.3321  1.0536
 3656TIP3   OH232526   1.743   0.056   8.827 -0.4358  0.4876  0.4092
 3656TIP3    H132527   1.648   0.068   8.835 -0.6309 -0.5785 -0.1626
 3656TIP3    H232528   1.767   0.110   8.752 -0.2473  2.2993  1.7001
 3657TIP3   OH232529   4.455   0.270   0.138  0.4673  0.3458 -0.0121
 3657TIP3    H132530   4.385   0.303   0.193  0.1096  0.0556 -0.2931
 3657TIP3    H232531   4.422   0.188   0.102  0.5163  0.7443 -1.0074
 3658TIP3   OH232532   1.227   0.802   0.181 -0.1972 -0.2526 -0.0780
 3658TIP3    H132533   1.157   0.868   0.180  1.1932  1.4305  2.5254
 3658TIP3    H232534   1.297   0.840   0.129  0.4509  0.1926  1.0842
 3659TIP3   OH232535   4.377   1.501   2.345 -0.4849 -0.4671 -0.1882
 3659TIP3    H132536   4.344   1.416   2.374 -0.2084 -1.1349 -1.6916
 3659TIP3    H232537   4.466   1.483   2.314 -0.4668  0.3450 -0.6486
 3660TIP3   OH232538   3.470   1.898   7.377  0.2738 -0.0092  0.6401
 3660TIP3    H132539   3.564   1.908   7.364  0.3741 -0.7399  0.7359
 3660TIP3    H232540   3.440   1.983   7.407  0.7119  0.5741 -0.4920
 3661TIP3   OH232541   3.918   5.280   8.356  0.2267  0.0897  0.6717
 3661TIP3    H132542   3.954   5.340   8.291  0.5000 -1.4317 -0.6571
 3661TIP3    H232543   3.986   5.275   8.424  0.3411  1.0069  0.6316
 3662TIP3   OH232544   4.692   4.734   1.051  0.3439 -0.1938  0.2931
 3662TIP3    H132545   4.671   4.769   1.137  1.4778 -1.2859  1.0621
 3662TIP3    H232546   4.652   4.795   0.989 -0.9548  0.3229  1.5857
 3663TIP3   OH232547   5.098   4.611   0.875 -0.0385 -0.2950  0.0259
 3663TIP3    H132548   5.151   4.661   0.812  0.0943  0.0114  0.3727
 3663TIP3    H232549   5.151   4.534   0.895  0.0526 -0.2445 -0.0189
 3664TIP3   OH232550   4.954   3.940   0.290 -0.4060 -0.3582  0.3441
 3664TIP3    H132551   4.911   3.863   0.329  0.9325 -0.4565  1.6949
 3664TIP3    H232552   4.910   4.014   0.332 -0.8933 -0.3966 -0.0849
 3665TIP3   OH232553   6.770   5.836   1.400 -0.1873 -0.4830  0.1851
 3665TIP3    H132554   6.678   5.833   1.426  0.1820  0.5070  1.8178
 3665TIP3    H232555   6.777   5.913   1.345 -0.3944 -0.7598 -0.2318
 3666TIP3   OH232556   1.517   3.742   7.539 -0.3308 -0.4578  0.0373
 3666TIP3    H132557   1.492   3.819   7.590  0.5729 -0.4927  0.5459
 3666TIP3    H232558   1.433   3.701   7.515 -0.8028  0.4727  0.0774
 3667TIP3   OH232559   0.712   0.743   7.445 -0.0611 -0.2623  0.2416
 3667TIP3    H132560   0.703   0.796   7.365 -1.1751 -0.4474  0.2280
 3667TIP3    H232561   0.660   0.665   7.428  0.1287 -0.5518  0.9508
 3668TIP3   OH232562   5.421   4.415   1.891 -0.0172 -0.7263 -0.1977
 3668TIP3    H132563   5.396   4.324   1.877  2.3914 -1.3329 -1.0094
 3668TIP3    H232564   5.422   4.454   1.804  0.9117 -0.5026 -0.0999
 3669TIP3   OH232565   2.922   2.751   2.009 -0.3390 -0.2006  0.3304
 3669TIP3    H132566   2.960   2.797   1.935 -0.5481 -0.0581  0.3083
 3669TIP3    H232567   2.989   2.688   2.036 -0.9831 -1.6534 -1.2255
 3670TIP3   OH232568   1.420   4.266   6.877  0.4653 -0.2059  0.3918
 3670TIP3    H132569   1.458   4.178   6.881 -2.9304 -1.9794 -1.2555
 3670TIP3    H232570   1.436   4.294   6.786  0.7016  0.4744  0.6395
 3671TIP3   OH232571   4.590   2.676   0.324  0.0791 -0.0828  0.2288
 3671TIP3    H132572   4.647   2.636   0.390  1.2930  2.1015  0.5908
 3671TIP3    H232573   4.634   2.757   0.300 -0.5600 -0.5718 -2.9877
 3672TIP3   OH232574   4.855   4.978   0.046 -0.4039 -0.4865  0.8024
 3672TIP3    H132575   4.835   4.904  -0.012  1.4036 -0.9427  0.7040
 3672TIP3    H232576   4.790   5.044   0.023 -0.6364 -1.1961 -0.7308
 3673TIP3   OH232577   5.845   2.475   0.654 -0.2029 -0.8703  0.3884
 3673TIP3    H132578   5.880   2.473   0.743 -0.3147 -0.1345  0.4570
 3673TIP3    H232579   5.760   2.431   0.661 -0.0539 -1.1314  0.5693
 3674TIP3   OH232580   5.774   3.773   0.596 -0.1370  0.1078 -0.1442
 3674TIP3    H132581   5.736   3.844   0.545  1.7385  1.3864  0.1324
 3674TIP3    H232582   5.801   3.708   0.531  0.2111  0.7134 -0.6210
 3675TIP3   OH232583   1.943   2.240   1.505 -0.3105 -0.0660 -0.5017
 3675TIP3    H132584   1.956   2.154   1.545  2.3693  0.4187 -0.1523
 3675TIP3    H232585   1.896   2.222   1.424 -0.9024 -1.6955  0.1727
 3676TIP3   OH232586   1.742   4.330   0.747 -0.1886 -0.0760  0.9070
 3676TIP3    H132587   1.703   4.395   0.688  0.7862 -1.0468 -0.9017
 3676TIP3    H232588   1.820   4.373   0.781  0.6022 -0.3125 -0.4959
 3677TIP3   OH232589   4.284   0.853   7.214  0.0984  0.3157 -0.1120
 3677TIP3    H132590   4.215   0.788   7.223  0.0599  0.2023 -1.1232
 3677TIP3    H232591   4.348   0.813   7.156  0.9102  0.5185  0.6148
 3678TIP3   OH232592   4.105   5.904   0.151  0.5112 -0.1380 -0.0021
 3678TIP3    H132593   4.175   5.963   0.180  0.0822  0.9638 -1.1167
 3678TIP3    H232594   4.025   5.957   0.157  0.0457 -0.7498 -0.6002
 3679TIP3   OH232595   5.604   2.474   8.006 -0.5915 -0.4363 -0.6787
 3679TIP3    H132596   5.600   2.507   8.095 -0.2011 -2.0827 -0.0039
 3679TIP3    H232597   5.618   2.551   7.951  0.6240  0.4487  0.8157
 3680TIP3   OH232598   4.392   4.643   8.582  0.5120 -0.6727  0.5231
 3680TIP3    H132599   4.356   4.720   8.538  0.2611  0.4748  2.6371
 3680TIP3    H232600   4.364   4.569   8.527  2.4915  0.7794 -2.7270
 3681TIP3   OH232601   4.945   3.479   0.079  0.2095  0.0513  0.2857
 3681TIP3    H132602   4.874   3.457   0.140 -1.2028  0.6342 -1.0849
 3681TIP3    H232603   4.978   3.395   0.049 -0.8775 -0.2303 -0.1434
 3682TIP3   OH232604   3.743   3.361   7.493 -0.1618  0.4169  0.0086
 3682TIP3    H132605   3.808   3.336   7.427 -0.6216  1.5628 -0.9238
 3682TIP3    H232606   3.760   3.454   7.509 -1.2851  0.6290  0.0580
 3683TIP3   OH232607   5.672   5.077   7.198 -0.2200  0.3038 -0.0102
 3683TIP3    H132608   5.702   5.145   7.259  0.6736  0.7659 -0.9352
 3683TIP3    H232609   5.724   5.091   7.119 -0.3214 -1.2003 -0.3741
 3684TIP3   OH232610   5.055   3.454   8.273  0.3398  0.1895 -0.4847
 3684TIP3    H132611   5.070   3.360   8.279 -1.0412 -0.2017 -2.2222
 3684TIP3    H232612   4.961   3.463   8.259  0.2249  1.9381  0.9791
 3685TIP3   OH232613   1.197   4.013   6.915  0.7035  0.1704 -0.2998
 3685TIP3    H132614   1.214   4.090   6.968  0.8446  1.0142 -1.5370
 3685TIP3    H232615   1.201   4.044   6.825 -0.0632 -1.1133 -0.8065
 3686TIP3   OH232616   1.153   5.852   0.984 -0.3570  0.1714  0.0382
 3686TIP3    H132617   1.125   5.919   0.922  0.1420 -2.0091 -2.7609
 3686TIP3    H232618   1.243   5.832   0.958 -0.2489 -1.0802  1.2525
 3687TIP3   OH232619   4.014   2.097   0.546  1.0173  0.0456 -0.0995
 3687TIP3    H132620   4.056   2.024   0.592  2.2934  0.2262 -0.9330
 3687TIP3    H232621   3.927   2.064   0.523  1.3043 -0.9494  0.1950
 3688TIP3   OH232622   6.202   1.589   0.854  0.3050  0.0481 -0.3952
 3688TIP3    H132623   6.235   1.500   0.848 -0.2100 -0.1169 -0.9168
 3688TIP3    H232624   6.264   1.642   0.804 -0.4567 -0.3328 -1.7849
 3689TIP3   OH232625   1.175   0.890   1.220  0.4853 -0.1640  0.2111
 3689TIP3    H132626   1.100   0.933   1.260 -0.1797 -1.2012  0.1261
 3689TIP3    H232627   1.138   0.816   1.172  1.6194 -1.2089  0.8681
 3690TIP3   OH232628   3.590   5.765   0.759 -0.0828 -0.7131  0.4327
 3690TIP3    H132629   3.654   5.745   0.691  0.0630  0.8822  0.0475
 3690TIP3    H232630   3.537   5.686   0.767 -0.0913 -0.9383 -1.5331
 3691TIP3   OH232631   5.125   0.747   0.300 -0.1061 -0.5239 -0.3254
 3691TIP3    H132632   5.092   0.669   0.255  1.0837 -0.9397 -0.5155
 3691TIP3    H232633   5.087   0.743   0.387 -2.4283  0.2714 -1.2228
 3692TIP3   OH232634   3.396   2.962   7.600  0.2043  0.3442 -0.5902
 3692TIP3    H132635   3.340   3.010   7.540  0.0373  1.7218  0.6150
 3692TIP3    H232636   3.485   2.990   7.578  0.4258 -1.2890 -2.0139
 3693TIP3   OH232637   2.059   2.987   7.052 -0.3386 -0.1449  0.6194
 3693TIP3    H132638   2.133   2.996   6.993 -1.9988  0.9044 -1.4246
 3693TIP3    H232639   2.004   2.919   7.012 -0.3029 -1.2737  2.3652
 3694TIP3   OH232640   3.832   5.117   7.796  0.2138  0.0515  0.4408
 3694TIP3    H132641   3.737   5.128   7.790  0.0898 -0.0876  1.8535
 3694TIP3    H232642   3.858   5.088   7.709 -0.6672  2.5485 -0.7686
 3695TIP3   OH232643   4.424   3.982   8.013  0.5305  0.7331  0.0434
 3695TIP3    H132644   4.449   4.012   8.100  0.6910 -1.4020  0.8021
 3695TIP3    H232645   4.375   4.054   7.975  0.7665  1.8447  1.7649
 3696TIP3   OH232646   5.969   5.603   2.060  0.3533  0.3840  0.3259
 3696TIP3    H132647   5.913   5.663   2.110  0.1755  1.0957 -0.6927
 3696TIP3    H232648   5.911   5.532   2.034  0.3048  0.3157  0.6169
 3697TIP3   OH232649   4.196   4.565   0.687  0.1889 -0.0019  0.5261
 3697TIP3    H132650   4.169   4.600   0.601 -0.0394  0.5937  0.8341
 3697TIP3    H232651   4.156   4.624   0.750 -1.4654 -1.6590  1.1349
 3698TIP3   OH232652   2.007   4.584   0.074 -0.1965 -0.8219  0.0379
 3698TIP3    H132653   2.051   4.516   0.022  0.0791 -0.9327  0.4091
 3698TIP3    H232654   2.023   4.558   0.165 -0.6104 -0.5881  0.1774
 3699TIP3   OH232655   4.620   1.241   1.418 -0.3550 -0.3607  0.0878
 3699TIP3    H132656   4.644   1.327   1.385 -0.4361 -0.2822  0.2340
 3699TIP3    H232657   4.554   1.258   1.486 -0.9179 -0.5758 -0.3877
 3700TIP3   OH232658   1.525   3.992   1.094 -0.0985  0.2878 -0.0726
 3700TIP3    H132659   1.520   4.020   1.002  0.2755  0.0637 -0.1592
 3700TIP3    H232660   1.458   3.923   1.102 -0.3430  0.5185 -0.0983
 3701TIP3   OH232661   6.377   3.994   6.554  0.1114 -0.0217 -0.1704
 3701TIP3    H132662   6.334   3.909   6.544 -0.4626  0.2612 -0.1363
 3701TIP3    H232663   6.471   3.973   6.556 -0.0615 -0.8687  1.9260
 3702TIP3   OH232664   5.096   5.854   7.643  1.0182  0.2187  0.5032
 3702TIP3    H132665   5.011   5.897   7.646  1.0823  0.6149 -1.6400
 3702TIP3    H232666   5.078   5.762   7.664 -0.3823 -0.2211 -2.2114
 3703TIP3   OH232667   6.699   2.066   7.684  0.3286 -0.5370 -0.5185
 3703TIP3    H132668   6.613   2.087   7.649  0.4132 -1.5773 -1.4191
 3703TIP3    H232669   6.693   1.974   7.710  0.2419  0.1963  2.3948
 3704TIP3   OH232670   2.394   4.783   1.547  0.2059 -0.4699  0.1523
 3704TIP3    H132671   2.484   4.813   1.562 -0.2853 -0.3362  4.1286
 3704TIP3    H232672   2.389   4.697   1.588 -1.5281 -0.3552  0.2924
 3705TIP3   OH232673   3.768   5.310   7.251  0.1440  0.2520  0.0078
 3705TIP3    H132674   3.852   5.329   7.208  1.4832 -3.7585  0.4260
 3705TIP3    H232675   3.714   5.273   7.181 -0.1164 -0.1009  0.3954
 3706TIP3   OH232676   6.057   3.727   8.448  0.3540  0.0480  0.1958
 3706TIP3    H132677   6.030   3.808   8.404 -0.2021  0.1920  0.7801
 3706TIP3    H232678   6.149   3.739   8.468  0.1112  0.8263  0.8806
 3707TIP3   OH232679   2.391   5.948   1.836  0.3820 -1.1408 -0.3478
 3707TIP3    H132680   2.447   6.003   1.780 -2.5321  0.4345 -1.9226
 3707TIP3    H232681   2.429   5.957   1.923  1.2128  1.8736 -0.8932
 3708TIP3   OH232682   2.413   0.292   2.353 -0.1331  0.2575  0.6279
 3708TIP3    H132683   2.401   0.271   2.260  3.4652  1.4989 -0.2982
 3708TIP3    H232684   2.453   0.214   2.391  0.4168  0.5003  0.5637
 3709TIP3   OH232685   3.268   1.018   1.451 -0.1569  0.2174 -0.1419
 3709TIP3    H132686   3.245   0.939   1.500 -0.7492 -0.8814 -2.0914
 3709TIP3    H232687   3.236   1.090   1.505 -0.6855 -0.9254  1.1195
 3710TIP3   OH232688   2.618   6.229   0.741 -0.2754 -0.0913  0.4713
 3710TIP3    H132689   2.566   6.154   0.715  1.2751 -0.7568 -0.8947
 3710TIP3    H232690   2.709   6.200   0.731  0.3971  2.2227 -0.9910
 3711TIP3   OH232691   2.822   3.554   1.005 -0.4030 -0.2822  0.4653
 3711TIP3    H132692   2.907   3.590   1.031 -1.1381  1.7169  0.3066
 3711TIP3    H232693   2.787   3.515   1.085 -0.5864  1.5593  1.3354
 3712TIP3   OH232694   5.155   0.188   6.671 -0.1459  0.1487  0.2208
 3712TIP3    H132695   5.187   0.257   6.730 -0.4324  1.1854 -0.8029
 3712TIP3    H232696   5.235   0.150   6.634  0.0036  1.2806 -0.6957
 3713TIP3   OH232697   0.229   3.896   8.183  0.6387  0.2254 -0.3508
 3713TIP3    H132698   0.260   3.806   8.170  0.5282  0.3246 -1.4713
 3713TIP3    H232699   0.261   3.943   8.106 -0.5699  0.7890 -0.5455
 3714TIP3   OH232700   6.749   4.152   7.818 -0.1379  0.0004 -0.0144
 3714TIP3    H132701   6.666   4.105   7.814  0.8561 -1.8005 -0.7400
 3714TIP3    H232702   6.726   4.241   7.845 -2.0964 -0.9154  1.5526
 3715TIP3   OH232703   0.457   4.716   7.319 -0.1466 -0.6768  0.0735
 3715TIP3    H132704   0.442   4.621   7.314  0.2022 -0.6721 -2.0367
 3715TIP3    H232705   0.464   4.744   7.228 -2.1186  1.7154  0.5421
 3716TIP3   OH232706   5.621   1.841   8.320  0.0941 -0.2066 -0.3514
 3716TIP3    H132707   5.557   1.892   8.369  0.3611 -0.9362  0.8123
 3716TIP3    H232708   5.571   1.800   8.250 -0.6471 -0.4745  0.3237
 3717TIP3   OH232709   2.375   2.989   1.398  0.3901  0.2034  0.2536
 3717TIP3    H132710   2.441   2.992   1.328  0.3750  0.4582  0.2497
 3717TIP3    H232711   2.301   2.943   1.359  0.9425 -1.0005  0.5782
 3718TIP3   OH232712   4.588   4.593   6.018 -0.2265 -0.6268  0.4953
 3718TIP3    H132713   4.626   4.506   6.027  0.1701 -0.5206 -0.1026
 3718TIP3    H232714   4.535   4.588   5.938 -0.5873 -0.4506  0.7155
 3719TIP3   OH232715   1.647   0.837   0.554  0.2790  0.1645  0.3481
 3719TIP3    H132716   1.649   0.817   0.648 -0.6349  0.6553  0.4881
 3719TIP3    H232717   1.581   0.777   0.519  0.9940 -0.3769 -0.0760
 3720TIP3   OH232718   3.336   5.515   8.165 -0.4674 -0.2237 -0.5375
 3720TIP3    H132719   3.295   5.452   8.225  0.6442 -0.4146  0.0529
 3720TIP3    H232720   3.430   5.497   8.172 -0.1867  0.9676 -0.9749
 3721TIP3   OH232721   1.011   6.498   7.126 -0.2070 -0.2600  0.4185
 3721TIP3    H132722   1.100   6.529   7.143 -0.1884  0.5479 -0.9372
 3721TIP3    H232723   1.008   6.488   7.031 -1.1090 -1.7629  0.5860
 3722TIP3   OH232724   0.852   2.760   8.134 -0.1280  0.1993 -0.3233
 3722TIP3    H132725   0.944   2.735   8.125 -0.4114 -1.0363 -0.0808
 3722TIP3    H232726   0.854   2.847   8.173  0.9424 -0.2386  0.6470
 3723TIP3   OH232727   0.469   3.443   7.571  0.1243 -0.3771 -0.6535
 3723TIP3    H132728   0.513   3.497   7.637 -1.5969 -2.2451  2.2561
 3723TIP3    H232729   0.531   3.371   7.554  0.0565 -0.5855 -0.0428
 3724TIP3   OH232730   0.438   0.692   7.891  0.5524 -0.0561 -0.2154
 3724TIP3    H132731   0.452   0.739   7.973 -1.7459 -0.0810  0.2672
 3724TIP3    H232732   0.448   0.600   7.914 -0.8184 -0.1149  0.2701
 3725TIP3   OH232733   5.430   4.634   7.324 -0.0527  0.0376  0.3793
 3725TIP3    H132734   5.337   4.609   7.320  0.0333 -0.1917 -0.2113
 3725TIP3    H232735   5.429   4.730   7.332 -0.3374  0.0382  0.3399
 3726TIP3   OH232736   6.747   2.485   6.969 -0.2913  0.1859 -0.1568
 3726TIP3    H132737   6.811   2.465   6.902  0.5517 -0.7501  0.8934
 3726TIP3    H232738   6.789   2.552   7.024 -0.0889 -0.6177  0.6875
 3727TIP3   OH232739   6.114   2.224   7.019 -0.3347  0.0628 -0.0063
 3727TIP3    H132740   6.105   2.299   6.959  1.5079 -0.0877 -0.5177
 3727TIP3    H232741   6.207   2.205   7.020 -0.5155 -0.9025  1.7931
 3728TIP3   OH232742   2.806   3.105   0.969 -0.0954 -0.0396  0.0355
 3728TIP3    H132743   2.866   3.056   0.913  1.5812  0.0669  1.6404
 3728TIP3    H232744   2.719   3.085   0.934  0.8680  1.0783 -3.4205
 3729TIP3   OH232745   2.680   1.662   7.400  0.3984 -0.1049 -0.3299
 3729TIP3    H132746   2.738   1.734   7.375  1.5584 -0.8314  0.1739
 3729TIP3    H232747   2.625   1.698   7.470  0.1533  0.6200 -0.8782
 3730TIP3   OH232748   4.585   1.782   2.215 -0.3896  0.0473  0.0778
 3730TIP3    H132749   4.567   1.862   2.165 -1.5354  0.3761  0.9826
 3730TIP3    H232750   4.513   1.723   2.194  0.7199 -0.9938 -0.9971
 3731TIP3   OH232751   4.411   5.938   0.252  0.5880 -0.2473  0.0749
 3731TIP3    H132752   4.407   5.862   0.311  2.3915 -0.6028 -0.1855
 3731TIP3    H232753   4.406   6.013   0.310  2.4429 -0.5926  0.7522
 3732TIP3   OH232754   2.339   0.525   8.302 -0.0057 -0.0645 -0.3383
 3732TIP3    H132755   2.346   0.595   8.368 -0.4564 -0.7539  0.4617
 3732TIP3    H232756   2.373   0.565   8.222  0.1910  0.9240  0.2118
 3733TIP3   OH232757   1.094   3.660   1.615  0.0466  0.2394 -0.4003
 3733TIP3    H132758   1.023   3.600   1.640  0.4427 -0.7284 -1.5420
 3733TIP3    H232759   1.118   3.634   1.526 -0.7329  3.0368 -1.5307
 3734TIP3   OH232760   2.124   1.678   0.247 -0.1592 -0.1580 -0.4039
 3734TIP3    H132761   2.082   1.713   0.326 -0.0908 -2.9367  0.9951
 3734TIP3    H232762   2.202   1.634   0.280  0.7593 -0.0075 -2.2769
 3735TIP3   OH232763   1.469   4.963   1.512  0.2429 -0.5977  0.3063
 3735TIP3    H132764   1.510   5.022   1.576 -1.6761 -1.9738  3.0337
 3735TIP3    H232765   1.518   4.881   1.521 -0.6776 -1.1055  0.8202
 3736TIP3   OH232766   4.862   4.495   1.476 -0.0150  0.4501 -0.7628
 3736TIP3    H132767   4.910   4.516   1.396  5.0270 -0.2312  1.6644
 3736TIP3    H232768   4.868   4.400   1.483  1.3559  0.6202  1.2023
 3737TIP3   OH232769   6.554   6.741   1.102 -0.3328 -0.0601  0.5773
 3737TIP3    H132770   6.619   6.686   1.058 -0.4838  0.8431 -0.8358
 3737TIP3    H232771   6.481   6.682   1.120 -0.6627 -0.2842 -1.2767
 3738TIP3   OH232772   6.445   1.197   1.525 -0.1662 -0.1755 -0.3914
 3738TIP3    H132773   6.407   1.163   1.445 -1.0041  1.2045 -0.6260
 3738TIP3    H232774   6.415   1.137   1.594  1.4427 -1.9856 -1.1900
 3739TIP3   OH232775   5.730   0.926   1.697  0.0669  0.3626 -0.3107
 3739TIP3    H132776   5.709   0.928   1.790 -0.7129  1.3369 -0.4921
 3739TIP3    H232777   5.778   0.844   1.685  2.5435  1.4267  1.4257
 3740TIP3   OH232778   4.584   6.368   1.535 -0.0547 -0.0106 -1.2269
 3740TIP3    H132779   4.522   6.370   1.462  0.0887 -0.6780 -1.3702
 3740TIP3    H232780   4.556   6.294   1.589  1.7687 -1.5950 -2.3380
 3741TIP3   OH232781   5.457   3.976   8.052 -0.4469 -0.0062 -0.3149
 3741TIP3    H132782   5.492   4.045   7.996 -0.5779 -0.3003 -0.7600
 3741TIP3    H232783   5.488   3.999   8.140 -1.6022  1.3654 -0.2336
 3742TIP3   OH232784   5.814   2.275   8.004  0.2540  0.6287  0.6977
 3742TIP3    H132785   5.799   2.199   8.059 -1.3802 -0.1040 -0.6451
 3742TIP3    H232786   5.730   2.322   8.006 -0.5857 -0.4659 -2.5755
 3743TIP3   OH232787   2.209   2.037   7.213 -0.5710 -0.1078  0.3761
 3743TIP3    H132788   2.274   2.100   7.243  0.3559 -0.9094  0.0935
 3743TIP3    H232789   2.125   2.082   7.224 -0.0907  0.4602  2.0032
 3744TIP3   OH232790   5.583   5.226   7.602 -0.7116 -0.1978  1.0341
 3744TIP3    H132791   5.646   5.296   7.585  0.2606 -0.9995  1.2839
 3744TIP3    H232792   5.523   5.231   7.528  0.1992 -0.0253  0.2838
 3745TIP3   OH232793   4.496   5.595   0.975 -0.0229  0.3003  0.0416
 3745TIP3    H132794   4.509   5.501   0.960  1.8647  0.6369 -0.7731
 3745TIP3    H232795   4.493   5.604   1.070 -0.9914 -0.6595  0.1144
 3746TIP3   OH232796   4.831   1.556   7.093 -0.1698 -0.1443 -0.6294
 3746TIP3    H132797   4.890   1.560   7.169  0.0759  1.6453 -0.8689
 3746TIP3    H232798   4.883   1.589   7.020 -1.3170  1.1378 -0.9240
 3747TIP3   OH232799   6.360   0.198   7.205  0.5658  0.0034 -0.1167
 3747TIP3    H132800   6.269   0.168   7.212  1.3254 -2.6191 -0.4619
 3747TIP3    H232801   6.395   0.189   7.294  0.2227  2.1911  0.2980
 3748TIP3   OH232802   0.461   5.736   8.176 -0.6406  0.0167  0.5420
 3748TIP3    H132803   0.405   5.807   8.208 -0.1387 -0.6984  3.3668
 3748TIP3    H232804   0.469   5.677   8.251  0.9651 -1.7601 -0.9166
 3749TIP3   OH232805   6.735   6.500   7.934  0.2235 -0.3191  0.0820
 3749TIP3    H132806   6.750   6.594   7.939  1.4006 -0.5259  3.4730
 3749TIP3    H232807   6.647   6.487   7.970  0.6643 -0.5634  1.1190
 3750TIP3   OH232808   0.380   5.798   1.808  0.5615 -0.0186 -0.6354
 3750TIP3    H132809   0.465   5.777   1.846  0.2319  1.5367  1.1030
 3750TIP3    H232810   0.327   5.720   1.822  0.5956  0.3170  1.8043
 3751TIP3   OH232811   1.881   6.579   1.241 -0.2447 -0.1163  0.0861
 3751TIP3    H132812   1.926   6.658   1.211  1.2567  0.7692  4.0418
 3751TIP3    H232813   1.934   6.507   1.207  0.6793  0.7236 -0.3084
 3752TIP3   OH232814   0.076   3.900   8.404 -0.0811  0.4010 -0.1371
 3752TIP3    H132815   0.130   3.879   8.329  0.6267  1.1090  0.1657
 3752TIP3    H232816   0.054   3.993   8.394 -1.2630  0.1254 -0.2671
 3753TIP3   OH232817   3.738   2.049   1.859 -0.0383  0.1197  0.0663
 3753TIP3    H132818   3.817   2.070   1.909 -0.3519  0.1493  0.5545
 3753TIP3    H232819   3.673   2.026   1.926 -0.8112  1.3051 -0.2454
 3754TIP3   OH232820   6.453   2.384   1.011 -0.5388 -0.0894 -0.0960
 3754TIP3    H132821   6.517   2.363   1.079 -0.2273  0.9047 -0.0729
 3754TIP3    H232822   6.497   2.364   0.929 -0.6747 -0.6450 -0.0396
 3755TIP3   OH232823   3.307   2.695   1.870  0.7693 -0.1127  0.7548
 3755TIP3    H132824   3.256   2.653   1.939  1.0658  0.0291  1.0696
 3755TIP3    H232825   3.245   2.712   1.800  1.1041 -3.4037 -0.4818
 3756TIP3   OH232826   2.503   5.765   8.559  0.2319  0.2332 -0.1811
 3756TIP3    H132827   2.461   5.695   8.508 -1.0242  0.6182  0.2868
 3756TIP3    H232828   2.437   5.791   8.623  1.5991  0.1023  1.3454
 3757TIP3   OH232829   3.649   1.772   1.720  0.2779  0.7845 -0.3335
 3757TIP3    H132830   3.709   1.790   1.793 -0.9285 -1.9100  1.4975
 3757TIP3    H232831   3.562   1.794   1.755 -0.0309  3.5740 -2.5593
 3758TIP3   OH232832   1.930   3.056   0.324 -0.2271 -0.8318  0.4679
 3758TIP3    H132833   1.994   3.121   0.296  0.3898 -1.6869 -0.1826
 3758TIP3    H232834   1.919   3.072   0.418  0.3516 -0.1719  0.4333
 3759TIP3   OH232835   0.415   6.525   1.216 -0.2199  0.2308  0.2721
 3759TIP3    H132836   0.462   6.591   1.267  1.0483 -1.5547  1.5330
 3759TIP3    H232837   0.329   6.518   1.259  0.2229 -0.0631  1.1254
 3760TIP3   OH232838   4.738   1.329   8.753  0.1087 -0.3083  0.0620
 3760TIP3    H132839   4.802   1.260   8.772  0.2643 -0.3414 -0.5507
 3760TIP3    H232840   4.756   1.397   8.817 -0.0099 -0.8120  0.6438
 3761TIP3   OH232841   0.052   3.536   1.828 -0.2428 -0.4890  0.7176
 3761TIP3    H132842  -0.035   3.498   1.837 -0.5972  0.5696  2.1999
 3761TIP3    H232843   0.063   3.590   1.906  0.5346  1.8404 -0.8789
 3762TIP3   OH232844   3.157   5.103   6.460  0.0595  0.3166 -0.3958
 3762TIP3    H132845   3.076   5.072   6.419  0.3532 -0.8112 -0.1426
 3762TIP3    H232846   3.141   5.196   6.477 -0.4808  0.5734 -2.0679
 3763TIP3   OH232847   0.084   2.737   0.658 -0.4578  0.0874  0.0965
 3763TIP3    H132848   0.019   2.807   0.658  0.5645  1.0643  0.6462
 3763TIP3    H232849   0.167   2.781   0.642  0.2684 -0.9320  0.9375
 3764TIP3   OH232850   4.567   3.092   0.172  0.3747 -0.7037  0.2408
 3764TIP3    H132851   4.503   3.116   0.104  1.9028 -0.3338 -1.1408
 3764TIP3    H232852   4.530   3.127   0.253 -0.8621  0.0753 -0.6125
 3765TIP3   OH232853   1.974   3.388   8.406 -0.2837 -0.2778  0.4503
 3765TIP3    H132854   2.003   3.357   8.321  0.4490  1.1242  0.1457
 3765TIP3    H232855   2.055   3.402   8.456 -0.4319  2.2099  0.1341
 3766TIP3   OH232856   4.289   0.002   7.964  0.2554 -0.2865  0.0862
 3766TIP3    H132857   4.362   0.063   7.975  0.3990 -0.5226  0.4576
 3766TIP3    H232858   4.327  -0.084   7.981  0.5450 -0.7314 -2.4386
 3767TIP3   OH232859   1.518   2.982   1.628  0.4528  0.6728 -0.0960
 3767TIP3    H132860   1.487   2.987   1.718 -2.0272  2.6709 -0.9439
 3767TIP3    H232861   1.502   2.892   1.601  0.6106  0.2300  1.2285
 3768TIP3   OH232862   5.772   4.610   0.776 -0.1761  0.2910 -0.0343
 3768TIP3    H132863   5.711   4.539   0.759  1.4445 -0.8226 -1.5871
 3768TIP3    H232864   5.829   4.611   0.699  0.2616  2.8651  0.2428
 3769TIP3   OH232865   0.586   5.464   1.385  0.0899 -0.2323  0.6831
 3769TIP3    H132866   0.514   5.526   1.396  0.2648 -0.0228  0.6464
 3769TIP3    H232867   0.566   5.393   1.447  1.5332  1.3647  3.1530
 3770TIP3   OH232868   5.428   0.811   1.318  0.0878 -0.0194 -0.6530
 3770TIP3    H132869   5.457   0.737   1.372  0.7682 -0.6133 -1.7998
 3770TIP3    H232870   5.422   0.884   1.379 -0.6584 -1.0225  0.5233
 3771TIP3   OH232871   4.590   2.277   1.374  0.8235  0.8812  0.4258
 3771TIP3    H132872   4.571   2.342   1.307 -2.2175  1.2146  1.4586
 3771TIP3    H232873   4.548   2.311   1.453  2.3921 -0.5606  1.9635
 3772TIP3   OH232874   5.576   6.712   7.998 -0.4626  0.1436  0.9085
 3772TIP3    H132875   5.517   6.652   7.951 -0.1500  0.7074 -0.2451
 3772TIP3    H232876   5.657   6.711   7.947 -1.2485  3.4206 -0.6530
 3773TIP3   OH232877   3.439   4.367   8.779  0.5186  0.0520  0.6810
 3773TIP3    H132878   3.495   4.290   8.774 -0.3115 -0.5534  0.4364
 3773TIP3    H232879   3.366   4.348   8.719  0.7399  1.3977 -0.0567
 3774TIP3   OH232880   5.751   3.670   1.335 -0.0932  0.3644 -0.5185
 3774TIP3    H132881   5.845   3.681   1.326  0.0209 -1.0762 -1.3882
 3774TIP3    H232882   5.718   3.668   1.245 -1.1219  1.9730 -0.2169
 3775TIP3   OH232883   4.423   5.751   7.784  0.2561 -0.2006 -0.4854
 3775TIP3    H132884   4.445   5.812   7.715  1.1675 -0.7389 -0.6880
 3775TIP3    H232885   4.495   5.688   7.784  0.1596 -0.3359  0.7984
 3776TIP3   OH232886   0.859   4.243   0.125 -0.7614  0.6602 -0.0228
 3776TIP3    H132887   0.917   4.316   0.103 -1.5006  1.4667  0.6175
 3776TIP3    H232888   0.820   4.216   0.042  1.4143 -0.7286 -0.6826
 3777TIP3   OH232889   3.060   6.082   0.224  0.6381  0.0978  0.7614
 3777TIP3    H132890   2.972   6.080   0.185 -0.4410  0.7964  2.9701
 3777TIP3    H232891   3.093   5.993   0.212 -1.5917 -1.0561  2.3321
 3778TIP3   OH232892   0.795   2.830   0.770 -0.7912 -0.2380  0.1728
 3778TIP3    H132893   0.778   2.741   0.738  0.1763 -0.4767  0.2916
 3778TIP3    H232894   0.891   2.837   0.771 -0.8557  0.6679  0.5445
 3779TIP3   OH232895   0.460   5.563   7.958  0.1980 -0.0728  0.2471
 3779TIP3    H132896   0.424   5.639   7.914 -0.6163 -0.2974  0.5076
 3779TIP3    H232897   0.485   5.595   8.045 -0.5205 -0.1808  0.5025
 3780TIP3   OH232898   3.409   1.444   7.762 -0.4839  0.5833 -0.1643
 3780TIP3    H132899   3.324   1.431   7.718  0.0032 -2.2301 -0.4640
 3780TIP3    H232900   3.457   1.503   7.703 -0.4780 -1.7288 -2.6915
 3781TIP3   OH232901   6.355   4.046   6.986 -0.2059 -0.1703  0.1120
 3781TIP3    H132902   6.283   4.008   6.935 -1.1859  0.9388  0.6088
 3781TIP3    H232903   6.339   4.141   6.983  0.1648 -0.0221  1.8035
 3782TIP3   OH232904   0.660   3.024   1.351  0.0595 -0.0384  0.0412
 3782TIP3    H132905   0.660   2.972   1.432 -0.5404 -1.6525 -0.9479
 3782TIP3    H232906   0.729   3.089   1.364  1.2614 -1.4680  1.1230
 3783TIP3   OH232907   5.814   2.943   0.183 -0.2630  0.3841  0.2599
 3783TIP3    H132908   5.806   2.908   0.271  0.1215 -0.3454  0.0204
 3783TIP3    H232909   5.808   3.037   0.193 -2.1174  0.2359  0.8384
 3784TIP3   OH232910   3.279   3.286   0.227  0.1612 -0.1026  0.2014
 3784TIP3    H132911   3.358   3.316   0.273  1.0986 -1.2610 -0.5936
 3784TIP3    H232912   3.291   3.192   0.217 -1.0003 -0.1955 -0.5675
 3785TIP3   OH232913   4.316   4.011   6.139  0.4706 -0.6051  0.3752
 3785TIP3    H132914   4.224   4.002   6.165  0.4917  0.0475  0.6898
 3785TIP3    H232915   4.355   3.926   6.159 -0.0309 -0.8431  0.3670
 3786TIP3   OH232916   6.028   1.255   1.541 -0.3642 -0.0537  0.1040
 3786TIP3    H132917   5.958   1.208   1.495  0.5483 -1.0972 -0.2601
 3786TIP3    H232918   6.008   1.242   1.634 -0.4350 -0.7178  0.0050
 3787TIP3   OH232919   5.167   5.970   1.489 -0.1140  0.1004  1.3740
 3787TIP3    H132920   5.109   5.954   1.414 -1.0128  0.5869  1.9547
 3787TIP3    H232921   5.234   5.901   1.482 -0.7156 -0.4309  0.6537
 3788TIP3   OH232922   0.413   1.047   7.875 -0.3109  0.2725 -0.0673
 3788TIP3    H132923   0.385   1.062   7.965  0.3210 -0.2890  0.2245
 3788TIP3    H232924   0.506   1.071   7.874 -0.5778  1.3754 -0.8469
 3789TIP3   OH232925   6.625   4.773   2.778 -0.0708  0.1358  0.3489
 3789TIP3    H132926   6.683   4.821   2.718 -0.4838 -0.9169 -0.9196
 3789TIP3    H232927   6.666   4.687   2.787 -0.0267  0.2655  1.5912
 3790TIP3   OH232928   1.694   1.457   1.220  0.1517  0.8900  0.4927
 3790TIP3    H132929   1.735   1.501   1.295 -2.5737  2.0078  1.5060
 3790TIP3    H232930   1.754   1.472   1.147  2.5872  0.3692  2.2621
 3791TIP3   OH232931   6.611   1.440   0.532 -0.6378 -0.3677  0.1802
 3791TIP3    H132932   6.614   1.486   0.448 -0.1208  2.1102  1.4365
 3791TIP3    H232933   6.687   1.382   0.530  0.0683  0.5325 -0.6461
 3792TIP3   OH232934   5.740   1.344   8.243  0.2493  0.5983 -0.1521
 3792TIP3    H132935   5.649   1.351   8.272  0.5563 -0.4551  1.1860
 3792TIP3    H232936   5.791   1.347   8.323  1.4011  0.9698 -0.8717
 3793TIP3   OH232937   3.163   0.726   6.262 -0.3188 -0.5391 -0.1995
 3793TIP3    H132938   3.083   0.777   6.278  0.0241  0.4267 -1.3427
 3793TIP3    H232939   3.194   0.758   6.177  0.3608 -2.1170 -0.5765
 3794TIP3   OH232940   2.491   0.509   7.450  0.2968  0.1218  0.5301
 3794TIP3    H132941   2.562   0.573   7.457  0.0846  0.4066  0.1313
 3794TIP3    H232942   2.497   0.457   7.530 -0.7570  1.8770  1.7973
 3795TIP3   OH232943   0.444   6.067   1.524 -0.4428 -0.2483 -0.3651
 3795TIP3    H132944   0.421   6.005   1.454 -0.0139  0.4206 -1.1206
 3795TIP3    H232945   0.373   6.131   1.523 -1.4791 -1.3227  1.1826
 3796TIP3   OH232946   2.290   3.883   8.518 -0.1240  0.2465  0.5911
 3796TIP3    H132947   2.315   3.791   8.519 -0.8992 -0.0316 -1.3692
 3796TIP3    H232948   2.328   3.917   8.437 -4.4698  0.2018 -1.7363
 3797TIP3   OH232949   4.031   0.444   6.205 -0.3510  0.3774  0.0707
 3797TIP3    H132950   4.047   0.366   6.258 -0.6131 -1.0490 -1.8450
 3797TIP3    H232951   4.102   0.503   6.227  0.5030 -0.8551  0.7419
 3798TIP3   OH232952   3.870   0.670   7.713  0.3495  0.0453  0.2730
 3798TIP3    H132953   3.849   0.744   7.770  3.9659  1.5929 -0.0847
 3798TIP3    H232954   3.917   0.609   7.770 -0.5072 -0.8555  0.0292
 3799TIP3   OH232955   6.113   5.790   8.771 -0.0919  0.3577  0.0931
 3799TIP3    H132956   6.181   5.751   8.825  1.6376  2.1382 -0.6941
 3799TIP3    H232957   6.088   5.720   8.710  1.5376 -0.1442 -0.0445
 3800TIP3   OH232958   0.357   4.918   6.300  0.2167  0.2518  0.0524
 3800TIP3    H132959   0.381   4.929   6.393  0.3385  0.8100 -0.0399
 3800TIP3    H232960   0.413   4.847   6.270  1.0019  0.8153  0.1250
 3801TIP3   OH232961   0.394   1.042   7.139  0.4179  0.8102 -0.1897
 3801TIP3    H132962   0.332   1.092   7.192  0.9232  1.6449 -0.3713
 3801TIP3    H232963   0.355   1.037   7.052  0.2634  0.6881 -0.1138
 3802TIP3   OH232964   3.710   4.453   7.120 -0.0622  0.6136  0.1273
 3802TIP3    H132965   3.670   4.511   7.056 -0.1144 -0.5453 -0.9387
 3802TIP3    H232966   3.677   4.483   7.205 -1.5033  0.9862 -0.5464
 3803TIP3   OH232967   4.543   0.507   6.952  0.0994 -0.0773 -0.4390
 3803TIP3    H132968   4.535   0.429   7.007 -1.6277  0.7882  0.6192
 3803TIP3    H232969   4.481   0.492   6.880 -1.9530  1.2082  0.9651
 3804TIP3   OH232970   6.280   0.899   7.448  0.6083 -0.0733  0.5345
 3804TIP3    H132971   6.226   0.964   7.404 -0.3701  0.1684  2.0020
 3804TIP3    H232972   6.370   0.918   7.419 -0.0076 -0.2258 -1.6229
 3805TIP3   OH232973   2.619   5.189   7.821  0.3735 -0.4694 -0.6896
 3805TIP3    H132974   2.608   5.132   7.897  2.0955 -0.7233 -0.5837
 3805TIP3    H232975   2.535   5.233   7.811 -0.6195 -2.1465 -0.0569
 3806TIP3   OH232976   6.157   1.263   0.434  0.3024  0.8578  0.3058
 3806TIP3    H132977   6.070   1.281   0.469  0.0099 -0.9747  0.5929
 3806TIP3    H232978   6.216   1.315   0.489 -0.1268 -1.9070  3.7234
 3807TIP3   OH232979   1.873   5.735   0.501 -0.7344  0.5812  0.1166
 3807TIP3    H132980   1.913   5.754   0.586  0.6450  1.4120 -0.6845
 3807TIP3    H232981   1.865   5.820   0.458 -1.7858  0.2217 -0.4419
 3808TIP3   OH232982   2.172   1.765   8.290 -0.6224  0.3762  0.1227
 3808TIP3    H132983   2.135   1.677   8.295 -0.0321  0.0327 -1.1433
 3808TIP3    H232984   2.096   1.823   8.280 -0.9746 -0.0406  0.3703
 3809TIP3   OH232985   0.899   3.153   7.170 -0.0718  0.1638  0.9073
 3809TIP3    H132986   0.925   3.171   7.261  0.7494 -0.2372  0.7608
 3809TIP3    H232987   0.968   3.096   7.136  0.1692  1.1467 -0.2957
 3810TIP3   OH232988   1.505   4.193   0.328 -0.1046 -1.2260  0.1041
 3810TIP3    H132989   1.467   4.129   0.388 -0.9170 -0.5093  0.3651
 3810TIP3    H232990   1.430   4.237   0.289  0.4475 -0.0530  0.3303
 3811TIP3   OH232991   4.564   0.844   1.532  0.4012 -0.5805  0.3705
 3811TIP3    H132992   4.620   0.920   1.521 -0.5343 -0.0905 -1.6032
 3811TIP3    H232993   4.487   0.877   1.579 -0.4132 -0.0063 -1.2590
 3812TIP3   OH232994   2.348   6.087   0.723 -0.4400  0.2727  0.2769
 3812TIP3    H132995   2.323   6.024   0.656 -1.0636 -0.2517  0.9998
 3812TIP3    H232996   2.267   6.111   0.767 -0.0411  0.6175  0.8536
 3813TIP3   OH232997   3.151   3.145   1.175  0.5872  0.5520 -0.2996
 3813TIP3    H132998   3.232   3.158   1.224  0.6619  0.0410 -0.2806
 3813TIP3    H232999   3.083   3.185   1.230  0.5259 -0.8755  0.7171
 3814TIP3   OH233000   4.580   4.486   7.545 -0.2963 -0.6209 -0.2951
 3814TIP3    H133001   4.558   4.547   7.615 -1.2965 -0.3483 -0.8327
 3814TIP3    H233002   4.496   4.446   7.521  0.3434 -2.2957  0.1101
 3815TIP3   OH233003   2.697   2.720   6.681 -0.1128  0.1253  0.0715
 3815TIP3    H133004   2.719   2.629   6.658 -0.0501  0.3345 -0.7302
 3815TIP3    H233005   2.633   2.746   6.614  0.8370  1.0839 -0.4917
 3816TIP3   OH233006   0.317   2.658   0.908 -0.1044 -0.1785  0.1184
 3816TIP3    H133007   0.341   2.741   0.866 -0.1373 -0.5795 -0.7108
 3816TIP3    H233008   0.222   2.655   0.901 -0.0756 -0.4441 -0.1561
 3817TIP3   OH233009   1.055   5.160   7.215 -0.5760  0.7407 -0.1681
 3817TIP3    H133010   1.118   5.201   7.155  1.0578 -1.7312 -0.2929
 3817TIP3    H233011   1.108   5.135   7.291 -1.8822  0.5028  0.6987
 3818TIP3   OH233012   2.016   3.804   1.444  0.1255 -0.1811  0.3630
 3818TIP3    H133013   1.982   3.756   1.369  2.5010  0.5165 -1.2653
 3818TIP3    H233014   1.981   3.892   1.435 -0.7197 -0.4573  0.8872
 3819TIP3   OH233015   6.769   2.873   7.016 -0.1677 -0.4892  0.1592
 3819TIP3    H133016   6.804   2.804   7.073  2.2176 -0.4854 -1.1719
 3819TIP3    H233017   6.802   2.955   7.055 -0.3930 -0.3254  0.0090
 3820TIP3   OH233018   1.314   3.293   6.766 -0.0765  0.1878 -0.1554
 3820TIP3    H133019   1.262   3.355   6.817 -0.8456 -1.3524  1.0488
 3820TIP3    H233020   1.281   3.207   6.793  1.8568 -0.8023 -0.7408
 3821TIP3   OH233021   1.893   6.595   8.788 -0.3198 -0.5652  0.6028
 3821TIP3    H133022   1.840   6.669   8.759 -0.9268 -0.9924  0.6272
 3821TIP3    H233023   1.928   6.624   8.873  0.2342  0.0736  0.1727
 3822TIP3   OH233024   0.415   1.887   7.709 -0.7444  0.2912  0.3409
 3822TIP3    H133025   0.425   1.795   7.735 -0.2962  0.3288  0.3158
 3822TIP3    H233026   0.413   1.885   7.614 -1.4263  0.2437  0.3548
 3823TIP3   OH233027   1.766   0.274   8.641  0.6147  0.0347  0.5205
 3823TIP3    H133028   1.838   0.318   8.685 -0.1892  0.6252  1.2489
 3823TIP3    H233029   1.696   0.338   8.637  1.2461  0.7331 -3.3560
 3824TIP3   OH233030   4.644   4.034   0.630 -0.6424 -0.4685 -0.0618
 3824TIP3    H133031   4.588   4.013   0.556  0.6664  0.3896 -1.3504
 3824TIP3    H233032   4.598   4.104   0.676 -1.0676 -0.4218 -0.5545
 3825TIP3   OH233033   2.715   4.223   8.167  0.0448 -0.3381  0.2663
 3825TIP3    H133034   2.701   4.130   8.149 -0.4714  0.4142 -4.5443
 3825TIP3    H233035   2.811   4.232   8.172  0.1379 -0.9924 -0.1771
 3826TIP3   OH233036   5.626   1.025   6.894 -0.0766 -0.0673 -0.0520
 3826TIP3    H133037   5.597   0.939   6.926 -1.3945  0.7223  0.9779
 3826TIP3    H233038   5.585   1.087   6.954  0.3058  1.3183 -1.1980
 3827TIP3   OH233039   5.059   2.612   0.243 -0.3196  0.2735 -0.2052
 3827TIP3    H133040   5.037   2.520   0.232 -0.4079  0.3780 -1.0047
 3827TIP3    H233041   5.111   2.634   0.165 -0.5954  0.9819 -0.1999
 3828TIP3   OH233042   4.980   4.570   1.223  0.6055  0.1611  0.2439
 3828TIP3    H133043   5.011   4.657   1.198 -0.4522  0.5425  0.2053
 3828TIP3    H233044   4.973   4.523   1.140  0.9578  0.1138  0.2405
 3829TIP3   OH233045   4.103   2.639   6.323 -0.2976 -0.0808  0.3276
 3829TIP3    H133046   4.155   2.720   6.324  0.5264 -0.5830 -0.1988
 3829TIP3    H233047   4.053   2.645   6.242  1.3779 -1.0461 -0.8479
 3830TIP3   OH233048   5.282   0.474   7.111 -0.2194  0.0227  0.5618
 3830TIP3    H133049   5.226   0.396   7.107  0.2164 -0.3951  2.1056
 3830TIP3    H233050   5.299   0.495   7.019 -0.1127 -1.8766  0.1007
 3831TIP3   OH233051   1.183   2.459   0.156 -0.3846 -0.0961  0.0225
 3831TIP3    H133052   1.257   2.462   0.095 -1.0173  0.4733 -0.7397
 3831TIP3    H233053   1.109   2.490   0.105 -1.1953 -0.8333  0.7296
 3832TIP3   OH233054   3.882   3.392   1.335  0.5086 -0.6503  0.6091
 3832TIP3    H133055   3.908   3.481   1.358  0.1326 -0.9068  2.1110
 3832TIP3    H233056   3.815   3.369   1.399 -2.0602 -0.7335 -1.9192
 3833TIP3   OH233057   5.708   3.654   1.948 -0.4858 -0.5340 -1.2491
 3833TIP3    H133058   5.729   3.563   1.970 -1.7969 -0.4175  0.7328
 3833TIP3    H233059   5.781   3.683   1.894  0.7800 -2.2642 -0.5621
 3834TIP3   OH233060   2.229   1.857   7.005 -0.0329 -0.0882  0.5929
 3834TIP3    H133061   2.143   1.830   7.038  0.1431  0.2001  1.3116
 3834TIP3    H233062   2.255   1.929   7.063  0.9374 -0.5373  0.7326
 3835TIP3   OH233063   5.116   0.167   2.370 -0.0020 -0.2836 -1.0419
 3835TIP3    H133064   5.187   0.151   2.432 -0.3606 -0.8270 -0.7642
 3835TIP3    H233065   5.058   0.091   2.380 -1.7633  1.1512  0.3152
 3836TIP3   OH233066   3.308   5.854   8.763  0.0469  0.5923  0.2060
 3836TIP3    H133067   3.266   5.824   8.683 -1.5590 -0.9237  1.5115
 3836TIP3    H233068   3.282   5.945   8.773  0.6883  0.9484 -1.2222
 3837TIP3   OH233069   6.165   4.388   0.386  0.2378  0.8773 -0.1456
 3837TIP3    H133070   6.244   4.411   0.435 -0.6602  0.3248  1.6486
 3837TIP3    H233071   6.160   4.292   0.391 -0.3436  0.8754 -0.5928
 3838TIP3   OH233072   5.698   0.403   7.340 -0.6695 -0.3204  0.2620
 3838TIP3    H133073   5.790   0.429   7.348 -0.7672 -0.2852  1.3756
 3838TIP3    H233074   5.696   0.311   7.366 -0.8368 -0.5580 -0.5441
 3839TIP3   OH233075   1.913   2.072   7.209 -0.3583  0.3355 -0.5785
 3839TIP3    H133076   1.920   2.034   7.296  3.5442  2.8405  0.4953
 3839TIP3    H233077   1.917   1.998   7.149  1.3153 -1.2765  1.3949
 3840TIP3   OH233078   3.001   5.515   7.167  0.3074 -0.1670  0.0912
 3840TIP3    H133079   2.932   5.580   7.180  0.6902  0.3522 -0.4213
 3840TIP3    H233080   3.080   5.555   7.205 -0.0525 -1.6037  2.6099
 3841TIP3   OH233081   0.352   4.267   1.635 -0.2207  0.3097 -0.1868
 3841TIP3    H133082   0.334   4.177   1.664  1.3178 -0.5636 -1.7206
 3841TIP3    H233083   0.328   4.267   1.542  1.2278  1.0024 -0.6003
 3842TIP3   OH233084   4.998   0.041   7.065 -0.4534 -0.4087 -0.1045
 3842TIP3    H133085   5.028  -0.017   6.996 -1.6223 -0.4870 -0.5588
 3842TIP3    H233086   4.908   0.064   7.041 -0.1577  1.2673  0.2676
 3843TIP3   OH233087   0.078   5.645   0.605  0.0460 -0.0995 -0.5822
 3843TIP3    H133088   0.088   5.727   0.653  1.2510 -0.1604 -0.6983
 3843TIP3    H233089  -0.015   5.640   0.585 -0.2255  0.6664  0.4275
 3844TIP3   OH233090   6.372   3.591   8.412 -0.3953  0.0839 -0.2582
 3844TIP3    H133091   6.372   3.542   8.494  0.1711  0.8366  0.1971
 3844TIP3    H233092   6.360   3.523   8.344  3.6879 -1.2209  0.0705
 3845TIP3   OH233093   0.750   1.135   0.585 -0.1473  0.2334 -0.0461
 3845TIP3    H133094   0.785   1.212   0.541 -2.5940  0.9186 -0.9126
 3845TIP3    H233095   0.675   1.167   0.635 -0.9900 -1.5223 -0.1063
 3846TIP3   OH233096   2.969   0.505   2.000  0.3289 -0.2800  0.1106
 3846TIP3    H133097   2.993   0.598   2.004 -0.6042  0.0201 -0.8377
 3846TIP3    H233098   2.950   0.482   2.091  0.3144  0.5248  0.3257
 3847TIP3   OH233099   2.341   4.458   1.087  0.5832 -0.5676 -0.0634
 3847TIP3    H133100   2.246   4.456   1.087  0.5229 -0.0031 -1.9562
 3847TIP3    H233101   2.364   4.542   1.128  0.2636 -0.5969  0.1746
 3848TIP3   OH233102   5.162   4.732   7.334  0.0355  0.6956  0.5925
 3848TIP3    H133103   5.079   4.740   7.287  0.7290 -1.1075 -1.0720
 3848TIP3    H233104   5.147   4.776   7.418 -2.5377  0.5224  0.2884
 3849TIP3   OH233105   5.403   1.272   7.447 -0.2740 -0.4176  0.1200
 3849TIP3    H133106   5.452   1.353   7.461 -0.2964 -0.5523  1.0981
 3849TIP3    H233107   5.464   1.202   7.469 -0.2570 -0.6714 -0.7162
 3850TIP3   OH233108   6.082   5.378   7.101 -0.2712 -0.1792 -0.0879
 3850TIP3    H133109   6.121   5.441   7.040 -0.3121  0.1276  0.2012
 3850TIP3    H233110   6.112   5.292   7.069  1.8538  0.1153  0.9786
 3851TIP3   OH233111   2.576   3.026   2.336 -0.2971 -0.3190  0.2882
 3851TIP3    H133112   2.504   3.052   2.394  0.7606  0.8920  1.1125
 3851TIP3    H233113   2.541   2.952   2.287 -2.0143  0.0676  0.8495
 3852TIP3   OH233114   2.119   5.864   6.886 -0.4769 -0.6935 -0.5925
 3852TIP3    H133115   2.129   5.769   6.887  0.4337 -0.6072  0.1774
 3852TIP3    H233116   2.063   5.881   6.810  0.3465 -1.7562 -1.4794
 3853TIP3   OH233117   5.000   6.359   0.216  0.2669 -0.3668 -0.0977
 3853TIP3    H133118   4.967   6.282   0.262  1.4342  0.0147  1.4453
 3853TIP3    H233119   5.001   6.428   0.282  0.3318  0.6814 -1.1609
 3854TIP3   OH233120   2.071   0.136   0.759 -0.1773  0.4416  0.1988
 3854TIP3    H133121   1.986   0.093   0.770  1.1571 -2.1432  1.0473
 3854TIP3    H233122   2.052   0.209   0.699 -3.1148  0.4654  0.9782
 3855TIP3   OH233123   5.577   3.182   1.582 -0.3823  0.1494 -0.1680
 3855TIP3    H133124   5.521   3.249   1.544 -1.4654 -0.5894  0.0676
 3855TIP3    H233125   5.611   3.222   1.662 -0.9895  0.4478 -0.0478
 3856TIP3   OH233126   2.989   1.875   6.933  0.2181  0.1432 -0.1950
 3856TIP3    H133127   3.072   1.831   6.952  0.8540  1.0075 -0.8778
 3856TIP3    H233128   3.012   1.968   6.929 -0.6103  0.3142 -1.2813
 3857TIP3   OH233129   1.278   3.817   8.667 -0.1089  0.1099 -0.0826
 3857TIP3    H133130   1.294   3.911   8.676  1.1008 -0.1002  0.0757
 3857TIP3    H233131   1.185   3.807   8.687 -0.8137  1.5509 -2.3333
 3858TIP3   OH233132   2.401   2.454   1.214 -0.3370 -0.4667  0.1214
 3858TIP3    H133133   2.321   2.411   1.244 -0.8703 -0.2297 -0.8953
 3858TIP3    H233134   2.402   2.439   1.119 -0.5695  1.7880 -0.2936
 3859TIP3   OH233135   5.464   4.423   8.604 -0.2741 -0.0997 -0.0311
 3859TIP3    H133136   5.442   4.512   8.632 -0.6476 -0.1485 -0.1680
 3859TIP3    H233137   5.541   4.400   8.656 -0.8112 -0.1020  0.7846
 3860TIP3   OH233138   2.847   0.925   7.670  0.5548 -0.1719 -0.2724
 3860TIP3    H133139   2.915   0.861   7.648 -0.9238 -1.4328 -1.4787
 3860TIP3    H233140   2.863   0.947   7.762  2.4952 -0.5067 -0.4907
 3861TIP3   OH233141   1.246   5.964   7.919 -0.2016 -0.1098 -0.2027
 3861TIP3    H133142   1.337   5.956   7.947  0.5313  1.6304 -1.8184
 3861TIP3    H233143   1.197   5.980   8.000  1.1096  0.1374  0.5700
 3862TIP3   OH233144   0.737   6.629   8.142  0.3254  0.6409  0.1941
 3862TIP3    H133145   0.831   6.616   8.127  0.3146  0.7419  0.0337
 3862TIP3    H233146   0.707   6.676   8.064  0.1503  0.6498  0.2671
 3863TIP3   OH233147   4.636   3.919   7.795 -1.4365  0.6294 -0.5668
 3863TIP3    H133148   4.561   3.950   7.845 -1.8526 -1.5269  0.2382
 3863TIP3    H233149   4.712   3.941   7.850 -1.6822  0.5795 -0.2068
 3864TIP3   OH233150   1.012   6.610   8.062 -0.0155 -0.0176  0.6568
 3864TIP3    H133151   0.996   6.530   8.012 -0.6697  0.9861 -0.8223
 3864TIP3    H233152   1.107   6.610   8.076 -0.0676 -1.3130  1.2002
 3865TIP3   OH233153   1.300   0.011   1.451  0.1579 -0.0040  0.3864
 3865TIP3    H133154   1.251  -0.009   1.531 -1.9293 -1.7433 -1.2054
 3865TIP3    H233155   1.275   0.100   1.429 -0.7977 -0.1856  0.6766
 3866TIP3   OH233156   4.246   5.237   2.146 -0.5386 -0.7654 -0.3311
 3866TIP3    H133157   4.257   5.327   2.177 -2.2298 -0.3716 -0.8038
 3866TIP3    H233158   4.303   5.185   2.203 -1.1100  0.3355  1.3266
 3867TIP3   OH233159   0.850   1.721   1.058  0.0416 -0.2563 -0.7029
 3867TIP3    H133160   0.784   1.653   1.043  0.0287 -0.8815  1.8010
 3867TIP3    H233161   0.807   1.784   1.116  2.0126 -1.5220  2.4029
 3868TIP3   OH233162   5.081   0.422   8.657 -0.0405 -0.1106 -0.2025
 3868TIP3    H133163   5.044   0.365   8.590  0.9274  0.1718 -1.0130
 3868TIP3    H233164   5.161   0.457   8.617 -0.3143  1.3909  0.4680
 3869TIP3   OH233165   4.283   0.643   8.022  0.8671 -0.0691  0.0494
 3869TIP3    H133166   4.192   0.621   8.040  0.5314  0.8360 -0.4510
 3869TIP3    H233167   4.311   0.692   8.099  0.2753  1.4348 -0.6522
 3870TIP3   OH233168   4.923   3.518   1.706 -0.5431 -0.4731 -0.0767
 3870TIP3    H133169   4.865   3.473   1.644 -0.3353 -0.6732 -0.1293
 3870TIP3    H233170   5.002   3.464   1.708  0.8112  1.2579 -2.1786
 3871TIP3   OH233171   2.388   5.650   1.788 -0.7319 -0.4335  0.6808
 3871TIP3    H133172   2.365   5.743   1.779  1.9498  0.3267  0.7656
 3871TIP3    H233173   2.393   5.636   1.882  0.5252 -0.1557  0.6747
 3872TIP3   OH233174   0.647   1.972   0.775  0.1732  0.1156 -0.1677
 3872TIP3    H133175   0.730   1.952   0.817 -0.4782 -2.3902  0.0951
 3872TIP3    H233176   0.663   2.052   0.725  3.0884 -1.0192 -1.2052
 3873TIP3   OH233177   5.440   1.997   8.502 -0.6516 -0.2971  0.3389
 3873TIP3    H133178   5.368   1.935   8.513 -1.8618  0.6787 -1.6378
 3873TIP3    H233179   5.431   2.058   8.576 -1.8803 -0.1862  0.1075
 3874TIP3   OH233180   3.580   0.286   1.143 -0.2403 -0.1223  0.1891
 3874TIP3    H133181   3.544   0.260   1.058  0.5891 -1.1583  0.1388
 3874TIP3    H233182   3.663   0.239   1.150  1.1046  2.1334  0.3534
 3875TIP3   OH233183   1.232   5.824   7.565  0.5110  0.6860 -0.3919
 3875TIP3    H133184   1.264   5.736   7.541  0.8094  0.3015  1.3342
 3875TIP3    H233185   1.276   5.844   7.647  1.1435  2.8819 -1.1960
 3876TIP3   OH233186   4.640   5.520   8.186 -0.3790  0.6360  0.0016
 3876TIP3    H133187   4.585   5.441   8.186  0.0868  0.2671 -1.5514
 3876TIP3    H233188   4.649   5.544   8.278  0.8971 -2.1186  0.6610
 3877TIP3   OH233189   0.522   4.989   1.758  0.1995  0.2811  0.0447
 3877TIP3    H133190   0.436   5.001   1.800  0.8616  1.3730  1.1654
 3877TIP3    H233191   0.569   4.931   1.817  0.4255  0.1171 -0.2936
 3878TIP3   OH233192   6.188   0.882   0.027  0.4537  0.2586 -0.0560
 3878TIP3    H133193   6.139   0.933   0.091 -0.4080 -1.3262  0.5972
 3878TIP3    H233194   6.278   0.881   0.061  0.3223  0.7092  0.3115
 3879TIP3   OH233195   2.811   6.067   0.115 -0.2493  0.3787  0.2960
 3879TIP3    H133196   2.764   5.987   0.089  0.7456 -0.6979  1.6829
 3879TIP3    H233197   2.752   6.111   0.176  0.5055 -1.0274  2.1251
 3880TIP3   OH233198   5.764   1.507   0.868 -0.3716  0.3655 -0.5921
 3880TIP3    H133199   5.732   1.420   0.891 -1.6626  0.6752 -1.1089
 3880TIP3    H233200   5.686   1.553   0.835  0.1086  1.9742  0.3953
 3881TIP3   OH233201   3.843   5.441   7.714  0.0861 -0.9393 -0.6568
 3881TIP3    H133202   3.906   5.423   7.644 -0.2409 -3.6861 -0.3797
 3881TIP3    H233203   3.758   5.445   7.670  0.2385  1.3144 -0.8463
 3882TIP3   OH233204   0.735   1.424   7.673  0.1931 -0.2970  0.5790
 3882TIP3    H133205   0.646   1.388   7.676  0.3167 -0.6577  0.0828
 3882TIP3    H233206   0.752   1.454   7.762 -0.8348  0.7753  0.4342
 3883TIP3   OH233207   4.148   4.286   0.606 -0.3309 -0.0701 -0.3735
 3883TIP3    H133208   4.132   4.372   0.646  0.0404 -0.3936  0.4963
 3883TIP3    H233209   4.118   4.223   0.671  1.3380 -0.6289 -0.0961
 3884TIP3   OH233210   2.053   4.744   0.768 -0.2486 -0.1125  0.4944
 3884TIP3    H133211   2.082   4.766   0.856  0.0282 -0.0668  0.3924
 3884TIP3    H233212   1.971   4.792   0.757 -0.3617 -0.2363  0.7805
 3885TIP3   OH233213   3.524   5.282   1.603  0.3349  0.4953 -0.5764
 3885TIP3    H133214   3.568   5.216   1.549  0.0200 -0.1773 -0.0173
 3885TIP3    H233215   3.519   5.359   1.546  1.8207  0.4510 -0.8171
 3886TIP3   OH233216   3.384   4.427   1.491  0.4648 -0.3251  0.1360
 3886TIP3    H133217   3.418   4.507   1.532  0.5459  0.3249 -1.1466
 3886TIP3    H233218   3.346   4.457   1.408  2.6664 -1.8884 -1.5849
 3887TIP3   OH233219   3.165   5.848   1.438  0.7415  0.6964 -0.3486
 3887TIP3    H133220   3.210   5.793   1.374 -1.2512  0.6682 -1.8503
 3887TIP3    H233221   3.222   5.924   1.449  1.9122 -0.0731 -0.8697
 3888TIP3   OH233222   6.291   2.268   7.722 -0.5573  0.2933 -0.2365
 3888TIP3    H133223   6.252   2.226   7.798 -1.5169  0.4489 -0.6190
 3888TIP3    H233224   6.349   2.202   7.685 -0.2219  0.1562  0.5212
 3889TIP3   OH233225   2.208   1.046   7.185  0.5819  0.3077  0.1073
 3889TIP3    H133226   2.160   1.121   7.149 -2.5565 -0.9962  1.2725
 3889TIP3    H233227   2.227   1.072   7.275 -1.2521 -0.5565  0.7718
 3890TIP3   OH233228   5.238   5.863   8.397 -0.2878  0.1900  0.2580
 3890TIP3    H133229   5.267   5.936   8.451 -0.6522 -0.9676  2.1537
 3890TIP3    H233230   5.146   5.881   8.379 -0.5871 -0.1023  1.3607
 3891TIP3   OH233231   3.134   3.239   6.660 -0.4712 -0.4994  0.5090
 3891TIP3    H133232   3.154   3.289   6.580 -0.9020  0.9250  1.2619
 3891TIP3    H233233   3.046   3.206   6.646  0.3740 -2.4728 -0.6584
 3892TIP3   OH233234   2.680   6.048   0.491  0.1096 -0.2767 -0.1621
 3892TIP3    H133235   2.756   5.991   0.484 -0.7235 -1.2805 -1.8107
 3892TIP3    H233236   2.645   6.031   0.579  3.1767  2.1686  1.7353
 3893TIP3   OH233237   1.729   2.506   1.719  0.4605  0.1544  0.1393
 3893TIP3    H133238   1.701   2.428   1.671  0.3742  0.5998 -0.5513
 3893TIP3    H233239   1.704   2.579   1.662  0.1240  0.7108  0.9823
 3894TIP3   OH233240   2.057   3.258   1.252  0.0412 -0.0945  0.0395
 3894TIP3    H133241   2.036   3.167   1.229  1.7809 -0.5381  0.0328
 3894TIP3    H233242   2.150   3.267   1.230 -0.0361  1.6226  0.2841
 3895TIP3   OH233243   1.336   5.322   1.074 -0.3955 -0.7475  0.6290
 3895TIP3    H133244   1.369   5.263   1.142  1.0569 -0.3909  0.2679
 3895TIP3    H233245   1.404   5.322   1.006 -2.1128 -1.6289 -1.1860
 3896TIP3   OH233246   3.504   1.397   7.164 -0.5578 -0.0210 -0.0531
 3896TIP3    H133247   3.572   1.464   7.155  1.3076 -1.9763 -1.6031
 3896TIP3    H233248   3.439   1.421   7.098  0.7416 -0.3857 -1.5313
 3897TIP3   OH233249   4.133   2.505   1.596 -0.4476 -0.5335  0.1587
 3897TIP3    H133250   4.099   2.562   1.527  0.0843  0.5488  0.7533
 3897TIP3    H233251   4.126   2.417   1.560 -1.5598 -0.1261 -0.6819
 3898TIP3   OH233252   1.844   4.186   8.803 -0.1569  0.0150  0.1546
 3898TIP3    H133253   1.789   4.127   8.752  0.0581 -0.8904  0.9381
 3898TIP3    H233254   1.812   4.176   8.893 -0.4260  1.4561  0.2394
 3899TIP3   OH233255   5.340   4.921   2.151  0.2212  0.2705  0.3478
 3899TIP3    H133256   5.414   4.899   2.094  1.3294  1.9891  1.0674
 3899TIP3    H233257   5.380   4.938   2.236 -1.0776  0.6284  0.8983
 3900TIP3   OH233258   2.249   1.760   7.769  1.0581 -0.0492 -0.7629
 3900TIP3    H133259   2.224   1.673   7.738  0.0608 -0.4004  0.8989
 3900TIP3    H233260   2.236   1.756   7.863 -0.5423  2.3680 -0.7961
 3901TIP3   OH233261   5.121   0.250   0.461 -0.1560 -0.4737 -0.3632
 3901TIP3    H133262   5.033   0.245   0.426  0.6024  0.7583 -2.6505
 3901TIP3    H233263   5.143   0.161   0.487 -1.7865 -0.9174 -0.4480
 3902TIP3   OH233264   1.171   4.015   0.193  0.1693  0.4812  0.2904
 3902TIP3    H133265   1.183   4.104   0.224 -1.1361  0.6281  0.4227
 3902TIP3    H233266   1.147   4.025   0.101  0.4067  0.2317  0.1973
 3903TIP3   OH233267   3.574   4.532   7.365  0.2448  0.7625  0.3756
 3903TIP3    H133268   3.571   4.555   7.458  0.5486 -0.4253  0.6860
 3903TIP3    H233269   3.508   4.589   7.325 -2.2748 -0.9088  1.8172
 3904TIP3   OH233270   2.164   1.247   2.554 -0.0301 -0.0030 -0.3096
 3904TIP3    H133271   2.142   1.339   2.542  0.6355 -0.0095 -1.7071
 3904TIP3    H233272   2.252   1.247   2.591  0.5290 -0.0668 -1.5774
 3905TIP3   OH233273   1.854   0.030   0.224 -0.3195  0.1507 -0.5356
 3905TIP3    H133274   1.934  -0.011   0.192  1.3285  1.3378  1.7951
 3905TIP3    H233275   1.804   0.050   0.145  1.3516 -1.2282 -2.0256
 3906TIP3   OH233276   3.714   3.484   6.880  0.1065 -0.3184  0.1727
 3906TIP3    H133277   3.625   3.509   6.903 -0.3877 -2.8310  1.3004
 3906TIP3    H233278   3.709   3.455   6.789 -0.2655 -0.6293  0.2927
 3907TIP3   OH233279   0.928   5.399   7.237 -0.5271 -0.0979 -0.2181
 3907TIP3    H133280   0.981   5.324   7.263 -0.5718 -0.0686 -0.0435
 3907TIP3    H233281   0.845   5.386   7.282 -1.0157 -0.6478 -1.2328
 3908TIP3   OH233282   1.516   3.880   0.672  0.2355  0.0305  0.6217
 3908TIP3    H133283   1.515   3.926   0.588 -0.8510 -0.2677  0.4453
 3908TIP3    H233284   1.529   3.948   0.737  0.4040  0.3555  0.2496
 3909TIP3   OH233285   2.473   2.056   7.739 -0.1945  0.5040 -0.2777
 3909TIP3    H133286   2.562   2.032   7.713 -0.0211  2.2264 -1.4322
 3909TIP3    H233287   2.479   2.148   7.762 -1.6163  0.5559 -0.0233
 3910TIP3   OH233288   2.771   2.773   0.977  0.1586 -0.0041 -0.2519
 3910TIP3    H133289   2.684   2.754   0.942  0.8709 -0.8030 -1.6659
 3910TIP3    H233290   2.794   2.858   0.941  0.1640 -0.0096 -0.2616
 3911TIP3   OH233291   2.173   3.573   1.762  0.1115 -0.1662 -0.0961
 3911TIP3    H133292   2.239   3.607   1.822 -0.2962 -0.5404  0.5727
 3911TIP3    H233293   2.103   3.638   1.763 -0.3171 -0.6250  0.5756
 3912TIP3   OH233294   5.596   0.046   7.124 -0.5149  0.5055 -0.4197
 3912TIP3    H133295   5.573   0.120   7.180 -0.7173 -0.7406  1.2029
 3912TIP3    H233296   5.681   0.069   7.087 -0.2905  1.2780  0.5423
 3913TIP3   OH233297   2.582   4.961   7.662 -0.1553  0.1484  0.4468
 3913TIP3    H133298   2.670   4.931   7.684  0.2349  0.5506 -0.4877
 3913TIP3    H233299   2.579   5.052   7.691  0.1603  0.5000 -0.5794
 3914TIP3   OH233300   6.524   3.315   8.459 -0.0015  0.1361  0.1113
 3914TIP3    H133301   6.545   3.303   8.367 -1.5396  0.9616 -0.3758
 3914TIP3    H233302   6.431   3.297   8.465  0.0616  0.1589  1.5105
 3915TIP3   OH233303   4.653   5.322   7.316  0.3973 -1.4092 -0.3343
 3915TIP3    H133304   4.646   5.368   7.233 -2.5631 -2.8558 -1.0202
 3915TIP3    H233305   4.746   5.327   7.339  1.1406 -0.1464 -3.2245
 3916TIP3   OH233306   3.949   6.672   7.037  0.6647 -0.2848 -0.0174
 3916TIP3    H133307   3.938   6.649   7.130  2.1843  0.0108  0.2590
 3916TIP3    H233308   3.918   6.763   7.032  2.9912  0.6338  0.8015
 3917TIP3   OH233309   0.577   4.273   7.150  0.2585  0.5222 -0.6206
 3917TIP3    H133310   0.626   4.352   7.129  0.7267  0.8744  1.5308
 3917TIP3    H233311   0.637   4.221   7.204 -0.5956 -0.5606 -0.6658
 3918TIP3   OH233312   4.780   4.906   0.593 -0.0512  0.3582  0.6660
 3918TIP3    H133313   4.767   4.914   0.499  3.2811  1.6815  0.1927
 3918TIP3    H233314   4.833   4.826   0.603  0.1661  0.5781  1.3425
 3919TIP3   OH233315   6.527   1.318   0.160 -0.6008 -0.0295 -0.6568
 3919TIP3    H133316   6.516   1.401   0.207  0.6846  0.0828 -0.5317
 3919TIP3    H233317   6.438   1.282   0.154 -1.0979  1.0837 -0.2244
 3920TIP3   OH233318   4.822   3.922   7.584  0.6998  0.5344 -0.1718
 3920TIP3    H133319   4.742   3.914   7.635 -0.8886 -0.3295 -2.6143
 3920TIP3    H233320   4.866   3.999   7.621 -1.1075  0.8858  1.4316
 3921TIP3   OH233321   0.298   2.428   8.740  0.1406 -0.8846 -0.0239
 3921TIP3    H133322   0.243   2.364   8.695 -0.6030  0.2243 -0.7221
 3921TIP3    H233323   0.263   2.513   8.715  2.0654 -0.1326 -0.3713
 3922TIP3   OH233324   0.032   4.892   8.701  0.3503  0.5213 -0.5727
 3922TIP3    H133325   0.078   4.824   8.653 -1.8841 -1.2513 -0.3699
 3922TIP3    H233326  -0.031   4.927   8.637 -1.4106 -0.6158  0.4553
 3923TIP3   OH233327   4.602   1.864   7.078 -0.5654 -0.0668 -0.4888
 3923TIP3    H133328   4.681   1.828   7.116 -0.5225  0.8162  0.3006
 3923TIP3    H233329   4.582   1.807   7.004  1.1440  0.0477 -1.0821
 3924TIP3   OH233330   4.529   3.945   0.399  0.4256  0.4202 -0.3328
 3924TIP3    H133331   4.512   3.905   0.314  1.6297  0.7920 -0.7650
 3924TIP3    H233332   4.480   4.027   0.398  0.0103  0.1729 -0.4506
 3925TIP3   OH233333   5.933   4.981   8.316  0.6172 -0.2885  0.2174
 3925TIP3    H133334   6.003   5.024   8.266  0.3512  0.6479  0.6144
 3925TIP3    H233335   5.977   4.908   8.360  1.5855  0.7906  1.1505
 3926TIP3   OH233336   6.163   0.445   7.098 -0.2663 -0.0910  0.6216
 3926TIP3    H133337   6.228   0.391   7.144 -1.0441 -1.1277  0.5578
 3926TIP3    H233338   6.120   0.384   7.039 -1.6475  0.4456  1.0324
 3927TIP3   OH233339   4.662   1.950   0.547  0.3236 -0.2705  0.4642
 3927TIP3    H133340   4.673   2.013   0.477 -3.2318  1.8048  1.5104
 3927TIP3    H233341   4.615   1.877   0.507 -1.8889  1.0039  0.5963
 3928TIP3   OH233342   1.746   5.451   8.626  0.1557  0.0511 -0.0878
 3928TIP3    H133343   1.755   5.380   8.562 -0.9393  1.5212 -1.9677
 3928TIP3    H233344   1.833   5.491   8.630 -0.2673  1.3044 -2.3720
 3929TIP3   OH233345   4.016   2.324   8.391 -0.9970 -0.6747  0.8862
 3929TIP3    H133346   4.111   2.329   8.380 -1.0258 -0.0228  0.8763
 3929TIP3    H233347   3.995   2.398   8.448 -1.7173  0.3500 -0.6483
 3930TIP3   OH233348   1.307   3.578   6.195  0.8999  0.7528 -0.4237
 3930TIP3    H133349   1.385   3.605   6.146  1.0161  0.2463 -0.5262
 3930TIP3    H233350   1.256   3.658   6.205  0.7472  0.8147 -1.5988
 3931TIP3   OH233351   1.490   6.213   1.628 -0.1848  0.2093  0.2383
 3931TIP3    H133352   1.424   6.152   1.660 -0.6236  0.6076  0.1017
 3931TIP3    H233353   1.566   6.199   1.684 -0.4124 -0.1988  0.4424
 3932TIP3   OH233354   4.014   4.085   1.182 -0.0477  0.0468  0.4868
 3932TIP3    H133355   3.971   4.106   1.265  1.1085  0.0090  1.1215
 3932TIP3    H233356   4.059   4.002   1.198  0.2589  0.0826 -0.1402
 3933TIP3   OH233357   5.422   0.922   2.174 -0.6341  0.1535  0.5764
 3933TIP3    H133358   5.365   0.999   2.174 -0.2686  0.4378 -0.2529
 3933TIP3    H233359   5.486   0.941   2.242  0.5349  1.4487 -0.7932
 3934TIP3   OH233360   5.888   5.936   7.889 -0.2708  0.0562 -0.2051
 3934TIP3    H133361   5.880   5.842   7.901 -1.2113  0.2752  1.0859
 3934TIP3    H233362   5.968   5.960   7.937  0.5796 -0.2026 -1.4365
 3935TIP3   OH233363   6.051   4.690   8.195  0.0564  0.1318  0.2075
 3935TIP3    H133364   6.027   4.727   8.280 -0.0510  1.1456 -0.2469
 3935TIP3    H233365   6.107   4.615   8.216 -0.0170  0.3340  1.1695
 3936TIP3   OH233366   5.245   6.576   0.255 -0.8129  0.1335 -0.5528
 3936TIP3    H133367   5.254   6.653   0.199  0.3649 -0.3381 -1.0658
 3936TIP3    H233368   5.244   6.610   0.344 -3.6252  0.9822 -0.8173
 3937TIP3   OH233369   1.312   1.375   6.248  0.5580 -0.1658  0.0557
 3937TIP3    H133370   1.300   1.454   6.300  2.2228 -0.8161  1.5325
 3937TIP3    H233371   1.255   1.310   6.289 -1.0172  0.2498 -1.3198
 3938TIP3   OH233372   2.693   3.987   7.261 -0.6322  0.1742  0.0255
 3938TIP3    H133373   2.599   4.001   7.243 -1.1948 -1.7525  1.2059
 3938TIP3    H233374   2.721   3.924   7.195 -0.1249  0.8215 -0.3846
 3939TIP3   OH233375   6.651   4.097   7.038  1.2525 -0.2976  0.1100
 3939TIP3    H133376   6.667   4.169   6.977 -2.1186  1.6487  1.2491
 3939TIP3    H233377   6.629   4.022   6.983  0.5039  0.7931 -1.1059
 3940TIP3   OH233378   0.762   1.917   8.576 -0.7151  0.5282 -0.4529
 3940TIP3    H133379   0.851   1.938   8.547  0.2788  0.5685  2.2703
 3940TIP3    H233380   0.710   1.913   8.496  1.9349 -0.4750 -2.2531
 3941TIP3   OH233381   2.100   1.665   0.804  0.0837 -0.0816 -0.5002
 3941TIP3    H133382   2.029   1.662   0.740 -0.3924  1.3250 -0.0592
 3941TIP3    H233383   2.180   1.668   0.751 -0.1339 -1.7266 -0.9990
 3942TIP3   OH233384   6.323   1.344   0.850 -0.1267 -0.4150  0.4093
 3942TIP3    H133385   6.349   1.318   0.761 -0.1121 -0.9883  0.5837
 3942TIP3    H233386   6.406   1.366   0.893 -0.2130  0.8511 -0.0253
 3943TIP3   OH233387   0.540   6.492   0.980  0.1634  0.1484 -0.0574
 3943TIP3    H133388   0.531   6.579   0.942 -0.6794  1.0144  1.9489
 3943TIP3    H233389   0.479   6.492   1.054 -0.5003 -2.4698 -0.5058
 3944TIP3   OH233390   4.678   6.380   7.866 -0.0209  0.0233 -0.2766
 3944TIP3    H133391   4.588   6.354   7.848 -0.7233  2.7938 -1.1738
 3944TIP3    H233392   4.727   6.352   7.789 -0.4840  0.1947 -0.6383
 3945TIP3   OH233393   6.196   3.509   1.519  0.2889 -0.5384  0.1210
 3945TIP3    H133394   6.224   3.537   1.432 -1.1381 -2.0016 -0.8698
 3945TIP3    H233395   6.232   3.421   1.529  0.2666 -0.4668  0.9380
 3946TIP3   OH233396   0.397   3.710   8.811 -0.2824  0.3780 -0.1005
 3946TIP3    H133397   0.491   3.703   8.791 -0.2474 -0.7096  0.3970
 3946TIP3    H233398   0.357   3.736   8.728  0.0340 -2.6626 -1.3284
 3947TIP3   OH233399   6.416   0.049   7.924  0.7382 -0.0687  0.3634
 3947TIP3    H133400   6.427  -0.045   7.910  1.5060 -0.0266  0.6302
 3947TIP3    H233401   6.321   0.063   7.921  0.5711 -0.9601  1.0267
 3948TIP3   OH233402   6.271   0.303   6.710  0.1949  0.7879 -0.0153
 3948TIP3    H133403   6.212   0.315   6.784 -1.1528  0.8936 -1.0835
 3948TIP3    H233404   6.296   0.210   6.715  0.3211  0.8537  0.7086
 3949TIP3   OH233405   1.312   0.159   7.459  0.1961 -0.2054 -0.3451
 3949TIP3    H133406   1.343   0.202   7.380  1.0697 -0.8717 -0.3826
 3949TIP3    H233407   1.386   0.106   7.488  0.2494  0.7808  1.4788
 3950TIP3   OH233408   6.226   5.164   7.823  0.0630  0.2030  0.4297
 3950TIP3    H133409   6.184   5.242   7.860 -0.3341 -0.5272  1.5988
 3950TIP3    H233410   6.165   5.133   7.757 -0.8705 -0.3347  1.4951
 3951TIP3   OH233411   2.924   1.103   7.204  0.6033 -0.4310 -0.2903
 3951TIP3    H133412   2.877   1.020   7.214  0.0065  0.0797  1.4110
 3951TIP3    H233413   2.858   1.170   7.219  0.7985  0.4327 -2.8560
 3952TIP3   OH233414   4.854   1.513   8.064  0.2896  0.3669 -0.0536
 3952TIP3    H133415   4.834   1.470   7.981 -1.1062  0.1114  0.4002
 3952TIP3    H233416   4.792   1.585   8.070 -0.1285 -0.0660  1.1061
 3953TIP3   OH233417   6.332   6.130   0.991  0.0494 -0.1473  0.0968
 3953TIP3    H133418   6.413   6.080   0.985  0.8591  1.2745 -1.6814
 3953TIP3    H233419   6.263   6.066   0.969  0.7628 -1.1011  0.5370
 3954TIP3   OH233420   5.029   5.946   0.979  0.0521 -0.2424  0.0314
 3954TIP3    H133421   5.115   5.961   1.018  0.2344 -0.5920 -0.2264
 3954TIP3    H233422   5.043   5.876   0.915 -0.3435 -0.0337 -0.2944
 3955TIP3   OH233423   0.967   3.608   7.356  0.3801  0.1166  0.6812
 3955TIP3    H133424   0.884   3.575   7.391  0.3003  0.9510  1.3172
 3955TIP3    H233425   0.942   3.688   7.309  0.5901 -0.5873 -0.6786
 3956TIP3   OH233426   0.578   2.557   0.949  0.4945  0.1324  0.0748
 3956TIP3    H133427   0.524   2.602   0.883  0.2939  0.1011  0.2163
 3956TIP3    H233428   0.519   2.546   1.024  0.5956 -0.2154  0.1015
 3957TIP3   OH233429   6.658   3.456   0.124 -0.3239 -0.5067 -0.2886
 3957TIP3    H133430   6.586   3.417   0.074 -1.8580 -0.9667  2.0921
 3957TIP3    H233431   6.634   3.442   0.216  1.7803  1.2476  0.6353
 3958TIP3   OH233432   2.970   4.997   0.793  0.2587 -0.1959  0.1251
 3958TIP3    H133433   3.003   4.999   0.883  0.8721 -1.5722 -0.0344
 3958TIP3    H233434   2.891   5.050   0.795  0.3411 -0.0923  1.4480
 3959TIP3   OH233435   4.715   3.293   0.735  0.2922 -0.7569 -0.4419
 3959TIP3    H133436   4.716   3.197   0.727  1.3833 -0.6829 -1.3827
 3959TIP3    H233437   4.683   3.309   0.824  0.6686 -2.0067 -0.0616
 3960TIP3   OH233438   5.141   1.310   8.508 -0.9242  0.0975 -0.0611
 3960TIP3    H133439   5.100   1.370   8.445 -1.5751  0.7195  0.9212
 3960TIP3    H233440   5.228   1.348   8.523 -0.7732 -0.0451 -0.5726
 3961TIP3   OH233441   2.820   5.473   1.379 -0.2531  0.5954  0.0464
 3961TIP3    H133442   2.890   5.534   1.354 -0.2019  0.2661 -0.6394
 3961TIP3    H233443   2.849   5.388   1.344 -0.7918  0.3696  0.1408
 3962TIP3   OH233444   5.473   1.143   7.796 -0.4481 -0.8014  0.0895
 3962TIP3    H133445   5.474   1.049   7.811  0.9264 -0.4609  2.6508
 3962TIP3    H233446   5.512   1.154   7.709  0.2700 -2.5489  0.1548
 3963TIP3   OH233447   5.364   5.923   7.991 -0.4977 -0.2775 -0.1144
 3963TIP3    H133448   5.433   5.988   8.001  0.4275 -1.3759  1.0190
 3963TIP3    H233449   5.283   5.971   8.008  0.0618  0.7954 -0.3700
 3964TIP3   OH233450   0.838   1.392   8.320  0.0693  0.4443 -0.4367
 3964TIP3    H133451   0.891   1.313   8.330 -1.6084 -0.9021 -1.6049
 3964TIP3    H233452   0.887   1.446   8.257  1.6795  0.8284  1.0466
 3965TIP3   OH233453   0.790   4.404   8.513  0.1124  0.2086 -0.4408
 3965TIP3    H133454   0.838   4.363   8.441  0.7384 -0.7560  0.4992
 3965TIP3    H233455   0.858   4.451   8.562 -0.1727  0.1620 -0.0020
 3966TIP3   OH233456   6.462   0.498   8.003  0.0577 -0.1947 -0.2453
 3966TIP3    H133457   6.536   0.542   8.045  0.0889 -0.0261 -0.4750
 3966TIP3    H233458   6.430   0.437   8.069  0.3928 -0.2576 -0.1367
 3967TIP3   OH233459   1.055   1.456   0.604 -0.7376  0.6139  0.2482
 3967TIP3    H133460   0.993   1.528   0.615  0.5745  1.9155 -0.5493
 3967TIP3    H233461   1.108   1.458   0.684  0.8122  2.1180 -0.7354
 3968TIP3   OH233462   2.491   0.455   0.359  0.4602  0.4846 -0.0169
 3968TIP3    H133463   2.490   0.497   0.273 -0.0744  3.5305  1.3494
 3968TIP3    H233464   2.445   0.372   0.346 -0.2501  1.1865 -2.5003
 3969TIP3   OH233465   2.015   0.011   1.161 -0.7448 -0.1273  0.5256
 3969TIP3    H133466   1.989   0.103   1.169 -3.1680 -0.2774 -3.1872
 3969TIP3    H233467   2.094   0.013   1.107 -0.4306 -0.2576  0.9691
 3970TIP3   OH233468   0.154   6.295   6.314  0.2430 -0.2796 -0.6246
 3970TIP3    H133469   0.147   6.372   6.257 -2.0969  0.6710  0.7721
 3970TIP3    H233470   0.242   6.300   6.351  0.9306  0.4270 -2.2561
 3971TIP3   OH233471   5.224   4.775   7.068 -0.0256 -0.2156 -0.2626
 3971TIP3    H133472   5.248   4.776   7.161 -0.3614 -0.9864 -0.1525
 3971TIP3    H233473   5.153   4.839   7.060  2.0127  2.1337 -0.6010
 3972TIP3   OH233474   3.412   2.016   1.268  0.0710  0.2312  0.1430
 3972TIP3    H133475   3.422   2.020   1.173  0.9905  0.3452  0.2281
 3972TIP3    H233476   3.497   2.046   1.302  1.2218 -3.5025  1.0043
 3973TIP3   OH233477   2.285   1.813   7.349 -0.2895  0.2656  0.0390
 3973TIP3    H133478   2.271   1.865   7.428 -0.6760 -0.5156  0.4888
 3973TIP3    H233479   2.279   1.877   7.277 -0.5600  0.8738  0.5959
 3974TIP3   OH233480   2.653   1.560   6.496 -0.1440  0.5309  0.5117
 3974TIP3    H133481   2.594   1.633   6.515  0.4387  0.9140  0.8695
 3974TIP3    H233482   2.595   1.485   6.486 -1.1175  1.5894 -3.1842
 3975TIP3   OH233483   2.359   1.616   8.024  0.2109 -0.1783  0.0597
 3975TIP3    H133484   2.418   1.690   8.008 -0.2745 -0.0635 -1.3696
 3975TIP3    H233485   2.279   1.656   8.058  0.6644 -0.2638  1.2738
 3976TIP3   OH233486   5.567   4.912   1.989 -0.1171  0.1098  0.6375
 3976TIP3    H133487   5.547   4.825   1.954  0.1165  0.7232 -1.1216
 3976TIP3    H233488   5.553   4.971   1.916  1.9865  1.2882  1.0957
 3977TIP3   OH233489   6.593   5.750   0.566  0.2106  0.7264 -0.0613
 3977TIP3    H133490   6.657   5.820   0.552  2.0694 -0.8796 -0.0269
 3977TIP3    H233491   6.534   5.756   0.490  0.6862  1.9455 -0.3557
 3978TIP3   OH233492   2.447   0.527   0.092 -0.7722 -0.1507 -0.0045
 3978TIP3    H133493   2.508   0.478   0.037 -0.6131 -0.1803  0.1950
 3978TIP3    H233494   2.377   0.554   0.033 -1.0060 -0.8629 -0.0647
 3979TIP3   OH233495   5.388   5.453   8.144  0.0126  0.4524 -0.0523
 3979TIP3    H133496   5.419   5.379   8.196 -1.1686  1.6775  2.6317
 3979TIP3    H233497   5.341   5.414   8.070  0.3867 -1.4464  0.6707
 3980TIP3   OH233498   0.083   1.461   6.459  0.2803 -0.0402  0.3878
 3980TIP3    H133499   0.024   1.499   6.524 -2.3830 -0.2007 -1.7044
 3980TIP3    H233500   0.034   1.386   6.425  1.1743  0.4717 -2.2416
 3981TIP3   OH233501   3.626   2.513   8.363 -0.6465 -1.0068 -0.5558
 3981TIP3    H133502   3.669   2.536   8.445 -2.7465 -1.4827  0.7489
 3981TIP3    H233503   3.655   2.581   8.301 -0.5980  0.5790  1.1089
 3982TIP3   OH233504   3.273   0.644   7.676  0.2279 -0.0462 -0.5605
 3982TIP3    H133505   3.351   0.696   7.696  0.1426 -0.3075  0.5336
 3982TIP3    H233506   3.307   0.564   7.635  0.4176  0.4978 -1.4841
 3983TIP3   OH233507   4.914   0.167   7.486  0.3354  0.4934 -0.3711
 3983TIP3    H133508   4.856   0.132   7.418  0.0019  2.4853 -1.1730
 3983TIP3    H233509   5.002   0.140   7.459  0.2029  1.2377 -1.5949
 3984TIP3   OH233510   3.443   5.899   7.114  0.1993  0.1861  0.2228
 3984TIP3    H133511   3.490   5.904   7.031  0.7679  0.4129  0.5509
 3984TIP3    H233512   3.494   5.837   7.167 -0.0147  0.2370  0.4883
 3985TIP3   OH233513   2.397   3.826   0.047  0.4691 -0.5718 -0.4303
 3985TIP3    H133514   2.371   3.893  -0.017 -3.7901 -1.8411 -0.3548
 3985TIP3    H233515   2.370   3.862   0.131  3.0578 -0.2923  0.3633
 3986TIP3   OH233516   4.246   2.700   8.055  0.4357 -0.6563  0.0988
 3986TIP3    H133517   4.286   2.736   8.134  1.3163  0.7053 -0.9357
 3986TIP3    H233518   4.290   2.616   8.042 -1.5275 -2.2243  2.4378
 3987TIP3   OH233519   6.469   4.818   0.746 -0.4495 -0.1972 -0.2507
 3987TIP3    H133520   6.380   4.847   0.726  0.6071  2.3340 -1.6853
 3987TIP3    H233521   6.471   4.811   0.841 -2.3025 -0.8343 -0.2215
 3988TIP3   OH233522   6.126   4.680   7.272 -0.3091  0.3250 -0.2076
 3988TIP3    H133523   6.197   4.725   7.319 -0.0464  0.4244 -0.6977
 3988TIP3    H233524   6.093   4.746   7.211  0.4563 -0.3069 -1.3410
 3989TIP3   OH233525   5.459   2.649   6.235  0.2367 -0.7722  0.5913
 3989TIP3    H133526   5.377   2.601   6.240  0.0926 -0.6076 -0.1560
 3989TIP3    H233527   5.445   2.726   6.290 -0.3119 -0.4510  0.0104
 3990TIP3   OH233528   4.176   2.795   0.894  0.2899 -0.2247 -0.3606
 3990TIP3    H133529   4.206   2.774   0.805 -0.7595 -1.0679 -0.5365
 3990TIP3    H233530   4.100   2.851   0.881  0.5742  0.2683  0.0394
 3991TIP3   OH233531   3.263   2.236   0.709 -0.0155 -0.3058 -0.0073
 3991TIP3    H133532   3.190   2.250   0.769  1.1634 -0.7170  1.5838
 3991TIP3    H233533   3.225   2.252   0.622 -1.9242 -0.2986  0.7651
 3992TIP3   OH233534   2.618   1.038   7.960 -0.7042 -0.4783  0.0491
 3992TIP3    H133535   2.651   1.125   7.936 -1.4491 -0.2521 -0.1837
 3992TIP3    H233536   2.687   1.002   8.017 -0.3991  0.2771  0.1841
 3993TIP3   OH233537   6.481   3.213   6.923  0.1002  0.0177 -0.4951
 3993TIP3    H133538   6.406   3.230   6.980 -0.2975  0.8677 -1.2543
 3993TIP3    H233539   6.479   3.284   6.859 -1.1357 -2.3393 -3.2995
 3994TIP3   OH233540   1.465   2.113   8.583 -0.0660  0.2741 -0.6694
 3994TIP3    H133541   1.433   2.041   8.637  0.2002 -0.7636 -1.8386
 3994TIP3    H233542   1.477   2.186   8.644 -0.9421 -0.4757  0.4369
 3995TIP3   OH233543   2.184   6.012   0.413  0.1842  0.3101  0.4810
 3995TIP3    H133544   2.195   5.952   0.487 -2.3138 -0.6450  0.1608
 3995TIP3    H233545   2.222   5.965   0.339  1.1444  0.5424  0.8074
 3996TIP3   OH233546   4.730   3.002   0.380 -0.0091  0.1773  0.2745
 3996TIP3    H133547   4.812   2.963   0.410  0.6528  0.2645 -1.2880
 3996TIP3    H233548   4.716   2.964   0.293 -1.6263  0.1920  0.4838
 3997TIP3   OH233549   1.983   5.437   0.874  0.2770  0.0816 -0.3044
 3997TIP3    H133550   2.015   5.347   0.873  0.1406  0.0234 -1.4241
 3997TIP3    H233551   1.921   5.440   0.801 -0.9192  0.6663  0.7063
 3998TIP3   OH233552   5.064   6.455   8.299 -0.5297 -0.3959  0.7392
 3998TIP3    H133553   5.146   6.431   8.342 -0.7445  0.5290  1.6948
 3998TIP3    H233554   5.074   6.423   8.209  0.7763 -0.5116  0.9074
 3999TIP3   OH233555   5.569   1.621   1.358  0.1594 -0.6399 -0.6922
 3999TIP3    H133556   5.655   1.586   1.382  0.0620 -0.1365  0.4617
 3999TIP3    H233557   5.514   1.605   1.434 -0.9457 -1.4542 -1.6191
 4000TIP3   OH233558   1.557   3.129   0.440  0.0546  0.6149 -0.1313
 4000TIP3    H133559   1.647   3.111   0.469 -0.0550  0.2616 -0.0075
 4000TIP3    H233560   1.568   3.190   0.367  0.4926 -0.6695 -1.1625
 4001TIP3   OH233561   0.376   6.205   8.093  0.0600  0.2627  0.0893
 4001TIP3    H133562   0.288   6.240   8.109 -0.1949 -0.2097 -0.2804
 4001TIP3    H233563   0.369   6.159   8.009  0.8293  0.7945 -0.2738
 4002TIP3   OH233564   2.059   0.775   6.484 -0.5759 -0.4874  0.5400
 4002TIP3    H133565   2.024   0.723   6.412 -1.1520  0.5025  0.0738
 4002TIP3    H233566   2.138   0.729   6.512 -0.4828 -1.0162 -0.5675
 4003TIP3   OH233567   5.206   2.661   0.497 -0.1175 -0.3677 -0.2767
 4003TIP3    H133568   5.161   2.648   0.414  2.6470  1.6021 -2.2310
 4003TIP3    H233569   5.292   2.694   0.474  0.8631  0.1468  3.3998
 4004TIP3   OH233570   1.245   0.544   7.553 -0.2553 -0.0287 -0.4492
 4004TIP3    H133571   1.220   0.626   7.595 -0.3456  1.4717 -3.2159
 4004TIP3    H233572   1.329   0.521   7.593 -0.8213  0.6862  1.2507
 4005TIP3   OH233573   5.233   2.128   6.873  0.1483  0.0403  0.4856
 4005TIP3    H133574   5.321   2.126   6.836 -0.3223 -0.7619 -0.6523
 4005TIP3    H233575   5.196   2.211   6.843  0.1069 -0.1680 -0.0486
 4006TIP3   OH233576   5.331   5.933   7.498  0.4259 -0.0441  0.1697
 4006TIP3    H133577   5.317   5.879   7.420 -3.4314  1.7661 -0.6487
 4006TIP3    H233578   5.261   5.908   7.558  1.7599  0.4238  2.0179
 4007TIP3   OH233579   2.052   2.138   8.406  0.0558  0.3720  0.1298
 4007TIP3    H133580   2.034   2.117   8.315 -0.0067 -0.0558  0.2393
 4007TIP3    H233581   2.118   2.207   8.402 -0.8160  1.2172 -0.2569
 4008TIP3   OH233582   4.150   5.023   8.191 -0.6200 -0.1793 -0.6236
 4008TIP3    H133583   4.080   5.002   8.130 -0.0447 -3.1207 -0.4215
 4008TIP3    H233584   4.215   5.070   8.138 -1.7414  0.6631 -1.3049
 4009TIP3   OH233585   0.263   0.582   8.497 -0.2155  0.2987  0.2443
 4009TIP3    H133586   0.209   0.658   8.522 -1.6174 -0.5428 -0.0785
 4009TIP3    H233587   0.273   0.591   8.402 -0.3286  0.1346  0.2151
 4010TIP3   OH233588   6.159   3.163   0.199 -0.1046 -0.5469  0.3477
 4010TIP3    H133589   6.068   3.192   0.186 -0.2131 -0.5527  1.0527
 4010TIP3    H233590   6.167   3.085   0.145  0.2681  0.9025 -1.8103
 4011TIP3   OH233591   5.854   1.232   7.892  0.2769 -0.1047  0.6679
 4011TIP3    H133592   5.795   1.200   7.962  0.9189 -1.3947  0.6595
 4011TIP3    H233593   5.842   1.169   7.821  0.5455  0.5011  0.0761
 4012TIP3   OH233594   3.304   0.724   1.955 -0.2360  0.0131  0.6898
 4012TIP3    H133595   3.304   0.643   1.903 -0.0070  0.0565  0.6204
 4012TIP3    H233596   3.212   0.741   1.974 -0.2206 -0.8097  1.5645
 4013TIP3   OH233597   5.729   5.747   7.709  0.2154 -0.7859 -0.1908
 4013TIP3    H133598   5.751   5.835   7.679 -0.0305 -0.4823  0.5198
 4013TIP3    H233599   5.665   5.715   7.644  1.0729 -0.8490 -1.0329
 4014TIP3   OH233600   1.200   2.197   7.760  0.0176 -0.6934 -0.3223
 4014TIP3    H133601   1.113   2.158   7.759  0.0743 -0.8074 -1.1544
 4014TIP3    H233602   1.260   2.123   7.760  0.1158 -0.6140 -0.2992
 4015TIP3   OH233603   0.236   1.138   7.621  0.4354 -0.4261  0.2259
 4015TIP3    H133604   0.152   1.183   7.615  0.5274 -0.3545 -0.6139
 4015TIP3    H233605   0.235   1.097   7.707  0.1469  0.7740  0.8199
 4016TIP3   OH233606   4.720   1.427   1.944 -0.7324 -0.6445  0.1812
 4016TIP3    H133607   4.804   1.388   1.969 -0.1188  0.1997 -0.5008
 4016TIP3    H233608   4.689   1.372   1.872 -0.2293 -0.3424 -0.2823
 4017TIP3   OH233609   0.286   3.632   1.578  0.5885  0.1923 -0.0233
 4017TIP3    H133610   0.375   3.664   1.562  0.0959  2.2175  0.9813
 4017TIP3    H233611   0.287   3.601   1.668 -0.2137  2.3911  0.8331
 4018TIP3   OH233612   4.934   6.564   8.541  0.7689 -0.6264 -0.0045
 4018TIP3    H133613   4.872   6.494   8.561 -1.1654  1.2593  1.0130
 4018TIP3    H233614   4.973   6.539   8.457  0.1666 -2.8801  0.3206
 4019TIP3   OH233615   5.193   4.666   8.796 -0.0201  0.6292 -0.1746
 4019TIP3    H133616   5.274   4.686   8.748  0.8061  0.0766  0.9366
 4019TIP3    H233617   5.222   4.647   8.885 -1.3857  0.4075  0.2468
 4020TIP3   OH233618   4.806   4.268   1.260 -0.8115 -0.3166 -0.5036
 4020TIP3    H133619   4.738   4.203   1.240 -0.2464 -0.4301 -2.2545
 4020TIP3    H233620   4.829   4.305   1.174  0.6947  0.3770  0.1661
 4021TIP3   OH233621   5.734   3.487   6.479 -0.4292  0.2471 -0.1892
 4021TIP3    H133622   5.669   3.556   6.493 -1.3953 -0.6426 -0.1588
 4021TIP3    H233623   5.729   3.468   6.385 -0.3056  0.0863 -0.1637
 4022TIP3   OH233624   1.305   5.241   7.339 -0.6551 -0.1459  0.1625
 4022TIP3    H133625   1.395   5.264   7.315 -0.6179 -0.3800  0.0771
 4022TIP3    H233626   1.310   5.221   7.432 -0.8633  1.0933  0.4596
 4023TIP3   OH233627   0.918   1.259   0.902  0.1270 -0.1394  0.1281
 4023TIP3    H133628   0.986   1.224   0.845  0.5713  0.6275  0.1748
 4023TIP3    H233629   0.955   1.252   0.990  0.4312  0.9084  0.0906
 4024TIP3   OH233630   3.192   3.362   1.385 -0.1818 -0.1165 -0.6653
 4024TIP3    H133631   3.116   3.353   1.329  0.4685 -1.5378 -1.3798
 4024TIP3    H233632   3.171   3.309   1.462  0.3594 -1.1359 -1.1992
 4025TIP3   OH233633   5.933   1.770   8.243  0.2027 -0.6546  0.6865
 4025TIP3    H133634   5.926   1.760   8.337 -0.1093  0.6166  0.8219
 4025TIP3    H233635   5.916   1.683   8.208 -2.2382 -0.6813  1.6999
 4026TIP3   OH233636   2.962   1.540   7.095 -0.2068 -0.0561  0.1233
 4026TIP3    H133637   3.004   1.467   7.050 -0.7074 -1.2895  1.5405
 4026TIP3    H233638   2.939   1.602   7.026  0.0658 -1.3289 -1.1573
 4027TIP3   OH233639   5.830   2.341   7.170  0.0323  0.5352 -0.2477
 4027TIP3    H133640   5.863   2.383   7.090 -0.7657 -0.1430 -0.9482
 4027TIP3    H233641   5.849   2.404   7.240  2.0497  0.5341 -0.7299
 4028TIP3   OH233642   4.550   0.762   8.601 -0.3312  0.1522 -0.4218
 4028TIP3    H133643   4.502   0.799   8.527 -0.6515  0.3225 -0.1313
 4028TIP3    H233644   4.482   0.726   8.657 -0.0738 -0.1583 -0.3076
 4029TIP3   OH233645   6.680   0.918   1.692 -0.0131 -0.0134 -0.1724
 4029TIP3    H133646   6.658   0.836   1.736  0.2252  0.3445  0.6274
 4029TIP3    H233647   6.597   0.966   1.688  0.1094  0.2606  0.5438
 4030TIP3   OH233648   1.084   4.781   7.555  0.3122 -0.2748 -0.3094
 4030TIP3    H133649   0.999   4.740   7.539 -0.8016  2.0383 -0.7770
 4030TIP3    H233650   1.063   4.870   7.584  2.5667  0.7274 -1.4556
 4031TIP3   OH233651   0.323   4.874   8.141  0.5594 -0.4186  0.2353
 4031TIP3    H133652   0.343   4.961   8.176 -0.9157 -0.2772  0.8067
 4031TIP3    H233653   0.393   4.857   8.078 -0.1058  1.9958 -1.3045
 4032TIP3   OH233654   2.656   4.237   1.684  0.2550  0.5534  0.1223
 4032TIP3    H133655   2.693   4.170   1.741  0.5775 -0.5544 -1.3225
 4032TIP3    H233656   2.586   4.277   1.735 -0.3065 -1.2697  0.8234
 4033TIP3   OH233657   2.969   4.967   2.111  0.2733 -0.0946 -0.4889
 4033TIP3    H133658   3.019   4.954   2.030 -1.2400  0.0058 -1.4742
 4033TIP3    H233659   2.968   4.881   2.153  1.4230 -0.0527 -0.3412
 4034TIP3   OH233660   2.601   4.772   7.190 -0.2638  0.2090  0.1258
 4034TIP3    H133661   2.581   4.830   7.263 -0.2158 -1.3685  1.4712
 4034TIP3    H233662   2.591   4.684   7.227  1.1092 -0.6413 -1.4097
 4035TIP3   OH233663   3.569   1.283   8.421 -0.3304 -0.1274 -0.0879
 4035TIP3    H133664   3.624   1.206   8.436 -0.1921 -0.2076 -0.9672
 4035TIP3    H233665   3.520   1.262   8.342  0.5052  1.1229 -0.9797
 4036TIP3   OH233666   0.712   1.919   1.177  0.1616  0.2869  0.0693
 4036TIP3    H133667   0.632   1.878   1.211  1.3524 -1.3630  1.0773
 4036TIP3    H233668   0.724   1.997   1.231 -1.8644  1.7914 -1.5126
 4037TIP3   OH233669   1.500   4.498   1.384 -0.3464  0.3005  0.4766
 4037TIP3    H133670   1.425   4.538   1.429  0.9002  1.1969  1.8420
 4037TIP3    H233671   1.547   4.571   1.345 -0.3995 -0.3096 -0.7757
 4038TIP3   OH233672   3.591   5.660   8.242  0.0715  0.0958 -0.5125
 4038TIP3    H133673   3.531   5.650   8.316  1.9279  2.5284  1.5288
 4038TIP3    H233674   3.539   5.703   8.174 -1.2546 -0.6571 -0.0051
 4039TIP3   OH233675   1.070   0.605   8.619 -0.2310  0.4932  0.0452
 4039TIP3    H133676   1.037   0.529   8.667 -0.3631  0.2537 -0.4257
 4039TIP3    H233677   1.019   0.679   8.654 -1.4337  0.0946 -0.8260
 4040TIP3   OH233678   3.577   5.960   0.945  0.5349 -0.5028 -0.0095
 4040TIP3    H133679   3.592   5.903   0.870 -0.4732 -2.0692  0.9242
 4040TIP3    H233680   3.621   5.916   1.018 -0.4086 -0.1843  0.7688
 4041TIP3   OH233681   5.847   0.197   7.874 -0.1076  0.2456 -0.0731
 4041TIP3    H133682   5.796   0.172   7.950 -0.3684 -0.6404 -0.5220
 4041TIP3    H233683   5.813   0.283   7.849 -0.8629 -0.0062  0.0741
 4042TIP3   OH233684   3.538   5.368   6.128  0.1101 -0.5179 -0.1220
 4042TIP3    H133685   3.561   5.452   6.088  1.1675 -1.4258 -1.5461
 4042TIP3    H233686   3.609   5.349   6.188  0.4274 -0.8770 -0.6024
 4043TIP3   OH233687   3.212   2.593   6.674  0.6591  0.1928 -0.0556
 4043TIP3    H133688   3.127   2.631   6.700  0.3447 -0.3622 -0.2564
 4043TIP3    H233689   3.235   2.641   6.594  0.4111  0.1816 -0.1380
 4044TIP3   OH233690   3.377   5.326   6.837 -0.3489  0.6856 -0.0303
 4044TIP3    H133691   3.290   5.317   6.876  0.0790  0.7408  0.9785
 4044TIP3    H233692   3.417   5.398   6.886 -0.1832  1.5053 -1.3394
 4045TIP3   OH233693   5.784   2.719   1.466  0.0359  0.0038  0.1496
 4045TIP3    H133694   5.717   2.708   1.398 -0.8980  1.4808  0.7931
 4045TIP3    H233695   5.734   2.727   1.548  1.1056 -0.9287  0.9210
 4046TIP3   OH233696   2.414   4.492   2.001 -0.3585 -0.0984  0.1938
 4046TIP3    H133697   2.422   4.439   1.922 -0.7569 -0.1815  0.2066
 4046TIP3    H233698   2.393   4.429   2.070  0.8675 -0.1482  0.5428
 4047TIP3   OH233699   1.759   0.928   8.273 -0.5887  0.1367  0.4638
 4047TIP3    H133700   1.791   0.995   8.333 -1.1987  2.0594 -1.2819
 4047TIP3    H233701   1.681   0.893   8.317 -0.6793  1.0645  1.0730
 4048TIP3   OH233702   0.622   2.128   8.193  0.1081 -0.2225 -0.2262
 4048TIP3    H133703   0.527   2.136   8.187  0.0892 -1.2655 -2.1524
 4048TIP3    H233704   0.656   2.199   8.139  0.3424 -1.0115 -1.1584
 4049TIP3   OH233705   6.246   6.576   8.517  0.1497  0.5279  0.3136
 4049TIP3    H133706   6.205   6.598   8.433 -1.2693 -0.7881  0.6070
 4049TIP3    H233707   6.213   6.488   8.537  2.3644 -0.2096  1.0886
 4050TIP3   OH233708   6.493   0.576   6.539 -0.2023  0.6454  0.1854
 4050TIP3    H133709   6.563   0.608   6.481 -0.7235  1.2694 -0.1213
 4050TIP3    H233710   6.475   0.488   6.508  0.5061  0.4418  0.3255
 4051TIP3   OH233711   2.065   5.968   2.210 -0.2717  0.5348 -0.1331
 4051TIP3    H133712   2.082   5.886   2.258  0.4130  1.2739  0.9417
 4051TIP3    H233713   2.009   6.018   2.269  1.6651  2.0161  0.5483
 4052TIP3   OH233714   5.527   4.693   0.521 -0.0398 -0.5346  0.0463
 4052TIP3    H133715   5.475   4.614   0.536  1.1258 -1.1969  0.7914
 4052TIP3    H233716   5.571   4.677   0.437 -0.3094 -0.3968 -0.1195
 4053TIP3   OH233717   2.226   2.134   6.687  0.1177  0.0135 -0.0414
 4053TIP3    H133718   2.249   2.058   6.633  2.7562  0.5648  0.1573
 4053TIP3    H233719   2.262   2.209   6.640 -3.3926  1.4069 -0.7947
 4054TIP3   OH233720   0.587   0.395   0.015  0.3922 -0.0056 -0.2624
 4054TIP3    H133721   0.537   0.379   0.095  1.2277 -1.2810  0.0345
 4054TIP3    H233722   0.529   0.448  -0.040  0.2293  1.8877  1.6232
 4055TIP3   OH233723   5.181   5.675   8.038 -0.0259 -0.1490 -0.1709
 4055TIP3    H133724   5.256   5.624   8.070  0.3860  0.6896  0.2366
 4055TIP3    H233725   5.218   5.736   7.974  0.0081  1.5949  1.4227
 4056TIP3   OH233726   1.253   1.556   0.363 -0.4633  0.0310  0.1596
 4056TIP3    H133727   1.229   1.545   0.455  0.6722  0.3012  0.5124
 4056TIP3    H233728   1.174   1.589   0.321 -1.3699 -1.2773  0.7726
 4057TIP3   OH233729   3.410   6.765   0.066 -0.3210 -0.3987  0.3151
 4057TIP3    H133730   3.422   6.687   0.121  0.4610 -0.6277 -0.1609
 4057TIP3    H233731   3.451   6.836   0.116 -0.8522 -0.3274  0.6564
 4058TIP3   OH233732   0.865   4.965   8.685 -0.9720  0.3909  0.2872
 4058TIP3    H133733   0.855   4.947   8.591  2.7461  1.3572 -0.4788
 4058TIP3    H233734   0.844   4.882   8.727 -1.7015 -0.3914 -1.4911
 4059TIP3   OH233735   6.580   6.092   0.839 -0.1090  0.4179  0.4889
 4059TIP3    H133736   6.668   6.127   0.852 -1.0265  3.2737 -0.2292
 4059TIP3    H233737   6.577   6.014   0.894  3.4899 -1.0119 -1.0877
 4060TIP3   OH233738   5.181   4.756   1.981  0.0006 -0.0501  0.5718
 4060TIP3    H133739   5.261   4.732   1.935 -0.4111  0.8388 -0.6612
 4060TIP3    H233740   5.203   4.837   2.028 -0.8429  1.7670 -1.9508
 4061TIP3   OH233741   6.634   1.727   1.023 -0.4062  0.2366 -0.2384
 4061TIP3    H133742   6.678   1.647   0.995 -1.1229 -1.0060  1.9588
 4061TIP3    H233743   6.661   1.792   0.959  0.7783 -1.5779 -1.6996
 4062TIP3   OH233744   2.883   0.241   7.882  0.1634  0.3117 -0.3490
 4062TIP3    H133745   2.908   0.254   7.790 -0.0870 -0.0323 -0.4677
 4062TIP3    H233746   2.859   0.148   7.888 -0.4554  0.4787 -0.0955
 4063TIP3   OH233747   2.602   1.162   0.243  0.3655  0.2336  0.4221
 4063TIP3    H133748   2.564   1.101   0.307  0.0777  0.4382  0.4514
 4063TIP3    H233749   2.649   1.226   0.296  0.5987  0.0855  0.3959
 4064TIP3   OH233750   4.131   5.481   6.919  0.0693 -0.0453 -0.6088
 4064TIP3    H133751   4.145   5.474   6.825 -2.4096  0.8309 -1.1109
 4064TIP3    H233752   4.160   5.569   6.942  1.4663 -0.5521 -0.3627
 4065TIP3   OH233753   6.184   2.687   8.404 -0.2758 -0.0148 -0.5856
 4065TIP3    H133754   6.125   2.678   8.329 -1.5111 -1.2298  0.5007
 4065TIP3    H233755   6.132   2.729   8.472  0.3107 -0.4846  0.1754
 4066TIP3   OH233756   3.785   3.446   1.835 -0.1694 -0.6045  0.3847
 4066TIP3    H133757   3.804   3.393   1.758 -0.4244  0.0179 -0.1136
 4066TIP3    H233758   3.872   3.465   1.873  0.1963  1.1849 -1.1854
 4067TIP3   OH233759   1.687   4.552   0.554 -0.5069  0.1651  0.1141
 4067TIP3    H133760   1.638   4.615   0.501  0.3313  1.2648  0.6019
 4067TIP3    H233761   1.766   4.535   0.504  0.1903  1.0456  0.8800
 4068TIP3   OH233762   6.468   5.416   8.635  0.2347 -0.0049  0.6257
 4068TIP3    H133763   6.446   5.323   8.633 -0.8046  0.2262  0.6596
 4068TIP3    H233764   6.502   5.435   8.548 -0.9101 -0.1212  0.1343
 4069TIP3   OH233765   2.925   6.488   1.714  0.7013 -0.5286  0.9066
 4069TIP3    H133766   2.907   6.536   1.794 -1.1620 -0.6710  0.6023
 4069TIP3    H233767   2.988   6.421   1.740 -1.6187 -2.1292  2.8495
 4070TIP3   OH233768   4.104   2.147   8.679 -0.7812  0.1165 -0.8798
 4070TIP3    H133769   4.071   2.212   8.741 -0.8033 -0.6577 -0.0667
 4070TIP3    H233770   4.029   2.129   8.622 -1.6087 -1.1027  0.5163
 4071TIP3   OH233771   6.052   0.748   0.925  0.4800  0.0267  0.4284
 4071TIP3    H133772   6.003   0.792   0.855  1.1810 -1.2889 -0.9571
 4071TIP3    H233773   5.985   0.727   0.991 -0.0532  2.0355  0.5796
 4072TIP3   OH233774   6.783   0.796   0.765 -0.4085 -0.1461 -0.0109
 4072TIP3    H133775   6.871   0.766   0.743 -0.4302 -0.0267 -0.2604
 4072TIP3    H233776   6.761   0.859   0.697  0.4534  2.0557  1.6479
 4073TIP3   OH233777   4.717   0.253   7.803 -0.3322  0.4131  0.2160
 4073TIP3    H133778   4.745   0.334   7.846 -2.3040  0.6467  1.1793
 4073TIP3    H233779   4.780   0.187   7.832  0.7209  1.3966  0.2082
 4074TIP3   OH233780   1.971   6.499   0.412  0.0468  0.4180  0.0480
 4074TIP3    H133781   2.019   6.572   0.452  1.0375  1.6469 -3.1213
 4074TIP3    H233782   2.019   6.421   0.440  1.1958  1.2656  0.5176
 4075TIP3   OH233783   3.618   4.605   6.902  0.3986  0.1977  0.0561
 4075TIP3    H133784   3.680   4.602   6.828 -1.6638 -1.3665 -1.7641
 4075TIP3    H233785   3.533   4.617   6.860 -1.0633 -2.4825  1.9988
 4076TIP3   OH233786   1.058   5.575   1.461  1.0604  0.6476  0.1987
 4076TIP3    H133787   1.009   5.533   1.389 -0.0282  1.4626  0.4277
 4076TIP3    H233788   1.128   5.622   1.417 -0.3002  2.1297 -0.5005
 4077TIP3   OH233789   2.237   5.350   0.356  0.0039  0.1309 -0.2434
 4077TIP3    H133790   2.240   5.255   0.368 -1.0010  0.1715  0.4468
 4077TIP3    H233791   2.177   5.381   0.424 -0.3871  1.1624 -1.0305
 4078TIP3   OH233792   0.783   5.883   0.341 -0.1427  0.5109  0.2231
 4078TIP3    H133793   0.835   5.809   0.372 -0.4528  0.4935  0.7058
 4078TIP3    H233794   0.773   5.868   0.247 -0.6629 -0.3447  0.4046
 4079TIP3   OH233795   4.011   3.089   6.809  0.8365  0.3508 -0.1559
 4079TIP3    H133796   3.917   3.110   6.806  0.8034  0.5883  1.6333
 4079TIP3    H233797   4.040   3.096   6.718 -0.4169  2.3885 -0.4509
 4080TIP3   OH233798   3.465   4.277   7.416  0.2311 -0.2985 -0.2316
 4080TIP3    H133799   3.517   4.351   7.386 -0.0058 -0.2203 -0.4539
 4080TIP3    H233800   3.376   4.310   7.421  0.0478 -0.6864 -0.7634
 4081TIP3   OH233801   5.180   2.628   7.157 -0.3276  0.2866 -0.5545
 4081TIP3    H133802   5.147   2.593   7.240 -2.2781 -0.3527 -1.5295
 4081TIP3    H233803   5.147   2.718   7.154  1.2503  0.9325  0.1107
 4082TIP3   OH233804   4.939   1.155   1.287 -0.4846  0.2609  0.0590
 4082TIP3    H133805   4.987   1.084   1.329 -1.7717 -0.4798  0.3576
 4082TIP3    H233806   4.978   1.235   1.323 -1.3717 -0.3321  2.6038
 4083TIP3   OH233807   3.287   4.513   0.178 -0.2348  0.0980  0.0667
 4083TIP3    H133808   3.336   4.500   0.096 -1.6845  0.8866 -0.9819
 4083TIP3    H233809   3.292   4.428   0.222  1.1679 -0.1469 -0.4875
 4084TIP3   OH233810   3.578   5.642   6.079 -0.2126  0.0244  0.0337
 4084TIP3    H133811   3.649   5.700   6.052  0.2834 -0.3693  0.4914
 4084TIP3    H233812   3.499   5.683   6.042  0.1678  0.8076  0.0612
 4085TIP3   OH233813   1.756   2.421   8.478 -0.2815 -0.1535 -0.0425
 4085TIP3    H133814   1.662   2.439   8.479 -0.3107 -0.2901 -0.3651
 4085TIP3    H233815   1.790   2.474   8.406  0.0395  0.6334  0.6700
 4086TIP3   OH233816   5.307   4.887   1.011 -0.5302 -0.1157  0.2273
 4086TIP3    H133817   5.346   4.829   0.946 -0.1504 -0.4088  0.7079
 4086TIP3    H233818   5.252   4.947   0.960  1.4967  1.1139 -0.6379
 4087TIP3   OH233819   5.539   5.863   1.944 -0.7551 -0.1618  0.6890
 4087TIP3    H133820   5.613   5.923   1.954 -1.0830  0.3935 -0.0478
 4087TIP3    H233821   5.579   5.776   1.935 -0.1309  0.2185 -0.4467
 4088TIP3   OH233822   1.811   4.259   1.237  0.1219 -0.0508  0.3231
 4088TIP3    H133823   1.871   4.219   1.300  0.7407  1.6172  0.8307
 4088TIP3    H233824   1.794   4.346   1.272 -2.4836 -0.3975  0.0928
 4089TIP3   OH233825   2.023   5.734   1.702  0.3046  0.2768  0.2872
 4089TIP3    H133826   1.945   5.687   1.672  0.3543  0.5038 -0.1965
 4089TIP3    H233827   2.025   5.814   1.649 -0.1816  1.1859  1.5815
 4090TIP3   OH233828   0.271   3.822   1.314  0.5693 -0.0172 -0.2403
 4090TIP3    H133829   0.266   3.777   1.230 -0.4240 -0.3521 -0.0135
 4090TIP3    H233830   0.251   3.755   1.379  2.5777 -0.0575  0.3797
 4091TIP3   OH233831   4.705   0.778   6.425 -0.3528 -0.1919  0.5104
 4091TIP3    H133832   4.693   0.865   6.463 -0.3227 -0.3780  0.9490
 4091TIP3    H233833   4.616   0.746   6.407 -0.3459  0.8067 -1.7063
 4092TIP3   OH233834   3.444   1.420   6.672 -0.4804 -0.4037  0.3243
 4092TIP3    H133835   3.415   1.427   6.581 -0.1852  1.8176  0.3536
 4092TIP3    H233836   3.371   1.456   6.723 -0.1584 -0.5190  0.8764
 4093TIP3   OH233837   6.472   6.534   2.201  0.4574  0.5245  0.8433
 4093TIP3    H133838   6.464   6.627   2.179 -1.4315 -0.0830 -1.3698
 4093TIP3    H233839   6.383   6.506   2.222  0.5846 -1.2477 -0.7153
 4094TIP3   OH233840   3.761   1.722   0.389 -0.2767 -0.0850 -0.0491
 4094TIP3    H133841   3.739   1.733   0.481  0.6349  1.9865 -0.0282
 4094TIP3    H233842   3.696   1.774   0.342  1.1982  1.5870 -0.3238
 4095TIP3   OH233843   2.919   6.741   0.439 -0.0035 -0.0422 -0.0433
 4095TIP3    H133844   2.935   6.769   0.529  1.7814 -1.1547  0.0238
 4095TIP3    H233845   2.903   6.823   0.392  1.2546  0.7716  0.8720
 4096TIP3   OH233846   3.923   6.622   7.327  0.5845 -0.3415  0.4490
 4096TIP3    H133847   3.987   6.613   7.397 -0.2272 -0.1991  1.2190
 4096TIP3    H233848   3.844   6.581   7.361 -0.0937  0.5487 -0.0138
 4097TIP3   OH233849   4.435   4.214   7.115  1.0245 -0.1627 -0.2030
 4097TIP3    H133850   4.523   4.177   7.114  0.7539 -0.8199 -1.0965
 4097TIP3    H233851   4.444   4.299   7.073  1.4906  0.4465  1.0742
 4098TIP3   OH233852   1.738   1.570   1.902  0.3685 -0.0228 -0.5571
 4098TIP3    H133853   1.693   1.651   1.879  0.7327  0.7347  1.2029
 4098TIP3    H233854   1.669   1.506   1.914 -0.0333  0.4120 -0.5329
 4099TIP3   OH233855   0.311   0.842   7.716 -0.4223  0.1227  0.1279
 4099TIP3    H133856   0.349   0.924   7.747 -1.4638  0.6244  0.1311
 4099TIP3    H233857   0.358   0.774   7.763  2.0862  0.5488 -1.5298
 4100TIP3   OH233858   4.248   1.803   6.770  0.3549 -0.6603 -0.3264
 4100TIP3    H133859   4.287   1.870   6.713  0.0679 -0.1281  0.0966
 4100TIP3    H233860   4.154   1.812   6.756  0.2204  0.1485  0.9585
 4101TIP3   OH233861   4.104   6.563   8.222 -0.4346 -0.1992  0.0532
 4101TIP3    H133862   4.077   6.475   8.250  1.1416 -0.5379  0.6413
 4101TIP3    H233863   4.158   6.595   8.294 -0.6905  1.1265 -0.3225
 4102TIP3   OH233864   2.327   5.405   1.002 -0.4437 -0.0280  0.1931
 4102TIP3    H133865   2.299   5.314   0.989 -1.0606  0.4664 -2.4284
 4102TIP3    H233866   2.252   5.448   1.043 -0.3277 -0.5587  0.9859
 4103TIP3   OH233867   3.375   1.740   6.608 -0.2100  0.0541  0.5221
 4103TIP3    H133868   3.321   1.805   6.563  0.4899  0.3038  0.0184
 4103TIP3    H233869   3.372   1.663   6.551 -1.8871 -0.7516  1.6295
 4104TIP3   OH233870   5.976   5.584   8.573  1.0302 -0.2077  0.2348
 4104TIP3    H133871   5.921   5.517   8.533  0.7188 -0.4181  1.0018
 4104TIP3    H233872   5.964   5.661   8.518 -0.6995  0.0046  0.8715
 4105TIP3   OH233873   5.361   0.460   1.618 -0.2615  0.1403 -0.4441
 4105TIP3    H133874   5.353   0.491   1.708 -2.9327 -1.4669 -0.0151
 4105TIP3    H233875   5.455   0.451   1.603  0.2246 -0.9527  2.6872
 4106TIP3   OH233876   2.868   3.565   6.821 -0.3813 -0.4842 -0.0814
 4106TIP3    H133877   2.928   3.526   6.885 -0.6553 -1.2019 -0.2577
 4106TIP3    H233878   2.805   3.613   6.874  0.9493  1.1941  0.0760
 4107TIP3   OH233879   5.450   4.704   1.873 -0.0748 -0.4452  0.6209
 4107TIP3    H133880   5.488   4.624   1.909 -0.8315 -2.4204 -2.5420
 4107TIP3    H233881   5.485   4.709   1.784 -3.1486  0.4374 -0.6705
 4108TIP3   OH233882   3.634   5.141   0.963  0.2495  0.4519  0.4346
 4108TIP3    H133883   3.543   5.155   0.936  0.1152  2.0951  1.5823
 4108TIP3    H233884   3.679   5.113   0.883 -1.1498  0.0763 -0.2533
 4109TIP3   OH233885   2.068   5.917   0.883  0.1747 -0.7727  0.1942
 4109TIP3    H133886   2.155   5.900   0.919  0.6145  1.4608  0.3737
 4109TIP3    H233887   2.076   6.004   0.843 -2.5516  0.5576  2.2172
 4110TIP3   OH233888   5.928   4.817   7.117 -0.0604 -0.1102  0.0438
 4110TIP3    H133889   5.984   4.885   7.154 -0.1777 -0.0942  0.1896
 4110TIP3    H233890   5.964   4.802   7.030 -0.0962  0.2051 -0.0242
 4111TIP3   OH233891   1.687   1.730   1.373  0.1394 -0.8188 -0.1409
 4111TIP3    H133892   1.653   1.719   1.462  2.7781  0.5056  1.1294
 4111TIP3    H233893   1.760   1.669   1.367 -0.2698 -1.2102 -1.5956
 4112TIP3   OH233894   4.769   3.307   1.020  0.2721 -0.3190  0.4427
 4112TIP3    H133895   4.771   3.371   1.090 -2.5548  0.6467 -0.2067
 4112TIP3    H233896   4.835   3.336   0.957  1.0589  0.2356  1.5027
 4113TIP3   OH233897   1.108   4.415   8.365 -0.3292  0.4552  0.1944
 4113TIP3    H133898   1.183   4.401   8.308 -1.5557  0.2789 -1.4497
 4113TIP3    H233899   1.093   4.510   8.362 -0.9017  0.3487 -0.4660
 4114TIP3   OH233900   5.659   2.477   6.222 -0.0581 -0.5690  0.1997
 4114TIP3    H133901   5.634   2.403   6.167 -0.3660 -2.0611  2.2390
 4114TIP3    H233902   5.582   2.533   6.223 -1.4024 -2.3097  1.8627
 4115TIP3   OH233903   4.753   0.437   7.172  0.0065  0.2469 -0.6719
 4115TIP3    H133904   4.704   0.519   7.161  2.5168  1.6744 -1.9729
 4115TIP3    H233905   4.719   0.401   7.254 -2.9519  1.2368 -1.3160
 4116TIP3   OH233906   5.995   1.487   8.163  0.5039 -0.0341 -0.0754
 4116TIP3    H133907   5.957   1.400   8.178  3.1210 -0.8091  3.5256
 4116TIP3    H233908   5.941   1.525   8.095 -0.8134 -4.4454 -1.8866
 4117TIP3   OH233909   5.508   0.136   0.481 -0.1955  0.7707  0.3289
 4117TIP3    H133910   5.571   0.081   0.432  0.3631  1.9043 -0.2720
 4117TIP3    H233911   5.557   0.165   0.558  0.6508  3.0017 -0.9622
 4118TIP3   OH233912   5.063   4.037   8.259 -0.2976 -0.3989  0.1514
 4118TIP3    H133913   5.025   3.985   8.330 -0.6812  0.9107  0.9602
 4118TIP3    H233914   5.123   3.978   8.214  1.4187 -0.7904  2.7485
 4119TIP3   OH233915   4.939   6.084   8.313  0.2052  0.3924  0.6558
 4119TIP3    H133916   4.887   6.054   8.239  0.7043  0.8481  0.1034
 4119TIP3    H233917   5.017   6.124   8.273 -0.0423  1.6518  1.3738
 4120TIP3   OH233918   1.204   1.549   6.507 -0.2943  0.2939  0.0239
 4120TIP3    H133919   1.231   1.629   6.553  0.6059  0.9696 -1.5765
 4120TIP3    H233920   1.130   1.516   6.558  0.9995  0.6333  2.2649
 4121TIP3   OH233921   0.367   5.723   7.474 -0.2292 -0.2547 -0.3265
 4121TIP3    H133922   0.370   5.752   7.566 -0.8790 -1.6082  0.1523
 4121TIP3    H233923   0.278   5.690   7.463  0.1629 -1.0934 -1.1152
 4122TIP3   OH233924   2.975   4.304   8.126 -0.3995 -0.1943  0.1345
 4122TIP3    H133925   3.047   4.339   8.179  0.0363  0.0541 -0.6108
 4122TIP3    H233926   3.005   4.218   8.098  0.1273  0.3676 -1.1366
 4123TIP3   OH233927   1.465   2.343   7.220  0.0773 -0.0351 -0.6086
 4123TIP3    H133928   1.509   2.276   7.168  0.5507 -1.5926  1.6688
 4123TIP3    H233929   1.373   2.318   7.221  0.1647 -0.3520 -0.2261
 4124TIP3   OH233930   1.874   0.327   7.926 -0.3959  0.3420  0.4068
 4124TIP3    H133931   1.800   0.379   7.957 -0.0408  1.3388 -0.3488
 4124TIP3    H233932   1.946   0.390   7.920  0.7718 -0.7637  1.9425
 4125TIP3   OH233933   6.257   5.235   0.061 -0.2673 -0.1875 -0.3884
 4125TIP3    H133934   6.230   5.313   0.109 -1.6540 -1.3489  0.8120
 4125TIP3    H233935   6.181   5.215   0.005  1.3401  1.2202 -3.3540
 4126TIP3   OH233936   4.759   3.359   1.986 -0.1120 -0.6436  0.1732
 4126TIP3    H133937   4.717   3.403   2.060  1.2634  2.2924 -0.6392
 4126TIP3    H233938   4.832   3.416   1.963  0.7109 -2.5056 -2.2082
 4127TIP3   OH233939   4.564   1.368   2.179 -0.0589  0.0926  0.1555
 4127TIP3    H133940   4.614   1.399   2.104 -0.8046  0.2887 -0.2673
 4127TIP3    H233941   4.503   1.304   2.142 -0.7940  0.5821  0.5047
 4128TIP3   OH233942   5.315   2.389   0.067 -0.3265 -0.0490 -0.9173
 4128TIP3    H133943   5.398   2.342   0.068 -1.6245 -2.4804  0.1969
 4128TIP3    H233944   5.298   2.405  -0.026  1.0224 -0.1972 -1.2021
 4129TIP3   OH233945   1.206   6.090   0.797 -0.5345 -0.3423 -0.4862
 4129TIP3    H133946   1.206   6.167   0.852 -1.6630 -0.4222 -0.3577
 4129TIP3    H233947   1.280   6.038   0.828 -0.9182 -0.2044  0.6870
 4130TIP3   OH233948   3.813   3.577   7.944  0.0729  0.3341 -0.6850
 4130TIP3    H133949   3.762   3.508   7.903  1.0351 -0.5301 -0.4685
 4130TIP3    H233950   3.873   3.607   7.875  1.0287 -0.4510 -0.2163
 4131TIP3   OH233951   3.299   0.886   0.322  0.0731  0.4914  0.0361
 4131TIP3    H133952   3.259   0.800   0.335  1.4906 -0.2341 -0.2119
 4131TIP3    H233953   3.311   0.921   0.410 -0.7763  0.5654  0.1246
 4132TIP3   OH233954   5.008   2.703   2.213 -0.0175  0.3365  0.3158
 4132TIP3    H133955   5.009   2.608   2.200  0.4558  0.1761  1.3626
 4132TIP3    H233956   5.049   2.715   2.299 -1.8185  1.3571  1.0762
 4133TIP3   OH233957   4.859   6.006   8.701  0.5508  0.2825 -0.4103
 4133TIP3    H133958   4.897   6.079   8.651  0.9307  0.7914  0.5846
 4133TIP3    H233959   4.933   5.947   8.716  0.7533  0.7602  0.6207
 4134TIP3   OH233960   5.728   0.425   7.790 -0.2429 -0.3645 -0.0164
 4134TIP3    H133961   5.721   0.467   7.876 -0.4438 -0.0396 -0.1901
 4134TIP3    H233962   5.642   0.437   7.750 -0.1427 -0.4968 -0.2725
 4135TIP3   OH233963   4.516   1.470   0.037  0.2047 -0.1730 -0.1256
 4135TIP3    H133964   4.548   1.475   0.127  0.1275  0.3199 -0.1206
 4135TIP3    H233965   4.509   1.376   0.019  0.0357 -0.2782  0.4499
 4136TIP3   OH233966   1.151   2.146   8.216 -0.0673 -0.2880  0.3513
 4136TIP3    H133967   1.071   2.101   8.190  0.8018 -1.2365 -0.7827
 4136TIP3    H233968   1.221   2.098   8.172  1.0292  1.2299  0.3517
 4137TIP3   OH233969   0.168   2.043   0.620 -0.1496  0.1678 -0.0484
 4137TIP3    H133970   0.154   2.039   0.526 -0.7778 -2.5569  0.0724
 4137TIP3    H233971   0.246   2.098   0.632  2.7832 -3.0843 -2.5236
 4138TIP3   OH233972   0.034   3.004   0.732  1.1857  0.2041 -0.4430
 4138TIP3    H133973  -0.005   3.065   0.670  0.1401  0.1549  0.1389
 4138TIP3    H233974   0.094   3.058   0.784 -0.1285  0.8722  0.4230
 4139TIP3   OH233975   2.229   0.891   0.591  0.6317 -0.4071 -0.3169
 4139TIP3    H133976   2.147   0.871   0.634 -0.5231  0.1151 -2.1559
 4139TIP3    H233977   2.245   0.816   0.533  0.2649  0.4528 -1.5853
 4140TIP3   OH233978   3.945   5.369   8.771  0.3414 -0.6248 -0.4437
 4140TIP3    H133979   3.986   5.285   8.752  0.8674 -0.4070 -0.2994
 4140TIP3    H233980   3.894   5.389   8.693  0.3049 -1.0244 -0.5235
 4141TIP3   OH233981   2.341   4.335   0.845  0.0373  0.2116 -0.0803
 4141TIP3    H133982   2.351   4.366   0.935 -0.5204 -1.4572  0.6061
 4141TIP3    H233983   2.331   4.415   0.793 -1.8324  1.2089  1.6317
 4142TIP3   OH233984   4.626   6.653   7.824 -0.0411  0.2091  0.2234
 4142TIP3    H133985   4.568   6.677   7.751  1.9997  0.6129 -1.3557
 4142TIP3    H233986   4.626   6.557   7.823 -0.0380  0.2096 -0.3077
 4143TIP3   OH233987   0.740   0.877   7.935 -0.4238  0.2085 -0.0080
 4143TIP3    H133988   0.658   0.885   7.985 -0.4630  1.2572 -0.2166
 4143TIP3    H233989   0.714   0.892   7.844  0.0443  0.9461 -0.0343
 4144TIP3   OH233990   4.686   6.367   8.151  0.4989  0.0871  1.1288
 4144TIP3    H133991   4.680   6.367   8.055 -0.4914  0.6924  1.1771
 4144TIP3    H233992   4.603   6.329   8.180  0.5730  0.3925  1.7534
 4145TIP3   OH233993   2.444   5.103   8.327  0.3130  0.4358 -0.2799
 4145TIP3    H133994   2.539   5.108   8.320  0.4601  0.3688  1.2307
 4145TIP3    H233995   2.425   5.133   8.416 -0.9360 -1.1291  0.0278
 4146TIP3   OH233996   2.402   5.213   0.691  0.1572 -0.0779  0.1069
 4146TIP3    H133997   2.359   5.269   0.626 -0.2218 -0.2103  0.2441
 4146TIP3    H233998   2.470   5.167   0.641  1.0138  1.0886  0.1484
 4147TIP3   OH233999   6.382   3.659   7.455 -0.5029 -0.1315  0.0734
 4147TIP3    H134000   6.393   3.587   7.392 -1.2590 -1.9377  1.9055
 4147TIP3    H234001   6.418   3.625   7.537 -0.6994  1.6851  0.9601
 4148TIP3   OH234002   4.433   5.515   0.072 -0.2727 -0.1571 -0.4221
 4148TIP3    H134003   4.499   5.460   0.116  0.8277 -0.8266 -2.7437
 4148TIP3    H234004   4.374   5.452   0.030 -0.8076  0.4486 -0.5789
 4149TIP3   OH234005   5.697   5.318   7.337  0.2980 -0.2117 -0.1173
 4149TIP3    H134006   5.749   5.366   7.273  0.9367  1.1947  1.4080
 4149TIP3    H234007   5.609   5.353   7.327  0.1559 -0.7392 -0.8930
 4150TIP3   OH234008   3.962   4.687   1.605 -0.7432  0.3627 -0.4514
 4150TIP3    H134009   4.005   4.772   1.615 -0.3014  0.5838 -3.3496
 4150TIP3    H234010   3.887   4.691   1.664  0.0555  2.1768  0.5417
 4151TIP3   OH234011   2.483   2.789   6.523  0.1724  0.1798 -0.8218
 4151TIP3    H134012   2.414   2.855   6.511 -0.2194 -0.4237 -2.0887
 4151TIP3    H234013   2.450   2.712   6.476  1.2512 -0.4673 -0.5463
 4152TIP3   OH234014   5.492   0.499   0.690 -0.3007  0.0704 -0.5512
 4152TIP3    H134015   5.404   0.483   0.723 -0.8729  2.5662 -0.6604
 4152TIP3    H234016   5.486   0.484   0.596  0.0627 -2.1425 -0.2683
 4153TIP3   OH234017   0.634   2.931   6.710 -0.2746  0.3979  0.6259
 4153TIP3    H134018   0.647   3.007   6.766 -0.0600  0.9671 -0.1713
 4153TIP3    H234019   0.720   2.917   6.668 -0.2086 -0.5055  1.0256
 4154TIP3   OH234020   4.773   4.862   0.325  0.4477 -0.3421 -0.0002
 4154TIP3    H134021   4.802   4.773   0.307  0.0869 -0.5382  0.3735
 4154TIP3    H234022   4.742   4.894   0.240  1.8791 -0.0682 -0.4388
 4155TIP3   OH234023   2.807   2.481   1.716  0.4113 -0.2950 -0.2997
 4155TIP3    H134024   2.814   2.472   1.621 -3.7752 -1.7544 -0.6644
 4155TIP3    H234025   2.759   2.563   1.729 -0.1382 -0.7300  0.5016
 4156TIP3   OH234026   5.665   1.056   0.529 -0.1750 -0.8862 -0.3041
 4156TIP3    H134027   5.618   0.974   0.543 -1.4907  0.2144  2.6261
 4156TIP3    H234028   5.638   1.112   0.601  0.7108  2.1506 -2.1070
 4157TIP3   OH234029   1.224   4.937   7.348 -0.6347 -0.0099  0.3426
 4157TIP3    H134030   1.194   4.887   7.424 -1.6848 -0.1846 -0.1617
 4157TIP3    H234031   1.316   4.953   7.364 -0.7788 -0.2909  1.5205
 4158TIP3   OH234032   1.073   4.067   7.897  0.0444 -0.3420 -0.2107
 4158TIP3    H134033   1.081   3.978   7.861  1.3210 -0.5242  0.4646
 4158TIP3    H234034   1.123   4.122   7.837 -1.4952  0.1122 -1.1423
 4159TIP3   OH234035   1.216   1.976   0.048 -0.7315  0.1802  0.3171
 4159TIP3    H134036   1.161   1.911   0.005  0.4984 -1.1640  0.6839
 4159TIP3    H234037   1.189   2.060   0.010 -2.4930 -0.5049 -0.0289
 4160TIP3   OH234038   3.746   5.706   8.614  0.1477  0.2374 -0.0207
 4160TIP3    H134039   3.705   5.768   8.554  2.8693  1.1626 -1.0556
 4160TIP3    H234040   3.803   5.760   8.669  1.4130 -1.1355  0.0873
 4161TIP3   OH234041   2.906   1.000   7.926  0.0622  0.4257  0.0485
 4161TIP3    H134042   2.885   0.984   8.018  1.3321  0.1512  0.3122
 4161TIP3    H234043   2.993   1.041   7.927  0.2157  0.1817 -1.0336
 4162TIP3   OH234044   3.202   0.060   7.243 -0.1632  0.6701 -0.2740
 4162TIP3    H134045   3.240  -0.028   7.246 -0.3438  0.5600 -0.9757
 4162TIP3    H234046   3.136   0.060   7.312  0.5939  0.6209  0.4644
 4163TIP3   OH234047   4.743   6.051   0.094 -0.9462  0.5077  0.5308
 4163TIP3    H134048   4.802   6.029   0.022 -1.2598  0.4222  0.3011
 4163TIP3    H234049   4.670   5.990   0.086 -2.0527  1.8815 -0.3910
 4164TIP3   OH234050   0.815   4.661   2.189 -0.0001  0.1830  0.5699
 4164TIP3    H134051   0.815   4.757   2.191  0.0678  0.2609 -1.2366
 4164TIP3    H234052   0.901   4.638   2.152 -0.5430 -0.4959 -0.3241
 4165TIP3   OH234053   0.711   3.917   8.073  0.3817 -0.0226  0.0888
 4165TIP3    H134054   0.791   3.879   8.110  2.3278  1.1670 -2.5812
 4165TIP3    H234055   0.645   3.903   8.140  2.5083 -2.1996  1.9171
 4166TIP3   OH234056   2.867   0.151   0.223  0.2185  0.2378 -0.6998
 4166TIP3    H134057   2.838   0.070   0.180  0.7346 -0.7436  0.7479
 4166TIP3    H234058   2.789   0.205   0.226 -0.1663 -0.2375 -1.5910
 4167TIP3   OH234059   0.344   1.849   0.383  0.3327  0.5998  0.5526
 4167TIP3    H134060   0.260   1.884   0.355 -0.9309 -2.4470  0.0660
 4167TIP3    H234061   0.346   1.864   0.478 -0.8660  0.5797  0.5997
 4168TIP3   OH234062   2.790   0.948   8.180 -0.1853 -0.0388 -0.5666
 4168TIP3    H134063   2.726   0.952   8.250  0.4699 -0.7501  0.0845
 4168TIP3    H234064   2.769   0.868   8.132 -0.4587  0.2996 -1.0212
 4169TIP3   OH234065   0.842   4.947   2.178  0.2983 -0.2314 -0.4260
 4169TIP3    H134066   0.803   5.034   2.172 -1.7508 -1.0460  0.2368
 4169TIP3    H234067   0.914   4.957   2.241  0.1624  0.9851 -0.4431
 4170TIP3   OH234068   0.148   4.527   6.502  0.1076 -0.1560  0.1223
 4170TIP3    H134069   0.228   4.564   6.540 -0.4788  0.4414  0.8137
 4170TIP3    H234070   0.163   4.529   6.408  0.6225  0.6358  0.2079
 4171TIP3   OH234071   2.501   5.144   1.098 -0.3380  0.4804 -0.2691
 4171TIP3    H134072   2.550   5.225   1.107  2.7934 -1.4575  3.0622
 4171TIP3    H234073   2.469   5.125   1.187 -0.1166 -2.2989 -0.6781
 4172TIP3   OH234074   6.216   2.413   8.183  0.2299 -0.1101  0.2027
 4172TIP3    H134075   6.152   2.485   8.178  0.3110  0.0942  1.6821
 4172TIP3    H234076   6.237   2.406   8.276  0.9004 -1.4752 -0.0272
 4173TIP3   OH234077   6.079   1.537   2.646  0.2953 -0.2732 -0.4611
 4173TIP3    H134078   6.131   1.613   2.619 -0.7173  0.2033 -1.1353
 4173TIP3    H234079   6.006   1.574   2.695 -0.3411 -0.7740 -1.0009
 4174TIP3   OH234080   2.848   5.461   1.668 -0.8888 -0.1610  0.5241
 4174TIP3    H134081   2.866   5.411   1.589 -0.2571 -0.5701  0.9111
 4174TIP3    H234082   2.868   5.552   1.644 -0.4839 -0.3121  0.2739
 4175TIP3   OH234083   0.047   4.350   0.667 -0.0655 -0.1663 -0.0548
 4175TIP3    H134084   0.000   4.293   0.606  0.3753 -1.3270  0.6537
 4175TIP3    H234085   0.053   4.434   0.622 -1.4201 -0.4428 -0.8109
 4176TIP3   OH234086   1.683   6.133   8.570  0.0677  0.4243 -0.6790
 4176TIP3    H134087   1.691   6.227   8.587  0.0515  0.3535 -0.2654
 4176TIP3    H234088   1.591   6.122   8.545 -1.0973 -0.0333  3.1496
 4177TIP3   OH234089   6.009   3.258   6.909 -0.3124 -0.0522  0.6305
 4177TIP3    H134090   6.005   3.237   7.002 -1.4020 -0.8653  0.4190
 4177TIP3    H234091   6.045   3.347   6.906 -0.9145  0.2532  1.8647
 4178TIP3   OH234092   5.975   3.897   7.198 -0.2360  0.6305 -0.3930
 4178TIP3    H134093   6.045   3.834   7.215 -0.7196 -0.6589 -2.7097
 4178TIP3    H234094   6.021   3.978   7.175  0.6956 -0.7132 -3.7935
 4179TIP3   OH234095   4.986   3.960   1.289  0.0975 -0.0692  1.0379
 4179TIP3    H134096   4.997   3.867   1.307 -1.9282 -0.5135  0.2299
 4179TIP3    H234097   4.992   3.967   1.193 -0.2153  0.5536  1.0572
 4180TIP3   OH234098   5.095   4.261   1.325 -0.1337 -0.1194  0.2140
 4180TIP3    H134099   4.999   4.254   1.321 -0.4176  1.6724  1.9622
 4180TIP3    H234100   5.123   4.180   1.368 -0.9141 -0.4376  0.1389
 4181TIP3   OH234101   5.038   4.455   0.358 -0.0649 -0.5966 -0.3309
 4181TIP3    H134102   5.052   4.454   0.453  2.7645  0.9307 -0.6208
 4181TIP3    H234103   5.049   4.364   0.331 -0.8381 -1.0358  0.7501
 4182TIP3   OH234104   1.413   6.558   8.507  0.1415  0.3520 -0.7895
 4182TIP3    H134105   1.416   6.467   8.477 -0.2445  0.1974 -0.3811
 4182TIP3    H234106   1.321   6.581   8.506  0.1882  0.5740 -0.4156
 4183TIP3   OH234107   6.247   1.265   8.613  0.6086  0.5387  0.0652
 4183TIP3    H134108   6.276   1.283   8.702 -1.3947  0.5733  0.7717
 4183TIP3    H234109   6.241   1.169   8.609 -0.1891  0.5721  0.2956
 4184TIP3   OH234110   4.893   1.111   7.376 -0.0263  0.2419  0.4067
 4184TIP3    H134111   4.846   1.176   7.428  0.8040  1.1236  0.0774
 4184TIP3    H234112   4.986   1.128   7.393  0.2365 -0.0515 -0.6370
 4185TIP3   OH234113   2.806   1.801   0.913 -0.5484 -0.2908 -0.0309
 4185TIP3    H134114   2.780   1.890   0.890  1.4614  0.1288 -0.8535
 4185TIP3    H234115   2.831   1.760   0.830  3.7915  0.2281  0.7562
 4186TIP3   OH234116   3.966   1.503   6.232  0.0233  0.2370  0.0227
 4186TIP3    H134117   3.957   1.421   6.281 -0.9987  0.0996 -0.3626
 4186TIP3    H234118   3.877   1.538   6.229  0.6590  2.1741  1.5444
 4187TIP3   OH234119   3.958   3.412   7.070  0.2543  0.5961 -0.7463
 4187TIP3    H134120   3.885   3.429   7.010  0.2649  1.0878 -0.6240
 4187TIP3    H234121   3.919   3.366   7.143 -0.7682  4.1773  1.2212
 4188TIP3   OH234122   5.652   0.809   1.003  0.4304 -0.0764  0.2524
 4188TIP3    H134123   5.560   0.789   0.982  0.3958 -1.0250  1.1725
 4188TIP3    H234124   5.647   0.887   1.058  0.2041  0.0530  0.0523
 4189TIP3   OH234125   3.592   0.716   1.905  0.1533  0.0539 -1.0537
 4189TIP3    H134126   3.613   0.799   1.863  1.2931  0.6028  0.5105
 4189TIP3    H234127   3.496   0.711   1.902 -0.0260  1.9986 -0.1453
 4190TIP3   OH234128   0.052   5.259   1.786 -0.3910  0.4617 -0.1477
 4190TIP3    H134129   0.120   5.195   1.808 -0.6419  0.4608  0.6703
 4190TIP3    H234130   0.084   5.302   1.707  0.6415  0.5747  0.3154
 4191TIP3   OH234131   4.674   0.320   7.413 -0.0218 -0.0064  0.0126
 4191TIP3    H134132   4.706   0.286   7.497 -0.5041 -0.2252  0.1129
 4191TIP3    H234133   4.579   0.317   7.421 -0.0780  1.0149 -0.1250
 4192TIP3   OH234134   3.665   0.425   8.459  0.5094  0.0125  0.3664
 4192TIP3    H134135   3.655   0.342   8.506  1.2935 -0.5922 -0.4901
 4192TIP3    H234136   3.576   0.451   8.436  0.3060 -0.9867 -0.0176
 4193TIP3   OH234137   2.069   3.320   0.277 -0.2144 -0.5739  0.4835
 4193TIP3    H134138   2.145   3.359   0.234  0.6172 -2.1472  0.4590
 4193TIP3    H234139   2.025   3.394   0.320  0.4015  0.6133 -0.8554
 4194TIP3   OH234140   0.723   6.525   7.868  0.5004  0.0519 -0.6474
 4194TIP3    H134141   0.716   6.519   7.963  1.2431  3.7975 -0.1905
 4194TIP3    H234142   0.635   6.548   7.839  0.6183  0.5830 -0.6084
 4195TIP3   OH234143   3.960   0.518   5.922  0.1258 -0.2695  0.3173
 4195TIP3    H134144   3.988   0.492   6.010 -2.8248  0.2611  1.5443
 4195TIP3    H234145   3.924   0.606   5.934  0.2374  0.0717 -1.6002
 4196TIP3   OH234146   1.844   3.405   7.780  0.2752 -0.3525 -0.3118
 4196TIP3    H134147   1.762   3.365   7.752  0.9263 -0.3275 -2.4045
 4196TIP3    H234148   1.903   3.394   7.706  1.5122  1.5382  0.3266
 4197TIP3   OH234149   0.156   6.361   7.881  0.2657  0.4703 -0.4935
 4197TIP3    H134150   0.092   6.425   7.914 -1.8239 -1.9558  0.5183
 4197TIP3    H234151   0.135   6.353   7.788 -1.8047 -1.1080  0.0351
 4198TIP3   OH234152   0.538   5.628   6.392 -0.7582 -0.5706 -0.2740
 4198TIP3    H134153   0.604   5.660   6.454 -0.5647  1.0024 -1.2611
 4198TIP3    H234154   0.580   5.635   6.306 -1.9433 -0.2512 -0.8426
 4199TIP3   OH234155   6.745   1.951   2.332  0.0838 -0.3858  0.1131
 4199TIP3    H134156   6.716   2.019   2.393  0.1991 -1.0254  0.8896
 4199TIP3    H234157   6.694   1.874   2.355  1.0478 -1.0018  0.2667
 4200TIP3   OH234158   6.410   0.340   8.218  0.2230  0.4438  0.0000
 4200TIP3    H134159   6.431   0.396   8.293  1.1271  0.7611 -0.4754
 4200TIP3    H234160   6.338   0.285   8.249  3.3207 -2.5560  2.6665
 4201TIP3   OH234161   5.410   3.863   1.409 -0.9871 -0.1521  0.0349
 4201TIP3    H134162   5.498   3.899   1.396 -0.6796 -1.2015 -0.8891
 4201TIP3    H234163   5.407   3.786   1.353 -2.9365  0.5583 -0.9495
 4202TIP3   OH234164   1.396   1.318   1.626  0.1583  0.1539  0.3069
 4202TIP3    H134165   1.436   1.365   1.699  0.0644  1.0754 -0.2308
 4202TIP3    H234166   1.415   1.371   1.549 -3.0378  1.2879  0.1321
 4203TIP3   OH234167   5.138   1.033   0.052 -0.0444 -0.4107 -0.2700
 4203TIP3    H134168   5.194   0.988  -0.011 -0.2715  0.1151 -0.8578
 4203TIP3    H234169   5.187   1.030   0.134 -0.2288 -2.0857 -0.1690
 4204TIP3   OH234170   0.050   6.368   0.852  0.1278 -0.1960  0.2170
 4204TIP3    H134171   0.103   6.377   0.772  0.5103  3.0704  0.6737
 4204TIP3    H234172   0.105   6.318   0.912  0.4448 -1.4134 -1.0379
 4205TIP3   OH234173   1.161   6.375   1.624 -0.1698 -0.1226  0.2556
 4205TIP3    H134174   1.097   6.445   1.625  1.3540  1.3305  0.7028
 4205TIP3    H234175   1.148   6.332   1.539 -2.2694 -0.4401  0.7008
 4206TIP3   OH234176   3.425   2.798   1.396  0.4420 -0.0586  0.2441
 4206TIP3    H134177   3.466   2.713   1.380 -0.4259 -0.4296 -0.0491
 4206TIP3    H234178   3.481   2.840   1.461  1.5985 -0.3243 -0.5430
 4207TIP3   OH234179   5.103   4.080   7.242  0.2522 -0.4901  0.4359
 4207TIP3    H134180   5.162   4.119   7.306  0.3544  0.2555 -0.0992
 4207TIP3    H234181   5.093   4.147   7.174  0.7414 -1.5425 -0.7109
 4208TIP3   OH234182   6.508   0.060   8.179  0.2394 -0.0297  0.3763
 4208TIP3    H134183   6.474   0.147   8.200  1.2645  0.7847 -1.1329
 4208TIP3    H234184   6.485   0.047   8.087  1.9284 -0.4297 -0.0260
 4209TIP3   OH234185   5.471   5.199   8.220  0.0282 -0.5668 -0.2048
 4209TIP3    H134186   5.519   5.120   8.193 -0.1560 -1.2901  1.4675
 4209TIP3    H234187   5.434   5.177   8.305 -0.2202  1.2599  0.2092
 4210TIP3   OH234188   4.460   1.634   1.007  0.0136 -0.5799  0.2264
 4210TIP3    H134189   4.475   1.539   1.007 -0.6748 -0.7034  0.7197
 4210TIP3    H234190   4.396   1.648   0.937  0.4447 -0.4184 -0.1365
 4211TIP3   OH234191   3.180   5.809   8.513 -0.2690 -0.3699  0.0528
 4211TIP3    H134192   3.102   5.764   8.481 -0.5047 -1.0374  1.4839
 4211TIP3    H234193   3.198   5.876   8.447 -0.7575 -1.6179 -1.3990
 4212TIP3   OH234194   4.182   4.179   8.241  0.3593 -0.4852  0.0096
 4212TIP3    H134195   4.151   4.106   8.294  0.8735 -0.8501 -0.1901
 4212TIP3    H234196   4.267   4.202   8.278  0.2379 -0.0406  0.0195
 4213TIP3   OH234197   2.514   2.610   8.430 -0.6492  0.0265 -0.1688
 4213TIP3    H134198   2.464   2.691   8.420 -0.7760  0.0530  0.6618
 4213TIP3    H234199   2.533   2.583   8.340 -1.5353  0.4010 -0.4802
 4214TIP3   OH234200   4.602   1.252   1.710 -0.1053 -0.7046  0.1066
 4214TIP3    H134201   4.516   1.223   1.743 -0.6317  0.6528 -0.0146
 4214TIP3    H234202   4.596   1.347   1.708  1.3161 -0.5995 -0.2015
 4215TIP3   OH234203   0.965   1.991   1.872  0.0885  0.4586  0.4492
 4215TIP3    H134204   1.021   2.066   1.851  2.2566 -1.3434 -0.6569
 4215TIP3    H234205   0.952   1.997   1.967  0.9477  1.7506  0.5170
 4216TIP3   OH234206   6.529   6.223   6.884  0.6992 -0.0106 -0.3968
 4216TIP3    H134207   6.537   6.149   6.945  0.6154  0.2224 -0.0981
 4216TIP3    H234208   6.618   6.242   6.856  0.6502 -0.6835 -1.0315
 4217TIP3   OH234209   2.330   5.931   7.721  0.3936  0.0221  0.0697
 4217TIP3    H134210   2.401   5.944   7.784  1.9893  2.6224 -2.0728
 4217TIP3    H234211   2.250   5.953   7.771  1.5820  1.9768  1.2694
 4218TIP3   OH234212   0.481   1.312   7.680  0.1432 -0.1808 -0.9639
 4218TIP3    H134213   0.546   1.264   7.731  1.2058  0.8524 -1.2906
 4218TIP3    H234214   0.412   1.249   7.663  0.7821 -1.1445 -0.0890
 4219TIP3   OH234215   6.402   2.670   0.549  0.0618 -0.4582  0.2928
 4219TIP3    H134216   6.356   2.742   0.593 -0.3027 -0.0162 -0.7702
 4219TIP3    H234217   6.480   2.711   0.511  0.0057 -0.6756 -0.0633
 4220TIP3   OH234218   0.333   0.734   1.378 -0.4961  0.1615  0.0486
 4220TIP3    H134219   0.418   0.693   1.367 -0.3810  0.1201  1.0047
 4220TIP3    H234220   0.308   0.714   1.468  0.0450  3.0446  0.9483
 4221TIP3   OH234221   5.325   5.708   0.250 -0.3239 -0.5784 -0.1834
 4221TIP3    H134222   5.323   5.785   0.308 -0.4838 -0.4042 -0.4177
 4221TIP3    H234223   5.414   5.674   0.258 -1.0773 -2.2576  2.3903
 4222TIP3   OH234224   2.319   5.855   8.740 -0.6216 -0.7173 -0.3529
 4222TIP3    H134225   2.361   5.913   8.804 -0.4486  0.3000 -1.3536
 4222TIP3    H234226   2.312   5.908   8.661 -2.1625 -1.4679 -0.7577
 4223TIP3   OH234227   5.734   0.583   8.018  0.9703  0.3861 -0.0215
 4223TIP3    H134228   5.820   0.546   7.997  0.8781  0.8429 -1.2664
 4223TIP3    H234229   5.753   0.671   8.051  1.0756 -0.1261  1.3499
 4224TIP3   OH234230   0.984   3.756   8.704  0.1738  0.6291  0.3850
 4224TIP3    H134231   0.950   3.827   8.760 -1.3978  0.1849  0.0419
 4224TIP3    H234232   0.940   3.678   8.736  0.7420  0.0430 -0.2353
 4225TIP3   OH234233   3.166   5.190   6.946 -0.2097  0.3167 -0.4333
 4225TIP3    H134234   3.198   5.102   6.969 -0.3561  0.7810  1.7500
 4225TIP3    H234235   3.105   5.175   6.874 -1.5671 -1.6244  1.0311
 4226TIP3   OH234236   2.658   0.169   7.369 -0.2070  0.2396  0.3865
 4226TIP3    H134237   2.701   0.196   7.450  0.6844  1.4978 -0.4669
 4226TIP3    H234238   2.629   0.080   7.386 -1.5670  1.0158  2.6888
 4227TIP3   OH234239   6.206   2.375   8.444  0.5081  0.0686 -0.3944
 4227TIP3    H134240   6.202   2.457   8.494 -1.2992  0.1445 -0.6051
 4227TIP3    H234241   6.178   2.308   8.506 -4.5474  0.5041 -1.8384
 4228TIP3   OH234242   5.040   5.987   0.195 -0.6047 -0.4692  0.0294
 4228TIP3    H134243   4.948   5.963   0.181 -1.4884  1.2341  2.2373
 4228TIP3    H234244   5.037   6.055   0.262  2.3244 -0.4790  0.3093
 4229TIP3   OH234245   2.119   4.732   1.036  0.0161 -0.6270  0.2062
 4229TIP3    H134246   2.122   4.726   1.131  2.7517  2.7282  0.5143
 4229TIP3    H234247   2.210   4.734   1.008 -0.6899 -0.4879 -2.4242
 4230TIP3   OH234248   1.982   4.409   6.618 -0.5175  0.2595 -0.5073
 4230TIP3    H134249   1.935   4.488   6.591 -0.7107 -0.1437 -1.3636
 4230TIP3    H234250   1.932   4.337   6.581  1.6661 -0.1418 -2.9821
 4231TIP3   OH234251   2.403   1.942   6.808  0.2967  0.6897 -0.7297
 4231TIP3    H134252   2.354   1.945   6.726 -0.0790  0.6145 -0.5097
 4231TIP3    H234253   2.353   1.883   6.864  1.5372 -0.7777 -1.0869
 4232TIP3   OH234254   5.952   4.377   1.276  0.2648  0.0018  0.3196
 4232TIP3    H134255   6.041   4.404   1.299  0.4676 -0.3984  0.0243
 4232TIP3    H234256   5.964   4.308   1.210 -0.2675  0.0654  0.1483
 4233TIP3   OH234257   1.833   0.004   0.794  0.1676 -0.4039 -0.0870
 4233TIP3    H134258   1.772   0.048   0.734 -0.6837 -1.2798  0.1166
 4233TIP3    H234259   1.789  -0.077   0.819  1.1678 -0.7817  0.5399
 4234TIP3   OH234260   4.039   5.596   6.496  0.0248  0.0788 -0.0066
 4234TIP3    H134261   4.008   5.684   6.475 -0.2453 -0.0336 -0.0832
 4234TIP3    H234262   4.115   5.583   6.440 -0.6602 -0.2012 -0.8940
 4235TIP3   OH234263   5.456   5.426   6.827 -0.2993 -0.2666 -0.5487
 4235TIP3    H134264   5.415   5.509   6.801  0.2987  0.5584  0.9678
 4235TIP3    H234265   5.384   5.365   6.837 -1.0143  0.6900  0.4228
 4236TIP3   OH234266   4.980   3.746   6.940  0.8633 -0.1225 -0.1957
 4236TIP3    H134267   5.044   3.742   7.011  0.8569 -0.4735 -0.2067
 4236TIP3    H234268   4.934   3.828   6.953  0.3567 -0.5315  0.6347
 4237TIP3   OH234269   1.548   4.704   1.664  0.3032  0.3197  0.6689
 4237TIP3    H134270   1.461   4.672   1.642 -0.0348  0.1602  2.1611
 4237TIP3    H234271   1.537   4.747   1.749  1.1879  2.4371 -0.2175
 4238TIP3   OH234272   3.174   4.059   0.811 -0.0970  0.5583 -0.2671
 4238TIP3    H134273   3.234   4.052   0.737 -1.0530 -1.4165 -0.9137
 4238TIP3    H234274   3.200   3.989   0.870  0.1809  1.6466  0.9719
 4239TIP3   OH234275   2.011   6.547   1.959 -0.1987 -0.1687 -0.0050
 4239TIP3    H134276   1.974   6.521   2.043  1.9986  0.1523  1.1110
 4239TIP3    H234277   1.985   6.476   1.899 -0.4554 -1.1996  1.2866
 4240TIP3   OH234278   6.010   5.159   1.320  0.1166  0.4504  0.2385
 4240TIP3    H134279   6.093   5.198   1.292  0.1245 -0.4558 -1.0823
 4240TIP3    H234280   5.978   5.218   1.387  1.9710  0.6805  0.9966
 4241TIP3   OH234281   1.407   5.620   1.334  0.0820  0.3659  0.2237
 4241TIP3    H134282   1.445   5.707   1.320 -0.1642  0.7228  1.6334
 4241TIP3    H234283   1.482   5.561   1.334  0.3404  0.6909  0.1752
 4242TIP3   OH234284   2.153   0.642   8.136 -0.3900 -0.5620  0.4171
 4242TIP3    H134285   2.209   0.697   8.190 -2.2777 -1.1670  3.2194
 4242TIP3    H234286   2.064   0.661   8.166 -1.3331 -2.9858 -0.5708
 4243TIP3   OH234287   5.426   1.428   7.936  0.4622  0.0982 -0.2552
 4243TIP3    H134288   5.337   1.399   7.955  0.9951 -1.6093 -0.1442
 4243TIP3    H234289   5.446   1.390   7.850  0.2560  2.5535 -1.4704
 4244TIP3   OH234290   0.750   0.404   7.362  0.3723  0.3209  0.3512
 4244TIP3    H134291   0.692   0.452   7.302 -0.8494  0.6144  1.7029
 4244TIP3    H234292   0.838   0.429   7.334 -0.2005  2.2296  0.0854
 4245TIP3   OH234293   2.340   6.234   8.424  0.6888 -0.1054 -0.0826
 4245TIP3    H134294   2.289   6.256   8.502 -0.2581 -0.0411 -0.7067
 4245TIP3    H234295   2.331   6.139   8.415 -1.1237  0.1502 -1.3924
 4246TIP3   OH234296   3.709   4.336   8.307  0.2012 -0.0314  0.0820
 4246TIP3    H134297   3.724   4.313   8.399 -0.7619 -1.3258 -0.0588
 4246TIP3    H234298   3.752   4.421   8.296  2.3214 -0.9062  1.1248
 4247TIP3   OH234299   6.399   1.034   1.301 -0.1996 -0.3281  0.2692
 4247TIP3    H134300   6.339   1.068   1.235 -0.7548 -0.0797  0.8802
 4247TIP3    H234301   6.476   1.092   1.296 -0.2450 -0.3046 -0.1446
 4248TIP3   OH234302   3.265   0.771   0.809 -0.1860 -0.1811 -0.1239
 4248TIP3    H134303   3.206   0.798   0.738  0.4015  1.4817 -0.0400
 4248TIP3    H234304   3.296   0.854   0.846 -1.0771 -0.9973  2.6134
 4249TIP3   OH234305   1.668   3.362   6.997 -0.2168  0.5707 -0.1249
 4249TIP3    H134306   1.599   3.314   7.042 -0.1077 -0.5246 -1.0888
 4249TIP3    H234307   1.622   3.429   6.946 -0.4291  0.9128  0.4962
 4250TIP3   OH234308   0.643   4.364   0.799 -0.0779  0.4177 -0.1408
 4250TIP3    H134309   0.715   4.373   0.861  0.6320 -0.3263 -0.8269
 4250TIP3    H234310   0.673   4.410   0.720 -0.9078  1.2367  0.0100
 4251TIP3   OH234311   3.687   6.232   1.792 -0.0712 -0.4258 -0.1753
 4251TIP3    H134312   3.781   6.250   1.796 -0.4739  2.2914 -1.1849
 4251TIP3    H234313   3.654   6.263   1.876 -0.2363 -0.2684 -0.2999
 4252TIP3   OH234314   3.124   3.856   6.862  0.5131 -0.0718  0.1947
 4252TIP3    H134315   3.075   3.936   6.841 -0.8031 -1.5597 -3.1598
 4252TIP3    H234316   3.212   3.872   6.829  0.2138  0.0050 -0.6003
 4253TIP3   OH234317   5.418   2.501   2.217  0.7370  0.3248  0.3066
 4253TIP3    H134318   5.418   2.597   2.223 -2.6683  0.4288  0.7861
 4253TIP3    H234319   5.404   2.482   2.125  0.6702  0.2886  0.3245
 4254TIP3   OH234320   3.929   2.392   6.787 -0.1289  0.2641 -0.0302
 4254TIP3    H134321   4.002   2.429   6.836 -0.7324  0.8572  0.4217
 4254TIP3    H234322   3.966   2.314   6.745  0.5952  0.2011  0.7104
 4255TIP3   OH234323   6.293   1.274   7.813 -0.6449 -0.0663 -0.4171
 4255TIP3    H134324   6.276   1.264   7.719  1.8495 -0.2337 -0.9131
 4255TIP3    H234325   6.221   1.227   7.855 -0.4644 -2.2347 -2.3178
 4256TIP3   OH234326   4.548   3.811   8.374  0.5330  0.1487  0.0200
 4256TIP3    H134327   4.493   3.769   8.439  0.9755 -0.1483  0.2052
 4256TIP3    H234328   4.617   3.854   8.424  0.4654  0.5267 -0.2077
 4257TIP3   OH234329   3.500   3.530   8.432 -0.4783  0.5391 -0.2362
 4257TIP3    H134330   3.588   3.530   8.393  0.0426  3.1679  0.7166
 4257TIP3    H234331   3.445   3.568   8.364 -1.4131 -2.8655 -1.5982
 4258TIP3   OH234332   1.831   4.769   7.768  0.1577 -0.6221  0.6934
 4258TIP3    H134333   1.903   4.805   7.717 -2.7362  2.6074 -1.5763
 4258TIP3    H234334   1.872   4.741   7.850  3.7582  2.6784  0.3401
 4259TIP3   OH234335   4.027   0.912   0.067  0.0604  0.0322  0.5668
 4259TIP3    H134336   4.082   0.964   0.009 -0.9396  0.8174  0.2887
 4259TIP3    H234337   3.987   0.975   0.127 -0.1303 -0.5783  1.1024
 4260TIP3   OH234338   0.558   6.372   6.682  0.6116  0.0709  0.3172
 4260TIP3    H134339   0.595   6.460   6.670  0.5042 -0.0648 -1.0914
 4260TIP3    H234340   0.628   6.323   6.726  0.2048  1.1779  2.3569
 4261TIP3   OH234341   0.788   0.188   8.524 -0.2793  0.3480 -0.4308
 4261TIP3    H134342   0.717   0.219   8.580  1.2340 -1.2539  2.6193
 4261TIP3    H234343   0.778   0.092   8.522  1.4414  0.1325 -0.4106
 4262TIP3   OH234344   3.595   0.630   7.708 -0.2294  0.3698  0.4555
 4262TIP3    H134345   3.581   0.668   7.621  1.0430  0.5347  0.2896
 4262TIP3    H234346   3.687   0.648   7.727 -0.4262  0.1274  1.7457
 4263TIP3   OH234347   5.778   3.907   2.164 -0.1492 -0.0025  0.4512
 4263TIP3    H134348   5.862   3.869   2.139  0.1056 -1.1123  2.7770
 4263TIP3    H234349   5.800   3.984   2.217 -0.6525  0.9783 -0.7060
 4264TIP3   OH234350   6.514   6.653   6.915  0.1828 -0.3264  0.0226
 4264TIP3    H134351   6.559   6.659   6.830  0.9384  0.6746  0.4724
 4264TIP3    H234352   6.422   6.641   6.893  0.5431 -1.5425 -0.9286
 4265TIP3   OH234353   4.835   0.490   7.905  0.6417 -0.0975  0.2287
 4265TIP3    H134354   4.918   0.536   7.918  0.6825 -0.5668  1.8599
 4265TIP3    H234355   4.774   0.534   7.963  0.2398 -0.9434  0.4696
 4266TIP3   OH234356   4.897   5.291   0.987  0.3316 -0.2971  0.5418
 4266TIP3    H134357   4.878   5.297   1.080  0.6006  1.1895  0.5262
 4266TIP3    H234358   4.858   5.208   0.959  0.3158 -0.7903  1.9824
 4267TIP3   OH234359   2.158   5.225   8.356  0.2864 -0.2097  0.1515
 4267TIP3    H134360   2.231   5.253   8.302  0.1000 -0.9135 -0.4745
 4267TIP3    H234361   2.196   5.168   8.422  0.2098 -1.2491 -0.6776
 4268TIP3   OH234362   6.427   0.439   0.815  0.3447  0.1792  0.3545
 4268TIP3    H134363   6.519   0.464   0.820  0.5052 -0.5818  1.6234
 4268TIP3    H234364   6.387   0.504   0.757  1.7811  0.1902 -0.6848
 4269TIP3   OH234365   2.706   1.430   1.155  0.0138 -0.1877  0.4576
 4269TIP3    H134366   2.636   1.370   1.181  0.5796 -0.3975  1.5508
 4269TIP3    H234367   2.784   1.396   1.198  0.5667  0.7062  0.1875
 4270TIP3   OH234368   5.857   3.443   2.090  0.3680  0.2699 -0.6387
 4270TIP3    H134369   5.769   3.405   2.089  0.7725 -0.6947 -2.1890
 4270TIP3    H234370   5.916   3.368   2.091  1.1746  0.8900 -0.6128
 4271TIP3   OH234371   6.617   2.992   2.171  0.4088  0.5600  0.1530
 4271TIP3    H134372   6.544   2.964   2.226 -0.5957  1.6865 -0.5360
 4271TIP3    H234373   6.607   2.943   2.090  0.6054  0.4991  0.1637
 4272TIP3   OH234374   1.561   4.658   8.244 -0.0701 -0.0369 -0.1882
 4272TIP3    H134375   1.652   4.661   8.272  0.1891 -1.4130 -0.8481
 4272TIP3    H234376   1.512   4.648   8.326  0.5874 -2.4510 -0.0182
 4273TIP3   OH234377   4.088   1.329   8.242  0.1160 -0.1227 -0.4073
 4273TIP3    H134378   4.078   1.236   8.258 -0.5711  0.0404  0.1606
 4273TIP3    H234379   4.040   1.345   8.161  0.3267 -0.2723 -0.5645
 4274TIP3   OH234380   6.194   4.956   1.311 -0.8010 -0.2963  0.1843
 4274TIP3    H134381   6.112   5.004   1.305  0.6350  2.1430 -1.7728
 4274TIP3    H234382   6.180   4.879   1.254 -1.5425  0.4060 -0.6123
 4275TIP3   OH234383   4.429   6.601   8.207  0.1347 -0.6186  0.0127
 4275TIP3    H134384   4.378   6.591   8.287  0.5251  1.5431  0.6059
 4275TIP3    H234385   4.521   6.597   8.236  0.3611 -3.1994 -0.8595
 4276TIP3   OH234386   5.635   1.109   7.579 -0.2159 -0.2875 -0.4930
 4276TIP3    H134387   5.660   1.077   7.492 -0.4887  2.3773 -1.6621
 4276TIP3    H234388   5.710   1.088   7.634 -0.0098 -2.0037 -1.3549
 4277TIP3   OH234389   5.886   1.819   1.423 -0.2379 -0.2751 -0.1596
 4277TIP3    H134390   5.964   1.774   1.455 -0.0713  0.4582  0.4788
 4277TIP3    H234391   5.815   1.786   1.478 -0.0781  0.4057  0.4625
 4278TIP3   OH234392   5.282   2.911   2.186  0.2786 -0.0130 -0.6230
 4278TIP3    H134393   5.328   2.897   2.269  1.3728  0.7178 -1.0705
 4278TIP3    H234394   5.286   2.826   2.142  0.9927 -0.0398 -0.5301
 4279TIP3   OH234395   1.793   4.862   0.736  0.2394 -0.0569 -0.0260
 4279TIP3    H134396   1.839   4.877   0.819 -2.7006  0.8760  1.5889
 4279TIP3    H234397   1.708   4.904   0.748 -0.3487  0.0408 -3.5526
 4280TIP3   OH234398   5.316   5.989   0.114 -0.1073 -0.5106 -0.4067
 4280TIP3    H134399   5.320   6.081   0.085  2.1170 -0.3794  0.1024
 4280TIP3    H234400   5.224   5.975   0.136 -0.2310  2.2404  1.4150
 4281TIP3   OH234401   1.366   3.692   0.347  0.1616 -0.4493  0.1468
 4281TIP3    H134402   1.444   3.672   0.295 -1.0935  0.7313 -2.3697
 4281TIP3    H234403   1.308   3.618   0.334 -0.5662  0.3005 -1.0582
 4282TIP3   OH234404   0.011   3.129   1.087  0.0500 -0.0873 -0.1575
 4282TIP3    H134405  -0.084   3.115   1.091  0.0580 -0.9504 -1.8759
 4282TIP3    H234406   0.021   3.224   1.087 -1.0597  0.1190 -2.7982
 4283TIP3   OH234407   4.149   5.419   8.526 -0.4219  0.0242 -0.4888
 4283TIP3    H134408   4.242   5.425   8.506 -0.5707 -0.3142 -1.3123
 4283TIP3    H234409   4.136   5.482   8.597  0.5993 -0.5848  0.2690
 4284TIP3   OH234410   1.732   4.193   7.953 -0.0628  0.0226  0.2236
 4284TIP3    H134411   1.748   4.123   7.890  1.1334  0.3968  0.0711
 4284TIP3    H234412   1.758   4.273   7.907  2.0427  0.1917  1.5494
 4285TIP3   OH234413   5.406   3.659   8.526  0.2623  0.0095 -0.5951
 4285TIP3    H134414   5.330   3.718   8.524  1.4112  1.5533 -0.6596
 4285TIP3    H234415   5.454   3.685   8.605  1.2131 -0.2810 -1.0600
 4286TIP3   OH234416   1.569   1.293   7.775  0.3936  0.5275 -0.6216
 4286TIP3    H134417   1.603   1.320   7.860  2.2773  0.2467 -1.2292
 4286TIP3    H234418   1.528   1.208   7.792  0.4089  0.6519  0.0742
 4287TIP3   OH234419   0.456   2.117   1.056  0.7126 -0.3492  0.3811
 4287TIP3    H134420   0.520   2.160   1.000  0.2299  0.6314  0.5701
 4287TIP3    H234421   0.508   2.069   1.121  1.2552  0.7804  0.7945
 4288TIP3   OH234422   0.692   1.202   2.054  0.7121  0.1894  0.3584
 4288TIP3    H134423   0.680   1.111   2.082  0.9137  0.6113  1.8880
 4288TIP3    H234424   0.689   1.253   2.134  1.4946  1.4571 -0.3772
 4289TIP3   OH234425   3.426   6.120   7.989  0.1809  0.4620 -0.3790
 4289TIP3    H134426   3.367   6.167   8.047  0.9293  1.0725 -0.0919
 4289TIP3    H234427   3.369   6.066   7.934 -0.5820  0.4897  0.3751
 4290TIP3   OH234428   3.910   1.570   8.297 -0.3031 -0.1966  0.0843
 4290TIP3    H134429   3.966   1.519   8.239 -0.2564  0.8300 -0.8052
 4290TIP3    H234430   3.958   1.574   8.380 -0.3047 -1.5525  0.1612
 4291TIP3   OH234431   1.805   2.033   7.754  0.3525  0.1247  0.1672
 4291TIP3    H134432   1.856   2.092   7.810  0.6049  0.0902 -0.0221
 4291TIP3    H234433   1.822   1.946   7.789  0.2828  0.1290  0.2121
 4292TIP3   OH234434   5.278   1.851   1.270 -0.3111 -0.0475  0.2580
 4292TIP3    H134435   5.203   1.832   1.213 -2.8097 -0.1465  3.3004
 4292TIP3    H234436   5.248   1.923   1.326  1.4355 -0.8267  2.3286
 4293TIP3   OH234437   0.976   6.585   1.674 -0.4384  0.6332  0.4273
 4293TIP3    H134438   0.952   6.666   1.718  0.4038  1.6661 -0.9404
 4293TIP3    H234439   0.918   6.580   1.599 -0.9791 -0.4278  0.9007
 4294TIP3   OH234440   3.127   4.919   6.637  0.2214 -0.2209 -0.2419
 4294TIP3    H134441   3.180   4.959   6.568 -0.2049 -2.4595 -1.9797
 4294TIP3    H234442   3.037   4.934   6.611  0.0519 -0.9098 -0.0744
 4295TIP3   OH234443   6.714   5.690   8.694  0.2029  0.0540 -0.1802
 4295TIP3    H134444   6.740   5.703   8.603 -0.5899  0.9939 -0.2820
 4295TIP3    H234445   6.652   5.617   8.691 -1.7366  1.6606 -0.7561
 4296TIP3   OH234446   3.092   1.514   8.143 -0.1331 -0.1619  0.1384
 4296TIP3    H134447   3.068   1.605   8.126 -0.5432 -0.3261 -0.1852
 4296TIP3    H234448   3.020   1.480   8.196 -0.0444 -0.3353  0.1467
 4297TIP3   OH234449   4.288   2.367   1.781  0.6521  0.2234 -0.3829
 4297TIP3    H134450   4.226   2.318   1.834  0.6026  1.1057  0.4070
 4297TIP3    H234451   4.234   2.424   1.727  0.7270 -0.1037 -0.8008
 4298TIP3   OH234452   2.029   5.778   1.200 -0.2337 -0.5877 -0.2567
 4298TIP3    H134453   2.009   5.872   1.206 -0.3015 -0.5724 -0.6406
 4298TIP3    H234454   2.104   5.766   1.259  0.8393  0.0475 -1.4212
 4299TIP3   OH234455   6.244   3.917   8.825  0.1890  0.1958 -0.0963
 4299TIP3    H134456   6.222   3.976   8.897  2.2066  0.3416  0.4539
 4299TIP3    H234457   6.214   3.831   8.854  2.8208 -0.1628  1.9642
 4300TIP3   OH234458   2.673   5.649   0.759  0.1070 -0.2793 -0.7866
 4300TIP3    H134459   2.630   5.735   0.757 -1.6347 -1.1197 -1.3989
 4300TIP3    H234460   2.721   5.645   0.676  0.7273  0.3372 -0.4698
 4301TIP3   OH234461   0.782   3.520   8.116 -0.2753  0.0189 -0.5457
 4301TIP3    H134462   0.857   3.578   8.129  1.1704 -2.1238  1.6913
 4301TIP3    H234463   0.819   3.432   8.113 -2.5756 -1.0303 -1.1272
 4302TIP3   OH234464   0.346   4.777   0.168 -0.3862 -0.3860  0.0970
 4302TIP3    H134465   0.380   4.729   0.093  0.8083 -0.5646  0.7409
 4302TIP3    H234466   0.386   4.736   0.244 -0.9531  0.3085  0.7984
 4303TIP3   OH234467   1.134   1.226   6.413 -0.7767  0.0172  0.4254
 4303TIP3    H134468   1.054   1.241   6.463 -0.3509  0.4852  0.9660
 4303TIP3    H234469   1.189   1.172   6.470 -0.7964 -0.5069 -0.0405
 4304TIP3   OH234470   5.858   1.650   1.201 -0.2661 -0.6164 -0.3605
 4304TIP3    H134471   5.825   1.696   1.279  1.0506 -0.3820  0.0804
 4304TIP3    H234472   5.824   1.561   1.209  1.4512 -1.1673  1.5547
 4305TIP3   OH234473   2.431   3.746   7.188  0.0477 -0.3385 -0.4470
 4305TIP3    H134474   2.425   3.770   7.096 -3.0312 -1.1869 -0.5757
 4305TIP3    H234475   2.438   3.650   7.188  2.6731 -0.2041  0.2135
 4306TIP3   OH234476   6.382   1.291   0.590 -0.1945  0.6016  0.1881
 4306TIP3    H134477   6.461   1.343   0.577 -0.0137  0.2924  0.0642
 4306TIP3    H234478   6.388   1.220   0.527 -1.1451  1.2402 -0.6571
 4307TIP3   OH234479   4.250   3.576   1.137  0.2130 -0.3503  0.1871
 4307TIP3    H134480   4.343   3.584   1.115  0.3210  0.4172  0.8857
 4307TIP3    H234481   4.248   3.565   1.232 -0.3826 -1.1392  0.1001
 4308TIP3   OH234482   4.879   1.645   1.311  0.6373 -0.0541  0.1469
 4308TIP3    H134483   4.892   1.621   1.220  0.5493 -0.3354  0.2077
 4308TIP3    H234484   4.967   1.656   1.347  0.6704  0.5806 -0.1054
 4309TIP3   OH234485   3.879   3.736   0.477 -0.3275 -0.0426  0.1223
 4309TIP3    H134486   3.963   3.706   0.441  0.1988 -0.0076  1.2586
 4309TIP3    H234487   3.818   3.729   0.404  0.5384 -0.6233 -0.5778
 4310TIP3   OH234488   4.741   4.301   1.766  0.2523 -0.9101  0.2573
 4310TIP3    H134489   4.694   4.318   1.685  1.7710  1.1455 -0.2783
 4310TIP3    H234490   4.810   4.239   1.741 -0.1172 -1.3415  0.2974
 4311TIP3   OH234491   5.870   6.107   7.223  0.0277  0.1542 -0.0544
 4311TIP3    H134492   5.833   6.151   7.146 -0.2891 -0.1362 -0.0737
 4311TIP3    H234493   5.839   6.158   7.298 -0.0954  0.1370 -0.0929
 4312TIP3   OH234494   1.478   1.717   1.871  0.3812 -0.1086  0.3322
 4312TIP3    H134495   1.414   1.646   1.870  0.0415  0.1823 -1.6221
 4312TIP3    H234496   1.461   1.763   1.953 -1.7719 -0.1827 -0.0061
 4313TIP3   OH234497   4.852   2.321   0.033  0.4118 -0.4250 -0.0190
 4313TIP3    H134498   4.910   2.308   0.108 -0.8277 -1.1778  0.8300
 4313TIP3    H234499   4.889   2.398  -0.012  2.0045 -0.8191  0.5277
 4314TIP3   OH234500   5.799   5.427   7.584 -0.5012  0.3293 -0.2389
 4314TIP3    H134501   5.751   5.502   7.549  0.0286  0.2006 -1.2904
 4314TIP3    H234502   5.836   5.385   7.506  0.0004 -0.4703  0.4251
 4315TIP3   OH234503   5.966   5.983   0.625  0.2551 -0.0262 -0.2344
 4315TIP3    H134504   6.049   5.988   0.673 -0.5169 -1.3471  1.3456
 4315TIP3    H234505   5.927   5.900   0.654 -0.6573 -0.4802 -2.5476
 4316TIP3   OH234506   0.520   2.894   1.145 -0.5682  0.4931 -0.0238
 4316TIP3    H134507   0.491   2.822   1.201 -0.6031  1.7287  1.6326
 4316TIP3    H234508   0.569   2.952   1.204  0.1186  1.4467 -1.4691
 4317TIP3   OH234509   5.509   4.148   1.080  0.5388  0.5010 -0.0681
 4317TIP3    H134510   5.416   4.158   1.063  0.4896 -0.7567 -0.6268
 4317TIP3    H234511   5.546   4.122   0.996  0.9632 -1.6352  0.7373
 4318TIP3   OH234512   0.338   0.399   7.163 -0.2619  0.4647  0.0300
 4318TIP3    H134513   0.398   0.425   7.093  0.1401  0.4357  0.3575
 4318TIP3    H234514   0.381   0.324   7.205  0.1460  1.2914  1.1438
 4319TIP3   OH234515   5.128   2.973   6.862 -0.1770  0.3125  0.4031
 4319TIP3    H134516   5.186   2.898   6.853  0.4134  0.8830 -0.6619
 4319TIP3    H234517   5.135   2.998   6.954  1.0137  0.1749  0.3566
 4320TIP3   OH234518   2.845   0.826   0.800  0.5823 -0.3417  0.1937
 4320TIP3    H134519   2.815   0.878   0.874  1.7106  1.0394 -0.2839
 4320TIP3    H234520   2.894   0.754   0.839  1.2420  0.4238  0.7810
 4321TIP3   OH234521   6.020   6.291   7.733  0.1307  0.0226 -0.3808
 4321TIP3    H134522   6.111   6.320   7.741  0.2821 -0.5747  0.2579
 4321TIP3    H234523   6.026   6.200   7.702 -0.1908 -0.3793  0.6810
 4322TIP3   OH234524   1.793   2.713   8.361 -0.0741  0.0152  0.4224
 4322TIP3    H134525   1.721   2.688   8.419 -2.1139  1.0077 -1.5652
 4322TIP3    H234526   1.798   2.808   8.367 -0.2503  0.1276 -0.9215
 4323TIP3   OH234527   4.230   3.494   7.650  0.2904  0.6777  0.6168
 4323TIP3    H134528   4.195   3.409   7.624  0.7943  0.6068  0.1522
 4323TIP3    H234529   4.325   3.482   7.647  0.5141  2.1446 -2.5936
 4324TIP3   OH234530   6.492   5.493   0.638 -0.2938  0.5903 -0.1715
 4324TIP3    H134531   6.539   5.576   0.637 -0.3213  0.6039 -1.0096
 4324TIP3    H234532   6.416   5.508   0.583  0.2647 -0.3056 -1.2295
 4325TIP3   OH234533   5.802   4.309   0.923  0.0181  0.6584 -0.1265
 4325TIP3    H134534   5.843   4.238   0.972 -2.1187 -1.5048 -1.2007
 4325TIP3    H234535   5.875   4.360   0.888  1.8719 -2.7361 -1.6981
 4326TIP3   OH234536   4.801   1.746   8.325 -0.8420 -0.0561  0.3590
 4326TIP3    H134537   4.731   1.686   8.299  0.6900 -0.3521 -3.8640
 4326TIP3    H234538   4.852   1.698   8.390 -2.1649 -1.4814  0.3896
 4327TIP3   OH234539   0.267   0.320   6.778 -0.0474 -0.0734 -0.2610
 4327TIP3    H134540   0.317   0.294   6.700 -1.2750  0.3087 -1.2029
 4327TIP3    H234541   0.190   0.263   6.777  0.7119 -1.2356  1.6415
 4328TIP3   OH234542   2.546   1.198   0.722  0.5101 -0.2684  0.6076
 4328TIP3    H134543   2.498   1.211   0.804  0.5395  0.1077  0.5684
 4328TIP3    H234544   2.538   1.105   0.704 -1.2813 -0.0079 -0.0552
 4329TIP3   OH234545   0.900   6.774   7.262  1.2385  0.2426  0.0462
 4329TIP3    H134546   0.929   6.864   7.245  0.6803  0.4015 -0.1210
 4329TIP3    H234547   0.952   6.720   7.203 -0.6408  0.7854 -2.2821
 4330TIP3   OH234548   3.246   6.297   8.135 -0.2870 -0.2329  0.3183
 4330TIP3    H134549   3.174   6.327   8.081 -0.3812 -0.4881  0.3031
 4330TIP3    H234550   3.205   6.248   8.206 -0.1481 -0.1294  0.4725
 4331TIP3   OH234551   3.738   0.515   1.129  0.0359  0.4944  0.4316
 4331TIP3    H134552   3.757   0.544   1.218 -0.4687  1.9577  0.0854
 4331TIP3    H234553   3.675   0.444   1.139  0.1042  0.5487  1.2522
 4332TIP3   OH234554   4.725   0.380   8.718 -0.4325  0.1860 -0.6836
 4332TIP3    H134555   4.763   0.299   8.753  0.0192  0.2423 -1.0323
 4332TIP3    H234556   4.633   0.359   8.705 -0.7086  0.2906  0.9098
 4333TIP3   OH234557   2.581   2.368   6.763 -0.0248  0.3973 -0.6487
 4333TIP3    H134558   2.508   2.332   6.713  0.8792 -1.3269 -0.7917
 4333TIP3    H234559   2.620   2.433   6.705 -0.9569  0.7904 -0.8630
 4334TIP3   OH234560   3.150   4.419   6.313 -0.8246  0.0121 -0.2970
 4334TIP3    H134561   3.157   4.327   6.285  0.3095 -0.7741  2.1833
 4334TIP3    H234562   3.241   4.449   6.317 -1.1385  0.9986 -0.3189
 4335TIP3   OH234563   4.789   3.626   6.484 -0.6364 -0.4424  0.1191
 4335TIP3    H134564   4.822   3.678   6.556  0.3164 -0.4772 -0.2737
 4335TIP3    H234565   4.800   3.535   6.512 -0.2623 -0.4561 -0.0658
 4336TIP3   OH234566   4.948   1.961   8.254  0.0427  0.1164  0.3837
 4336TIP3    H134567   4.888   1.886   8.252  0.5042 -0.3011  1.3173
 4336TIP3    H234568   4.903   2.026   8.307 -0.3530  0.5081 -0.4188
 4337TIP3   OH234569   0.533   2.799   0.146 -0.5093 -0.5827  0.6511
 4337TIP3    H134570   0.509   2.824   0.235  0.3859 -0.6252  0.9113
 4337TIP3    H234571   0.494   2.712   0.134 -1.9579  0.0707  0.4352
 4338TIP3   OH234572   4.855   3.646   7.500  0.1883  0.1600 -0.3574
 4338TIP3    H134573   4.842   3.598   7.582  0.6463  0.0758 -0.3293
 4338TIP3    H234574   4.805   3.727   7.512  0.6685  0.3811  0.2200
 4339TIP3   OH234575   6.254   1.401   1.549  0.1923 -0.1622 -0.0025
 4339TIP3    H134576   6.168   1.370   1.522  0.7143  1.1315 -3.7916
 4339TIP3    H234577   6.313   1.328   1.529  0.2194 -0.3875  0.8653
 4340TIP3   OH234578   1.966   3.813   7.991 -0.6210  0.2228 -0.2850
 4340TIP3    H134579   2.026   3.869   8.040 -0.9042  0.7608 -0.5444
 4340TIP3    H234580   1.912   3.874   7.941 -2.7656 -0.1362  1.4886
 4341TIP3   OH234581   0.690   0.261   8.260  0.3541 -0.1149  0.3075
 4341TIP3    H134582   0.676   0.255   8.165 -0.1129 -1.1730  0.4337
 4341TIP3    H234583   0.770   0.210   8.276  0.5600  0.2492  0.4628
 4342TIP3   OH234584   1.044   3.754   0.266  0.3603  0.4577  0.2010
 4342TIP3    H134585   1.083   3.825   0.214  1.2137  0.4193  0.7811
 4342TIP3    H234586   1.055   3.676   0.212  0.0533  0.6324 -0.1274
 4343TIP3   OH234587   6.734   3.531   0.981  0.0957  0.1402 -0.2282
 4343TIP3    H134588   6.752   3.480   1.059 -1.3678  0.0338  0.0604
 4343TIP3    H234589   6.804   3.507   0.920  1.2328  0.2023  1.0146
 4344TIP3   OH234590   3.900   1.526   1.390 -0.2258  0.0261  0.3424
 4344TIP3    H134591   3.839   1.569   1.329  0.8348  2.0491  0.6165
 4344TIP3    H234592   3.881   1.566   1.475 -1.1589 -2.2048  1.2654
 4345TIP3   OH234593   3.795   0.581   1.405  0.1279 -0.2712  0.2071
 4345TIP3    H134594   3.760   0.544   1.486 -0.4366 -0.3256 -0.0576
 4345TIP3    H234595   3.757   0.669   1.400 -3.1701 -1.6172 -1.9947
 4346TIP3   OH234596   6.209   5.504   0.670  0.3010 -0.4694 -0.0912
 4346TIP3    H134597   6.236   5.521   0.760  1.4088  0.2316 -0.5260
 4346TIP3    H234598   6.143   5.435   0.677 -1.9093  1.6755  1.4788
 4347TIP3   OH234599   4.052   3.997   6.238 -0.1848  0.4312  0.1249
 4347TIP3    H134600   3.964   3.993   6.201  0.3037 -0.5525 -0.9887
 4347TIP3    H234601   4.042   4.048   6.319 -1.7637  0.3552  0.0028
 4348TIP3   OH234602   1.448   2.389   7.522  0.1276 -0.0642  0.4189
 4348TIP3    H134603   1.358   2.356   7.520  0.5640 -1.4725  1.6836
 4348TIP3    H234604   1.486   2.362   7.439 -0.3914 -0.1380  0.2042
 4349TIP3   OH234605   3.531   0.995   7.709 -0.3150 -0.1551  0.0564
 4349TIP3    H134606   3.562   0.949   7.631 -1.2442 -0.0376 -0.3955
 4349TIP3    H234607   3.505   1.082   7.678  2.0279  0.9854  1.0031
 4350TIP3   OH234608   2.987   3.709   7.997 -0.0435  0.2847 -0.3897
 4350TIP3    H134609   3.005   3.732   8.088  1.1948  0.0464 -0.5616
 4350TIP3    H234610   2.905   3.660   8.000 -0.2317  0.6438  0.5414
 4351TIP3   OH234611   5.445   4.998   2.390 -0.1405  0.4040  0.2160
 4351TIP3    H134612   5.539   4.977   2.390 -0.4284 -1.0273 -0.9551
 4351TIP3    H234613   5.438   5.073   2.449  1.4012 -0.9620  2.2931
 4352TIP3   OH234614   2.967   1.623   8.479 -0.1377 -0.9763  0.1383
 4352TIP3    H134615   3.047   1.649   8.525  0.5971 -1.9389 -0.5351
 4352TIP3    H234616   2.912   1.701   8.480 -0.0609 -0.8811  2.3963
 4353TIP3   OH234617   2.127   2.388   7.141  0.2459 -0.5905  0.7184
 4353TIP3    H134618   2.102   2.338   7.218 -1.2660 -3.2352 -1.2902
 4353TIP3    H234619   2.173   2.325   7.085  1.0212  1.1299 -0.7112
 4354TIP3   OH234620   0.021   3.154   0.419 -0.3417 -0.1285  0.6605
 4354TIP3    H134621  -0.023   3.172   0.336  0.1709 -2.2521 -0.1390
 4354TIP3    H234622  -0.041   3.184   0.486 -1.9834 -0.8251 -0.4670
 4355TIP3   OH234623   0.671   5.944   6.916 -0.3743  0.2532 -0.0651
 4355TIP3    H134624   0.743   5.943   6.979  1.0751  1.2174 -1.6513
 4355TIP3    H234625   0.666   5.853   6.885 -2.1346 -0.6327  2.4456
 4356TIP3   OH234626   0.058   1.699   0.542 -0.7110 -0.1747 -0.1058
 4356TIP3    H134627  -0.004   1.770   0.526 -1.1794 -0.4654  0.3916
 4356TIP3    H234628   0.028   1.627   0.486 -1.4135 -0.6501  0.8596
 4357TIP3   OH234629   6.178   4.200   0.934 -0.2785  0.0291  0.3520
 4357TIP3    H134630   6.147   4.285   0.904  2.4312  0.6130 -1.1552
 4357TIP3    H234631   6.133   4.137   0.878 -1.1528  0.5787  0.4281
 4358TIP3   OH234632   4.010   5.301   7.886 -0.4844  0.3991  0.2174
 4358TIP3    H134633   3.949   5.354   7.835 -0.5104  0.3900  0.2390
 4358TIP3    H234634   3.982   5.211   7.869  0.9124  0.2371 -1.5937
 4359TIP3   OH234635   5.956   1.897   0.704 -0.2482 -0.4487 -0.3418
 4359TIP3    H134636   6.052   1.890   0.703 -0.3041 -1.2420 -1.2076
 4359TIP3    H234637   5.926   1.808   0.719 -0.8579  0.0749  1.9117
 4360TIP3   OH234638   6.055   1.507   6.419 -0.4303 -0.0037 -0.0853
 4360TIP3    H134639   5.983   1.568   6.402  0.1344  1.2869  1.8592
 4360TIP3    H234640   6.133   1.555   6.393  0.0500  0.2600  1.7355
 4361TIP3   OH234641   5.169   0.688   1.216 -0.1371 -0.0177 -0.7117
 4361TIP3    H134642   5.181   0.595   1.197 -0.7031 -0.0180 -1.0959
 4361TIP3    H234643   5.241   0.710   1.275  1.8601  0.0142 -2.9947
 4362TIP3   OH234644   0.095   2.353   0.133 -0.3760 -0.0274  0.1328
 4362TIP3    H134645   0.057   2.349   0.046  0.2559  0.9360 -0.1940
 4362TIP3    H234646   0.045   2.288   0.183 -2.6439  1.3412 -0.2018
 4363TIP3   OH234647   5.027   6.199   8.615 -0.2847  0.0249 -0.0331
 4363TIP3    H134648   4.982   6.224   8.534 -0.6077 -0.4057  0.0086
 4363TIP3    H234649   5.044   6.282   8.660  1.6124  0.4410 -1.4261
 4364TIP3   OH234650   4.462   0.299   7.682  0.1833 -0.5781  0.4608
 4364TIP3    H134651   4.542   0.319   7.731  0.3243  1.2552 -0.4405
 4364TIP3    H234652   4.393   0.303   7.748  0.6272 -0.4069  0.9264
 4365TIP3   OH234653   0.977   1.663   8.480 -0.5980 -0.5155 -0.9521
 4365TIP3    H134654   0.923   1.631   8.409  2.4027 -2.2089 -2.6780
 4365TIP3    H234655   1.026   1.737   8.443 -1.4326  0.8486  0.4886
 4366TIP3   OH234656   4.465   4.753   7.145  0.8681 -0.2958  0.0666
 4366TIP3    H134657   4.393   4.736   7.206 -0.2136 -0.4889 -1.2177
 4366TIP3    H234658   4.543   4.754   7.200  0.0530 -1.4404  1.3149
 4367TIP3   OH234659   4.432   3.671   8.610  0.1979 -0.2912  0.1118
 4367TIP3    H134660   4.438   3.642   8.701 -2.0114 -1.7907 -0.1319
 4367TIP3    H234661   4.401   3.594   8.562 -1.2386  1.1676 -1.4456
 4368TIP3   OH234662   3.410   2.884   0.210  0.4944  0.0946  0.1213
 4368TIP3    H134663   3.371   2.797   0.221  2.3506 -0.8308 -0.1824
 4368TIP3    H234664   3.354   2.927   0.145 -0.6723 -0.7213  0.5518
 4369TIP3   OH234665   3.182   1.487   7.612  0.3992  0.1224  0.1294
 4369TIP3    H134666   3.247   1.527   7.554  0.4831 -1.2325 -0.7618
 4369TIP3    H234667   3.099   1.496   7.564  0.4276 -0.7773 -0.1067
 4370TIP3   OH234668   5.569   2.559   1.914 -0.1962  0.1069  0.4700
 4370TIP3    H134669   5.636   2.531   1.976  0.4534  0.2261 -0.1604
 4370TIP3    H234670   5.618   2.602   1.843 -0.9225  0.0653 -0.0717
 4371TIP3   OH234671   3.261   1.324   8.441  0.5859 -0.2753 -0.2312
 4371TIP3    H134672   3.276   1.365   8.356 -0.3549 -2.3709 -1.5118
 4371TIP3    H234673   3.166   1.308   8.444  0.7546 -1.2476  0.6954
 4372TIP3   OH234674   6.745   5.321   7.780  0.6757 -0.3756 -0.4783
 4372TIP3    H134675   6.656   5.342   7.750 -0.2018 -1.5279  1.1596
 4372TIP3    H234676   6.747   5.225   7.782  1.7794 -0.3535  0.0713
 4373TIP3   OH234677   3.425   2.416   6.693 -0.5397  0.0641 -0.5923
 4373TIP3    H134678   3.442   2.492   6.748  0.2670 -0.9250  0.5704
 4373TIP3    H234679   3.352   2.443   6.637 -0.2035  1.7142 -0.2900
 4374TIP3   OH234680   2.907   5.082   7.421  0.0932 -0.1747 -1.3117
 4374TIP3    H134681   2.870   5.151   7.366  0.9206 -0.0897 -1.7770
 4374TIP3    H234682   2.981   5.124   7.466  0.5027 -0.7165 -1.4751
 4375TIP3   OH234683   3.491   1.530   8.654 -0.0007  0.1866  0.5409
 4375TIP3    H134684   3.575   1.564   8.685  0.0524  0.0375  0.5581
 4375TIP3    H234685   3.466   1.590   8.584  1.0179 -0.8267 -0.7504
 4376TIP3   OH234686   2.173   6.749   0.466 -0.0824  0.3434 -0.1707
 4376TIP3    H134687   2.213   6.730   0.551  0.5729  1.2935 -0.2419
 4376TIP3    H234688   2.233   6.709   0.402 -0.3257  0.0343 -0.2081
 4377TIP3   OH234689   3.896   6.324   8.041  0.0756  0.0531  0.3758
 4377TIP3    H134690   3.942   6.399   8.078  0.2807  0.4009 -0.5563
 4377TIP3    H234691   3.803   6.347   8.048  0.1676  0.9449 -0.9947
 4378TIP3   OH234692   2.203   2.729   2.404  0.2079 -0.3350 -0.1429
 4378TIP3    H134693   2.293   2.753   2.383  0.2034  2.9957  2.7617
 4378TIP3    H234694   2.157   2.812   2.409 -2.4415 -1.7651  1.0077
 4379TIP3   OH234695   3.227   0.677   0.063  0.3139 -0.0210 -0.2292
 4379TIP3    H134696   3.232   0.621   0.141 -0.4820 -0.1505 -0.2642
 4379TIP3    H234697   3.271   0.627  -0.005  0.5104 -0.1578 -0.0032
 4380TIP3   OH234698   5.443   0.156   8.060 -0.1982 -0.2441  0.6723
 4380TIP3    H134699   5.487   0.190   8.138  0.8889  1.8535 -0.7651
 4380TIP3    H234700   5.479   0.068   8.049 -0.6518 -0.7296  2.7003
 4381TIP3   OH234701   0.979   1.786   1.397  0.4175 -0.5823 -0.2176
 4381TIP3    H134702   0.893   1.778   1.357 -0.5070  1.2257  1.2861
 4381TIP3    H234703   0.973   1.862   1.454  2.5907 -1.2531  1.0425
 4382TIP3   OH234704   0.580   5.052   1.115  0.2617  0.3510  0.8078
 4382TIP3    H134705   0.532   5.133   1.129  1.6356  1.1893  0.8817
 4382TIP3    H234706   0.644   5.074   1.047  0.2303 -0.8580  0.3673
 4383TIP3   OH234707   6.402   3.975   1.244 -0.6629 -0.0780  0.5222
 4383TIP3    H134708   6.332   3.970   1.178 -0.4411  1.6722  0.1133
 4383TIP3    H234709   6.436   3.886   1.249 -2.5400 -0.8449  0.3150
 4384TIP3   OH234710   1.644   2.457   0.137 -0.1823  0.0830  0.3505
 4384TIP3    H134711   1.599   2.519   0.194 -0.4663  0.4845 -0.3126
 4384TIP3    H234712   1.698   2.511   0.080 -0.2610 -0.2958 -0.0852
 4385TIP3   OH234713   6.088   6.129   0.415 -0.2238 -0.0385 -0.1049
 4385TIP3    H134714   6.112   6.176   0.495 -1.5358 -0.5402  0.6250
 4385TIP3    H234715   6.061   6.042   0.446 -1.3814 -0.0264 -1.0006
 4386TIP3   OH234716   2.859   4.969   6.548  0.3743 -0.6209 -0.1547
 4386TIP3    H134717   2.833   4.994   6.460  1.3921 -0.2872 -0.3753
 4386TIP3    H234718   2.782   4.988   6.602  0.8501  2.5994 -0.3853
 4387TIP3   OH234719   6.540   5.111   6.850 -0.7063 -0.6601  0.8323
 4387TIP3    H134720   6.579   5.040   6.799 -1.7284  0.2166 -1.2885
 4387TIP3    H234721   6.532   5.075   6.939  2.6150 -1.6928  0.8562
 4388TIP3   OH234722   2.189   2.793   0.327  0.5350  0.1870 -0.4687
 4388TIP3    H134723   2.094   2.804   0.320  0.4577  0.2240  0.5657
 4388TIP3    H234724   2.215   2.760   0.240 -0.2829  1.0761 -1.0782
 4389TIP3   OH234725   5.606   4.294   2.074  0.1565 -0.3299  0.1635
 4389TIP3    H134726   5.608   4.325   2.165  0.0984 -1.1668  0.4663
 4389TIP3    H234727   5.528   4.334   2.037 -0.0231 -0.2601  0.6012
 4390TIP3   OH234728   4.355   2.885   7.013 -0.6125  0.3771  0.3134
 4390TIP3    H134729   4.370   2.901   6.920  0.4508 -0.9990  0.2200
 4390TIP3    H234730   4.266   2.916   7.029 -0.0610  2.7104 -0.6420
 4391TIP3   OH234731   2.616   5.291   8.765 -0.5078  0.2429  0.7965
 4391TIP3    H134732   2.662   5.208   8.755  0.4884  1.0126 -1.7527
 4391TIP3    H234733   2.534   5.279   8.716 -0.5115  0.6527  0.6960
 4392TIP3   OH234734   5.038   4.895   0.234  0.4010  0.4217  0.2320
 4392TIP3    H134735   4.980   4.921   0.162  0.7376  1.4569  0.3150
 4392TIP3    H234736   5.008   4.947   0.308  1.6034  1.2040  0.2031
 4393TIP3   OH234737   4.149   3.304   0.448  0.3169  0.5291  0.7921
 4393TIP3    H134738   4.140   3.396   0.474 -0.6586  1.0873 -1.3199
 4393TIP3    H234739   4.130   3.255   0.528  1.6747  2.1271  2.1959
 4394TIP3   OH234740   2.983   0.748   8.810 -0.3916  0.2357  0.0374
 4394TIP3    H134741   3.067   0.725   8.849 -0.7902  0.6982  1.2537
 4394TIP3    H234742   2.932   0.782   8.884 -0.7313  2.4802 -1.1408
 4395TIP3   OH234743   6.297   2.352   0.574  0.1279 -0.1222  0.8806
 4395TIP3    H134744   6.379   2.361   0.621  0.9448  0.7597 -0.6335
 4395TIP3    H234745   6.249   2.433   0.593 -0.1077 -0.3357  1.2140
 4396TIP3   OH234746   1.841   2.705   1.089 -0.0328  0.2191  0.0612
 4396TIP3    H134747   1.796   2.622   1.107 -0.7438  0.4244 -0.7243
 4396TIP3    H234748   1.780   2.755   1.035  1.6640 -0.0993 -2.3430
 4397TIP3   OH234749   4.173   4.125   7.046  0.2699  0.6758 -0.0933
 4397TIP3    H134750   4.212   4.044   7.010 -0.4971  0.4723 -0.4966
 4397TIP3    H234751   4.242   4.163   7.100  0.4989 -0.4883  0.4683
 4398TIP3   OH234752   3.837   3.841   6.455 -0.4553 -0.2256  0.8567
 4398TIP3    H134753   3.796   3.880   6.532  0.0663  1.9546  0.0976
 4398TIP3    H234754   3.930   3.862   6.463 -0.3852  0.0184 -0.3098
 4399TIP3   OH234755   4.747   1.045   1.556  0.2061  0.4597 -0.4518
 4399TIP3    H134756   4.725   1.084   1.641 -1.9266  1.3285 -1.3187
 4399TIP3    H234757   4.719   1.110   1.492  3.5817  0.7284 -1.8833
 4400TIP3   OH234758   2.690   6.568   0.501 -0.2828  0.1246 -0.2527
 4400TIP3    H134759   2.697   6.660   0.476  1.9466 -0.3356 -1.5671
 4400TIP3    H234760   2.777   6.545   0.534 -1.3301 -1.0577  1.8747
 4401TIP3   OH234761   6.228   6.484   7.628  0.4693 -0.2220  0.4327
 4401TIP3    H134762   6.314   6.450   7.654  0.9194 -0.0179 -0.6870
 4401TIP3    H234763   6.204   6.430   7.552  0.2775  0.6380 -0.1351
 4402TIP3   OH234764   3.988   2.592   8.772  0.0113 -0.0695  0.6528
 4402TIP3    H134765   4.065   2.645   8.751  0.0950  0.2484  1.7281
 4402TIP3    H234766   3.947   2.636   8.847 -0.4802 -0.9610  0.9246
 4403TIP3   OH234767   3.665   5.394   8.075  0.3276  0.8104  0.1806
 4403TIP3    H134768   3.621   5.315   8.104 -1.4115  1.9951  0.9738
 4403TIP3    H234769   3.637   5.405   7.984 -0.7496  1.3235  0.5491
 4404TIP3   OH234770   4.909   2.837   6.635 -0.7906 -0.4981 -0.3152
 4404TIP3    H134771   4.977   2.831   6.702 -0.0728  0.3391 -0.9444
 4404TIP3    H234772   4.837   2.883   6.678 -0.2239  0.2956 -0.1964
 4405TIP3   OH234773   5.668   2.341   0.438  0.1621  0.3522 -0.2626
 4405TIP3    H134774   5.754   2.298   0.448  0.0493  0.1657 -0.0876
 4405TIP3    H234775   5.605   2.272   0.456 -0.0202  0.9306  1.4947
 4406TIP3   OH234776   1.329   2.643   1.355  0.4144  0.2711  0.2166
 4406TIP3    H134777   1.263   2.581   1.386 -0.5314  1.2131  0.1666
 4406TIP3    H234778   1.295   2.729   1.381  1.1046  0.8618 -0.7384
 4407TIP3   OH234779   5.991   0.523   7.957 -0.1071 -0.2991  0.0574
 4407TIP3    H134780   6.080   0.557   7.968 -0.0097 -0.3778 -0.4540
 4407TIP3    H234781   5.975   0.529   7.863 -0.1144 -1.5920 -0.0407
 4408TIP3   OH234782   2.535   4.919   0.393 -0.4224 -0.3264 -0.0629
 4408TIP3    H134783   2.557   4.843   0.448  0.5408 -1.0856 -1.4359
 4408TIP3    H234784   2.536   4.993   0.454  1.9294 -0.9286  0.7718
 4409TIP3   OH234785   3.298   0.396   0.126  0.3186  0.4432 -0.1213
 4409TIP3    H134786   3.208   0.378   0.151  1.2286 -1.4944  2.0709
 4409TIP3    H234787   3.293   0.420   0.033 -2.7652  3.7076  0.6716
 4410TIP3   OH234788   1.533   2.073   1.413 -0.1577 -0.6901 -0.1421
 4410TIP3    H134789   1.579   2.138   1.361  0.0543 -1.4453 -0.9285
 4410TIP3    H234790   1.598   2.043   1.477 -0.0679 -0.5713 -0.1774
 4411TIP3   OH234791   0.729   4.435   7.504 -0.4392 -0.3418  0.0684
 4411TIP3    H134792   0.674   4.366   7.541  1.0500 -1.7316 -0.2091
 4411TIP3    H234793   0.689   4.454   7.419  0.2642 -2.3617 -0.7685
 4412TIP3   OH234794   3.306   6.769   0.386  0.0279  0.9517 -0.0003
 4412TIP3    H134795   3.356   6.689   0.373  0.7805  1.4635 -0.3033
 4412TIP3    H234796   3.247   6.772   0.310 -2.0811 -0.7740  1.4337
 4413TIP3   OH234797   6.011   2.884   8.054 -0.4225  0.5315 -0.0702
 4413TIP3    H134798   5.945   2.918   7.994  1.1978  2.2143 -1.0207
 4413TIP3    H234799   6.021   2.952   8.120  0.7336  0.5783 -0.2675
 4414TIP3   OH234800   6.537   2.816   1.316  0.4195 -0.4575  0.0521
 4414TIP3    H134801   6.453   2.800   1.359  0.9852 -0.8796  1.0440
 4414TIP3    H234802   6.553   2.737   1.265  0.3716 -0.5194  0.1319
 4415TIP3   OH234803   4.988   0.303   8.430 -0.3164 -0.2779 -0.0868
 4415TIP3    H134804   5.008   0.257   8.348  0.3638 -0.1488  0.0008
 4415TIP3    H234805   4.920   0.250   8.471 -0.3333 -0.5987 -0.5162
 4416TIP3   OH234806   1.058   3.384   8.657 -0.2204 -0.0376 -0.7265
 4416TIP3    H134807   1.011   3.321   8.712 -0.0687  0.3309 -0.1681
 4416TIP3    H234808   1.031   3.363   8.568 -1.3155  0.0607 -0.4320
 4417TIP3   OH234809   5.290   2.452   8.640 -0.3872  0.0648 -0.1889
 4417TIP3    H134810   5.297   2.422   8.549 -0.5197  1.3106 -0.6351
 4417TIP3    H234811   5.349   2.527   8.646 -0.8236  0.3655  0.5827
 4418TIP3   OH234812   5.469   0.727   7.201  0.2954  0.4249 -0.5675
 4418TIP3    H134813   5.551   0.718   7.251 -0.1834 -0.4984  0.0786
 4418TIP3    H234814   5.498   0.730   7.110  1.0364 -0.3148 -0.3756
 4419TIP3   OH234815   0.717   2.375   7.186 -0.1541 -0.4416  0.1321
 4419TIP3    H134816   0.746   2.332   7.105 -0.5236 -0.4230 -0.0145
 4419TIP3    H234817   0.797   2.400   7.231  0.0556 -0.2418 -0.3456
 4420TIP3   OH234818   0.526   5.075   8.510 -0.9674 -0.1129  0.6322
 4420TIP3    H134819   0.569   5.160   8.522  0.2715 -0.7193  0.5917
 4420TIP3    H234820   0.500   5.049   8.598 -0.1879 -0.2798  0.8200
 4421TIP3   OH234821   5.652   5.009   8.096  0.0884  0.5434  0.1860
 4421TIP3    H134822   5.639   4.917   8.071  1.2158  0.1100  1.1386
 4421TIP3    H234823   5.665   5.055   8.013  0.0324 -0.2390 -0.2635
 4422TIP3   OH234824   2.603   3.007   0.582  0.1516  0.0361  0.1256
 4422TIP3    H134825   2.697   3.025   0.594  0.1322 -0.6242  1.4550
 4422TIP3    H234826   2.600   2.932   0.523  0.5687 -1.2055  1.6163
 4423TIP3   OH234827   2.897   2.123   8.070  0.2238  0.3723 -0.3734
 4423TIP3    H134828   2.843   2.044   8.075 -0.4574  0.8122 -0.6257
 4423TIP3    H234829   2.981   2.093   8.035 -0.0949 -0.2114 -0.6457
 4424TIP3   OH234830   0.685   1.239   7.019 -0.1167 -0.2301 -0.1199
 4424TIP3    H134831   0.597   1.258   6.986  0.4382  1.6464 -0.6633
 4424TIP3    H234832   0.742   1.250   6.943  0.6729 -0.7257  0.3836
 4425TIP3   OH234833   0.349   6.049   7.873 -0.2086  0.3391  0.2060
 4425TIP3    H134834   0.254   6.052   7.878 -0.4146 -0.9238 -1.8755
 4425TIP3    H234835   0.370   6.078   7.784  0.8940 -4.2747 -1.3022
 4426TIP3   OH234836   2.905   3.241   6.870  0.2448 -0.7828 -0.6078
 4426TIP3    H134837   2.972   3.305   6.894  0.3910 -0.9588 -0.5387
 4426TIP3    H234838   2.845   3.239   6.945  0.0656 -0.4992 -0.7433
 4427TIP3   OH234839   5.736   2.964   7.145  0.0003  0.7191  0.0684
 4427TIP3    H134840   5.771   2.968   7.055 -0.8518 -0.8926 -0.3742
 4427TIP3    H234841   5.668   3.032   7.147 -0.9021 -0.1077 -0.9665
 4428TIP3   OH234842   3.009   1.811   0.592 -0.0549  0.2015 -0.7356
 4428TIP3    H134843   3.010   1.894   0.545  0.6534 -0.4355 -1.8986
 4428TIP3    H234844   3.011   1.744   0.523 -1.4879 -0.8051  0.1408
 4429TIP3   OH234845   1.377   3.634   6.571 -0.1977  0.0585 -0.5625
 4429TIP3    H134846   1.472   3.636   6.576 -0.1979 -0.4539 -0.3299
 4429TIP3    H234847   1.348   3.679   6.651 -0.1497  0.3434 -0.7062
 4430TIP3   OH234848   4.440   6.554   7.121  0.5180 -0.9416 -0.5493
 4430TIP3    H134849   4.500   6.590   7.186 -0.6304  0.2189 -0.1007
 4430TIP3    H234850   4.492   6.546   7.041  0.7633  2.0603 -0.7821
 4431TIP3   OH234851   2.064   2.204   0.953 -0.3001  0.0488  0.6638
 4431TIP3    H134852   2.072   2.182   1.046  0.1819 -1.8581  0.2076
 4431TIP3    H234853   2.131   2.152   0.910 -1.2801  0.0044 -0.8805
 4432TIP3   OH234854   0.878   5.785   1.032  0.0136  0.3143 -0.1986
 4432TIP3    H134855   0.849   5.743   0.951 -0.1162 -0.8182  0.4124
 4432TIP3    H234856   0.973   5.784   1.028 -0.0009  1.0873 -0.7463
 4433TIP3   OH234857   4.975   4.733   8.649 -0.3374 -0.3386  0.0340
 4433TIP3    H134858   4.904   4.703   8.705 -0.4697  1.0367  0.6496
 4433TIP3    H234859   5.055   4.714   8.699 -0.5020  1.8243  1.2261
 4434TIP3   OH234860   0.300   0.360   0.892  0.0422 -0.0510 -0.5892
 4434TIP3    H134861   0.240   0.408   0.949 -0.4505  0.3862 -1.4635
 4434TIP3    H234862   0.370   0.423   0.873  1.4506 -0.9076  1.3610
 4435TIP3   OH234863   2.583   2.167   8.059 -0.2108  0.1380 -0.0094
 4435TIP3    H134864   2.630   2.087   8.085 -0.4066  0.6662  2.0846
 4435TIP3    H234865   2.650   2.220   8.014  0.8195  0.2068  1.5386
 4436TIP3   OH234866   3.377   5.429   8.655 -0.1303  0.3671 -0.0066
 4436TIP3    H134867   3.429   5.384   8.588 -0.3148 -1.4779  1.0069
 4436TIP3    H234868   3.441   5.477   8.707  0.4649 -1.0075  0.5722
 4437TIP3   OH234869   4.006   6.260   7.762 -0.6366 -0.4933 -0.0191
 4437TIP3    H134870   3.937   6.235   7.701 -0.9590 -0.0363  0.1522
 4437TIP3    H234871   3.960   6.284   7.842 -0.3592  0.6024 -0.1625
 4438TIP3   OH234872   1.181   1.188   7.885 -0.0746  0.6720  0.2303
 4438TIP3    H134873   1.217   1.141   7.810 -3.0984  0.3331 -1.1449
 4438TIP3    H234874   1.197   1.281   7.865  3.2706  0.5248  1.5476
 4439TIP3   OH234875   5.881   0.130   8.680  0.3256  0.1339 -0.5199
 4439TIP3    H134876   5.966   0.094   8.653  0.3921 -0.2715  0.1937
 4439TIP3    H234877   5.897   0.163   8.769 -0.4344 -0.5505 -0.1247
 4440TIP3   OH234878   1.219   1.090   8.488 -0.9146 -0.5788 -0.5316
 4440TIP3    H134879   1.240   1.005   8.526  1.3538 -1.6103 -3.6907
 4440TIP3    H234880   1.161   1.069   8.415  0.1600  0.4725 -1.7244
 4441TIP3   OH234881   2.319   1.277   8.503 -0.6040 -0.7045 -0.1929
 4441TIP3    H134882   2.383   1.265   8.573 -0.7898 -0.0645  0.0925
 4441TIP3    H234883   2.327   1.369   8.478  0.4764 -1.2431 -2.0229
 4442TIP3   OH234884   5.115   6.152   0.447 -0.0856  0.3614  0.2913
 4442TIP3    H134885   5.070   6.110   0.520  2.7275 -0.6385  1.6325
 4442TIP3    H234886   5.090   6.244   0.452 -2.7798 -0.3011  0.1780
 4443TIP3   OH234887   0.189   6.736   0.700 -0.6233 -0.2586  0.1622
 4443TIP3    H134888   0.141   6.673   0.646 -1.0163 -0.1409  0.3751
 4443TIP3    H234889   0.280   6.709   0.692 -0.5694  0.3109 -1.2982
 4444TIP3   OH234890   4.555   1.990   8.472 -0.3629 -0.3197  0.5891
 4444TIP3    H134891   4.638   1.960   8.510  0.8900  2.6700  0.4617
 4444TIP3    H234892   4.504   2.022   8.546 -0.4678 -0.0967  0.4218
 4445TIP3   OH234893   3.001   0.349   0.797 -0.1070  0.0084 -0.5568
 4445TIP3    H134894   2.938   0.421   0.805 -0.1161 -0.1152  0.9063
 4445TIP3    H234895   3.087   0.392   0.796 -0.0084  0.0616  2.0089
 4446TIP3   OH234896   1.283   0.606   8.230 -0.1654 -0.6420 -0.5918
 4446TIP3    H134897   1.271   0.637   8.140  1.4114  0.5123 -0.4544
 4446TIP3    H234898   1.198   0.570   8.255 -0.6917 -0.7656 -2.4576
 4447TIP3   OH234899   3.677   4.037   6.955  0.1278 -0.8272  0.1227
 4447TIP3    H134900   3.594   4.070   6.920 -0.3787 -1.4876  0.6630
 4447TIP3    H234901   3.659   3.945   6.977  0.8912 -0.8757  0.5924
 4448TIP3   OH234902   3.649   1.809   2.118 -0.2136 -0.0221 -0.4439
 4448TIP3    H134903   3.629   1.903   2.114 -0.3067 -0.0075  0.3251
 4448TIP3    H234904   3.602   1.778   2.195  2.0848 -0.1556  0.9814
 4449TIP3   OH234905   0.389   6.782   1.358 -0.1838  0.3955 -0.0361
 4449TIP3    H134906   0.408   6.834   1.280 -3.0870  1.0126 -0.4351
 4449TIP3    H234907   0.467   6.792   1.412  1.6825  0.4574 -2.5320
 4450TIP3   OH234908   0.767   5.574   2.486 -0.0802  0.6303  0.1587
 4450TIP3    H134909   0.721   5.496   2.455 -0.8611  0.9172  0.5637
 4450TIP3    H234910   0.858   5.562   2.457 -0.1153 -0.5861  0.5174
 4451TIP3   OH234911   5.964   2.242   1.261  0.0269  0.4830  0.0320
 4451TIP3    H134912   6.056   2.231   1.285  0.1622  0.5463 -0.4511
 4451TIP3    H234913   5.952   2.184   1.187  0.3507  2.3359 -1.5508
 4452TIP3   OH234914   0.016   6.548   1.072 -0.0103 -0.3461  0.0953
 4452TIP3    H134915   0.002   6.515   0.983 -0.0699 -1.9221  0.6507
 4452TIP3    H234916  -0.004   6.473   1.128  1.2091  0.2591  1.3814
 4453TIP3   OH234917   0.746   2.394   1.448 -0.2855 -0.1585 -0.1024
 4453TIP3    H134918   0.772   2.483   1.474 -0.2734 -0.8572  2.5786
 4453TIP3    H234919   0.660   2.405   1.408  0.5421  1.2376 -1.6407
 4454TIP3   OH234920   0.659   2.260   0.637  0.7823  0.1139 -0.0431
 4454TIP3    H134921   0.656   2.337   0.581  2.9787  0.0233 -0.3426
 4454TIP3    H234922   0.703   2.193   0.584  2.8528  0.0070  1.7222
 4455TIP3   OH234923   0.740   2.483   6.737 -0.7126  0.9809  0.6627
 4455TIP3    H134924   0.763   2.521   6.822 -1.9522  0.6986  1.1473
 4455TIP3    H234925   0.730   2.559   6.679 -2.3647  1.3715  1.4164
 4456TIP3   OH234926   4.556   1.253   7.220 -0.2852 -0.6327 -0.0702
 4456TIP3    H134927   4.480   1.207   7.184 -1.1799  1.7281 -1.4519
 4456TIP3    H234928   4.519   1.313   7.285  0.0096  1.8913 -2.0588
 4457TIP3   OH234929   4.193   1.807   0.233  0.0261 -0.0236  0.2916
 4457TIP3    H134930   4.156   1.872   0.173 -0.1629  0.9072  1.3966
 4457TIP3    H234931   4.268   1.851   0.273 -0.8476 -0.0043  1.9949
 4458TIP3   OH234932   3.001   4.077   7.987 -0.4292  0.6662 -0.1732
 4458TIP3    H134933   3.092   4.105   7.976  0.2050 -0.1184  2.3249
 4458TIP3    H234934   3.001   3.986   7.959 -0.7969  1.0339 -1.4337
 4459TIP3   OH234935   2.862   6.090   0.728 -0.0276  0.1735  0.0539
 4459TIP3    H134936   2.901   6.142   0.657  0.8251 -0.1307  0.2856
 4459TIP3    H234937   2.878   5.999   0.702 -0.7161  0.0429  0.0884
 4460TIP3   OH234938   1.028   6.039   0.259  0.4620 -0.4503 -0.3174
 4460TIP3    H134939   1.086   6.089   0.318 -0.0697 -0.6539  0.3884
 4460TIP3    H234940   0.943   6.039   0.303  0.3960 -1.7887 -0.4148
 4461TIP3   OH234941   3.530   0.910   6.402  0.1991  0.0972 -0.1758
 4461TIP3    H134942   3.590   0.838   6.380  1.6937  0.3878  2.4949
 4461TIP3    H234943   3.455   0.897   6.344  1.0606 -2.7246 -0.8380
 4462TIP3   OH234944   3.976   4.742   7.189 -0.6778 -0.1750  0.3032
 4462TIP3    H134945   3.883   4.722   7.186 -0.5505 -0.7082 -0.0561
 4462TIP3    H234946   4.019   4.668   7.147 -0.2453  1.1580 -1.7705
 4463TIP3   OH234947   4.740   6.536   0.675  0.3420 -0.0554 -0.0332
 4463TIP3    H134948   4.727   6.482   0.596 -1.2465 -0.8057  0.6925
 4463TIP3    H234949   4.767   6.473   0.742  2.6749  0.7244 -0.1714
 4464TIP3   OH234950   4.728   2.872   8.318 -0.0422 -0.3072 -0.0203
 4464TIP3    H134951   4.643   2.914   8.326 -0.0892 -0.3517 -0.2768
 4464TIP3    H234952   4.790   2.935   8.354 -0.4607 -1.3279  2.6548
 4465TIP3   OH234953   1.406   0.875   8.191 -0.2669 -0.2420  0.0631
 4465TIP3    H134954   1.462   0.834   8.258 -0.1656 -0.5640 -0.2165
 4465TIP3    H234955   1.317   0.865   8.226 -0.4094 -2.0719 -0.6804
 4466TIP3   OH234956   2.618   1.528   7.788 -0.0861 -0.4135 -0.5758
 4466TIP3    H134957   2.688   1.472   7.754 -0.3538 -0.8858 -0.3581
 4466TIP3    H234958   2.662   1.583   7.854  0.1039 -0.6257 -0.5234
 4467TIP3   OH234959   4.093   0.418   8.604 -0.2309 -0.0403  0.3973
 4467TIP3    H134960   4.173   0.465   8.581 -0.9208  0.9185 -0.0842
 4467TIP3    H234961   4.057   0.466   8.679 -1.5001  0.8925 -0.7589
 4468TIP3   OH234962   1.760   2.282   7.126  0.2103  1.0286 -0.4349
 4468TIP3    H134963   1.674   2.240   7.122  0.1432  0.6800  2.5565
 4468TIP3    H234964   1.821   2.211   7.142  0.9541  1.4134 -1.4223
 4469TIP3   OH234965   5.645   4.823   0.903  0.5069  0.6776  0.6119
 4469TIP3    H134966   5.681   4.897   0.853 -0.7510  0.2171 -1.0615
 4469TIP3    H234967   5.676   4.745   0.857  0.0606  0.2120  1.0857
 4470TIP3   OH234968   1.467   4.057   7.436  0.1211 -0.3550 -0.4223
 4470TIP3    H134969   1.407   4.008   7.492  0.2925  0.7780  0.7839
 4470TIP3    H234970   1.554   4.035   7.469  0.1725  1.4365  0.7663
 4471TIP3   OH234971   6.419   5.152   8.637 -0.3801 -0.1358  0.0282
 4471TIP3    H134972   6.452   5.101   8.711  0.0710 -0.6563 -0.5160
 4471TIP3    H234973   6.358   5.092   8.593 -0.7170  0.2034  0.0296
 4472TIP3   OH234974   4.806   1.563   0.031  0.1803  0.0432  0.1826
 4472TIP3    H134975   4.819   1.617   0.110 -1.3691 -0.2886  0.6937
 4472TIP3    H234976   4.842   1.617  -0.040 -0.9470  1.6039  0.7339
 4473TIP3   OH234977   5.404   4.036   7.692 -0.1143  0.4020  0.2652
 4473TIP3    H134978   5.471   4.046   7.760 -2.1482  0.7180  2.3435
 4473TIP3    H234979   5.326   4.078   7.729 -2.1460 -2.0019 -1.0131
 4474TIP3   OH234980   3.111   1.929   6.330  0.0311 -0.3506 -0.1550
 4474TIP3    H134981   3.108   1.833   6.325  0.0214 -0.3593  0.0204
 4474TIP3    H234982   3.188   1.947   6.383 -0.0151 -0.2618 -0.1198
 4475TIP3   OH234983   2.442   4.505   1.626  0.3883 -0.5988 -0.9588
 4475TIP3    H134984   2.452   4.440   1.695 -1.2864 -0.8704 -0.9329
 4475TIP3    H234985   2.531   4.533   1.606  0.9328  1.3961  3.1087
 4476TIP3   OH234986   3.621   6.022   0.583 -0.4367 -0.3131 -0.5604
 4476TIP3    H134987   3.705   6.055   0.615  0.3944 -0.0205 -2.8252
 4476TIP3    H234988   3.614   5.934   0.620  0.7192 -0.2146 -0.0637
 4477TIP3   OH234989   4.395   6.719   8.616 -0.7001  0.2877 -0.0057
 4477TIP3    H134990   4.486   6.731   8.642 -0.9554  0.4986  0.8407
 4477TIP3    H234991   4.378   6.788   8.552 -0.4303  0.6323  0.2913
 4478TIP3   OH234992   2.645   2.542   0.101 -0.4423  0.0805 -0.6026
 4478TIP3    H134993   2.692   2.459   0.101  3.5803  2.1049 -1.5606
 4478TIP3    H234994   2.652   2.574   0.011 -2.9998  0.9893 -0.5666
 4479TIP3   OH234995   4.713   3.578   6.851  0.5182 -0.0461  0.0537
 4479TIP3    H134996   4.765   3.631   6.791 -0.7163  0.2259 -0.8117
 4479TIP3    H234997   4.742   3.488   6.834  1.4192  0.1909  0.3172
 4480TIP3   OH234998   1.921   2.237   0.099  0.1972  0.0497  0.1280
 4480TIP3    H134999   1.836   2.237   0.055  0.1013  2.4631  0.1735
 4480TIP3    H235000   1.913   2.305   0.166  2.4797  1.0946 -0.5561
 4481TIP3   OH235001   3.327   6.042   0.784 -0.0983 -0.2882  0.1966
 4481TIP3    H135002   3.293   6.108   0.845  3.4731  2.3815 -0.4064
 4481TIP3    H235003   3.416   6.024   0.815  0.8066 -1.0276 -2.5768
 4482TIP3   OH235004   1.177   6.073   6.893  0.2990  0.0986 -0.2823
 4482TIP3    H135005   1.233   6.150   6.904 -0.3120  0.4378  0.5580
 4482TIP3    H235006   1.215   6.008   6.952 -0.4713  0.5081  0.7103
 4483TIP3   OH235007   2.703   0.708   7.523  0.2506  0.1003  0.5069
 4483TIP3    H135008   2.735   0.708   7.433  0.4257 -0.2627  0.5681
 4483TIP3    H235009   2.730   0.793   7.558 -1.2295  0.9399 -0.2681
 4484TIP3   OH235010   5.312   3.694   7.753  0.6291 -0.6989 -0.6540
 4484TIP3    H135011   5.399   3.669   7.784  1.4509 -0.2021 -2.4180
 4484TIP3    H235012   5.314   3.789   7.748 -0.3840 -0.6103  0.2456
 4485TIP3   OH235013   3.524   2.421   7.057  0.2451 -0.1859 -0.0503
 4485TIP3    H135014   3.429   2.415   7.044  0.1694 -2.2441  1.0686
 4485TIP3    H235015   3.561   2.357   6.996  0.8078 -0.2754  0.3777
 4486TIP3   OH235016   4.916   2.367   7.959 -0.1549 -0.0111 -0.5559
 4486TIP3    H135017   4.887   2.379   8.049  0.7850  1.1094 -0.3770
 4486TIP3    H235018   4.893   2.449   7.915  1.6394  0.4704 -0.6802
 4487TIP3   OH235019   6.779   6.495   7.034  0.4046 -0.5775 -0.7131
 4487TIP3    H135020   6.773   6.418   6.977  0.6859 -0.2078 -1.2393
 4487TIP3    H235021   6.862   6.484   7.081 -0.4129 -1.5329  0.5846
 4488TIP3   OH235022   3.164   4.742   6.226  0.0062 -0.1032 -0.3551
 4488TIP3    H135023   3.181   4.648   6.226  0.7627  0.0205 -0.9292
 4488TIP3    H235024   3.235   4.779   6.173  0.3782  0.9128  0.8102
 4489TIP3   OH235025   3.759   0.086   8.154  0.4724  0.1638 -0.1644
 4489TIP3    H135026   3.732   0.091   8.062  1.6842  1.3661 -0.4837
 4489TIP3    H235027   3.842   0.039   8.152  0.6717  0.4879  0.2638
 4490TIP3   OH235028   2.616   5.435   1.931 -0.1979 -0.1943  0.4468
 4490TIP3    H135029   2.686   5.489   1.895  1.2038 -1.8891  0.5042
 4490TIP3    H235030   2.641   5.422   2.023 -0.8335 -0.4573  0.5903
 4491TIP3   OH235031   1.224   3.538   1.430 -0.3644  0.2811 -0.2088
 4491TIP3    H135032   1.188   3.548   1.342  0.6442  0.1710 -0.6454
 4491TIP3    H235033   1.305   3.589   1.429 -0.2297  0.0968  0.5865
 4492TIP3   OH235034   3.087   3.864   8.232 -0.0598 -0.1896 -0.7339
 4492TIP3    H135035   3.134   3.813   8.298 -0.7618  0.0685 -0.0220
 4492TIP3    H235036   3.131   3.949   8.232  1.1700 -0.7706 -1.9859
 4493TIP3   OH235037   1.734   2.997   8.619 -0.1487  0.1062 -0.3747
 4493TIP3    H135038   1.751   3.004   8.525  1.4706 -2.3402 -0.3515
 4493TIP3    H235039   1.644   2.964   8.624 -0.4557  0.8112 -1.0295
 4494TIP3   OH235040   4.631   2.641   7.943 -0.0913 -0.4876  0.4974
 4494TIP3    H135041   4.692   2.614   7.875 -0.2626 -1.1143  0.5855
 4494TIP3    H235042   4.601   2.559   7.983 -0.5160 -0.1606  0.8669
 4495TIP3   OH235043   2.444   6.055   7.931 -0.3020  0.2841  0.0844
 4495TIP3    H135044   2.380   6.101   7.986 -0.2540  1.9941 -1.2072
 4495TIP3    H235045   2.511   6.026   7.993 -1.1118  0.6122  1.1576
 4496TIP3   OH235046   0.683   4.001   7.516 -0.1108  0.1460  0.0601
 4496TIP3    H135047   0.723   3.947   7.584  0.2481 -1.1730 -1.1511
 4496TIP3    H235048   0.604   3.953   7.491 -0.4106  0.7805 -0.2356
 4497TIP3   OH235049   1.158   6.402   8.262  0.3961 -0.7899  0.4672
 4497TIP3    H135050   1.239   6.378   8.216  0.0039 -1.7594  0.2660
 4497TIP3    H235051   1.090   6.394   8.196  0.3335  1.8454  0.1130
 4498TIP3   OH235052   3.358   4.461   7.857  0.3976 -0.1229 -0.4308
 4498TIP3    H135053   3.418   4.425   7.792 -1.6571 -0.6296 -2.1465
 4498TIP3    H235054   3.411   4.523   7.907  2.2413 -0.2988 -2.0655
 4499TIP3   OH235055   4.286   0.487   6.817 -0.0342 -0.5328 -0.6975
 4499TIP3    H135056   4.213   0.426   6.804  0.4187 -0.9646 -1.3394
 4499TIP3    H235057   4.316   0.507   6.728  0.4327 -0.1234 -0.4550
 4500TIP3   OH235058   4.820   1.427   0.661 -0.3139 -1.0645  0.3034
 4500TIP3    H135059   4.749   1.363   0.652  0.0547 -1.2493 -1.6295
 4500TIP3    H235060   4.867   1.423   0.578  0.3154  1.0445  0.5135
 4501TIP3   OH235061   0.212   6.539   0.258  0.2644 -0.4100 -0.0913
 4501TIP3    H135062   0.286   6.576   0.209 -1.7023  5.5727  0.6348
 4501TIP3    H235063   0.145   6.522   0.191  0.1320  0.4372 -0.1785
 4502TIP3   OH235064   5.195   2.664   1.299 -0.5360 -0.4200  0.0562
 4502TIP3    H135065   5.244   2.642   1.219  1.6061 -1.0676  1.4627
 4502TIP3    H235066   5.105   2.641   1.279 -0.0991 -0.3565 -2.2481
 4503TIP3   OH235067   1.069   5.502   8.697  0.2544  0.2951  0.6462
 4503TIP3    H135068   1.120   5.509   8.778  1.2380  1.6663 -0.0667
 4503TIP3    H235069   1.134   5.497   8.627 -0.5851  0.8085 -0.1997
 4504TIP3   OH235070   5.243   4.446   6.547 -0.0216  0.6855 -0.1697
 4504TIP3    H135071   5.330   4.461   6.583  0.1652 -0.3511 -0.1567
 4504TIP3    H235072   5.251   4.364   6.498 -0.6260  1.3385 -1.3994
 4505TIP3   OH235073   1.875   1.537   7.174 -0.6698 -0.5745  0.4383
 4505TIP3    H135074   1.809   1.573   7.233 -1.3223 -1.0671  0.0231
 4505TIP3    H235075   1.959   1.560   7.215 -1.0999 -0.3623  1.2210
 4506TIP3   OH235076   1.106   0.020   6.305  0.2890  0.2526  0.2398
 4506TIP3    H135077   1.046   0.071   6.360  2.1975  1.5932  1.2064
 4506TIP3    H235078   1.070   0.028   6.217 -1.3920  0.2888  0.8849
 4507TIP3   OH235079   3.838   2.099   7.891  0.3776 -0.6946  0.8050
 4507TIP3    H135080   3.810   2.067   7.805  0.5353  0.5964  0.2482
 4507TIP3    H235081   3.933   2.107   7.884  0.3620 -0.2985  0.9891
 4508TIP3   OH235082   3.752   5.735   7.448  1.0433 -0.8704  0.2395
 4508TIP3    H135083   3.728   5.827   7.458  0.1924 -0.7855 -1.9241
 4508TIP3    H235084   3.707   5.690   7.519  2.5191  0.4922  2.1289
 4509TIP3   OH235085   4.199   2.059   0.857  0.0766 -0.4989  0.1419
 4509TIP3    H135086   4.264   1.997   0.889 -0.6928 -1.2608  0.2805
 4509TIP3    H235087   4.122   2.005   0.837 -0.3047  0.2951 -0.6041
 4510TIP3   OH235088   5.077   0.688   7.287 -0.7190 -0.4759  0.5588
 4510TIP3    H135089   5.003   0.730   7.330 -0.0864  0.7149  0.5400
 4510TIP3    H235090   5.154   0.733   7.321  0.0572 -2.0199  0.9548
 4511TIP3   OH235091   0.926   5.397   7.620  0.3594 -0.1830  0.0301
 4511TIP3    H135092   0.893   5.458   7.687  2.4261 -0.1600  1.1007
 4511TIP3    H235093   0.899   5.436   7.537 -3.0182 -0.6351  0.7568
 4512TIP3   OH235094   0.045   0.767   8.422  0.3182 -0.5516  0.2232
 4512TIP3    H135095  -0.019   0.712   8.467  0.2165 -1.9127 -1.4737
 4512TIP3    H235096   0.048   0.848   8.473 -0.4181 -1.6657  2.1174
 4513TIP3   OH235097   6.139   6.332   7.399  0.0722  0.7980 -0.7005
 4513TIP3    H135098   6.152   6.379   7.317  0.0408 -2.0967 -2.4966
 4513TIP3    H235099   6.151   6.239   7.376 -0.0844 -0.1473  2.5429
 4514TIP3   OH235100   1.482   4.117   8.403  0.1388 -0.0748 -0.0643
 4514TIP3    H135101   1.387   4.117   8.391 -0.1023 -0.0645  1.6070
 4514TIP3    H235102   1.499   4.192   8.460  0.8651 -1.3458  1.4673
 4515TIP3   OH235103   3.178   2.546   0.507  0.4618  0.1346 -0.0565
 4515TIP3    H135104   3.225   2.584   0.581  0.3311 -1.5013  0.8978
 4515TIP3    H235105   3.090   2.528   0.541 -0.7490  2.5028 -1.6141
 4516TIP3   OH235106   6.778   4.850   0.685 -0.1281 -0.2698 -0.2854
 4516TIP3    H135107   6.832   4.902   0.745 -2.8672  1.3706  1.0062
 4516TIP3    H235108   6.689   4.861   0.719 -1.9356  0.8282 -4.6951
 4517TIP3   OH235109   6.588   4.502   8.113  0.5840  0.0076  0.3110
 4517TIP3    H135110   6.637   4.480   8.034 -0.4648 -1.3508 -0.0143
 4517TIP3    H235111   6.526   4.430   8.123 -0.2506  0.8582  1.5988
 4518TIP3   OH235112   0.837   6.132   2.033  0.0770  0.3543 -0.1917
 4518TIP3    H135113   0.832   6.223   2.061 -0.3042  0.4146 -0.4473
 4518TIP3    H235114   0.851   6.083   2.114  0.4089  0.6496 -0.0697
 4519TIP3   OH235115   1.756   3.510   6.165  0.1770 -0.2771 -0.3977
 4519TIP3    H135116   1.791   3.535   6.251 -0.1380 -1.2481  0.0262
 4519TIP3    H235117   1.737   3.417   6.173 -0.1918 -0.3012 -1.4165
 4520TIP3   OH235118   3.927   4.103   8.744  0.1279  0.2523 -0.2910
 4520TIP3    H135119   4.000   4.048   8.714  1.1988  1.9065 -0.8707
 4520TIP3    H235120   3.960   4.142   8.825 -0.4140  0.4238 -0.1558
 4521TIP3   OH235121   2.970   2.667   8.398 -0.3808 -0.9189  0.4608
 4521TIP3    H135122   3.038   2.601   8.382 -0.8756 -1.7889  1.7803
 4521TIP3    H235123   2.934   2.685   8.311  0.6174 -1.4411 -0.0891
 4522TIP3   OH235124   0.820   5.122   0.996 -0.2930 -0.5765  0.2509
 4522TIP3    H135125   0.774   5.160   0.921 -0.8195 -0.5743  0.5760
 4522TIP3    H235126   0.842   5.197   1.051  1.2697 -0.4069 -0.5148
 4523TIP3   OH235127   0.237   5.736   1.369 -0.5314  0.0132  0.8768
 4523TIP3    H135128   0.275   5.799   1.308 -0.2010 -0.6405  0.3971
 4523TIP3    H235129   0.157   5.778   1.401 -1.2962 -0.0822 -0.8336
 4524TIP3   OH235130   0.603   1.852   7.080 -0.4234 -0.0913 -0.3530
 4524TIP3    H135131   0.662   1.890   7.016 -2.1283  0.1576 -1.8743
 4524TIP3    H235132   0.544   1.923   7.105 -0.7875 -0.5907  0.2733
 4525TIP3   OH235133   5.760   1.832   6.688  0.0584 -0.3604 -0.5198
 4525TIP3    H135134   5.796   1.815   6.775 -0.2404  0.9999 -0.0985
 4525TIP3    H235135   5.770   1.749   6.641  2.6973 -0.3749 -0.0860
 4526TIP3   OH235136   0.432   0.955   7.418  0.2324  0.2394 -0.4867
 4526TIP3    H135137   0.428   0.965   7.322  1.3365 -0.9847 -0.6841
 4526TIP3    H235138   0.440   1.045   7.450 -1.7897  0.8253 -1.4072
 4527TIP3   OH235139   3.011   1.774   8.178 -0.4489  0.5731  0.0041
 4527TIP3    H135140   2.984   1.802   8.265 -1.7566  1.6393 -0.7000
 4527TIP3    H235141   3.084   1.830   8.156  0.7083 -0.5342  0.8712
 4528TIP3   OH235142   2.708   1.257   7.309  0.6391  0.8122  0.3147
 4528TIP3    H135143   2.629   1.310   7.323  0.4540  0.7681 -0.4706
 4528TIP3    H235144   2.706   1.193   7.379 -1.4424 -0.8197 -1.0848
 4529TIP3   OH235145   4.349   1.786   8.024  0.1953 -0.0321  0.5292
 4529TIP3    H135146   4.335   1.865   7.973  1.2699 -0.9935 -1.3922
 4529TIP3    H235147   4.335   1.812   8.115 -0.9516  1.9705 -0.1698
 4530TIP3   OH235148   2.143   4.451   7.152 -0.4468  0.5462  0.3622
 4530TIP3    H135149   2.049   4.433   7.155 -0.3804 -0.1731 -1.1821
 4530TIP3    H235150   2.152   4.525   7.091 -0.0601  1.1484  1.1190
 4531TIP3   OH235151   0.934   3.133   6.452 -0.0661  0.1502 -0.4481
 4531TIP3    H135152   0.918   3.042   6.474  1.5642 -0.1791 -0.5462
 4531TIP3    H235153   0.881   3.149   6.373 -1.2309 -0.3644  0.2116
 4532TIP3   OH235154   2.955   0.465   6.953  0.5618 -0.1034 -0.2619
 4532TIP3    H135155   3.024   0.530   6.956  0.6843 -0.1930 -1.0582
 4532TIP3    H235156   3.000   0.382   6.934  0.3221 -0.2866 -0.0436
 4533TIP3   OH235157   1.413   3.205   1.544  0.4992  0.4781 -0.7841
 4533TIP3    H135158   1.457   3.135   1.592 -0.0806 -0.1144 -1.1192
 4533TIP3    H235159   1.366   3.254   1.612  0.3865  0.1605 -0.6302
 4534TIP3   OH235160   5.678   5.251   2.225 -0.0749  0.3083 -0.1860
 4534TIP3    H135161   5.772   5.238   2.237  0.0042  2.1431  1.5829
 4534TIP3    H235162   5.645   5.275   2.311 -2.2703 -0.6629 -0.6780
 4535TIP3   OH235163   5.748   6.343   7.776 -0.7724  0.3990  0.2404
 4535TIP3    H135164   5.826   6.297   7.745 -0.9799 -1.0708  1.7671
 4535TIP3    H235165   5.724   6.298   7.857 -3.5536  0.4041 -0.4788
 4536TIP3   OH235166   6.179   1.289   7.473 -0.1496 -0.1491  0.6048
 4536TIP3    H135167   6.166   1.371   7.520 -0.3068 -0.1278  0.5244
 4536TIP3    H235168   6.273   1.274   7.478  0.0753  0.7619 -0.5933
 4537TIP3   OH235169   2.312   4.081   7.335 -0.6289  0.4856 -0.0843
 4537TIP3    H135170   2.350   4.024   7.401 -2.2035 -1.0161 -0.3844
 4537TIP3    H235171   2.243   4.129   7.381 -1.0568  0.1809 -0.3992
 4538TIP3   OH235172   0.999   0.313   7.987  0.4379 -0.0226 -0.3834
 4538TIP3    H135173   0.982   0.407   7.996  2.1184  0.2950 -0.0859
 4538TIP3    H235174   0.974   0.293   7.897  0.6340  0.8540 -0.6486
 4539TIP3   OH235175   4.446   4.313   8.279  0.7041 -0.2446 -0.3443
 4539TIP3    H135176   4.485   4.268   8.354  1.5259  0.2798 -0.4479
 4539TIP3    H235177   4.488   4.399   8.278 -0.6954  0.4744 -0.2694
 4540TIP3   OH235178   5.017   0.971   7.809  0.0555 -0.3145 -0.5496
 4540TIP3    H135179   5.073   0.961   7.732 -0.0323 -1.4892 -0.4766
 4540TIP3    H235180   4.954   0.899   7.802  0.7486 -1.1179  1.2230
 4541TIP3   OH235181   4.215   2.776   7.474 -0.0024 -0.1424 -0.5331
 4541TIP3    H135182   4.194   2.842   7.539 -2.0108  0.3567 -1.6113
 4541TIP3    H235183   4.273   2.820   7.412 -1.4179  0.6838 -1.3038
 4542TIP3   OH235184   5.240   5.381   7.014 -0.1545 -0.2006 -0.2956
 4542TIP3    H135185   5.191   5.460   6.991  1.0966  0.9316  0.7987
 4542TIP3    H235186   5.194   5.311   6.968 -2.6823  0.8054  0.5180
 4543TIP3   OH235187   2.755   4.186   1.051 -0.0586 -0.1159  0.4597
 4543TIP3    H135188   2.732   4.247   0.981  2.4447 -0.8469 -1.1261
 4543TIP3    H235189   2.703   4.107   1.033 -0.0432 -0.0064 -0.0693
 4544TIP3   OH235190   0.102   1.957   0.309  0.0148  0.2688 -0.3555
 4544TIP3    H135191   0.047   2.028   0.277 -0.2600  0.0752 -0.3151
 4544TIP3    H235192   0.111   1.898   0.235  0.8018  0.6742 -0.6000
 4545TIP3   OH235193   0.259   4.217   0.822  0.1073 -0.1735  0.0348
 4545TIP3    H135194   0.337   4.196   0.771  1.0838  0.6149  1.1532
 4545TIP3    H235195   0.196   4.250   0.758  0.6731 -0.8543 -0.8835
 4546TIP3   OH235196   6.525   5.917   1.062 -0.1774 -0.2573 -0.4117
 4546TIP3    H135197   6.484   5.852   1.119  0.4067 -0.3637 -0.1035
 4546TIP3    H235198   6.588   5.962   1.119  0.6014 -0.5354 -1.0272
 4547TIP3   OH235199   1.798   4.908   1.359  0.1335 -0.6452  0.4214
 4547TIP3    H135200   1.830   4.987   1.315 -0.4224 -1.7158 -2.1013
 4547TIP3    H235201   1.877   4.866   1.392  0.7215 -0.2908 -0.4787
 4548TIP3   OH235202   0.930   5.094   6.962 -0.4074  0.3572  0.1258
 4548TIP3    H135203   0.996   5.114   7.028  0.2595  1.1691 -0.7627
 4548TIP3    H235204   0.969   5.122   6.880 -1.7855  0.6842 -0.4453
 4549TIP3   OH235205   5.134   1.190   7.493  0.5006  0.2395  0.1273
 4549TIP3    H135206   5.227   1.182   7.470  0.8775 -0.8444  1.8934
 4549TIP3    H235207   5.120   1.126   7.563 -1.9739 -0.8420 -1.2007
 4550TIP3   OH235208   0.297   3.859   7.057 -0.3885  0.4509  0.3864
 4550TIP3    H135209   0.317   3.943   7.015  1.7297 -0.6345 -0.9434
 4550TIP3    H235210   0.266   3.804   6.985 -0.7287 -0.2433  1.0489
 4551TIP3   OH235211   1.946   0.056   7.659 -0.1288  0.1948  0.1204
 4551TIP3    H135212   1.972   0.083   7.747 -0.2615  1.2175 -0.1444
 4551TIP3    H235213   1.914  -0.034   7.669  0.2597  0.1553  1.0351
 4552TIP3   OH235214   5.939   5.279   7.781 -0.1003  0.3370  0.1207
 4552TIP3    H135215   5.959   5.230   7.701 -1.5563 -1.2647  0.6768
 4552TIP3    H235216   5.898   5.359   7.751  1.6921  0.9665 -0.7941
 4553TIP3   OH235217   0.847   0.446   1.598 -0.0762 -0.4800  0.0193
 4553TIP3    H135218   0.753   0.443   1.612 -0.1407 -0.9829 -0.4685
 4553TIP3    H235219   0.874   0.530   1.634 -1.0414  0.6423 -1.7006
 4554TIP3   OH235220   0.882   1.127   7.188  0.0878  0.4826  0.1517
 4554TIP3    H135221   0.856   1.181   7.263 -0.6437 -0.0501  0.2910
 4554TIP3    H235222   0.811   1.138   7.124 -2.2736 -3.3756  1.7329
 4555TIP3   OH235223   6.369   2.836   7.435 -0.5072  0.0691 -0.6689
 4555TIP3    H135224   6.283   2.830   7.477  0.3739  0.1427  1.2809
 4555TIP3    H235225   6.354   2.810   7.345 -2.4310 -0.6917 -0.1758
 4556TIP3   OH235226   4.120   3.901   0.882 -0.3418 -0.0087  0.0255
 4556TIP3    H135227   4.205   3.900   0.837 -0.0183 -1.0290  0.6138
 4556TIP3    H235228   4.065   3.959   0.829  0.5783  0.2853 -0.6344
 4557TIP3   OH235229   0.281   5.219   7.130 -0.0875  0.0796 -0.5617
 4557TIP3    H135230   0.205   5.163   7.115 -0.4198  0.2101  0.5991
 4557TIP3    H235231   0.246   5.308   7.126  0.1344  0.1581 -0.7391
 4558TIP3   OH235232   5.103   1.963   2.198  0.0757  0.0770  0.1025
 4558TIP3    H135233   5.082   2.054   2.176 -1.2076 -0.0008  0.8695
 4558TIP3    H235234   5.175   1.940   2.140  0.5832  1.6579  0.0599
 4559TIP3   OH235235   1.858   3.533   6.432  0.2285  0.0188  0.4274
 4559TIP3    H135236   1.931   3.472   6.443  1.3088  1.2965  0.5883
 4559TIP3    H235237   1.789   3.498   6.488  1.0099 -0.7628  0.9314
 4560TIP3   OH235238   6.581   3.914   8.609  0.3650 -0.2901  0.0919
 4560TIP3    H135239   6.640   3.988   8.624  1.3518 -0.9221 -0.5908
 4560TIP3    H235240   6.534   3.904   8.692  0.0550  1.2204  0.1401
 4561TIP3   OH235241   3.775   5.516   6.468 -0.0048 -0.2826 -0.0726
 4561TIP3    H135242   3.748   5.601   6.504 -0.5455 -0.3713 -0.2622
 4561TIP3    H235243   3.870   5.516   6.477 -0.0418  0.1324  0.4003
 4562TIP3   OH235244   4.095   5.144   1.448 -0.3395 -0.5154 -0.1025
 4562TIP3    H135245   4.118   5.137   1.541 -0.2501 -1.3273 -0.1773
 4562TIP3    H235246   4.060   5.232   1.439 -2.1280 -1.0372  1.1101
 4563TIP3   OH235247   2.291   0.879   0.894  0.2594  0.1790  0.2983
 4563TIP3    H135248   2.263   0.969   0.909 -2.4513 -0.3649 -0.8694
 4563TIP3    H235249   2.335   0.881   0.809  1.9880  0.6833  1.1687
 4564TIP3   OH235250   4.181   3.791   7.192 -0.2824  0.1947 -0.0729
 4564TIP3    H135251   4.202   3.748   7.109 -1.8695 -0.8447  0.0066
 4564TIP3    H235252   4.264   3.827   7.223  1.1360 -2.5835 -0.3189
 4565TIP3   OH235253   3.591   5.283   6.473 -0.6812 -0.1296  0.1771
 4565TIP3    H135254   3.665   5.333   6.508 -1.7604  1.6030  0.1163
 4565TIP3    H235255   3.514   5.332   6.501 -1.8077 -1.6271 -0.1690
 4566TIP3   OH235256   0.139   0.478   7.326 -0.2210  0.0308 -0.4949
 4566TIP3    H135257   0.198   0.462   7.252  0.8650 -2.1679  0.7702
 4566TIP3    H235258   0.193   0.522   7.391 -1.3638  2.6516 -1.1747
 4567TIP3   OH235259   3.675   0.313   7.129  0.2933  0.1026 -0.2666
 4567TIP3    H135260   3.601   0.254   7.117  0.8177 -0.3330 -1.4380
 4567TIP3    H235261   3.688   0.314   7.224 -1.4253  0.4746 -0.0018
 4568TIP3   OH235262   4.273   4.854   8.445  0.5555 -0.0721  0.1402
 4568TIP3    H135263   4.178   4.852   8.431  0.2637  1.0418  1.6749
 4568TIP3    H235264   4.302   4.929   8.392  0.2278  0.9269  1.3278
 4569TIP3   OH235265   4.965   3.424   7.330 -0.1215  0.3564  0.3704
 4569TIP3    H135266   4.910   3.454   7.256 -0.8528  0.5886  0.9928
 4569TIP3    H235267   4.971   3.500   7.387 -0.5648 -0.1707  1.1331
 4570TIP3   OH235268   2.956   6.749   8.736  0.0025 -0.2579 -0.1668
 4570TIP3    H135269   2.988   6.811   8.671 -0.9108 -0.3029 -0.6669
 4570TIP3    H235270   2.871   6.721   8.704  0.9899 -2.9394 -0.7671
 4571TIP3   OH235271   2.302   0.558   7.237 -0.4025 -0.8491 -0.7807
 4571TIP3    H135272   2.268   0.647   7.228  0.3508 -0.4787 -0.1062
 4571TIP3    H235273   2.383   0.568   7.287 -1.0771 -2.0620  0.6373
 4572TIP3   OH235274   4.849   5.405   7.525  0.1857 -0.1496  0.1261
 4572TIP3    H135275   4.767   5.452   7.512 -0.4218 -0.7190  1.6481
 4572TIP3    H235276   4.898   5.459   7.587  0.6783 -0.1352 -0.2763
 4573TIP3   OH235277   1.038   2.556   8.793  0.7443  0.4734  0.1768
 4573TIP3    H135278   0.958   2.568   8.844  1.0928  1.2300  0.5525
 4573TIP3    H235279   1.006   2.540   8.704  0.1852  1.6038  0.1603
 4574TIP3   OH235280   6.170   0.657   0.256 -0.6338 -0.5021  0.2124
 4574TIP3    H135281   6.164   0.735   0.201  1.2642 -0.9743 -0.7406
 4574TIP3    H235282   6.183   0.690   0.345  0.3794  0.2846 -0.2178
 4575TIP3   OH235283   3.882   4.844   1.372  0.7092  0.2352  0.1530
 4575TIP3    H135284   3.965   4.874   1.335  1.5811 -1.3429  0.7100
 4575TIP3    H235285   3.908   4.787   1.445 -0.8503 -0.8500 -0.0882
 4576TIP3   OH235286   3.602   0.114   6.819  0.4375 -0.8221  0.3783
 4576TIP3    H135287   3.518   0.150   6.848  0.0097  0.2371 -1.9880
 4576TIP3    H235288   3.579   0.039   6.764  1.0076 -0.4685 -0.3687
 4577TIP3   OH235289   4.500   4.556   8.211  0.2453 -0.5161 -0.4512
 4577TIP3    H135290   4.489   4.644   8.247  1.1265 -0.5885  0.0250
 4577TIP3    H235291   4.534   4.571   8.122  3.5923 -0.3379  0.7195
 4578TIP3   OH235292   1.888   6.770   8.111 -0.3441 -0.7633  0.5276
 4578TIP3    H135293   1.910   6.704   8.044  1.8527  1.5598 -1.2078
 4578TIP3    H235294   1.828   6.829   8.067  3.6711  2.7481 -0.9115
 4579TIP3   OH235295   0.280   3.828   8.599  0.8279  0.1048 -0.1614
 4579TIP3    H135296   0.195   3.820   8.555  0.5354 -2.0431  0.6541
 4579TIP3    H235297   0.283   3.918   8.630 -1.1319  0.2534 -0.2766
 4580TIP3   OH235298   4.057   3.922   8.589  0.8706  0.5593  0.2370
 4580TIP3    H135299   4.048   3.912   8.494  1.1641 -0.1224  0.2758
 4580TIP3    H235300   4.077   3.834   8.621  3.4300  1.1984  0.6160
 4581TIP3   OH235301   6.024   2.638   6.635  0.1151  0.0012 -0.0114
 4581TIP3    H135302   6.044   2.632   6.541  0.4733  0.3587  0.0366
 4581TIP3    H235303   6.110   2.631   6.678 -0.2125 -2.1041  0.4008
 4582TIP3   OH235304   0.159   4.513   8.210 -0.3716 -0.2889  0.5726
 4582TIP3    H135305   0.236   4.462   8.236 -0.0085  0.3471  0.7515
 4582TIP3    H235306   0.169   4.525   8.116  1.3366  2.3297  0.9818
 4583TIP3   OH235307   4.502   5.505   6.856 -0.5871  0.0255 -0.2172
 4583TIP3    H135308   4.413   5.482   6.829 -1.3432 -0.3453  2.3189
 4583TIP3    H235309   4.494   5.594   6.889 -0.4518 -0.6319  1.6856
 4584TIP3   OH235310   3.292   6.338   1.281  0.4412 -0.0600  0.1541
 4584TIP3    H135311   3.324   6.408   1.224  0.5355 -0.3084 -0.1016
 4584TIP3    H235312   3.367   6.278   1.288  0.0051 -0.7025 -0.5361
 4585TIP3   OH235313   3.024   5.939   6.536  0.0271 -0.3260 -0.1575
 4585TIP3    H135314   2.935   5.968   6.514 -0.5896  1.0719  3.4848
 4585TIP3    H235315   3.079   6.014   6.515  0.2394 -0.7921 -1.3651
 4586TIP3   OH235316   0.058   6.506   0.036 -0.3100 -0.4102  0.3395
 4586TIP3    H135317   0.101   6.542  -0.041  1.1339 -2.9486 -0.1453
 4586TIP3    H235318  -0.024   6.555   0.043  0.5117  1.3781 -1.4676
 4587TIP3   OH235319   5.466   1.198   7.037 -0.1517 -0.2377  0.5581
 4587TIP3    H135320   5.470   1.156   7.123  0.0017  0.8739  1.1118
 4587TIP3    H235321   5.445   1.290   7.056 -0.4398 -0.0495 -0.6152
 4588TIP3   OH235322   0.248   3.017   8.137  0.3846  1.0061 -0.4206
 4588TIP3    H135323   0.280   3.003   8.049 -0.1434 -0.5593 -0.3991
 4588TIP3    H235324   0.303   2.962   8.192  1.2419  2.5798  0.3705
 4589TIP3   OH235325   5.423   1.669   1.092 -0.1124 -0.2405  0.1092
 4589TIP3    H135326   5.498   1.709   1.048  1.8226 -3.0040  0.5974
 4589TIP3    H235327   5.450   1.661   1.183 -1.1894 -0.8866  0.3894
 4590TIP3   OH235328   0.867   6.339   8.784  0.2683 -0.2187 -0.4045
 4590TIP3    H135329   0.915   6.329   8.702  1.6424  1.7059  0.0859
 4590TIP3    H235330   0.880   6.257   8.831  1.7410 -0.3472 -0.9956
 4591TIP3   OH235331   0.173   1.792   0.935 -0.0725  0.0563  0.3169
 4591TIP3    H135332   0.091   1.811   0.889 -0.6120 -0.2654  1.1201
 4591TIP3    H235333   0.239   1.845   0.890 -0.0688 -2.0457 -2.4138
 4592TIP3   OH235334   5.171   1.623   2.077  0.0652  0.3150  0.1794
 4592TIP3    H135335   5.240   1.687   2.093 -0.6640  0.7585  1.7452
 4592TIP3    H235336   5.105   1.670   2.027  0.3500  0.2153 -0.3088
 4593TIP3   OH235337   3.266   0.137   8.708  0.5289  1.0603  0.4148
 4593TIP3    H135338   3.308   0.098   8.784 -2.1529 -1.3276  0.8374
 4593TIP3    H235339   3.323   0.115   8.635  0.3180 -1.7940  1.0022
 4594TIP3   OH235340   6.225   2.917   0.106 -0.3332 -0.0045 -0.5505
 4594TIP3    H135341   6.300   2.858   0.101 -0.1657  0.2874 -1.7447
 4594TIP3    H235342   6.152   2.862   0.136  0.5081 -0.1185  1.4423
 4595TIP3   OH235343   4.772   4.677   1.727  0.2170  0.0591 -0.0297
 4595TIP3    H135344   4.794   4.610   1.663 -2.0886  0.3054 -1.1891
 4595TIP3    H235345   4.849   4.735   1.728  0.8728 -0.7087 -1.5504
 4596TIP3   OH235346   0.200   1.127   7.336  0.3660 -0.6838 -0.2202
 4596TIP3    H135347   0.258   1.202   7.326  2.4419 -2.3445 -1.2815
 4596TIP3    H235348   0.210   1.101   7.427  0.9103 -0.6366 -0.2622
 4597TIP3   OH235349   1.249   1.761   8.511  0.1766  0.2325  0.1755
 4597TIP3    H135350   1.318   1.702   8.480  1.1618  1.3945  0.0614
 4597TIP3    H235351   1.291   1.813   8.580 -1.2084 -0.4493  1.5645
 4598TIP3   OH235352   0.390   6.368   6.437 -0.3421  0.1484  0.1618
 4598TIP3    H135353   0.438   6.446   6.411 -0.2156 -0.2847 -0.9750
 4598TIP3    H235354   0.437   6.334   6.513 -1.6000  2.3053  2.0374
 4599TIP3   OH235355   2.504   2.586   2.409  0.5688  0.1907  0.0002
 4599TIP3    H135356   2.457   2.663   2.377 -0.4687 -0.1293  0.6912
 4599TIP3    H235357   2.594   2.617   2.422 -0.1958  1.8466  2.0284
 4600TIP3   OH235358   1.830   6.404   0.656  0.0386 -0.2903 -0.2849
 4600TIP3    H135359   1.780   6.467   0.709  1.0519  1.2596 -1.0998
 4600TIP3    H235360   1.831   6.442   0.568  3.2627  0.2115 -0.1658
 4601TIP3   OH235361   4.837   4.221   2.492 -0.1821  0.1469  0.3589
 4601TIP3    H135362   4.926   4.192   2.475 -0.2909  0.2223 -0.3614
 4601TIP3    H235363   4.841   4.260   2.579  1.3149  3.4012 -0.9864
 4602TIP3   OH235364   1.704   6.157   7.555  0.4371  0.0001 -0.0449
 4602TIP3    H135365   1.724   6.247   7.527  0.2378  0.0018 -0.1833
 4602TIP3    H235366   1.617   6.163   7.594  0.9535  0.1097  1.1202
 4603TIP3   OH235367   5.561   6.100   8.099  0.8912  0.1444 -0.0196
 4603TIP3    H135368   5.558   6.072   8.191  2.0415 -0.0679 -0.0392
 4603TIP3    H235369   5.621   6.174   8.098  2.0826 -0.7968 -0.8269
 4604TIP3   OH235370   3.204   0.498   7.265 -0.2573  0.4565 -0.0844
 4604TIP3    H135371   3.282   0.535   7.224 -0.6729  1.0020 -0.4002
 4604TIP3    H235372   3.179   0.426   7.208  0.2677 -0.0046  0.2591
 4605TIP3   OH235373   3.756   4.479   0.220  0.5220  0.4065 -0.7858
 4605TIP3    H135374   3.721   4.529   0.294  1.3840 -0.1173 -0.0125
 4605TIP3    H235375   3.740   4.388   0.242  2.7829  0.1091 -0.1618
 4606TIP3   OH235376   0.466   5.938   0.230 -0.1899 -0.5358  0.0272
 4606TIP3    H135377   0.473   5.939   0.326 -0.1576 -0.5286  0.0247
 4606TIP3    H235378   0.424   5.855   0.210  1.6940 -1.5048 -0.0886
 4607TIP3   OH235379   3.337   2.846   7.286  0.0957  0.4301 -0.2881
 4607TIP3    H135380   3.342   2.785   7.360 -0.1494  1.5100  0.6361
 4607TIP3    H235381   3.290   2.797   7.219 -0.8973 -0.1168  0.7575
 4608TIP3   OH235382   6.664   3.447   7.970 -0.4450 -0.0225 -0.4531
 4608TIP3    H135383   6.695   3.511   8.033 -0.6124  0.3567 -0.7543
 4608TIP3    H235384   6.617   3.498   7.904 -0.2496 -0.4039 -0.8999
 4609TIP3   OH235385   4.631   6.457   8.521  0.0228 -0.2529 -0.2253
 4609TIP3    H135386   4.642   6.544   8.482 -0.2239 -0.4361 -0.7188
 4609TIP3    H235387   4.699   6.404   8.479  0.7070 -0.1165  0.6711
 4610TIP3   OH235388   6.774   5.168   0.792 -0.6209  0.4245 -0.2048
 4610TIP3    H135389   6.835   5.230   0.753  0.7115  0.0598  1.2135
 4610TIP3    H235390   6.795   5.169   0.885 -1.3757 -1.2544  0.0151
 4611TIP3   OH235391   0.037   4.716   1.095  0.2333 -0.0408  0.2103
 4611TIP3    H135392   0.095   4.701   1.020 -0.2070  0.0031 -0.1438
 4611TIP3    H235393   0.015   4.628   1.126 -1.2202 -0.1441 -0.9927
 4612TIP3   OH235394   5.711   1.230   0.947 -0.5612 -0.2785  0.1787
 4612TIP3    H135395   5.795   1.196   0.977 -0.9410 -0.1478  1.4667
 4612TIP3    H235396   5.646   1.174   0.989 -1.1297 -0.8507 -1.3993
 4613TIP3   OH235397   0.444   5.357   0.352 -0.1111  0.3098 -0.0791
 4613TIP3    H135398   0.426   5.417   0.425  0.8522  1.0476 -0.4304
 4613TIP3    H235399   0.365   5.359   0.299  0.4512  2.5463 -0.9502
 4614TIP3   OH235400   2.713   5.714   1.457 -0.1050  0.5327  0.3069
 4614TIP3    H135401   2.718   5.619   1.444 -0.6799  0.0736  2.7895
 4614TIP3    H235402   2.792   5.736   1.507  0.3379  1.4999 -0.7733
 4615TIP3   OH235403   5.374   2.213   0.760  0.8552 -0.1009  0.1281
 4615TIP3    H135404   5.332   2.297   0.741  1.8315  0.4875  0.4847
 4615TIP3    H235405   5.468   2.232   0.756  1.1284 -0.5741  2.5632
 4616TIP3   OH235406   0.734   1.706   7.346  0.3155  0.1277 -0.1656
 4616TIP3    H135407   0.802   1.762   7.384  0.2052 -0.3195  0.7196
 4616TIP3    H235408   0.703   1.754   7.270 -1.6379  2.5746  2.0123
 4617TIP3   OH235409   6.104   0.132   0.493  0.3689 -0.4328 -0.5982
 4617TIP3    H135410   6.180   0.191   0.490  0.5558 -0.5434  0.9410
 4617TIP3    H235411   6.092   0.104   0.402 -0.0875  2.3994 -1.5006
 4618TIP3   OH235412   0.593   4.940   0.516 -0.0426 -0.2182 -0.0367
 4618TIP3    H135413   0.593   4.851   0.481 -0.1237 -0.6546  1.0339
 4618TIP3    H235414   0.582   4.929   0.610 -0.8826  0.9644  0.0312
 4619TIP3   OH235415   2.265   3.304   0.064  0.4589  0.1434 -0.0962
 4619TIP3    H135416   2.256   3.384   0.012 -1.2786  0.8783  1.2251
 4619TIP3    H235417   2.351   3.269   0.041  1.3373  2.4827 -0.6027
 4620TIP3   OH235418   6.138   0.095   7.962  0.5064 -0.4012  0.1838
 4620TIP3    H135419   6.073   0.133   7.903  0.8479 -0.6792 -0.3845
 4620TIP3    H235420   6.136   0.151   8.040 -0.3082 -0.3289  0.1179
 4621TIP3   OH235421   0.413   3.245   2.052  1.0930 -0.2940 -0.3509
 4621TIP3    H135422   0.453   3.322   2.011 -0.7640 -0.0224 -1.7936
 4621TIP3    H235423   0.485   3.203   2.098  2.5743  1.2637 -1.1158
 4622TIP3   OH235424   1.370   0.892   6.676  0.3784  0.5073 -0.4731
 4622TIP3    H135425   1.411   0.887   6.589  0.3120 -2.3258 -0.4362
 4622TIP3    H235426   1.364   0.801   6.704  0.5389  1.3549  2.6025
 4623TIP3   OH235427   4.821   0.579   6.706  0.1740 -0.5483  0.3432
 4623TIP3    H135428   4.807   0.494   6.747 -0.8363  0.1228  1.4446
 4623TIP3    H235429   4.914   0.598   6.721  0.6709 -1.8871 -0.8135
 4624TIP3   OH235430   2.660   6.202   7.751  0.2644 -0.5939  0.6981
 4624TIP3    H135431   2.568   6.176   7.756 -0.1858  0.7914  0.1106
 4624TIP3    H235432   2.681   6.234   7.839 -0.3213  0.5805  0.4433
 4625TIP3   OH235433   1.245   1.550   1.870  0.2880 -0.4073  0.0945
 4625TIP3    H135434   1.268   1.462   1.901  0.5373 -0.0158  1.0351
 4625TIP3    H235435   1.150   1.550   1.868  0.2767 -0.5354  0.5725
 4626TIP3   OH235436   2.006   2.114   0.675 -0.8508 -0.5296 -0.5969
 4626TIP3    H135437   2.039   2.202   0.692 -1.5868 -0.2063 -0.7843
 4626TIP3    H235438   1.996   2.110   0.580 -0.4415 -0.9599 -0.6243
 4627TIP3   OH235439   5.401   3.929   8.800 -0.9811  0.1830  0.4884
 4627TIP3    H135440   5.344   3.973   8.863 -1.3529  0.8522 -0.2947
 4627TIP3    H235441   5.426   3.998   8.738 -0.9451 -0.5344 -0.3164
 4628TIP3   OH235442   6.344   3.419   8.139  0.2119 -0.1312 -0.5224
 4628TIP3    H135443   6.353   3.459   8.052 -0.7575  0.9341 -0.1475
 4628TIP3    H235444   6.420   3.361   8.146  0.1675 -0.4396 -2.1830
 4629TIP3   OH235445   0.747   4.493   1.408  0.5767 -0.3974  0.0330
 4629TIP3    H135446   0.810   4.438   1.454  0.4904  0.2745  0.9962
 4629TIP3    H235447   0.795   4.573   1.387  1.4372 -1.6694 -3.5354
 4630TIP3   OH235448   1.933   0.617   8.527  0.2696  0.2916  0.0421
 4630TIP3    H135449   1.925   0.574   8.611 -1.2414 -0.2196 -0.3291
 4630TIP3    H235450   1.843   0.643   8.504  0.7086  0.8380 -1.1825
 4631TIP3   OH235451   4.275   6.534   8.431  0.1719  0.1000 -0.4352
 4631TIP3    H135452   4.202   6.500   8.484 -0.4384  1.3455 -0.4496
 4631TIP3    H235453   4.340   6.562   8.495  0.1418  0.0669 -0.3903
 4632TIP3   OH235454   3.285   5.997   2.110 -0.1831  0.2226 -0.3222
 4632TIP3    H135455   3.241   6.007   2.026 -0.7167 -3.6925 -0.6556
 4632TIP3    H235456   3.237   6.055   2.169 -0.7445  1.9166 -2.3031
 4633TIP3   OH235457   0.429   1.874   8.623 -0.0564  0.1562 -0.0972
 4633TIP3    H135458   0.483   1.812   8.672  0.3466  1.1030  0.6927
 4633TIP3    H235459   0.470   1.878   8.536 -0.4587 -1.1371 -0.3574
 4634TIP3   OH235460   2.781   3.420   8.274  0.1559  0.4401  0.4853
 4634TIP3    H135461   2.789   3.402   8.368 -0.9281  0.9934  0.7056
 4634TIP3    H235462   2.800   3.513   8.266 -0.4794  0.5570  0.2675
 4635TIP3   OH235463   2.320   5.338   8.134  0.0042  0.1802  0.2846
 4635TIP3    H135464   2.412   5.355   8.114 -0.0661 -1.6578 -1.9413
 4635TIP3    H235465   2.288   5.421   8.170  2.3743  1.0129  0.6592
 4636TIP3   OH235466   1.482   5.192   7.705  0.0117  0.2099 -0.2115
 4636TIP3    H135467   1.526   5.110   7.723  0.4584  0.3986 -0.4422
 4636TIP3    H235468   1.392   5.178   7.735 -0.1523 -0.6635 -1.0663
 4637TIP3   OH235469   5.012   2.730   8.523  0.9444 -0.1976 -0.2631
 4637TIP3    H135470   5.019   2.684   8.607 -0.9696  2.1781  1.3150
 4637TIP3    H235471   4.927   2.705   8.489  1.4183 -0.5956 -1.1980
 4638TIP3   OH235472   2.258   5.838   6.557  0.7329 -0.1489  0.1788
 4638TIP3    H135473   2.235   5.859   6.467  1.5298  3.3139  0.6341
 4638TIP3    H235474   2.176   5.846   6.606  0.9229  1.9653  0.2634
 4639TIP3   OH235475   6.524   4.136   8.093  0.1385 -0.7823 -0.2183
 4639TIP3    H135476   6.478   4.129   8.009 -2.6776  1.7816  0.9145
 4639TIP3    H235477   6.464   4.097   8.157  0.9020 -0.0996  0.9566
 4640TIP3   OH235478   4.450   5.103   1.372  0.2809  0.5801 -0.6261
 4640TIP3    H135479   4.508   5.080   1.300  0.0455 -0.1241 -0.5958
 4640TIP3    H235480   4.363   5.073   1.344  0.2941 -0.2918  0.2127
 4641TIP3   OH235481   5.451   1.924   8.072 -0.3829  0.3399 -0.0107
 4641TIP3    H135482   5.358   1.935   8.092 -1.4421 -0.8970 -3.5783
 4641TIP3    H235483   5.468   1.986   8.001  0.8385 -1.1387 -1.0828
 4642TIP3   OH235484   3.002   0.164   8.573 -0.3488 -0.1063  0.7092
 4642TIP3    H135485   3.072   0.205   8.623  0.1652 -0.9102  0.6673
 4642TIP3    H235486   2.988   0.223   8.499 -0.8025  0.8558  1.5332
 4643TIP3   OH235487   5.274   4.279   6.350  0.0401  0.2052  0.0303
 4643TIP3    H135488   5.254   4.221   6.276  1.6541  0.9169 -1.0021
 4643TIP3    H235489   5.346   4.333   6.320  0.2567  1.0281  1.8911
 4644TIP3   OH235490   3.372   0.834   7.236  0.8945  0.0197  0.5017
 4644TIP3    H135491   3.423   0.763   7.197 -0.7709 -2.4174  2.3633
 4644TIP3    H235492   3.296   0.843   7.178  1.9620  1.6327 -0.7133
 4645TIP3   OH235493   2.346   0.681   8.570 -0.9655  0.0458 -0.3603
 4645TIP3    H135494   2.349   0.770   8.536  0.4243  0.7728  1.4793
 4645TIP3    H235495   2.437   0.652   8.570 -1.0181 -0.2701  1.6898
 4646TIP3   OH235496   5.651   5.850   7.270  0.0737  0.2928 -0.0761
 4646TIP3    H135497   5.667   5.927   7.325  0.1650  0.4553 -0.3240
 4646TIP3    H235498   5.631   5.887   7.183 -0.0910  0.0423 -0.1466
 4647TIP3   OH235499   6.145   3.702   7.310 -0.0719  0.0281 -0.1719
 4647TIP3    H135500   6.203   3.714   7.385 -0.8026  0.2454  0.3818
 4647TIP3    H235501   6.140   3.607   7.297  0.7391  0.0265 -0.5060
 4648TIP3   OH235502   6.612   3.261   5.988  0.7930  0.7506 -0.1928
 4648TIP3    H135503   6.558   3.333   6.021 -1.2634 -1.4995  1.7365
 4648TIP3    H235504   6.677   3.246   6.057  1.5584  1.0518 -0.8300
 4649TIP3   OH235505   4.442   1.077   1.255  0.0389  0.8350 -0.5897
 4649TIP3    H135506   4.507   1.108   1.317 -0.9643  0.2695  0.7775
 4649TIP3    H235507   4.490   1.069   1.172  1.9103 -0.3245  0.5433
 4650TIP3   OH235508   2.854   4.332   8.636 -0.0068  0.4521 -0.6239
 4650TIP3    H135509   2.918   4.402   8.629  0.3728 -0.0288 -2.9216
 4650TIP3    H235510   2.807   4.349   8.718  0.4162  3.0570 -0.8559
 4651TIP3   OH235511   1.795   3.134   7.934 -0.4615 -0.0066  0.1249
 4651TIP3    H135512   1.782   3.042   7.910 -2.9718  0.6266 -1.3257
 4651TIP3    H235513   1.866   3.164   7.878 -1.2374 -0.5013 -1.1700
 4652TIP3   OH235514   5.851   1.258   1.299  0.2330  0.0709 -0.3993
 4652TIP3    H135515   5.833   1.190   1.234 -0.5636 -0.5698  0.4531
 4652TIP3    H235516   5.939   1.288   1.279 -0.8096  1.5592 -3.2180
 4653TIP3   OH235517   4.379   0.026   1.302  0.2708  0.2265 -0.2789
 4653TIP3    H135518   4.375  -0.006   1.392  0.5219  1.5330  0.2185
 4653TIP3    H235519   4.442   0.097   1.305  1.5053 -0.7571 -1.8453
 4654TIP3   OH235520   3.061   3.868   0.314  0.1757 -0.4209 -0.1164
 4654TIP3    H135521   3.038   3.950   0.358 -1.1129 -0.2154 -1.1228
 4654TIP3    H235522   2.977   3.824   0.300  0.9354 -2.9697  2.2974
 4655TIP3   OH235523   3.228   4.241   7.964  0.4697 -0.6782  0.5562
 4655TIP3    H135524   3.250   4.327   7.929 -0.0663 -0.8228 -0.1497
 4655TIP3    H235525   3.312   4.204   7.991  0.7625 -0.1326  0.4062
 4656TIP3   OH235526   2.523   0.855   1.500  0.2833  0.2364  0.4719
 4656TIP3    H135527   2.548   0.935   1.547  1.1128 -0.4454  1.2345
 4656TIP3    H235528   2.537   0.785   1.563 -3.3554 -0.2985  0.8744
 4657TIP3   OH235529   6.728   4.251   1.402  0.3091  0.1917 -0.1663
 4657TIP3    H135530   6.751   4.314   1.469 -0.0386  0.1213  0.0208
 4657TIP3    H235531   6.663   4.194   1.443  0.6010 -0.2787 -0.3356
 4658TIP3   OH235532   4.312   0.519   8.456  0.0215  0.3779  0.5591
 4658TIP3    H135533   4.396   0.526   8.411 -0.4247  1.6633 -0.1484
 4658TIP3    H235534   4.251   0.493   8.387 -0.6877  2.4430  0.3451
 4659TIP3   OH235535   1.401   5.165   1.907  1.0392 -0.3008  0.4948
 4659TIP3    H135536   1.412   5.233   1.973  2.7500 -0.1080  0.0640
 4659TIP3    H235537   1.344   5.100   1.947  0.2312  0.8811  1.3044
 4660TIP3   OH235538   6.637   3.350   2.082  0.2865  0.4874 -0.2751
 4660TIP3    H135539   6.625   3.364   1.988 -1.7069 -0.1393 -0.1492
 4660TIP3    H235540   6.583   3.417   2.123 -0.3472 -0.4170  0.3916
 4661TIP3   OH235541   5.300   5.122   1.246 -0.7611 -0.2851 -0.3616
 4661TIP3    H135542   5.369   5.169   1.198 -0.2527 -1.7015 -1.0677
 4661TIP3    H235543   5.241   5.191   1.275  1.7298  1.2107  1.6523
 4662TIP3   OH235544   0.454   2.477   8.071  0.1317 -0.0185 -0.1671
 4662TIP3    H135545   0.416   2.506   8.154  2.6298  0.5043  0.8778
 4662TIP3    H235546   0.378   2.458   8.016 -1.6280 -0.2308  2.1534
 4663TIP3   OH235547   1.203   3.159   6.412  0.0773 -0.1183 -0.8568
 4663TIP3    H135548   1.111   3.162   6.437  0.0062 -0.1566 -1.1208
 4663TIP3    H235549   1.232   3.072   6.439  0.2055  0.1222 -0.1768
 4664TIP3   OH235550   3.020   3.664   7.056  0.0547 -0.1191 -0.0694
 4664TIP3    H135551   3.099   3.618   7.084 -0.2557  0.1761  1.4060
 4664TIP3    H235552   3.050   3.730   6.994  0.7019 -1.2693 -1.0023
 4665TIP3   OH235553   0.949   0.946   0.935 -0.2227  0.3722 -0.0386
 4665TIP3    H135554   1.028   0.919   0.983  0.2417 -0.2670 -1.1353
 4665TIP3    H235555   0.981   0.971   0.849 -1.2850 -0.4228 -0.6834
 4666TIP3   OH235556   5.800   3.891   7.769 -0.5819 -0.1121  0.3594
 4666TIP3    H135557   5.859   3.925   7.702 -1.9149  0.2031 -0.6978
 4666TIP3    H235558   5.827   3.936   7.850  0.9608 -0.4050  0.0524
 4667TIP3   OH235559   4.721   2.826   7.628 -0.3006  0.0819 -0.0486
 4667TIP3    H135560   4.639   2.874   7.617 -0.0949 -0.2073 -3.9593
 4667TIP3    H235561   4.694   2.735   7.640 -0.6719 -0.2005 -2.5008
 4668TIP3   OH235562   3.339   0.818   8.481 -0.4759 -0.0311 -0.0377
 4668TIP3    H135563   3.272   0.875   8.444 -0.3065  0.2206  0.0423
 4668TIP3    H235564   3.413   0.826   8.420  0.5297  1.8793  1.3222
 4669TIP3   OH235565   4.970   2.101   8.596  0.0721  0.5244 -0.0212
 4669TIP3    H135566   4.930   2.111   8.510  0.6467  3.0766 -0.0616
 4669TIP3    H235567   5.064   2.093   8.579  0.0102 -1.3039  0.2925
 4670TIP3   OH235568   4.111   1.998   7.935  0.5088  0.2206  0.5316
 4670TIP3    H135569   4.169   2.046   7.994  0.4759  0.4290  0.3945
 4670TIP3    H235570   4.080   1.923   7.987  0.3778  0.4748  0.8218
 4671TIP3   OH235571   1.679   3.936   1.316 -0.1263  0.5528  0.4643
 4671TIP3    H135572   1.617   3.969   1.250  0.2301  1.2345  0.4620
 4671TIP3    H235573   1.747   3.892   1.264 -0.8703 -0.6683  0.4955
 4672TIP3   OH235574   1.386   3.219   8.309 -0.6469  0.5957  0.6843
 4672TIP3    H135575   1.442   3.225   8.232  0.0203 -0.1971  1.0944
 4672TIP3    H235576   1.359   3.309   8.326  1.9233  1.2775  1.5174
 4673TIP3   OH235577   2.921   6.639   1.205 -0.4415 -0.4240 -0.1423
 4673TIP3    H135578   2.928   6.573   1.274 -2.1837 -1.5259 -0.9552
 4673TIP3    H235579   2.977   6.606   1.135  2.1984  1.2257  1.0128
 4674TIP3   OH235580   2.755   0.885   7.181 -0.1329  0.2798  0.0720
 4674TIP3    H135581   2.782   0.798   7.149  2.9701  0.5312  1.6291
 4674TIP3    H235582   2.659   0.881   7.183 -0.1228 -3.3875  0.7984
 4675TIP3   OH235583   6.712   2.734   6.595 -0.2433 -0.0417  0.1553
 4675TIP3    H135584   6.655   2.673   6.642 -0.5413  0.1941  0.1009
 4675TIP3    H235585   6.769   2.769   6.663 -0.0354 -0.4203  0.1778
 4676TIP3   OH235586   6.551   1.443   6.446 -0.1809  0.2897 -0.8418
 4676TIP3    H135587   6.607   1.513   6.479  2.3780 -1.9006 -0.1470
 4676TIP3    H235588   6.612   1.378   6.410 -2.1708 -2.5742  0.5155
 4677TIP3   OH235589   6.129   2.722   0.883 -0.3847 -0.2931  0.5707
 4677TIP3    H135590   6.207   2.757   0.927 -1.1240  1.1113  0.8378
 4677TIP3    H235591   6.057   2.741   0.943 -1.6128  2.6725 -1.5717
 4678TIP3   OH235592   2.793   3.442   7.168  0.0079  0.0604  0.3413
 4678TIP3    H135593   2.705   3.472   7.191 -0.5951 -0.4830 -1.1378
 4678TIP3    H235594   2.791   3.348   7.184 -0.8001 -0.5421 -2.8254
 4679TIP3   OH235595   4.949   1.243   1.042 -0.0786  0.2929  0.4402
 4679TIP3    H135596   4.940   1.225   1.136  0.0262 -0.5248  0.3027
 4679TIP3    H235597   4.863   1.275   1.015  0.0885  1.2046  0.9488
 4680TIP3   OH235598   6.333   4.921   1.671 -0.0429  0.6023  0.4326
 4680TIP3    H135599   6.297   4.840   1.635  0.8592 -0.1013  1.0752
 4680TIP3    H235600   6.373   4.895   1.754  2.9252  1.0584 -0.7310
 4681TIP3   OH235601   4.226   1.925   1.206 -0.1238 -0.0115 -0.1974
 4681TIP3    H135602   4.281   1.971   1.269 -1.0512  1.5101 -0.4660
 4681TIP3    H235603   4.166   1.873   1.260  1.4416 -1.6034  0.0974
 4682TIP3   OH235604   0.967   3.403   0.228  0.6313 -0.2650  0.0961
 4682TIP3    H135605   1.037   3.402   0.294  0.5195 -1.6739  0.2266
 4682TIP3    H235606   1.011   3.430   0.147  1.3211 -1.0018  0.2035
 4683TIP3   OH235607   5.677   3.863   6.831 -0.1435 -0.3055 -0.2355
 4683TIP3    H135608   5.604   3.857   6.770  0.4041 -0.0059 -0.9330
 4683TIP3    H235609   5.752   3.886   6.777  0.0539  1.5449  0.7675
 4684TIP3   OH235610   2.623   4.999   8.729  0.1115 -0.2161 -0.0105
 4684TIP3    H135611   2.621   4.976   8.822  2.3088 -0.9772 -0.0859
 4684TIP3    H235612   2.609   4.915   8.684 -0.3971  0.0578 -0.3633
 4685TIP3   OH235613   4.101   5.984   8.204 -0.4900  0.2980 -0.4103
 4685TIP3    H135614   4.145   5.906   8.168  2.7803  2.8484 -2.5724
 4685TIP3    H235615   4.044   6.014   8.133 -1.5498  0.0581  0.3209
 4686TIP3   OH235616   3.337   2.216   8.391 -0.5145 -0.2441 -0.0169
 4686TIP3    H135617   3.255   2.265   8.388 -1.4712 -1.8072 -2.3414
 4686TIP3    H235618   3.341   2.182   8.480 -2.1595  0.2540  0.2832
 4687TIP3   OH235619   0.602   5.523   0.175 -0.7180  0.6548 -1.0659
 4687TIP3    H135620   0.685   5.571   0.165 -0.3379 -0.0468 -1.3496
 4687TIP3    H235621   0.617   5.465   0.249  1.1736 -3.6640 -4.4138
 4688TIP3   OH235622   2.747   5.255   0.311  0.5770 -0.1907 -0.0613
 4688TIP3    H135623   2.785   5.324   0.257  2.0106  0.2392  1.4083
 4688TIP3    H235624   2.815   5.187   0.315  0.1704 -0.5728  0.5232
 4689TIP3   OH235625   1.562   4.371   8.070  0.1906 -0.1964  0.7448
 4689TIP3    H135626   1.607   4.309   8.012  0.0433  0.0140  0.4051
 4689TIP3    H235627   1.615   4.370   8.150  0.7862  0.0250  0.3595
 4690TIP3   OH235628   3.536   1.780   0.236  0.4312 -0.4428 -0.1020
 4690TIP3    H135629   3.505   1.704   0.186  0.7479  0.4062 -1.6811
 4690TIP3    H235630   3.533   1.852   0.173  1.3103  0.5949  1.0025
 4691TIP3   OH235631   2.055   5.423   2.120  0.4995  0.7360 -0.4069
 4691TIP3    H135632   2.091   5.386   2.201 -2.1685 -0.9428  0.1596
 4691TIP3    H235633   2.131   5.453   2.071  2.6672 -2.5864  0.6098
 4692TIP3   OH235634   4.099   5.673   1.882  0.1370  0.0719  0.2092
 4692TIP3    H135635   4.062   5.759   1.906  1.3757  0.9982 -1.0801
 4692TIP3    H235636   4.167   5.658   1.947  0.4250  0.4293 -0.0057
 4693TIP3   OH235637   5.845   0.387   1.158  0.6523 -0.0645 -0.0482
 4693TIP3    H135638   5.755   0.360   1.180  0.9601 -0.4451  0.7854
 4693TIP3    H235639   5.839   0.482   1.146 -0.5437 -0.4230 -3.4452
 4694TIP3   OH235640   3.026   2.131   6.822 -0.2248  0.3889 -0.9126
 4694TIP3    H135641   2.971   2.201   6.788 -2.1166 -0.8124 -0.4919
 4694TIP3    H235642   3.114   2.169   6.826 -1.5638  3.7820  2.1434
 4695TIP3   OH235643   1.085   2.644   7.640 -0.2231 -0.6576  0.1806
 4695TIP3    H135644   1.172   2.676   7.614 -0.1131 -0.7811  0.3961
 4695TIP3    H235645   1.054   2.708   7.704 -1.6672  1.2228 -2.1991
 4696TIP3   OH235646   0.850   5.865   8.649 -0.4006  0.3340 -0.2322
 4696TIP3    H135647   0.918   5.801   8.628  1.0563  2.3231 -1.8935
 4696TIP3    H235648   0.768   5.819   8.630  0.5718 -1.2083 -0.9186
 4697TIP3   OH235649   1.097   2.473   7.095 -0.1880 -0.4362 -0.4650
 4697TIP3    H135650   1.171   2.500   7.041  0.4378  1.5786  1.2466
 4697TIP3    H235651   1.019   2.501   7.046  0.2410 -0.8246 -1.3898
 4698TIP3   OH235652   4.518   4.479   1.148 -0.0238  0.2073  0.0157
 4698TIP3    H135653   4.608   4.468   1.117  0.0273 -2.6126  0.8943
 4698TIP3    H235654   4.466   4.421   1.093 -0.9687  0.1783  0.9050
 4699TIP3   OH235655   5.924   4.972   8.738 -0.0195 -0.3801 -0.1912
 4699TIP3    H135656   5.884   4.960   8.824  0.3757  1.4772  0.3015
 4699TIP3    H235657   6.018   4.955   8.752  0.3162  1.5665  0.1850
 4700TIP3   OH235658   6.537   6.444   8.719  0.3455 -1.0118 -0.3707
 4700TIP3    H135659   6.529   6.445   8.814  2.1375  0.3457 -0.1811
 4700TIP3    H235660   6.557   6.353   8.698  2.5502 -0.8778  0.8675
 4701TIP3   OH235661   6.010   1.445   7.772  0.5437  0.2377  0.0410
 4701TIP3    H135662   5.955   1.403   7.838  0.6243  1.1959  0.7333
 4701TIP3    H235663   6.090   1.392   7.772 -0.3529 -1.1946 -1.0132
 4702TIP3   OH235664   1.661   5.068   6.432  0.1794 -0.2557  0.4822
 4702TIP3    H135665   1.726   5.128   6.396 -0.9056  0.1395 -0.8709
 4702TIP3    H235666   1.612   5.121   6.495  0.7333 -0.3790  1.0257
 4703TIP3   OH235667   1.332   6.440   0.529  0.4444  0.0821 -0.1530
 4703TIP3    H135668   1.282   6.393   0.462  0.2688 -0.8549  0.6178
 4703TIP3    H235669   1.419   6.402   0.526  0.6853  0.6488 -0.4420
 4704TIP3   OH235670   0.515   2.898   0.869 -0.4324  0.5034  0.0698
 4704TIP3    H135671   0.589   2.849   0.835 -2.0166 -1.0978 -1.2524
 4704TIP3    H235672   0.503   2.865   0.958 -1.4421 -1.6106 -0.7768
 4705TIP3   OH235673   3.890   4.884   1.024  0.0289 -0.2400 -0.6862
 4705TIP3    H135674   3.799   4.902   0.998 -0.6810  0.1818  1.7873
 4705TIP3    H235675   3.935   4.967   1.010 -0.4268  0.0922 -0.2368
 4706TIP3   OH235676   6.359   2.927   2.291  0.4107 -0.1022  0.1110
 4706TIP3    H135677   6.313   2.975   2.222 -0.2146 -1.6271 -0.5837
 4706TIP3    H235678   6.327   2.967   2.372  0.6701  1.2932 -0.4516
 4707TIP3   OH235679   2.332   4.104   8.307 -0.7555  0.3347 -0.5533
 4707TIP3    H135680   2.405   4.166   8.317  0.6526 -1.3633  0.1422
 4707TIP3    H235681   2.352   4.056   8.227 -0.5006 -0.8924  0.2296
 4708TIP3   OH235682   5.479   0.672   8.081 -0.1819 -0.0097 -0.1274
 4708TIP3    H135683   5.555   0.643   8.030 -0.0652  0.0844 -0.0093
 4708TIP3    H235684   5.498   0.763   8.102  0.3569 -0.3930  1.1452
 4709TIP3   OH235685   5.137   3.392   1.513  1.2677  0.0407 -0.0931
 4709TIP3    H135686   5.116   3.299   1.512 -0.3317  0.3849 -0.6948
 4709TIP3    H235687   5.076   3.431   1.450  1.8628  1.5006  0.2117
 4710TIP3   OH235688   5.139   4.481   7.197 -0.1708 -0.1969 -0.4389
 4710TIP3    H135689   5.131   4.575   7.215  0.4387  0.0599 -1.4183
 4710TIP3    H235690   5.131   4.439   7.283  1.1588  0.8564  0.2278
 4711TIP3   OH235691   6.593   0.691   1.779 -0.0578 -0.0301  0.3166
 4711TIP3    H135692   6.599   0.655   1.690  0.9499  1.7916 -0.4000
 4711TIP3    H235693   6.637   0.627   1.834 -0.5589 -1.1146 -0.4952
 4712TIP3   OH235694   1.947   3.951   6.407 -0.1519 -0.3292  0.5706
 4712TIP3    H135695   1.919   3.965   6.317 -0.8545 -2.3226  0.4203
 4712TIP3    H235696   1.910   4.024   6.456 -1.8477 -0.5124 -0.3709
 4713TIP3   OH235697   3.849   3.116   8.039  0.6860  0.1305 -0.3247
 4713TIP3    H135698   3.804   3.130   8.123 -1.4287  1.7375 -1.6259
 4713TIP3    H235699   3.789   3.063   7.988  0.5346  1.7149 -1.8666
 4714TIP3   OH235700   4.139   4.673   8.100 -0.3955  0.1967 -0.0319
 4714TIP3    H135701   4.178   4.754   8.132  3.4759 -1.5797  0.4042
 4714TIP3    H235702   4.110   4.627   8.179 -0.9383  0.4119 -0.1064
 4715TIP3   OH235703   4.922   4.152   7.672 -0.1617  0.0571 -0.6163
 4715TIP3    H135704   4.848   4.206   7.701  0.8503  0.0211  2.4081
 4715TIP3    H235705   4.996   4.214   7.670  0.1389 -0.3205 -1.6271
 4716TIP3   OH235706   5.835   3.358   7.329 -0.3324  0.5676  0.5721
 4716TIP3    H135707   5.878   3.425   7.275 -1.6555 -0.2931 -1.6818
 4716TIP3    H235708   5.789   3.407   7.397 -1.6930  2.0338 -1.3218
 4717TIP3   OH235709   3.903   3.501   0.914 -0.0344 -0.3151  0.6620
 4717TIP3    H135710   3.887   3.471   0.825  0.5948  0.2798  0.3462
 4717TIP3    H235711   3.879   3.426   0.969 -3.2698  0.2383  0.2077
 4718TIP3   OH235712   3.547   0.640   0.929 -0.0368 -0.1158 -0.6532
 4718TIP3    H135713   3.606   0.602   0.995 -2.3945 -0.4649  1.4096
 4718TIP3    H235714   3.576   0.731   0.922 -0.6612  0.4162  2.1970
 4719TIP3   OH235715   3.894   3.104   0.034  0.6045  0.7034  0.0163
 4719TIP3    H135716   3.918   3.047   0.107 -0.9131  0.7972  0.6238
 4719TIP3    H235717   3.868   3.186   0.075  0.7608  1.1250 -0.7085
 4720TIP3   OH235718   6.238   3.292   8.433 -0.0332  0.3152 -0.1511
 4720TIP3    H135719   6.188   3.234   8.488  0.2448  0.3124  0.1015
 4720TIP3    H235720   6.182   3.369   8.420  1.3967  2.2350  3.5613
 4721TIP3   OH235721   1.606   0.293   8.241  0.3857 -0.0444  0.1642
 4721TIP3    H135722   1.689   0.282   8.288 -0.8168  0.6457  2.6072
 4721TIP3    H235723   1.591   0.208   8.199  0.8530 -1.2301  2.2570
 4722TIP3   OH235724   5.218   1.848   8.395  0.0096 -0.0590 -0.0304
 4722TIP3    H135725   5.242   1.900   8.318  0.0009 -0.4481 -0.2958
 4722TIP3    H235726   5.149   1.790   8.365 -0.4004  0.1841  0.4195
 4723TIP3   OH235727   2.775   1.762   8.771 -0.0595  0.5306 -0.0202
 4723TIP3    H135728   2.758   1.785   8.680 -0.1651 -0.7774 -0.3610
 4723TIP3    H235729   2.860   1.718   8.769 -1.1594 -1.7316  0.0677
 4724TIP3   OH235730   2.698   3.839   6.373 -0.1511 -0.6731 -0.6478
 4724TIP3    H135731   2.623   3.835   6.314 -0.1270  0.5720 -0.8027
 4724TIP3    H235732   2.709   3.933   6.390  1.1516 -0.8665 -0.3435
 4725TIP3   OH235733   6.708   3.715   2.130 -0.3409  0.6697 -0.2531
 4725TIP3    H135734   6.689   3.744   2.041  2.9193 -0.1280 -1.3509
 4725TIP3    H235735   6.640   3.651   2.150 -2.7424  2.8224 -1.0055
 4726TIP3   OH235736   4.879   6.293   7.658  0.1849  0.3923 -0.1107
 4726TIP3    H135737   4.959   6.243   7.639 -0.0220  0.1362 -0.3337
 4726TIP3    H235738   4.808   6.231   7.639 -0.0892  0.8952 -0.7908
 4727TIP3   OH235739   3.364   3.063   0.409 -1.1620  0.1301  0.1822
 4727TIP3    H135740   3.306   3.010   0.465  0.4382 -0.1792  1.6055
 4727TIP3    H235741   3.398   3.001   0.345 -1.2803  0.0004  0.2433
 4728TIP3   OH235742   5.993   0.562   7.382  0.3193  0.4376 -0.0010
 4728TIP3    H135743   6.078   0.520   7.370 -0.0731 -0.0876 -1.1444
 4728TIP3    H235744   6.012   0.656   7.383  0.8809  0.3361 -0.5470
 4729TIP3   OH235745   6.062   2.654   8.175 -0.3859  0.1508 -0.6229
 4729TIP3    H135746   5.976   2.617   8.195 -0.1793  0.1626  0.3300
 4729TIP3    H235747   6.043   2.732   8.123 -0.9908  0.4837  0.0802
 4730TIP3   OH235748   0.618   4.793   0.746  0.5237 -0.2698  0.4101
 4730TIP3    H135749   0.697   4.842   0.770  1.4235 -2.4122  2.2307
 4730TIP3    H235750   0.567   4.789   0.826 -0.0363 -1.3617  0.0132
 4731TIP3   OH235751   3.110   0.035   7.507  0.0416 -0.1404 -0.3581
 4731TIP3    H135752   3.057  -0.016   7.568 -1.0540  0.0991 -1.0963
 4731TIP3    H235753   3.199   0.001   7.519 -0.3791 -1.0116  0.4111
 4732TIP3   OH235754   1.007   2.545   8.489 -0.1434  0.5828  0.3935
 4732TIP3    H135755   0.949   2.497   8.431 -0.9066  1.3575  0.4988
 4732TIP3    H235756   1.077   2.578   8.432 -0.3994  0.5696  0.0743
 4733TIP3   OH235757   2.715   1.152   1.276 -1.4719  0.8006  0.0504
 4733TIP3    H135758   2.778   1.103   1.329  0.8255  2.4663 -0.9500
 4733TIP3    H235759   2.662   1.085   1.234 -0.0767 -0.7289  0.6101
 4734TIP3   OH235760   2.833   6.602   1.935 -0.4745  0.3328  0.0334
 4734TIP3    H135761   2.753   6.643   1.901 -0.2501 -0.1619 -1.1416
 4734TIP3    H235762   2.885   6.675   1.969 -0.2566  1.0118 -1.6600
 4735TIP3   OH235763   1.964   4.907   1.837 -0.1772 -0.1798  0.0425
 4735TIP3    H135764   1.995   4.996   1.855 -1.2119  0.5348 -1.4547
 4735TIP3    H235765   1.883   4.900   1.887 -0.6577  0.1360 -0.6714
 4736TIP3   OH235766   6.425   4.231   0.343 -0.3307 -0.9453 -0.8853
 4736TIP3    H135767   6.347   4.181   0.366 -0.8694 -0.9033 -2.4829
 4736TIP3    H235768   6.496   4.190   0.392 -1.0560 -2.1678 -0.8319
 4737TIP3   OH235769   6.520   0.005   0.430 -0.4854 -0.2311 -0.1238
 4737TIP3    H135770   6.578   0.050   0.492 -1.5998  1.1188 -0.0071
 4737TIP3    H235771   6.487   0.075   0.373 -1.6696 -1.0145 -0.4432
 4738TIP3   OH235772   2.253   4.568   0.671  0.0464  0.0856  0.8135
 4738TIP3    H135773   2.165   4.602   0.653  0.0355  0.2059  1.0848
 4738TIP3    H235774   2.287   4.625   0.740  0.5754  0.4235  0.2835
 4739TIP3   OH235775   2.222   1.969   7.587  0.0726 -0.0404 -0.0472
 4739TIP3    H135776   2.178   2.041   7.631  0.0808  0.6954 -1.1919
 4739TIP3    H235777   2.238   1.904   7.656 -0.7698  0.6437  0.8172
 4740TIP3   OH235778   5.583   5.029   1.330  0.5110  0.1439  0.2968
 4740TIP3    H135779   5.666   4.996   1.295  0.3957 -0.1991  0.3446
 4740TIP3    H235780   5.583   5.122   1.307  0.5245 -0.0300 -0.4628
 4741TIP3   OH235781   0.967   6.590   2.072  0.2203  0.0827 -0.4698
 4741TIP3    H135782   1.011   6.673   2.056 -0.9225  1.0272  0.9410
 4741TIP3    H235783   0.878   6.603   2.038  0.0377 -0.5574 -0.2511
 4742TIP3   OH235784   5.899   1.840   6.923  1.1607  0.2136 -0.2217
 4742TIP3    H135785   5.943   1.777   6.979 -0.9604 -0.0188  1.3144
 4742TIP3    H235786   5.891   1.919   6.976 -0.9011 -0.0085 -0.1120
 4743TIP3   OH235787   2.061   0.218   0.099 -1.0118  0.3140 -0.3219
 4743TIP3    H135788   2.024   0.134   0.072 -2.2581  0.5173  0.6961
 4743TIP3    H235789   2.080   0.208   0.192  0.4712  0.5993 -0.5660
 4744TIP3   OH235790   1.748   4.218   0.236 -0.3458 -0.0905 -0.9938
 4744TIP3    H135791   1.658   4.194   0.259  0.3531 -1.1200  0.8404
 4744TIP3    H235792   1.745   4.314   0.229 -1.5009 -0.0691 -0.5393
 4745TIP3   OH235793   4.460   1.564   7.934  0.4394 -0.7173  0.8315
 4745TIP3    H135794   4.436   1.656   7.947  1.1219 -0.2033 -1.2167
 4745TIP3    H235795   4.427   1.519   8.012 -0.5100  1.1439  1.5494
 4746TIP3   OH235796   2.025   1.776   1.802  0.2807  0.4546  0.0108
 4746TIP3    H135797   1.972   1.812   1.873  0.4551 -2.0550  1.5331
 4746TIP3    H235798   2.115   1.780   1.834  0.2152 -2.3448  0.8776
 4747TIP3   OH235799   1.837   4.469   8.631 -0.2686  0.3526 -0.1069
 4747TIP3    H135800   1.769   4.455   8.697  1.8126 -2.3214  1.6739
 4747TIP3    H235801   1.829   4.394   8.572 -0.8535  1.7275 -1.8953
 4748TIP3   OH235802   4.429   2.011   6.083  0.0305 -0.3439 -0.6007
 4748TIP3    H135803   4.387   1.988   6.166  2.6331 -1.6950  0.4535
 4748TIP3    H235804   4.420   1.933   6.028  0.6861 -0.4689 -0.5416
 4749TIP3   OH235805   4.368   4.170   0.431  0.6432 -0.4168 -0.0926
 4749TIP3    H135806   4.279   4.135   0.444  0.2762  0.0100 -1.2561
 4749TIP3    H235807   4.378   4.237   0.499 -0.4595  0.4661 -0.7543
 4750TIP3   OH235808   2.211   4.704   7.070  0.7156  0.2827 -0.5487
 4750TIP3    H135809   2.296   4.709   7.027  1.5633 -0.0949  1.0013
 4750TIP3    H235810   2.186   4.795   7.087  2.0149  0.3784  1.1643
 4751TIP3   OH235811   3.469   4.717   7.852 -0.5765 -0.1818  0.2070
 4751TIP3    H135812   3.410   4.768   7.796 -1.2027 -0.8458  0.2464
 4751TIP3    H235813   3.462   4.758   7.938 -0.6600  0.0014  0.1137
 4752TIP3   OH235814   0.589   3.951   0.040 -0.2069 -0.1097  0.2122
 4752TIP3    H135815   0.542   3.956   0.123 -2.2938 -0.0070 -0.8957
 4752TIP3    H235816   0.523   3.975  -0.026  1.9267  1.8876 -1.3161
 4753TIP3   OH235817   1.230   4.191   7.711 -0.5323 -0.0437  0.1940
 4753TIP3    H135818   1.311   4.242   7.719 -0.7484  0.4818 -0.7923
 4753TIP3    H235819   1.188   4.224   7.632 -2.0668  0.1760  1.0504
 4754TIP3   OH235820   5.703   3.428   1.470  0.5178  0.0158 -0.0616
 4754TIP3    H135821   5.718   3.497   1.405 -1.2650  0.0889 -0.4568
 4754TIP3    H235822   5.641   3.369   1.428 -1.1695  0.3833  1.7575
 4755TIP3   OH235823   5.164   2.381   7.379  0.1497  0.3075  0.1445
 4755TIP3    H135824   5.087   2.435   7.392  0.6728  1.3003 -0.7393
 4755TIP3    H235825   5.194   2.359   7.468 -0.9033  0.2404  0.4878
 4756TIP3   OH235826   0.983   3.933   7.541 -0.8254 -0.1980 -0.1708
 4756TIP3    H135827   0.995   3.886   7.459  1.9071  0.4266 -0.2099
 4756TIP3    H235828   0.956   3.865   7.603 -1.2243 -0.9908 -1.1729
 4757TIP3   OH235829   2.637   4.715   6.481 -0.1698  0.0436 -0.1177
 4757TIP3    H135830   2.664   4.637   6.432 -1.3694 -0.0818 -0.6117
 4757TIP3    H235831   2.639   4.786   6.417 -2.6245 -0.2884 -0.6545
 4758TIP3   OH235832   3.093   2.836   7.601 -0.0605  0.1114 -0.4135
 4758TIP3    H135833   3.184   2.852   7.576 -0.5076  2.3980 -0.7753
 4758TIP3    H235834   3.064   2.917   7.641 -2.1776 -0.2728 -1.0265
 4759TIP3   OH235835   5.143   4.745   7.620  0.0363 -0.6379  0.2027
 4759TIP3    H135836   5.135   4.840   7.607  2.5073 -0.1443  1.5021
 4759TIP3    H235837   5.132   4.733   7.714 -0.0715 -1.6172  0.0702
 4760TIP3   OH235838   3.163   5.505   0.269 -0.0031  0.4513 -0.4661
 4760TIP3    H135839   3.242   5.538   0.225  1.1496 -1.2728  0.1871
 4760TIP3    H235840   3.106   5.478   0.198  0.1536  1.3638 -0.9504
 4761TIP3   OH235841   3.366   3.607   8.200  0.6211 -0.0402  0.4352
 4761TIP3    H135842   3.333   3.679   8.146  0.7575 -2.0121 -2.5281
 4761TIP3    H235843   3.287   3.560   8.227  0.6175  0.2332  0.9112
 4762TIP3   OH235844   5.082   4.187   1.869  0.6877  0.1721  0.4459
 4762TIP3    H135845   5.104   4.204   1.960  2.7975 -0.1539  0.0422
 4762TIP3    H235846   5.166   4.169   1.826 -0.1732  0.8589 -1.6801
 4763TIP3   OH235847   5.619   2.314   0.748 -0.3379 -0.4933 -0.3504
 4763TIP3    H135848   5.625   2.385   0.813 -3.0037 -0.4461 -0.0508
 4763TIP3    H235849   5.678   2.247   0.781 -0.9659 -0.1147  1.7118
 4764TIP3   OH235850   1.141   1.689   6.282 -0.9215  0.0952 -0.5643
 4764TIP3    H135851   1.066   1.745   6.299  0.0004  0.7465  1.6897
 4764TIP3    H235852   1.161   1.648   6.366  0.3641 -1.1895 -1.4365
 4765TIP3   OH235853   5.702   0.439   0.126  0.1669 -0.4334 -0.2045
 4765TIP3    H135854   5.614   0.408   0.106 -0.2249  0.3847  0.2184
 4765TIP3    H235855   5.692   0.490   0.206  1.0674 -0.5323 -0.0177
 4766TIP3   OH235856   1.576   5.272   0.395  0.1601  0.0214 -0.0210
 4766TIP3    H135857   1.649   5.244   0.340 -0.3452  2.9042 -2.4044
 4766TIP3    H235858   1.573   5.368   0.385 -2.1893  0.3143  2.2766
 4767TIP3   OH235859   6.004   2.378   1.546  0.3494  0.1752  0.1859
 4767TIP3    H135860   6.016   2.309   1.481 -1.3474  1.0192 -1.0861
 4767TIP3    H235861   6.093   2.411   1.562  0.8705 -0.3803 -1.3490
 4768TIP3   OH235862   5.522   0.292   8.649 -0.4239  0.9269  0.7808
 4768TIP3    H135863   5.611   0.261   8.662 -1.0299 -1.4023 -0.2087
 4768TIP3    H235864   5.481   0.283   8.736  0.0998  1.3653  1.0790
 4769TIP3   OH235865   1.171   0.555   1.371  0.0182  0.2472 -0.3584
 4769TIP3    H135866   1.266   0.548   1.373 -0.1108 -3.3245  1.5519
 4769TIP3    H235867   1.149   0.605   1.450  0.3184 -1.4397  0.8537
 4770TIP3   OH235868   3.808   5.778   8.073  0.1411 -0.1831  0.1682
 4770TIP3    H135869   3.828   5.872   8.066 -3.0658  0.5935 -0.3245
 4770TIP3    H235870   3.786   5.752   7.984 -1.4458 -0.7299  0.6919
 4771TIP3   OH235871   4.657   1.519   0.326 -0.1615 -0.3099  0.1792
 4771TIP3    H135872   4.593   1.450   0.346 -0.7982  0.2035 -0.0334
 4771TIP3    H235873   4.742   1.477   0.335 -0.4809 -0.6465  1.8778
 4772TIP3   OH235874   4.662   4.209   6.781 -0.1087  0.3516 -0.3572
 4772TIP3    H135875   4.645   4.186   6.690  1.1805  0.9825 -0.7869
 4772TIP3    H235876   4.750   4.247   6.780  0.6111 -1.1225  1.4062
 4773TIP3   OH235877   4.812   5.491   1.524 -0.0098 -0.5170 -0.3560
 4773TIP3    H135878   4.830   5.411   1.573 -1.3951  0.0734  1.2234
 4773TIP3    H235879   4.895   5.538   1.523  0.5901 -1.5528 -0.5210
 4774TIP3   OH235880   1.944   4.918   7.293 -0.6632  0.0904  0.7518
 4774TIP3    H135881   1.922   4.991   7.350  0.6627  1.4839 -0.4310
 4774TIP3    H235882   1.993   4.958   7.221 -0.2374 -1.9225 -0.1393
 4775TIP3   OH235883   2.481   1.860   7.949  0.1020  0.1949  1.1255
 4775TIP3    H135884   2.574   1.872   7.971  0.5124 -0.8109  0.0234
 4775TIP3    H235885   2.459   1.937   7.895  0.6254 -0.1475  0.4124
 4776TIP3   OH235886   2.079   0.195   0.381  0.1906 -0.3163 -0.1333
 4776TIP3    H135887   2.039   0.250   0.449 -2.0195 -0.8020 -0.9802
 4776TIP3    H235888   2.062   0.105   0.410 -0.5168 -0.5269 -1.1652
 4777TIP3   OH235889   3.843   2.501   0.463 -0.1376  0.1351  0.1539
 4777TIP3    H135890   3.826   2.586   0.421 -1.7030 -0.1898  0.0701
 4777TIP3    H235891   3.903   2.522   0.534 -0.1218  1.2436 -0.1562
 4778TIP3   OH235892   2.480   2.728   1.253  0.0829  0.0089  0.8638
 4778TIP3    H135893   2.541   2.707   1.324  0.6969 -0.5999  0.1850
 4778TIP3    H235894   2.475   2.647   1.202 -0.4403  0.4001  0.2821
 4779TIP3   OH235895   0.785   6.701   0.277 -0.0468 -0.7482  0.4407
 4779TIP3    H135896   0.842   6.676   0.205 -0.4609 -0.5141  0.0317
 4779TIP3    H235897   0.772   6.795   0.267  0.3764 -0.5984  1.1705
 4780TIP3   OH235898   2.445   1.375   7.399 -0.2245  0.0098 -0.4772
 4780TIP3    H135899   2.422   1.429   7.475  2.2312  0.2804  0.1585
 4780TIP3    H235900   2.377   1.307   7.396 -1.3628  1.0307  0.8648
 4781TIP3   OH235901   4.416   6.253   8.236 -0.2360  0.3907  0.1151
 4781TIP3    H135902   4.341   6.279   8.288 -1.2868  1.5470 -1.8379
 4781TIP3    H235903   4.379   6.200   8.165  0.8866  0.3076 -0.4360
 4782TIP3   OH235904   6.041   2.140   0.104  0.5563  0.0819  0.2472
 4782TIP3    H135905   6.116   2.081   0.103  1.6836  1.4650 -0.1580
 4782TIP3    H235906   6.080   2.228   0.112 -1.0920  0.7312  1.8142
 4783TIP3   OH235907   6.130   2.730   6.349  0.3515 -0.0896  0.0243
 4783TIP3    H135908   6.044   2.710   6.310 -0.5067 -0.5194  2.0074
 4783TIP3    H235909   6.178   2.647   6.346  0.3628 -0.0728 -0.2840
 4784TIP3   OH235910   0.319   4.950   0.434  0.1813 -0.0917  0.4497
 4784TIP3    H135911   0.411   4.968   0.452  0.3339  1.4256 -1.4727
 4784TIP3    H235912   0.272   5.004   0.498  0.7064  3.7620 -2.0549
 4785TIP3   OH235913   4.215   4.489   8.822  0.3513  1.0905  0.6831
 4785TIP3    H135914   4.279   4.545   8.778 -2.3424  3.0429 -1.0926
 4785TIP3    H235915   4.202   4.531   8.908  1.9069  0.2696  1.3383
 4786TIP3   OH235916   4.592   1.609   8.660 -0.4567  0.5080  0.5002
 4786TIP3    H135917   4.512   1.658   8.678 -0.7681  0.2909 -0.2520
 4786TIP3    H235918   4.594   1.540   8.726 -0.4036  1.0707  1.0952
 4787TIP3   OH235919   6.774   6.320   6.816  0.5268  0.7786 -0.2392
 4787TIP3    H135920   6.768   6.356   6.728  0.5652  3.0071  0.5961
 4787TIP3    H235921   6.850   6.261   6.813 -1.1699 -1.5214 -2.3622
 4788TIP3   OH235922   6.069   3.425   0.459  0.0542  0.3743 -0.1730
 4788TIP3    H135923   6.137   3.442   0.393  0.7791  2.7603  1.1166
 4788TIP3    H235924   5.993   3.475   0.429  0.2200  1.0497  0.5112
 4789TIP3   OH235925   0.966   4.191   7.094 -0.2587  0.0756  0.2971
 4789TIP3    H135926   0.958   4.259   7.162  1.0385 -0.0688  0.6207
 4789TIP3    H235927   1.060   4.172   7.090 -0.4707 -0.8622 -0.6256
 4790TIP3   OH235928   2.586   0.321   1.368 -0.1294 -0.5728  0.0819
 4790TIP3    H135929   2.556   0.273   1.445  0.0229 -0.4361  0.2290
 4790TIP3    H235930   2.561   0.266   1.294 -0.2234 -0.7349  0.2329
 4791TIP3   OH235931   6.161   1.012   8.620  0.5962 -0.1961  0.5324
 4791TIP3    H135932   6.207   0.983   8.699  3.1119 -1.6207 -1.3388
 4791TIP3    H235933   6.095   0.945   8.605  0.5663 -0.2882  1.0478
 4792TIP3   OH235934   1.226   0.793   7.701 -0.1318 -0.0837 -0.5045
 4792TIP3    H135935   1.259   0.797   7.790 -1.9351 -1.2833  0.2905
 4792TIP3    H235936   1.268   0.866   7.656  1.8522 -0.2555  0.9336
 4793TIP3   OH235937   5.605   2.506   6.884  0.1960  0.4167  0.4794
 4793TIP3    H135938   5.529   2.559   6.908 -1.5267 -1.8096  0.2054
 4793TIP3    H235939   5.659   2.565   6.831 -1.2754  2.0920  0.7395
 4794TIP3   OH235940   2.463   6.749   7.552 -0.5845  0.4378 -0.0056
 4794TIP3    H135941   2.420   6.738   7.467 -1.1265  2.1169  0.0217
 4794TIP3    H235942   2.425   6.829   7.588 -1.4865 -0.9952  2.5058
 4795TIP3   OH235943   4.977   6.778   6.592 -0.2047 -0.3963 -0.6500
 4795TIP3    H135944   5.022   6.850   6.636  1.7219 -0.9986 -1.5365
 4795TIP3    H235945   4.938   6.727   6.663 -0.2905  0.6475  0.0833
 4796TIP3   OH235946   3.381   3.085   1.343 -0.4127 -0.1288  0.0908
 4796TIP3    H135947   3.359   2.999   1.378  0.3594 -0.9042 -1.2505
 4796TIP3    H235948   3.446   3.120   1.404  1.8583 -1.9867 -1.1193
 4797TIP3   OH235949   4.739   3.763   0.075  0.3764 -0.0951  0.2235
 4797TIP3    H135950   4.737   3.690   0.012 -2.0785  0.3428 -0.2866
 4797TIP3    H235951   4.793   3.829   0.031  2.1477 -1.3142  0.4385
 4798TIP3   OH235952   5.407   1.783   7.253  0.9037  0.0005 -0.1199
 4798TIP3    H135953   5.499   1.783   7.226  0.6916 -0.4098 -0.8680
 4798TIP3    H235954   5.370   1.861   7.213  0.9273  0.1899  0.2185
 4799TIP3   OH235955   2.780   0.600   7.257 -0.9035 -0.0278  0.3872
 4799TIP3    H135956   2.751   0.509   7.258  1.9108 -1.1155 -1.8397
 4799TIP3    H235957   2.870   0.596   7.291 -1.3336  2.2720  2.0000
 4800TIP3   OH235958   5.673   0.950   6.323  1.1688  0.0169  0.0288
 4800TIP3    H135959   5.684   0.907   6.238  0.8579 -1.0856  0.5336
 4800TIP3    H235960   5.635   1.035   6.301  3.4288  0.8001 -1.1256
 4801TIP3   OH235961   0.017   0.161   7.017  0.3694 -0.3751  0.3643
 4801TIP3    H135962  -0.018   0.123   7.098  0.6885 -1.2779  0.0907
 4801TIP3    H235963  -0.059   0.198   6.973  0.2325  0.4155  1.2117
 4802TIP3   OH235964   4.692   5.703   1.349  0.6364 -0.6737  0.0411
 4802TIP3    H135965   4.752   5.635   1.379  1.5610 -0.0428 -0.3399
 4802TIP3    H235966   4.701   5.773   1.413  1.5176  0.0745 -0.8665
 4803TIP3   OH235967   0.529   3.603   1.177  0.7790  0.2110  0.1704
 4803TIP3    H135968   0.446   3.647   1.159 -0.1216 -1.9019 -1.3513
 4803TIP3    H235969   0.560   3.641   1.259 -0.7353  2.3841 -0.2004
 4804TIP3   OH235970   2.767   6.576   8.569 -0.4529 -0.4790 -0.1474
 4804TIP3    H135971   2.825   6.526   8.511  0.3701  2.2033 -1.8609
 4804TIP3    H235972   2.720   6.635   8.510 -0.3304  1.6791  1.7703
 4805TIP3   OH235973   1.848   5.260   6.442  0.1261  0.7211 -0.0894
 4805TIP3    H135974   1.841   5.355   6.451 -1.0051  0.5302  1.6294
 4805TIP3    H235975   1.857   5.229   6.532  0.3543 -0.8219 -0.6212
 4806TIP3   OH235976   4.060   3.058   7.372  0.2499 -0.4587  0.0551
 4806TIP3    H135977   4.031   2.977   7.328  1.5221 -2.0746  2.0125
 4806TIP3    H235978   4.035   3.045   7.463  2.1397  0.5235  0.7574
 4807TIP3   OH235979   4.170   5.146   8.437 -0.3781 -0.1716  0.2049
 4807TIP3    H135980   4.237   5.214   8.438 -1.9339  1.4360  0.9448
 4807TIP3    H235981   4.183   5.101   8.353  3.1383 -1.6307  1.3254
 4808TIP3   OH235982   3.049   6.215   7.848 -0.0371  0.1142 -0.4603
 4808TIP3    H135983   2.981   6.254   7.903  1.2805 -0.6006  1.7872
 4808TIP3    H235984   3.008   6.205   7.762 -1.8946  2.1047  0.1214
 4809TIP3   OH235985   2.429   2.195   7.228 -0.8568  0.2179  0.0258
 4809TIP3    H135986   2.464   2.223   7.143 -1.1384 -0.5868 -0.3738
 4809TIP3    H235987   2.505   2.159   7.274 -0.6297  1.0038  0.2690
 4810TIP3   OH235988   3.412   5.243   1.142  0.2022 -0.2920  0.0287
 4810TIP3    H135989   3.424   5.149   1.157 -0.0467 -0.6207 -1.6890
 4810TIP3    H235990   3.357   5.249   1.065 -0.7616  1.2885  0.7822
 4811TIP3   OH235991   2.908   0.624   0.368  0.0115  0.1295  0.1926
 4811TIP3    H135992   2.922   0.717   0.347 -0.2795  0.5492  1.7069
 4811TIP3    H235993   2.864   0.589   0.291  1.1146  0.9683 -0.8716
 4812TIP3   OH235994   5.689   3.090   1.116  0.3760 -0.4401 -0.1404
 4812TIP3    H135995   5.596   3.115   1.115 -0.1665 -2.0789  2.3703
 4812TIP3    H235996   5.690   3.002   1.078  0.8339 -0.5943  0.2257
 4813TIP3   OH235997   5.722   2.053   1.653  0.5614 -0.5398 -0.1920
 4813TIP3    H135998   5.662   1.980   1.668 -0.9061  0.8566  1.1196
 4813TIP3    H235999   5.665   2.129   1.641  2.0237  0.2924 -2.4429
 4814TIP3   OH236000   3.920   1.160   8.412  0.3281 -0.0180  0.1432
 4814TIP3    H136001   3.927   1.244   8.458  1.2571 -0.6992  1.3007
 4814TIP3    H236002   3.845   1.117   8.454 -1.0434  0.7489 -1.3911
 4815TIP3   OH236003   0.786   5.340   1.838 -0.5479  0.0392 -0.6136
 4815TIP3    H136004   0.859   5.403   1.835 -0.1544 -0.4515 -2.3299
 4815TIP3    H236005   0.708   5.394   1.840 -0.1767  0.5745  0.8298
 4816TIP3   OH236006   1.949   0.323   6.790  0.5216 -0.1351  0.5896
 4816TIP3    H136007   2.003   0.316   6.711 -1.5565  2.0539 -1.1643
 4816TIP3    H236008   2.002   0.377   6.850  1.5952 -0.7678  0.2448
 4817TIP3   OH236009   2.201   1.154   0.686 -0.3823 -0.8508 -0.0626
 4817TIP3    H136010   2.170   1.159   0.777 -0.2453  0.2280 -0.0617
 4817TIP3    H236011   2.191   1.061   0.663 -0.2124 -1.1889  1.1206
 4818TIP3   OH236012   1.680   1.033   1.152 -0.3295  0.1253  0.4528
 4818TIP3    H136013   1.603   0.983   1.178 -0.2597  0.3189  1.0346
 4818TIP3    H236014   1.662   1.123   1.178  0.7731 -0.0964  2.1730
 4819TIP3   OH236015   4.274   5.211   8.006 -0.3976  0.2917  0.0069
 4819TIP3    H136016   4.197   5.261   7.980 -0.3282  0.2530 -0.2770
 4819TIP3    H236017   4.300   5.164   7.926  0.8230  1.4832 -0.3259
 4820TIP3   OH236018   3.102   5.556   7.466 -0.1983  0.4034  0.5301
 4820TIP3    H136019   3.103   5.582   7.558  2.8256  2.3208  0.0651
 4820TIP3    H236020   3.015   5.582   7.435 -0.6079  1.4192  2.3730
 4821TIP3   OH236021   2.239   2.200   6.936 -0.2627  0.3551  0.1681
 4821TIP3    H136022   2.213   2.172   6.848  1.1005  0.7788 -0.3876
 4821TIP3    H236023   2.333   2.182   6.941 -0.1806  0.9874  1.2864
 4822TIP3   OH236024   3.653   3.916   8.221  0.3764 -0.4602 -0.4049
 4822TIP3    H136025   3.578   3.914   8.162 -0.2527 -0.8123  0.3893
 4822TIP3    H236026   3.622   3.963   8.298  0.6142 -1.5674  0.3931
 4823TIP3   OH236027   6.576   6.507   7.393 -0.6531  0.0435  0.6682
 4823TIP3    H136028   6.625   6.567   7.449 -0.1196  0.3742 -0.1452
 4823TIP3    H236029   6.566   6.428   7.446  0.3571  0.1359  1.0149
 4824TIP3   OH236030   6.550   1.504   7.825  0.9197  0.3501  0.5009
 4824TIP3    H136031   6.576   1.545   7.743  1.3306 -1.9100 -0.5663
 4824TIP3    H236032   6.476   1.557   7.856  2.4741  2.8893  0.1595
 4825TIP3   OH236033   1.984   5.152   1.589  0.2051 -0.0775  0.0950
 4825TIP3    H136034   2.064   5.110   1.557  0.7583  1.6632 -0.9187
 4825TIP3    H236035   1.924   5.079   1.606  1.7192 -1.3687  0.1378
 4826TIP3   OH236036   6.213   2.493   1.370  0.2160 -0.5396  0.0927
 4826TIP3    H136037   6.251   2.506   1.283 -1.1749 -1.3124 -0.6591
 4826TIP3    H236038   6.126   2.532   1.364  0.6801  0.8683  1.6648
 4827TIP3   OH236039   0.425   6.060   7.253 -0.6126 -0.3123  0.1820
 4827TIP3    H136040   0.445   5.967   7.248  0.5662 -0.0436 -0.7016
 4827TIP3    H236041   0.510   6.102   7.268 -1.0574  0.6436  0.1313
 4828TIP3   OH236042   2.614   3.003   1.188  0.5059  0.1545  0.3113
 4828TIP3    H136043   2.693   2.961   1.222  0.7916 -0.6832 -1.2887
 4828TIP3    H236044   2.582   2.944   1.120  0.6313  2.2123 -1.6779
 4829TIP3   OH236045   2.365   2.578   1.925 -0.6300 -0.7744 -0.1675
 4829TIP3    H136046   2.284   2.528   1.921 -1.2676 -0.0802  2.3088
 4829TIP3    H236047   2.341   2.659   1.970  1.4413 -0.6116  0.7819
 4830TIP3   OH236048   4.691   3.620   0.804  0.3625  0.0750 -0.6220
 4830TIP3    H136049   4.644   3.649   0.726  0.1818 -0.4103 -0.6968
 4830TIP3    H236050   4.717   3.530   0.784 -1.5068 -0.8127  0.6638
 4831TIP3   OH236051   0.334   3.568   0.443  0.0057  0.0259  0.0693
 4831TIP3    H136052   0.334   3.589   0.350 -0.6212  0.4933  0.1715
 4831TIP3    H236053   0.242   3.572   0.469  0.0440 -1.1989  0.4712
 4832TIP3   OH236054   4.714   5.381   0.696  0.5119 -0.6378  0.3575
 4832TIP3    H136055   4.670   5.300   0.723 -0.3863 -0.0393  0.7321
 4832TIP3    H236056   4.771   5.354   0.624  0.5651 -1.6865  0.7698
 4833TIP3   OH236057   1.358   4.157   8.123  0.2104  0.3857  0.2842
 4833TIP3    H136058   1.299   4.183   8.194  1.4614 -1.1218  1.9751
 4833TIP3    H236059   1.420   4.230   8.116  0.7017  0.1206  1.5183
 4834TIP3   OH236060   5.507   3.693   8.768  0.2100 -0.2767 -0.4894
 4834TIP3    H136061   5.464   3.778   8.772  0.9561  0.1081 -0.5076
 4834TIP3    H236062   5.451   3.635   8.819 -1.0341 -0.1044 -1.6089
 4835TIP3   OH236063   5.489   4.026   2.159  0.4193  0.1479 -0.1525
 4835TIP3    H136064   5.396   4.046   2.169  0.2065 -0.6270 -0.4564
 4835TIP3    H236065   5.523   4.097   2.105  0.0445  0.5321  0.1115
 4836TIP3   OH236066   6.570   6.116   8.035  0.0212 -0.4403  0.7707
 4836TIP3    H136067   6.519   6.193   8.011  0.6961 -0.6789 -1.7670
 4836TIP3    H236068   6.614   6.140   8.116 -0.0668  1.7090  0.2304
 4837TIP3   OH236069   2.439   6.360   1.676 -0.5498 -0.0400  0.5359
 4837TIP3    H136070   2.532   6.355   1.698  0.1062  1.7984 -1.5014
 4837TIP3    H236071   2.411   6.445   1.710 -1.7688 -0.9266  1.8828
 4838TIP3   OH236072   2.397   2.724   0.093 -0.3573  0.2701 -0.1896
 4838TIP3    H136073   2.324   2.758   0.041 -2.3825 -2.6026  0.5008
 4838TIP3    H236074   2.440   2.661   0.035 -0.8914 -0.8662  0.5887
 4839TIP3   OH236075   1.149   0.672   7.334  0.3449 -0.7469  0.3439
 4839TIP3    H136076   1.141   0.765   7.356 -0.4021 -0.8053  0.3772
 4839TIP3    H236077   1.179   0.631   7.415  1.1876 -0.4682  0.1797
 4840TIP3   OH236078   4.187   0.728   7.587  0.8518  0.4233  0.3344
 4840TIP3    H136079   4.150   0.643   7.562  0.5059  1.1207 -1.6761
 4840TIP3    H236080   4.126   0.763   7.652 -1.1513  0.7685 -1.6082
 4841TIP3   OH236081   2.653   1.360   8.522  0.3517  0.1288 -0.5868
 4841TIP3    H136082   2.593   1.434   8.516  1.7411  1.3945  0.3308
 4841TIP3    H236083   2.712   1.383   8.593  0.3012 -2.2944  0.3098
 4842TIP3   OH236084   6.337   3.516   0.673  0.0346 -0.1173  0.0634
 4842TIP3    H136085   6.388   3.530   0.753  0.8212  0.4772 -0.5304
 4842TIP3    H236086   6.361   3.428   0.644 -0.3120 -0.3656  0.5165
 4843TIP3   OH236087   6.134   5.784   7.143  0.3654  1.0806  0.4496
 4843TIP3    H136088   6.179   5.801   7.060 -1.5024  0.6462 -0.7036
 4843TIP3    H236089   6.043   5.809   7.127  0.2014  2.3105  2.8332
 4844TIP3   OH236090   5.638   4.023   1.919 -0.4141  0.8190  0.5983
 4844TIP3    H136091   5.609   4.035   1.828 -1.6026 -0.7416  0.7438
 4844TIP3    H236092   5.640   4.112   1.954 -0.6484  1.3851 -0.7313
 4845TIP3   OH236093   4.555   4.226   0.174  0.2135 -0.3983  0.4081
 4845TIP3    H136094   4.615   4.285   0.219  0.1931 -0.6888  0.8175
 4845TIP3    H236095   4.480   4.218   0.232 -0.0693 -0.3163  0.0582
 4846TIP3   OH236096   1.219   0.940   6.976  0.1006 -0.2434  0.1470
 4846TIP3    H136097   1.177   0.855   6.961 -1.4133  0.5074 -0.1210
 4846TIP3    H236098   1.247   0.936   7.068  0.9061 -1.3619 -0.1204
 4847TIP3   OH236099   0.398   2.248   0.115  0.0990 -0.2063  0.0621
 4847TIP3    H136100   0.305   2.256   0.097 -0.2113 -2.8197  0.1452
 4847TIP3    H236101   0.437   2.223   0.032  0.2312 -2.0045  0.6134
 4848TIP3   OH236102   1.785   5.711   6.771 -0.1131 -0.3294  0.6033
 4848TIP3    H136103   1.827   5.626   6.781 -2.5450 -1.6513  0.3116
 4848TIP3    H236104   1.718   5.713   6.840 -1.2257  0.6035 -0.4596
 4849TIP3   OH236105   6.160   4.638   7.565 -0.3118 -0.0894  0.7058
 4849TIP3    H136106   6.248   4.602   7.553 -0.2280 -0.2675  1.7589
 4849TIP3    H236107   6.169   4.731   7.545 -0.6293 -0.6484 -2.4979
 4850TIP3   OH236108   3.008   5.642   6.251 -0.3534 -0.2555 -0.0397
 4850TIP3    H136109   2.927   5.679   6.216  0.0684  0.5333 -0.2047
 4850TIP3    H236110   2.997   5.646   6.346  0.3491  1.8788 -0.0005
 4851TIP3   OH236111   4.935   4.921   2.090 -0.1579  0.0129  0.4042
 4851TIP3    H136112   4.921   5.002   2.139 -0.4094 -0.5970  1.3680
 4851TIP3    H236113   4.853   4.873   2.099 -0.2138 -0.0973 -0.6475
 4852TIP3   OH236114   0.698   4.827   7.465 -0.6355  0.2449  0.2415
 4852TIP3    H136115   0.604   4.838   7.452 -0.6093  0.6018  0.3381
 4852TIP3    H236116   0.738   4.899   7.416 -0.4856  0.9387  1.3360
 4853TIP3   OH236117   2.123   0.583   0.681 -0.4054  0.3774 -0.0250
 4853TIP3    H136118   2.209   0.574   0.723 -1.1102 -0.9994  1.2109
 4853TIP3    H236119   2.143   0.602   0.590  1.2816 -1.7875 -0.1934
 4854TIP3   OH236120   3.556   0.034   8.626 -0.1748  0.7248  0.0686
 4854TIP3    H136121   3.553  -0.043   8.682 -0.8069  0.0441 -0.8569
 4854TIP3    H236122   3.626   0.015   8.563 -0.4348  0.8467 -0.2578
 4855TIP3   OH236123   0.049   3.610   1.384  0.3884  0.1039 -0.7647
 4855TIP3    H136124  -0.029   3.648   1.426  1.3869 -0.2264  1.4828
 4855TIP3    H236125   0.116   3.611   1.452  1.6485 -1.9129 -1.9034
 4856TIP3   OH236126   5.008   5.742   7.344  0.1534 -0.2827  0.2076
 4856TIP3    H136127   4.992   5.796   7.421  0.2007 -0.7172  0.5246
 4856TIP3    H236128   4.952   5.665   7.357  0.2703 -0.4229 -0.1205
 4857TIP3   OH236129   0.951   5.766   7.610 -0.1813  0.0874 -0.0326
 4857TIP3    H136130   0.960   5.827   7.684  1.0726 -0.7482  0.5524
 4857TIP3    H236131   1.036   5.770   7.566 -0.9745  0.7143 -1.5802
 4858TIP3   OH236132   2.595   4.181   0.336  0.1187 -0.2059 -0.4247
 4858TIP3    H136133   2.576   4.088   0.345  0.2334 -0.1262  0.6812
 4858TIP3    H236134   2.537   4.225   0.398  1.0890  0.3389  0.1299
 4859TIP3   OH236135   1.729   1.290   0.688  0.6482  0.2883  0.7089
 4859TIP3    H136136   1.703   1.272   0.598 -0.3360  0.5633  0.9228
 4859TIP3    H236137   1.741   1.204   0.728 -0.7993  0.1137  0.8277
 4860TIP3   OH236138   6.530   4.449   0.204 -0.1432 -0.1320  0.1779
 4860TIP3    H136139   6.455   4.509   0.209 -0.9795 -0.9735 -1.2879
 4860TIP3    H236140   6.497   4.367   0.241  0.4515 -0.1712  0.6273
 4861TIP3   OH236141   6.347   3.074   0.401 -0.1981 -0.0424 -0.1492
 4861TIP3    H136142   6.332   3.142   0.466  0.3730 -1.0501  1.0999
 4861TIP3    H236143   6.278   3.086   0.336 -1.0423  0.7485  0.8616
 4862TIP3   OH236144   3.656   2.229   6.887  0.2542  0.1507  0.3974
 4862TIP3    H136145   3.593   2.268   6.826 -1.1372 -1.0118  1.0332
 4862TIP3    H236146   3.741   2.238   6.842 -0.5806  0.1858 -1.2736
 4863TIP3   OH236147   1.081   1.800   8.741  0.6454  0.4879  0.2933
 4863TIP3    H136148   1.097   1.756   8.657  1.0159  1.9411 -0.4423
 4863TIP3    H236149   0.987   1.793   8.755  0.5921  0.1556 -0.2121
 4864TIP3   OH236150   5.053   5.712   1.886 -0.5619 -0.1227  0.0233
 4864TIP3    H136151   5.024   5.802   1.873 -0.9316  0.2035  2.7110
 4864TIP3    H236152   5.100   5.713   1.969  0.7686 -2.1380 -0.6312
 4865TIP3   OH236153   3.585   6.153   6.744  0.1359 -0.3838 -0.2776
 4865TIP3    H136154   3.601   6.215   6.672  0.7513  0.7563  0.8086
 4865TIP3    H236155   3.648   6.083   6.729  1.4166  0.6565  0.0489
 4866TIP3   OH236156   5.817   0.555   8.689  0.2277 -0.7534  0.4698
 4866TIP3    H136157   5.818   0.561   8.785  1.0159  0.2790  0.4154
 4866TIP3    H236158   5.907   0.573   8.663  0.0648 -1.2364 -0.4656
 4867TIP3   OH236159   2.388   0.199   6.948 -0.0112  0.5995  0.0821
 4867TIP3    H136160   2.339   0.242   6.878 -0.3006 -1.1830 -0.8752
 4867TIP3    H236161   2.468   0.169   6.905 -1.1680 -2.4708 -0.1384
 4868TIP3   OH236162   2.171   3.392   6.849 -0.0782 -0.0115 -0.0191
 4868TIP3    H136163   2.110   3.379   6.777  0.1206  2.3134 -0.7121
 4868TIP3    H236164   2.126   3.356   6.926 -1.3878 -0.2813 -0.8806
 4869TIP3   OH236165   2.438   2.108   1.385  0.4215 -0.2663  0.0497
 4869TIP3    H136166   2.423   2.050   1.459 -0.1065 -1.0415 -0.6448
 4869TIP3    H236167   2.365   2.170   1.388 -0.3517 -1.1265 -0.5882
 4870TIP3   OH236168   0.865   4.934   8.383  0.0307 -0.5831  0.2924
 4870TIP3    H136169   0.771   4.949   8.381  0.2720  1.1199  0.3782
 4870TIP3    H236170   0.885   4.894   8.298 -0.7639 -0.9966  0.2969
 4871TIP3   OH236171   0.688   0.008   7.921  0.2886 -0.3086  0.1828
 4871TIP3    H136172   0.688  -0.025   7.831  1.4598 -0.1044  0.0905
 4871TIP3    H236173   0.690   0.103   7.911  1.6941 -0.2950  0.3891
 4872TIP3   OH236174   4.510   0.447   1.868  0.1627  0.8408 -0.1522
 4872TIP3    H136175   4.444   0.514   1.847  0.5927  1.8227  1.4836
 4872TIP3    H236176   4.569   0.490   1.929  1.2043 -0.6602 -0.0581
 4873TIP3   OH236177   0.659   4.611   1.129 -0.5375  0.3618  0.6478
 4873TIP3    H136178   0.673   4.693   1.081  2.0008 -0.9370 -1.0774
 4873TIP3    H236179   0.721   4.615   1.201 -3.0376  1.4753  2.8987
 4874TIP3   OH236180   0.874   0.707   8.244  0.4886 -0.4247 -0.5545
 4874TIP3    H136181   0.928   0.668   8.175  0.5414 -0.6964 -0.3612
 4874TIP3    H236182   0.812   0.764   8.197  0.5728 -0.5509 -0.8187
 4875TIP3   OH236183   5.956   2.386   7.825 -0.0217 -0.2369 -0.3108
 4875TIP3    H136184   6.009   2.309   7.805  1.4933  0.7577 -0.3605
 4875TIP3    H236185   5.884   2.353   7.878  0.1299 -1.7904 -1.0176
 4876TIP3   OH236186   3.136   4.434   0.383 -0.2937 -0.7955 -0.3911
 4876TIP3    H136187   3.167   4.513   0.337 -0.9541 -0.3031 -0.0087
 4876TIP3    H236188   3.062   4.404   0.331 -2.2643  0.8506  1.3039
 4877TIP3   OH236189   2.741   4.423   7.512  0.2747  0.1582 -0.2498
 4877TIP3    H136190   2.821   4.375   7.491 -0.5704 -1.4036 -0.0091
 4877TIP3    H236191   2.688   4.419   7.433 -0.4602 -0.6860  0.2689
 4878TIP3   OH236192   5.512   2.795   7.545  0.0571 -0.2489 -0.2112
 4878TIP3    H136193   5.496   2.827   7.456  0.5616  1.9536  0.4206
 4878TIP3    H236194   5.592   2.840   7.572 -0.3384 -0.5207  1.5185
 4879TIP3   OH236195   3.630   0.067   7.905 -0.0481 -0.1345 -0.0611
 4879TIP3    H136196   3.548   0.103   7.870  0.5879 -0.4757 -2.0100
 4879TIP3    H236197   3.697   0.102   7.847  1.3467  0.8577  2.0134
 4880TIP3   OH236198   1.698   1.564   8.335  0.2110  0.6562  0.3006
 4880TIP3    H136199   1.652   1.502   8.279  0.4256  1.7216 -1.1244
 4880TIP3    H236200   1.629   1.617   8.374  0.1268  2.1427 -1.7043
 4881TIP3   OH236201   4.238   4.432   7.616  0.0000  0.0475  0.2931
 4881TIP3    H136202   4.176   4.467   7.552 -1.3488  0.5088  1.7710
 4881TIP3    H236203   4.193   4.441   7.700  1.5710 -0.8293  1.2832
 4882TIP3   OH236204   3.111   2.428   1.741  0.1940  0.2280 -0.0581
 4882TIP3    H136205   3.033   2.378   1.767  0.1807  0.1689 -0.2062
 4882TIP3    H236206   3.078   2.517   1.725  0.2097  0.2729  0.1631
 4883TIP3   OH236207   2.405   4.588   7.584  0.3070  0.3901  0.1957
 4883TIP3    H136208   2.466   4.516   7.600  2.0820  1.6900 -0.4809
 4883TIP3    H236209   2.385   4.582   7.490  1.6698  1.6532 -0.2004
 4884TIP3   OH236210   6.311   5.562   6.935 -0.6637 -0.3073  0.0339
 4884TIP3    H136211   6.224   5.583   6.901  0.0362  0.8069 -1.1811
 4884TIP3    H236212   6.315   5.467   6.935 -0.9995 -0.3842 -2.3430
 4885TIP3   OH236213   5.233   2.865   8.259 -0.6666 -0.4063  0.2796
 4885TIP3    H136214   5.220   2.861   8.165 -0.4260  2.0624  0.0668
 4885TIP3    H236215   5.323   2.897   8.269 -1.0167  0.3203  1.2927
 4886TIP3   OH236216   3.169   4.954   8.059 -0.7606  0.0461 -0.2038
 4886TIP3    H136217   3.263   4.965   8.045 -0.0329 -0.6450  3.1849
 4886TIP3    H236218   3.158   4.860   8.069 -1.5591  0.2210  0.6637
 4887TIP3   OH236219   3.263   5.444   1.535  0.7012  0.3678 -0.1876
 4887TIP3    H136220   3.222   5.506   1.475  0.3308 -2.0301 -2.5753
 4887TIP3    H236221   3.204   5.442   1.611 -1.4722  0.0369 -1.7839
 4888TIP3   OH236222   0.639   1.009   6.356  0.8457 -0.1663 -0.5302
 4888TIP3    H136223   0.554   1.003   6.311  1.2002 -0.3077 -1.1938
 4888TIP3    H236224   0.674   1.094   6.328  1.0353 -0.2192 -0.4518
 4889TIP3   OH236225   5.544   1.451   0.641 -0.6187 -0.2488 -0.0990
 4889TIP3    H136226   5.556   1.356   0.648 -1.6364 -0.2604  2.2732
 4889TIP3    H236227   5.450   1.465   0.654 -0.4365  1.1011 -0.0797
 4890TIP3   OH236228   4.356   4.276   1.008 -0.4348 -0.6594  0.8357
 4890TIP3    H136229   4.329   4.249   1.096 -1.1139 -0.1652  0.7882
 4890TIP3    H236230   4.278   4.316   0.970  0.0009 -0.3965  0.1959
 4891TIP3   OH236231   5.124   2.360   6.773 -0.3395 -0.0496 -0.2241
 4891TIP3    H136232   5.124   2.455   6.767 -0.1744 -0.1263 -2.1240
 4891TIP3    H236233   5.085   2.330   6.690 -1.8071 -1.6297  0.9646
 4892TIP3   OH236234   2.175   5.987   7.103 -0.2981  0.0453  0.3441
 4892TIP3    H136235   2.175   5.954   7.013  1.5607 -1.6940  0.9043
 4892TIP3    H236236   2.083   5.984   7.130 -0.6551 -1.1557 -0.9081
 4893TIP3   OH236237   5.899   3.820   8.078  0.1754 -0.6482 -0.0572
 4893TIP3    H136238   5.971   3.757   8.083 -0.2675 -1.0913  0.8103
 4893TIP3    H236239   5.899   3.864   8.163 -0.9924 -1.1230  0.2019
 4894TIP3   OH236240   3.907   6.424   1.073  0.4620  0.3179 -0.0689
 4894TIP3    H136241   3.838   6.455   1.132 -1.1431 -2.5297 -0.2775
 4894TIP3    H236242   3.874   6.444   0.985  1.3103  1.5455 -0.1374
 4895TIP3   OH236243   0.577   4.650   1.554 -0.0857 -0.0587  0.4122
 4895TIP3    H136244   0.526   4.628   1.633 -0.1086  0.9848  0.7153
 4895TIP3    H236245   0.602   4.566   1.517 -0.3238 -0.5768  1.3794
 4896TIP3   OH236246   3.787   3.880   7.777  0.1734  0.3409 -0.3263
 4896TIP3    H136247   3.722   3.891   7.707 -0.3311 -0.1370  0.0619
 4896TIP3    H236248   3.765   3.796   7.817  0.8709  0.3003 -0.0151
 4897TIP3   OH236249   2.359   1.904   1.588 -0.2087 -0.3280 -0.3416
 4897TIP3    H136250   2.451   1.912   1.610 -0.7007  2.1421  1.1990
 4897TIP3    H236251   2.325   1.839   1.650  0.4877 -1.4436 -1.0893
 4898TIP3   OH236252   4.198   0.555   0.736  0.0206  0.0221 -0.1307
 4898TIP3    H136253   4.146   0.523   0.662  0.6643  0.0755 -0.6088
 4898TIP3    H236254   4.289   0.546   0.707  0.3189 -0.7676  0.9706
 4899TIP3   OH236255   1.635   5.169   1.059  0.4019  0.0176 -0.0296
 4899TIP3    H136256   1.587   5.087   1.067  1.0030 -0.7018 -2.8959
 4899TIP3    H236257   1.696   5.169   1.132  0.7594 -2.3689 -0.2569
 4900TIP3   OH236258   4.461   1.975   8.211  1.0937 -0.7161 -0.1762
 4900TIP3    H136259   4.374   2.015   8.213 -0.1585 -3.1030 -1.7118
 4900TIP3    H236260   4.489   1.973   8.302  0.1108  1.2230  0.2115
 4901TIP3   OH236261   2.905   2.585   0.790  0.0760  0.5824  0.9186
 4901TIP3    H136262   2.891   2.602   0.697 -0.9308 -0.2160  0.9003
 4901TIP3    H236263   2.874   2.664   0.834  1.7952  1.5265  0.5469
 4902TIP3   OH236264   3.780   2.626   8.592  0.3969  0.0264 -0.0883
 4902TIP3    H136265   3.778   2.721   8.597 -0.6051  0.0135 -0.0499
 4902TIP3    H236266   3.835   2.599   8.666  0.2616  0.5485  0.2071
 4903TIP3   OH236267   6.605   3.018   8.005  0.1881  0.0430 -0.3936
 4903TIP3    H136268   6.690   3.055   7.981  0.1125 -0.2664 -1.1580
 4903TIP3    H236269   6.622   2.973   8.088  1.0437 -0.9760 -1.0954
 4904TIP3   OH236270   4.660   6.005   7.039 -0.5237 -0.1197 -0.0785
 4904TIP3    H136271   4.651   6.091   6.999 -0.4524  0.1939  0.5630
 4904TIP3    H236272   4.735   5.966   6.995 -0.3455  0.2843 -0.1403
 4905TIP3   OH236273   4.811   3.388   0.285 -0.2382  0.0743  0.2552
 4905TIP3    H136274   4.849   3.386   0.373 -0.9139  0.9137  0.5800
 4905TIP3    H236275   4.716   3.392   0.300 -0.3452  0.5257 -0.5003
 4906TIP3   OH236276   3.914   1.126   8.726 -0.0871  0.0286 -0.0242
 4906TIP3    H136277   3.976   1.193   8.699  0.0290  0.2822  0.8381
 4906TIP3    H236278   3.849   1.172   8.779 -0.7017 -0.3296 -0.4564
 4907TIP3   OH236279   6.612   5.712   0.098  0.0269 -0.2517 -0.1759
 4907TIP3    H136280   6.643   5.639   0.151 -0.3383 -0.3888 -0.1525
 4907TIP3    H236281   6.669   5.711   0.020  0.4659 -0.1370  0.1368
 4908TIP3   OH236282   2.303   5.072   0.358 -0.5642 -0.2754  0.5374
 4908TIP3    H136283   2.285   5.075   0.264  1.0459  1.6334  0.2335
 4908TIP3    H236284   2.374   5.009   0.367 -0.8348 -0.5891  0.5190
 4909TIP3   OH236285   1.785   5.177   0.119 -0.2643  0.4445  0.2265
 4909TIP3    H136286   1.847   5.123   0.169  0.0763  0.7248  0.1094
 4909TIP3    H236287   1.834   5.206   0.043 -0.9502 -0.4345 -0.5775
 4910TIP3   OH236288   3.714   6.033   7.845 -0.6436  0.7276 -0.0411
 4910TIP3    H136289   3.750   6.068   7.764 -0.6084  2.0007  0.5074
 4910TIP3    H236290   3.639   5.981   7.817  1.8081 -2.4573 -1.2676
 4911TIP3   OH236291   2.612   2.259   8.393 -0.1944  0.3061 -0.2994
 4911TIP3    H136292   2.537   2.281   8.449  0.3342  0.6832  0.2767
 4911TIP3    H236293   2.619   2.332   8.332 -0.3271  0.2446 -0.3895
 4912TIP3   OH236294   5.657   0.868   1.967  0.0675  0.6044 -0.0908
 4912TIP3    H136295   5.738   0.903   2.003 -0.6347  2.6520 -0.4114
 4912TIP3    H236296   5.599   0.858   2.042 -0.2206  1.5380 -0.1851
 4913TIP3   OH236297   4.305   0.300   1.145  0.0283 -0.4455  0.0548
 4913TIP3    H136298   4.305   0.396   1.135 -1.0382 -0.4679 -0.3735
 4913TIP3    H236299   4.363   0.269   1.076 -1.5153 -0.1982 -1.4413
 4914TIP3   OH236300   4.094   0.781   1.107  0.0504 -0.0824  0.2438
 4914TIP3    H136301   4.122   0.857   1.056  4.2702 -1.5374 -0.0574
 4914TIP3    H236302   4.121   0.801   1.197  0.5049 -0.8767  0.2998
 4915TIP3   OH236303   3.474   2.999   8.249 -0.3694 -0.3771  0.7887
 4915TIP3    H136304   3.385   3.021   8.274 -0.5470 -0.1095 -0.0511
 4915TIP3    H236305   3.524   3.079   8.265 -0.4822 -0.2070  0.3120
 4916TIP3   OH236306   1.699   5.748   2.426  0.4234  0.2082  0.6097
 4916TIP3    H136307   1.620   5.702   2.455 -0.0205  0.3055 -0.4002
 4916TIP3    H236308   1.671   5.840   2.419  1.1054  0.5425  1.8982
 4917TIP3   OH236309   3.745   0.263   7.700 -0.6129  0.1578 -0.4344
 4917TIP3    H136310   3.776   0.290   7.613 -0.4369 -0.8118 -0.6860
 4917TIP3    H236311   3.745   0.344   7.751  0.2054  0.5783 -1.0645
 4918TIP3   OH236312   0.256   0.772   0.611 -0.0461 -0.2260  0.1225
 4918TIP3    H136313   0.343   0.810   0.618 -0.3014  0.2964  0.5358
 4918TIP3    H236314   0.265   0.703   0.545  0.4328  0.5225 -0.6129
 4919TIP3   OH236315   4.468   1.064   0.331  0.1383 -0.2678  0.4497
 4919TIP3    H136316   4.537   1.006   0.361  1.6078 -0.4272 -2.8599
 4919TIP3    H236317   4.406   1.007   0.285 -0.4227  0.3147  0.4610
 4920TIP3   OH236318   6.205   0.745   2.062  0.3135 -0.3305  0.9329
 4920TIP3    H136319   6.221   0.717   1.972  0.2545  0.0373  0.8103
 4920TIP3    H236320   6.282   0.713   2.110 -1.1858 -3.6155  1.4365
 4921TIP3   OH236321   6.466   3.582   0.930 -0.0466  0.1236 -0.1100
 4921TIP3    H136322   6.422   3.529   0.997 -0.1054  1.9357  1.3598
 4921TIP3    H236323   6.559   3.561   0.941 -0.0349  0.5650  0.7132
 4922TIP3   OH236324   6.588   1.709   8.021 -0.2168 -0.2514  0.5494
 4922TIP3    H136325   6.675   1.741   8.045 -0.3620 -0.2855  1.1407
 4922TIP3    H236326   6.597   1.613   8.021 -0.3850 -0.2695  1.1315
 4923TIP3   OH236327   3.887   0.038   7.601  0.1168 -0.4478  0.5916
 4923TIP3    H136328   3.853   0.119   7.640 -1.1515 -0.7635  0.1763
 4923TIP3    H236329   3.839   0.028   7.520  1.1271 -1.0027  0.0386
 4924TIP3   OH236330   0.739   4.826   7.855 -0.3161 -0.3060  0.1435
 4924TIP3    H136331   0.785   4.785   7.782  0.2236 -1.5156  1.1211
 4924TIP3    H236332   0.798   4.816   7.930 -0.2339  2.1673  0.4749
 4925TIP3   OH236333   1.378   6.311   8.443  0.7164 -0.4942  0.2698
 4925TIP3    H136334   1.363   6.277   8.531 -0.3571  1.2180  0.8048
 4925TIP3    H236335   1.291   6.321   8.405  1.0846  0.0618 -0.4689
 4926TIP3   OH236336   5.734   5.466   6.900 -0.4557 -0.0753  0.3112
 4926TIP3    H136337   5.774   5.485   6.815  1.0795  1.6392  1.3366
 4926TIP3    H236338   5.640   5.467   6.883 -0.1698  0.0655 -1.3985
 4927TIP3   OH236339   2.599   3.656   6.949 -0.4665  0.6404  1.0727
 4927TIP3    H136340   2.582   3.564   6.926 -0.8456  0.2487  2.7767
 4927TIP3    H236341   2.596   3.702   6.865 -1.7941 -0.6614  0.3446
 4928TIP3   OH236342   1.555   4.434   1.014 -0.1141  0.3625  0.2032
 4928TIP3    H136343   1.608   4.424   1.093 -1.1919  1.3090  1.1010
 4928TIP3    H236344   1.613   4.477   0.951  0.2092  1.3710  1.1545
 4929TIP3   OH236345   0.129   0.937   0.233  0.1346 -0.2271  0.2901
 4929TIP3    H136346   0.129   0.846   0.203  1.0924 -0.0318 -0.3314
 4929TIP3    H236347   0.054   0.976   0.188  1.3407 -0.0280 -1.6572
 4930TIP3   OH236348   1.162   6.128   7.515 -0.3253  0.4412  0.6057
 4930TIP3    H136349   1.242   6.159   7.472  0.3345  0.0173  1.4825
 4930TIP3    H236350   1.175   6.034   7.524 -1.1906  0.2771  0.2458
 4931TIP3   OH236351   6.009   4.986   0.836 -0.3185 -0.3164 -0.1532
 4931TIP3    H136352   6.087   4.980   0.781  0.3957 -2.4918  0.9739
 4931TIP3    H236353   5.994   4.896   0.866 -3.0485  0.1025 -0.0111
 4932TIP3   OH236354   1.063   5.574   0.861  0.1234  0.3887  0.1761
 4932TIP3    H136355   1.128   5.604   0.797 -0.9725  1.5312 -0.4313
 4932TIP3    H236356   1.101   5.599   0.946  0.7130  0.5964 -0.1404
 4933TIP3   OH236357   3.285   3.836   2.067  0.0805 -0.2560  0.4051
 4933TIP3    H136358   3.275   3.860   2.159 -0.2585 -0.3756  0.4008
 4933TIP3    H236359   3.363   3.780   2.065 -0.4540 -1.0368  0.7727
 4934TIP3   OH236360   1.719   6.696   6.543  0.2608  0.3716  0.4727
 4934TIP3    H136361   1.640   6.702   6.488  0.1455 -0.8142  0.4891
 4934TIP3    H236362   1.724   6.782   6.586 -1.2309  0.3590  0.7470
 4935TIP3   OH236363   4.487   6.135   0.737  0.2329  0.0560 -0.7947
 4935TIP3    H136364   4.552   6.104   0.674  0.7795 -1.6868  0.5316
 4935TIP3    H236365   4.506   6.086   0.817 -2.2693  0.0464 -0.1180
 4936TIP3   OH236366   3.317   3.826   8.411 -0.2271  0.1311  0.7605
 4936TIP3    H136367   3.274   3.843   8.495 -1.7875  0.5043 -0.0727
 4936TIP3    H236368   3.351   3.912   8.384 -2.5939  0.7758 -0.4723
 4937TIP3   OH236369   4.683   4.512   6.953 -0.0980 -0.0206  0.6087
 4937TIP3    H136370   4.741   4.494   6.879 -0.8295 -1.3866  0.3479
 4937TIP3    H236371   4.729   4.478   7.029  1.3461  2.7014  1.0967
 4938TIP3   OH236372   3.670   4.430   0.858 -0.1993 -0.2552  0.0217
 4938TIP3    H136373   3.714   4.468   0.782  1.1264  0.2779  1.0275
 4938TIP3    H236374   3.577   4.440   0.839  0.1173  0.4068 -1.2625
 4939TIP3   OH236375   6.410   1.206   8.167  0.1221 -0.6038 -0.6248
 4939TIP3    H136376   6.372   1.233   8.083 -0.8973 -2.2480 -0.7314
 4939TIP3    H236377   6.337   1.204   8.228  0.5398 -1.0678 -0.1190
 4940TIP3   OH236378   3.312   3.320   8.484  0.0263  0.0824  0.6068
 4940TIP3    H136379   3.241   3.376   8.514 -0.2665  0.1960 -0.2702
 4940TIP3    H236380   3.384   3.380   8.466  0.1921  0.0178  1.0557
 4941TIP3   OH236381   5.365   1.853   0.503 -0.1894 -0.0667  0.0346
 4941TIP3    H136382   5.284   1.806   0.484 -1.0923  1.1343  0.7489
 4941TIP3    H236383   5.381   1.836   0.596  0.6972 -0.7590 -0.2402
 4942TIP3   OH236384   3.546   2.745   0.024 -0.1523  0.1945  0.1188
 4942TIP3    H136385   3.521   2.790   0.105  0.6779  0.3921  0.2736
 4942TIP3    H236386   3.586   2.663   0.055 -1.4761 -0.5942 -0.1509
 4943TIP3   OH236387   4.332   5.091   0.293 -0.1260  0.0443  0.0805
 4943TIP3    H136388   4.410   5.128   0.251  0.7770 -1.4335  0.3591
 4943TIP3    H236389   4.262   5.105   0.229  0.4678  0.9334 -0.4086
 4944TIP3   OH236390   5.402   1.762   7.730  0.0302 -0.6404 -0.2481
 4944TIP3    H136391   5.351   1.747   7.810  0.9906 -0.7296  0.3578
 4944TIP3    H236392   5.418   1.675   7.694 -1.5414 -0.5419 -1.2966
 4945TIP3   OH236393   3.893   3.252   7.284 -0.5366  0.2937 -0.2319
 4945TIP3    H136394   3.976   3.239   7.328  0.9535  0.1417 -2.8752
 4945TIP3    H236395   3.866   3.164   7.257 -1.3160  0.4007  0.1655
 4946TIP3   OH236396   1.164   2.746   7.343  0.0899  0.1771 -0.2002
 4946TIP3    H136397   1.077   2.708   7.335  0.1936 -0.0251 -0.3774
 4946TIP3    H236398   1.182   2.747   7.437 -0.2408  0.5299 -0.1389
 4947TIP3   OH236399   0.047   4.340   6.726 -0.2713 -0.2241  0.0927
 4947TIP3    H136400  -0.041   4.313   6.751  0.1476  0.2459  2.2580
 4947TIP3    H236401   0.036   4.382   6.641 -1.9130 -1.3805 -0.3042
 4948TIP3   OH236402   6.744   1.256   7.620  0.2685  0.3777  0.0207
 4948TIP3    H136403   6.679   1.198   7.660 -0.4685 -0.3326 -2.0666
 4948TIP3    H236404   6.744   1.334   7.676 -1.4283 -0.1277  0.8004
 4949TIP3   OH236405   4.034   1.410   0.083  0.0519 -0.2888  0.0246
 4949TIP3    H136406   4.001   1.436   0.169  0.9318  0.5613  0.1138
 4949TIP3    H236407   4.099   1.342   0.102  0.1721 -0.1749  0.0129
 4950TIP3   OH236408   2.265   6.183   6.891 -0.2373 -0.0126  0.1817
 4950TIP3    H136409   2.178   6.194   6.931  0.1242  0.0877  0.9519
 4950TIP3    H236410   2.259   6.230   6.808 -1.2852 -0.9509 -0.3119
 4951TIP3   OH236411   5.324   3.938   1.132 -0.3566 -0.6759 -0.5436
 4951TIP3    H136412   5.275   3.875   1.185 -0.4128 -1.5335 -1.6013
 4951TIP3    H236413   5.392   3.971   1.191  0.4403 -2.6345 -0.3176
 4952TIP3   OH236414   4.269   1.212   1.644 -0.0043  0.3925 -0.2689
 4952TIP3    H136415   4.215   1.242   1.571  0.4706  0.1011 -0.7383
 4952TIP3    H236416   4.283   1.291   1.697 -2.1618  0.2045  0.7056
 4953TIP3   OH236417   4.714   6.627   8.271 -0.2181 -0.3043  0.5984
 4953TIP3    H136418   4.709   6.542   8.228  1.5422 -0.1268 -0.0250
 4953TIP3    H236419   4.774   6.678   8.216 -0.9406  1.2275  1.1620
 4954TIP3   OH236420   4.669   6.316   0.081 -0.2674 -0.0473 -0.1676
 4954TIP3    H136421   4.702   6.230   0.106  0.9880  0.6522  0.6638
 4954TIP3    H236422   4.626   6.301  -0.004  4.4553 -0.6224 -2.8047
 4955TIP3   OH236423   5.914   2.072   0.460  0.1549 -0.2580  0.0530
 4955TIP3    H136424   5.908   2.000   0.397  0.5106 -1.5038  1.3887
 4955TIP3    H236425   5.920   2.028   0.546 -0.2431  1.3746  0.9523
 4956TIP3   OH236426   4.494   2.959   7.701 -0.0062  0.2598 -0.2716
 4956TIP3    H136427   4.429   2.893   7.723  0.0420  0.6317  1.0937
 4956TIP3    H236428   4.443   3.034   7.670 -0.0073 -0.7788 -3.0087
 4957TIP3   OH236429   5.021   5.172   7.323  0.3715  0.5416 -0.4529
 4957TIP3    H136430   4.994   5.214   7.405  2.1283  1.3498 -0.2556
 4957TIP3    H236431   4.975   5.221   7.255  0.3464  1.0691 -0.0628
 4958TIP3   OH236432   1.775   1.447   0.897 -0.3186  0.1805 -0.1620
 4958TIP3    H136433   1.757   1.426   0.805 -1.4747  1.1024 -0.1698
 4958TIP3    H236434   1.714   1.518   0.918 -0.3451 -0.2786  1.4382
 4959TIP3   OH236435   3.719   0.555   1.695  0.4265 -0.0970 -0.4539
 4959TIP3    H136436   3.629   0.527   1.716  0.8784 -0.1844  1.5356
 4959TIP3    H236437   3.765   0.550   1.778  1.5884  2.6719 -0.8485
 4960TIP3   OH236438   3.383   4.163   7.096 -0.1570  0.8688 -0.1949
 4960TIP3    H136439   3.418   4.075   7.084  1.6010  1.5850 -0.5435
 4960TIP3    H236440   3.452   4.222   7.066  0.3518  2.5394  3.6720
 4961TIP3   OH236441   6.540   0.807   1.430 -0.3868  0.3148 -0.0463
 4961TIP3    H136442   6.508   0.855   1.354 -1.0475  1.4444  0.9040
 4961TIP3    H236443   6.606   0.865   1.469  0.7391 -0.7298 -0.3623
 4962TIP3   OH236444   1.223   3.809   0.700 -0.2314  0.6191  0.2095
 4962TIP3    H136445   1.311   3.810   0.664 -0.6529 -0.0009 -0.8753
 4962TIP3    H236446   1.235   3.801   0.795  0.8664 -0.5553 -0.0075
 4963TIP3   OH236447   6.660   0.612   8.569  0.6645  0.4870 -0.1854
 4963TIP3    H136448   6.601   0.574   8.504  0.3890 -1.8879  1.3109
 4963TIP3    H236449   6.701   0.536   8.611  3.6254  2.0051 -0.0867
 4964TIP3   OH236450   4.764   0.596   8.538  0.0623  0.0456 -0.3142
 4964TIP3    H136451   4.691   0.653   8.565 -0.7390 -0.9151 -0.3773
 4964TIP3    H236452   4.774   0.534   8.611  0.8434  0.1761 -0.3001
 4965TIP3   OH236453   2.150   2.698   8.430 -0.2177 -0.6501 -0.0908
 4965TIP3    H136454   2.128   2.662   8.345 -0.1874  0.1502 -0.4415
 4965TIP3    H236455   2.067   2.725   8.468 -0.1435 -0.2294 -0.2246
 4966TIP3   OH236456   4.724   5.295   8.371 -0.0671  0.3666  0.8795
 4966TIP3    H136457   4.784   5.222   8.355 -0.1255 -0.2513  3.0886
 4966TIP3    H236458   4.714   5.337   8.286  0.7707 -1.5897 -0.2601
 4967TIP3   OH236459   1.323   3.223   1.270  0.2039 -0.2419  0.3067
 4967TIP3    H136460   1.235   3.186   1.270  0.6711 -1.4156  0.5443
 4967TIP3    H236461   1.337   3.253   1.359  0.4316 -1.0870  0.5720
 4968TIP3   OH236462   4.319   1.547   0.224 -0.3749 -0.4235 -0.1545
 4968TIP3    H136463   4.293   1.638   0.209  1.1986 -0.1724 -1.5302
 4968TIP3    H236464   4.369   1.523   0.147  0.2501 -2.0933  0.7324
 4969TIP3   OH236465   4.093   2.899   7.116 -0.3511  0.5057 -0.0778
 4969TIP3    H136466   4.022   2.963   7.131 -0.4379  0.7516 -1.4039
 4969TIP3    H236467   4.048   2.819   7.088 -0.1788  0.2193  0.4620
 4970TIP3   OH236468   6.518   6.089   1.315 -0.1747  0.4262  0.1036
 4970TIP3    H136469   6.515   6.144   1.236 -0.6300  0.1326 -0.0854
 4970TIP3    H236470   6.446   6.122   1.369  0.5919  1.1161  0.7307
 4971TIP3   OH236471   4.684   0.426   6.084  0.0568  0.3848  0.1140
 4971TIP3    H136472   4.605   0.383   6.050  0.2541 -0.5538  0.8198
 4971TIP3    H236473   4.751   0.409   6.018 -0.0411  0.1963  0.0639
 4972TIP3   OH236474   3.828   4.909   2.231 -0.6037  0.4581 -0.3946
 4972TIP3    H136475   3.810   4.827   2.184 -1.4053  0.0444  0.6085
 4972TIP3    H236476   3.781   4.976   2.181 -0.0842  0.3047 -1.1196
 4973TIP3   OH236477   4.574   5.188   6.517 -0.2531 -0.9106 -0.1891
 4973TIP3    H136478   4.480   5.194   6.535  0.2501  0.2653  2.4552
 4973TIP3    H236479   4.601   5.279   6.499  0.6185 -0.9983  0.5893
 4974TIP3   OH236480   6.565   2.518   6.758 -0.4068 -0.0985 -0.0804
 4974TIP3    H136481   6.622   2.527   6.834 -0.6352 -0.3130  0.1196
 4974TIP3    H236482   6.599   2.441   6.711 -2.3543 -2.1722  1.6791
 4975TIP3   OH236483   2.196   3.071   8.639 -0.1689 -0.1771 -0.2642
 4975TIP3    H136484   2.104   3.064   8.664  0.0728 -4.2331  0.1314
 4975TIP3    H236485   2.234   3.132   8.703 -1.7432 -1.8478  2.4399
 4976TIP3   OH236486   3.390   1.617   8.391  0.5762  0.5798  0.5483
 4976TIP3    H136487   3.482   1.622   8.366  0.5748  0.6587  0.5586
 4976TIP3    H236488   3.355   1.544   8.340  0.4467  1.0658 -0.0767
 4977TIP3   OH236489   2.003   4.220   0.563  0.3429 -0.0307  0.0605
 4977TIP3    H136490   1.935   4.250   0.624 -0.4364  0.7898 -1.1579
 4977TIP3    H236491   2.071   4.183   0.619 -1.2987 -1.2955  1.3157
 4978TIP3   OH236492   6.495   5.176   1.923 -0.3288  0.3280  0.5331
 4978TIP3    H136493   6.418   5.129   1.956 -0.0801  0.6641  1.6285
 4978TIP3    H236494   6.553   5.107   1.891 -0.9797  0.0541 -0.0827
 4979TIP3   OH236495   2.180   6.731   2.052  0.1680  0.3526 -0.0159
 4979TIP3    H136496   2.097   6.691   2.025  0.0754 -0.5320  1.4153
 4979TIP3    H236497   2.247   6.674   2.014  0.0440 -0.6787  1.2125
 4980TIP3   OH236498   5.794   0.664   1.175 -0.1670 -0.5733 -0.0817
 4980TIP3    H136499   5.829   0.741   1.221  0.5415 -0.7743 -0.2770
 4980TIP3    H236500   5.743   0.701   1.103  0.5685 -0.2882 -0.4620
 4981TIP3   OH236501   4.662   2.529   7.570 -0.3740  0.1549 -0.1067
 4981TIP3    H136502   4.739   2.477   7.595  1.3473  2.0314 -1.1943
 4981TIP3    H236503   4.685   2.567   7.486 -3.2101 -0.4946 -1.3031
 4982TIP3   OH236504   1.038   2.123   2.249  0.0144 -0.8280  0.7380
 4982TIP3    H136505   1.086   2.112   2.331  1.4928  0.6541  0.1195
 4982TIP3    H236506   1.000   2.211   2.256  0.5791 -0.4862 -0.3749
 4983TIP3   OH236507   6.675   5.708   1.786  0.2846 -1.0530  0.2910
 4983TIP3    H136508   6.651   5.616   1.779  0.0828 -1.0192  0.5423
 4983TIP3    H236509   6.715   5.716   1.872  1.2509 -1.1180 -0.1450
 4984TIP3   OH236510   6.432   3.431   7.298 -0.6594 -0.1615  0.0621
 4984TIP3    H136511   6.373   3.376   7.247  1.2947 -2.3089 -0.0272
 4984TIP3    H236512   6.477   3.371   7.357  1.1862  1.4019  0.3778
 4985TIP3   OH236513   0.741   3.935   2.531  0.0912  0.3644  0.4532
 4985TIP3    H136514   0.709   4.021   2.503  0.1034  0.7931  1.6987
 4985TIP3    H236515   0.836   3.942   2.524  0.0788 -0.9094 -3.2475
 4986TIP3   OH236516   0.474   3.994   1.994 -0.1790 -0.2739  0.0184
 4986TIP3    H136517   0.421   3.933   2.044  0.6907 -0.4464  0.7521
 4986TIP3    H236518   0.485   4.070   2.051 -0.4451  0.1801 -0.5120
 4987TIP3   OH236519   4.570   6.783   6.552 -0.2237 -0.7614  0.0327
 4987TIP3    H136520   4.603   6.869   6.524 -1.5167 -0.4731 -0.6795
 4987TIP3    H236521   4.483   6.777   6.513  0.5085 -3.1623 -1.4681
 4988TIP3   OH236522   2.382   2.852   7.301 -0.1563 -0.1823  0.7088
 4988TIP3    H136523   2.296   2.893   7.298  0.0826  0.2933  0.2019
 4988TIP3    H236524   2.437   2.907   7.245 -0.1399 -1.9288 -1.1139
 4989TIP3   OH236525   1.117   2.108   0.716 -0.6735 -0.0741  0.3868
 4989TIP3    H136526   1.170   2.187   0.707 -1.6495  0.6173  0.5418
 4989TIP3    H236527   1.111   2.073   0.628  0.0474 -0.1585  0.3713
 4990TIP3   OH236528   2.452   1.047   7.634 -0.2684 -0.5745  0.3959
 4990TIP3    H136529   2.426   1.112   7.700 -0.4798 -0.5875  0.3258
 4990TIP3    H236530   2.487   0.974   7.685  2.0551  0.4620  0.4288
 4991TIP3   OH236531   5.021   5.180   0.134 -0.2489  0.1484 -0.2606
 4991TIP3    H136532   5.071   5.195   0.053  1.1978 -3.3963 -0.2281
 4991TIP3    H236533   4.954   5.117   0.108  0.3339 -1.1632  1.2608
 4992TIP3   OH236534   3.392   0.432   7.550 -0.4061  0.3404 -0.0006
 4992TIP3    H136535   3.460   0.484   7.509 -0.1674  0.9424  1.1151
 4992TIP3    H236536   3.384   0.355   7.494  2.1257 -0.3995  0.5047
 4993TIP3   OH236537   5.393   4.942   0.480  0.3851  0.6712 -0.2006
 4993TIP3    H136538   5.343   4.941   0.398 -0.3367 -0.0752  0.2383
 4993TIP3    H236539   5.446   4.862   0.477  0.0890  0.4558  0.2204
 4994TIP3   OH236540   4.466   0.947   0.822 -0.0218  0.0296  0.8965
 4994TIP3    H136541   4.500   0.912   0.740 -0.7377  0.8615  0.2220
 4994TIP3    H236542   4.515   1.029   0.836  0.9890 -0.7265  1.9749
 4995TIP3   OH236543   1.808   5.223   8.494  0.0961  0.3223 -0.0320
 4995TIP3    H136544   1.843   5.262   8.415 -1.7768  0.2992 -0.9337
 4995TIP3    H236545   1.744   5.159   8.463  0.4530 -0.8392  1.4830
 4996TIP3   OH236546   6.227   4.570   1.189  0.3722  0.4413 -0.2700
 4996TIP3    H136547   6.271   4.547   1.107 -0.6246  0.1416 -0.7323
 4996TIP3    H236548   6.271   4.517   1.256 -0.1359 -0.8388 -0.9163
 4997TIP3   OH236549   2.666   2.617   7.593  0.5281  0.1277 -0.8203
 4997TIP3    H136550   2.576   2.587   7.596  0.4988  0.2548 -0.3836
 4997TIP3    H236551   2.675   2.674   7.670  1.1263 -0.3037 -0.5655
 4998TIP3   OH236552   2.185   3.015   8.380 -1.1010 -0.5926 -0.7331
 4998TIP3    H136553   2.244   3.060   8.319  0.5627 -3.3207 -1.3183
 4998TIP3    H236554   2.207   3.051   8.466  0.0825 -0.1902 -1.1802
 4999TIP3   OH236555   1.299   3.008   0.703 -0.7221  0.3974 -0.1582
 4999TIP3    H136556   1.321   3.083   0.647 -1.3141  0.1112 -0.7860
 4999TIP3    H236557   1.374   2.950   0.697 -0.5005  0.6792 -0.1180
 5000TIP3   OH236558   0.446   0.440   7.975  0.5019 -0.6104 -0.1544
 5000TIP3    H136559   0.521   0.380   7.977 -0.2018 -1.4864  0.7062
 5000TIP3    H236560   0.384   0.400   7.914 -0.0305 -0.8430  0.5276
 5001TIP3   OH236561   1.735   3.566   7.302 -0.0155  0.0076 -0.9703
 5001TIP3    H136562   1.751   3.628   7.231 -0.9186 -0.6426 -1.7613
 5001TIP3    H236563   1.801   3.498   7.289  0.9259  0.7298 -0.1472
 5002TIP3   OH236564   3.324   1.836   1.472  0.2698  0.1677  0.0999
 5002TIP3    H136565   3.231   1.836   1.493  0.2831  1.0375  0.1853
 5002TIP3    H236566   3.340   1.922   1.432  1.1248  0.2140  0.5167
 5003TIP3   OH236567   2.526   2.330   7.810 -0.0649  0.5324 -0.0274
 5003TIP3    H136568   2.495   2.399   7.869  0.5103  0.2312  0.6287
 5003TIP3    H236569   2.604   2.368   7.769 -0.7045  0.9120 -0.9515
 5004TIP3   OH236570   4.611   2.630   0.622  0.3153  0.3889  0.5951
 5004TIP3    H136571   4.583   2.667   0.706  1.3303 -0.1475  1.2053
 5004TIP3    H236572   4.702   2.660   0.612  0.9534 -1.3495  0.8034
 5005TIP3   OH236573   4.524   5.023   0.653  0.5349  0.3419 -0.3707
 5005TIP3    H136574   4.459   4.988   0.592  0.2656  1.4665 -0.7694
 5005TIP3    H236575   4.604   4.975   0.634  0.0541 -0.4200 -0.5139
 5006TIP3   OH236576   1.375   0.827   7.913 -0.1146  0.2852 -0.0952
 5006TIP3    H136577   1.446   0.767   7.889 -0.3415  0.2865 -0.7822
 5006TIP3    H236578   1.389   0.844   8.006  1.3150  0.9817 -0.4059
 5007TIP3   OH236579   6.545   5.418   7.648 -0.3300 -0.0440  0.1012
 5007TIP3    H136580   6.539   5.358   7.573 -0.6447  1.0747 -0.7997
 5007TIP3    H236581   6.455   5.446   7.664 -0.7254 -2.3307  2.7114
 5008TIP3   OH236582   6.073   4.123   7.112 -0.3767 -0.2298  0.6318
 5008TIP3    H136583   6.104   4.212   7.124  0.6473 -0.6406  1.2037
 5008TIP3    H236584   6.069   4.111   7.018  0.8481 -0.0095  0.5307
 5009TIP3   OH236585   6.047   5.830   1.664  0.7401 -0.6675 -0.8316
 5009TIP3    H136586   6.092   5.908   1.632  0.3769 -0.4447 -0.8133
 5009TIP3    H236587   6.035   5.846   1.757 -1.6615  0.4757 -1.2498
 5010TIP3   OH236588   3.708   6.421   0.118  0.9296 -0.1602 -0.2941
 5010TIP3    H136589   3.758   6.397   0.196 -1.2776 -1.7668  0.7228
 5010TIP3    H236590   3.676   6.338   0.083 -2.6503  0.7744  0.3334
 5011TIP3   OH236591   1.431   5.473   1.613 -0.2188 -0.4497  0.3126
 5011TIP3    H136592   1.337   5.482   1.623 -0.1069  0.6608  0.4484
 5011TIP3    H236593   1.443   5.445   1.522 -0.5926  1.3321 -0.3158
 5012TIP3   OH236594   1.704   0.240   1.865 -0.2644 -0.1911 -0.1781
 5012TIP3    H136595   1.674   0.184   1.794 -1.6889  1.2342 -0.7544
 5012TIP3    H236596   1.796   0.259   1.844 -0.5695 -0.0798 -1.4503
 5013TIP3   OH236597   6.018   4.281   0.037 -0.0149  0.2656 -0.2654
 5013TIP3    H136598   6.104   4.320   0.056 -0.6567  0.4334  2.9198
 5013TIP3    H236599   5.960   4.357   0.030 -0.0584  0.1188 -1.7379
 5014TIP3   OH236600   0.903   6.108   7.489  0.1081  0.0926 -0.3400
 5014TIP3    H136601   0.905   6.029   7.435  0.0882  0.3688 -0.7485
 5014TIP3    H236602   0.990   6.113   7.528 -0.5293 -1.2601  1.3393
 5015TIP3   OH236603   2.958   1.460   6.731 -0.0044  0.9384 -0.6888
 5015TIP3    H136604   2.914   1.529   6.780  0.1533 -0.8729  2.2034
 5015TIP3    H236605   2.888   1.402   6.702 -0.0934  1.9626 -2.7518
 5016TIP3   OH236606   3.221   4.889   7.727 -0.3431 -0.1453  0.7958
 5016TIP3    H136607   3.197   4.924   7.813  0.2344 -0.1782  0.9768
 5016TIP3    H236608   3.226   4.967   7.671  0.5659  0.0281  1.1068
 5017TIP3   OH236609   1.877   0.697   8.179  0.5896  0.1424  0.4030
 5017TIP3    H136610   1.809   0.735   8.234  0.8388 -0.7803  1.3780
 5017TIP3    H236611   1.830   0.650   8.110  0.2769  1.3585 -0.2363
 5018TIP3   OH236612   2.668   3.327   7.463 -0.1745  0.2160 -0.0237
 5018TIP3    H136613   2.600   3.362   7.521  0.6947 -0.4853  1.4778
 5018TIP3    H236614   2.736   3.395   7.462  0.1279 -0.0710  0.3884
 5019TIP3   OH236615   1.349   3.962   0.395 -0.2088  0.1202  0.5115
 5019TIP3    H136616   1.282   3.987   0.330 -0.3242 -0.7476  0.2909
 5019TIP3    H236617   1.348   3.867   0.395  0.8794  0.0978  0.6748
 5020TIP3   OH236618   0.365   6.335   6.871  0.6780 -0.5706 -0.0466
 5020TIP3    H136619   0.334   6.246   6.855 -1.8590  0.4647 -1.3165
 5020TIP3    H236620   0.449   6.339   6.826 -1.3474 -0.9835 -4.3453
 5021TIP3   OH236621   4.419   0.761   1.840  0.3639 -0.6194  0.6793
 5021TIP3    H136622   4.499   0.776   1.891 -0.2110 -1.3397  1.8387
 5021TIP3    H236623   4.428   0.819   1.764  0.8939  1.0960  1.9884
 5022TIP3   OH236624   1.747   3.861   0.367  0.2044  0.6216 -0.3661
 5022TIP3    H136625   1.811   3.793   0.391  0.2977  1.0029  0.4957
 5022TIP3    H236626   1.801   3.935   0.339  0.1102  0.4660 -0.9597
 5023TIP3   OH236627   6.138   6.534   8.037  0.4659 -0.5083  0.5585
 5023TIP3    H136628   6.176   6.447   8.027  0.1083 -0.6527  0.4357
 5023TIP3    H236629   6.117   6.561   7.948  0.5383 -0.3141  0.6008
 5024TIP3   OH236630   3.927   3.113   1.061 -0.3042  0.1989 -0.6979
 5024TIP3    H136631   3.863   3.095   1.130  1.0966 -0.0820  0.5789
 5024TIP3    H236632   4.004   3.145   1.108  0.5245  0.4699 -2.1863
 5025TIP3   OH236633   5.987   2.043   1.592 -0.0098  0.5688  0.0301
 5025TIP3    H136634   5.991   2.045   1.497 -0.6647 -0.2977 -0.0285
 5025TIP3    H236635   5.895   2.055   1.613  0.0647  0.3084  0.5376
 5026TIP3   OH236636   4.353   5.255   1.155  0.6048 -0.3227 -0.2293
 5026TIP3    H136637   4.304   5.172   1.160  1.6016 -0.8515  1.9098
 5026TIP3    H236638   4.286   5.321   1.136 -0.2496 -1.5485 -1.7253
 5027TIP3   OH236639   3.633   6.691   1.781 -0.1953  0.0716  1.0001
 5027TIP3    H136640   3.714   6.660   1.820 -0.2760 -2.9044 -0.8849
 5027TIP3    H236641   3.571   6.619   1.793 -1.0933  0.2484 -1.7487
 5028TIP3   OH236642   1.572   3.998   2.360  0.2062 -0.3673  0.6404
 5028TIP3    H136643   1.488   4.006   2.407 -0.6169 -0.2714 -0.7957
 5028TIP3    H236644   1.575   3.907   2.332  1.8743 -1.1096  2.9265
 5029TIP3   OH236645   5.215   3.684   8.838 -0.3564 -0.3306 -0.1999
 5029TIP3    H136646   5.159   3.702   8.913 -1.6550 -0.6851 -1.0479
 5029TIP3    H236647   5.226   3.768   8.794 -0.7426 -0.3656 -0.3680
 5030TIP3   OH236648   4.772   3.475   8.229  0.1089  0.4111  0.3297
 5030TIP3    H136649   4.759   3.561   8.188  3.3592  0.4612 -0.9224
 5030TIP3    H236650   4.718   3.478   8.307 -0.6419  3.2347 -0.1575
 5031TIP3   OH236651   5.204   0.460   6.495  0.5034  0.3517  0.2762
 5031TIP3    H136652   5.201   0.433   6.587  1.2109  0.4210  0.3237
 5031TIP3    H236653   5.144   0.400   6.451  1.7517 -1.0969  0.4360
 5032TIP3   OH236654   5.004   5.698   1.558 -0.1456  0.4448  0.0860
 5032TIP3    H136655   5.074   5.694   1.622  0.6663 -0.9513 -0.8457
 5032TIP3    H236656   4.946   5.768   1.590  2.1772  2.3700  0.3297
 5033TIP3   OH236657   5.433   6.275   6.941  0.4343  0.2258 -0.5102
 5033TIP3    H136658   5.444   6.220   6.863  3.4585  0.4099 -0.3404
 5033TIP3    H236659   5.405   6.360   6.908 -1.8386 -0.6412 -0.9937
 5034TIP3   OH236660   6.724   4.176   0.185 -0.3158  0.0860 -0.7555
 5034TIP3    H136661   6.686   4.225   0.112  1.6212  0.0262 -1.8776
 5034TIP3    H236662   6.722   4.085   0.156 -3.2171 -0.5538  1.0114
 5035TIP3   OH236663   3.287   1.337   0.361 -0.8080  0.0676  0.4754
 5035TIP3    H136664   3.231   1.312   0.288 -0.1211 -0.5549  0.1525
 5035TIP3    H236665   3.376   1.322   0.330 -0.4331  1.3435  0.8681
 5036TIP3   OH236666   0.127   0.010   8.787  0.0931  0.1327 -0.2240
 5036TIP3    H136667   0.051   0.020   8.844 -0.6521  1.4846 -1.4265
 5036TIP3    H236668   0.202   0.025   8.845 -0.5781 -0.1412  0.7364
 5037TIP3   OH236669   4.699   0.730   8.052 -0.1432  0.3238  0.2120
 5037TIP3    H136670   4.692   0.750   7.959  0.2822 -0.9986 -0.1252
 5037TIP3    H236671   4.627   0.778   8.093  0.0177  1.3820 -0.7077
 5038TIP3   OH236672   2.576   4.473   1.292  0.2427  0.2964  0.3070
 5038TIP3    H136673   2.530   4.478   1.208  1.2093 -0.7586 -0.3168
 5038TIP3    H236674   2.667   4.456   1.268  1.1587  2.9496  1.4625
 5039TIP3   OH236675   0.055   5.484   0.934  0.1498  0.7378  0.2091
 5039TIP3    H136676   0.011   5.404   0.964  1.8264 -0.0354  0.7508
 5039TIP3    H236677  -0.011   5.552   0.943 -0.9629 -0.3776  0.8989
 5040TIP3   OH236678   6.297   2.767   6.868 -0.0010 -0.3086  0.2877
 5040TIP3    H136679   6.351   2.843   6.888 -0.3784  0.6403 -1.9734
 5040TIP3    H236680   6.319   2.746   6.777 -1.7686 -1.3022  0.0520
 5041TIP3   OH236681   6.778   1.520   1.770 -0.1792 -0.3072  0.1485
 5041TIP3    H136682   6.784   1.583   1.698 -1.1456  0.3194  0.5950
 5041TIP3    H236683   6.787   1.435   1.728 -1.6989 -0.0069 -0.8806
 5042TIP3   OH236684   6.214   6.057   8.701  0.3048 -0.0223  0.4809
 5042TIP3    H136685   6.173   5.972   8.713  1.2491 -0.8482 -1.5488
 5042TIP3    H236686   6.218   6.095   8.789 -2.0849 -1.1067  1.1402
 5043TIP3   OH236687   2.271   2.060   0.848 -0.2215  0.0025  0.2172
 5043TIP3    H136688   2.348   2.071   0.792  0.2687  1.5027  1.1078
 5043TIP3    H236689   2.238   1.973   0.827  1.1090 -0.2649 -0.9407
 5044TIP3   OH236690   0.936   1.436   7.045 -0.4609  0.6789  0.1116
 5044TIP3    H136691   0.878   1.410   6.972 -1.0175  0.7030  0.5366
 5044TIP3    H236692   0.882   1.424   7.123 -0.5474  2.5576  0.3782
 5045TIP3   OH236693   0.393   3.456   0.701 -0.2945 -0.0065  0.1007
 5045TIP3    H136694   0.393   3.470   0.607 -1.1829 -1.7377 -0.1795
 5045TIP3    H236695   0.452   3.382   0.714 -1.6675 -1.0243  0.6818
 5046TIP3   OH236696   1.990   5.702   7.208  0.3340 -0.1189  0.2962
 5046TIP3    H136697   1.955   5.782   7.167 -1.8222 -0.9764  0.3067
 5046TIP3    H236698   2.003   5.641   7.135  0.4082 -0.2976  0.4575
 5047TIP3   OH236699   4.507   3.576   8.247 -0.3769  0.1822  0.7535
 5047TIP3    H136700   4.435   3.588   8.185  0.2869  1.6624  0.2158
 5047TIP3    H236701   4.524   3.663   8.282  1.9652  0.1433 -0.1101
 5048TIP3   OH236702   1.848   1.800   0.726  0.1207 -0.0510  0.3197
 5048TIP3    H136703   1.822   1.768   0.813 -0.5867  2.1563  0.9844
 5048TIP3    H236704   1.922   1.857   0.742  1.0591 -0.9195 -0.7694
 5049TIP3   OH236705   4.550   5.331   0.973  0.5441  0.5362  0.6477
 5049TIP3    H136706   4.640   5.299   0.985  0.8516  0.4932 -1.3909
 5049TIP3    H236707   4.496   5.269   1.023  1.4558 -0.8213  0.0188
 5050TIP3   OH236708   5.691   3.169   8.392 -0.2625  0.0884  0.0806
 5050TIP3    H136709   5.756   3.123   8.339 -2.1915 -1.2158 -1.3298
 5050TIP3    H236710   5.663   3.242   8.336  1.3109  1.8519  1.4780
 5051TIP3   OH236711   1.915   2.943   1.438 -0.0616 -0.0151 -0.4327
 5051TIP3    H136712   1.975   2.979   1.504 -1.7003  0.3084  0.9513
 5051TIP3    H236713   1.964   2.948   1.356  1.4987  0.9723  0.5034
 5052TIP3   OH236714   5.369   0.475   1.300 -0.2252 -0.5215  0.3259
 5052TIP3    H136715   5.336   0.427   1.376  0.0609 -1.9177 -0.3942
 5052TIP3    H236716   5.451   0.515   1.331  0.4324 -1.9482  0.4784
 5053TIP3   OH236717   4.301   6.227   0.401 -0.8236  0.1173 -0.3409
 5053TIP3    H136718   4.281   6.225   0.495 -0.6607  0.2815 -0.3013
 5053TIP3    H236719   4.375   6.288   0.394 -0.2119 -0.6296 -0.4582
 5054TIP3   OH236720   5.282   2.768   1.784  0.2365 -0.3984 -0.4491
 5054TIP3    H136721   5.220   2.814   1.727  0.9309  0.2339 -0.7113
 5054TIP3    H236722   5.368   2.791   1.749  0.6896  0.2099  1.0052
 5055TIP3   OH236723   4.519   5.754   1.677  0.1401 -0.0074 -0.9400
 5055TIP3    H136724   4.482   5.693   1.612  0.2112 -0.3972 -0.6194
 5055TIP3    H236725   4.443   5.789   1.723  0.1478 -0.6923 -0.3842
 5056TIP3   OH236726   4.003   2.598   7.558 -0.0465  0.2207 -0.0164
 5056TIP3    H136727   4.060   2.663   7.516 -0.1465  0.6639  0.5180
 5056TIP3    H236728   4.054   2.517   7.556  0.5492  0.5755  0.3148
 5057TIP3   OH236729   5.331   6.705   0.964  0.0861  0.2097  0.5603
 5057TIP3    H136730   5.288   6.764   1.026  1.2429 -0.5093  2.1073
 5057TIP3    H236731   5.259   6.656   0.924 -0.7864  1.7075  0.2096
 5058TIP3   OH236732   3.039   4.524   8.725 -0.5695 -0.0423 -0.5516
 5058TIP3    H136733   3.103   4.584   8.685 -1.4806 -0.0315 -2.0691
 5058TIP3    H236734   2.993   4.579   8.788  0.0125  0.3030 -0.4126
 5059TIP3   OH236735   0.211   5.545   1.868 -0.0108 -0.3086 -0.5611
 5059TIP3    H136736   0.181   5.461   1.833  0.7396 -2.2312  2.9274
 5059TIP3    H236737   0.139   5.574   1.925  0.8842 -0.1398  0.5221
 5060TIP3   OH236738   5.232   0.323   0.778  0.1173  0.0235 -0.1618
 5060TIP3    H136739   5.189   0.258   0.834  0.1645  0.8416  0.8589
 5060TIP3    H236740   5.198   0.305   0.690  1.7972 -2.7710 -0.3410
 5061TIP3   OH236741   1.225   0.257   1.372  0.0517  0.2343  0.5805
 5061TIP3    H136742   1.197   0.299   1.452  0.8617 -0.9768  1.5404
 5061TIP3    H236743   1.256   0.328   1.316 -1.4537  1.1953  0.9085
 5062TIP3   OH236744   0.338   5.955   1.263 -0.4012 -0.1571 -0.3273
 5062TIP3    H136745   0.303   6.044   1.263  1.5703  0.6690  1.0446
 5062TIP3    H236746   0.390   5.950   1.183 -1.7573 -0.6614 -1.2258
 5063TIP3   OH236747   0.100   1.488   2.000 -0.3495 -0.0200 -0.8183
 5063TIP3    H136748   0.065   1.518   1.916  2.0857 -1.2163 -2.3663
 5063TIP3    H236749   0.192   1.469   1.982  0.7962  1.5077  2.6085
 5064TIP3   OH236750   0.903   4.330   7.312  0.1319 -0.3849  0.0390
 5064TIP3    H136751   0.889   4.421   7.337  0.0271 -0.3957  0.0204
 5064TIP3    H236752   0.947   4.290   7.387  0.7063 -0.1753 -0.1835
 5065TIP3   OH236753   3.884   5.812   1.427  0.5224  0.4509  0.3264
 5065TIP3    H136754   3.955   5.776   1.480 -0.4480 -0.5880  0.9584
 5065TIP3    H236755   3.862   5.895   1.469  0.7517  0.3412  0.6665
 5066TIP3   OH236756   5.367   6.460   8.782 -0.2867 -0.1420 -0.5471
 5066TIP3    H136757   5.279   6.485   8.810  0.0268  0.7314 -0.3034
 5066TIP3    H236758   5.387   6.380   8.831 -1.6948 -1.4956 -2.0615
 5067TIP3   OH236759   6.279   1.572   7.950 -0.3637  0.8659 -0.2573
 5067TIP3    H136760   6.202   1.521   7.973 -0.7085  1.6393  0.3280
 5067TIP3    H236761   6.324   1.586   8.033  2.3233 -2.5081 -0.9016
 5068TIP3   OH236762   1.610   3.891   6.158  0.5673 -1.0193 -0.3787
 5068TIP3    H136763   1.528   3.939   6.144  0.8185 -0.2050  0.7542
 5068TIP3    H236764   1.586   3.799   6.146 -0.2969 -0.7297 -0.9829
 5069TIP3   OH236765   1.547   6.159   1.363 -0.3598  0.3424 -0.2405
 5069TIP3    H136766   1.642   6.149   1.367 -0.6006 -2.7423  0.8437
 5069TIP3    H236767   1.520   6.175   1.453 -0.9360 -0.1742 -0.3078
 5070TIP3   OH236768   4.047   1.187   0.713 -0.4569 -0.1585  0.1502
 5070TIP3    H136769   4.079   1.181   0.623 -1.0210 -0.0915 -0.0596
 5070TIP3    H236770   4.117   1.151   0.766  1.0877  2.3213 -0.0441
 5071TIP3   OH236771   0.044   0.410   0.349 -0.2989 -0.1275  0.6448
 5071TIP3    H136772   0.061   0.317   0.365 -0.0281  0.0991  1.7186
 5071TIP3    H236773   0.125   0.443   0.312 -0.9761 -0.6847 -1.4927
 5072TIP3   OH236774   1.596   2.879   7.592  0.1423 -1.0926 -0.2532
 5072TIP3    H136775   1.537   2.953   7.577 -0.7777 -2.0413 -1.6622
 5072TIP3    H236776   1.601   2.870   7.687  0.8185  1.1539 -0.0169
 5073TIP3   OH236777   2.326   3.633   2.024 -0.5037  0.3491 -0.2047
 5073TIP3    H136778   2.341   3.710   2.079  1.0799  0.6996 -1.0838
 5073TIP3    H236779   2.334   3.559   2.085 -0.4523  0.8112  0.3560
 5074TIP3   OH236780   3.642   3.683   0.355 -0.2689  0.3016 -0.5282
 5074TIP3    H136781   3.569   3.718   0.406 -0.6267  0.1707 -0.9512
 5074TIP3    H236782   3.612   3.685   0.265  0.0195 -0.3152 -0.6437
 5075TIP3   OH236783   2.950   4.372   0.160 -0.2046  1.1019 -0.2044
 5075TIP3    H136784   2.867   4.416   0.143 -0.5748  0.2235 -0.7272
 5075TIP3    H236785   3.002   4.388   0.081 -0.0778  1.1851 -0.1047
 5076TIP3   OH236786   3.980   4.136   0.791 -0.5665 -0.6009  0.0627
 5076TIP3    H136787   3.906   4.124   0.732 -1.7523  0.0166  1.3835
 5076TIP3    H236788   3.942   4.168   0.872  1.1933  0.0930  0.6701
 5077TIP3   OH236789   1.028   6.009   7.759  0.3411 -0.2077  0.2701
 5077TIP3    H136790   1.092   6.018   7.830  0.0850 -1.7959  0.7506
 5077TIP3    H236791   0.997   6.098   7.742  1.4398  0.3695  1.1802
 5078TIP3   OH236792   5.403   0.605   8.790 -0.1522 -0.1504  0.4008
 5078TIP3    H136793   5.367   0.551   8.720  2.9317 -0.0895 -1.4294
 5078TIP3    H236794   5.415   0.545   8.863  1.6429 -1.6772 -1.0399
 5079TIP3   OH236795   6.575   3.353   0.378 -0.3729 -0.5691 -0.2315
 5079TIP3    H136796   6.583   3.301   0.458 -0.0263 -0.8651 -0.4582
 5079TIP3    H236797   6.486   3.336   0.347 -0.9609  0.5148  0.7506
 5080TIP3   OH236798   1.603   5.882   0.675  0.0176  0.4332  0.1372
 5080TIP3    H136799   1.688   5.923   0.687  0.4341  0.0323 -1.2466
 5080TIP3    H236800   1.566   5.923   0.597 -0.4648 -0.3378 -0.0600
 5081TIP3   OH236801   1.264   4.715   0.858 -0.0295  0.7369 -0.1080
 5081TIP3    H136802   1.338   4.657   0.839 -0.1464  0.2567  0.8236
 5081TIP3    H236803   1.274   4.788   0.797  0.2022 -0.1821 -1.2100
 5082TIP3   OH236804   3.349   0.073   7.780 -0.7676 -0.0338 -0.0213
 5082TIP3    H136805   3.365   0.054   7.688  1.3398  0.9658  0.0772
 5082TIP3    H236806   3.310   0.161   7.780  0.2091  0.4148  0.0579
 5083TIP3   OH236807   5.860   0.901   0.830  0.1344 -0.4294  0.8055
 5083TIP3    H136808   5.835   0.883   0.739 -0.8076  1.2487  0.6749
 5083TIP3    H236809   5.789   0.862   0.882 -0.6335  0.6909  0.6517
 5084TIP3   OH236810   5.258   6.494   7.078 -0.1630  0.3111  0.5598
 5084TIP3    H136811   5.303   6.578   7.083 -2.4840  1.6473  0.5534
 5084TIP3    H236812   5.194   6.505   7.008 -1.4445 -0.9689  1.4645
 5085TIP3   OH236813   3.082   1.107   7.521  0.0699 -0.0766 -0.2210
 5085TIP3    H136814   3.072   1.016   7.492 -2.2347  0.1125 -0.2130
 5085TIP3    H236815   3.050   1.159   7.447 -1.0299  0.6019  0.6998
 5086TIP3   OH236816   0.171   2.668   6.160 -0.5018  0.3690 -0.3278
 5086TIP3    H136817   0.219   2.632   6.085  1.3038  0.7949  0.5586
 5086TIP3    H236818   0.163   2.761   6.141  0.0425  0.4954  0.0141
 5087TIP3   OH236819   3.747   4.606   8.294  0.2730  0.1482  0.0293
 5087TIP3    H136820   3.707   4.644   8.372 -1.0487 -1.7874  0.3739
 5087TIP3    H236821   3.840   4.597   8.316  0.1176  0.6664  0.9183
 5088TIP3   OH236822   4.732   1.708   7.847 -0.5824  0.4795  0.7765
 5088TIP3    H136823   4.692   1.775   7.903  0.8543  3.0101 -1.0239
 5088TIP3    H236824   4.697   1.725   7.760 -0.5246 -1.4848  0.3140
 5089TIP3   OH236825   6.211   4.625   0.120 -0.4231  0.0034 -0.0776
 5089TIP3    H136826   6.126   4.614   0.076 -0.6331 -1.2475  0.5722
 5089TIP3    H236827   6.266   4.555   0.084  0.1402  0.4329 -0.0588
 5090TIP3   OH236828   2.886   2.198   8.346 -0.0275 -0.3508  0.8142
 5090TIP3    H136829   2.880   2.187   8.252 -0.8246  1.1428  0.6676
 5090TIP3    H236830   2.796   2.216   8.374  0.4996  1.4290  1.5293
 5091TIP3   OH236831   1.852   4.822   0.454 -0.1794 -0.4801  0.6512
 5091TIP3    H136832   1.797   4.759   0.407  1.2766 -0.4450 -1.2270
 5091TIP3    H236833   1.826   4.814   0.545 -3.0936 -0.6368 -0.1161
 5092TIP3   OH236834   4.244   2.406   0.430 -0.8703  0.3527 -0.2822
 5092TIP3    H136835   4.242   2.359   0.514 -1.7040  0.8048 -0.0323
 5092TIP3    H236836   4.281   2.491   0.452 -0.1811  0.1275 -0.5653
 5093TIP3   OH236837   0.108   4.755   8.008 -0.1700 -0.3259  0.0929
 5093TIP3    H136838   0.053   4.741   8.085 -2.1891 -2.1211 -1.5417
 5093TIP3    H236839   0.188   4.796   8.043 -1.6998  0.5941  2.8422
 5094TIP3   OH236840   4.374   2.303   7.462 -0.2757  0.4636 -0.3002
 5094TIP3    H136841   4.389   2.332   7.373 -0.7893 -1.0143 -0.8995
 5094TIP3    H236842   4.443   2.346   7.513  0.0566  1.2818 -1.3999
 5095TIP3   OH236843   5.368   4.448   7.037 -0.5931  0.1394 -0.0633
 5095TIP3    H136844   5.311   4.464   7.112  1.2153  0.7865  1.2341
 5095TIP3    H236845   5.352   4.521   6.978  2.3651  3.2203  2.5482
 5096TIP3   OH236846   5.165   0.054   8.075 -0.3356  0.1057 -0.1929
 5096TIP3    H136847   5.245   0.105   8.083  0.6557 -1.3888 -0.0892
 5096TIP3    H236848   5.131   0.048   8.164  0.9875 -1.5635  0.2557
 5097TIP3   OH236849   5.345   4.105   8.581  0.2090 -0.2669  0.0720
 5097TIP3    H136850   5.438   4.094   8.560  1.0098  2.3372  1.7755
 5097TIP3    H236851   5.307   4.141   8.501  0.7710 -0.8659 -0.4824
 5098TIP3   OH236852   1.699   1.231   8.278  0.2699 -0.5634 -0.8190
 5098TIP3    H136853   1.706   1.211   8.371  1.9561 -0.6507 -0.9294
 5098TIP3    H236854   1.626   1.177   8.246 -0.5872 -0.2300  0.5050
 5099TIP3   OH236855   5.224   0.441   7.580 -0.6906 -0.1299  0.5514
 5099TIP3    H136856   5.129   0.451   7.570 -0.7433  2.2910  2.6055
 5099TIP3    H236857   5.262   0.491   7.508 -1.0637  3.2596  2.5259
 5100TIP3   OH236858   2.383   0.868   7.416  0.4593  0.9267  0.5978
 5100TIP3    H136859   2.463   0.899   7.374  2.5551 -1.5361  2.4599
 5100TIP3    H236860   2.388   0.901   7.505 -2.2865  3.3505 -0.0015
 5101TIP3   OH236861   2.267   2.779   7.997 -0.0785  0.5343  0.2017
 5101TIP3    H136862   2.287   2.842   7.928  0.4770  0.8430  0.6405
 5101TIP3    H236863   2.181   2.808   8.031 -0.3898  0.3346 -0.4042
 5102TIP3   OH236864   1.929   5.615   8.176 -0.1585 -0.4679  0.8706
 5102TIP3    H136865   1.958   5.634   8.087  0.4280  0.1855  1.1868
 5102TIP3    H236866   1.838   5.646   8.179  0.3061  0.9610  0.9303
 5103TIP3   OH236867   6.413   4.804   8.680 -0.3200 -0.3430 -0.1855
 5103TIP3    H136868   6.371   4.833   8.599 -0.2116 -1.0306 -0.4882
 5103TIP3    H236869   6.455   4.722   8.658  0.4655 -0.0919  0.3457
 5104TIP3   OH236870   0.379   2.743   7.062  0.6300  0.3404 -0.0861
 5104TIP3    H136871   0.351   2.831   7.037 -0.6560  0.0344  0.2296
 5104TIP3    H236872   0.408   2.751   7.153  2.3944  0.8124 -0.6357
 5105TIP3   OH236873   2.460   1.077   1.197  0.2791 -0.2413  0.0527
 5105TIP3    H136874   2.438   1.117   1.113  0.2630  0.0325  0.1841
 5105TIP3    H236875   2.376   1.064   1.240  0.2185 -1.2134 -0.3389
 5106TIP3   OH236876   1.124   1.293   7.436 -0.1194 -0.0644 -0.3898
 5106TIP3    H136877   1.178   1.226   7.479 -0.4677 -0.6886 -0.9101
 5106TIP3    H236878   1.153   1.293   7.345  1.4416  2.0819  0.0337
 5107TIP3   OH236879   6.279   4.964   8.496 -0.1930  0.0424  0.5645
 5107TIP3    H136880   6.343   4.988   8.429 -0.4290 -0.4146  0.1654
 5107TIP3    H236881   6.209   5.028   8.486 -1.1714 -1.2044 -0.9997
 5108TIP3   OH236882   2.970   2.651   6.783 -0.0639 -0.4247 -0.1330
 5108TIP3    H136883   2.888   2.691   6.813 -0.1438 -0.7062  0.0270
 5108TIP3    H236884   2.954   2.557   6.788 -0.0380 -0.4778 -0.9507
 5109TIP3   OH236885   1.474   4.019   1.575 -0.0841  0.4784 -0.5831
 5109TIP3    H136886   1.509   4.102   1.542 -1.2892  0.4929 -1.9323
 5109TIP3    H236887   1.417   4.044   1.647  0.9439  0.6337  0.2102
 5110TIP3   OH236888   6.182   4.169   1.480  0.6513 -0.0392 -0.2652
 5110TIP3    H136889   6.155   4.229   1.411  1.0450 -0.1935 -0.5541
 5110TIP3    H236890   6.241   4.107   1.437  1.3259  0.1870  0.3142
 5111TIP3   OH236891   3.489   0.637   0.560  0.5114  0.1652 -0.1515
 5111TIP3    H136892   3.482   0.566   0.497  1.5708 -1.1417  1.1396
 5111TIP3    H236893   3.583   0.652   0.570  0.3949  0.0657  1.3834
 5112TIP3   OH236894   0.211   5.989   7.430  0.2143  0.1051  0.3553
 5112TIP3    H136895   0.245   5.989   7.340  1.9451  0.4147  0.9637
 5112TIP3    H236896   0.152   5.914   7.433  0.8056 -0.4412 -0.8070
 5113TIP3   OH236897   4.017   4.735   7.620 -0.4168  0.0255 -0.1415
 5113TIP3    H136898   3.953   4.664   7.613 -0.4873  0.1602 -0.9872
 5113TIP3    H236899   4.022   4.753   7.714  0.4855 -1.8919  0.2196
 5114TIP3   OH236900   1.378   3.924   6.501  0.0868 -0.0564 -0.6498
 5114TIP3    H136901   1.322   3.911   6.424 -2.2000 -1.3536  1.1296
 5114TIP3    H236902   1.430   3.844   6.506 -2.8960 -2.0491  1.4910
 5115TIP3   OH236903   1.511   6.603   7.666 -0.4677 -0.2582  0.1607
 5115TIP3    H136904   1.430   6.654   7.674 -0.4507 -0.0300 -0.9820
 5115TIP3    H236905   1.560   6.646   7.597 -0.7278 -2.1728 -1.3125
 5116TIP3   OH236906   4.750   5.149   1.419  0.3779 -0.2891 -0.2717
 5116TIP3    H136907   4.707   5.064   1.431  1.5518 -1.0577 -1.2064
 5116TIP3    H236908   4.818   5.152   1.486  1.5262 -0.9295 -1.3587
 5117TIP3   OH236909   6.640   1.850   0.488 -0.0189  0.3002  0.2207
 5117TIP3    H136910   6.613   1.862   0.397 -3.0248 -0.9281  0.8407
 5117TIP3    H236911   6.596   1.921   0.535  1.1380  0.6483  0.8127
 5118TIP3   OH236912   3.669   1.678   6.674  0.6404 -0.0818  0.1826
 5118TIP3    H136913   3.576   1.696   6.663  0.8740  1.2322  0.2009
 5118TIP3    H236914   3.673   1.585   6.696 -0.7763  0.1482  1.6010
 5119TIP3   OH236915   1.449   3.073   6.625 -0.3512  0.7289 -0.5404
 5119TIP3    H136916   1.385   3.002   6.621  0.3457  0.0825 -0.4483
 5119TIP3    H236917   1.406   3.141   6.676 -1.0432  0.3849 -0.6500
 5120TIP3   OH236918   5.525   3.545   1.760 -0.0372 -0.4086  0.0275
 5120TIP3    H136919   5.594   3.585   1.813 -1.1087  2.0258 -0.2849
 5120TIP3    H236920   5.481   3.484   1.819  0.4864  0.2608  1.1379
 5121TIP3   OH236921   4.965   2.927   2.486 -0.0271  0.9863  0.1232
 5121TIP3    H136922   4.874   2.924   2.515 -0.2264  0.0796 -0.5611
 5121TIP3    H236923   4.964   2.985   2.410 -0.2588  0.0165 -0.6255
 5122TIP3   OH236924   3.015   2.919   1.104  0.0044  0.0716  1.0572
 5122TIP3    H136925   3.076   2.993   1.104 -0.0731  0.1394  1.2844
 5122TIP3    H236926   2.962   2.931   1.025 -0.6854  0.8375  1.6070
 5123TIP3   OH236927   1.192   4.502   7.177 -0.0986  0.3854  0.0021
 5123TIP3    H136928   1.176   4.417   7.138 -1.5273  1.0767 -0.9744
 5123TIP3    H236929   1.250   4.547   7.115  0.3453  0.2779  0.3315
 5124TIP3   OH236930   6.474   5.670   7.756  0.8813 -0.4555 -0.1166
 5124TIP3    H136931   6.443   5.708   7.838  0.9044 -0.7119  0.0112
 5124TIP3    H236932   6.396   5.664   7.701  1.1889  1.5893 -0.8726
 5125TIP3   OH236933   1.776   3.859   6.721 -0.3416 -0.0347 -0.7312
 5125TIP3    H136934   1.832   3.782   6.723  0.0323  0.2481  0.0456
 5125TIP3    H236935   1.836   3.933   6.734 -0.7059  0.3826 -1.3492
 5126TIP3   OH236936   0.326   2.662   7.342 -0.4660 -0.0975  0.0009
 5126TIP3    H136937   0.409   2.622   7.368 -1.0534 -1.0398  0.5251
 5126TIP3    H236938   0.305   2.722   7.413  1.3772  2.7689 -1.6815
 5127TIP3   OH236939   3.689   5.289   6.764 -0.5567 -0.1523  0.0591
 5127TIP3    H136940   3.598   5.320   6.764 -0.1885  1.1361  2.0204
 5127TIP3    H236941   3.741   5.367   6.746  0.2512 -0.2312  1.7883
 5128TIP3   OH236942   3.365   1.260   7.956 -0.4211 -0.3354  0.0535
 5128TIP3    H136943   3.374   1.327   7.888  2.2314 -0.6610 -0.0417
 5128TIP3    H236944   3.306   1.195   7.919 -1.4001  0.9349 -0.6848
 5129TIP3   OH236945   2.945   2.838   7.053 -0.4811 -0.3926 -0.9290
 5129TIP3    H136946   2.902   2.882   6.980  0.4659  1.4475 -0.4417
 5129TIP3    H236947   2.890   2.857   7.129  0.5174  1.0534 -0.5040
 5130TIP3   OH236948   1.780   2.548   6.773  0.0439 -0.3293 -0.0894
 5130TIP3    H136949   1.691   2.584   6.767  0.5199  0.9201  0.1999
 5130TIP3    H236950   1.823   2.575   6.693  0.1085 -1.1422 -0.3430
 5131TIP3   OH236951   3.179   5.846   0.178 -0.1646  0.2772 -0.3773
 5131TIP3    H136952   3.204   5.853   0.086  2.0151 -0.4435  0.1186
 5131TIP3    H236953   3.145   5.756   0.187 -0.6689  0.4482 -0.5194
 5132TIP3   OH236954   4.412   1.901   0.954 -0.3404 -0.2973  0.6569
 5132TIP3    H136955   4.395   1.952   1.034 -2.4488 -0.5839  0.4415
 5132TIP3    H236956   4.437   1.815   0.987  2.1155  0.4555  1.0010
 5133TIP3   OH236957   4.369   3.192   0.038  0.2567 -0.4092  0.0326
 5133TIP3    H136958   4.340   3.216  -0.050 -1.7978 -3.1635 -0.1967
 5133TIP3    H236959   4.304   3.231   0.096  0.2218 -0.5715  0.1055
 5134TIP3   OH236960   3.605   2.227   7.765 -0.1300  0.1071  0.0096
 5134TIP3    H136961   3.687   2.213   7.716 -0.0001 -2.3221  0.7949
 5134TIP3    H236962   3.634   2.248   7.854 -0.3968  2.1633 -0.3322
 5135TIP3   OH236963   2.039   6.297   8.321 -0.6514  0.1385 -0.0604
 5135TIP3    H136964   1.982   6.368   8.289 -1.5438  0.4976  2.1310
 5135TIP3    H236965   1.981   6.221   8.325  0.3151 -0.7951 -2.4352
 5136TIP3   OH236966   0.776   6.551   1.492  0.7117 -0.2990 -0.3026
 5136TIP3    H136967   0.726   6.470   1.500 -1.8092  0.9050 -2.4748
 5136TIP3    H236968   0.811   6.549   1.403  0.3215  1.1279 -0.5130
 5137TIP3   OH236969   5.075   2.022   0.189 -0.5620 -0.1445  0.5037
 5137TIP3    H136970   5.170   2.013   0.180 -0.1982  0.9604  2.5184
 5137TIP3    H236971   5.041   2.008   0.101  1.4345 -0.9214 -0.2018
 5138TIP3   OH236972   5.043   2.723   0.849  0.0822  0.0563  0.6035
 5138TIP3    H136973   5.111   2.730   0.916  0.0417  0.9224  0.5647
 5138TIP3    H236974   5.065   2.789   0.784  1.3289 -2.1830 -1.3949
 5139TIP3   OH236975   5.354   2.250   1.535 -0.3940  0.0703  0.2105
 5139TIP3    H136976   5.375   2.285   1.448 -0.6700 -0.4546 -0.0743
 5139TIP3    H236977   5.417   2.292   1.593  0.5578 -0.4323 -0.4226
 5140TIP3   OH236978   2.090   1.420   6.539 -0.1281 -0.4531  0.2522
 5140TIP3    H136979   2.045   1.360   6.598  0.0900  0.6463  1.5824
 5140TIP3    H236980   2.183   1.399   6.550 -0.0853 -0.2343  0.3058
 5141TIP3   OH236981   2.052   1.908   8.530  0.3327  0.0081  0.5502
 5141TIP3    H136982   2.057   1.980   8.468 -0.1904  1.0790  1.7208
 5141TIP3    H236983   2.063   1.949   8.616 -1.2380 -1.1068  1.3387
 5142TIP3   OH236984   1.989   0.678   0.304  0.0492 -0.1317 -0.5798
 5142TIP3    H136985   2.041   0.597   0.299 -0.8723 -0.7085 -1.0909
 5142TIP3    H236986   1.919   0.657   0.366 -0.3504  0.1847 -0.9226
 5143TIP3   OH236987   3.650   1.555   8.348 -0.0314  0.2146 -0.5813
 5143TIP3    H136988   3.744   1.551   8.331  0.0905 -0.7548  0.2149
 5143TIP3    H236989   3.629   1.470   8.387 -0.8931  1.0536  0.8945
 5144TIP3   OH236990   6.660   1.235   8.317  0.3299  0.3034 -0.0069
 5144TIP3    H136991   6.659   1.162   8.378  0.2607 -0.7846 -1.2685
 5144TIP3    H236992   6.569   1.242   8.286  0.6989 -0.2921 -1.2719
 5145TIP3   OH236993   3.371   4.008   7.391 -0.2213  0.2422 -0.4293
 5145TIP3    H136994   3.400   4.099   7.394  0.4339  0.0186  0.3198
 5145TIP3    H236995   3.327   4.000   7.306  0.8138  0.9262 -1.0584
 5146TIP3   OH236996   6.223   0.417   7.381  0.3132 -0.3166 -0.1838
 5146TIP3    H136997   6.264   0.360   7.447  0.0261  0.9218  1.1099
 5146TIP3    H236998   6.294   0.474   7.351  0.5087 -1.0603 -1.1847
 5147TIP3   OH236999   2.463   0.781   1.858 -0.1787  0.1831  0.5438
 5147TIP3    H137000   2.503   0.707   1.812  0.5573  0.5874  0.5157
 5147TIP3    H237001   2.391   0.742   1.908  2.2544 -1.2157  3.2942
 5148TIP3   OH237002   3.340   2.136   0.271 -0.3966  0.5119 -0.0601
 5148TIP3    H137003   3.408   2.140   0.338  0.5607  0.6851 -1.0211
 5148TIP3    H237004   3.278   2.071   0.304  1.5922 -1.6562 -0.3957
 5149TIP3   OH237005   5.794   5.391   2.014 -0.4420 -0.0617 -0.1051
 5149TIP3    H137006   5.736   5.356   2.081  0.0445 -0.2049  0.2536
 5149TIP3    H237007   5.804   5.320   1.951  0.0324 -0.3555  0.2891
 5150TIP3   OH237008   5.889   0.725   1.521  0.1472  0.0190  0.8955
 5150TIP3    H137009   5.981   0.733   1.547  0.3986 -0.8369  0.2940
 5150TIP3    H237010   5.877   0.632   1.502  0.2317  0.6280 -2.8665
 5151TIP3   OH237011   1.077   2.389   0.467 -0.0734 -0.0372  0.5512
 5151TIP3    H137012   1.000   2.356   0.514  1.3977 -1.2504  2.2738
 5151TIP3    H237013   1.144   2.399   0.535  1.3924  0.6865 -0.9190
 5152TIP3   OH237014   1.065   2.675   0.445 -0.3099 -0.1250  0.8547
 5152TIP3    H137015   1.105   2.710   0.366 -1.2685  0.7083  0.7180
 5152TIP3    H237016   1.080   2.581   0.440  0.7518  0.0628  0.3270
 5153TIP3   OH237017   4.199   3.942   0.564 -0.1542  0.0248  0.4418
 5153TIP3    H137018   4.129   3.990   0.519 -0.3989  1.1944  2.0107
 5153TIP3    H237019   4.228   3.877   0.500  0.4741  2.4897 -1.9793
 5154TIP3   OH237020   4.321   0.886   0.165 -0.2643  0.0248 -0.2154
 5154TIP3    H137021   4.277   0.920   0.087 -1.2153 -0.3476  0.1400
 5154TIP3    H237022   4.348   0.798   0.141  0.0247  0.1455 -0.3358
 5155TIP3   OH237023   5.608   4.689   2.302 -0.1963  0.3664 -0.3189
 5155TIP3    H137024   5.683   4.672   2.245 -0.2745  0.3217 -0.4099
 5155TIP3    H237025   5.641   4.749   2.369  0.0768 -0.1384  0.0013
 5156TIP3   OH237026   3.069   0.091   8.135  0.7539  0.0958 -0.4240
 5156TIP3    H137027   3.123   0.169   8.143  1.6126 -0.6061  1.1279
 5156TIP3    H237028   3.068   0.053   8.223 -1.5731 -0.3990 -0.5980
 5157TIP3   OH237029   4.344   3.250   8.629  0.3200  0.3767  0.5419
 5157TIP3    H137030   4.353   3.326   8.571  0.0626 -0.0240 -0.0394
 5157TIP3    H237031   4.360   3.175   8.572 -0.9836 -0.0777  0.7403
 5158TIP3   OH237032   3.547   4.285   7.690 -0.3196 -0.6064 -0.1430
 5158TIP3    H137033   3.529   4.362   7.635  2.1401  1.4529  1.6505
 5158TIP3    H237034   3.540   4.211   7.630 -0.8756  1.1839 -2.4702
 5159TIP3   OH237035   3.449   5.512   1.264 -0.3991 -0.5398 -0.6630
 5159TIP3    H137036   3.383   5.577   1.287 -1.3472 -1.6563 -0.1342
 5159TIP3    H237037   3.400   5.438   1.228  0.6761 -0.8635 -1.5575
 5160TIP3   OH237038   6.457   4.407   1.746 -0.5120 -0.0310  0.2259
 5160TIP3    H137039   6.419   4.396   1.833 -0.4646 -1.3258  0.0980
 5160TIP3    H237040   6.386   4.445   1.693 -0.1778  1.9040  1.0906
 5161TIP3   OH237041   3.705   1.410   6.708  0.0922  0.5103 -0.0204
 5161TIP3    H137042   3.735   1.339   6.651 -0.0412 -1.7055  2.4977
 5161TIP3    H237043   3.611   1.414   6.695 -0.2785 -1.5520  1.5809
 5162TIP3   OH237044   3.943   4.709   0.132  0.1260 -0.2918  0.4454
 5162TIP3    H137045   3.891   4.632   0.107  0.1176  0.3403 -1.7047
 5162TIP3    H237046   3.887   4.757   0.193 -0.7324 -0.9419  0.1864
 5163TIP3   OH237047   4.320   4.820   7.673  0.2570 -0.5642  0.0690
 5163TIP3    H137048   4.321   4.726   7.691  0.2687 -0.9452 -1.7351
 5163TIP3    H237049   4.238   4.834   7.624  0.3463  0.3266  0.1583
 5164TIP3   OH237050   5.474   4.513   1.630 -0.1573  0.3020  0.5386
 5164TIP3    H137051   5.414   4.472   1.568  1.8660  0.8903 -1.9810
 5164TIP3    H237052   5.500   4.595   1.587  3.7944 -0.7498  0.5990
 5165TIP3   OH237053   0.033   4.887   8.285 -0.2433  0.2070 -0.7169
 5165TIP3    H137054   0.102   4.933   8.332  0.5117 -0.2026 -1.3877
 5165TIP3    H237055   0.071   4.801   8.265 -0.8510  0.0662 -1.3107
 5166TIP3   OH237056   2.390   6.096   7.234  0.3339 -0.5854 -0.4308
 5166TIP3    H137057   2.334   6.036   7.184 -1.9240  0.8233  0.2443
 5166TIP3    H237058   2.328   6.151   7.283  2.3242  1.6149 -0.2220
 5167TIP3   OH237059   3.358   5.421   6.498 -0.3565 -0.0493 -0.2158
 5167TIP3    H137060   3.372   5.456   6.410 -0.7785 -1.1496 -0.7357
 5167TIP3    H237061   3.269   5.448   6.521  0.9206  3.4120  1.4292
 5168TIP3   OH237062   2.740   3.678   8.151  0.1039 -0.2436  0.5470
 5168TIP3    H137063   2.742   3.732   8.230 -0.9690 -0.2157  0.5667
 5168TIP3    H237064   2.698   3.734   8.085  1.5073 -0.0479 -0.2346
 5169TIP3   OH237065   4.466   5.910   7.529 -0.2416  0.2549 -0.1001
 5169TIP3    H137066   4.470   5.850   7.455 -3.9763  1.6237 -1.6946
 5169TIP3    H237067   4.546   5.962   7.522  0.0398 -0.3960 -2.5355
 5170TIP3   OH237068   6.570   0.878   6.596  0.0855 -0.0150 -0.1384
 5170TIP3    H137069   6.553   0.923   6.514 -1.2705  1.7206  1.0116
 5170TIP3    H237070   6.489   0.830   6.615  1.0079 -1.8745 -0.6294
 5171TIP3   OH237071   0.416   4.882   1.469 -0.1848  0.1085 -0.3560
 5171TIP3    H137072   0.440   4.797   1.506 -1.8311 -0.4443 -0.5103
 5171TIP3    H237073   0.369   4.927   1.538 -1.0606  0.0790 -0.9114
 5172TIP3   OH237074   3.897   0.411   0.293  0.3623  0.0367 -0.2845
 5172TIP3    H137075   3.807   0.438   0.276  0.2252  0.5907  1.1633
 5172TIP3    H237076   3.950   0.464   0.234 -0.0915  1.5560  0.6395
 5173TIP3   OH237077   1.788   1.762   1.005  0.2979 -0.0656  0.7050
 5173TIP3    H137078   1.708   1.753   1.056  1.2794  0.1077  2.3727
 5173TIP3    H237079   1.832   1.839   1.043  1.2543 -0.1580 -0.1681
 5174TIP3   OH237080   1.829   5.302   7.283  0.3720  0.6111  0.2180
 5174TIP3    H137081   1.811   5.253   7.204  0.2744  0.4830  0.3197
 5174TIP3    H237082   1.826   5.237   7.353 -0.5898  0.8962  0.4584
 5175TIP3   OH237083   6.341   2.381   6.780  0.4354 -0.8357  0.1058
 5175TIP3    H137084   6.317   2.342   6.696 -0.0356  1.5161 -0.9118
 5175TIP3    H237085   6.392   2.458   6.758  1.3704 -0.8185  2.0518
 5176TIP3   OH237086   0.520   1.211   1.048  0.3296  0.2380 -0.1146
 5176TIP3    H137087   0.434   1.170   1.058  0.1165  0.4532 -1.0247
 5176TIP3    H237088   0.566   1.155   0.985  1.5134 -0.8809  1.6236
 5177TIP3   OH237089   6.771   2.170   0.778 -0.3646 -0.0052 -0.2465
 5177TIP3    H137090   6.814   2.238   0.830 -0.5902 -1.5653  2.1500
 5177TIP3    H237091   6.832   2.152   0.707  0.3261  1.7037 -0.1326
 5178TIP3   OH237092   0.007   3.583   0.422  0.2428  0.6674  0.3709
 5178TIP3    H137093  -0.031   3.517   0.363  1.1818  0.3938  0.0569
 5178TIP3    H237094  -0.067   3.613   0.474  0.0264 -1.7771  1.6278
 5179TIP3   OH237095   5.340   0.167   1.110 -0.3230 -0.5108 -0.4436
 5179TIP3    H137096   5.284   0.175   1.033  1.6809  0.1410 -1.9237
 5179TIP3    H237097   5.302   0.095   1.161 -2.0622 -0.5267 -1.7029
 5180TIP3   OH237098   0.026   5.794   7.519 -0.2477  0.3539  0.5891
 5180TIP3    H137099  -0.064   5.822   7.504  0.0499  0.0401 -2.6489
 5180TIP3    H237100   0.018   5.711   7.567 -1.8260 -0.4460 -0.9302
 5181TIP3   OH237101   5.315   5.130   7.322  0.1553 -0.0655 -0.2104
 5181TIP3    H137102   5.224   5.158   7.314 -0.1943 -1.2900 -0.7709
 5181TIP3    H237103   5.365   5.195   7.273 -0.0071  2.3717  2.5530
 5182TIP3   OH237104   6.666   3.246   0.639  0.2306  0.3201  0.2229
 5182TIP3    H137105   6.620   3.226   0.721 -2.4498  1.1897 -0.9566
 5182TIP3    H237106   6.729   3.313   0.662 -1.1291  1.2272  1.4538
 5183TIP3   OH237107   2.871   3.284   7.784  0.7400 -0.3513  0.3659
 5183TIP3    H137108   2.835   3.200   7.810 -1.4051 -0.2300 -1.9325
 5183TIP3    H237109   2.827   3.348   7.840  0.6780 -0.5532  0.5469
 5184TIP3   OH237110   4.847   1.578   1.570 -0.1022 -0.6354 -0.7349
 5184TIP3    H137111   4.757   1.554   1.589  0.3653 -3.3235 -1.4246
 5184TIP3    H237112   4.845   1.606   1.479 -0.0035 -2.6703 -1.4182
 5185TIP3   OH237113   1.879   6.724   1.494  0.5388  0.0390  0.2218
 5185TIP3    H137114   1.900   6.674   1.414 -1.7534  1.7687 -1.6097
 5185TIP3    H237115   1.824   6.665   1.545 -2.0365  0.4448 -1.8581
 5186TIP3   OH237116   3.207   3.954   7.192 -0.5251 -0.1271  0.5020
 5186TIP3    H137117   3.260   3.959   7.113 -3.0933  0.1260 -1.3070
 5186TIP3    H237118   3.126   3.999   7.170 -1.9356 -1.3652  2.7667
 5187TIP3   OH237119   6.537   0.177   7.711 -0.3758 -0.3000 -0.5909
 5187TIP3    H137120   6.499   0.117   7.775  1.3191 -0.0368  0.7485
 5187TIP3    H237121   6.628   0.146   7.701 -0.1981  0.5394 -1.7863
 5188TIP3   OH237122   1.252   1.656   0.081  0.2430 -0.0968 -0.4131
 5188TIP3    H137123   1.176   1.637   0.136  0.3101  0.4055 -0.1374
 5188TIP3    H237124   1.216   1.697   0.002  0.2139  0.0461 -0.3273
 5189TIP3   OH237125   1.040   1.470   1.334  0.1850 -0.8837  0.0759
 5189TIP3    H137126   1.028   1.390   1.283 -2.0054 -0.1966 -0.6387
 5189TIP3    H237127   1.092   1.527   1.278 -0.6167 -0.8230 -0.6319
 5190TIP3   OH237128   4.804   3.711   0.344  0.3756 -0.0402 -0.0864
 5190TIP3    H137129   4.725   3.685   0.391 -0.1102 -0.6664 -1.1972
 5190TIP3    H237130   4.773   3.732   0.256  0.7161  4.1485  0.5691
 5191TIP3   OH237131   0.520   3.744   1.470  0.3625 -0.1258 -0.3582
 5191TIP3    H137132   0.610   3.724   1.495 -0.9162 -1.7321  3.7870
 5191TIP3    H237133   0.510   3.837   1.488  0.2122 -0.7300  3.4529
 5192TIP3   OH237134   6.705   0.960   7.949  0.1093 -0.3302 -0.0131
 5192TIP3    H137135   6.702   0.967   7.854 -0.0936 -0.9070 -0.0541
 5192TIP3    H237136   6.793   0.926   7.968  1.0551  2.0589  0.1787
 5193TIP3   OH237137   6.402   1.899   8.007 -0.0627 -0.0455 -0.0839
 5193TIP3    H137138   6.446   1.814   8.003  0.0657  0.0033  0.2815
 5193TIP3    H237139   6.313   1.880   8.035  0.1224 -0.0083  0.5466
 5194TIP3   OH237140   5.025   1.814   0.354  0.0048  0.3911 -0.0560
 5194TIP3    H137141   5.036   1.888   0.295  1.8435  0.1512 -0.0508
 5194TIP3    H237142   5.014   1.854   0.441 -1.8836  0.7092 -0.3842
 5195TIP3   OH237143   6.110   1.514   8.411 -0.4051 -0.7685  0.4285
 5195TIP3    H137144   6.094   1.519   8.317 -1.5674  2.3793  0.6842
 5195TIP3    H237145   6.203   1.490   8.419 -0.0685 -0.2386 -1.5393
 5196TIP3   OH237146   1.020   0.974   8.030  0.0735 -0.4145 -0.7431
 5196TIP3    H137147   1.040   1.066   8.010 -0.3615  0.3803  2.0375
 5196TIP3    H237148   0.945   0.953   7.974 -2.7785  2.4564  1.6326
 5197TIP3   OH237149   6.713   0.636   7.304  0.1232 -0.3390 -0.3695
 5197TIP3    H137150   6.793   0.589   7.326  1.3980  1.8236 -0.0453
 5197TIP3    H237151   6.738   0.696   7.233 -1.4764 -0.3019 -0.9683
 5198TIP3   OH237152   5.567   1.892   1.388 -0.0115 -0.1397 -0.2071
 5198TIP3    H137153   5.574   1.910   1.294  3.2057 -0.9161 -0.2423
 5198TIP3    H237154   5.575   1.797   1.394 -0.0677 -0.0835  0.8606
 5199TIP3   OH237155   5.836   3.432   1.721  0.0715 -0.1612 -0.6206
 5199TIP3    H137156   5.811   3.473   1.638 -0.8487  0.8639  0.1298
 5199TIP3    H237157   5.754   3.395   1.755  0.5526 -1.0872 -0.4306
 5200TIP3   OH237158   0.812   5.797   8.141  0.2000 -0.1298  0.0200
 5200TIP3    H137159   0.736   5.835   8.186  1.4595  0.3287  1.8563
 5200TIP3    H237160   0.786   5.795   8.048 -0.9817  2.7378  0.1764
 5201TIP3   OH237161   0.764   2.162   1.313 -0.1072  1.0827  0.5039
 5201TIP3    H137162   0.850   2.185   1.277 -1.0543  2.3720 -1.0384
 5201TIP3    H237163   0.746   2.231   1.377  0.4389  0.2133  1.6378
 5202TIP3   OH237164   5.159   6.398   1.031  0.6928  0.3986 -0.3020
 5202TIP3    H137165   5.243   6.369   0.998  0.7072  0.1807 -0.0811
 5202TIP3    H237166   5.176   6.425   1.121  0.8999  2.1557 -0.8337
 5203TIP3   OH237167   2.690   6.416   6.714  0.4420  0.5301  0.4287
 5203TIP3    H137168   2.681   6.358   6.639 -0.6613  2.0741 -0.6889
 5203TIP3    H237169   2.778   6.398   6.747  1.0337 -0.0658 -1.3429
 5204TIP3   OH237170   0.102   5.368   7.994 -0.7260  0.1839 -0.5341
 5204TIP3    H137171   0.131   5.456   7.973  1.0715 -0.5156 -1.2125
 5204TIP3    H237172   0.032   5.350   7.932 -1.7556  1.4288  0.2185
 5205TIP3   OH237173   5.447   2.801   0.444 -0.2054  0.2169 -0.6899
 5205TIP3    H137174   5.490   2.722   0.410 -1.0490 -0.5387 -0.0418
 5205TIP3    H237175   5.450   2.792   0.539  1.3990  1.9202 -0.5070
 5206TIP3   OH237176   3.846   3.518   8.677 -0.1707  0.4580 -0.1656
 5206TIP3    H137177   3.821   3.432   8.643 -0.5299  0.3764  0.2935
 5206TIP3    H237178   3.797   3.580   8.622 -2.6611  0.2644  1.6589
 5207TIP3   OH237179   4.036   4.736   0.859  0.5941 -0.2468  0.1784
 5207TIP3    H137180   4.055   4.801   0.791  1.9188 -0.3595  0.4200
 5207TIP3    H237181   4.012   4.788   0.936  2.5509  0.0556  0.6517
 5208TIP3   OH237182   5.978   4.655   0.571 -0.3209 -0.0171  0.0378
 5208TIP3    H137183   6.046   4.607   0.618  1.3939  1.2777 -0.9784
 5208TIP3    H237184   5.970   4.610   0.487  1.4231  1.4216 -0.9926
 5209TIP3   OH237185   5.363   1.535   1.520  0.3114 -0.0597  0.0487
 5209TIP3    H137186   5.317   1.451   1.513 -0.9647  0.6095  0.2390
 5209TIP3    H237187   5.353   1.560   1.612  0.2031  0.5619 -0.1257
 5210TIP3   OH237188   4.076   1.356   8.613  0.3041  0.2525  0.4062
 5210TIP3    H137189   4.056   1.401   8.695  1.0755  2.8856 -0.7450
 5210TIP3    H237190   4.150   1.405   8.576  1.0372 -1.8486 -1.1096
 5211TIP3   OH237191   6.347   1.635   8.214  0.7336  0.3109  0.0505
 5211TIP3    H137192   6.411   1.610   8.280  1.7781  1.4166 -0.5064
 5211TIP3    H237193   6.315   1.721   8.242 -1.8357 -0.9258  1.2446
 5212TIP3   OH237194   3.219   4.144   6.891 -0.3813  0.1232 -0.0068
 5212TIP3    H137195   3.272   4.171   6.966 -0.3219 -0.1750  0.0579
 5212TIP3    H237196   3.257   4.192   6.817  0.9673 -1.2442 -0.2409
 5213TIP3   OH237197   3.413   2.132   1.582  0.6044 -0.3424  0.1346
 5213TIP3    H137198   3.357   2.112   1.658 -0.4026  0.6559 -0.3154
 5213TIP3    H237199   3.355   2.179   1.522  1.2496 -1.4940 -1.4711
 5214TIP3   OH237200   0.282   1.880   1.725 -0.8057  0.0821  0.0756
 5214TIP3    H137201   0.274   1.915   1.637  0.5569  1.1488  0.3410
 5214TIP3    H237202   0.309   1.788   1.713 -1.3082  0.0250 -0.6116
 5215TIP3   OH237203   5.583   5.706   8.034  0.4187  0.0978 -0.3680
 5215TIP3    H137204   5.654   5.753   8.077 -0.0638  0.3334  0.2023
 5215TIP3    H237205   5.516   5.774   8.018 -1.1731 -0.6708  2.3387
 5216TIP3   OH237206   1.608   1.829   8.247  0.3713 -0.6655 -0.3946
 5216TIP3    H137207   1.604   1.920   8.275 -3.6724 -0.4506 -1.0665
 5216TIP3    H237208   1.603   1.778   8.328  1.4910 -0.3064 -0.0880
 5217TIP3   OH237209   2.506   3.608   7.611  0.6487 -0.1257 -0.3958
 5217TIP3    H137210   2.597   3.627   7.588  1.1588 -0.5793  1.1252
 5217TIP3    H237211   2.476   3.685   7.660  0.3901 -0.2015 -0.4300
 5218TIP3   OH237212   6.446   4.673   1.364 -0.6453 -0.0256 -0.2824
 5218TIP3    H137213   6.518   4.732   1.343  0.2690 -1.0400 -0.1237
 5218TIP3    H237214   6.368   4.728   1.364 -0.0762  0.8412 -1.8786
 5219TIP3   OH237215   0.875   5.138   0.475  0.3715 -0.1211  0.2520
 5219TIP3    H137216   0.781   5.123   0.479  0.3100  0.2815  0.2621
 5219TIP3    H237217   0.897   5.178   0.559  0.9817 -2.6202  1.3910
 5220TIP3   OH237218   3.831   2.456   8.051 -0.1278  0.5584 -0.6827
 5220TIP3    H137219   3.741   2.445   8.018 -0.2479 -0.7913  0.0157
 5220TIP3    H237220   3.854   2.370   8.086  1.5765  0.7945 -1.1323
 5221TIP3   OH237221   3.381   0.012   0.702 -0.2161  0.4176  0.4524
 5221TIP3    H137222   3.404   0.076   0.634  1.5163 -0.4302  0.1928
 5221TIP3    H237223   3.322  -0.049   0.658  0.5258  0.1385 -0.1980
 5222TIP3   OH237224   2.042   1.668   6.689  0.0520 -0.0639 -0.2298
 5222TIP3    H137225   2.036   1.749   6.638  1.3159 -0.1712 -0.5965
 5222TIP3    H237226   2.133   1.640   6.678  0.4767  0.0517  2.3003
 5223TIP3   OH237227   0.031   2.238   1.392 -0.1909 -0.0938 -0.1264
 5223TIP3    H137228   0.015   2.332   1.383  0.5083 -0.0660 -1.2814
 5223TIP3    H237229   0.127   2.231   1.392 -0.1662 -1.0179 -3.0622
 5224TIP3   OH237230   5.698   3.001   2.219 -0.0526  0.7768  0.8904
 5224TIP3    H137231   5.784   3.021   2.181  0.2400 -2.4244 -0.4512
 5224TIP3    H237232   5.639   2.999   2.143 -0.2005 -2.1395  0.9981
 5225TIP3   OH237233   6.241   6.032   8.223 -0.3044 -0.1913  0.1817
 5225TIP3    H137234   6.325   5.994   8.247  0.2573  0.4661 -0.6915
 5225TIP3    H237235   6.198   5.964   8.171 -0.4129 -0.6089  0.8067
 5226TIP3   OH237236   6.590   2.345   7.689 -0.4279 -0.1385  0.3999
 5226TIP3    H137237   6.663   2.286   7.707 -0.8207 -0.7244  0.0976
 5226TIP3    H237238   6.619   2.397   7.615 -0.4133 -0.5549  0.1064
 5227TIP3   OH237239   4.870   5.034   8.352 -0.1799  0.0906 -0.2840
 5227TIP3    H137240   4.950   5.079   8.380  0.7584 -0.9816 -1.1090
 5227TIP3    H237241   4.868   5.046   8.257 -2.1008  1.7781 -0.0982
 5228TIP3   OH237242   3.433   5.613   1.737 -0.1094  1.0807 -0.6142
 5228TIP3    H137243   3.496   5.580   1.800  0.1773  2.3696 -0.1860
 5228TIP3    H237244   3.479   5.611   1.653 -0.3231 -0.1692 -0.7230
 5229TIP3   OH237245   5.535   2.593   8.725 -0.3242 -0.4352  0.0013
 5229TIP3    H137246   5.572   2.633   8.646  0.0953  0.4532  0.6277
 5229TIP3    H237247   5.591   2.517   8.742  3.4184  2.4670  2.6329
 5230TIP3   OH237248   5.050   6.382   0.651  0.3284  0.4183 -0.7908
 5230TIP3    H137249   4.980   6.360   0.711  0.9146  0.9885  0.1287
 5230TIP3    H237250   5.127   6.335   0.685  1.1226  2.2204  0.0549
 5231TIP3   OH237251   0.122   2.995   7.729  0.6778 -0.2084 -0.0658
 5231TIP3    H137252   0.203   3.044   7.742  0.2840  1.0197 -1.8424
 5231TIP3    H237253   0.052   3.055   7.757  0.2694 -0.3739 -0.7080
 5232TIP3   OH237254   1.936   0.286   1.194  0.3354 -0.1189  0.1261
 5232TIP3    H137255   1.969   0.312   1.281  1.4397  0.4596 -0.4468
 5232TIP3    H237256   1.914   0.368   1.151  1.2109 -0.2948 -0.6868
 5233TIP3   OH237257   3.391   4.329   0.802 -0.0605  0.2241  0.2212
 5233TIP3    H137258   3.431   4.253   0.845 -0.6784  0.0743  0.5602
 5233TIP3    H237259   3.314   4.293   0.758  1.4154  0.0885 -2.4240
 5234TIP3   OH237260   1.609   0.490   7.125  0.1926  0.1023 -0.0406
 5234TIP3    H137261   1.659   0.454   7.052  0.2998  0.2182 -0.0242
 5234TIP3    H237262   1.673   0.502   7.195 -0.2070 -1.5724  0.6449
 5235TIP3   OH237263   5.470   6.325   8.544  0.8129 -0.3199  0.4084
 5235TIP3    H137264   5.527   6.399   8.569  0.6310 -0.0102 -0.0841
 5235TIP3    H237265   5.402   6.323   8.612  0.0940  0.7662 -0.2580
 5236TIP3   OH237266   4.797   5.108   0.807 -0.2630 -0.1720  0.9318
 5236TIP3    H137267   4.786   5.036   0.745  0.6693  0.1520  0.3754
 5236TIP3    H237268   4.861   5.166   0.766  0.7487 -0.1870  2.4241
 5237TIP3   OH237269   1.056   0.286   8.560  0.1763  0.1010  0.0682
 5237TIP3    H137270   1.029   0.264   8.649  1.3008  0.5246  0.5302
 5237TIP3    H237271   0.978   0.271   8.507  0.3643 -3.3369  0.5817
 5238TIP3   OH237272   2.364   5.838   2.182 -0.5248  0.1543  0.0751
 5238TIP3    H137273   2.431   5.886   2.133 -0.1368  2.1529  2.3598
 5238TIP3    H237274   2.410   5.765   2.222 -0.3362 -0.1192 -0.6375
 5239TIP3   OH237275   0.733   3.863   7.155  0.3013  0.3040  0.2597
 5239TIP3    H137276   0.826   3.862   7.173  0.0471 -0.5875  1.6571
 5239TIP3    H237277   0.708   3.955   7.162  0.9381  0.4554  0.6105
 5240TIP3   OH237278   1.890   5.963   7.141 -0.2931 -0.1775  0.3424
 5240TIP3    H137279   1.874   6.032   7.077 -0.6514  1.1845  1.8145
 5240TIP3    H237280   1.820   5.974   7.206 -0.9030 -2.5353  0.1679
 5241TIP3   OH237281   6.587   4.252   6.770  0.4170 -0.4006  0.0167
 5241TIP3    H137282   6.522   4.238   6.839 -0.7808 -1.7085 -1.2905
 5241TIP3    H237283   6.534   4.266   6.691  1.7388 -0.3024 -0.8734
 5242TIP3   OH237284   4.738   0.922   0.384  0.1292 -1.2157 -0.2253
 5242TIP3    H137285   4.753   0.848   0.326  2.0796 -0.2181 -1.0754
 5242TIP3    H237286   4.749   1.000   0.329  0.1153 -0.2631  1.0561
 5243TIP3   OH237287   2.512   3.656   6.480  0.0541 -0.6787  0.0472
 5243TIP3    H137288   2.480   3.576   6.521  0.7876 -0.3073  1.4007
 5243TIP3    H237289   2.440   3.685   6.425 -0.9664 -1.2302  1.0564
 5244TIP3   OH237290   6.094   1.090   7.339  0.1469 -0.3410 -0.2445
 5244TIP3    H137291   6.092   1.155   7.409  2.1923 -1.6367  1.1355
 5244TIP3    H237292   6.116   1.140   7.261 -1.4313  1.0356  0.1296
 5245TIP3   OH237293   2.373   4.005   7.661 -0.3395  0.2798 -1.1282
 5245TIP3    H137294   2.457   4.044   7.687 -1.0986  0.3217  1.5289
 5245TIP3    H237295   2.387   3.978   7.570  3.2491 -1.5417 -0.2449
 5246TIP3   OH237296   5.763   2.964   7.958 -0.0450  0.6019 -0.1968
 5246TIP3    H137297   5.712   2.977   7.879 -0.8213  0.1973  0.2245
 5246TIP3    H237298   5.699   2.933   8.023  0.7220  0.1127  0.3460
 5247TIP3   OH237299   0.304   6.220   1.232 -0.3162  0.3165 -0.4471
 5247TIP3    H137300   0.260   6.301   1.262 -0.4496 -0.1170  0.5870
 5247TIP3    H237301   0.292   6.220   1.137 -0.3107  1.5183 -0.4635
 5248TIP3   OH237302   3.840   5.996   8.786  0.3031 -0.1613 -0.5724
 5248TIP3    H137303   3.745   5.981   8.783  0.3805 -1.2590  0.9089
 5248TIP3    H237304   3.852   6.050   8.864  1.0908 -2.5012  1.0538
 5249TIP3   OH237305   5.382   3.643   7.404  0.0460  0.1356 -0.4024
 5249TIP3    H137306   5.302   3.695   7.409 -0.2988 -0.2221 -1.7452
 5249TIP3    H237307   5.410   3.633   7.495 -2.4914 -1.3558  0.3261
 5250TIP3   OH237308   6.006   3.802   2.012 -0.0879 -0.4927  0.4437
 5250TIP3    H137309   6.029   3.725   1.961  0.0311  0.9715 -1.8581
 5250TIP3    H237310   5.998   3.872   1.947 -0.2413  1.4283  2.4293
 5251TIP3   OH237311   3.626   3.047   0.969 -0.0081 -0.3753  0.0894
 5251TIP3    H137312   3.646   3.042   0.875 -1.6631 -0.0865 -0.3068
 5251TIP3    H237313   3.700   3.094   1.006 -0.8243  2.5433 -1.6340
 5252TIP3   OH237314   6.214   5.680   1.464 -0.1033  0.0624  0.0630
 5252TIP3    H137315   6.163   5.699   1.543  0.7076 -1.2785  0.9561
 5252TIP3    H237316   6.250   5.592   1.479 -0.0805 -0.3114 -1.8938
 5253TIP3   OH237317   4.078   5.605   1.395 -0.8068 -0.0198 -0.2415
 5253TIP3    H137318   4.043   5.520   1.370  1.9231 -0.9194 -1.4153
 5253TIP3    H237319   4.076   5.657   1.315 -0.9708  0.4584  0.0718
 5254TIP3   OH237320   2.669   1.499   1.665  0.3284 -0.1412  0.3277
 5254TIP3    H137321   2.680   1.560   1.592 -1.7475 -1.6253 -1.3227
 5254TIP3    H237322   2.657   1.556   1.741 -2.5026  1.6967 -1.2785
 5255TIP3   OH237323   3.690   1.068   7.336 -0.4693 -0.2132 -0.1224
 5255TIP3    H137324   3.778   1.082   7.371 -0.9924  0.5621  0.9305
 5255TIP3    H237325   3.685   1.127   7.261 -0.3109  0.2382  0.2129
 5256TIP3   OH237326   5.905   5.630   8.294  0.0006 -0.2764  0.4377
 5256TIP3    H137327   5.852   5.574   8.238  0.2198 -1.8735  1.7670
 5256TIP3    H237328   5.878   5.719   8.271 -0.6256 -0.9153 -1.4551
 5257TIP3   OH237329   3.651   5.490   1.016  0.0377  0.3594  0.0039
 5257TIP3    H137330   3.610   5.416   1.059 -1.1395  0.6724 -0.5547
 5257TIP3    H237331   3.686   5.543   1.087 -1.0979  0.4099  0.5423
 5258TIP3   OH237332   4.007   0.541   6.913 -0.7539 -0.1734  0.4352
 5258TIP3    H137333   3.983   0.489   6.989 -0.4791 -0.6634  0.1888
 5258TIP3    H237334   4.102   0.545   6.915 -0.7724  0.3794  0.4864
 5259TIP3   OH237335   5.114   0.300   2.121  0.1926  0.3881 -0.3156
 5259TIP3    H137336   5.129   0.253   2.203 -0.2582 -0.0528 -0.4747
 5259TIP3    H237337   5.026   0.336   2.131  0.4136  0.9344 -0.3255
 5260TIP3   OH237338   1.461   2.940   8.634  0.0460  0.2562 -0.0384
 5260TIP3    H137339   1.367   2.943   8.614 -0.4106 -0.5048  1.7644
 5260TIP3    H237340   1.467   2.975   8.723  1.6796  1.6473 -0.6331
 5261TIP3   OH237341   1.888   4.216   8.460 -0.1442 -0.6927  0.0357
 5261TIP3    H137342   1.893   4.133   8.508 -0.4990 -1.5040 -1.3006
 5261TIP3    H237343   1.979   4.238   8.443 -0.0861 -1.6457 -0.9870
 5262TIP3   OH237344   3.037   5.277   1.061  0.1047 -0.2954 -0.2024
 5262TIP3    H137345   3.097   5.303   0.991 -0.3417 -1.2793 -0.9764
 5262TIP3    H237346   3.059   5.186   1.078  1.0114  0.2561  1.7953
 5263TIP3   OH237347   6.459   2.535   0.227  0.0274 -0.2319  0.3638
 5263TIP3    H137348   6.408   2.601   0.274  0.6951  0.3008  0.3518
 5263TIP3    H237349   6.540   2.526   0.277 -0.2356 -1.3737  0.6091
 5264TIP3   OH237350   6.485   3.659   6.856  0.2347 -0.0484  0.0741
 5264TIP3    H137351   6.403   3.706   6.837 -0.1559 -1.3988 -1.8790
 5264TIP3    H237352   6.554   3.720   6.829 -0.2170  0.0260 -0.9456
 5265TIP3   OH237353   2.900   0.795   8.540  0.1153  0.3795 -0.6743
 5265TIP3    H137354   2.835   0.864   8.530 -0.6094 -0.2858 -0.6131
 5265TIP3    H237355   2.894   0.769   8.632 -1.9840 -2.0181 -1.3677
 5266TIP3   OH237356   6.167   3.947   0.707 -0.4778  0.3345  0.0663
 5266TIP3    H137357   6.186   3.871   0.652  0.2423 -0.5499  1.4560
 5266TIP3    H237358   6.252   3.976   0.738 -0.8326  1.1010  0.3555
 5267TIP3   OH237359   3.444   6.470   8.270  0.0217  0.1152 -0.6316
 5267TIP3    H137360   3.500   6.456   8.194 -1.7129 -0.6456 -1.8206
 5267TIP3    H237361   3.356   6.444   8.242 -1.2007  2.3295  0.7920
 5268TIP3   OH237362   0.135   6.704   1.275 -0.4410 -0.3152 -0.7477
 5268TIP3    H137363   0.211   6.757   1.297 -0.5399 -1.1154  1.8427
 5268TIP3    H237364   0.126   6.712   1.180  1.7190  1.3012 -0.8708
 5269TIP3   OH237365   5.407   4.425   2.526 -0.0133  0.3340  0.0304
 5269TIP3    H137366   5.353   4.395   2.454 -0.5300  1.5714 -0.1169
 5269TIP3    H237367   5.495   4.431   2.489  0.1720 -1.2257  0.1464
 5270TIP3   OH237368   3.355   0.810   6.922  0.0082  0.7850  0.1868
 5270TIP3    H137369   3.293   0.883   6.922  0.1407  0.9060  0.8599
 5270TIP3    H237370   3.438   0.849   6.951 -0.0361  0.2814  1.0015
 5271TIP3   OH237371   0.453   3.915   0.355  0.3340  0.1166 -0.3777
 5271TIP3    H137372   0.469   3.910   0.449 -0.6789  1.1178 -0.1351
 5271TIP3    H237373   0.359   3.903   0.345  0.2373  1.2881 -1.1434
 5272TIP3   OH237374   3.842   0.156   6.957 -0.1529  0.8279  0.1972
 5272TIP3    H137375   3.826   0.199   7.041  0.6604 -0.1274  0.8654
 5272TIP3    H237376   3.756   0.154   6.915 -0.6583  0.9708  1.1771
 5273TIP3   OH237377   0.386   2.202   0.595 -0.7714 -0.3363 -0.6378
 5273TIP3    H137378   0.470   2.212   0.641 -0.5745  0.2240 -1.1041
 5273TIP3    H237379   0.404   2.234   0.507 -0.9654 -2.0365 -1.3182
 5274TIP3   OH237380   5.009   2.005   6.972 -0.1309  0.3832 -0.1191
 5274TIP3    H137381   5.091   2.042   6.938 -0.3938  0.6224 -0.5026
 5274TIP3    H237382   4.947   2.015   6.900 -0.7051  0.9270  0.4336
 5275TIP3   OH237383   6.375   0.031   6.684 -0.1059  0.0549  0.4390
 5275TIP3    H137384   6.456  -0.006   6.647  0.1311  1.2906 -0.3218
 5275TIP3    H237385   6.356  -0.025   6.760  2.6457  0.9525  1.9384
 5276TIP3   OH237386   1.545   4.895   1.219 -0.0723  0.5872 -0.6683
 5276TIP3    H137387   1.632   4.899   1.259  0.0842  1.1238 -1.0617
 5276TIP3    H237388   1.485   4.895   1.293  0.2964 -1.9554 -0.2772
 5277TIP3   OH237389   5.687   5.020   7.801  0.2968 -0.0965 -0.9122
 5277TIP3    H137390   5.632   4.944   7.779 -1.8150  1.0105  0.1772
 5277TIP3    H237391   5.654   5.090   7.745  0.7609  0.5435 -0.4037
 5278TIP3   OH237392   5.277   6.036   7.171 -0.1235  0.2621  0.6744
 5278TIP3    H137393   5.231   6.031   7.254  0.7632  1.0589  1.2365
 5278TIP3    H237394   5.237   6.111   7.126 -0.5567 -0.1272  0.3952
 5279TIP3   OH237395   6.189   2.436   0.962 -0.1164  0.6363  0.0644
 5279TIP3    H137396   6.277   2.402   0.973 -0.2594  0.7760  1.8974
 5279TIP3    H237397   6.201   2.522   0.921  0.7808  1.5050  2.0200
 5280TIP3   OH237398   4.610   4.909   7.612 -0.2836 -0.3524 -0.1675
 5280TIP3    H137399   4.551   4.983   7.596 -0.7611 -0.0510  2.5500
 5280TIP3    H237400   4.696   4.949   7.623 -0.5541 -0.1313  1.3745
 5281TIP3   OH237401   0.866   3.963   0.332  0.4807 -0.2609 -0.0201
 5281TIP3    H137402   0.811   3.924   0.400  0.6513 -1.5099 -0.5698
 5281TIP3    H237403   0.926   3.892   0.306  1.5137  0.6966 -0.3105
 5282TIP3   OH237404   2.801   1.656   6.863  0.3555 -0.2128 -0.6012
 5282TIP3    H137405   2.864   1.728   6.862 -0.1385  0.2617  0.6407
 5282TIP3    H237406   2.717   1.698   6.878 -0.0206 -0.9977 -0.4748
 5283TIP3   OH237407   1.603   0.427   1.607  0.7108 -0.5536  0.7516
 5283TIP3    H137408   1.606   0.444   1.513 -0.6282  1.1723  0.9688
 5283TIP3    H237409   1.609   0.332   1.614 -1.0383 -0.8737 -1.2086
 5284TIP3   OH237410   6.425   3.757   7.773 -0.4381  0.5283  0.4696
 5284TIP3    H137411   6.450   3.846   7.749  0.7895  0.2187  0.5572
 5284TIP3    H237412   6.368   3.728   7.701 -0.8516  1.3693  0.4425
 5285TIP3   OH237413   6.539   3.796   8.339  0.2914 -0.6541  0.1138
 5285TIP3    H137414   6.584   3.841   8.410 -0.7353 -0.5677  0.7242
 5285TIP3    H237415   6.493   3.724   8.381 -0.2162 -0.6859 -0.4840
 5286TIP3   OH237416   1.376   2.621   0.808  0.1618  0.8818 -0.8131
 5286TIP3    H137417   1.406   2.551   0.866  0.9045  0.7490 -1.3532
 5286TIP3    H237418   1.323   2.677   0.865  0.3024  0.3789 -0.1685
 5287TIP3   OH237419   3.379   1.093   0.525  0.2465 -0.2015  0.0162
 5287TIP3    H137420   3.299   1.141   0.546  2.0809  2.2921  1.9598
 5287TIP3    H237421   3.421   1.144   0.455  0.2187 -1.4388 -0.9363
 5288TIP3   OH237422   0.360   1.117   8.129 -0.5754  0.2310  0.0596
 5288TIP3    H137423   0.268   1.138   8.140 -0.3660  1.4093 -0.3222
 5288TIP3    H237424   0.402   1.145   8.210 -0.4106  0.5653 -0.1404
 5289TIP3   OH237425   6.507   2.692   8.458  0.1474  0.1589 -0.4372
 5289TIP3    H137426   6.431   2.712   8.404 -0.6597 -1.3811  0.0823
 5289TIP3    H237427   6.535   2.605   8.429 -0.2088 -0.6303  1.4630
 5290TIP3   OH237428   5.218   5.574   0.963  0.2854 -0.4633  0.4269
 5290TIP3    H137429   5.274   5.561   0.886  1.8030  1.2581  1.1681
 5290TIP3    H237430   5.266   5.531   1.035  0.3532  0.4811  0.9533
 5291TIP3   OH237431   1.508   3.613   0.905 -0.5877  0.0884  0.1941
 5291TIP3    H137432   1.527   3.531   0.949 -0.1620 -0.3119 -0.7078
 5291TIP3    H237433   1.422   3.639   0.938 -0.9419 -0.9660  0.1226
 5292TIP3   OH237434   6.513   1.573   0.274  0.8943  0.3607 -0.5877
 5292TIP3    H137435   6.481   1.660   0.296 -1.7667  0.1370 -2.8937
 5292TIP3    H237436   6.604   1.586   0.248  0.7984  2.2823 -0.0896
 5293TIP3   OH237437   0.892   3.495   1.016 -0.2535 -0.1484 -0.4022
 5293TIP3    H137438   0.823   3.439   1.053  1.0371 -0.9506  0.9289
 5293TIP3    H237439   0.872   3.499   0.923 -2.2545 -0.1068 -0.0245
 5294TIP3   OH237440   0.283   5.819   7.116  0.0846  0.2091 -0.4239
 5294TIP3    H137441   0.246   5.769   7.189 -0.0419 -0.5651 -1.0130
 5294TIP3    H237442   0.292   5.756   7.045  1.3923  0.6524 -0.6937
 5295TIP3   OH237443   6.785   3.096   7.482  0.2353  0.2488  0.0122
 5295TIP3    H137444   6.828   3.176   7.512  0.7757 -0.5349  1.4114
 5295TIP3    H237445   6.828   3.026   7.531 -0.2808 -0.9022 -1.1250
 5296TIP3   OH237446   4.869   2.347   7.604  0.1768  0.3411 -0.4971
 5296TIP3    H137447   4.869   2.362   7.509  1.9147 -1.7397 -0.8980
 5296TIP3    H237448   4.958   2.367   7.632 -0.2438  0.6640  0.6681
 5297TIP3   OH237449   4.675   0.176   0.575 -0.0359  0.3748  0.3140
 5297TIP3    H137450   4.679   0.122   0.654  0.3203  1.3035  0.9478
 5297TIP3    H237451   4.583   0.171   0.547  0.0959 -0.9630  0.0456
 5298TIP3   OH237452   5.226   4.217   1.084  0.0243 -0.4301  0.7255
 5298TIP3    H137453   5.209   4.123   1.077 -0.8014 -0.1727 -1.7205
 5298TIP3    H237454   5.174   4.246   1.159 -1.0316 -1.6414  0.4859
 5299TIP3   OH237455   2.836   3.035   7.892  0.0853  0.2133  0.1010
 5299TIP3    H137456   2.833   2.981   7.971 -1.4468  0.1311  0.0183
 5299TIP3    H237457   2.768   2.998   7.835  0.4044  0.9631 -0.7993
 5300TIP3   OH237458   3.200   6.188   1.001 -0.3599  0.2382  0.1309
 5300TIP3    H137459   3.163   6.272   1.026 -2.6128 -0.6278 -0.0660
 5300TIP3    H237460   3.189   6.133   1.078 -0.6111 -0.3964 -0.3512
 5301TIP3   OH237461   4.057   6.525   0.076  0.3944  0.1364  0.3354
 5301TIP3    H137462   4.003   6.446   0.075  0.2989  0.1956 -1.4329
 5301TIP3    H237463   4.144   6.494   0.103  0.0626 -0.3391  0.8952
 5302TIP3   OH237464   1.252   0.155   7.907 -0.3059 -0.2254 -0.0552
 5302TIP3    H137465   1.210   0.092   7.966 -0.1848 -0.8522 -0.6329
 5302TIP3    H237466   1.216   0.240   7.934 -1.4574 -0.6714 -0.1116
 5303TIP3   OH237467   2.004   0.532   7.780 -0.4699 -0.3306 -0.2649
 5303TIP3    H137468   1.934   0.595   7.763 -0.5992  0.7022  3.3245
 5303TIP3    H237469   2.084   0.585   7.782 -0.5371 -0.2115  2.4420
 5304TIP3   OH237470   5.083   5.366   0.785  0.0072 -0.5434 -0.1321
 5304TIP3    H137471   5.020   5.344   0.854  0.4597 -1.7030 -0.0693
 5304TIP3    H237472   5.093   5.461   0.791 -0.0398 -0.6119  1.3311
 5305TIP3   OH237473   6.240   2.079   1.716 -0.1334 -0.6628  0.3226
 5305TIP3    H137474   6.212   2.111   1.802 -1.1291  0.4477 -0.3794
 5305TIP3    H237475   6.159   2.078   1.664  0.7449  0.5261 -1.1405
 5306TIP3   OH237476   1.606   4.941   7.732  0.1259 -1.0509  0.3362
 5306TIP3    H137477   1.695   4.907   7.717  0.0095 -1.9248  1.4413
 5306TIP3    H237478   1.594   4.933   7.827 -1.0876 -0.8328  0.2087
 5307TIP3   OH237479   2.155   0.483   0.221  0.3671 -0.7374 -0.0165
 5307TIP3    H137480   2.224   0.539   0.185  0.1471 -0.5798 -0.1980
 5307TIP3    H237481   2.180   0.395   0.195  2.6646 -1.2377  3.2893
 5308TIP3   OH237482   6.495   2.930   6.953 -0.5885  0.6680 -0.0572
 5308TIP3    H137483   6.488   3.024   6.936  1.6655  0.6613 -1.3829
 5308TIP3    H237484   6.586   2.917   6.979 -0.6405 -1.2761 -0.6893
 5309TIP3   OH237485   2.124   3.328   6.458 -0.1484  0.0825 -0.6081
 5309TIP3    H137486   2.179   3.396   6.418  0.0444 -0.0318 -0.5401
 5309TIP3    H237487   2.112   3.263   6.388  0.3904 -0.2375 -0.4188
 5310TIP3   OH237488   2.243   0.848   1.578  0.1843 -0.3946  0.0381
 5310TIP3    H137489   2.195   0.892   1.508  0.2509 -1.1982 -0.5295
 5310TIP3    H237490   2.334   0.847   1.548  0.4738  0.5877  0.8326
 5311TIP3   OH237491   6.117   2.564   0.654 -0.3419 -0.0118  0.1928
 5311TIP3    H137492   6.034   2.520   0.640 -1.3828  1.8375  0.1759
 5311TIP3    H237493   6.100   2.626   0.725  1.6506 -1.0970  1.7227
 5312TIP3   OH237494   5.627   3.636   0.809 -0.5760 -0.0230 -0.1961
 5312TIP3    H137495   5.707   3.603   0.849 -1.1066 -0.2393  0.7148
 5312TIP3    H237496   5.652   3.658   0.719  0.8697  1.3092  0.4922
 5313TIP3   OH237497   5.496   2.620   8.238  0.0969 -0.0259  0.2496
 5313TIP3    H137498   5.522   2.547   8.295 -0.0795  0.1723  0.5860
 5313TIP3    H237499   5.400   2.615   8.235  0.1602 -0.9702 -1.2662
 5314TIP3   OH237500   2.961   3.602   7.321  0.6341  0.5839 -0.3363
 5314TIP3    H137501   2.912   3.547   7.260  0.6268 -0.9394  0.9807
 5314TIP3    H237502   3.007   3.665   7.265 -1.9531  1.4074 -1.6972
 5315TIP3   OH237503   4.236   5.580   8.187 -0.1883 -0.0435  0.0826
 5315TIP3    H137504   4.272   5.622   8.265  0.5151 -0.4933  0.0047
 5315TIP3    H237505   4.242   5.647   8.118 -0.1662  0.1214  0.2449
 5316TIP3   OH237506   4.937   5.560   0.569 -0.2254 -0.2145  0.2678
 5316TIP3    H137507   4.860   5.594   0.523  0.2885  1.7267  0.7485
 5316TIP3    H237508   4.995   5.636   0.579  1.1223 -1.3044  1.2127
 5317TIP3   OH237509   6.679   2.349   8.408 -0.1687  0.0788  0.2635
 5317TIP3    H137510   6.685   2.286   8.336  0.9950 -0.2776  0.6535
 5317TIP3    H237511   6.629   2.304   8.475  0.9969 -0.6104  0.6965
 5318TIP3   OH237512   0.627   3.814   1.770 -0.0120  0.2153 -0.2356
 5318TIP3    H137513   0.564   3.812   1.841 -0.4579  0.5328 -0.6178
 5318TIP3    H237514   0.635   3.723   1.742 -0.4740  0.2027 -0.3331
 5319TIP3   OH237515   4.759   1.085   8.485 -0.3996  0.4832 -0.4149
 5319TIP3    H137516   4.835   1.110   8.536  0.3154 -0.0818 -1.1728
 5319TIP3    H237517   4.691   1.065   8.550  0.7687 -1.1193  0.3787
 5320TIP3   OH237518   1.331   5.943   1.559  0.1193 -0.1701 -0.0425
 5320TIP3    H137519   1.391   5.871   1.582  0.9145  0.8540  1.2411
 5320TIP3    H237520   1.277   5.955   1.637  0.1846  0.8030 -0.1329
 5321TIP3   OH237521   5.717   1.803   7.941  0.0760 -0.4228  0.5318
 5321TIP3    H137522   5.710   1.764   7.854 -0.4447  0.9722 -0.0704
 5321TIP3    H237523   5.644   1.765   7.990 -1.2288  0.7291 -0.4466
 5322TIP3   OH237524   6.243   5.766   7.615  0.3745 -0.0844  0.1084
 5322TIP3    H137525   6.175   5.726   7.668  0.9656 -1.3519 -0.0482
 5322TIP3    H237526   6.226   5.734   7.526  0.4810  0.5304 -0.1343
 5323TIP3   OH237527   6.387   4.387   7.737  0.0684  0.4768 -0.7576
 5323TIP3    H137528   6.391   4.460   7.675 -0.0997  0.3617 -0.9049
 5323TIP3    H237529   6.337   4.320   7.692 -1.0373  0.8092 -0.0598
 5324TIP3   OH237530   0.487   3.860   8.393 -0.1502 -0.2403  0.5375
 5324TIP3    H137531   0.409   3.807   8.409  1.3352 -2.4442  0.8990
 5324TIP3    H237532   0.543   3.804   8.339  1.2474  1.2103  0.4306
 5325TIP3   OH237533   1.115   4.471   7.603  0.3003 -0.3271 -0.3955
 5325TIP3    H137534   1.162   4.539   7.652  0.6576 -1.0619  0.3191
 5325TIP3    H237535   1.058   4.519   7.543 -0.1602  0.6225  0.7582
 5326TIP3   OH237536   4.997   0.723   8.567  0.1820  0.2043  0.0005
 5326TIP3    H137537   5.022   0.689   8.653 -0.4696  0.1263  0.1657
 5326TIP3    H237538   4.909   0.687   8.552  0.0805  0.6421 -0.4678
 5327TIP3   OH237539   0.161   5.599   7.863 -0.5496  0.8727 -0.5628
 5327TIP3    H137540   0.071   5.613   7.836 -1.2702 -0.6937  0.8326
 5327TIP3    H237541   0.185   5.678   7.911 -1.5797  0.8634 -0.0039
 5328TIP3   OH237542   5.158   1.600   1.093 -0.5011  0.5617 -0.4611
 5328TIP3    H137543   5.247   1.633   1.105 -0.5495  0.2738  0.8226
 5328TIP3    H237544   5.170   1.509   1.067 -0.4081  0.1292  1.0069
 5329TIP3   OH237545   4.043   4.285   0.102 -0.3748 -0.2889 -0.2917
 5329TIP3    H137546   4.071   4.338   0.177  0.0379  0.2339 -0.8011
 5329TIP3    H237547   4.089   4.324   0.027 -1.1631 -0.4913 -0.8902
 5330TIP3   OH237548   3.864   3.501   0.643  0.0780  0.1707  0.2687
 5330TIP3    H137549   3.952   3.478   0.614  0.4381 -0.8217  1.9869
 5330TIP3    H237550   3.853   3.592   0.616  1.0263 -0.1402 -1.2932
 5331TIP3   OH237551   2.247   0.203   1.481  0.0058  0.1692  0.5241
 5331TIP3    H137552   2.287   0.265   1.543 -1.5723  1.8532 -0.0530
 5331TIP3    H237553   2.252   0.247   1.396 -0.5053 -0.8321 -0.0406
 5332TIP3   OH237554   0.813   5.444   8.026 -0.0356  0.7359  0.6219
 5332TIP3    H137555   0.791   5.485   8.109 -1.2421 -1.0783  1.2850
 5332TIP3    H237556   0.845   5.357   8.051  3.0998  1.4084 -0.6599
 5333TIP3   OH237557   5.157   2.177   0.419  0.5583 -0.0287  0.5075
 5333TIP3    H137558   5.220   2.107   0.401  0.6272  0.3276 -0.7176
 5333TIP3    H237559   5.109   2.147   0.496  0.1564 -1.7253 -0.3653
 5334TIP3   OH237560   5.327   6.346   8.313 -0.4412 -0.1426 -0.0461
 5334TIP3    H137561   5.376   6.422   8.282 -1.2303  0.6056  0.4805
 5334TIP3    H237562   5.377   6.314   8.388 -1.5246  1.5907  1.4974
 5335TIP3   OH237563   4.665   0.768   7.534 -0.0919 -0.0089 -0.1181
 5335TIP3    H137564   4.673   0.808   7.621  0.2289  0.0749 -0.1859
 5335TIP3    H237565   4.601   0.698   7.546  2.0424 -1.9448  0.8844
 5336TIP3   OH237566   1.758   2.070   0.860 -0.2197  0.0048  0.1347
 5336TIP3    H137567   1.732   2.146   0.808  0.0255  0.4949  0.7144
 5336TIP3    H237568   1.846   2.050   0.831  0.2698  0.8441  0.9742
 5337TIP3   OH237569   3.663   2.160   1.485  0.2973  0.4759  0.1959
 5337TIP3    H137570   3.686   2.075   1.447 -0.3485  0.1959  0.4079
 5337TIP3    H237571   3.583   2.142   1.536 -0.8382  1.5401 -1.1379
 5338TIP3   OH237572   4.141   0.232   7.806 -0.4342  0.0872 -0.4485
 5338TIP3    H137573   4.162   0.160   7.865  0.6189  0.4329 -0.3780
 5338TIP3    H237574   4.142   0.193   7.718  0.6882  0.1038 -0.4618
 5339TIP3   OH237575   4.035   4.405   1.540  0.4988 -0.6530 -0.0975
 5339TIP3    H137576   3.989   4.444   1.466  1.7141 -1.9399 -1.5753
 5339TIP3    H237577   4.029   4.472   1.609 -1.5503  0.1410 -0.9747
 5340TIP3   OH237578   3.751   6.624   1.529 -0.1225 -0.0108 -0.4362
 5340TIP3    H137579   3.692   6.655   1.598  1.0830  0.4405  0.4231
 5340TIP3    H237580   3.724   6.673   1.451 -1.2450 -0.2337 -0.2053
 5341TIP3   OH237581   0.830   3.459   7.553 -0.0979  0.0319 -0.1733
 5341TIP3    H137582   0.855   3.462   7.646  3.1639 -0.3740 -0.9308
 5341TIP3    H237583   0.894   3.401   7.513 -0.4928  1.3723 -2.9544
 5342TIP3   OH237584   5.270   0.876   8.727  0.0570 -0.1486  0.4149
 5342TIP3    H137585   5.258   0.905   8.636 -0.4406  1.1643  0.8733
 5342TIP3    H237586   5.288   0.782   8.720 -3.8444 -1.0153 -0.8739
 5343TIP3   OH237587   3.283   1.826   2.283 -0.3982 -0.2703  0.1870
 5343TIP3    H137588   3.204   1.811   2.335 -1.0456 -0.5674 -0.8407
 5343TIP3    H237589   3.254   1.814   2.193  0.6182  0.5369 -0.2664
 5344TIP3   OH237590   4.003   3.545   8.147  0.6653 -0.0682 -0.1003
 5344TIP3    H137591   3.927   3.566   8.092  1.2267  1.6483 -0.3045
 5344TIP3    H237592   3.994   3.602   8.223  2.3289  1.0858 -0.6928
 5345TIP3   OH237593   4.980   1.758   0.994  0.5932  1.0213 -0.0732
 5345TIP3    H137594   5.049   1.694   1.013  0.0446  0.4173 -0.0801
 5345TIP3    H237595   5.021   1.842   1.011  1.5912  0.7188 -0.8641
 5346TIP3   OH237596   1.076   5.604   8.290 -0.3557 -0.0292 -0.4645
 5346TIP3    H137597   1.045   5.516   8.268 -0.0725 -0.1041 -0.5629
 5346TIP3    H237598   1.115   5.637   8.210 -0.8724  0.3694 -0.5598
 5347TIP3   OH237599   4.183   6.210   6.465 -0.5213  0.6843 -0.2438
 5347TIP3    H137600   4.213   6.121   6.480 -1.1069  0.8148  1.8902
 5347TIP3    H237601   4.264   6.260   6.452 -0.0299  0.2868  1.1602
 5348TIP3   OH237602   6.688   5.215   0.194 -0.1751 -0.1210 -0.0387
 5348TIP3    H137603   6.753   5.150   0.168 -0.0319 -0.0011  0.0179
 5348TIP3    H237604   6.709   5.292   0.141  1.6368  0.9578  2.1064
 5349TIP3   OH237605   5.269   5.704   7.182 -0.2218 -0.1859  0.4145
 5349TIP3    H137606   5.284   5.793   7.151 -1.8335 -0.4195 -1.2099
 5349TIP3    H237607   5.175   5.701   7.202 -0.3403 -1.7193 -0.2665
 5350TIP3   OH237608   6.153   5.495   0.229 -0.1504 -0.2282 -0.3639
 5350TIP3    H137609   6.113   5.509   0.143 -1.0448 -0.8489 -0.0745
 5350TIP3    H237610   6.081   5.511   0.291  0.4217 -0.0143  0.2563
 5351TIP3   OH237611   3.447   3.492   6.908 -0.2706  0.2001 -0.2529
 5351TIP3    H137612   3.410   3.537   6.984  1.2486  0.3244  0.4535
 5351TIP3    H237613   3.382   3.505   6.839 -0.5122  2.3483  0.3011
 5352TIP3   OH237614   1.820   1.450   1.686  0.1311 -0.1031  0.6386
 5352TIP3    H137615   1.794   1.515   1.750  1.6404  1.0102  0.1785
 5352TIP3    H237616   1.867   1.383   1.737 -0.4239 -0.2535  0.9556
 5353TIP3   OH237617   4.004   1.614   6.873  0.3557  0.0029  0.3594
 5353TIP3    H137618   4.057   1.633   6.950 -0.3331  1.3480  0.5413
 5353TIP3    H237619   3.997   1.699   6.828  2.4659 -1.0637 -2.3404
 5354TIP3   OH237620   5.831   5.863   0.966  0.1621 -0.9860  0.7855
 5354TIP3    H137621   5.767   5.793   0.978 -1.3552  0.3500  0.8797
 5354TIP3    H237622   5.881   5.837   0.889 -2.7484 -0.5540 -1.4403
 5355TIP3   OH237623   3.506   0.284   8.722 -0.4141  0.0958 -0.0711
 5355TIP3    H137624   3.415   0.260   8.706 -0.1805 -0.3864 -0.7152
 5355TIP3    H237625   3.550   0.200   8.737 -0.3859  0.4257  1.9844
 5356TIP3   OH237626   6.179   4.158   8.465 -0.2529 -0.8044 -0.2701
 5356TIP3    H137627   6.206   4.067   8.475  2.1180 -0.0533  0.8235
 5356TIP3    H237628   6.196   4.178   8.373 -1.8594 -1.7217 -0.8154
 5357TIP3   OH237629   4.475   0.168   0.970  0.4526 -0.0550 -0.1607
 5357TIP3    H137630   4.550   0.228   0.966  0.4820 -0.0933 -0.1825
 5357TIP3    H237631   4.488   0.107   0.898  0.3108  0.0438 -0.2707
 5358TIP3   OH237632   6.151   5.218   1.031  0.0011  0.1399 -0.0012
 5358TIP3    H137633   6.206   5.140   1.022  1.3822  1.1647 -0.8153
 5358TIP3    H237634   6.210   5.286   1.061 -0.3865  1.7156 -2.4552
 5359TIP3   OH237635   4.607   3.430   7.260  0.7292 -0.5836  0.6773
 5359TIP3    H137636   4.674   3.484   7.218  0.6947 -0.3954  0.8633
 5359TIP3    H237637   4.585   3.477   7.340 -2.5364  1.5703 -1.2102
 5360TIP3   OH237638   3.534   2.692   0.984  0.6578 -0.0582  0.1629
 5360TIP3    H137639   3.464   2.722   1.043  0.7673  0.7541 -0.1086
 5360TIP3    H237640   3.491   2.628   0.926  0.6290 -1.1205  1.3226
 5361TIP3   OH237641   0.426   3.671   0.861 -0.2533  0.0658  0.3414
 5361TIP3    H137642   0.516   3.663   0.894  1.0851  0.4580 -2.8425
 5361TIP3    H237643   0.420   3.605   0.791 -4.0427 -3.1600  3.1898
 5362TIP3   OH237644   6.184   2.973   1.237 -0.2594  1.4984  0.5701
 5362TIP3    H137645   6.110   2.991   1.295 -0.0331  0.8883  1.0686
 5362TIP3    H237646   6.226   2.897   1.277 -0.6022  0.5205 -0.8806
 5363TIP3   OH237647   0.499   4.179   8.749 -0.7198 -0.1682 -0.1530
 5363TIP3    H137648   0.594   4.182   8.759 -0.5380  1.6342 -1.8123
 5363TIP3    H237649   0.478   4.257   8.697 -3.0998 -0.5832  0.0772
 5364TIP3   OH237650   1.570   0.986   7.618 -0.6462  0.2986  0.0382
 5364TIP3    H137651   1.573   0.996   7.713 -1.2950 -0.1718  0.1242
 5364TIP3    H237652   1.480   1.010   7.595  0.5849  4.8273 -1.0555
 5365TIP3   OH237653   1.530   1.378   1.939  0.2452  0.0015 -0.5202
 5365TIP3    H137654   1.442   1.341   1.948  0.7450 -0.8425  1.2656
 5365TIP3    H237655   1.583   1.306   1.908  0.5995  0.1064 -0.1624
 5366TIP3   OH237656   6.667   1.168   7.240  0.4307 -0.3612  0.1107
 5366TIP3    H137657   6.762   1.177   7.245  0.5486 -1.7750  1.4093
 5366TIP3    H237658   6.651   1.129   7.154  0.9849  0.2762 -0.2854
 5367TIP3   OH237659   2.838   2.887   1.302 -0.2943  0.2097 -0.1013
 5367TIP3    H137660   2.900   2.888   1.228  0.3521  0.7776  0.4323
 5367TIP3    H237661   2.832   2.794   1.326 -0.4630  0.0266 -0.8204
 5368TIP3   OH237662   2.206   3.695   6.909  0.4575  0.8279  0.1256
 5368TIP3    H137663   2.192   3.778   6.863 -0.1888 -0.1869 -1.6195
 5368TIP3    H237664   2.155   3.632   6.858  0.9404 -0.6384  1.4206
 5369TIP3   OH237665   1.400   0.604   8.793 -0.6449 -0.3847  0.2589
 5369TIP3    H137666   1.339   0.678   8.786 -0.9451 -0.7615 -1.9773
 5369TIP3    H237667   1.352   0.530   8.756  1.1337 -0.6660 -1.7036
 5370TIP3   OH237668   2.841   2.337   0.163 -0.2012 -0.2086  0.2129
 5370TIP3    H137669   2.816   2.286   0.086 -2.1080  1.2217 -0.1803
 5370TIP3    H237670   2.936   2.340   0.160 -0.0982 -2.4031 -0.5894
 5371TIP3   OH237671   3.708   2.062   8.121 -0.5782 -0.2445  0.1495
 5371TIP3    H137672   3.748   2.069   8.034 -2.5321  1.0781 -0.7319
 5371TIP3    H237673   3.751   1.987   8.162  0.5332 -0.7810 -1.8704
 5372TIP3   OH237674   6.585   1.703   0.017 -0.5137 -0.7011 -0.0515
 5372TIP3    H137675   6.541   1.700  -0.068  0.0720  2.2159 -0.5608
 5372TIP3    H237676   6.652   1.634   0.012 -1.5696 -1.6972 -1.2572
 5373TIP3   OH237677   1.095   5.017   1.047  0.0809 -0.0486  0.2826
 5373TIP3    H137678   1.060   5.021   0.958 -1.8928  0.7072  1.0340
 5373TIP3    H237679   1.018   5.003   1.102  1.3626 -1.3465  1.8339
 5374TIP3   OH237680   1.752   5.933   0.171 -0.0357 -0.5321  0.0385
 5374TIP3    H137681   1.797   5.957   0.091 -0.4058  0.2847  0.0679
 5374TIP3    H237682   1.822   5.903   0.230  0.4193  0.2751 -0.0749
 5375TIP3   OH237683   0.210   4.342   0.089 -0.1117  0.0916 -0.4233
 5375TIP3    H137684   0.195   4.342   0.184  2.3711  1.0510  0.0297
 5375TIP3    H237685   0.140   4.397   0.054 -0.3764  0.7010  0.9938
 5376TIP3   OH237686   3.306   1.513   0.637  0.5294 -0.0260  0.1309
 5376TIP3    H137687   3.285   1.523   0.545 -2.0715 -0.2279  0.6282
 5376TIP3    H237688   3.267   1.429   0.662 -1.5075  1.3464  2.0080
 5377TIP3   OH237689   2.665   0.708   8.781 -0.3239 -0.2219  0.3850
 5377TIP3    H137690   2.630   0.795   8.765  1.0667  0.0656 -1.3613
 5377TIP3    H237691   2.667   0.666   8.695  1.3004 -1.0722  0.7868
 5378TIP3   OH237692   3.063   1.956   8.703  0.4909  0.6488 -0.3482
 5378TIP3    H137693   2.994   1.896   8.733  0.5832 -0.1091 -1.5909
 5378TIP3    H237694   3.081   2.012   8.779  1.0462 -1.4694  1.1635
 5379TIP3   OH237695   6.777   0.041   7.745  0.2077  0.5941  0.2318
 5379TIP3    H137696   6.788  -0.036   7.690 -1.1551  1.0226 -0.6913
 5379TIP3    H237697   6.818   0.017   7.828 -0.1706 -1.1134 -0.0401
 5380TIP3   OH237698   6.021   3.521   8.649  0.2490  0.9255 -0.4081
 5380TIP3    H137699   5.945   3.551   8.699 -0.8283  0.5417 -1.7677
 5380TIP3    H237700   6.030   3.586   8.579  0.4318  0.3063 -0.9617
 5381TIP3   OH237701   0.044   6.791   8.293 -0.4724  0.8021  0.1698
 5381TIP3    H137702   0.091   6.798   8.376 -0.2110 -0.1771  0.1091
 5381TIP3    H237703  -0.042   6.758   8.317  0.3822 -1.8323 -0.1566
 5382TIP3   OH237704   4.983   1.727   6.879  0.2247 -0.8026  0.3753
 5382TIP3    H137705   4.976   1.819   6.905  1.1500 -0.5138 -0.3223
 5382TIP3    H237706   5.065   1.723   6.829 -0.8485 -1.5807 -1.3994
 5383TIP3   OH237707   5.770   6.291   0.158 -0.0662 -0.5806 -1.0151
 5383TIP3    H137708   5.839   6.343   0.200 -0.4478 -1.0880  0.2748
 5383TIP3    H237709   5.689   6.335   0.182 -0.2239  0.1088 -2.6632
 5384TIP3   OH237710   6.496   6.398   0.191  0.0696  0.1492  1.3848
 5384TIP3    H137711   6.532   6.327   0.244 -1.6191 -1.2359  0.7495
 5384TIP3    H237712   6.548   6.475   0.216  1.7452 -1.2118  2.3147
 5385TIP3   OH237713   1.622   4.984   8.770 -0.3442  0.7235 -0.3338
 5385TIP3    H137714   1.554   5.027   8.820  1.2912  0.8745  1.9253
 5385TIP3    H237715   1.703   5.005   8.817  1.0794 -0.7431 -1.9825
 5386TIP3   OH237716   1.745   2.147   8.121  0.1986  0.0163  0.0823
 5386TIP3    H137717   1.664   2.195   8.103  0.6824  0.1261 -2.1127
 5386TIP3    H237718   1.730   2.105   8.205 -1.3501  1.6616  0.6802
 5387TIP3   OH237719   2.656   3.814   1.281  0.2648 -0.5382 -0.9360
 5387TIP3    H137720   2.699   3.729   1.281  1.0041 -0.1917 -2.7018
 5387TIP3    H237721   2.612   3.819   1.196 -3.0340 -0.7133  0.5908
 5388TIP3   OH237722   2.237   4.175   0.039  0.4462  0.3263  0.6304
 5388TIP3    H137723   2.162   4.127   0.074  1.1951  0.1516  2.0482
 5388TIP3    H237724   2.269   4.121  -0.033  0.3898 -0.5989  1.2836
 5389TIP3   OH237725   4.265   1.621   0.777 -0.1798 -0.2038  0.1000
 5389TIP3    H137726   4.323   1.574   0.718  0.1204 -0.3346  0.4912
 5389TIP3    H237727   4.181   1.575   0.770 -0.0885 -0.3487 -0.0632
 5390TIP3   OH237728   2.017   0.527   2.581 -0.2367 -0.3462  0.3474
 5390TIP3    H137729   1.959   0.452   2.593  1.1363 -1.6163 -0.6239
 5390TIP3    H237730   2.105   0.493   2.599  0.3868  1.1298  0.2692
 5391TIP3   OH237731   1.877   6.084   8.348 -0.2475 -0.2078 -0.2015
 5391TIP3    H137732   1.913   5.999   8.373  1.9359  1.0143  1.1936
 5391TIP3    H237733   1.811   6.102   8.415 -0.4027 -0.6125 -0.2439
 5392TIP3   OH237734   2.423   5.389   7.589  0.6125 -0.2945  0.2422
 5392TIP3    H137735   2.394   5.475   7.558  0.3260 -0.0251  1.2394
 5392TIP3    H237736   2.424   5.396   7.684  1.0607 -1.2480  0.3210
 5393TIP3   OH237737   3.741   6.162   1.354 -0.0031  0.3956  0.7793
 5393TIP3    H137738   3.682   6.135   1.425 -0.0210 -0.8071  0.3335
 5393TIP3    H237739   3.805   6.219   1.396 -1.6086  1.9578  1.2385
 5394TIP3   OH237740   2.373   6.117   1.451  0.4571 -0.2518 -0.0380
 5394TIP3    H137741   2.391   6.053   1.519 -1.3990  1.8763  2.7003
 5394TIP3    H237742   2.456   6.164   1.440  0.5659 -0.0242  1.5176
 5395TIP3   OH237743   1.499   2.720   8.285  0.0620 -0.3848  1.0812
 5395TIP3    H137744   1.509   2.719   8.190  1.3043 -1.7736  1.1815
 5395TIP3    H237745   1.545   2.799   8.313  2.0459 -1.3491  0.6978
 5396TIP3   OH237746   0.940   1.784   7.538 -0.1319 -0.3134 -0.7093
 5396TIP3    H137747   0.919   1.692   7.552 -1.2348  0.0139 -0.1101
 5396TIP3    H237748   0.896   1.831   7.609  1.8162  0.5400  0.0161
 5397TIP3   OH237749   4.097   6.481   8.634  0.2750 -0.3994  0.4601
 5397TIP3    H137750   4.086   6.515   8.722  0.0300 -1.0704  0.6944
 5397TIP3    H237751   4.028   6.414   8.625  0.5055 -0.5658 -0.1185
 5398TIP3   OH237752   1.594   0.496   8.613  0.2954  0.2365  0.3964
 5398TIP3    H137753   1.549   0.489   8.529  0.1629  2.9626  0.1436
 5398TIP3    H237754   1.526   0.528   8.673  0.6344 -0.7347  1.3121
 5399TIP3   OH237755   3.660   3.338   7.129  0.7185  0.4407  0.2063
 5399TIP3    H137756   3.633   3.396   7.058  0.9895  0.8710  0.4515
 5399TIP3    H237757   3.696   3.261   7.085 -0.3575  0.1057 -0.1258
 5400TIP3   OH237758   4.082   3.169   6.559  0.4257 -0.3400  0.1045
 5400TIP3    H137759   4.081   3.260   6.531 -2.1999 -1.1791 -3.1218
 5400TIP3    H237760   4.166   3.135   6.530 -0.3271  0.0627 -2.8416
 5401TIP3   OH237761   0.309   5.379   8.554  0.4488  0.0332  0.3858
 5401TIP3    H137762   0.239   5.371   8.489  0.4292 -1.4275  0.5553
 5401TIP3    H237763   0.344   5.290   8.562  0.1299  0.0664  2.7024
 5402TIP3   OH237764   0.033   0.880   0.493 -0.0869 -0.2971 -0.2571
 5402TIP3    H137765   0.057   0.906   0.404 -2.7884 -1.6725 -1.5275
 5402TIP3    H237766   0.106   0.827   0.524  1.5594  1.4332 -1.0298
 5403TIP3   OH237767   3.382   2.687   8.419 -1.1774  0.8890 -0.4216
 5403TIP3    H137768   3.411   2.744   8.491 -1.0172 -0.9890  1.0971
 5403TIP3    H237769   3.458   2.683   8.360 -0.4185  0.6272  0.5315
 5404TIP3   OH237770   0.603   1.117   1.455  0.2754  0.0773  0.8841
 5404TIP3    H137771   0.673   1.146   1.514  2.7934 -0.7421 -1.4855
 5404TIP3    H237772   0.619   1.165   1.374  0.4947 -2.9091 -0.9778
 5405TIP3   OH237773   2.489   5.987   7.515 -0.5147  0.1906 -0.2235
 5405TIP3    H137774   2.446   6.013   7.434 -2.0707 -0.2320  0.4382
 5405TIP3    H237775   2.419   5.985   7.581  0.0960 -2.4887  0.4815
 5406TIP3   OH237776   4.090   0.247   0.871  0.1297 -0.9621 -0.3278
 5406TIP3    H137777   4.053   0.231   0.958  0.5791 -3.8897 -0.5893
 5406TIP3    H237778   4.132   0.333   0.879 -2.7538  0.4623  1.2760
 5407TIP3   OH237779   1.086   5.337   1.994 -0.1578 -0.9372  0.3349
 5407TIP3    H137780   1.037   5.414   1.963  0.9377 -0.7538 -1.0555
 5407TIP3    H237781   1.172   5.372   2.019  0.2526 -1.6621 -0.0294
 5408TIP3   OH237782   5.671   6.579   7.096 -0.9669  0.3584  0.6622
 5408TIP3    H137783   5.686   6.602   7.005 -0.0199 -1.7557  0.2151
 5408TIP3    H237784   5.643   6.660   7.138 -0.3700  1.6118 -1.2646
 5409TIP3   OH237785   5.308   4.176   0.573 -0.5343  0.0938  0.3429
 5409TIP3    H137786   5.275   4.099   0.526 -0.4263  0.2364  0.0292
 5409TIP3    H237787   5.328   4.143   0.661  0.5467 -0.4920 -0.1000
 5410TIP3   OH237788   3.151   1.802   7.916 -0.4234 -0.4782 -0.5691
 5410TIP3    H137789   3.191   1.723   7.881 -1.7266 -1.7289  0.6283
 5410TIP3    H237790   3.058   1.792   7.897 -0.5474  1.1207 -0.9874
 5411TIP3   OH237791   2.126   1.004   1.372  0.4009  0.0789 -0.0184
 5411TIP3    H137792   2.036   1.035   1.384  0.0069 -1.4792  1.4897
 5411TIP3    H237793   2.123   0.954   1.290  0.2338  1.0577 -0.6364
 5412TIP3   OH237794   5.639   1.728   1.697  0.2039  0.0841 -0.9170
 5412TIP3    H137795   5.629   1.646   1.746  1.8295 -0.1777 -0.9716
 5412TIP3    H237796   5.551   1.765   1.695 -0.0923 -0.3331  1.4142
 5413TIP3   OH237797   5.507   4.693   8.660  0.0923  0.1586 -0.1200
 5413TIP3    H137798   5.544   4.702   8.748  0.0139  0.3599 -0.1060
 5413TIP3    H237799   5.581   4.669   8.605  0.0929 -0.2238  0.0448
 5414TIP3   OH237800   3.167   1.734   2.056 -0.4930  0.2152 -0.5826
 5414TIP3    H137801   3.098   1.684   2.100 -0.4366 -1.2113 -2.0330
 5414TIP3    H237802   3.135   1.825   2.057 -2.7226 -0.4788 -1.7473
 5415TIP3   OH237803   2.307   5.472   2.048  0.1557  0.1845  0.0994
 5415TIP3    H137804   2.359   5.394   2.027  0.5310 -0.0233  1.7336
 5415TIP3    H237805   2.350   5.511   2.123 -2.3819 -0.3590  1.9836
 5416TIP3   OH237806   3.162   2.067   8.021  0.0406  0.0945  0.2417
 5416TIP3    H137807   3.148   1.988   7.968 -1.9475 -0.6974  1.8187
 5416TIP3    H237808   3.255   2.064   8.043  0.5674 -0.4287 -1.7522
 5417TIP3   OH237809   2.155   6.276   0.460  0.4702  0.0550  0.3760
 5417TIP3    H137810   2.144   6.182   0.453  1.6269 -0.0388 -0.6441
 5417TIP3    H237811   2.247   6.288   0.487  0.4546  0.8854  0.1092
 5418TIP3   OH237812   6.286   4.539   8.379 -0.0506  1.6786  0.7935
 5418TIP3    H137813   6.293   4.447   8.352  0.7133  1.3709  1.9522
 5418TIP3    H237814   6.223   4.539   8.451  0.0332  2.0351  0.8707
 5419TIP3   OH237815   2.698   2.383   1.154 -0.0131  0.3675  0.1722
 5419TIP3    H137816   2.660   2.356   1.237  0.2442  1.2789  0.5927
 5419TIP3    H237817   2.626   2.375   1.091 -0.4478  0.5083  0.6480
 5420TIP3   OH237818   6.531   2.018   1.170 -0.3327 -0.0487  0.4081
 5420TIP3    H137819   6.540   2.045   1.262  0.5739 -0.1527  0.3541
 5420TIP3    H237820   6.439   1.992   1.162 -0.5680  0.5098  1.1370
 5421TIP3   OH237821   1.173   5.233   7.606 -0.5406  1.0172 -0.1316
 5421TIP3    H137822   1.199   5.216   7.697 -0.5948  1.4757 -0.0302
 5421TIP3    H237823   1.082   5.262   7.612 -0.8833  0.0605 -0.4277
 5422TIP3   OH237824   3.835   5.343   0.205 -0.0150  0.2298  0.2615
 5422TIP3    H137825   3.852   5.414   0.142  2.4732 -1.5455 -1.2321
 5422TIP3    H237826   3.750   5.307   0.178 -0.9222  2.0530  0.5324
 5423TIP3   OH237827   6.011   3.129   0.483 -0.1066  0.6281  0.4894
 5423TIP3    H137828   5.942   3.133   0.417  1.7777  1.2458 -1.5746
 5423TIP3    H237829   6.052   3.216   0.480  0.5760  0.3836  1.8951
 5424TIP3   OH237830   2.880   3.483   8.763 -0.4946  0.1079 -0.2560
 5424TIP3    H137831   2.898   3.556   8.822  0.4186 -0.7844  0.6247
 5424TIP3    H237832   2.804   3.511   8.712 -0.5461  1.4058  0.4850
 5425TIP3   OH237833   0.204   1.678   0.221 -0.0943  0.3091  0.3665
 5425TIP3    H137834   0.295   1.697   0.245  0.3791 -1.0120 -0.3285
 5425TIP3    H237835   0.180   1.749   0.162  1.0483 -0.2062 -0.7663
 5426TIP3   OH237836   5.968   1.579   2.380 -0.1511  0.0776  0.1861
 5426TIP3    H137837   5.981   1.575   2.475 -0.7049  1.3019  0.3332
 5426TIP3    H237838   6.022   1.507   2.346  0.3422 -0.1581  1.3905
 5427TIP3   OH237839   6.741   2.509   1.342  0.0731 -0.0808 -0.2685
 5427TIP3    H137840   6.780   2.588   1.304 -1.9380  0.6583 -0.9064
 5427TIP3    H237841   6.731   2.529   1.434  0.2995  0.0790 -0.2767
 5428TIP3   OH237842   6.438   6.368   7.709  0.2589 -0.2845  0.1405
 5428TIP3    H137843   6.514   6.324   7.670 -0.2441 -0.6720 -0.4218
 5428TIP3    H237844   6.394   6.300   7.760 -0.6467 -0.5129 -0.9115
 5429TIP3   OH237845   4.388   4.367   7.978  0.0358 -0.0005  0.3497
 5429TIP3    H137846   4.380   4.370   8.073 -0.8715  0.0750  0.2840
 5429TIP3    H237847   4.333   4.294   7.952 -0.3363  0.4525 -0.1678
 5430TIP3   OH237848   0.803   1.139   7.461  0.2973  0.3562 -0.4925
 5430TIP3    H137849   0.789   1.213   7.520 -0.7920  0.1870 -0.5280
 5430TIP3    H237850   0.840   1.070   7.517  1.1512  0.8554 -0.4255
 5431TIP3   OH237851   0.725   3.298   0.264  0.5877  0.2393 -0.1378
 5431TIP3    H137852   0.680   3.344   0.194  1.4567 -1.7638 -2.1321
 5431TIP3    H237853   0.814   3.333   0.263  0.3837  0.8136  0.5922
 5432TIP3   OH237854   1.025   2.394   0.806 -0.0324  0.4459  0.2862
 5432TIP3    H137855   1.086   2.409   0.879  0.6628  1.2988 -0.4357
 5432TIP3    H237856   1.021   2.299   0.797  0.9220  0.3609  0.5911
 5433TIP3   OH237857   4.317   1.607   7.681 -0.2632 -0.0684  0.3508
 5433TIP3    H137858   4.382   1.589   7.749  1.4816  0.1268 -1.1825
 5433TIP3    H237859   4.346   1.689   7.641 -1.1791 -0.2279 -0.7017
 5434TIP3   OH237860   6.167   4.648   1.899  0.6535  0.1494 -0.4542
 5434TIP3    H137861   6.133   4.738   1.903  0.0475 -0.0365 -1.2754
 5434TIP3    H237862   6.101   4.596   1.946 -0.4947 -0.2805 -2.4282
 5435TIP3   OH237863   4.864   1.298   8.288 -0.5441  0.5133  0.0164
 5435TIP3    H137864   4.840   1.336   8.373  2.3905  1.1085  0.6996
 5435TIP3    H237865   4.873   1.373   8.230 -2.0569  0.1415 -0.7545
 5436TIP3   OH237866   4.009   2.598   0.723 -0.0687 -0.0422 -0.1685
 5436TIP3    H137867   4.040   2.508   0.729  1.5096  0.4883  0.0689
 5436TIP3    H237868   4.034   2.637   0.807  0.4513  0.9751 -0.7872
 5437TIP3   OH237869   3.079   3.064   7.791 -0.3967  0.0903  0.3460
 5437TIP3    H137870   3.106   3.145   7.834  1.4670 -1.6119  2.6734
 5437TIP3    H237871   2.988   3.052   7.819  0.1015  0.1449  2.1448
 5438TIP3   OH237872   5.553   5.978   0.215 -0.0877 -0.1027  0.2841
 5438TIP3    H137873   5.473   5.951   0.170 -0.4073 -0.4670  1.0418
 5438TIP3    H237874   5.531   6.063   0.253  0.8844  1.2439 -2.0158
 5439TIP3   OH237875   5.867   1.604   8.817 -0.2327  0.2082  0.1639
 5439TIP3    H137876   5.836   1.520   8.851  0.5630 -0.5867 -0.9819
 5439TIP3    H237877   5.949   1.583   8.772 -0.5436  1.4070 -1.0494
 5440TIP3   OH237878   0.280   3.434   6.504  0.2673  0.1067 -0.0939
 5440TIP3    H137879   0.251   3.517   6.541 -1.5764 -0.2331 -0.6308
 5440TIP3    H237880   0.268   3.445   6.409 -0.4481 -0.8908 -0.1448
 5441TIP3   OH237881   6.563   3.424   1.862  0.2552  0.0676  0.8088
 5441TIP3    H137882   6.527   3.376   1.787  2.2021  2.7200 -2.0853
 5441TIP3    H237883   6.506   3.500   1.871  0.8903  0.5125  1.0818
 5442TIP3   OH237884   3.854   4.276   7.706  0.7782 -0.6784 -0.2472
 5442TIP3    H137885   3.767   4.246   7.729  1.0563  0.3660  2.4952
 5442TIP3    H237886   3.912   4.203   7.728  0.7380 -0.9542 -1.0105
 5443TIP3   OH237887   5.341   3.748   0.307 -0.0912  0.5819  0.1002
 5443TIP3    H137888   5.270   3.687   0.287  0.7325 -0.3690 -0.0266
 5443TIP3    H237889   5.364   3.730   0.398  0.8089 -0.0154 -0.2280
 5444TIP3   OH237890   4.760   6.573   0.065 -0.1597 -0.0479 -0.4084
 5444TIP3    H137891   4.726   6.484   0.068 -0.0997 -0.1496 -1.8691
 5444TIP3    H237892   4.768   6.599   0.156 -2.8910 -0.5016  0.0451
 5445TIP3   OH237893   6.056   1.717   7.116 -0.1764 -0.3635  0.2343
 5445TIP3    H137894   6.148   1.696   7.130 -0.1582 -1.6486 -1.4300
 5445TIP3    H237895   6.030   1.768   7.193  1.5910 -1.0106  1.3093
 5446TIP3   OH237896   0.275   3.110   0.825  0.3698 -0.2250 -0.9108
 5446TIP3    H137897   0.367   3.085   0.833 -0.1870 -2.4051 -0.7318
 5446TIP3    H237898   0.273   3.170   0.751  1.8439 -0.7355 -1.3936
 5447TIP3   OH237899   5.403   5.553   1.731  0.3957 -0.5770  0.4580
 5447TIP3    H137900   5.399   5.643   1.699  0.6656 -1.7027 -3.1157
 5447TIP3    H237901   5.472   5.555   1.798 -0.7160  2.1176  1.6880
 5448TIP3   OH237902   3.588   2.315   1.035 -0.4360 -0.6781 -0.0228
 5448TIP3    H137903   3.632   2.231   1.026  0.4617 -0.0584 -1.8386
 5448TIP3    H237904   3.658   2.380   1.031 -1.0545  0.1835  1.8835
 5449TIP3   OH237905   5.418   3.133   0.028  0.2526 -0.6739 -0.5000
 5449TIP3    H137906   5.446   3.161  -0.059  3.3760  0.6505  0.7558
 5449TIP3    H237907   5.463   3.193   0.088 -0.9528 -2.1524  2.0742
 5450TIP3   OH237908   5.576   5.804   8.833 -0.1038  0.3059  0.4720
 5450TIP3    H137909   5.608   5.721   8.797 -0.0682  1.1066 -1.4502
 5450TIP3    H237910   5.648   5.836   8.886  0.7809  0.1998 -0.6354
 5451TIP3   OH237911   6.132   1.586   0.227 -0.1156 -0.2245  0.0181
 5451TIP3    H137912   6.071   1.657   0.205  1.3394  1.1374  0.2097
 5451TIP3    H237913   6.157   1.603   0.317  0.9523 -0.4356 -0.2251
 5452TIP3   OH237914   2.126   6.109   0.015 -0.2009 -0.2460 -0.3836
 5452TIP3    H137915   2.106   6.021   0.047  2.0385 -0.5211  0.4755
 5452TIP3    H237916   2.220   6.107  -0.002  0.0111  2.1374  0.1762
 5453TIP3   OH237917   0.412   1.434   2.140 -0.1540 -0.2266  0.2408
 5453TIP3    H137918   0.382   1.351   2.103  0.1002 -0.8080  1.3035
 5453TIP3    H237919   0.498   1.414   2.177  0.6877  0.9304 -0.9663
 5454TIP3   OH237920   4.607   2.908   7.942  0.1653  0.4404  0.1385
 5454TIP3    H137921   4.619   2.814   7.934  1.0118  0.5032  0.4981
 5454TIP3    H237922   4.552   2.932   7.867 -0.5613 -0.4131  0.3790
 5455TIP3   OH237923   0.604   6.793   1.502  0.4290  0.0127 -0.3888
 5455TIP3    H137924   0.671   6.735   1.465  1.3314  1.0815 -0.4727
 5455TIP3    H237925   0.651   6.846   1.565 -0.6340 -0.1550  0.5738
 5456TIP3   OH237926   5.207   1.988   8.165  0.6139  0.2546  0.0277
 5456TIP3    H137927   5.211   2.081   8.183 -0.2477  0.3225 -0.0931
 5456TIP3    H237928   5.120   1.961   8.195  0.0629 -0.1026 -1.7342
 5457TIP3   OH237929   5.319   0.946   0.264 -0.3082 -0.0506 -0.0083
 5457TIP3    H137930   5.409   0.913   0.262  0.9037  2.9177  0.1250
 5457TIP3    H237931   5.265   0.868   0.267  2.3031 -1.9745  1.4783
 5458TIP3   OH237932   4.239   3.032   1.105 -0.2967 -0.4184 -0.2183
 5458TIP3    H137933   4.268   3.033   1.014  0.5140  0.8952  0.0303
 5458TIP3    H237934   4.219   3.123   1.126  1.0728 -0.4349  1.3753
 5459TIP3   OH237935   2.333   5.568   8.486  0.4671  0.3387 -0.2230
 5459TIP3    H137936   2.283   5.541   8.563  0.3631 -1.1504 -0.7763
 5459TIP3    H237937   2.276   5.545   8.412  0.5698  1.7250 -0.7628
 5460TIP3   OH237938   2.496   1.657   1.265 -0.9263  0.6602  0.1345
 5460TIP3    H137939   2.416   1.658   1.319 -1.1206 -0.4951 -0.1024
 5460TIP3    H237940   2.484   1.583   1.206  0.2140  0.6306 -0.0850
 5461TIP3   OH237941   1.641   1.886   7.128 -0.2414  0.2963 -0.3337
 5461TIP3    H137942   1.722   1.858   7.086 -0.9854 -1.0561 -0.9445
 5461TIP3    H237943   1.627   1.824   7.199 -0.8661  0.3612 -0.3921
 5462TIP3   OH237944   1.171   2.377   7.547 -0.2359  0.9250  0.2481
 5462TIP3    H137945   1.127   2.453   7.584  1.3059  1.3731  1.2417
 5462TIP3    H237946   1.173   2.312   7.618 -0.6699  0.3178 -0.2789
 5463TIP3   OH237947   3.848   1.153   8.148  0.2902  0.5513  0.1196
 5463TIP3    H137948   3.844   1.196   8.234 -0.7540  0.2918  0.2076
 5463TIP3    H237949   3.758   1.127   8.129  0.9903 -2.6110  0.5854
 5464TIP3   OH237950   2.931   4.008   7.408 -0.2696  0.4020  0.5010
 5464TIP3    H137951   2.845   4.029   7.370  0.0863 -0.0193 -0.5799
 5464TIP3    H237952   2.987   3.992   7.332  0.9422  1.3020  1.1733
 5465TIP3   OH237953   1.267   6.653   6.452  0.1746  0.2036 -0.4206
 5465TIP3    H137954   1.348   6.689   6.417 -0.4245  0.0201 -2.1125
 5465TIP3    H237955   1.198   6.702   6.406 -0.6528 -0.7571 -0.2234
 5466TIP3   OH237956   5.708   4.008   0.465 -0.1520 -0.4425 -0.2638
 5466TIP3    H137957   5.640   3.980   0.403 -1.6967 -0.1734  1.2081
 5466TIP3    H237958   5.703   4.104   0.463 -0.2427 -0.4318  0.2682
 5467TIP3   OH237959   1.239   2.318   8.021 -0.0765  0.5734  0.0848
 5467TIP3    H137960   1.197   2.252   8.076  2.2489  0.4299  1.7847
 5467TIP3    H237961   1.219   2.290   7.931 -3.9424  0.8043  0.7043
 5468TIP3   OH237962   5.412   1.393   6.280  0.3814  0.1271  0.1288
 5468TIP3    H137963   5.373   1.422   6.198  2.6345 -0.4532 -1.2469
 5468TIP3    H237964   5.356   1.321   6.309  0.2262 -0.5001 -1.6034
 5469TIP3   OH237965   3.067   5.326   2.387  0.1859 -0.3398  0.5004
 5469TIP3    H137966   3.073   5.394   2.320 -0.3763  0.0703  0.8537
 5469TIP3    H237967   3.028   5.370   2.463 -0.1774 -1.0490  0.7359
 5470TIP3   OH237968   0.248   4.199   8.088  0.1307 -0.0366  0.5997
 5470TIP3    H137969   0.305   4.166   8.158  1.2965  1.8321  0.6123
 5470TIP3    H237970   0.164   4.156   8.103  1.1520 -1.8992  1.3686
 5471TIP3   OH237971   2.310   3.521   1.163  0.7408  0.0222 -0.1916
 5471TIP3    H137972   2.280   3.547   1.250 -0.4116  2.1170 -1.1412
 5471TIP3    H237973   2.332   3.428   1.172 -0.5560 -0.1413  2.0051
 5472TIP3   OH237974   0.372   6.702   7.137 -0.5471  0.2612 -0.4598
 5472TIP3    H137975   0.362   6.791   7.104 -3.2929  0.4491  0.6298
 5472TIP3    H237976   0.441   6.710   7.203 -0.4193  1.4817 -0.7078
 5473TIP3   OH237977   0.931   1.438   8.655  0.0344 -0.2801  0.1766
 5473TIP3    H137978   0.960   1.498   8.585 -1.5985 -0.8412 -1.0673
 5473TIP3    H237979   0.854   1.482   8.692  0.1591 -0.5750  0.7868
 5474TIP3   OH237980   2.379   2.765   6.145  0.2463 -0.3948 -0.1659
 5474TIP3    H137981   2.355   2.832   6.082  2.0785 -0.3189 -0.8493
 5474TIP3    H237982   2.296   2.736   6.182 -0.6230  3.4460  1.4729
 5475TIP3   OH237983   4.993   0.694   6.461 -0.2695  0.1847  0.3588
 5475TIP3    H137984   5.054   0.628   6.430  0.4767  0.6496  0.7823
 5475TIP3    H237985   4.992   0.683   6.556 -0.0576  0.8258  0.4466
 5476TIP3   OH237986   2.130   4.938   7.775 -0.2490 -0.4328  0.0015
 5476TIP3    H137987   2.137   5.021   7.728 -0.0329  0.7433  2.0051
 5476TIP3    H237988   2.221   4.906   7.778  0.2398  0.9689  2.0702
 5477TIP3   OH237989   3.104   6.648   6.318 -0.1347  0.5013  0.7092
 5477TIP3    H137990   3.182   6.688   6.356  0.3218  0.6010 -0.2953
 5477TIP3    H237991   3.118   6.554   6.327  0.5680  0.4929 -0.3366
 5478TIP3   OH237992   3.388   1.836   8.742 -0.0697 -0.2244 -0.0176
 5478TIP3    H137993   3.462   1.848   8.682 -0.4166 -0.3792 -0.4831
 5478TIP3    H237994   3.372   1.923   8.778 -0.3031  0.0159 -0.6835
 5479TIP3   OH237995   5.459   5.567   2.185  0.3345 -0.4071  0.3698
 5479TIP3    H137996   5.474   5.656   2.217 -2.0861 -0.0537  0.7041
 5479TIP3    H237997   5.451   5.514   2.265  0.0864 -0.6248  0.2022
 5480TIP3   OH237998   5.000   4.329   6.474 -0.2190  0.3159 -0.2270
 5480TIP3    H137999   4.960   4.306   6.390  1.0331  0.1519 -0.8036
 5480TIP3    H238000   5.077   4.380   6.450  0.5671 -0.3652  0.7872
 5481TIP3   OH238001   4.849   4.441   6.705  0.3470 -0.0997 -0.3472
 5481TIP3    H138002   4.905   4.397   6.641  2.1906  2.0097 -0.3294
 5481TIP3    H238003   4.854   4.534   6.682 -0.4395  0.5292  1.7145
 5482TIP3   OH238004   4.183   4.897   7.129  0.2247 -0.1003  0.9480
 5482TIP3    H138005   4.200   4.821   7.073  1.7160  0.6738  0.3063
 5482TIP3    H238006   4.096   4.880   7.165 -0.1287 -1.3713 -0.3745
 5483TIP3   OH238007   2.122   0.372   8.364 -0.0995  0.4059 -0.6624
 5483TIP3    H138008   2.189   0.434   8.335  1.1200 -0.3514  0.4557
 5483TIP3    H238009   2.057   0.426   8.409  0.7958  0.9102  0.0374
 5484TIP3   OH238010   0.858   3.193   1.424 -0.7344  0.3528  0.5507
 5484TIP3    H138011   0.825   3.176   1.512 -0.0095  0.5137  0.8640
 5484TIP3    H238012   0.929   3.257   1.436  0.1431 -0.4731 -0.0085
 5485TIP3   OH238013   0.327   5.522   0.859 -0.4015 -0.2010 -0.4145
 5485TIP3    H138014   0.374   5.514   0.942 -0.0939 -1.6265 -0.6939
 5485TIP3    H238015   0.235   5.513   0.883 -0.4813  1.5321  0.0085
 5486TIP3   OH238016   4.378   1.168   2.125  0.0365  0.6654  0.3246
 5486TIP3    H138017   4.312   1.238   2.129  0.7048  1.3646 -0.4833
 5486TIP3    H238018   4.339   1.096   2.173 -0.8795  1.4323  0.7708
 5487TIP3   OH238019   6.442   4.427   0.566  0.3934  0.4828  0.2872
 5487TIP3    H138020   6.466   4.382   0.485  2.4520 -2.0962  2.1145
 5487TIP3    H238021   6.511   4.491   0.579 -0.4252  1.5319 -0.3832
 5488TIP3   OH238022   5.350   4.308   0.109  0.1277 -0.0414 -0.6847
 5488TIP3    H138023   5.296   4.333   0.034 -0.7340 -0.8083 -0.3444
 5488TIP3    H238024   5.422   4.258   0.070 -0.3807 -0.5407 -1.0119
 5489TIP3   OH238025   5.219   1.633   0.279  0.1151 -0.7223 -0.0939
 5489TIP3    H138026   5.142   1.685   0.303  0.1324 -0.3954 -0.7257
 5489TIP3    H238027   5.224   1.566   0.346 -0.0224 -0.0257  0.6305
 5490TIP3   OH238028   5.294   3.551   6.817  0.5144 -0.6989  0.2110
 5490TIP3    H138029   5.276   3.507   6.900  1.1402 -1.3345  0.0131
 5490TIP3    H238030   5.356   3.621   6.840  0.8583 -1.0131  0.2410
 5491TIP3   OH238031   3.098   5.382   6.160  0.1472  0.1183 -0.6866
 5491TIP3    H138032   3.050   5.316   6.209  0.5121 -0.7624 -1.4885
 5491TIP3    H238033   3.037   5.455   6.152 -1.0885 -0.9706 -1.6733
 5492TIP3   OH238034   0.677   0.344   1.087  0.0393  0.4369 -0.0217
 5492TIP3    H138035   0.700   0.425   1.043 -1.4336  0.9105  0.0282
 5492TIP3    H238036   0.587   0.357   1.116  0.8434  0.0591  2.9367
 5493TIP3   OH238037   6.202   2.872   7.861  0.0978  0.4767  0.4277
 5493TIP3    H138038   6.182   2.925   7.785  1.9999 -0.2831 -0.6911
 5493TIP3    H238039   6.131   2.890   7.923 -2.0533  0.4041 -1.8516
 5494TIP3   OH238040   3.378   4.779   6.775 -0.3913  0.3947  0.2436
 5494TIP3    H138041   3.428   4.861   6.782  0.1011  0.1487 -0.3945
 5494TIP3    H238042   3.289   4.808   6.753 -0.1038  0.7386 -0.4957
 5495TIP3   OH238043   3.276   0.955   0.033 -0.2301  0.3098 -0.4121
 5495TIP3    H138044   3.243   0.865   0.035 -0.6452  0.4473 -0.8878
 5495TIP3    H238045   3.319   0.967   0.118  0.5910 -0.6178 -0.6849
 5496TIP3   OH238046   0.397   5.506   0.586 -0.4437  0.1271 -0.2283
 5496TIP3    H138047   0.488   5.492   0.613 -0.3393  0.4005 -0.4368
 5496TIP3    H238048   0.347   5.497   0.667 -0.3581 -1.1855 -0.2963
 5497TIP3   OH238049   4.116   2.692   1.136 -0.0983  0.0250 -0.3304
 5497TIP3    H138050   4.135   2.746   1.059 -0.7505  1.6613  0.6079
 5497TIP3    H238051   4.112   2.602   1.102  1.1051  0.5241 -1.9309
 5498TIP3   OH238052   6.689   2.887   6.009 -0.1058  0.4549 -0.0436
 5498TIP3    H138053   6.694   2.803   5.963 -0.0193  1.1160 -1.2863
 5498TIP3    H238054   6.733   2.948   5.950 -1.6488  1.7046  0.0516
 5499TIP3   OH238055   4.455   0.751   8.214  0.0099 -1.0056  0.2650
 5499TIP3    H138056   4.452   0.673   8.270  2.3775 -1.6198 -0.3640
 5499TIP3    H238057   4.515   0.810   8.259  0.6770 -0.8471 -0.8284
 5500TIP3   OH238058   5.491   1.323   8.331  0.0530  0.2127  0.2435
 5500TIP3    H138059   5.428   1.361   8.391 -0.3368 -1.1751  0.7644
 5500TIP3    H238060   5.446   1.248   8.293  0.4128  0.8704 -1.5559
 5501TIP3   OH238061   4.923   6.270   1.931 -0.7044  0.0958 -0.3530
 5501TIP3    H138062   4.914   6.363   1.951 -1.4294 -0.2699  1.1452
 5501TIP3    H238063   4.962   6.268   1.843  0.2259  1.8006 -0.0150
 5502TIP3   OH238064   2.595   3.548   0.325 -0.4675  0.0498  0.2894
 5502TIP3    H138065   2.623   3.461   0.354  0.0216  0.6348  1.6696
 5502TIP3    H238066   2.558   3.589   0.404 -0.7643  1.0610 -0.3549
 5503TIP3   OH238067   6.455   1.424   8.583  0.2469  0.3569 -0.1510
 5503TIP3    H138068   6.506   1.389   8.657 -0.3538  0.4759  0.3273
 5503TIP3    H238069   6.385   1.360   8.570  0.7114  0.0147 -1.0339
 5504TIP3   OH238070   0.790   2.827   7.082  0.5596  0.2709 -0.1271
 5504TIP3    H138071   0.844   2.818   7.161  0.3710  2.5827  0.3190
 5504TIP3    H238072   0.844   2.878   7.022 -0.0633  0.2003 -0.7506
 5505TIP3   OH238073   3.797   6.340   0.371  0.3509  0.1697  0.0147
 5505TIP3    H138074   3.846   6.277   0.424 -0.6641  0.3663  1.2461
 5505TIP3    H238075   3.719   6.292   0.343 -1.2869  1.2985  2.3860
 5506TIP3   OH238076   3.856   2.726   7.004  0.1914 -0.3132  0.3061
 5506TIP3    H138077   3.931   2.674   6.977  0.4873 -0.5526  1.5266
 5506TIP3    H238078   3.801   2.733   6.925  1.9882  0.7694 -0.9118
 5507TIP3   OH238079   3.455   1.874   1.861 -0.1070  0.5238 -0.5682
 5507TIP3    H138080   3.446   1.953   1.807  1.0988  0.9313 -0.1916
 5507TIP3    H238081   3.479   1.907   1.947 -0.7424 -0.2086 -0.0986
 5508TIP3   OH238082   1.942   3.261   6.980 -0.5412  0.3966 -0.0954
 5508TIP3    H138083   1.944   3.166   6.991  1.7665  0.3853 -0.0905
 5508TIP3    H238084   1.850   3.281   6.964 -1.1521 -1.7791  0.3087
 5509TIP3   OH238085   4.687   1.380   6.857 -0.3936  0.2647  0.1158
 5509TIP3    H138086   4.671   1.467   6.820  2.0115  0.0566 -1.5985
 5509TIP3    H238087   4.632   1.321   6.805  0.5146  0.3790 -1.0045
 5510TIP3   OH238088   5.470   0.500   6.448  0.4439  0.2011  0.2428
 5510TIP3    H138089   5.386   0.473   6.486  0.3506 -0.3943 -0.3794
 5510TIP3    H238090   5.448   0.567   6.384  0.4399  0.0085  0.0430
 5511TIP3   OH238091   5.952   6.793   0.269  0.3671  0.2341  0.0325
 5511TIP3    H138092   5.885   6.821   0.206 -0.5447 -0.3735  0.6971
 5511TIP3    H238093   6.033   6.831   0.237 -0.0080 -0.3630 -1.7271
 5512TIP3   OH238094   5.749   0.021   0.715 -0.0537  0.3365 -0.3276
 5512TIP3    H138095   5.777   0.091   0.774 -1.6143  0.7162  0.0115
 5512TIP3    H238096   5.769  -0.060   0.762  0.3414  0.5905 -0.0517
 5513TIP3   OH238097   5.962   3.866   6.709  0.2295  0.8028  0.4823
 5513TIP3    H138098   5.994   3.798   6.768 -0.7023  1.2259  1.5214
 5513TIP3    H238099   5.953   3.823   6.624 -0.5053 -0.4282  1.1501
 5514TIP3   OH238100   0.346   4.015   1.759  0.4856 -0.1351  0.3670
 5514TIP3    H138101   0.275   3.954   1.780  0.5860 -1.4647 -2.6498
 5514TIP3    H238102   0.405   4.009   1.834 -0.7177 -1.9344  1.2452
 5515TIP3   OH238103   1.610   3.761   6.508 -0.0496  0.0317 -0.2764
 5515TIP3    H138104   1.679   3.763   6.441  0.1714 -1.3073 -0.1064
 5515TIP3    H238105   1.656   3.764   6.591 -0.1735 -0.9509 -0.1597
 5516TIP3   OH238106   5.567   4.696   1.431  0.3280 -0.2879 -0.1004
 5516TIP3    H138107   5.578   4.715   1.338 -0.5759 -2.6328 -0.7607
 5516TIP3    H238108   5.657   4.690   1.465  0.6610  1.3295 -0.6089
 5517TIP3   OH238109   4.894   4.714   7.205 -0.2124 -0.0131  0.2974
 5517TIP3    H138110   4.854   4.796   7.235 -1.1201 -0.5800  0.6894
 5517TIP3    H238111   4.860   4.648   7.265 -0.5262 -0.8825 -0.8040
 5518TIP3   OH238112   3.360   1.108   8.276  0.4528  0.5669  0.8640
 5518TIP3    H138113   3.309   1.141   8.349 -0.8497 -1.2515  0.8557
 5518TIP3    H238114   3.300   1.051   8.228  2.3068 -1.2016  0.4781
 5519TIP3   OH238115   4.071   6.620   0.717 -0.4401  0.3039 -0.0974
 5519TIP3    H138116   4.036   6.708   0.703  3.6090  2.3136  0.7590
 5519TIP3    H238117   4.093   6.618   0.811  1.1844 -0.8714 -0.4581
 5520TIP3   OH238118   2.191   3.568   1.440  0.1960  0.3269  0.4433
 5520TIP3    H138119   2.223   3.631   1.505  0.9116 -1.0288  1.4525
 5520TIP3    H238120   2.196   3.483   1.484 -1.1214 -0.4176 -0.7430
 5521TIP3   OH238121   1.178   2.755   8.147  0.0288 -0.2460  0.1879
 5521TIP3    H138122   1.182   2.780   8.240 -1.4651  0.6324  0.0381
 5521TIP3    H238123   1.179   2.659   8.148  0.1867 -0.2444  1.0927
 5522TIP3   OH238124   5.385   3.841   1.928 -0.0884 -0.1099 -0.4258
 5522TIP3    H138125   5.396   3.864   1.836  0.1134  1.2877 -0.0650
 5522TIP3    H238126   5.310   3.781   1.929  0.9711 -1.5116 -1.6800
 5523TIP3   OH238127   0.946   1.945   0.826 -0.0007 -0.3393 -0.0236
 5523TIP3    H138128   0.963   1.952   0.920  0.0210 -0.6222 -0.0051
 5523TIP3    H238129   1.005   2.009   0.785  0.4785 -0.6929  0.1045
 5524TIP3   OH238130   5.475   1.811   6.130  0.0852  0.7057  0.3296
 5524TIP3    H138131   5.565   1.806   6.160 -0.6164 -2.8851  2.4069
 5524TIP3    H238132   5.433   1.874   6.189  0.4273 -0.6282  2.0846
 5525TIP3   OH238133   3.560   1.225   8.757 -0.3260 -0.2632 -0.2773
 5525TIP3    H138134   3.549   1.150   8.815 -3.9833  0.7299  0.5596
 5525TIP3    H238135   3.613   1.287   8.808 -1.2893 -0.4413  0.9862
 5526TIP3   OH238136   5.186   3.339   1.942  0.4337 -0.1189  0.4875
 5526TIP3    H138137   5.278   3.313   1.946  0.3366 -0.5161  0.1349
 5526TIP3    H238138   5.138   3.264   1.977  0.2666  0.2407  1.0439
 5527TIP3   OH238139   3.897   3.881   0.198 -0.0997 -0.4995  0.3196
 5527TIP3    H138140   3.805   3.908   0.200 -0.4135 -1.3333 -0.9542
 5527TIP3    H238141   3.896   3.799   0.148  1.1543 -1.3370  1.6156
 5528TIP3   OH238142   3.359   3.450   1.780  0.0574 -0.4837 -0.7391
 5528TIP3    H138143   3.366   3.406   1.695  0.5958  0.3416 -1.1415
 5528TIP3    H238144   3.409   3.531   1.768 -0.9591  0.2590 -0.0497
 5529TIP3   OH238145   1.154   2.489   8.218 -0.0244  0.1729 -0.0989
 5529TIP3    H138146   1.076   2.433   8.223 -1.1188  1.6448 -0.0709
 5529TIP3    H238147   1.205   2.452   8.146 -0.7342 -0.8166 -0.1233
 5530TIP3   OH238148   5.432   4.877   7.722 -0.1194 -0.9146 -0.0982
 5530TIP3    H138149   5.491   4.861   7.648  0.7533 -0.1168  0.4006
 5530TIP3    H238150   5.464   4.820   7.791  1.4028  0.9343  0.8413
 5531TIP3   OH238151   3.497   4.866   7.364 -0.7832  0.0909 -0.2735
 5531TIP3    H138152   3.478   4.791   7.419 -0.8336 -0.0062 -0.4210
 5531TIP3    H238153   3.544   4.927   7.421  0.3097 -0.5543 -0.4708
 5532TIP3   OH238154   4.918   2.041   7.973 -0.3910  0.3640 -0.2506
 5532TIP3    H138155   5.000   2.081   7.945 -1.3584  0.9266 -2.5118
 5532TIP3    H238156   4.936   2.008   8.061  2.5817 -0.4835 -1.0540
 5533TIP3   OH238157   1.897   0.607   0.040 -0.3282 -0.1944  0.2376
 5533TIP3    H138158   1.953   0.663   0.095  0.6934 -0.2739 -0.6829
 5533TIP3    H238159   1.830   0.575   0.100 -0.6067  1.5389  0.9242
 5534TIP3   OH238160   4.537   0.694   7.185 -0.3381  0.4825 -0.0706
 5534TIP3    H138161   4.477   0.620   7.185  1.0253 -0.6612 -0.2272
 5534TIP3    H238162   4.577   0.693   7.272 -0.0522  0.8101 -0.1922
 5535TIP3   OH238163   2.992   1.252   8.504 -0.3505 -0.6186 -0.0428
 5535TIP3    H138164   2.977   1.184   8.439 -0.1615 -0.9487  0.2523
 5535TIP3    H238165   2.997   1.205   8.587 -0.3121 -0.2349  0.1776
 5536TIP3   OH238166   2.159   1.479   1.499 -0.2312  0.4962  0.0813
 5536TIP3    H138167   2.177   1.464   1.591  0.2304 -1.1993 -0.2425
 5536TIP3    H238168   2.198   1.564   1.480  0.4854  0.4429  1.2326
 5537TIP3   OH238169   6.140   6.251   8.033 -0.2056  0.5644  0.0589
 5537TIP3    H138170   6.046   6.239   8.021  0.0036 -1.3641  0.0825
 5537TIP3    H238171   6.163   6.194   8.106  1.0810  0.5380 -0.3340
 5538TIP3   OH238172   2.390   3.163   7.689 -0.4084 -0.0013 -0.4952
 5538TIP3    H138173   2.381   3.254   7.717 -3.1830 -0.7927  1.7089
 5538TIP3    H238174   2.340   3.157   7.608  2.0765  0.9107 -2.1999
 5539TIP3   OH238175   2.898   2.439   8.704 -0.0102 -0.6374 -0.4291
 5539TIP3    H138176   2.811   2.404   8.726 -0.6976 -0.1508 -2.2113
 5539TIP3    H238177   2.950   2.362   8.682  0.5887 -1.1066  2.2959
 5540TIP3   OH238178   3.757   1.244   0.766 -0.6347 -0.1544  0.0298
 5540TIP3    H138179   3.840   1.198   0.756 -1.4143 -1.2695 -1.9891
 5540TIP3    H238180   3.699   1.179   0.807 -0.6728  0.4349  0.9344
 5541TIP3   OH238181   1.481   6.782   0.922 -0.2974 -0.3451  0.9678
 5541TIP3    H138182   1.473   6.829   1.005  0.3628  0.6410  0.4981
 5541TIP3    H238183   1.391   6.766   0.894 -0.6509  2.4391  0.1723
 5542TIP3   OH238184   3.324   5.755   8.041  0.1214  0.0534 -0.2777
 5542TIP3    H138185   3.341   5.681   8.098  0.4139  0.8597  0.7141
 5542TIP3    H238186   3.232   5.777   8.056  0.4875  0.9771  0.7896
 5543TIP3   OH238187   1.630   1.626   0.614  0.4638  0.2845  0.5973
 5543TIP3    H138188   1.616   1.710   0.658  0.6347  0.9563 -0.5925
 5543TIP3    H238189   1.725   1.620   0.604  0.3876  0.5365 -0.3960
 5544TIP3   OH238190   2.055   0.874   8.536  0.2176  0.4315  0.0153
 5544TIP3    H138191   2.045   0.780   8.520  2.2676  0.2815 -0.7010
 5544TIP3    H238192   2.025   0.887   8.625 -0.4432 -0.8435 -0.0095
 5545TIP3   OH238193   1.938   1.441   6.278  0.4535 -0.1160  0.1217
 5545TIP3    H138194   1.982   1.461   6.361  2.4571  2.5063 -1.4205
 5545TIP3    H238195   1.990   1.372   6.239  1.3059  0.6961 -0.2171
 5546TIP3   OH238196   5.948   4.307   8.129 -0.0019  0.2081  0.0161
 5546TIP3    H138197   5.875   4.358   8.163  0.8172  0.9703  0.6612
 5546TIP3    H238198   6.019   4.370   8.116  0.2441 -0.3272 -1.5853
 5547TIP3   OH238199   2.383   0.175   7.688  0.3246 -0.1507  0.1050
 5547TIP3    H138200   2.406   0.265   7.712 -1.9876  0.4009  0.5151
 5547TIP3    H238201   2.294   0.181   7.654 -0.0216 -2.3330  0.4510
 5548TIP3   OH238202   4.314   3.008   7.995  0.1076  0.4054 -0.6936
 5548TIP3    H138203   4.362   3.072   8.048  0.9723 -0.3657 -0.5306
 5548TIP3    H238204   4.324   2.925   8.042 -0.6144  0.0482 -1.1482
 5549TIP3   OH238205   5.012   4.186   8.756 -0.2475  0.1624  0.0494
 5549TIP3    H138206   5.105   4.204   8.740 -0.4193  3.0245  1.6027
 5549TIP3    H238207   4.965   4.242   8.695 -1.0307 -1.6494 -1.0890
 5550TIP3   OH238208   1.776   3.677   0.842 -0.1147 -0.3096  0.5979
 5550TIP3    H138209   1.683   3.658   0.837  0.1284 -1.3465 -0.6677
 5550TIP3    H238210   1.788   3.757   0.791  0.2388 -2.6942 -3.5607
 5551TIP3   OH238211   4.448   0.318   1.624  0.1276 -0.1490  0.0982
 5551TIP3    H138212   4.400   0.239   1.651  2.3521 -0.9231  2.1491
 5551TIP3    H238213   4.443   0.376   1.700  1.5092  0.1997 -0.0623
 5552TIP3   OH238214   1.037   4.281   1.178 -0.4189 -0.2421 -0.1628
 5552TIP3    H138215   1.004   4.241   1.258  1.5932 -1.1350  0.2919
 5552TIP3    H238216   1.073   4.365   1.206  2.5448 -1.5751  0.4784
 5553TIP3   OH238217   3.118   3.518   0.301 -0.2829  0.8635  0.5706
 5553TIP3    H138218   3.211   3.541   0.311 -0.0870  0.3827 -0.0465
 5553TIP3    H238219   3.073   3.602   0.294  0.1153  1.0990  0.8147
 5554TIP3   OH238220   4.825   3.154   8.259  0.2078 -0.3470 -0.4989
 5554TIP3    H138221   4.848   3.244   8.235  0.2983  0.0624  1.0588
 5554TIP3    H238222   4.910   3.112   8.273  0.1320 -0.2508  0.2575
 5555TIP3   OH238223   2.476   0.919   7.158 -0.2279 -0.1200 -0.2719
 5555TIP3    H138224   2.388   0.955   7.167 -0.8037 -1.2633 -1.0133
 5555TIP3    H238225   2.477   0.882   7.069  0.8540 -0.4954 -0.1103
 5556TIP3   OH238226   5.633   2.812   8.601 -0.0032 -0.0096 -0.2323
 5556TIP3    H138227   5.607   2.894   8.642  0.1729  0.2963 -0.7332
 5556TIP3    H238228   5.666   2.837   8.515  2.0117 -0.3507  0.3725
 5557TIP3   OH238229   3.675   4.715   8.524 -0.6134  0.3157  0.0656
 5557TIP3    H138230   3.651   4.671   8.605 -0.9310  1.9097  0.8803
 5557TIP3    H238231   3.631   4.800   8.529  2.1908  1.9223 -0.0485
 5558TIP3   OH238232   5.592   5.191   0.926 -0.8038  0.6696  0.3333
 5558TIP3    H138233   5.562   5.121   0.867 -0.0694 -0.1430  0.9043
 5558TIP3    H238234   5.686   5.178   0.932 -0.9598  0.2454  2.3156
 5559TIP3   OH238235   0.075   3.984   0.826  0.2574  0.1501 -0.2169
 5559TIP3    H138236   0.140   4.053   0.840 -0.4015  1.2927 -2.2632
 5559TIP3    H238237   0.075   3.970   0.731 -2.2479 -0.0047 -0.2717
 5560TIP3   OH238238   4.052   2.269   0.218 -0.5238 -0.1613  0.4369
 5560TIP3    H138239   4.104   2.302   0.291 -0.3987  1.9250 -0.5371
 5560TIP3    H238240   3.970   2.317   0.224  0.1017  1.2920 -1.7101
 5561TIP3   OH238241   3.174   5.359   0.496 -0.2017 -0.0611 -0.3174
 5561TIP3    H138242   3.154   5.387   0.406  0.6638  0.0628 -0.4868
 5561TIP3    H238243   3.217   5.436   0.535  0.7769 -0.6083 -0.2843
 5562TIP3   OH238244   5.528   1.884   0.830  0.3843 -0.1282  0.0996
 5562TIP3    H138245   5.575   1.963   0.804  0.7033 -0.0852  0.7926
 5562TIP3    H238246   5.560   1.865   0.918 -1.5540  0.4107  0.9666
 5563TIP3   OH238247   1.511   5.738   1.593 -0.0693  0.5052  0.0442
 5563TIP3    H138248   1.475   5.743   1.682 -0.1422 -0.6275  0.0926
 5563TIP3    H238249   1.486   5.651   1.562  2.2816 -0.1796 -0.0798
 5564TIP3   OH238250   3.193   4.986   0.646 -0.4994  0.7423 -0.2110
 5564TIP3    H138251   3.106   4.987   0.687 -0.7375 -0.7312 -0.6125
 5564TIP3    H238252   3.187   4.917   0.580  1.7312 -1.3458  1.5554
 5565TIP3   OH238253   0.887   5.217   1.299  0.6018  0.6621 -0.0799
 5565TIP3    H138254   0.813   5.233   1.358  1.1251  1.0192  0.4942
 5565TIP3    H238255   0.882   5.124   1.279  1.1153  0.2597  1.5168
 5566TIP3   OH238256   2.491   3.216   8.785  0.3247 -0.3200 -0.5320
 5566TIP3    H138257   2.559   3.159   8.749  0.3139  0.5904 -2.0475
 5566TIP3    H238258   2.483   3.287   8.722 -2.5173 -0.7218 -0.7510
 5567TIP3   OH238259   3.180   2.264   1.496 -0.1785  0.8537 -0.1413
 5567TIP3    H138260   3.207   2.356   1.496  0.5690  0.6849  1.8156
 5567TIP3    H238261   3.117   2.257   1.567  1.8789 -0.6522  1.6528
 5568TIP3   OH238262   1.410   5.983   0.515 -0.0865  0.0025 -0.5079
 5568TIP3    H138263   1.415   5.995   0.420 -0.0826 -0.9271 -0.6268
 5568TIP3    H238264   1.316   5.982   0.534 -0.0905  1.2789 -0.3456
 5569TIP3   OH238265   2.541   1.673   8.249 -0.0361  0.5849  0.0939
 5569TIP3    H138266   2.471   1.612   8.270  1.1249 -0.7412  0.2629
 5569TIP3    H238267   2.515   1.755   8.292 -0.9526 -0.1866  1.0531
 5570TIP3   OH238268   0.346   2.165   8.212  0.3208 -0.3952  0.6135
 5570TIP3    H138269   0.288   2.125   8.277 -1.2592 -0.9161 -1.0172
 5570TIP3    H238270   0.300   2.244   8.185  0.4318 -0.7176 -0.5824
 5571TIP3   OH238271   1.037   3.572   1.229 -0.3910 -0.7561 -0.1066
 5571TIP3    H138272   0.949   3.595   1.259 -0.4088 -1.4526  0.3984
 5571TIP3    H238273   1.022   3.517   1.152 -0.4208 -1.5771  0.4817
 5572TIP3   OH238274   4.199   2.053   8.193  0.6850 -0.3964 -0.1897
 5572TIP3    H138275   4.148   2.134   8.187  1.3897  0.0880  0.2251
 5572TIP3    H238276   4.133   1.984   8.204 -0.3275 -0.4887 -4.7510
 5573TIP3   OH238277   4.682   0.938   0.636  0.0916 -0.0234 -0.5275
 5573TIP3    H138278   4.721   0.864   0.681 -0.4427  0.4684  0.7862
 5573TIP3    H238279   4.708   0.927   0.544  0.0076 -1.8229 -0.3642
 5574TIP3   OH238280   4.775   4.465   8.822  0.0141 -0.0517  0.1081
 5574TIP3    H138281   4.802   4.425   8.904  0.2817  0.7680  0.4326
 5574TIP3    H238282   4.801   4.402   8.755 -0.7942 -1.0110  0.6877
 5575TIP3   OH238283   0.977   0.496   7.210 -0.4865  0.3460 -0.1677
 5575TIP3    H138284   1.045   0.544   7.257  0.5502  0.4258 -1.6983
 5575TIP3    H238285   0.920   0.564   7.174 -0.6462  0.3185  0.0287
 5576TIP3   OH238286   0.020   2.517   0.374  0.2506  0.2023  0.0957
 5576TIP3    H138287   0.007   2.464   0.453  2.6973 -0.5303  0.1008
 5576TIP3    H238288   0.040   2.452   0.306  0.0190  0.9515 -0.7002
 5577TIP3   OH238289   4.129   5.183   0.124 -0.4844  0.2810  0.9469
 5577TIP3    H138290   4.065   5.217   0.187 -1.9001 -1.7168  0.7067
 5577TIP3    H238291   4.083   5.186   0.040 -0.9858 -2.6586  1.0004
 5578TIP3   OH238292   3.541   1.266   1.109  0.5861  0.0536  0.3310
 5578TIP3    H138293   3.525   1.222   1.192 -1.0741 -0.3757 -0.1832
 5578TIP3    H238294   3.544   1.195   1.045 -0.7688  0.5552 -0.3198
 5579TIP3   OH238295   3.025   1.261   8.011 -0.2341 -0.1316 -0.0671
 5579TIP3    H138296   3.023   1.355   7.991  2.3487 -0.1115 -0.4575
 5579TIP3    H238297   3.074   1.222   7.939  2.1173 -1.2238  1.9983
 5580TIP3   OH238298   1.012   4.604   1.967  0.4805  0.3401  0.0259
 5580TIP3    H138299   1.096   4.640   1.938  1.2977  0.3513  2.2209
 5580TIP3    H238300   1.028   4.510   1.973 -0.2817  0.0968 -1.3598
 5581TIP3   OH238301   2.695   5.915   7.064 -0.3505 -0.0348 -1.0382
 5581TIP3    H138302   2.783   5.904   7.029  0.6601  0.1598  1.2607
 5581TIP3    H238303   2.672   5.828   7.098  0.3424  0.6351  1.2750
 5582TIP3   OH238304   5.993   0.855   7.440 -0.3532  0.4971  0.6987
 5582TIP3    H138305   6.036   0.841   7.525  1.4736 -0.0346 -0.2603
 5582TIP3    H238306   6.003   0.949   7.424 -0.3240  0.5252  0.8752
 5583TIP3   OH238307   0.839   0.908   1.165 -0.3431  0.1910  0.0406
 5583TIP3    H138308   0.854   1.001   1.186  1.9418 -0.1760  0.3156
 5583TIP3    H238309   0.859   0.901   1.072  0.1204 -0.1203  0.1588
 5584TIP3   OH238310   4.859   6.306   8.434 -0.0928  0.3431 -1.0441
 5584TIP3    H138311   4.903   6.349   8.361  0.0827  0.6971 -0.7342
 5584TIP3    H238312   4.852   6.214   8.408 -1.1307  0.6795 -2.0375
 5585TIP3   OH238313   1.251   0.438   0.758  0.3881 -0.1326 -0.3266
 5585TIP3    H138314   1.338   0.427   0.796  0.1016 -0.3899  0.2605
 5585TIP3    H238315   1.243   0.366   0.695  0.6302 -0.0549 -0.4494
 5586TIP3   OH238316   3.128   5.507   0.872  0.1736  0.3191  0.0912
 5586TIP3    H138317   3.178   5.588   0.885 -0.1958  0.3037  2.0474
 5586TIP3    H238318   3.040   5.537   0.849 -0.3045  0.5795  2.0732
 5587TIP3   OH238319   6.146   0.249   8.518  0.6307  0.2830 -0.0496
 5587TIP3    H138320   6.237   0.262   8.545  0.6076  0.8721 -0.2390
 5587TIP3    H238321   6.152   0.208   8.432  0.7061 -1.4478  0.7335
 5588TIP3   OH238322   5.076   0.606   6.120 -0.6200  0.0003  0.4533
 5588TIP3    H138323   5.043   0.523   6.155  0.5585  0.5034  2.9935
 5588TIP3    H238324   5.169   0.590   6.103 -0.6625  0.4647 -0.2714
 5589TIP3   OH238325   3.006   3.172   8.614 -0.0487 -0.4830  0.0996
 5589TIP3    H138326   3.062   3.248   8.630 -2.4839  1.1684  1.5575
 5589TIP3    H238327   2.983   3.140   8.701 -4.7023  1.7254  0.0234
 5590TIP3   OH238328   3.381   0.400   8.441  0.1877  0.5499  0.2119
 5590TIP3    H138329   3.331   0.453   8.379  0.8174 -0.0922 -0.8814
 5590TIP3    H238330   3.368   0.310   8.411  2.6608  0.4109 -0.6679
 5591TIP3   OH238331   4.231   0.979   8.177 -0.1166  0.1175  0.1579
 5591TIP3    H138332   4.243   1.000   8.270  0.4040  0.0745  0.1048
 5591TIP3    H238333   4.286   0.902   8.163  1.1980  1.1540 -0.5867
 5592TIP3   OH238334   2.503   2.597   7.931 -0.1707 -0.3591  0.2565
 5592TIP3    H138335   2.437   2.665   7.921  0.6186  0.3299 -0.5268
 5592TIP3    H238336   2.573   2.624   7.870  0.9108 -0.9413  1.2180
 5593TIP3   OH238337   5.699   4.588   6.585  0.2552 -0.0170  0.3491
 5593TIP3    H138338   5.633   4.525   6.614 -1.6875  1.0337 -1.5641
 5593TIP3    H238339   5.686   4.665   6.641 -1.1764  0.7267 -0.9511
 5594TIP3   OH238340   3.776   5.889   2.065 -0.2454 -0.3984  0.5484
 5594TIP3    H138341   3.800   5.809   2.020 -0.0323  0.1816 -0.3817
 5594TIP3    H238342   3.859   5.935   2.080 -0.4970  0.3645 -0.3059
 5595TIP3   OH238343   2.393   6.407   6.810  0.4899  0.1640  0.0768
 5595TIP3    H138344   2.371   6.483   6.864  0.7055 -0.9776  1.8641
 5595TIP3    H238345   2.425   6.341   6.873  1.6563 -0.9168 -1.5528
 5596TIP3   OH238346   6.070   3.306   1.215  0.0726  0.3444 -0.3601
 5596TIP3    H138347   6.097   3.392   1.248 -0.5227  0.2537  0.4008
 5596TIP3    H238348   6.037   3.260   1.293  2.2406 -1.3424 -0.3378
 5597TIP3   OH238349   3.978   4.750   0.487 -0.0965 -0.1007 -0.0624
 5597TIP3    H138350   3.905   4.783   0.434  1.1495  0.1813 -1.6709
 5597TIP3    H238351   3.988   4.815   0.556  0.0675  1.0824 -1.1581
 5598TIP3   OH238352   5.030   0.634   8.037 -0.4538 -0.3431 -0.3114
 5598TIP3    H138353   5.009   0.656   8.127  0.9304 -2.8628  0.7229
 5598TIP3    H238354   5.102   0.570   8.043  0.3229  0.0789 -3.2268
 5599TIP3   OH238355   4.985   5.379   8.554 -0.5893  0.2000 -0.2918
 5599TIP3    H138356   5.024   5.466   8.563 -0.7633  0.6280 -2.9128
 5599TIP3    H238357   4.908   5.393   8.499 -1.9912 -1.3010  1.1868
 5600TIP3   OH238358   0.174   4.807   7.754 -0.5505 -0.1309 -0.2397
 5600TIP3    H138359   0.145   4.762   7.833 -1.1434 -1.3187 -1.0990
 5600TIP3    H238360   0.270   4.806   7.759 -0.5966  0.5846  0.8740
 5601TIP3   OH238361   6.393   0.131   2.381  0.3232 -0.2631 -0.3130
 5601TIP3    H138362   6.315   0.121   2.436  0.3439 -0.6692 -0.3592
 5601TIP3    H238363   6.423   0.221   2.398  0.1938 -0.3084  0.1581
 5602TIP3   OH238364   4.084   2.567   6.991 -0.1347  0.2266  0.3284
 5602TIP3    H138365   4.055   2.503   7.056  1.2991 -0.5778  0.2079
 5602TIP3    H238366   4.158   2.525   6.947  0.3626  1.6748 -0.2631
 5603TIP3   OH238367   3.119   3.509   8.274 -0.4661 -0.5216  0.1989
 5603TIP3    H138368   3.071   3.591   8.275  0.4906  0.0591 -0.0135
 5603TIP3    H238369   3.086   3.460   8.349 -0.5714  0.3340  0.7132
 5604TIP3   OH238370   6.607   2.484   5.902  0.2447  0.3143 -0.2670
 5604TIP3    H138371   6.619   2.513   5.992  1.3552  0.1889 -0.3680
 5604TIP3    H238372   6.686   2.513   5.856 -1.1538  2.1358 -1.6692
 5605TIP3   OH238373   3.500   4.574   2.190 -0.2662  0.4206 -0.3335
 5605TIP3    H138374   3.595   4.576   2.178  0.0424 -0.8644  1.3543
 5605TIP3    H238375   3.466   4.538   2.108  0.8914 -0.7527 -0.3355
 5606TIP3   OH238376   0.224   1.158   1.755  0.5015  0.5508  0.4597
 5606TIP3    H138377   0.215   1.088   1.690 -0.8943  0.9631  0.1792
 5606TIP3    H238378   0.195   1.119   1.837  1.1357  0.3784  0.6072
 5607TIP3   OH238379   1.541   1.009   7.097  0.3298 -0.4122 -0.6703
 5607TIP3    H138380   1.493   0.936   7.137  1.3279 -0.7871 -0.1308
 5607TIP3    H238381   1.633   0.989   7.113  0.6690  0.3669 -1.5759
 5608TIP3   OH238382   5.392   1.576   7.400  0.1680  0.0455  0.3204
 5608TIP3    H138383   5.388   1.655   7.346 -0.3345 -1.2114 -1.5629
 5608TIP3    H238384   5.322   1.520   7.366  0.5408 -1.2320  1.5896
 5609TIP3   OH238385   1.301   6.321   1.882  0.2560  0.7173  0.2285
 5609TIP3    H138386   1.214   6.326   1.922 -0.0832  1.0787 -0.5443
 5609TIP3    H238387   1.286   6.340   1.790  1.0792  0.2246 -0.0159
 5610TIP3   OH238388   1.693   4.049   8.216  0.2528 -0.4655 -0.4743
 5610TIP3    H138389   1.711   4.110   8.144 -2.2046  2.4411  1.1135
 5610TIP3    H238390   1.619   4.088   8.262  1.9519 -1.8437  3.9473
 5611TIP3   OH238391   3.580   0.534   7.371  0.3459  0.3013  0.0748
 5611TIP3    H138392   3.631   0.609   7.404  0.5164 -0.6629  2.1464
 5611TIP3    H238393   3.642   0.461   7.372 -0.2851 -0.2462 -0.2112
 5612TIP3   OH238394   0.354   0.846   8.458 -0.4777  0.2160 -0.7578
 5612TIP3    H138395   0.343   0.813   8.547  1.0528  1.3475 -0.1272
 5612TIP3    H238396   0.414   0.784   8.417 -1.8359 -0.7921 -1.3267
 5613TIP3   OH238397   5.228   5.289   7.961 -0.4331  0.9986  0.5299
 5613TIP3    H138398   5.232   5.194   7.945 -1.7764  1.0875 -0.4620
 5613TIP3    H238399   5.226   5.328   7.874 -1.6986  1.8366  0.9047
 5614TIP3   OH238400   1.999   5.140   0.569 -0.0922 -0.6506  0.1266
 5614TIP3    H138401   2.010   5.057   0.616 -1.3710 -0.8327  0.1649
 5614TIP3    H238402   1.990   5.206   0.638 -2.1115 -0.9377  0.2190
 5615TIP3   OH238403   4.116   2.357   7.559  0.0137  0.1314  0.0336
 5615TIP3    H138404   4.191   2.331   7.505 -0.9823 -1.3927 -0.6764
 5615TIP3    H238405   4.071   2.275   7.579 -1.7156  1.0461  0.0903
 5616TIP3   OH238406   4.428   4.404   0.627  0.0693 -0.3145  0.1394
 5616TIP3    H138407   4.493   4.474   0.627  0.3844 -0.5637 -1.7581
 5616TIP3    H238408   4.345   4.449   0.638  0.3714  0.2212  0.3033
 5617TIP3   OH238409   0.538   0.912   6.748  0.3828  1.0028  0.1370
 5617TIP3    H138410   0.591   0.883   6.822 -0.1673 -0.6097 -0.0661
 5617TIP3    H238411   0.462   0.955   6.787  1.1497  2.1034  0.4497
 5618TIP3   OH238412   3.599   6.352   2.080 -0.1363  0.3795 -0.2084
 5618TIP3    H138413   3.546   6.376   2.156 -1.5945 -1.0175 -0.7474
 5618TIP3    H238414   3.615   6.258   2.090  1.6461  0.6139 -0.4637
 5619TIP3   OH238415   4.370   1.623   2.111 -0.1979  0.1817  0.4893
 5619TIP3    H138416   4.291   1.611   2.058 -0.4151  1.0326  0.5894
 5619TIP3    H238417   4.347   1.588   2.197 -0.8228  1.2912  0.7963
 5620TIP3   OH238418   1.654   5.510   1.328  0.3338  0.0107  0.1874
 5620TIP3    H138419   1.686   5.591   1.289  1.8582 -0.9916 -0.7196
 5620TIP3    H238420   1.713   5.442   1.295 -3.0897 -2.1244 -2.1526
 5621TIP3   OH238421   1.718   4.274   6.965  0.4379  0.6638 -0.0410
 5621TIP3    H138422   1.692   4.318   6.884 -0.7223 -1.7593 -1.0829
 5621TIP3    H238423   1.643   4.287   7.023  0.9162  1.6725  0.3762
 5622TIP3   OH238424   1.555   5.931   8.395  0.0564  0.0562  0.2192
 5622TIP3    H138425   1.495   5.969   8.459  0.4323 -1.2054  1.3788
 5622TIP3    H238426   1.631   5.906   8.447 -0.3228 -2.5799 -0.3502
 5623TIP3   OH238427   1.357   4.075   8.708 -0.0602 -0.8089 -0.7863
 5623TIP3    H138428   1.318   4.142   8.765  0.4340 -0.3956 -0.9267
 5623TIP3    H238429   1.419   4.123   8.653 -0.9550 -1.0958 -2.0952
 5624TIP3   OH238430   1.059   5.084   6.728  0.6731  0.6881 -0.3241
 5624TIP3    H138431   1.029   5.157   6.674  0.5869 -0.1721 -1.4725
 5624TIP3    H238432   1.026   5.006   6.683  2.5015 -0.1660 -0.2503
 5625TIP3   OH238433   0.883   3.039   0.551 -0.4069 -0.3321  0.1292
 5625TIP3    H138434   0.961   3.090   0.534 -1.1148  0.7243 -0.0432
 5625TIP3    H238435   0.903   2.951   0.518  0.6377 -0.0377 -0.0339
 5626TIP3   OH238436   2.645   4.771   7.853  0.2744 -0.3505 -0.0280
 5626TIP3    H138437   2.654   4.770   7.758  0.1958  1.1444 -0.0753
 5626TIP3    H238438   2.735   4.774   7.886  0.3025 -0.9066 -0.0468
 5627TIP3   OH238439   5.483   6.123   0.598  0.3622  1.1628 -0.1777
 5627TIP3    H138440   5.418   6.063   0.563 -0.6087  1.3515  1.2544
 5627TIP3    H238441   5.566   6.092   0.561  0.0904 -1.8507  1.4981
 5628TIP3   OH238442   0.382   0.657   7.482  0.0089  0.5076  0.1260
 5628TIP3    H138443   0.340   0.631   7.564 -0.2979  0.0567 -0.1707
 5628TIP3    H238444   0.367   0.751   7.476 -1.9797  0.1910 -0.5496
 5629TIP3   OH238445   4.274   5.897   7.184 -0.1685 -0.1795  0.0365
 5629TIP3    H138446   4.311   5.848   7.258 -1.4852 -1.5302 -0.1577
 5629TIP3    H238447   4.190   5.930   7.216 -0.5677 -0.4392 -0.7141
 5630TIP3   OH238448   5.610   5.993   6.993  0.4278 -0.1014  0.1338
 5630TIP3    H138449   5.586   5.923   6.932  1.5700 -0.2102 -0.2134
 5630TIP3    H238450   5.695   6.023   6.963  0.0762  1.2843  0.4344
 5631TIP3   OH238451   1.610   4.880   8.508 -0.0253  0.6298  0.3262
 5631TIP3    H138452   1.602   4.785   8.500  1.9284  0.4845 -0.3001
 5631TIP3    H238453   1.629   4.895   8.601 -3.6730  0.7654  1.2078
 5632TIP3   OH238454   1.919   1.699   0.017 -0.2307 -0.8577 -0.5032
 5632TIP3    H138455   1.993   1.699   0.078 -0.7999 -0.1192  0.2004
 5632TIP3    H238456   1.960   1.691  -0.069  0.7762  0.6783 -0.2157
 5633TIP3   OH238457   5.181   3.454   7.592  0.2357 -0.4465 -0.8426
 5633TIP3    H138458   5.212   3.536   7.555  0.9977 -0.7190 -0.8441
 5633TIP3    H238459   5.261   3.403   7.605 -0.2351 -1.2364 -0.9705
 5634TIP3   OH238460   6.072   6.644   7.794 -0.7044 -0.3423  0.5061
 5634TIP3    H138461   6.097   6.732   7.764 -2.8739 -0.1190 -0.9272
 5634TIP3    H238462   6.107   6.585   7.727 -0.7141 -0.3934  0.5458
 5635TIP3   OH238463   3.443   2.499   0.613  0.1801  0.3243  0.4579
 5635TIP3    H138464   3.491   2.425   0.577 -1.5821 -0.1669 -1.0679
 5635TIP3    H238465   3.406   2.466   0.695  0.6647  0.0025  0.5473
 5636TIP3   OH238466   4.011   0.290   1.660  0.8994 -0.1523  0.0305
 5636TIP3    H138467   4.019   0.336   1.576 -1.0787  1.1943  0.5031
 5636TIP3    H238468   4.025   0.198   1.638 -0.1236  0.1005 -1.8971
 5637TIP3   OH238469   3.446   2.780   0.597 -0.0407  0.4512 -0.4971
 5637TIP3    H138470   3.357   2.813   0.597 -0.3560 -0.2962 -2.3063
 5637TIP3    H238471   3.437   2.686   0.613  0.4081  0.3484 -0.8171
 5638TIP3   OH238472   6.561   2.806   8.711  0.1017  0.4927 -0.1788
 5638TIP3    H138473   6.530   2.759   8.633 -0.8684  0.1623  0.3813
 5638TIP3    H238474   6.655   2.787   8.715 -0.1891 -1.0791 -0.2060
 5639TIP3   OH238475   5.497   4.952   1.571  0.3366  0.0293  0.2957
 5639TIP3    H138476   5.538   4.938   1.486 -1.2176 -2.8684 -0.1082
 5639TIP3    H238477   5.538   4.887   1.629 -1.4625 -0.9000  0.6191
 5640TIP3   OH238478   0.769   2.301   8.033  0.0986  0.1482 -0.2879
 5640TIP3    H138479   0.761   2.396   8.019  0.7288  0.0204 -1.7042
 5640TIP3    H238480   0.739   2.263   7.951  0.2367 -0.8719  0.1302
 5641TIP3   OH238481   2.889   4.762   7.995  0.0571 -0.1718 -0.2047
 5641TIP3    H138482   2.983   4.763   7.975  0.3397  0.5311  1.0908
 5641TIP3    H238483   2.867   4.669   8.001  0.8301 -0.3353  0.1861
 5642TIP3   OH238484   6.264   1.139   1.074 -0.2281 -0.1238  0.1740
 5642TIP3    H138485   6.308   1.205   1.021  0.9349  0.6053  1.9490
 5642TIP3    H238486   6.182   1.179   1.100 -0.3254 -0.0771 -0.1983
 5643TIP3   OH238487   1.301   1.018   7.269 -0.3481  0.4327 -0.5608
 5643TIP3    H138488   1.207   1.037   7.278 -0.6064 -0.2198 -1.7226
 5643TIP3    H238489   1.339   1.048   7.352 -1.5259  1.0272 -0.2063
 5644TIP3   OH238490   6.728   1.199   0.295 -0.0177 -0.4026 -0.0212
 5644TIP3    H138491   6.723   1.220   0.389  0.5740  0.3324 -0.1515
 5644TIP3    H238492   6.652   1.242   0.257  0.8423  1.0333 -0.1868
 5645TIP3   OH238493   3.475   0.043   8.206 -0.6223  0.3058  0.3618
 5645TIP3    H138494   3.570   0.048   8.215 -0.7073  1.2717  0.7834
 5645TIP3    H238495   3.458  -0.048   8.180  0.4317  0.2112 -0.0205
 5646TIP3   OH238496   2.432   3.828   8.264 -0.0384 -0.2341 -0.0692
 5646TIP3    H138497   2.438   3.898   8.199  0.1705  1.9927  2.1838
 5646TIP3    H238498   2.340   3.803   8.264 -0.4673  1.2259  0.1702
 5647TIP3   OH238499   2.256   1.180   7.437  0.2468 -0.5906  0.5246
 5647TIP3    H138500   2.171   1.173   7.482 -0.0630  2.3022  0.5805
 5647TIP3    H238501   2.317   1.133   7.494 -0.8957 -0.6811  1.7254
 5648TIP3   OH238502   3.210   6.094   7.162  0.2884  0.3284 -0.0929
 5648TIP3    H138503   3.124   6.061   7.188  0.3477 -1.1729 -1.6116
 5648TIP3    H238504   3.250   6.022   7.114  1.6348  1.6394 -1.0385
 5649TIP3   OH238505   5.692   5.011   6.535 -0.5217 -0.8166 -0.4702
 5649TIP3    H138506   5.709   4.971   6.450  0.2630  0.5734 -0.9988
 5649TIP3    H238507   5.775   5.052   6.559 -1.2068  0.2244  0.1755
 5650TIP3   OH238508   3.246   1.389   8.802  0.0412  0.2749 -0.3237
 5650TIP3    H138509   3.246   1.480   8.830  1.4047 -0.2222  1.4864
 5650TIP3    H238510   3.175   1.348   8.851  0.3907  0.0730  0.0271
 5651TIP3   OH238511   2.103   3.921   8.216  0.0093 -0.0844  0.0737
 5651TIP3    H138512   2.110   3.940   8.309 -1.1577  1.0040 -0.0191
 5651TIP3    H238513   2.126   4.003   8.173  0.1231 -0.4503 -0.5789
 5652TIP3   OH238514   1.566   2.131   7.055 -0.1090  0.0628 -0.5979
 5652TIP3    H138515   1.495   2.121   6.991  1.3270  0.4348 -2.3358
 5652TIP3    H238516   1.590   2.041   7.078 -0.9617 -0.0664 -0.1940
 5653TIP3   OH238517   3.391   5.653   8.446  0.5693 -0.3278 -0.1192
 5653TIP3    H138518   3.323   5.718   8.461  3.0609  2.3897  0.3376
 5653TIP3    H238519   3.369   5.580   8.504 -2.5516 -0.1454 -0.9294
 5654TIP3   OH238520   6.634   6.200   8.634 -0.2300  0.0703  0.1617
 5654TIP3    H138521   6.693   6.141   8.586  0.4936  0.3660  0.6709
 5654TIP3    H238522   6.547   6.162   8.622 -0.0815  0.1170 -1.3769
 5655TIP3   OH238523   4.858   2.150   1.839  0.0789  0.4214 -0.0437
 5655TIP3    H138524   4.877   2.238   1.872 -0.7155  0.4161  0.4341
 5655TIP3    H238525   4.814   2.106   1.911  0.0634 -0.2222 -0.4428
 5656TIP3   OH238526   1.786   2.819   1.654 -0.2132  0.2207 -0.1743
 5656TIP3    H138527   1.696   2.806   1.625  0.1856 -0.4966 -1.1263
 5656TIP3    H238528   1.830   2.863   1.582  0.5737 -0.8065 -0.3523
 5657TIP3   OH238529   2.152   1.018   1.788 -0.1374  0.0947 -0.6399
 5657TIP3    H138530   2.178   0.956   1.719 -1.0132 -0.0928 -0.8214
 5657TIP3    H238531   2.222   1.082   1.791 -0.0089  0.0132 -1.6055
 5658TIP3   OH238532   3.114   4.741   0.430 -0.0880 -0.1794 -0.4722
 5658TIP3    H138533   3.045   4.759   0.366  0.2022  0.0307 -0.7226
 5658TIP3    H238534   3.067   4.706   0.506 -0.4556 -0.1913 -0.7043
 5659TIP3   OH238535   0.570   5.830   0.764  0.3030  0.0760  0.4422
 5659TIP3    H138536   0.639   5.766   0.780  1.3588  1.3089  1.0679
 5659TIP3    H238537   0.617   5.911   0.743 -0.9479  1.0236  1.1622
 5660TIP3   OH238538   1.030   6.105   1.758 -0.2916  0.0879  0.8324
 5660TIP3    H138539   0.941   6.137   1.771 -0.1884  0.4583  0.6510
 5660TIP3    H238540   1.060   6.148   1.678  0.3068  0.5572  1.2908
 5661TIP3   OH238541   2.534   6.302   7.119  0.0870  0.0564  0.2081
 5661TIP3    H138542   2.491   6.372   7.167 -1.8404  0.8195 -2.3992
 5661TIP3    H238543   2.497   6.221   7.154 -0.4945  0.5327  0.6916
 5662TIP3   OH238544   0.656   0.887   7.680 -0.1517 -0.0867 -0.3101
 5662TIP3    H138545   0.564   0.862   7.676 -0.6622  1.5985  0.3175
 5662TIP3    H238546   0.690   0.865   7.593 -2.3048  3.3611 -2.2717
 5663TIP3   OH238547   4.743   1.922   0.938  0.5501 -0.1729  0.2588
 5663TIP3    H138548   4.725   1.946   1.029  0.6650 -0.7579  0.4396
 5663TIP3    H238549   4.795   1.842   0.944 -0.3621 -0.8284 -0.3363
 5664TIP3   OH238550   3.714   2.012   1.061 -0.6983 -0.0896  0.2649
 5664TIP3    H138551   3.714   1.929   1.014  0.9275  0.6174 -1.0924
 5664TIP3    H238552   3.786   2.004   1.124 -0.1735  0.4728 -0.2540
 5665TIP3   OH238553   3.104   3.379   6.953  0.7178  0.0573  0.2591
 5665TIP3    H138554   3.166   3.367   7.025  1.6711 -2.0992 -0.8468
 5665TIP3    H238555   3.158   3.405   6.878 -0.2699  2.3496  0.2467
 5666TIP3   OH238556   5.095   3.339   6.932  0.4248  0.0011  0.4570
 5666TIP3    H138557   5.020   3.288   6.964 -0.8378  0.5876 -1.3935
 5666TIP3    H238558   5.064   3.429   6.931  1.3708  0.3339  0.2029
 5667TIP3   OH238559   0.934   5.042   7.590 -0.2262  0.2952 -0.1376
 5667TIP3    H138560   0.884   5.063   7.510 -0.1550  0.2957 -0.1816
 5667TIP3    H238561   0.999   5.111   7.597  0.9485 -0.6733 -1.0631
 5668TIP3   OH238562   2.086   1.611   7.338 -0.5807 -0.0525 -0.4955
 5668TIP3    H138563   2.169   1.650   7.312 -0.6125 -0.2434 -0.8907
 5668TIP3    H238564   2.107   1.560   7.416  0.0204 -1.4027 -1.4899
 5669TIP3   OH238565   3.628   0.819   2.169  0.2845  0.0228  0.4539
 5669TIP3    H138566   3.638   0.911   2.143  0.9668  0.3150  1.6682
 5669TIP3    H238567   3.600   0.774   2.089 -0.9049  1.4215  0.0545
 5670TIP3   OH238568   1.552   2.547   7.714  0.4637  0.0185 -0.2196
 5670TIP3    H138569   1.529   2.470   7.661  1.5673  0.7320 -1.8337
 5670TIP3    H238570   1.631   2.582   7.671 -0.0824  2.1107  0.3906
 5671TIP3   OH238571   4.356   3.972   1.103 -0.1209 -0.3462 -0.5939
 5671TIP3    H138572   4.300   3.921   1.161 -0.8724  1.9241  0.7733
 5671TIP3    H238573   4.308   3.975   1.020 -0.6703 -0.7503 -0.2981
 5672TIP3   OH238574   3.605   6.390   8.026  0.7816  0.2014 -0.5183
 5672TIP3    H138575   3.592   6.297   8.011 -1.2598  0.4912 -0.8697
 5672TIP3    H238576   3.565   6.433   7.950 -1.7790  1.4245  1.3499
 5673TIP3   OH238577   2.644   0.202   2.130 -0.2613 -0.1948  0.4738
 5673TIP3    H138578   2.647   0.275   2.069  0.9799  0.5563  1.3962
 5673TIP3    H238579   2.711   0.141   2.099  0.1139  0.0158  0.8617
 5674TIP3   OH238580   0.584   3.657   8.234  0.3733  0.1268  0.2588
 5674TIP3    H138581   0.661   3.605   8.207 -0.2739 -0.6943 -0.0748
 5674TIP3    H238582   0.539   3.601   8.297 -0.9009 -0.2138 -0.8861
 5675TIP3   OH238583   6.066   3.473   8.330 -0.3243 -0.0813 -0.0527
 5675TIP3    H138584   6.078   3.565   8.354  0.8131  0.6683 -2.9830
 5675TIP3    H238585   6.069   3.473   8.234  0.4449 -3.2891 -0.1475
 5676TIP3   OH238586   5.232   4.938   1.669 -0.1690 -0.0003 -0.3688
 5676TIP3    H138587   5.254   5.023   1.706 -1.2661 -0.1606  0.7167
 5676TIP3    H238588   5.312   4.909   1.626  0.9496  0.5213  1.2806
 5677TIP3   OH238589   5.189   5.603   1.364 -0.4674  0.5543  0.0618
 5677TIP3    H138590   5.101   5.619   1.399 -0.2212 -0.3348  1.1388
 5677TIP3    H238591   5.240   5.679   1.393 -0.5568  0.4025  0.6426
 5678TIP3   OH238592   5.189   3.407   8.770 -0.0584 -0.1952 -0.4214
 5678TIP3    H138593   5.208   3.490   8.812 -3.4585  1.8741 -2.5143
 5678TIP3    H238594   5.228   3.414   8.683  2.2053 -2.1434  0.3478
 5679TIP3   OH238595   0.992   3.886   7.261 -0.8756 -0.4025 -0.0148
 5679TIP3    H138596   1.010   3.980   7.263 -0.5088 -0.4780  0.3074
 5679TIP3    H238597   1.060   3.850   7.204  0.9788 -0.8792  2.3144
 5680TIP3   OH238598   4.834   4.675   8.356  0.1404  0.4245 -0.3600
 5680TIP3    H138599   4.808   4.683   8.265 -0.4216  1.2016 -0.1429
 5680TIP3    H238600   4.819   4.762   8.393  0.3717  0.1231  0.4687
 5681TIP3   OH238601   0.564   0.755   1.041 -0.0118 -0.2760  0.2629
 5681TIP3    H138602   0.534   0.842   1.069 -3.6261 -1.4219  0.4262
 5681TIP3    H238603   0.505   0.731   0.969  1.6126 -2.1907 -0.5361
 5682TIP3   OH238604   6.260   3.190   7.118 -0.1848 -0.1737 -0.5650
 5682TIP3    H138605   6.303   3.128   7.177 -0.8368 -0.2437 -0.1442
 5682TIP3    H238606   6.167   3.183   7.140 -0.2786  0.9343 -0.5243
 5683TIP3   OH238607   0.763   0.486   8.462 -0.1854 -0.1814 -0.5333
 5683TIP3    H138608   0.756   0.392   8.444  3.0765 -0.7869  0.6946
 5683TIP3    H238609   0.818   0.521   8.392  0.0474  0.4506 -0.0486
 5684TIP3   OH238610   1.937   5.045   0.309 -0.5757 -0.3854 -0.1783
 5684TIP3    H138611   1.958   5.104   0.381 -0.0027 -0.8803  0.0680
 5684TIP3    H238612   1.893   4.971   0.351 -1.0115 -0.2885 -0.4479
 5685TIP3   OH238613   1.940   4.291   8.148  0.2163  0.1285  0.5275
 5685TIP3    H138614   1.893   4.327   8.073 -0.4549 -2.8838 -0.6552
 5685TIP3    H238615   1.875   4.284   8.217  0.4907  1.5693  0.9690
 5686TIP3   OH238616   5.832   5.524   6.651  0.7295  0.0685  0.5227
 5686TIP3    H138617   5.798   5.478   6.575  1.8698  0.7415 -0.4365
 5686TIP3    H238618   5.853   5.612   6.618  1.1853  0.3905  1.6287
 5687TIP3   OH238619   4.483   4.504   6.558 -0.4072  0.2254  0.1507
 5687TIP3    H138620   4.560   4.536   6.512 -0.3857  1.6464  1.1174
 5687TIP3    H238621   4.437   4.583   6.587 -1.2846 -0.6017  1.1089
 5688TIP3   OH238622   2.532   5.722   8.220  0.2562  0.8446 -0.2262
 5688TIP3    H138623   2.522   5.636   8.180  0.3161  0.2238  1.0256
 5688TIP3    H238624   2.601   5.710   8.286  3.4156  2.9171 -2.8671
 5689TIP3   OH238625   2.896   5.264   6.589  0.6624 -0.1941 -0.0891
 5689TIP3    H138626   2.907   5.171   6.568 -0.7592 -0.5286  0.5262
 5689TIP3    H238627   2.807   5.270   6.625  0.6860  1.4251 -0.2256
 5690TIP3   OH238628   4.215   6.192   0.682  0.0383 -0.4293  0.7527
 5690TIP3    H138629   4.178   6.121   0.734  0.8049  1.9897  5.0810
 5690TIP3    H238630   4.310   6.176   0.686  0.0773 -0.8042 -1.0203
 5691TIP3   OH238631   5.391   2.801   6.838  0.0350  0.0667  0.7504
 5691TIP3    H138632   5.447   2.767   6.768 -2.1739 -0.5494 -0.8151
 5691TIP3    H238633   5.410   2.746   6.913  2.0737  0.3908  0.5353
 5692TIP3   OH238634   0.713   0.248   0.808 -0.1391  0.2901 -0.3531
 5692TIP3    H138635   0.797   0.294   0.802 -0.5430  1.2224  0.6939
 5692TIP3    H238636   0.694   0.245   0.902  0.6302 -3.5095 -0.1436
 5693TIP3   OH238637   5.825   0.759   7.771 -0.3699  0.0546 -0.3225
 5693TIP3    H138638   5.903   0.711   7.743  1.6005  3.3392 -1.0281
 5693TIP3    H238639   5.754   0.695   7.766  1.6730 -2.2658 -2.8714
 5694TIP3   OH238640   5.095   0.693   7.017 -0.1809 -0.8187  0.3946
 5694TIP3    H138641   5.189   0.698   7.004 -0.1324  0.6423  1.0505
 5694TIP3    H238642   5.084   0.668   7.108 -0.4683 -2.8581 -0.1580
 5695TIP3   OH238643   1.701   0.834   7.426  0.3942  0.3837  0.5816
 5695TIP3    H138644   1.659   0.875   7.350 -0.3444 -1.4071 -0.0335
 5695TIP3    H238645   1.657   0.874   7.501  0.7732  1.8139  0.0812
 5696TIP3   OH238646   3.586   3.212   1.495 -0.3748  0.5873 -0.3045
 5696TIP3    H138647   3.665   3.222   1.547 -0.4109  0.6522 -0.2611
 5696TIP3    H238648   3.537   3.294   1.510 -0.4679  0.5307 -0.2986
 5697TIP3   OH238649   0.179   3.350   1.048  0.3985 -0.2823  0.6890
 5697TIP3    H138650   0.207   3.371   1.137  2.6284  0.3430 -0.0943
 5697TIP3    H238651   0.240   3.282   1.020 -0.2534 -0.4416 -0.3806
 5698TIP3   OH238652   1.400   1.161   0.466  0.1627 -0.4566 -0.6066
 5698TIP3    H138653   1.375   1.173   0.375 -1.7175 -0.5717 -0.1431
 5698TIP3    H238654   1.407   1.250   0.501  0.9927 -0.4099 -0.8814
 5699TIP3   OH238655   1.301   5.512   7.772 -0.0194 -0.0041  0.0837
 5699TIP3    H138656   1.210   5.496   7.798  0.2781 -0.5375  0.8313
 5699TIP3    H238657   1.294   5.565   7.692 -0.9729  0.8440  0.7060
 5700TIP3   OH238658   1.774   5.820   8.582  0.0713  0.5677 -0.0369
 5700TIP3    H138659   1.805   5.876   8.653  0.0161  1.3655 -0.6187
 5700TIP3    H238660   1.703   5.769   8.620  0.9643 -0.0357  0.8487
 5701TIP3   OH238661   0.365   1.013   0.319 -0.8539  0.0380 -0.2178
 5701TIP3    H138662   0.409   1.073   0.258 -1.6958  0.6941 -0.2071
 5701TIP3    H238663   0.288   0.983   0.271 -0.9974 -0.2120  0.1661
 5702TIP3   OH238664   2.085   0.443   7.047 -0.2189 -0.2754 -0.3031
 5702TIP3    H138665   2.149   0.459   7.116 -1.1973 -0.8129  0.7773
 5702TIP3    H238666   2.129   0.469   6.966  0.2411  2.3468  0.6991
 5703TIP3   OH238667   5.729   6.006   8.657 -0.0616  0.3238  0.0429
 5703TIP3    H138668   5.741   5.942   8.586 -1.7158 -1.0638  0.9433
 5703TIP3    H238669   5.754   5.958   8.736 -1.2159  0.8058  0.7211
 5704TIP3   OH238670   1.834   0.066   6.745  0.4574 -0.1225  0.3011
 5704TIP3    H138671   1.761   0.083   6.805  2.4325  1.5673  2.4549
 5704TIP3    H238672   1.879   0.150   6.738  2.9630 -1.3701  0.1981
 5705TIP3   OH238673   6.582   6.142   1.632  0.0458  0.2990  1.0109
 5705TIP3    H138674   6.501   6.165   1.586 -0.0439  0.7685  1.3907
 5705TIP3    H238675   6.603   6.054   1.601  1.1618  1.3821 -1.5482
 5706TIP3   OH238676   2.944   5.322   1.977  0.0133 -0.0824  0.0521
 5706TIP3    H138677   2.958   5.382   2.050  2.0842 -0.6083  0.1442
 5706TIP3    H238678   2.871   5.267   2.005  0.3482  0.1570  1.4639
 5707TIP3   OH238679   6.058   6.031   7.645  0.7679  0.4542  0.4223
 5707TIP3    H138680   5.967   6.003   7.632  0.7160  0.4218  0.8420
 5707TIP3    H238681   6.100   6.015   7.561  0.2822  0.8631  0.1023
 5708TIP3   OH238682   1.772   1.250   6.878  0.1102 -0.0128  0.4277
 5708TIP3    H138683   1.705   1.183   6.865 -0.3714  0.7933 -1.5642
 5708TIP3    H238684   1.838   1.231   6.812 -0.0305  1.4359 -0.1614
 5709TIP3   OH238685   4.653   0.515   6.473 -0.5584  0.1827  0.4308
 5709TIP3    H138686   4.599   0.586   6.441 -1.6264 -0.5594  0.5326
 5709TIP3    H238687   4.693   0.549   6.553 -0.1248  1.0531 -0.1404
 5710TIP3   OH238688   4.446   5.836   0.563 -0.7106  0.0014 -0.1644
 5710TIP3    H138689   4.353   5.841   0.542 -0.4224 -1.6760 -2.1136
 5710TIP3    H238690   4.459   5.747   0.596 -0.3887  1.3155  3.8477
 5711TIP3   OH238691   1.480   0.229   8.550  0.7844  0.1046 -0.2622
 5711TIP3    H138692   1.550   0.204   8.490  2.6873  1.3500  1.3475
 5711TIP3    H238693   1.476   0.157   8.613  0.8415  0.2240 -0.1255
 5712TIP3   OH238694   4.620   2.741   8.673 -0.0841 -0.0613 -0.0276
 5712TIP3    H138695   4.658   2.817   8.717 -0.0797 -0.1228  0.0747
 5712TIP3    H238696   4.598   2.680   8.744  1.6520 -0.9566 -0.2032
 5713TIP3   OH238697   3.581   5.689   7.232 -0.3173 -0.0111 -0.0180
 5713TIP3    H138698   3.516   5.639   7.282 -0.1025  0.4541  0.7277
 5713TIP3    H238699   3.652   5.705   7.294 -0.5515  1.5667 -0.1327
 5714TIP3   OH238700   6.354   6.122   6.665 -0.9289  0.1975 -0.1566
 5714TIP3    H138701   6.383   6.194   6.721 -2.7021  2.5032 -1.9711
 5714TIP3    H238702   6.432   6.097   6.615 -0.1692  0.5059  0.8543
 5715TIP3   OH238703   4.339   2.431   8.331  0.0898 -0.5870 -0.1476
 5715TIP3    H138704   4.417   2.433   8.387  0.1047 -0.2240 -0.1817
 5715TIP3    H238705   4.281   2.498   8.368  0.2694 -0.0595 -0.8200
 5716TIP3   OH238706   6.732   1.054   1.374  0.2783  0.0953  0.0076
 5716TIP3    H138707   6.818   1.097   1.371 -0.2885  1.3521  1.1326
 5716TIP3    H238708   6.750   0.964   1.344  2.5585 -0.5248  2.8035
 5717TIP3   OH238709   6.386   6.151   8.495 -0.1857  0.0960 -0.1861
 5717TIP3    H138710   6.324   6.127   8.564  0.4969  0.4989  0.5949
 5717TIP3    H238711   6.417   6.067   8.460  0.4862 -0.1598  0.9600
 5718TIP3   OH238712   4.061   0.087   0.056  0.1706 -0.1372 -0.7966
 5718TIP3    H138713   4.007   0.032   0.000  0.4972 -0.7762 -0.4894
 5718TIP3    H238714   4.146   0.089   0.013  0.3755 -0.4953 -0.4081
 5719TIP3   OH238715   4.512   6.264   7.210 -0.4042  0.0209  0.3315
 5719TIP3    H138716   4.519   6.354   7.243 -1.7589  0.3930 -0.3149
 5719TIP3    H238717   4.584   6.217   7.252  0.5747  1.4973  0.3814
 5720TIP3   OH238718   4.162   2.236   1.478 -0.2635  0.2445 -0.2231
 5720TIP3    H138719   4.094   2.169   1.490 -1.0893  1.2116  0.6325
 5720TIP3    H238720   4.241   2.186   1.459 -0.2472 -1.1596  2.9463
 5721TIP3   OH238721   6.339   4.932   0.480  0.2422 -0.3090 -0.1535
 5721TIP3    H138722   6.293   4.989   0.542  0.5853 -0.9446  0.7155
 5721TIP3    H238723   6.405   4.988   0.440 -2.0854  0.9948 -2.4376
 5722TIP3   OH238724   3.531   3.393   2.222 -1.0397 -0.9533 -0.3191
 5722TIP3    H138725   3.500   3.463   2.281  0.8317  0.5260 -0.9886
 5722TIP3    H238726   3.539   3.316   2.279 -1.5598 -0.1969  0.8265
 5723TIP3   OH238727   0.612   6.072   1.082  0.1339 -0.4409 -0.1697
 5723TIP3    H138728   0.585   6.149   1.131 -0.5975 -1.0940  0.4922
 5723TIP3    H238729   0.708   6.074   1.085  0.1151 -0.2038  0.8864
 5724TIP3   OH238730   2.712   2.367   0.645 -0.3889 -0.4239 -0.3667
 5724TIP3    H138731   2.742   2.437   0.703 -1.0471 -0.3156 -0.1475
 5724TIP3    H238732   2.760   2.289   0.673 -0.1088 -0.1936 -0.2069
 5725TIP3   OH238733   2.134   0.863   1.134  0.5725 -0.5187  0.2397
 5725TIP3    H138734   2.198   0.856   1.062 -0.8350  0.1656 -1.1298
 5725TIP3    H238735   2.141   0.779   1.179  3.0573 -0.1442  0.7123
 5726TIP3   OH238736   1.908   2.171   7.538  0.1568 -0.4011 -0.1412
 5726TIP3    H138737   1.897   2.128   7.623  1.2137 -1.4684 -0.5305
 5726TIP3    H238738   1.824   2.158   7.494  0.3966 -1.9864 -0.1938
 5727TIP3   OH238739   0.026   3.972   1.376  0.4598  0.0296 -0.6675
 5727TIP3    H138740   0.110   3.929   1.358 -0.3906 -1.2862 -1.6916
 5727TIP3    H238741   0.032   4.056   1.330  2.3558  1.3696  1.8078
 5728TIP3   OH238742   4.961   0.423   7.553  0.0662 -0.0295 -0.1474
 5728TIP3    H138743   4.934   0.339   7.590  0.7889 -1.0460 -1.7904
 5728TIP3    H238744   4.953   0.411   7.458  0.1467  1.7841 -0.4234
 5729TIP3   OH238745   5.137   2.865   1.580 -0.1090  0.4100 -0.3343
 5729TIP3    H138746   5.144   2.832   1.491 -2.6458  1.1810 -0.8999
 5729TIP3    H238747   5.157   2.958   1.574 -0.4685  0.5033 -0.1327
 5730TIP3   OH238748   1.231   1.307   6.728 -0.2099  0.1705 -0.1288
 5730TIP3    H138749   1.168   1.376   6.709  0.8880  0.8468 -1.5119
 5730TIP3    H238750   1.293   1.347   6.789 -0.0525  0.1187 -0.2550
 5731TIP3   OH238751   1.127   1.322   8.414  0.3931  0.7247  0.3661
 5731TIP3    H138752   1.156   1.259   8.480 -1.2718 -0.9455 -0.4153
 5731TIP3    H238753   1.148   1.281   8.330  0.5068  1.8453 -0.1711
 5732TIP3   OH238754   5.144   0.164   7.263 -0.1939  0.5421 -0.2449
 5732TIP3    H138755   5.107   0.130   7.182 -0.6446 -0.2777  0.2860
 5732TIP3    H238756   5.091   0.240   7.284 -0.0690  0.7638 -0.7200
 5733TIP3   OH238757   2.486   5.584   2.267 -0.2525  0.3063 -0.3398
 5733TIP3    H138758   2.505   5.541   2.351 -2.3955 -0.1008 -0.0140
 5733TIP3    H238759   2.561   5.561   2.212 -0.4766 -2.4542  0.3493
 5734TIP3   OH238760   0.513   1.712   0.149  0.2785  0.2620 -0.3019
 5734TIP3    H138761   0.510   1.805   0.174 -0.4380 -0.3636  2.2215
 5734TIP3    H238762   0.537   1.666   0.229 -0.6607 -1.8440 -1.1474
 5735TIP3   OH238763   2.983   4.098   7.077 -0.6930 -0.2825 -0.2500
 5735TIP3    H138764   3.049   4.106   7.009  0.5761 -0.8803  0.8785
 5735TIP3    H238765   2.947   4.187   7.085  1.6514  0.6485  0.7347
 5736TIP3   OH238766   0.667   3.966   7.807  0.1223 -1.1100 -0.3253
 5736TIP3    H138767   0.732   4.029   7.778 -2.3234  0.8048 -2.0957
 5736TIP3    H238768   0.670   3.970   7.903  1.8480 -0.3366 -0.3748
 5737TIP3   OH238769   0.639   5.120   1.551 -0.3341  0.1378  0.0843
 5737TIP3    H138770   0.600   5.204   1.575  0.1409 -0.1133  1.8308
 5737TIP3    H238771   0.606   5.058   1.616 -0.0794 -0.8798 -0.7298
 5738TIP3   OH238772   4.144   6.214   2.220  0.2355  0.4642  0.0318
 5738TIP3    H138773   4.065   6.236   2.171  0.0250  0.9910  0.6054
 5738TIP3    H238774   4.195   6.160   2.159 -0.3249  0.5511 -0.5264
 5739TIP3   OH238775   6.261   0.675   1.117 -0.1305  0.0117  0.5835
 5739TIP3    H138776   6.237   0.711   1.202  2.2521  2.1430  0.4725
 5739TIP3    H238777   6.200   0.715   1.056  0.9065  2.0617  0.8030
 5740TIP3   OH238778   6.724   3.620   8.169  0.2705  0.1034 -0.1934
 5740TIP3    H138779   6.818   3.632   8.180  0.2009  0.1737  0.3565
 5740TIP3    H238780   6.685   3.678   8.235 -0.1278 -1.1472  0.6974
 5741TIP3   OH238781   6.644   0.658   8.156  0.2487 -0.0630  0.0681
 5741TIP3    H138782   6.586   0.729   8.183  0.4063  0.7406 -1.5606
 5741TIP3    H238783   6.710   0.654   8.224 -0.4613  0.5139  0.8168
 5742TIP3   OH238784   6.728   3.096   5.807 -0.1078 -0.8309 -0.0757
 5742TIP3    H138785   6.710   3.139   5.724 -2.2383 -0.1905  0.6564
 5742TIP3    H238786   6.674   3.143   5.871  0.9582 -1.7232  1.5599
 5743TIP3   OH238787   4.398   1.800   7.390  0.3087 -0.0604 -0.0140
 5743TIP3    H138788   4.387   1.723   7.334  1.2818  0.4182 -0.9139
 5743TIP3    H238789   4.453   1.859   7.338  0.2061  0.9267  0.9621
 5744TIP3   OH238790   2.110   5.141   1.887  0.1044  0.2495  0.0943
 5744TIP3    H138791   2.180   5.167   1.948 -0.3282  1.7691 -0.0152
 5744TIP3    H238792   2.147   5.158   1.801  0.3525 -0.9677 -0.0569
 5745TIP3   OH238793   4.836   2.948   7.405 -0.3435 -0.1553  0.6290
 5745TIP3    H138794   4.779   3.024   7.389  0.1176 -0.0915 -0.8482
 5745TIP3    H238795   4.790   2.897   7.472 -0.5418  1.5486  1.8658
 5746TIP3   OH238796   0.218   3.008   5.821  0.1677 -1.0932  0.4252
 5746TIP3    H138797   0.278   3.081   5.805 -0.5791 -0.1954  1.6082
 5746TIP3    H238798   0.132   3.042   5.797 -0.1526 -1.6699  0.7447
 5747TIP3   OH238799   4.735   6.037   8.101 -0.5182  0.6582 -0.2361
 5747TIP3    H138800   4.700   6.118   8.063  1.5722  1.1442 -1.2750
 5747TIP3    H238801   4.722   5.971   8.032 -0.9968  0.4137  0.0824
 5748TIP3   OH238802   4.287   5.154   1.667  0.0507 -0.3800 -0.0922
 5748TIP3    H138803   4.377   5.183   1.679 -0.6753  2.2150 -0.3076
 5748TIP3    H238804   4.236   5.234   1.667 -2.2680 -1.7692 -0.1308
 5749TIP3   OH238805   1.562   0.056   8.105 -0.0126 -0.0036  0.1141
 5749TIP3    H138806   1.565   0.079   8.013  1.5462 -0.1732  0.1016
 5749TIP3    H238807   1.558  -0.040   8.106 -1.8554  0.0333  0.2308
 5750TIP3   OH238808   0.954   4.709   0.849  0.0018 -0.5983 -0.0893
 5750TIP3    H138809   0.958   4.647   0.921 -0.8500 -1.0327 -0.4166
 5750TIP3    H238810   1.038   4.699   0.805 -0.1968 -1.6421 -0.2462
 5751TIP3   OH238811   2.814   4.490   1.161 -0.2407  0.5384  0.4453
 5751TIP3    H138812   2.839   4.504   1.069 -1.5950 -0.4198 -0.0993
 5751TIP3    H238813   2.897   4.475   1.206  0.5259  1.8374 -0.4438
 5752TIP3   OH238814   3.967   5.974   1.678  0.7149  0.0775  0.2747
 5752TIP3    H138815   4.015   5.968   1.760  1.9733 -0.9743 -0.4921
 5752TIP3    H238816   4.018   6.037   1.626  0.0939  0.5131  0.1791
 5753TIP3   OH238817   5.277   4.021   0.821  0.0657  0.0831  0.5185
 5753TIP3    H138818   5.269   3.990   0.911 -0.4454 -0.5198  0.2697
 5753TIP3    H238819   5.218   3.965   0.770  1.2521 -0.3692 -0.3949
 5754TIP3   OH238820   6.214   6.258   0.118  0.0806  0.0173 -0.6540
 5754TIP3    H138821   6.144   6.297   0.171  0.4551 -0.2215  0.0344
 5754TIP3    H238822   6.295   6.293   0.157  0.3360  0.8779 -1.9055
 5755TIP3   OH238823   3.308   1.007   2.116 -0.0134 -0.2412  0.2998
 5755TIP3    H138824   3.217   1.002   2.087 -0.3227 -0.0556  1.2010
 5755TIP3    H238825   3.315   0.941   2.184  0.5599 -0.3203  0.1656
 5756TIP3   OH238826   2.202   2.479   0.934 -0.1123  0.5677  0.3879
 5756TIP3    H138827   2.291   2.445   0.941 -0.0699  0.6362  0.1711
 5756TIP3    H238828   2.148   2.401   0.923 -0.0428  0.5513  0.1595
 5757TIP3   OH238829   1.950   1.344   2.360  0.1486  0.3977 -0.2711
 5757TIP3    H138830   2.007   1.401   2.411  0.0785  1.1799 -1.0393
 5757TIP3    H238831   1.956   1.259   2.404  2.2440  0.3265 -0.5699
 5758TIP3   OH238832   3.422   5.120   6.110 -0.2109 -0.3745 -0.5497
 5758TIP3    H138833   3.359   5.155   6.173  0.4390  1.8171 -1.0259
 5758TIP3    H238834   3.484   5.192   6.095  1.0008 -1.6324 -1.9166
 5759TIP3   OH238835   6.067   3.230   7.603  0.1321  0.0362  0.4586
 5759TIP3    H138836   6.149   3.223   7.554 -0.0005  0.0248  0.2349
 5759TIP3    H238837   6.044   3.139   7.623  0.8844  0.1115  1.7235
 5760TIP3   OH238838   1.972   3.742   0.527  0.4138  0.0176  0.1570
 5760TIP3    H138839   2.067   3.744   0.539  0.2423  1.6536  1.5226
 5760TIP3    H238840   1.944   3.832   0.542 -1.4216 -0.5371  0.2763
 5761TIP3   OH238841   5.200   1.844   1.779  0.7485 -0.5273  0.6570
 5761TIP3    H138842   5.110   1.875   1.786  0.2340 -2.1933  1.7702
 5761TIP3    H238843   5.239   1.865   1.864  0.6316 -2.0866  1.1259
 5762TIP3   OH238844   4.066   1.447   0.734  0.2040 -0.4534 -0.0993
 5762TIP3    H138845   4.060   1.352   0.721  1.5843 -0.3602 -1.7982
 5762TIP3    H238846   4.054   1.484   0.646  0.9405  0.8564  0.3255
 5763TIP3   OH238847   4.382   6.479   1.355 -0.0169 -1.2529  0.5477
 5763TIP3    H138848   4.440   6.497   1.281 -0.9235  1.1278  0.3159
 5763TIP3    H238849   4.296   6.468   1.315 -0.3046 -1.1994  1.1440
 5764TIP3   OH238850   6.269   1.440   0.038  0.3955  0.2355  0.2972
 5764TIP3    H138851   6.218   1.493   0.099 -0.3011  0.6787 -0.6448
 5764TIP3    H238852   6.350   1.490   0.025  0.2014  0.5376  0.2413
 5765TIP3   OH238853   1.247   5.145   2.369 -0.1798  0.0781  0.1246
 5765TIP3    H138854   1.257   5.186   2.455  1.6090 -0.6554  0.2972
 5765TIP3    H238855   1.335   5.116   2.345 -0.8430 -0.7838 -1.4338
 5766TIP3   OH238856   0.543   6.484   8.524  0.5093  0.1366  0.7321
 5766TIP3    H138857   0.593   6.510   8.602  1.7611  0.1910 -0.0501
 5766TIP3    H238858   0.527   6.566   8.478  3.8941 -0.1959 -1.4074
 5767TIP3   OH238859   4.517   5.706   6.434  0.7829  0.6453 -0.2310
 5767TIP3    H138860   4.540   5.617   6.462 -0.7733 -0.0600 -1.0330
 5767TIP3    H238861   4.432   5.696   6.391  0.0389  2.6951  0.6046
 5768TIP3   OH238862   3.825   4.214   7.193 -0.1939 -0.5856 -0.9960
 5768TIP3    H138863   3.781   4.289   7.152 -1.2711 -1.6847 -1.9321
 5768TIP3    H238864   3.899   4.253   7.240 -0.2593  0.9834 -2.0907
 5769TIP3   OH238865   6.570   6.708   8.405 -0.0164 -0.2981 -0.4374
 5769TIP3    H138866   6.527   6.626   8.427 -1.0903 -0.0576 -1.5294
 5769TIP3    H238867   6.538   6.728   8.317  1.3022  0.5848 -0.7374
 5770TIP3   OH238868   6.128   5.191   8.441 -0.3407 -0.5331 -0.0669
 5770TIP3    H138869   6.041   5.166   8.470 -0.3103  0.4815  0.9863
 5770TIP3    H238870   6.146   5.273   8.487  2.0428 -1.8107  1.5473
 5771TIP3   OH238871   6.257   1.943   1.168  0.7567 -0.0995  0.6510
 5771TIP3    H138872   6.206   1.862   1.178  0.2546  0.3895  2.5299
 5771TIP3    H238873   6.199   2.002   1.119  0.6686 -0.5077  0.2654
 5772TIP3   OH238874   1.636   6.650   7.402  0.0297 -0.2517  0.3238
 5772TIP3    H138875   1.575   6.647   7.328 -0.4754  0.3773  0.7030
 5772TIP3    H238876   1.710   6.701   7.369 -1.3591  2.4220  1.0327
 5773TIP3   OH238877   6.298   6.320   1.210 -0.3657 -0.4045  0.3044
 5773TIP3    H138878   6.304   6.266   1.131 -1.2003  0.4629 -0.3725
 5773TIP3    H238879   6.209   6.353   1.210 -0.5784 -0.8945  1.9775
 5774TIP3   OH238880   0.147   0.871   1.607  0.2762  0.5415  0.1793
 5774TIP3    H138881   0.078   0.892   1.670  0.3788 -1.9085  1.2166
 5774TIP3    H238882   0.100   0.849   1.526 -0.3776 -2.3772  1.2316
 5775TIP3   OH238883   1.345   3.967   6.157 -0.4000  0.2961  0.6404
 5775TIP3    H138884   1.267   3.912   6.164 -0.2429 -0.0184  0.0226
 5775TIP3    H238885   1.334   4.034   6.224 -1.4656  0.5893  0.1928
 5776TIP3   OH238886   1.837   1.121   0.125  0.2188  0.6746  0.2564
 5776TIP3    H138887   1.766   1.115   0.189 -0.5606  1.4275 -0.5212
 5776TIP3    H238888   1.860   1.214   0.124  0.8678  0.5140  0.1280
 5777TIP3   OH238889   4.127   2.846   0.604 -0.1212 -0.3313 -0.1952
 5777TIP3    H138890   4.097   2.937   0.596  0.1178 -0.4236 -3.0412
 5777TIP3    H238891   4.052   2.794   0.575  0.5116 -0.8897 -0.8554
 5778TIP3   OH238892   6.586   6.110   6.533  0.2875  0.2758  0.1243
 5778TIP3    H138893   6.621   6.034   6.486  0.4984  1.4471 -1.6698
 5778TIP3    H238894   6.660   6.170   6.539 -0.2891  0.9853  0.1716
 5779TIP3   OH238895   0.881   6.659   0.672  0.0165  0.2902 -0.0931
 5779TIP3    H138896   0.967   6.656   0.630 -0.8012 -0.1936 -1.8184
 5779TIP3    H238897   0.895   6.711   0.751  2.1962 -1.0063  0.4522
 5780TIP3   OH238898   4.311   4.941   0.887  0.4673 -0.5879  0.3303
 5780TIP3    H138899   4.404   4.952   0.907  0.3444 -1.2911  1.3322
 5780TIP3    H238900   4.310   4.899   0.801  1.0017  2.2530 -1.1850
 5781TIP3   OH238901   2.771   2.014   0.294  0.3448  0.1271  0.1333
 5781TIP3    H138902   2.691   2.034   0.342  0.4751  1.6656 -0.2435
 5781TIP3    H238903   2.841   2.031   0.356  0.4350 -0.1795  0.1211
 5782TIP3   OH238904   3.710   0.252   1.529 -0.4747  0.1821 -0.4578
 5782TIP3    H138905   3.685   0.233   1.619 -0.0617  0.0628 -0.3673
 5782TIP3    H238906   3.802   0.277   1.534 -0.5984  0.7102 -0.7766
 5783TIP3   OH238907   4.500   6.632   7.568  0.3461  0.4672  0.5994
 5783TIP3    H138908   4.412   6.595   7.573  0.4175  0.0058 -0.9711
 5783TIP3    H238909   4.545   6.578   7.503  1.1184  2.0054 -0.1941
 5784TIP3   OH238910   1.533   1.242   0.022  0.2360  0.6208 -0.2671
 5784TIP3    H138911   1.614   1.279   0.056  0.3074  1.8682 -1.6499
 5784TIP3    H238912   1.487   1.317  -0.017 -0.4014 -0.4677 -1.7391
 5785TIP3   OH238913   2.081   1.428   0.942 -0.3305  0.2093  0.3327
 5785TIP3    H138914   2.000   1.393   0.978 -0.6085 -1.1363 -1.4318
 5785TIP3    H238915   2.054   1.485   0.871  0.2388 -0.1886 -0.2210
 5786TIP3   OH238916   4.390   3.527   0.014 -0.6333  0.5536  0.1383
 5786TIP3    H138917   4.331   3.465   0.057 -1.3715  1.0331 -0.1720
 5786TIP3    H238918   4.474   3.480   0.009 -0.4998  0.5192  2.1464
 5787TIP3   OH238919   2.283   3.841   0.929 -1.1946 -0.6260 -0.2158
 5787TIP3    H138920   2.249   3.784   0.860 -2.4648 -0.4514  0.2334
 5787TIP3    H238921   2.205   3.869   0.977 -0.3916 -0.2422  0.9022
 5788TIP3   OH238922   3.057   1.321   0.157 -0.3530  0.0855  0.1667
 5788TIP3    H138923   3.033   1.234   0.188  0.7661  0.2460  1.5938
 5788TIP3    H238924   2.979   1.354   0.113 -1.0017 -1.3730  0.1914
 5789TIP3   OH238925   3.116   2.288   2.130  0.1864  0.5385 -0.0456
 5789TIP3    H138926   3.070   2.288   2.214  0.8009  0.6521  0.2989
 5789TIP3    H238927   3.194   2.235   2.145 -0.5357 -0.8674 -1.0316
 5790TIP3   OH238928   2.362   2.480   8.139 -0.2005  0.7074  0.1758
 5790TIP3    H138929   2.414   2.518   8.069 -1.5489  0.9205 -0.7445
 5790TIP3    H238930   2.279   2.527   8.136 -1.2484 -1.0353  0.1970
 5791TIP3   OH238931   6.607   1.482   6.956  0.2724  0.5072  0.2527
 5791TIP3    H138932   6.690   1.452   6.919  0.2164  0.0320  0.5015
 5791TIP3    H238933   6.563   1.401   6.984 -0.6587  0.6683 -0.6830
 5792TIP3   OH238934   5.747   0.928   7.402  0.4301 -0.5219  0.3592
 5792TIP3    H138935   5.691   0.853   7.424  1.8369 -1.7007  0.1372
 5792TIP3    H238936   5.836   0.898   7.423  1.0087  1.2187  0.5574
 5793TIP3   OH238937   6.375   2.791   8.213 -0.3069  0.8407  0.1717
 5793TIP3    H138938   6.373   2.827   8.125 -0.5864 -0.2728 -0.2899
 5793TIP3    H238939   6.289   2.750   8.225  1.9903 -6.1788 -2.2130
 5794TIP3   OH238940   1.043   2.585   6.729 -0.1019 -0.2143 -0.7550
 5794TIP3    H138941   1.083   2.672   6.731  0.2578 -0.3850 -0.3979
 5794TIP3    H238942   1.009   2.572   6.817  0.0567 -0.5340 -0.7399
 5795TIP3   OH238943   3.028   1.047   6.082 -0.3585 -0.5754  0.7272
 5795TIP3    H138944   3.034   0.988   6.007 -0.5102  1.8387 -1.3268
 5795TIP3    H238945   3.007   0.991   6.156  0.6040 -3.1872 -0.8615
 5796TIP3   OH238946   5.739   1.632   7.163  0.4190  0.4009 -0.5459
 5796TIP3    H138947   5.720   1.725   7.148 -0.4621  0.2324 -0.5531
 5796TIP3    H238948   5.783   1.629   7.247  0.5224  0.8369 -0.5842
 5797TIP3   OH238949   3.516   0.869   8.687 -0.2895 -0.5099  0.4095
 5797TIP3    H138950   3.468   0.908   8.760 -1.0028 -0.7772  0.0964
 5797TIP3    H238951   3.448   0.844   8.624  0.2186 -1.3192  0.1574
 5798TIP3   OH238952   4.190   1.110   0.447 -0.7559  0.1793 -0.7839
 5798TIP3    H138953   4.165   1.025   0.484  0.1494 -0.0591 -0.6863
 5798TIP3    H238954   4.278   1.126   0.481 -1.0142  1.2920 -0.5872
 5799TIP3   OH238955   2.296   5.662   8.027  0.0708 -0.3121 -0.0478
 5799TIP3    H138956   2.376   5.616   8.001  0.7315  0.5603  0.3789
 5799TIP3    H238957   2.247   5.673   7.946  1.5067  1.2561 -0.7850
 5800TIP3   OH238958   5.605   5.101   8.582  0.4075 -0.7898 -0.5995
 5800TIP3    H138959   5.571   5.072   8.497 -0.0287  0.4636 -0.8666
 5800TIP3    H238960   5.563   5.042   8.645  0.8908 -1.8639 -1.2455
 5801TIP3   OH238961   2.413   3.260   1.547  0.4171 -0.1433 -0.3281
 5801TIP3    H138962   2.336   3.299   1.589  0.7905 -0.7801  0.9783
 5801TIP3    H238963   2.386   3.172   1.524  0.1980  0.2157 -1.5271
 5802TIP3   OH238964   2.000   4.433   0.802 -0.0144  0.0816  0.2422
 5802TIP3    H138965   2.030   4.524   0.802  0.6974 -0.0778 -2.1245
 5802TIP3    H238966   2.069   4.385   0.756  0.0900 -1.8649  2.2727
 5803TIP3   OH238967   3.386   2.791   2.154 -0.0279 -0.1320  0.1777
 5803TIP3    H138968   3.310   2.776   2.210 -0.3259 -2.6418 -0.7560
 5803TIP3    H238969   3.351   2.839   2.079 -1.3858 -3.3440 -1.4337
 5804TIP3   OH238970   1.583   5.042   8.019 -0.5395  0.1685 -0.0187
 5804TIP3    H138971   1.500   5.089   8.023  0.5304  2.1390  0.1775
 5804TIP3    H238972   1.591   5.000   8.105 -0.5713  1.3943  0.6116
 5805TIP3   OH238973   4.860   6.320   1.313 -0.2634 -0.9665  0.4052
 5805TIP3    H138974   4.865   6.249   1.377  0.3748 -0.4236  0.9714
 5805TIP3    H238975   4.876   6.400   1.364 -2.5489 -0.2305  0.0635
 5806TIP3   OH238976   1.093   3.922   1.345  0.1807  0.3517  0.4428
 5806TIP3    H138977   1.106   3.924   1.440  1.1796 -0.0770  0.3274
 5806TIP3    H238978   1.017   3.979   1.330 -0.3431 -0.0284  1.5482
 5807TIP3   OH238979   5.200   3.058   0.290  0.0948 -0.1269 -0.2600
 5807TIP3    H138980   5.188   3.048   0.196  1.1087 -1.1182 -0.3025
 5807TIP3    H238981   5.293   3.076   0.301  0.5968 -2.8727  0.7194
 5808TIP3   OH238982   4.997   3.587   1.023  0.2267 -0.6967 -0.3188
 5808TIP3    H138983   4.979   3.667   0.973 -0.8519 -0.0773  1.0021
 5808TIP3    H238984   4.984   3.516   0.961 -0.2280  0.0867 -1.1446
 5809TIP3   OH238985   4.619   6.260   1.186 -0.0324  0.2153  0.2804
 5809TIP3    H138986   4.695   6.304   1.226  1.3687 -1.3889 -0.5067
 5809TIP3    H238987   4.616   6.294   1.096  0.1571 -0.2147  0.1114
 5810TIP3   OH238988   5.744   3.431   6.969  0.3082  0.7240  0.5339
 5810TIP3    H138989   5.682   3.487   6.922 -0.0813  0.4639  0.7395
 5810TIP3    H238990   5.725   3.342   6.937 -0.6074  0.4148  1.8858
 5811TIP3   OH238991   5.978   6.587   1.824 -0.5491  0.3141  0.0594
 5811TIP3    H138992   5.958   6.518   1.762 -0.3823  1.3314 -1.1547
 5811TIP3    H238993   6.028   6.543   1.894 -2.8014 -1.3143  0.7438
 5812TIP3   OH238994   6.245   6.107   7.074 -0.4690  0.2194 -0.1842
 5812TIP3    H138995   6.304   6.039   7.042  0.2031  0.6278  0.1703
 5812TIP3    H238996   6.212   6.073   7.158 -2.0303 -0.7345 -1.1250
 5813TIP3   OH238997   6.627   2.925   1.888  0.2081 -0.3471 -0.5928
 5813TIP3    H138998   6.535   2.898   1.883  0.3526 -1.2283  0.9663
 5813TIP3    H238999   6.634   2.998   1.826 -1.1066 -1.4193 -2.0820
 5814TIP3   OH239000   3.666   0.926   0.599  0.1092  0.4387 -0.2812
 5814TIP3    H139001   3.576   0.917   0.629 -0.0309 -0.3348 -0.9028
 5814TIP3    H239002   3.712   0.852   0.639  0.8063  1.6318  1.2051
 5815TIP3   OH239003   5.837   5.113   0.995  0.6414  0.4811  0.4843
 5815TIP3    H139004   5.830   5.041   1.058  1.8065  0.5330  0.6945
 5815TIP3    H239005   5.892   5.077   0.924 -2.7215 -0.4966 -1.8832
 5816TIP3   OH239006   3.958   4.583   6.786  0.2179  0.0584 -0.0713
 5816TIP3    H139007   4.030   4.523   6.762 -0.1005  0.0784 -1.1005
 5816TIP3    H239008   3.931   4.622   6.704  0.0532  1.2316  0.5282
 5817TIP3   OH239009   6.529   1.742   6.986 -0.4500 -0.2261  0.1932
 5817TIP3    H139010   6.565   1.654   6.972 -0.3161  0.0753 -1.5469
 5817TIP3    H239011   6.545   1.788   6.904 -2.4743  0.7591  0.2854
 5818TIP3   OH239012   5.313   5.701   8.765  0.4325 -0.2828  0.5231
 5818TIP3    H139013   5.363   5.621   8.781 -0.3110 -0.6710  0.9307
 5818TIP3    H239014   5.363   5.769   8.810  1.2768 -0.4354 -0.1541
 5819TIP3   OH239015   5.854   5.729   0.063 -0.3982  0.0791  0.2937
 5819TIP3    H139016   5.943   5.730   0.028 -0.5964  2.5582 -0.3164
 5819TIP3    H239017   5.865   5.744   0.157 -0.1380 -0.1003  0.2915
 5820TIP3   OH239018   0.726   3.079   6.893 -0.6724 -0.3226  0.0167
 5820TIP3    H139019   0.756   3.169   6.880  1.8103 -1.1949 -0.9981
 5820TIP3    H239020   0.690   3.077   6.981 -1.4667  1.8071 -0.2152
 5821TIP3   OH239021   3.599   4.956   7.634 -0.5919  0.2548 -0.3910
 5821TIP3    H139022   3.566   5.023   7.693  1.2818  0.7127  0.2249
 5821TIP3    H239023   3.617   4.881   7.690 -0.7398 -0.0359 -0.7294
 5822TIP3   OH239024   5.487   4.193   0.360  0.0505  0.0898  1.0212
 5822TIP3    H139025   5.448   4.197   0.447 -1.5950  0.6072  0.3021
 5822TIP3    H239026   5.412   4.201   0.300  1.1401 -0.2576 -0.4345
 5823TIP3   OH239027   0.036   2.672   0.976  0.0874 -0.1167 -0.1073
 5823TIP3    H139028   0.029   2.586   1.018 -0.2008 -0.0917 -0.1047
 5823TIP3    H239029  -0.044   2.681   0.925  0.1565  0.1131 -0.1774
 5824TIP3   OH239030   5.787   3.245   8.101 -0.1842 -0.0085  0.0462
 5824TIP3    H139031   5.729   3.212   8.033  0.5165  1.8181 -1.5318
 5824TIP3    H239032   5.860   3.182   8.102 -0.8879 -0.8376  0.1448
 5825TIP3   OH239033   5.952   6.645   7.270 -0.4732 -0.1440 -0.0808
 5825TIP3    H139034   5.870   6.601   7.294 -0.4091 -0.3675 -0.2712
 5825TIP3    H239035   6.003   6.577   7.226 -1.1550  0.5932 -2.1354
 5826TIP3   OH239036   3.146   4.853   1.892  0.1346  0.5077  0.0254
 5826TIP3    H139037   3.187   4.767   1.894  1.3191  1.0729  0.8450
 5826TIP3    H239038   3.167   4.887   1.805 -1.7369 -0.6458 -0.9525
 5827TIP3   OH239039   5.239   2.444   0.675 -0.6441  0.1116  0.2707
 5827TIP3    H139040   5.244   2.428   0.581  3.7000  1.4258  0.0154
 5827TIP3    H239041   5.208   2.535   0.682 -1.7660 -0.2565  0.1958
 5828TIP3   OH239042   4.275   0.872   2.268 -0.5913  0.2797  0.5454
 5828TIP3    H139043   4.227   0.929   2.328  1.2736  1.8121  0.6843
 5828TIP3    H239044   4.223   0.871   2.188 -1.7623  0.3637  1.2786
 5829TIP3   OH239045   0.024   1.634   7.120  0.3536 -0.4660  0.3587
 5829TIP3    H139046  -0.037   1.575   7.076  1.3912 -1.0028 -0.3922
 5829TIP3    H239047   0.096   1.577   7.149  0.6974  0.2147  0.8707
 5830TIP3   OH239048   0.173   1.197   1.432  0.4814  0.3437 -0.2276
 5830TIP3    H139049   0.137   1.284   1.416  0.0440  0.3532  0.7790
 5830TIP3    H239050   0.256   1.213   1.477  0.1873  0.2325  0.3608
 5831TIP3   OH239051   2.698   1.656   1.455  0.1978  0.0552  0.2914
 5831TIP3    H139052   2.654   1.640   1.372 -0.7453  0.1371  0.7560
 5831TIP3    H239053   2.745   1.738   1.442 -2.6903  1.9684  0.8261
 5832TIP3   OH239054   6.629   5.398   1.161  0.1973 -0.3025  0.1389
 5832TIP3    H139055   6.670   5.318   1.192 -1.2323 -0.3531  2.0694
 5832TIP3    H239056   6.655   5.465   1.224 -0.1525  0.3412 -0.3855
 5833TIP3   OH239057   0.461   1.596   8.755 -0.1030  0.2956 -0.1783
 5833TIP3    H139058   0.384   1.555   8.794 -0.5447  1.5364  0.3083
 5833TIP3    H239059   0.502   1.644   8.828 -0.2061  1.5783 -0.9341
 5834TIP3   OH239060   0.934   6.623   1.036  0.2764 -0.1390  0.5201
 5834TIP3    H139061   0.966   6.548   0.986 -0.7046 -0.5212  0.4439
 5834TIP3    H239062   0.963   6.699   0.986  0.9172 -0.4704  0.3748
 5835TIP3   OH239063   1.535   6.573   8.059 -0.1210  0.0314 -0.4935
 5835TIP3    H139064   1.549   6.510   7.989 -0.9004 -2.1463  1.1919
 5835TIP3    H239065   1.550   6.523   8.140 -0.5669  2.0693  0.9294
 5836TIP3   OH239066   2.045   1.414   0.171  0.4815  0.1533  0.8433
 5836TIP3    H139067   2.130   1.372   0.161  1.0365  1.7719 -2.8985
 5836TIP3    H239068   2.065   1.500   0.209  0.0302 -0.6358  3.0080
 5837TIP3   OH239069   1.455   6.118   7.769  0.5217 -0.6124  0.0131
 5837TIP3    H139070   1.494   6.034   7.794 -0.7738 -0.9385  1.0233
 5837TIP3    H239071   1.362   6.099   7.758  0.4451  0.3658 -1.3545
 5838TIP3   OH239072   3.497   4.773   1.943  0.1952  0.2608 -0.9843
 5838TIP3    H139073   3.451   4.691   1.924 -0.3075  0.2620  0.1880
 5838TIP3    H239074   3.558   4.751   2.013 -0.6529  1.1077  0.0444
 5839TIP3   OH239075   2.508   1.029   8.272 -0.0756  0.2654  0.1933
 5839TIP3    H139076   2.474   1.053   8.358 -0.2813 -0.3979  0.3003
 5839TIP3    H239077   2.544   1.111   8.237  0.8102  0.3534  1.2755
 5840TIP3   OH239078   2.255   2.919   0.877 -0.0541 -0.4105 -0.9396
 5840TIP3    H139079   2.241   2.898   0.784 -0.9806 -0.2177 -0.8543
 5840TIP3    H239080   2.202   2.854   0.924 -2.2193  1.4670 -0.6499
 5841TIP3   OH239081   1.658   3.130   1.182 -0.5553 -0.5344 -0.3084
 5841TIP3    H139082   1.706   3.201   1.226  0.8201 -1.2234 -0.6484
 5841TIP3    H239083   1.653   3.060   1.247 -1.1591 -0.4602 -0.2648
 5842TIP3   OH239084   3.130   6.623   6.616 -0.3088  0.9363 -0.4617
 5842TIP3    H139085   3.092   6.589   6.536  0.6012  1.2438 -1.0391
 5842TIP3    H239086   3.142   6.717   6.600  3.2352  0.4723 -1.4300
 5843TIP3   OH239087   4.156   5.796   8.031  0.0860 -0.2394  0.4064
 5843TIP3    H139088   4.174   5.820   7.940 -1.6221 -1.3669 -0.2746
 5843TIP3    H239089   4.067   5.761   8.030  0.5853 -1.7693  2.2376
 5844TIP3   OH239090   2.582   2.531   7.336  0.1335 -0.0550 -0.5824
 5844TIP3    H139091   2.495   2.496   7.357  0.0280  0.3208 -0.3913
 5844TIP3    H239092   2.628   2.533   7.420 -0.5033  2.0620 -0.2236
 5845TIP3   OH239093   0.833   2.587   0.979 -0.3194  0.9587  0.3521
 5845TIP3    H139094   0.738   2.578   0.986 -0.1773 -0.3202  0.8884
 5845TIP3    H239095   0.848   2.620   0.890 -1.3350  2.7740  0.8180
 5846TIP3   OH239096   0.900   3.277   8.140  0.4425 -0.0385 -0.2340
 5846TIP3    H139097   0.995   3.268   8.134  0.6505  0.9015  1.2292
 5846TIP3    H239098   0.866   3.200   8.094  1.8988 -0.3943 -0.7757
 5847TIP3   OH239099   5.081   4.325   0.606  0.2794 -0.1444  0.1667
 5847TIP3    H139100   5.139   4.258   0.572 -0.0057 -1.3087  1.8560
 5847TIP3    H239101   5.123   4.355   0.686 -0.1758  0.8775  0.0379
 5848TIP3   OH239102   1.198   5.032   8.768 -0.1524 -0.2636  0.2509
 5848TIP3    H139103   1.166   5.018   8.679  0.8596  1.6216 -0.4636
 5848TIP3    H239104   1.170   4.954   8.815 -2.2625 -0.5204 -1.2599
 5849TIP3   OH239105   6.516   2.215   2.166  0.7134  0.6827  0.6299
 5849TIP3    H139106   6.422   2.231   2.170  0.3980 -0.7990 -0.2211
 5849TIP3    H239107   6.536   2.161   2.243  0.0184 -2.6302 -1.3072
 5850TIP3   OH239108   6.188   0.683   0.537  0.5255  0.2000  0.1299
 5850TIP3    H139109   6.254   0.682   0.607  0.2928 -0.9996  0.3541
 5850TIP3    H239110   6.124   0.617   0.564  0.0954  0.1800 -0.9118
 5851TIP3   OH239111   3.530   2.666   6.891 -0.4343  0.0419  0.1664
 5851TIP3    H139112   3.509   2.596   6.953 -2.1500 -2.3209 -2.7629
 5851TIP3    H239113   3.600   2.630   6.836 -1.3971  0.5063 -1.4557
 5852TIP3   OH239114   5.202   6.249   1.495 -0.0651  0.2664  0.0801
 5852TIP3    H139115   5.119   6.269   1.538 -0.6469 -1.6354 -0.0496
 5852TIP3    H239116   5.197   6.156   1.475  0.9653  0.6467 -2.4026
 5853TIP3   OH239117   1.768   5.421   0.640  0.6301 -0.3571 -0.3833
 5853TIP3    H139118   1.690   5.409   0.587 -1.6442  1.5426  2.2519
 5853TIP3    H239119   1.779   5.338   0.687 -0.9011 -0.0800  0.5092
 5854TIP3   OH239120   5.016   2.971   8.385  0.4837 -0.3685 -0.3611
 5854TIP3    H139121   5.080   2.954   8.315  0.8987 -0.2769 -0.0073
 5854TIP3    H239122   5.026   2.896   8.444  1.0027  0.1563  0.2353
 5855TIP3   OH239123   6.239   5.939   1.328 -0.4832 -0.4240 -0.5266
 5855TIP3    H139124   6.251   5.864   1.387 -0.6335 -1.1379 -1.3841
 5855TIP3    H239125   6.323   5.947   1.282  0.2915  1.2912  1.0590
 5856TIP3   OH239126   4.546   2.980   1.796  0.4541  0.3027 -0.0750
 5856TIP3    H139127   4.508   3.057   1.754  1.9022  1.1075  0.0371
 5856TIP3    H239128   4.636   3.005   1.816  1.3673 -1.8397 -1.1550
 5857TIP3   OH239129   3.786   4.579   6.232  0.4347 -0.3776 -0.0044
 5857TIP3    H139130   3.847   4.542   6.168  0.6102 -1.5359  0.7938
 5857TIP3    H239131   3.838   4.640   6.283  0.5002 -0.0824 -0.4231
 5858TIP3   OH239132   6.123   2.173   8.612 -0.4372 -0.1320 -0.8837
 5858TIP3    H139133   6.113   2.129   8.696 -0.9326 -1.3167 -1.5330
 5858TIP3    H239134   6.193   2.124   8.568 -0.2304  0.4319 -1.1860
 5859TIP3   OH239135   2.522   1.753   7.619  0.2369  0.3775 -0.1152
 5859TIP3    H139136   2.514   1.688   7.689  0.6901 -0.2915 -0.6572
 5859TIP3    H239137   2.437   1.796   7.616  0.4388  0.9052  1.2969
 5860TIP3   OH239138   0.820   0.451   8.737  0.3852 -0.6301  0.2639
 5860TIP3    H139139   0.740   0.411   8.770  0.8108 -4.9835 -3.0122
 5860TIP3    H239140   0.809   0.453   8.642  3.8856 -0.9297 -0.3161
 5861TIP3   OH239141   5.678   6.310   7.113  0.4945 -0.0907  0.1361
 5861TIP3    H139142   5.684   6.406   7.116 -0.7887  0.0081  0.1929
 5861TIP3    H239143   5.657   6.291   7.021  0.5349 -0.3001  0.1715
 5862TIP3   OH239144   4.454   0.132   7.470 -0.1734 -0.5137 -0.2674
 5862TIP3    H139145   4.462   0.165   7.559  1.5162  1.0361 -0.9377
 5862TIP3    H239146   4.399   0.053   7.479 -0.3656 -0.1971  2.0512
 5863TIP3   OH239147   5.093   6.099   2.156  0.6095 -0.0539  0.1803
 5863TIP3    H139148   5.122   6.134   2.241 -0.1341  1.8241 -0.2788
 5863TIP3    H239149   5.101   6.174   2.096 -0.9872 -0.7043 -0.9092
 5864TIP3   OH239150   1.377   5.884   6.767 -0.6822  0.3226 -0.3410
 5864TIP3    H139151   1.421   5.947   6.711  0.1274 -0.2135 -0.3169
 5864TIP3    H239152   1.338   5.821   6.707  1.2585 -0.9803 -0.3344
 5865TIP3   OH239153   6.565   0.063   1.368  0.0184  0.2414 -0.5221
 5865TIP3    H139154   6.513  -0.005   1.411 -0.9268 -0.6599 -2.8716
 5865TIP3    H239155   6.599   0.021   1.289 -1.5967  2.7088 -2.7380
 5866TIP3   OH239156   6.104   1.236   7.108  0.6863 -0.2770  0.3261
 5866TIP3    H139157   6.044   1.308   7.128  0.1559 -0.2970 -1.0426
 5866TIP3    H239158   6.159   1.271   7.037  1.6626 -0.6012  0.8941
 5867TIP3   OH239159   4.278   0.119   1.713 -0.4032  0.3339  0.0847
 5867TIP3    H139160   4.217   0.068   1.766 -0.2474 -0.9610 -0.9135
 5867TIP3    H239161   4.283   0.071   1.630  1.8602  0.4577  0.0763
 5868TIP3   OH239162   5.300   4.453   1.392 -0.0495  0.3226  0.6932
 5868TIP3    H139163   5.224   4.398   1.374 -0.0875  0.5144  0.2521
 5868TIP3    H239164   5.362   4.430   1.323 -0.0412  0.7880  0.5471
 5869TIP3   OH239165   0.649   3.561   6.704 -0.1176 -0.3750  0.2021
 5869TIP3    H139166   0.699   3.559   6.785 -0.0194  0.3983  0.1657
 5869TIP3    H239167   0.577   3.621   6.722  0.4830  0.6176 -0.6017
 5870TIP3   OH239168   4.235   2.849   7.780  0.3828  0.2887 -0.4332
 5870TIP3    H139169   4.232   2.761   7.817  3.0134 -0.2411 -1.2578
 5870TIP3    H239170   4.229   2.907   7.855  0.1247 -0.6140  0.2704
 5871TIP3   OH239171   0.305   0.467   2.096 -0.0786 -0.3019  0.5951
 5871TIP3    H139172   0.384   0.488   2.145 -0.9382 -0.7357  2.2288
 5871TIP3    H239173   0.304   0.372   2.090  0.3623 -0.2455 -0.9252
 5872TIP3   OH239174   6.634   5.521   0.308 -0.5817 -0.4378  0.2395
 5872TIP3    H139175   6.582   5.525   0.388 -0.3230  2.3236  0.3544
 5872TIP3    H239176   6.577   5.479   0.244 -2.0995  0.4305  0.9723
 5873TIP3   OH239177   3.249   6.416   6.771  0.1695  0.4210 -0.1294
 5873TIP3    H139178   3.209   6.488   6.721 -0.0556  0.2541 -0.1880
 5873TIP3    H239179   3.175   6.365   6.802  0.3534 -1.5944 -2.6922
 5874TIP3   OH239180   2.302   5.436   7.222 -0.8118  0.7435 -0.5577
 5874TIP3    H139181   2.233   5.457   7.159 -0.1455 -1.0170 -1.9811
 5874TIP3    H239182   2.379   5.481   7.189 -1.2412  2.8154  1.1061
 5875TIP3   OH239183   5.962   1.363   6.664  0.3017 -0.9426 -0.4160
 5875TIP3    H139184   5.871   1.334   6.666  0.1485 -0.4655 -0.3332
 5875TIP3    H239185   5.972   1.404   6.578  0.4609 -1.0566 -0.4526
 5876TIP3   OH239186   3.556   1.096   2.076  0.2967  0.3811  0.1014
 5876TIP3    H139187   3.591   1.153   2.144  0.6344 -0.5273  0.7115
 5876TIP3    H239188   3.470   1.070   2.107  0.2830  0.2865 -0.0126
 5877TIP3   OH239189   2.971   5.670   8.357 -0.0322  0.2476  0.4194
 5877TIP3    H139190   2.901   5.732   8.336 -0.2254 -0.0267  0.2519
 5877TIP3    H239191   2.932   5.612   8.423 -0.1687 -0.2946 -0.1344
 5878TIP3   OH239192   2.919   3.284   0.169  0.2153  0.5799  0.2996
 5878TIP3    H139193   2.983   3.332   0.222  1.1511  0.3939 -0.6212
 5878TIP3    H239194   2.917   3.332   0.085  3.1546 -2.2676 -1.6776
 5879TIP3   OH239195   1.470   5.636   7.260  0.2514  0.4332  0.6109
 5879TIP3    H139196   1.450   5.642   7.166  2.7841  1.0582  0.0334
 5879TIP3    H239197   1.459   5.726   7.292  1.3661  0.6665  0.4059
 5880TIP3   OH239198   6.007   3.536   1.889  0.0898  0.2150 -0.7028
 5880TIP3    H139199   5.941   3.513   1.953 -1.4195  1.7704 -1.6266
 5880TIP3    H239200   5.973   3.503   1.806  0.8551  0.3394 -1.0817
 5881TIP3   OH239201   2.189   0.606   1.366 -0.1080 -0.3013 -0.3218
 5881TIP3    H139202   2.206   0.670   1.435  0.2320  0.6568 -1.2610
 5881TIP3    H239203   2.186   0.522   1.411 -1.7263  0.4673  1.1203
 5882TIP3   OH239204   2.712   4.568   1.625 -0.0940  0.4165  0.8726
 5882TIP3    H139205   2.747   4.503   1.564  1.1248 -0.4919  2.4350
 5882TIP3    H239206   2.773   4.566   1.699 -0.5282  2.7107  1.3838
 5883TIP3   OH239207   5.956   3.050   8.271  0.2831  0.1514  0.5677
 5883TIP3    H139208   5.967   2.972   8.325 -0.8106 -0.8998 -0.6321
 5883TIP3    H239209   6.042   3.090   8.268  1.0158 -1.3507  0.7378
 5884TIP3   OH239210   4.109   4.624   7.408  0.1935  0.4565  0.2888
 5884TIP3    H139211   4.072   4.655   7.490  2.4255  3.6954  0.2750
 5884TIP3    H239212   4.069   4.678   7.341 -1.4858 -2.0436 -0.8962
 5885TIP3   OH239213   4.993   1.270   0.135 -0.1367 -0.2139 -0.2587
 5885TIP3    H139214   5.051   1.198   0.112 -0.1351 -0.3268  0.0914
 5885TIP3    H239215   5.032   1.347   0.092  0.3734 -0.2553  0.1141
 5886TIP3   OH239216   0.905   3.283   5.947  0.0386 -0.1499  0.0092
 5886TIP3    H139217   0.917   3.374   5.917  1.5346 -0.6171 -0.9718
 5886TIP3    H239218   0.883   3.234   5.868  1.2508 -0.9583  0.1436
 5887TIP3   OH239219   4.845   2.897   6.989  0.3161  0.6131 -0.6033
 5887TIP3    H139220   4.772   2.909   7.051  0.0346  0.1884 -0.8532
 5887TIP3    H239221   4.806   2.914   6.903  0.2213 -0.7831 -0.8502
 5888TIP3   OH239222   6.369   5.094   7.286 -0.2575 -0.3087  0.0891
 5888TIP3    H139223   6.407   5.181   7.285  1.8045 -1.1431  1.2180
 5888TIP3    H239224   6.418   5.045   7.219 -0.3435 -1.0094  0.5247
 5889TIP3   OH239225   5.569   5.458   0.814 -0.3387 -0.5283  0.4429
 5889TIP3    H139226   5.549   5.382   0.869 -0.3172 -0.8511  0.0112
 5889TIP3    H239227   5.658   5.443   0.783 -0.9329 -1.2316 -1.0698
 5890TIP3   OH239228   5.245   1.882   6.732  0.9694  0.4846  0.0339
 5890TIP3    H139229   5.214   1.951   6.791  0.5975 -0.7925  1.3738
 5890TIP3    H239230   5.195   1.896   6.651  0.4624  1.4083  0.4860
 5891TIP3   OH239231   3.977   0.859   8.100 -0.1312 -0.2618  0.1636
 5891TIP3    H139232   3.921   0.932   8.127 -0.4354  0.3639 -1.9227
 5891TIP3    H239233   4.066   0.889   8.118 -0.3479 -0.8987  2.6591
 5892TIP3   OH239234   3.367   3.581   2.389 -0.1571 -0.1510  0.2085
 5892TIP3    H139235   3.379   3.650   2.453 -0.0085 -0.8248  0.9220
 5892TIP3    H239236   3.274   3.586   2.365 -0.2006  0.1297  0.4359
 5893TIP3   OH239237   3.242   6.028   7.784 -0.0680 -0.2768 -0.4745
 5893TIP3    H139238   3.216   6.003   7.696 -1.0528  1.0026 -0.5714
 5893TIP3    H239239   3.174   6.089   7.813 -1.2298 -2.6178  2.1950
 5894TIP3   OH239240   2.830   0.084   1.935  0.0182  0.1596 -0.1561
 5894TIP3    H139241   2.879   0.161   1.907  1.3471 -0.3358  0.7268
 5894TIP3    H239242   2.760   0.075   1.870  1.3214  0.6707 -1.6901
 5895TIP3   OH239243   5.098   1.515   1.712 -0.0012  0.4073 -0.6959
 5895TIP3    H139244   5.073   1.425   1.728 -0.1866  0.8048  1.4690
 5895TIP3    H239245   5.026   1.552   1.661 -1.1670  0.0230  0.6446
 5896TIP3   OH239246   6.313   0.333   2.183  0.2723  0.2449 -0.2861
 5896TIP3    H139247   6.355   0.360   2.264  1.7170  1.2072 -1.3140
 5896TIP3    H239248   6.361   0.378   2.114 -1.8181  0.5856 -1.6170
 5897TIP3   OH239249   1.695   1.365   0.235 -0.1008 -0.0090 -0.0822
 5897TIP3    H139250   1.640   1.415   0.296 -0.4604 -0.2468 -0.2081
 5897TIP3    H239251   1.784   1.374   0.271 -0.3482 -0.4012  0.6531
 5898TIP3   OH239252   2.681   6.351   1.794  0.0690  0.5986 -0.1866
 5898TIP3    H139253   2.770   6.384   1.790  0.4510 -0.4222 -0.5914
 5898TIP3    H239254   2.664   6.338   1.887  0.5643  0.2583 -0.1370
 5899TIP3   OH239255   6.579   1.736   2.357 -0.5944 -0.1728  0.4961
 5899TIP3    H139256   6.557   1.665   2.296 -1.0571  0.4459 -0.0659
 5899TIP3    H239257   6.591   1.692   2.441  0.5768 -1.1174 -0.1203
 5900TIP3   OH239258   2.786   5.302   1.134  0.5701  0.0954  0.0926
 5900TIP3    H139259   2.739   5.372   1.088 -0.0261 -0.1975  0.2562
 5900TIP3    H239260   2.875   5.306   1.098  0.5264  0.8874  0.0462
 5901TIP3   OH239261   4.372   3.001   1.433  0.0816  0.3191 -0.4544
 5901TIP3    H139262   4.372   3.030   1.524  0.0177  3.9198 -1.4805
 5901TIP3    H239263   4.446   3.046   1.393  0.0130 -1.0649 -2.2686
 5902TIP3   OH239264   3.178   0.909   1.697  0.3125 -0.2185  0.2146
 5902TIP3    H139265   3.261   0.942   1.732  0.9694 -0.5103 -1.0351
 5902TIP3    H239266   3.140   0.859   1.770 -0.1294  2.1741  1.7477
 5903TIP3   OH239267   3.767   0.669   0.599 -0.1048 -0.2466  1.0631
 5903TIP3    H139268   3.839   0.711   0.553 -1.8726  0.9724 -0.7353
 5903TIP3    H239269   3.809   0.603   0.654  2.4050  0.8571  0.6004
 5904TIP3   OH239270   2.167   0.113   6.759  0.1159  0.8426 -0.6218
 5904TIP3    H139271   2.130   0.045   6.702 -1.8226 -1.0045  2.5515
 5904TIP3    H239272   2.166   0.192   6.705 -0.5881 -0.9539 -3.4453
 5905TIP3   OH239273   2.402   3.402   0.676 -0.0791  0.2165 -0.0972
 5905TIP3    H139274   2.478   3.399   0.735 -0.8598 -2.0922  0.9049
 5905TIP3    H239275   2.438   3.383   0.589  0.5333 -0.6405  0.3308
 5906TIP3   OH239276   4.621   3.953   6.209 -0.5343  0.0899 -0.6455
 5906TIP3    H139277   4.557   3.937   6.278 -0.5740  1.1425 -0.4200
 5906TIP3    H239278   4.667   4.032   6.238  0.7889 -0.5805 -0.8584
 5907TIP3   OH239279   5.002   4.442   8.372 -0.0126 -0.8509  0.4042
 5907TIP3    H139280   4.987   4.536   8.378 -1.0737 -0.9929  0.2413
 5907TIP3    H239281   4.933   4.411   8.313 -0.9379 -2.0158  2.0171
 5908TIP3   OH239282   5.323   0.552   7.356 -0.4534  0.0028  0.6315
 5908TIP3    H139283   5.396   0.606   7.325 -1.0853  1.4289  1.5168
 5908TIP3    H239284   5.287   0.512   7.277  1.1015 -0.5324  0.1497
 5909TIP3   OH239285   0.301   0.147   6.975 -0.3497  0.0805 -0.4069
 5909TIP3    H139286   0.215   0.174   7.007  0.0401  1.4663 -0.4891
 5909TIP3    H239287   0.321   0.207   6.903  1.2329  0.6218  0.4289
 5910TIP3   OH239288   0.765   4.840   1.000 -0.2550  0.7015  0.1587
 5910TIP3    H139289   0.763   4.932   0.975  1.8144  1.0217  1.0132
 5910TIP3    H239290   0.833   4.802   0.945 -1.4636 -0.4892 -0.5874
 5911TIP3   OH239291   6.392   0.669   2.263 -0.6302  0.2676  0.4072
 5911TIP3    H139292   6.407   0.708   2.349 -1.1680 -0.3338  0.7787
 5911TIP3    H239293   6.450   0.594   2.260  1.1345  1.5852 -0.6924
 5912TIP3   OH239294   2.445   4.793   8.044 -0.4616 -0.2749  0.4081
 5912TIP3    H139295   2.502   4.773   7.970 -0.4812  0.8234  0.0737
 5912TIP3    H239296   2.456   4.719   8.104  0.1093 -0.8264 -0.3601
 5913TIP3   OH239297   2.490   0.479   0.857  0.3083 -0.1227  0.5856
 5913TIP3    H139298   2.517   0.561   0.816 -0.4861  0.4075  1.0826
 5913TIP3    H239299   2.568   0.449   0.905  0.0640  1.4099  2.0673
 5914TIP3   OH239300   5.418   2.025   1.117 -0.4543 -0.1396 -1.0195
 5914TIP3    H139301   5.369   1.977   1.050 -1.4631 -0.3252 -0.1724
 5914TIP3    H239302   5.396   1.981   1.199  1.6974 -0.6815 -0.6606
 5915TIP3   OH239303   3.461   0.652   1.330  0.4449  0.1444  0.4732
 5915TIP3    H139304   3.551   0.670   1.302  0.6005 -1.6036 -0.2378
 5915TIP3    H239305   3.463   0.562   1.361 -0.4009  1.0439  3.4730
 5916TIP3   OH239306   5.701   1.457   6.227  0.4960 -0.6641  0.0471
 5916TIP3    H139307   5.748   1.539   6.207  1.5303 -1.6759 -1.9364
 5916TIP3    H239308   5.609   1.482   6.226  0.8259  0.7523  0.9716
 5917TIP3   OH239309   4.948   0.175   7.959  0.3445  0.5355 -0.0854
 5917TIP3    H139310   4.978   0.231   7.887  1.9813  1.9277  1.5549
 5917TIP3    H239311   5.025   0.123   7.982  0.2961  1.0959  1.4800
 5918TIP3   OH239312   0.967   0.973   7.614  0.0297  0.6940 -0.3368
 5918TIP3    H139313   1.039   1.035   7.624 -0.0503  1.0458 -1.8092
 5918TIP3    H239314   1.002   0.891   7.651  0.8132  1.1155 -0.1133
 5919TIP3   OH239315   1.284   5.593   0.677  0.2103 -0.3847 -0.0060
 5919TIP3    H139316   1.238   5.604   0.594 -0.1235 -0.6227  0.1437
 5919TIP3    H239317   1.377   5.591   0.653  0.3202  2.5053 -0.0767
 5920TIP3   OH239318   5.940   4.490   7.652  0.0922 -0.8258 -0.7268
 5920TIP3    H139319   5.923   4.426   7.583 -1.6663  0.1606 -1.2745
 5920TIP3    H239320   5.995   4.557   7.612 -1.9465  0.3981 -1.6397
 5921TIP3   OH239321   1.577   6.020   7.109  0.3970 -0.3860  0.7629
 5921TIP3    H139322   1.572   5.933   7.069  2.1901  0.2567 -1.0515
 5921TIP3    H239323   1.577   6.003   7.203  0.2104 -2.2982  0.4627
 5922TIP3   OH239324   3.470   0.561   7.127  0.6540  0.1940  0.2735
 5922TIP3    H139325   3.502   0.540   7.215  1.1599  0.8881  0.2645
 5922TIP3    H239326   3.549   0.583   7.077  0.3070  0.4662 -0.1671
 5923TIP3   OH239327   2.783   2.120   0.736 -0.5092  0.1764  0.2938
 5923TIP3    H139328   2.842   2.152   0.804  0.3754  0.6303 -0.6537
 5923TIP3    H239329   2.700   2.105   0.781 -0.0627  0.8476  1.3809
 5924TIP3   OH239330   3.786   0.519   1.967  0.4138  0.6016 -0.4307
 5924TIP3    H139331   3.704   0.566   1.953 -0.4649 -0.3208  1.2864
 5924TIP3    H239332   3.820   0.554   2.049  0.7292 -0.3863 -0.1240
 5925TIP3   OH239333   5.294   2.088   7.141  0.6087  0.0799 -0.2111
 5925TIP3    H139334   5.278   2.085   7.047  1.8204 -1.0080 -0.4118
 5925TIP3    H239335   5.334   2.173   7.157 -1.3352  1.0745 -0.3447
 5926TIP3   OH239336   4.873   4.272   0.195  0.0273  0.4251 -0.0300
 5926TIP3    H139337   4.967   4.251   0.191 -0.1985 -0.5290 -0.8237
 5926TIP3    H239338   4.858   4.300   0.285  0.8549 -0.5170  0.4144
 5927TIP3   OH239339   3.139   4.370   1.636  0.1563 -0.2727  0.6282
 5927TIP3    H139340   3.220   4.388   1.589  0.8122 -3.5229  0.2205
 5927TIP3    H239341   3.081   4.330   1.570 -0.6505 -0.6816  1.5458
 5928TIP3   OH239342   4.654   6.750   8.724 -0.3673  0.2179  0.0513
 5928TIP3    H139343   4.710   6.779   8.652 -1.0036 -1.0869 -1.0307
 5928TIP3    H239344   4.704   6.682   8.768 -1.1584 -1.1778 -1.1155
 5929TIP3   OH239345   6.108   1.314   2.475 -0.6730 -0.1786 -0.2119
 5929TIP3    H139346   6.086   1.366   2.552 -0.5097  1.3463 -1.1373
 5929TIP3    H239347   6.181   1.361   2.434 -1.7426 -0.0686 -2.1059
 5930TIP3   OH239348   3.702   1.571   7.092  0.1990 -0.4127 -0.4302
 5930TIP3    H139349   3.756   1.632   7.143  0.2573 -2.1158  1.7126
 5930TIP3    H239350   3.759   1.540   7.022  0.9599  0.1335 -0.0624
 5931TIP3   OH239351   3.802   2.366   0.227 -0.1672 -0.2762  0.4545
 5931TIP3    H139352   3.793   2.418   0.307 -1.2526  1.6611 -0.8611
 5931TIP3    H239353   3.720   2.319   0.219 -1.0193  1.3034 -0.6524
 5932TIP3   OH239354   0.422   4.430   0.943  0.8007  0.2265 -0.5818
 5932TIP3    H139355   0.508   4.411   0.907 -0.0075 -2.9408 -1.0983
 5932TIP3    H239356   0.364   4.363   0.906 -1.1502  0.0121  2.4794
 5933TIP3   OH239357   1.728   0.471   0.220  0.1757  0.7386 -0.4236
 5933TIP3    H139358   1.720   0.545   0.280  0.3070  0.6341 -0.2757
 5933TIP3    H239359   1.764   0.401   0.274 -0.3490  0.4371 -0.4535
 5934TIP3   OH239360   6.432   0.530   8.418  0.2156  0.0648  0.1257
 5934TIP3    H139361   6.346   0.527   8.461 -0.5177 -0.0125 -1.2616
 5934TIP3    H239362   6.435   0.616   8.376  0.6219 -0.1028 -0.1982
 5935TIP3   OH239363   2.009   4.431   1.689  0.5098  0.4487  0.1527
 5935TIP3    H139364   2.090   4.393   1.723  0.3683  0.3295  0.3609
 5935TIP3    H239365   1.990   4.504   1.748  0.4959  0.5126  0.0703
 5936TIP3   OH239366   3.780   5.075   8.243 -0.2152 -0.0433 -0.6567
 5936TIP3    H139367   3.694   5.105   8.216 -0.5588  0.3353  0.7554
 5936TIP3    H239368   3.823   5.153   8.278  0.6440 -0.2677 -1.1740
 5937TIP3   OH239369   0.366   3.109   1.404 -0.1297  0.3199 -0.6856
 5937TIP3    H139370   0.397   3.168   1.473  0.9997  0.8271 -1.5848
 5937TIP3    H239371   0.417   3.029   1.416  0.1923  0.4698 -1.0109
 5938TIP3   OH239372   0.208   4.608   1.402 -0.2427 -0.5306 -0.0952
 5938TIP3    H139373   0.271   4.547   1.363  0.4300 -0.1405  0.3547
 5938TIP3    H239374   0.135   4.609   1.341  0.2787 -0.8362 -0.7386
 5939TIP3   OH239375   2.701   1.803   8.517 -0.1082  0.3408  0.7457
 5939TIP3    H139376   2.697   1.872   8.451 -0.8122 -0.3573  0.0370
 5939TIP3    H239377   2.623   1.750   8.502 -0.1461  0.0101  1.9764
 5940TIP3   OH239378   4.428   0.146   6.282  0.4093 -0.4185 -0.1894
 5940TIP3    H139379   4.504   0.160   6.338  0.4856 -2.1458  0.1988
 5940TIP3    H239380   4.367   0.097   6.337 -0.7577  0.4293 -0.6843
 5941TIP3   OH239381   4.316   2.523   7.755  0.6417 -0.8372  0.3194
 5941TIP3    H139382   4.404   2.543   7.724  0.6357  0.4312  1.0569
 5941TIP3    H239383   4.259   2.564   7.690  0.6042  3.6208  2.7750
 5942TIP3   OH239384   2.650   3.912   8.548  0.0611  0.4516 -0.2918
 5942TIP3    H139385   2.614   3.996   8.519  2.1329  0.9259 -1.6334
 5942TIP3    H239386   2.722   3.894   8.488  0.9029 -1.3511  1.1642
 5943TIP3   OH239387   5.512   3.481   6.285  0.0013 -0.2178 -0.3280
 5943TIP3    H139388   5.598   3.441   6.288  0.2761  0.2314 -1.5189
 5943TIP3    H239389   5.516   3.552   6.350  0.8546  0.4010 -1.0403
 5944TIP3   OH239390   4.524   5.768   6.966 -0.4657  0.0385 -0.0352
 5944TIP3    H139391   4.543   5.853   7.005  0.5211 -0.2476  0.1284
 5944TIP3    H239392   4.605   5.743   6.922 -0.8935 -0.6081 -0.4684
 5945TIP3   OH239393   2.809   5.281   8.043 -0.4389  0.6378 -0.6031
 5945TIP3    H139394   2.759   5.256   7.966 -2.0012 -0.1014  0.5874
 5945TIP3    H239395   2.756   5.349   8.085  0.7715  1.5959 -0.5610
 5946TIP3   OH239396   1.275   4.656   0.535  0.2533 -0.0298  0.0806
 5946TIP3    H139397   1.343   4.624   0.594  0.3221  0.6777  0.3881
 5946TIP3    H239398   1.213   4.701   0.591 -0.6429 -0.9290 -0.1591
 5947TIP3   OH239399   4.778   2.822   1.366 -0.2668 -0.3958 -0.5382
 5947TIP3    H139400   4.858   2.844   1.318 -0.2437 -0.3607 -0.4838
 5947TIP3    H239401   4.779   2.880   1.442  0.5785 -1.6135  0.4293
 5948TIP3   OH239402   1.894   1.371   7.835 -0.4022  0.4751  0.3740
 5948TIP3    H139403   1.974   1.321   7.847 -0.5117 -0.1500 -1.2692
 5948TIP3    H239404   1.842   1.352   7.913  0.4609 -0.2161  0.7977
 5949TIP3   OH239405   4.187   4.905   1.662  0.2313 -0.0868  0.0868
 5949TIP3    H139406   4.224   4.993   1.673 -0.8573  0.3159  0.5762
 5949TIP3    H239407   4.107   4.905   1.714  0.9099 -1.8249  1.2316
 5950TIP3   OH239408   1.922   4.912   0.985 -0.8270 -0.8048 -0.1090
 5950TIP3    H139409   1.842   4.863   1.004 -1.1892  0.2432  1.2222
 5950TIP3    H239410   1.990   4.864   1.032 -1.1187 -0.2661  0.8851
 5951TIP3   OH239411   3.853   2.828   8.301 -0.2580 -0.3823 -0.3414
 5951TIP3    H139412   3.923   2.854   8.361  0.1994  1.3044 -1.5449
 5951TIP3    H239413   3.897   2.771   8.237  0.0684  0.6853 -1.1034
 5952TIP3   OH239414   3.138   6.243   7.472 -0.3377 -0.3053  0.0479
 5952TIP3    H139415   3.179   6.329   7.469  0.1220 -0.4710  1.2154
 5952TIP3    H239416   3.056   6.257   7.520 -0.0773 -0.5870  0.5789
 5953TIP3   OH239417   2.993   3.732   6.628 -0.4010 -0.3595 -0.2691
 5953TIP3    H139418   2.961   3.821   6.640 -0.6751 -0.4375 -0.3945
 5953TIP3    H239419   2.981   3.690   6.713  1.0556  0.1244  0.2005
 5954TIP3   OH239420   5.213   6.503   1.365 -0.1976  0.5048 -0.2224
 5954TIP3    H139421   5.219   6.409   1.384  0.6871  0.7253  0.6574
 5954TIP3    H239422   5.211   6.545   1.451  0.0230  1.3267 -0.6091
 5955TIP3   OH239423   1.967   2.829   8.626  0.3654 -0.1498  0.1377
 5955TIP3    H139424   1.947   2.901   8.567  1.1871  0.7210  0.8935
 5955TIP3    H239425   1.902   2.834   8.696 -2.0012 -2.4992 -1.6960
 5956TIP3   OH239426   3.911   0.050   0.678  0.3753 -0.5182  0.3977
 5956TIP3    H139427   3.842   0.025   0.617  0.0509  0.7253  0.2304
 5956TIP3    H239428   3.866   0.078   0.757  0.6499  0.5164  0.2096
 5957TIP3   OH239429   6.224   0.238   1.624  0.4732  0.3871 -0.3190
 5957TIP3    H139430   6.277   0.159   1.621 -1.6063 -1.2454  2.0829
 5957TIP3    H239431   6.238   0.274   1.712 -0.6228  1.1791 -0.4342
 5958TIP3   OH239432   2.917   5.879   0.524 -0.2013  0.2527 -1.0254
 5958TIP3    H139433   2.922   5.784   0.511 -0.9926  0.3442 -2.0817
 5958TIP3    H239434   3.003   5.903   0.559 -0.2560 -0.9535 -0.0111
 5959TIP3   OH239435   3.113   6.122   1.307 -0.3088 -0.2081  0.3443
 5959TIP3    H139436   3.158   6.205   1.320 -0.7651  0.1339 -0.2483
 5959TIP3    H239437   3.179   6.056   1.327  0.1410  0.2930  0.5386
 5960TIP3   OH239438   6.433   1.046   1.762  0.0626  0.5449  0.1858
 5960TIP3    H139439   6.413   1.123   1.817  0.9166  1.2373 -0.4431
 5960TIP3    H239440   6.350   1.000   1.755 -0.7472  2.0123 -0.3291
 5961TIP3   OH239441   6.209   3.717   0.530 -0.1910  0.2934 -0.0684
 5961TIP3    H139442   6.250   3.640   0.570 -1.0071 -0.8604 -1.3567
 5961TIP3    H239443   6.155   3.681   0.460 -0.2552  2.0986 -0.9915
 5962TIP3   OH239444   0.605   0.812   6.994 -0.5255 -1.1191  0.1262
 5962TIP3    H139445   0.689   0.788   7.034 -0.8683 -0.2327  1.4207
 5962TIP3    H239446   0.555   0.851   7.064 -1.6210 -0.6053 -0.9052
 5963TIP3   OH239447   6.010   5.495   8.832  0.4236  0.1855 -0.3248
 5963TIP3    H139448   5.978   5.408   8.852 -1.0275  0.8687  0.5038
 5963TIP3    H239449   6.012   5.499   8.737  0.3681 -0.7027 -0.3686
 5964TIP3   OH239450   5.034   3.130   0.507  0.3588 -0.4459  0.2518
 5964TIP3    H139451   5.096   3.108   0.437 -0.5685 -0.7568 -0.5038
 5964TIP3    H239452   5.037   3.055   0.566 -0.0257 -0.9276 -0.3211
 5965TIP3   OH239453   4.500   0.725   0.516  0.1889 -0.2911 -0.3122
 5965TIP3    H139454   4.588   0.689   0.517  2.0285  3.7201  0.3624
 5965TIP3    H239455   4.475   0.724   0.423  1.9719  0.6335 -0.8469
 5966TIP3   OH239456   4.152   3.595   0.844  0.2150 -0.2896 -0.4853
 5966TIP3    H139457   4.178   3.673   0.893  1.5684 -1.7916  1.3092
 5966TIP3    H239458   4.080   3.558   0.894 -0.0085 -0.5478 -0.9883
 5967TIP3   OH239459   4.150   0.851   0.653  0.5647 -0.0302 -0.2804
 5967TIP3    H139460   4.130   0.895   0.735 -0.3455 -0.1277 -0.4385
 5967TIP3    H239461   4.178   0.763   0.679  0.5791  0.0407 -0.0556
 5968TIP3   OH239462   5.200   5.957   2.593  0.3630  0.2060 -0.4059
 5968TIP3    H139463   5.258   5.952   2.669 -0.0764  1.3950  0.0263
 5968TIP3    H239464   5.236   5.893   2.532  1.5182  0.1816  0.2614
 5969TIP3   OH239465   0.910   6.312   1.221  0.1093 -0.6470 -0.0477
 5969TIP3    H139466   0.910   6.270   1.135 -0.2354  1.5158 -1.1556
 5969TIP3    H239467   0.818   6.306   1.249  0.1651 -1.0883  0.0558
 5970TIP3   OH239468   1.224   4.316   0.890  0.1661  0.0160 -0.3225
 5970TIP3    H139469   1.260   4.286   0.974  0.5097  1.5020  0.0846
 5970TIP3    H239470   1.171   4.242   0.859 -0.2033 -0.4597  1.3399
 5971TIP3   OH239471   0.906   5.292   0.127 -0.3448  0.0486  0.0841
 5971TIP3    H139472   0.900   5.385   0.106 -0.2641 -0.0835 -0.5419
 5971TIP3    H239473   0.876   5.286   0.218 -3.4869  0.2742 -0.8097
 5972TIP3   OH239474   3.403   0.631   8.005 -0.1282 -0.1283  0.1791
 5972TIP3    H139475   3.476   0.585   8.047 -1.1568 -1.9550  0.0966
 5972TIP3    H239476   3.371   0.569   7.939 -0.5337  1.4213 -1.1420
 5973TIP3   OH239477   4.318   0.008   2.063  0.5885  0.3622 -0.1676
 5973TIP3    H139478   4.243  -0.013   2.007  0.7598 -1.2206  0.1379
 5973TIP3    H239479   4.349   0.092   2.031 -0.4385  0.3645 -1.2412
 5974TIP3   OH239480   6.705   6.193   8.270 -0.0959 -0.1474 -0.1466
 5974TIP3    H139481   6.657   6.270   8.302 -1.1586 -0.6172 -0.5754
 5974TIP3    H239482   6.711   6.135   8.346  0.0543  0.0389 -0.0152
 5975TIP3   OH239483   0.762   0.850   1.477  0.1043 -0.1872  0.0812
 5975TIP3    H139484   0.779   0.788   1.548  0.7495  1.4743  1.4490
 5975TIP3    H239485   0.846   0.896   1.465  0.3195 -1.0991 -2.4855
 5976TIP3   OH239486   0.618   4.360   1.815  0.0407  0.8514 -0.7000
 5976TIP3    H139487   0.630   4.450   1.844  0.5260  0.1511  1.5123
 5976TIP3    H239488   0.527   4.357   1.784 -0.5063  1.7488  0.7068
 5977TIP3   OH239489   4.829   5.540   0.894  0.3252 -0.4691  0.2869
 5977TIP3    H139490   4.785   5.513   0.813  1.0060 -0.6594 -0.0303
 5977TIP3    H239491   4.849   5.458   0.939 -2.7402 -0.3361  2.1813
 5978TIP3   OH239492   3.513   3.297   7.336  0.5026 -0.2238  0.2192
 5978TIP3    H139493   3.577   3.310   7.265 -1.2108 -0.0525 -1.3767
 5978TIP3    H239494   3.553   3.339   7.412  2.0534  0.3478 -0.8555
 5979TIP3   OH239495   3.384   5.826   0.397 -0.4856 -0.5247 -0.2504
 5979TIP3    H139496   3.473   5.829   0.362 -0.1880  1.4998  0.5753
 5979TIP3    H239497   3.328   5.846   0.322  0.0731  2.6123  0.0679
 5980TIP3   OH239498   0.812   1.495   1.449  0.4311 -0.0632 -0.9048
 5980TIP3    H139499   0.884   1.472   1.391 -0.8469 -0.5363 -2.3718
 5980TIP3    H239500   0.733   1.481   1.396 -0.7320  0.6660  0.5626
 5981TIP3   OH239501   3.815   3.100   6.490 -0.2427  0.1710  0.8723
 5981TIP3    H139502   3.811   3.007   6.512 -1.1018 -0.3496 -1.1988
 5981TIP3    H239503   3.901   3.128   6.520 -0.1574 -1.1467  1.9929
 5982TIP3   OH239504   1.225   0.023   8.178  0.4626  0.4274  0.3547
 5982TIP3    H139505   1.239   0.087   8.249  0.6079  0.3898  0.3596
 5982TIP3    H239506   1.312   0.003   8.146  0.3963  0.4367  0.1695
 5983TIP3   OH239507   5.662   2.326   7.481 -0.2991  0.2776 -0.1241
 5983TIP3    H139508   5.627   2.279   7.405 -1.0835  0.1852  0.2823
 5983TIP3    H239509   5.711   2.260   7.530  0.5865  0.4378 -0.7679
 5984TIP3   OH239510   1.839   4.573   1.230 -0.2489  0.6674  0.4299
 5984TIP3    H139511   1.926   4.602   1.256 -1.0338  1.7044  2.0313
 5984TIP3    H239512   1.788   4.571   1.311 -1.3378 -1.3750 -0.2386
 5985TIP3   OH239513   5.516   1.124   1.953 -0.1891  0.3335 -0.1825
 5985TIP3    H139514   5.574   1.182   2.002 -0.2016  0.4183 -0.2666
 5985TIP3    H239515   5.523   1.040   1.997  2.1906 -0.4402 -1.8782
 5986TIP3   OH239516   2.461   5.019   1.331  0.5849  0.5021 -0.4048
 5986TIP3    H139517   2.537   4.962   1.325  1.0502  1.1559 -0.7681
 5986TIP3    H239518   2.457   5.044   1.423  0.1404 -0.4210 -0.1586
 5987TIP3   OH239519   3.864   4.092   8.153  0.3135 -0.3196 -0.6307
 5987TIP3    H139520   3.776   4.057   8.137 -0.7076  0.8429  1.8148
 5987TIP3    H239521   3.849   4.180   8.188  2.4909  0.0591 -0.4983
 5988TIP3   OH239522   5.544   4.714   7.906  0.1802 -0.7873 -0.1589
 5988TIP3    H139523   5.548   4.622   7.880  1.2567 -0.5050 -1.0910
 5988TIP3    H239524   5.517   4.712   7.998  0.6044 -2.0526 -0.0414
 5989TIP3   OH239525   4.850   2.890   2.099 -0.0752 -0.3258 -0.7296
 5989TIP3    H139526   4.769   2.840   2.088 -0.4929 -0.1373  1.2118
 5989TIP3    H239527   4.913   2.827   2.133  0.0606 -0.0578 -0.4834
 5990TIP3   OH239528   4.337   4.728   6.627 -0.4410 -0.2463 -0.1100
 5990TIP3    H139529   4.316   4.819   6.610 -0.7211 -0.4230 -0.7224
 5990TIP3    H239530   4.252   4.684   6.631 -0.2919 -0.5451 -0.2067
 5991TIP3   OH239531   2.606   4.015   8.831 -0.0039 -0.0823 -0.1595
 5991TIP3    H139532   2.548   3.945   8.858 -1.3179  0.5737 -1.1895
 5991TIP3    H239533   2.636   3.989   8.744 -0.6496  0.7059 -0.6282
 5992TIP3   OH239534   6.148   0.648   8.558 -0.2792  0.1208 -0.2836
 5992TIP3    H139535   6.099   0.723   8.524 -1.3983 -1.3283 -2.0381
 5992TIP3    H239536   6.177   0.676   8.644 -1.7744  2.1049 -0.3479
 5993TIP3   OH239537   5.101   2.951   6.371  0.0847 -0.8375 -0.0207
 5993TIP3    H139538   5.131   3.002   6.296  0.5756 -0.3051  0.5283
 5993TIP3    H239539   5.022   2.906   6.340 -0.8962  0.9559 -0.2518
 5994TIP3   OH239540   2.263   5.843   0.612 -0.2410 -0.2051  0.2977
 5994TIP3    H139541   2.272   5.788   0.535 -0.4919  1.1185 -0.7035
 5994TIP3    H239542   2.230   5.784   0.680 -0.4408 -1.2938 -0.7218
 5995TIP3   OH239543   1.879   1.224   1.046  0.7890 -0.0028  0.2661
 5995TIP3    H139544   1.842   1.136   1.049  3.1962 -1.2415 -2.0778
 5995TIP3    H239545   1.821   1.272   0.986  0.4575 -0.5493  0.1389
 5996TIP3   OH239546   6.497   5.451   0.073 -0.1953 -0.2445  0.4523
 5996TIP3    H139547   6.510   5.395  -0.004  0.2831 -2.6897  2.1759
 5996TIP3    H239548   6.403   5.470   0.073 -0.2880 -0.6380 -0.4451
 5997TIP3   OH239549   3.954   1.102   0.269  0.7142 -0.0954 -0.2102
 5997TIP3    H139550   4.018   1.152   0.319 -0.6619  2.2133 -0.6433
 5997TIP3    H239551   3.869   1.134   0.300 -0.2087  0.7616 -3.3075
 5998TIP3   OH239552   2.995   3.982   0.630 -0.0370 -0.0574  0.3315
 5998TIP3    H139553   3.048   3.996   0.708  2.0098 -0.6580 -0.8671
 5998TIP3    H239554   3.033   4.040   0.564  0.2234 -1.6971 -1.0326
 5999TIP3   OH239555   2.543   3.922   1.732  0.1440  0.0968  0.1200
 5999TIP3    H139556   2.482   3.995   1.716 -0.7492 -0.4394  0.9411
 5999TIP3    H239557   2.602   3.954   1.800  1.1260  0.7957 -1.0227
 6000TIP3   OH239558   1.463   0.304   7.817 -0.9156 -0.4970 -0.1540
 6000TIP3    H139559   1.542   0.250   7.824 -0.9777 -0.4959  0.6752
 6000TIP3    H239560   1.394   0.251   7.855 -0.7268  0.6282  1.9007
 6001TIP3   OH239561   5.809   2.073   8.832  0.4050  0.2927 -0.1961
 6001TIP3    H139562   5.806   2.107   8.742  0.2441 -0.7767 -0.6137
 6001TIP3    H239563   5.899   2.085   8.859  1.2075 -1.9040 -1.5679
 6002TIP3   OH239564   5.720   3.172   0.748  0.2447  0.1371 -0.2762
 6002TIP3    H139565   5.698   3.082   0.774  2.7026 -0.7458 -1.0147
 6002TIP3    H239566   5.776   3.204   0.818  0.4219  0.6334 -0.6402
 6003TIP3   OH239567   0.261   6.434   7.083 -0.4996 -0.0866 -0.4459
 6003TIP3    H139568   0.307   6.519   7.080 -1.8489  0.6840 -0.1356
 6003TIP3    H239569   0.279   6.395   6.998  1.5300 -0.2655  0.0201
 6004TIP3   OH239570   4.008   4.842   8.408 -0.0141 -0.2403  0.5155
 6004TIP3    H139571   3.983   4.935   8.403 -0.3137 -0.2623  1.4490
 6004TIP3    H239572   3.958   4.808   8.482  1.2738 -0.7772  1.1614
 6005TIP3   OH239573   0.931   0.931   0.655  0.3166  0.8361  0.0311
 6005TIP3    H139574   0.998   0.996   0.676 -0.2095  1.4218 -0.0878
 6005TIP3    H239575   0.853   0.982   0.634  0.0192  0.1799 -0.5046
 6006TIP3   OH239576   5.953   5.023   7.894 -0.1331  0.3023  0.1463
 6006TIP3    H139577   5.964   5.114   7.920  0.4328  0.0659  0.7684
 6006TIP3    H239578   5.859   5.014   7.874 -0.3531  0.7955  0.9422
 6007TIP3   OH239579   1.332   3.207   7.874  0.5294 -0.2658 -0.1490
 6007TIP3    H139580   1.407   3.216   7.933  0.4900  2.7031 -0.3961
 6007TIP3    H239581   1.367   3.226   7.787  0.0117 -1.6738 -0.6891
 6008TIP3   OH239582   2.426   3.391   6.573  0.0959  0.5472 -0.2350
 6008TIP3    H139583   2.347   3.340   6.592  0.9262  0.0326  2.1751
 6008TIP3    H239584   2.489   3.325   6.541  0.6674  0.2862  1.3591
 6009TIP3   OH239585   2.522   4.332   7.709 -0.2514 -0.3049  0.2136
 6009TIP3    H139586   2.605   4.380   7.703 -1.2428  1.5708  0.6815
 6009TIP3    H239587   2.515   4.286   7.625  0.6117  0.6326 -0.3939
 6010TIP3   OH239588   1.891   1.512   0.602  0.2055 -0.0142 -0.4185
 6010TIP3    H139589   1.976   1.474   0.579  0.5100 -0.1507  0.8385
 6010TIP3    H239590   1.833   1.437   0.612  0.5610 -0.1129  1.0982
 6011TIP3   OH239591   3.138   4.574   1.089 -0.0149 -0.8118 -0.2497
 6011TIP3    H139592   3.056   4.613   1.119  0.7076 -0.5316  1.4944
 6011TIP3    H239593   3.168   4.631   1.018  0.4084  1.1674  1.4275
 6012TIP3   OH239594   4.484   6.450   0.411 -0.1769  0.1245 -1.2611
 6012TIP3    H139595   4.488   6.537   0.373 -0.4828  0.1531 -1.2307
 6012TIP3    H239596   4.450   6.464   0.500  3.3256  0.4319  0.2009
 6013TIP3   OH239597   0.043   3.266   6.584 -0.1325 -0.5693 -0.7817
 6013TIP3    H139598   0.127   3.312   6.575 -0.1954  0.2442  1.7981
 6013TIP3    H239599  -0.017   3.314   6.527  0.9313 -0.6573 -2.0289
 6014TIP3   OH239600   6.579   1.223   1.252 -0.6142 -0.0844  0.2768
 6014TIP3    H139601   6.657   1.169   1.264 -0.5781 -0.0572  0.1665
 6014TIP3    H239602   6.579   1.283   1.327 -0.0184  0.5411 -0.2164
 6015TIP3   OH239603   2.691   3.748   0.873  0.4001 -0.1574 -0.2592
 6015TIP3    H139604   2.745   3.675   0.903  0.0763 -0.1678  0.3113
 6015TIP3    H239605   2.616   3.748   0.932  0.1563  0.3327 -0.5652
 6016TIP3   OH239606   1.222   5.181   7.865 -0.8590  0.5946 -0.3072
 6016TIP3    H139607   1.212   5.274   7.887 -0.2515  0.5377  0.2220
 6016TIP3    H239608   1.154   5.138   7.917  0.5630  0.4634  1.5582
 6017TIP3   OH239609   2.730   4.244   2.514 -0.2277  0.0836 -0.0835
 6017TIP3    H139610   2.722   4.149   2.502  0.9492  0.1881 -2.3965
 6017TIP3    H239611   2.820   4.257   2.543 -0.7051  0.4564  1.2982
 6018TIP3   OH239612   1.989   5.896   6.650  0.4277  0.6037 -0.2757
 6018TIP3    H139613   1.971   5.979   6.605 -0.5645  1.0194  0.8298
 6018TIP3    H239614   1.903   5.857   6.663  0.7237  0.2758  0.8246
 6019TIP3   OH239615   4.695   1.051   1.940 -0.1854 -0.3710 -0.0874
 6019TIP3    H139616   4.609   1.091   1.932 -0.2480 -0.6222 -0.7156
 6019TIP3    H239617   4.678   0.958   1.953 -0.0611 -0.1312  2.2026
 6020TIP3   OH239618   4.561   3.114   1.271 -0.6207 -0.3034  0.3239
 6020TIP3    H139619   4.537   3.166   1.194  0.2497  0.2845  0.4344
 6020TIP3    H239620   4.656   3.120   1.275 -0.7005  0.4011  1.9424
 6021TIP3   OH239621   2.849   6.143   8.073  0.3516  0.3179  0.3618
 6021TIP3    H139622   2.805   6.058   8.072  0.9855 -0.0343  1.0368
 6021TIP3    H239623   2.792   6.200   8.023  1.3626 -1.2158 -2.8094
 6022TIP3   OH239624   0.467   6.099   1.835  0.2392  0.6519  0.1188
 6022TIP3    H139625   0.474   6.088   1.740  1.5755  0.7604  0.1957
 6022TIP3    H239626   0.543   6.054   1.871 -1.3942 -1.3487  1.3326
 6023TIP3   OH239627   3.275   1.889   0.357  0.1094  0.4862  0.4306
 6023TIP3    H139628   3.369   1.876   0.341 -0.1648 -0.2923 -0.7338
 6023TIP3    H239629   3.236   1.804   0.336 -0.8798  0.8590  0.7160
 6024TIP3   OH239630   0.219   4.700   8.624 -0.1348 -0.7047 -0.0100
 6024TIP3    H139631   0.274   4.679   8.700 -1.5880 -1.0356  0.9864
 6024TIP3    H239632   0.281   4.729   8.557  1.0636  1.8460  2.0269
 6025TIP3   OH239633   4.562   1.928   1.504  0.1952 -0.1029  0.8469
 6025TIP3    H139634   4.656   1.913   1.500 -0.1508 -2.5518  0.5196
 6025TIP3    H239635   4.544   1.942   1.597  0.8807  0.3998  0.9047
 6026TIP3   OH239636   1.070   5.527   6.882  0.3247 -0.1110  0.3599
 6026TIP3    H139637   1.043   5.598   6.824  1.0716  0.0693  0.2189
 6026TIP3    H239638   1.041   5.447   6.838 -0.0164  0.0784  0.2418
 6027TIP3   OH239639   3.999   2.658   8.170 -0.3601 -0.3792 -0.0741
 6027TIP3    H139640   4.075   2.688   8.119 -1.1933  1.7165 -0.1601
 6027TIP3    H239641   3.960   2.589   8.115  0.2194  0.0668 -1.0830
 6028TIP3   OH239642   5.853   5.499   7.161  0.3571 -0.4834  0.3776
 6028TIP3    H139643   5.936   5.454   7.145 -0.1725 -0.9071 -1.4725
 6028TIP3    H239644   5.818   5.516   7.073 -1.7686 -0.8031  1.0972
 6029TIP3   OH239645   3.540   3.300   0.423  0.0848 -0.7683 -0.2492
 6029TIP3    H139646   3.621   3.268   0.462  0.1793  1.2159  1.3218
 6029TIP3    H239647   3.472   3.242   0.457  0.7300 -2.0326 -1.0490
 6030TIP3   OH239648   5.930   4.770   0.956  0.5887 -0.3457  0.1336
 6030TIP3    H139649   5.877   4.702   0.915  0.1453 -0.8071  1.4143
 6030TIP3    H239650   5.951   4.735   1.043  0.0822  1.2806  0.9559
 6031TIP3   OH239651   3.876   0.950   0.944 -0.1619 -0.2424 -0.6625
 6031TIP3    H139652   3.908   1.031   0.984 -0.1896  0.1767 -1.4549
 6031TIP3    H239653   3.954   0.894   0.938  0.0093  0.0009 -0.7467
 6032TIP3   OH239654   2.998   5.594   0.509  0.0619  0.7008 -0.0993
 6032TIP3    H139655   3.085   5.620   0.537  0.9397 -3.5905  2.0111
 6032TIP3    H239656   3.006   5.580   0.415  1.8972 -0.2330  0.1568
 6033TIP3   OH239657   1.966   2.009   6.805  0.2649 -0.1825  0.3876
 6033TIP3    H139658   1.973   2.104   6.804  0.4640 -0.1938  0.6336
 6033TIP3    H239659   2.050   1.978   6.771 -0.1140 -0.2611 -0.5054
 6034TIP3   OH239660   3.602   4.564   7.660  0.8343 -0.5888 -0.1807
 6034TIP3    H139661   3.563   4.633   7.713  0.8148 -0.9035  0.2187
 6034TIP3    H239662   3.677   4.534   7.710  1.1885 -0.4586 -0.6278
 6035TIP3   OH239663   4.826   0.830   7.327 -0.6142 -0.2778 -0.3229
 6035TIP3    H139664   4.852   0.922   7.331 -0.7968 -0.1345 -1.9297
 6035TIP3    H239665   4.772   0.817   7.405  1.8369  0.1496  1.5728
 6036TIP3   OH239666   1.228   0.447   1.128  0.2868 -0.4904 -0.0743
 6036TIP3    H139667   1.179   0.484   1.202  0.0812  1.1611 -0.9870
 6036TIP3    H239668   1.292   0.515   1.106  0.0827 -0.7925 -1.6787
 6037TIP3   OH239669   0.427   3.295   0.324  0.1472  0.3091 -0.0009
 6037TIP3    H139670   0.395   3.249   0.401  0.9461  0.2587  0.3167
 6037TIP3    H239671   0.521   3.275   0.321  0.2055  0.6371 -0.7557
 6038TIP3   OH239672   6.413   5.560   7.294  0.4885 -0.6840  0.1890
 6038TIP3    H139673   6.414   5.473   7.254 -1.7346 -0.4468 -0.4903
 6038TIP3    H239674   6.321   5.577   7.313  0.9881  1.1222  1.2473
 6039TIP3   OH239675   2.742   1.886   2.077  0.0366 -0.4495  0.2584
 6039TIP3    H139676   2.655   1.917   2.103  0.6339  0.5614  1.0982
 6039TIP3    H239677   2.801   1.921   2.143  1.2241 -0.3478 -0.8213
 6040TIP3   OH239678   2.918   5.123   6.315  0.3276  0.3372  0.0217
 6040TIP3    H139679   2.948   5.091   6.230  0.0852 -1.8382  0.7059
 6040TIP3    H239680   2.844   5.180   6.295 -0.8438 -1.4982 -1.1776
 6041TIP3   OH239681   0.623   4.897   1.989  0.1229  0.2942  0.3155
 6041TIP3    H139682   0.678   4.946   2.050  0.5714 -1.6089  1.5462
 6041TIP3    H239683   0.539   4.889   2.035 -0.5474  1.4397 -0.6696
 6042TIP3   OH239684   4.659   0.234   6.400  0.1725  0.4006 -0.0476
 6042TIP3    H139685   4.739   0.233   6.451 -1.3329 -1.7714  2.4765
 6042TIP3    H239686   4.621   0.321   6.416  0.5854  0.3713  1.1239
 6043TIP3   OH239687   4.019   6.047   7.119 -0.2875 -0.0001 -0.5514
 6043TIP3    H139688   4.025   6.064   7.213 -1.2428  1.2071 -0.6868
 6043TIP3    H239689   3.935   6.001   7.108 -1.1195  1.5373 -0.9933
 6044TIP3   OH239690   5.558   0.112   7.689  0.1395 -0.3345 -0.1169
 6044TIP3    H139691   5.629   0.114   7.625  0.2550 -0.7314  0.0003
 6044TIP3    H239692   5.595   0.156   7.766  0.6366 -1.5071  0.3299
 6045TIP3   OH239693   4.114   4.811   8.790  0.0531 -0.0148  0.1691
 6045TIP3    H139694   4.058   4.800   8.867  1.2786 -0.8484  0.9891
 6045TIP3    H239695   4.093   4.736   8.734 -1.0952  0.7839 -0.5020
 6046TIP3   OH239696   6.156   5.250   2.094  0.2993 -0.2808 -0.1883
 6046TIP3    H139697   6.229   5.294   2.138  0.2552 -0.6514  0.2586
 6046TIP3    H239698   6.194   5.170   2.059  0.0694 -0.5501  0.1810
 6047TIP3   OH239699   1.167   5.780   1.302 -0.7396  0.5609  0.2693
 6047TIP3    H139700   1.207   5.866   1.289 -1.3981  0.7182 -0.8986
 6047TIP3    H239701   1.169   5.740   1.215 -1.0860 -0.3275  0.6562
 6048TIP3   OH239702   4.852   4.129   0.468 -0.5205  0.2044 -0.2052
 6048TIP3    H139703   4.761   4.120   0.496 -0.5322  1.0319  0.0567
 6048TIP3    H239704   4.892   4.185   0.535  0.5743 -1.3416  0.4997
 6049TIP3   OH239705   5.676   1.316   1.776 -0.1955  0.3376 -0.1488
 6049TIP3    H139706   5.665   1.401   1.819 -1.3891  1.2571 -2.1489
 6049TIP3    H239707   5.628   1.255   1.832  1.6423  0.6771  1.9423
 6050TIP3   OH239708   4.306   1.150   7.975  0.0427 -0.8391 -0.0559
 6050TIP3    H139709   4.391   1.152   8.019 -0.5304  0.9233  1.0508
 6050TIP3    H239710   4.251   1.094   8.030 -0.0398 -0.4612  0.2459
 6051TIP3   OH239711   2.807   0.522   0.138  0.0608  0.2051 -0.2803
 6051TIP3    H139712   2.731   0.530   0.079 -0.8659 -2.3988  0.3981
 6051TIP3    H239713   2.874   0.480   0.084 -1.1091 -3.0892  0.5581
 6052TIP3   OH239714   0.069   2.954   8.376  0.6790  0.3827 -0.6531
 6052TIP3    H139715   0.084   3.044   8.405  0.7564  0.2129 -0.1565
 6052TIP3    H239716   0.120   2.945   8.295  1.9012  0.3143  0.1144
 6053TIP3   OH239717   3.002   0.296   1.834  0.5071 -0.8211 -0.3848
 6053TIP3    H139718   2.993   0.366   1.898 -0.7417 -1.0267 -0.3152
 6053TIP3    H239719   3.068   0.329   1.772 -0.3506  0.6014 -0.5862
 6054TIP3   OH239720   0.738   4.561   0.664  0.7244 -0.0011  0.0518
 6054TIP3    H139721   0.704   4.650   0.677  0.6226 -0.2258  1.4462
 6054TIP3    H239722   0.829   4.565   0.693  0.7321 -0.3478  0.0837
 6055TIP3   OH239723   5.749   4.847   7.332 -0.2999 -0.5524  0.5597
 6055TIP3    H139724   5.810   4.828   7.261 -0.1645  0.3706  0.4223
 6055TIP3    H239725   5.715   4.934   7.313 -0.8359 -0.6051  1.2223
 6056TIP3   OH239726   3.546   2.702   6.446 -0.2758 -0.1023 -0.0143
 6056TIP3    H139727   3.451   2.701   6.441 -0.3565  0.9731  0.8467
 6056TIP3    H239728   3.575   2.738   6.362 -0.6930  0.7095  0.1801
 6057TIP3   OH239729   0.730   3.076   0.854  0.1128 -0.2896  0.1443
 6057TIP3    H139730   0.779   3.006   0.811  0.7050  0.2489 -0.0638
 6057TIP3    H239731   0.676   3.031   0.920  0.5281 -0.9295  0.0521
 6058TIP3   OH239732   6.328   3.662   1.709  0.1399  0.7653  0.0759
 6058TIP3    H139733   6.267   3.613   1.653  0.1574  0.8320 -0.0025
 6058TIP3    H239734   6.303   3.638   1.798 -0.3246  1.1681  0.0590
 6059TIP3   OH239735   4.221   5.120   7.621 -0.4482 -0.7630  0.0409
 6059TIP3    H139736   4.183   5.068   7.692 -1.8247 -1.4579 -1.1346
 6059TIP3    H239737   4.184   5.081   7.541  0.7729  0.2072 -1.0353
 6060TIP3   OH239738   3.394   4.560   6.298  0.1056  0.3835 -0.0673
 6060TIP3    H139739   3.432   4.605   6.222  1.4943 -0.7279 -0.0794
 6060TIP3    H239740   3.434   4.603   6.374 -0.7518  1.0344  0.0276
 6061TIP3   OH239741   5.904   1.990   7.877 -0.0648 -0.3718  0.2332
 6061TIP3    H139742   5.873   2.077   7.904 -1.8613 -0.0214 -2.6042
 6061TIP3    H239743   5.833   1.931   7.902  0.5258 -0.8422  0.8448
 6062TIP3   OH239744   2.101   1.131   6.849  0.3334  0.1000 -0.2863
 6062TIP3    H139745   2.106   1.153   6.941 -1.8451 -3.6983  0.9551
 6062TIP3    H239746   2.172   1.068   6.836  0.4086  0.3446 -1.1206
 6063TIP3   OH239747   3.750   1.989   7.652  0.2227 -0.0807  0.5792
 6063TIP3    H139748   3.781   1.898   7.644 -0.8132 -0.3303 -1.1562
 6063TIP3    H239749   3.657   1.981   7.672 -0.4083  0.5080 -1.7866
 6064TIP3   OH239750   5.702   0.006   1.773 -0.4922  0.1134  0.7153
 6064TIP3    H139751   5.687   0.086   1.824 -0.5091  0.5530  0.0204
 6064TIP3    H239752   5.785   0.022   1.727 -0.3205 -0.4090  0.8306
 6065TIP3   OH239753   0.593   4.388   0.115 -0.1378 -0.5774 -0.1474
 6065TIP3    H139754   0.558   4.358   0.199  1.3111  1.0634  1.1130
 6065TIP3    H239755   0.678   4.345   0.108  0.3100  0.2979 -0.1337
 6066TIP3   OH239756   2.162   2.030   8.118 -0.2319 -0.4336  0.0951
 6066TIP3    H139757   2.217   2.100   8.155  0.8121  1.3217 -4.1038
 6066TIP3    H239758   2.214   1.951   8.129  1.0631  0.4015  0.2612
 6067TIP3   OH239759   0.117   4.810   7.310 -0.0688  0.4510 -0.1699
 6067TIP3    H139760   0.039   4.852   7.274 -0.4257 -1.3779 -1.6822
 6067TIP3    H239761   0.182   4.816   7.239  0.0693 -0.9089 -0.1858
 6068TIP3   OH239762   3.654   6.581   8.747 -0.5811 -0.4450  0.2170
 6068TIP3    H139763   3.650   6.531   8.665 -3.7147 -0.6857  0.4017
 6068TIP3    H239764   3.671   6.514   8.814 -0.2836 -0.5801  0.0118
 6069TIP3   OH239765   2.489   5.082   8.045 -0.1762 -0.4938  0.3738
 6069TIP3    H139766   2.438   5.002   8.059  1.2962 -1.1080  2.7432
 6069TIP3    H239767   2.439   5.151   8.089 -0.3983 -0.5247  0.1699
 6070TIP3   OH239768   2.053   6.630   7.912  0.1924 -0.2471  0.4493
 6070TIP3    H139769   2.144   6.601   7.907  0.4330  0.4891  0.3418
 6070TIP3    H239770   2.005   6.555   7.947  0.9816 -0.3550  1.3521
 6071TIP3   OH239771   2.855   0.272   1.130 -0.3180  0.2143 -0.0474
 6071TIP3    H139772   2.854   0.248   1.222  1.5421 -3.2694 -0.7790
 6071TIP3    H239773   2.942   0.309   1.115 -0.3169  0.0177 -0.5513
 6072TIP3   OH239774   1.728   5.742   7.563 -0.2584 -0.2819  0.0021
 6072TIP3    H139775   1.820   5.744   7.589  0.7899  1.9984 -3.3080
 6072TIP3    H239776   1.723   5.672   7.498 -0.5027  0.5259 -0.8648
 6073TIP3   OH239777   5.150   3.045   7.121 -0.2098 -1.4506 -0.5605
 6073TIP3    H139778   5.086   3.113   7.101  1.5415 -0.0830 -1.7650
 6073TIP3    H239779   5.166   3.054   7.215  0.8839  0.6746 -0.8959
 6074TIP3   OH239780   2.475   3.457   7.231 -0.5359  0.2390  0.2591
 6074TIP3    H139781   2.505   3.376   7.272 -0.1989 -0.0513 -0.5390
 6074TIP3    H239782   2.433   3.428   7.150 -0.0770  0.8870 -0.2195
 6075TIP3   OH239783   0.152   2.565   6.414  0.1890  0.2273  0.0558
 6075TIP3    H139784   0.128   2.650   6.451  0.7292 -0.4375  2.0475
 6075TIP3    H239785   0.219   2.586   6.349  0.4051  1.3333  0.5969
 6076TIP3   OH239786   6.531   2.458   0.682  0.1316  0.1757  0.2380
 6076TIP3    H139787   6.626   2.457   0.694  0.1102 -0.4775  0.4060
 6076TIP3    H239788   6.511   2.548   0.656  0.6124  0.7210  1.6491
 6077TIP3   OH239789   5.950   5.235   2.269 -0.3661  0.0978 -0.6445
 6077TIP3    H139790   6.021   5.234   2.205  1.1232 -0.9691  0.9380
 6077TIP3    H239791   5.965   5.315   2.320 -0.2481 -0.1492 -0.2831
 6078TIP3   OH239792   2.385   3.976   8.056 -0.5604  0.4616  0.2602
 6078TIP3    H139793   2.329   4.053   8.048  0.8083  1.4906  0.1334
 6078TIP3    H239794   2.361   3.920   7.983 -0.5349  1.4765 -0.5396
 6079TIP3   OH239795   1.614   0.703   7.814  0.0066 -0.1587 -0.3386
 6079TIP3    H139796   1.694   0.735   7.773  0.8821 -0.2312  1.2322
 6079TIP3    H239797   1.571   0.651   7.746  3.0783 -3.1463 -0.2950
 6080TIP3   OH239798   3.007   4.209   1.138 -0.5260 -0.8054 -0.1780
 6080TIP3    H139799   2.913   4.223   1.121 -0.6969 -0.1961  1.1323
 6080TIP3    H239800   3.025   4.262   1.216  1.0297 -0.5353 -0.6959
 6081TIP3   OH239801   0.064   1.152   1.069 -0.3326  0.0612 -0.5401
 6081TIP3    H139802   0.052   1.193   0.983 -0.5652  0.4272 -0.3362
 6081TIP3    H239803   0.073   1.226   1.129 -3.2024 -0.0570  0.2117
 6082TIP3   OH239804   5.240   2.480   7.881  0.1650  0.5248 -0.3304
 6082TIP3    H139805   5.173   2.549   7.882 -1.4947 -1.0002  0.9373
 6082TIP3    H239806   5.313   2.517   7.930 -1.1685  0.9920  1.4008
 6083TIP3   OH239807   0.728   3.051   7.725 -0.4336 -0.3795 -0.0331
 6083TIP3    H139808   0.760   2.985   7.664 -0.2989  1.0288 -1.5664
 6083TIP3    H239809   0.684   3.115   7.669 -0.2652  0.9977  1.3566
 6084TIP3   OH239810   0.274   3.110   0.503  0.4292 -0.6993 -0.2162
 6084TIP3    H139811   0.255   3.035   0.559  1.9686  0.9073  2.7116
 6084TIP3    H239812   0.188   3.142   0.475 -0.4847 -1.3615  1.6353
 6085TIP3   OH239813   3.032   2.609   7.817 -0.5711 -0.0552  0.1067
 6085TIP3    H139814   3.082   2.666   7.758  1.6662  0.2566  2.1437
 6085TIP3    H239815   3.069   2.521   7.802  0.8321  0.2077  1.7600
 6086TIP3   OH239816   3.726   6.408   7.710  0.3632 -0.6672  0.0072
 6086TIP3    H139817   3.665   6.474   7.744  0.3995  0.0673 -1.2847
 6086TIP3    H239818   3.812   6.439   7.739  0.5017  0.5257 -1.5459
 6087TIP3   OH239819   2.238   2.151   7.832  0.1913  0.2497 -0.1045
 6087TIP3    H139820   2.238   2.135   7.927  0.6979  2.7397  0.3715
 6087TIP3    H239821   2.309   2.096   7.799  1.2918  0.7973  1.2650
 6088TIP3   OH239822   0.224   4.941   0.865  0.4577 -0.5296  0.8780
 6088TIP3    H139823   0.295   4.880   0.848  0.8606 -0.0480  0.8252
 6088TIP3    H239824   0.180   4.905   0.943  1.4412 -0.2260  1.5851
 6089TIP3   OH239825   2.302   6.458   7.164  0.1922  0.5395 -0.1577
 6089TIP3    H139826   2.229   6.450   7.103  2.6410 -0.0460 -3.3311
 6089TIP3    H239827   2.282   6.536   7.216 -2.1096  1.0612 -1.6742
 6090TIP3   OH239828   3.549   6.599   7.797 -0.8594  0.0252  0.9166
 6090TIP3    H139829   3.478   6.607   7.734  0.6016 -0.2155 -0.8379
 6090TIP3    H239830   3.556   6.686   7.837  0.2966  1.2478 -1.6986
 6091TIP3   OH239831   5.179   1.683   8.605  0.3266  0.2563  0.3659
 6091TIP3    H139832   5.270   1.669   8.631  0.0603  0.9118  1.7622
 6091TIP3    H239833   5.183   1.752   8.539  1.0239 -1.3909 -1.3724
 6092TIP3   OH239834   2.905   6.160   7.606  0.0636 -0.2656 -0.2555
 6092TIP3    H139835   2.941   6.097   7.543 -0.0055  0.6836 -1.2695
 6092TIP3    H239836   2.810   6.151   7.596  0.0512  0.5161 -0.9578
 6093TIP3   OH239837   4.203   0.968   7.444  0.1690  0.2810  0.4876
 6093TIP3    H139838   4.222   0.927   7.360 -1.1142 -0.5575  0.5771
 6093TIP3    H239839   4.228   0.902   7.509 -1.1426 -0.0935  0.6566
 6094TIP3   OH239840   2.557   4.219   8.579 -1.0221 -0.0133  0.7101
 6094TIP3    H139841   2.553   4.266   8.495 -2.8029 -1.3327 -0.0031
 6094TIP3    H239842   2.560   4.288   8.645 -0.8068  1.0647 -0.3886
 6095TIP3   OH239843   5.803   6.022   0.100  0.3831  0.0781 -0.2556
 6095TIP3    H139844   5.813   6.115   0.083  1.0153 -0.4622 -3.4463
 6095TIP3    H239845   5.723   6.015   0.153 -0.8038  2.2999 -1.6299
 6096TIP3   OH239846   0.515   0.070   7.324  0.4352  0.8321 -0.0806
 6096TIP3    H139847   0.435   0.083   7.375  1.0823 -1.5382  1.7236
 6096TIP3    H239848   0.583   0.111   7.377  1.0114 -1.0412  0.7047
 6097TIP3   OH239849   4.040   0.678   0.216 -0.1304  0.4637  0.0340
 6097TIP3    H139850   4.005   0.696   0.303 -0.2386  0.1721  0.0510
 6097TIP3    H239851   4.023   0.758   0.166 -2.1267 -0.1641 -0.3816
 6098TIP3   OH239852   1.772   6.415   8.585  0.1537 -0.3884 -0.3335
 6098TIP3    H139853   1.742   6.474   8.516  0.2843  0.9962  0.7514
 6098TIP3    H239854   1.785   6.472   8.661  2.3406 -1.4493  0.1725
 6099TIP3   OH239855   5.579   4.418   7.389 -0.3044 -0.0506  0.5908
 6099TIP3    H139856   5.666   4.446   7.363  0.5726  1.4023  4.4926
 6099TIP3    H239857   5.522   4.492   7.368 -0.4937 -0.6328 -1.0853
 6100TIP3   OH239858   0.382   2.610   6.755  0.1722  0.2469 -0.3339
 6100TIP3    H139859   0.450   2.636   6.818 -1.0683 -1.0112  1.6310
 6100TIP3    H239860   0.309   2.669   6.773 -0.4696 -0.6173 -0.0110
 6101TIP3   OH239861   5.932   4.355   0.652  0.5214 -0.3236 -0.0924
 6101TIP3    H139862   5.918   4.260   0.649 -0.1446 -0.1917 -1.4906
 6101TIP3    H239863   5.884   4.389   0.577  0.8651  1.1196  0.3201
 6102TIP3   OH239864   4.901   0.196   8.843 -0.4616  0.5235 -0.2168
 6102TIP3    H139865   4.930   0.106   8.860  0.3601  0.8808  0.3512
 6102TIP3    H239866   4.966   0.231   8.782 -1.2334  0.4845 -1.0757
 6103TIP3   OH239867   1.556   0.800   8.399 -0.4616  0.2199 -0.7318
 6103TIP3    H139868   1.496   0.833   8.466  1.2246  1.0919  0.4170
 6103TIP3    H239869   1.554   0.705   8.411 -0.6550  0.3212  0.1416
 6104TIP3   OH239870   3.369   5.548   7.400 -0.0932  0.3672 -0.6184
 6104TIP3    H139871   3.274   5.550   7.395 -0.0900 -0.6937 -1.3958
 6104TIP3    H239872   3.392   5.455   7.402  0.7871  0.4570  3.2713
 6105TIP3   OH239873   5.855   2.082   7.049  0.0973 -0.3585  0.4656
 6105TIP3    H139874   5.947   2.086   7.075 -0.1666  0.2794  1.3510
 6105TIP3    H239875   5.840   2.164   7.003  0.2610 -0.9765 -0.7085
 6106TIP3   OH239876   4.307   3.127   8.382 -0.9315  0.0936  0.7372
 6106TIP3    H139877   4.237   3.123   8.317 -1.2090 -0.1551  1.0532
 6106TIP3    H239878   4.374   3.181   8.340 -1.5146  0.7487  0.6321
 6107TIP3   OH239879   0.692   2.510   0.454  0.4460 -0.1344  0.3302
 6107TIP3    H139880   0.752   2.472   0.390 -0.7663 -0.8246 -0.4407
 6107TIP3    H239881   0.709   2.604   0.450  1.1070 -0.2690 -0.2539
 6108TIP3   OH239882   3.882   1.380   6.896 -0.0575 -0.1314 -0.2108
 6108TIP3    H139883   3.909   1.472   6.893  0.6982 -0.2689  1.3692
 6108TIP3    H239884   3.799   1.378   6.849 -0.5816  1.5673  0.5628
 6109TIP3   OH239885   6.082   2.120   7.569  0.1218  0.7602  0.0239
 6109TIP3    H139886   6.140   2.140   7.495 -0.0566  2.2124  0.2505
 6109TIP3    H239887   6.125   2.159   7.645 -1.1654  1.9751  0.1739
 6110TIP3   OH239888   3.187   3.183   1.644  0.3259 -0.0807 -0.4465
 6110TIP3    H139889   3.185   3.090   1.620 -0.7529 -0.2188  0.0858
 6110TIP3    H239890   3.169   3.184   1.738  1.1737  0.6269 -0.2818
 6111TIP3   OH239891   3.255   3.363   7.174 -0.3767 -0.1966 -1.0448
 6111TIP3    H139892   3.235   3.425   7.244  0.9855 -0.5631 -0.2939
 6111TIP3    H239893   3.343   3.331   7.195 -0.2706 -0.9203 -2.4865
 6112TIP3   OH239894   3.723   2.809   1.208 -0.1031 -0.1897  0.2841
 6112TIP3    H139895   3.668   2.854   1.144  0.0956  1.1111  0.9838
 6112TIP3    H239896   3.674   2.730   1.231  0.3996 -1.3749 -2.3767
 6113TIP3   OH239897   3.551   4.310   6.934 -0.0553  0.6102 -0.0278
 6113TIP3    H139898   3.610   4.346   7.000  0.3057  0.2528 -0.1538
 6113TIP3    H239899   3.503   4.386   6.901  0.5850  0.9565 -0.1784
 6114TIP3   OH239900   1.945   1.303   8.128  0.1456  0.4126  0.0560
 6114TIP3    H139901   1.951   1.213   8.096  0.1190  0.8772 -1.3008
 6114TIP3    H239902   1.879   1.298   8.198  1.6049 -0.9721  1.4171
 6115TIP3   OH239903   4.810   3.109   2.252  0.2802 -0.4332  0.1339
 6115TIP3    H139904   4.826   3.038   2.189 -0.6753 -0.3511 -0.2095
 6115TIP3    H239905   4.732   3.083   2.299  1.0510 -0.5388  1.3836
 6116TIP3   OH239906   2.057   4.357   6.886  0.0623 -0.2742 -0.0319
 6116TIP3    H139907   1.976   4.321   6.848  0.6251 -0.6109 -0.9520
 6116TIP3    H239908   2.104   4.280   6.919 -0.3702  0.0056  1.2917
 6117TIP3   OH239909   1.248   0.664   1.771 -0.2248 -0.2743 -0.0307
 6117TIP3    H139910   1.166   0.640   1.813 -0.8882  0.3066 -0.9594
 6117TIP3    H239911   1.222   0.713   1.693  0.9798 -0.8993 -0.8651
 6118TIP3   OH239912   5.078   6.243   7.122 -0.3894  0.2004  0.0785
 6118TIP3    H139913   5.155   6.300   7.125  0.3719 -0.8194  0.7708
 6118TIP3    H239914   5.004   6.302   7.135  0.2454  1.2491 -0.9260
 6119TIP3   OH239915   3.524   3.403   8.066  0.5626 -0.5440  0.2479
 6119TIP3    H139916   3.475   3.478   8.100  2.3801  0.8492 -0.0458
 6119TIP3    H239917   3.489   3.389   7.978  1.4716  1.2606 -0.4590
 6120TIP3   OH239918   1.962   3.350   6.657  0.1054 -0.4251 -0.1078
 6120TIP3    H139919   1.910   3.269   6.654  0.1669 -0.4480 -2.7427
 6120TIP3    H239920   2.028   3.338   6.588  1.8732  0.7754  1.2864
 6121TIP3   OH239921   5.369   6.742   7.015 -0.3116 -0.5720 -0.3977
 6121TIP3    H139922   5.447   6.777   7.058 -1.3847  0.6051  0.6780
 6121TIP3    H239923   5.379   6.763   6.923  0.8107 -0.7871 -0.3314
 6122TIP3   OH239924   1.856   2.223   8.632 -0.3931 -0.6963 -0.2529
 6122TIP3    H139925   1.829   2.306   8.593 -2.0425 -1.1917 -0.2530
 6122TIP3    H239926   1.927   2.192   8.577 -0.4100  0.2521 -0.8225
 6123TIP3   OH239927   2.105   1.110   0.961 -0.3480 -0.1387  0.4893
 6123TIP3    H139928   2.030   1.169   0.961 -0.2156  0.0713  2.1088
 6123TIP3    H239929   2.086   1.047   1.032  1.1433  0.1360  1.1687
 6124TIP3   OH239930   6.734   1.164   0.565  0.2115  0.8313 -0.4286
 6124TIP3    H139931   6.808   1.104   0.575 -0.1402  0.4845  0.1260
 6124TIP3    H239932   6.657   1.112   0.587  0.0073  1.7972  1.4270
 6125TIP3   OH239933   2.134   1.821   1.031  0.3281  0.2016  0.0359
 6125TIP3    H139934   2.106   1.773   0.953 -1.5974 -3.3391  2.6509
 6125TIP3    H239935   2.194   1.762   1.076  1.2142  2.0586  1.4260
 6126TIP3   OH239936   2.353   1.476   7.681 -0.0845 -0.5673 -0.2641
 6126TIP3    H139937   2.448   1.483   7.674 -0.0248 -1.7082 -0.8835
 6126TIP3    H239938   2.337   1.456   7.774  0.3578 -1.2048 -0.3138
 6127TIP3   OH239939   1.007   3.690   8.445 -0.2767  0.1970 -0.3463
 6127TIP3    H139940   1.085   3.636   8.458 -0.9703 -0.6090  0.5974
 6127TIP3    H239941   0.983   3.719   8.533 -0.2718  1.5762 -0.7712
 6128TIP3   OH239942   6.482   2.037   0.621 -0.1364 -0.2698  0.9351
 6128TIP3    H139943   6.450   2.109   0.566 -1.4587 -1.9206 -0.5777
 6128TIP3    H239944   6.494   2.077   0.708  0.7454  2.1182 -0.1781
 6129TIP3   OH239945   5.160   3.115   1.285 -0.2535  0.3070 -0.0246
 6129TIP3    H139946   5.098   3.092   1.354 -1.1385 -2.1016 -1.4777
 6129TIP3    H239947   5.132   3.201   1.255 -1.7806  0.0623  0.5883
 6130TIP3   OH239948   0.725   2.464   8.456 -0.2596  0.3037 -0.1064
 6130TIP3    H139949   0.651   2.428   8.505 -0.7841  0.4065 -0.8179
 6130TIP3    H239950   0.692   2.546   8.419 -0.2710 -0.3738 -1.6663
 6131TIP3   OH239951   4.889   0.882   8.842 -0.2494  0.3837  0.0308
 6131TIP3    H139952   4.969   0.930   8.860 -1.2221  1.6445  1.2646
 6131TIP3    H239953   4.918   0.795   8.814  1.5539  1.3930 -1.4620
 6132TIP3   OH239954   1.605   4.073   6.412 -0.2105  0.7794 -0.2534
 6132TIP3    H139955   1.570   4.016   6.480  1.4222 -0.0250 -0.0373
 6132TIP3    H239956   1.606   4.018   6.333  3.0962 -0.2427  0.3508
 6133TIP3   OH239957   5.399   3.336   7.639  0.2637 -0.2873  0.2133
 6133TIP3    H139958   5.463   3.376   7.697 -0.4484  2.3966 -0.7006
 6133TIP3    H239959   5.446   3.320   7.558  0.4283 -0.8980  0.4237
 6134TIP3   OH239960   3.184   6.596   0.644  0.0871  0.1361 -0.0407
 6134TIP3    H139961   3.120   6.638   0.586  2.8213  1.7918 -2.0510
 6134TIP3    H239962   3.151   6.614   0.732 -1.7833  1.5980 -0.9582
 6135TIP3   OH239963   6.200   0.854   1.360 -0.4354 -0.4542  0.5290
 6135TIP3    H139964   6.192   0.855   1.456 -1.3795  0.3304  0.4509
 6135TIP3    H239965   6.255   0.929   1.340 -0.1390 -0.6894  0.4625
 6136TIP3   OH239966   4.805   0.534   2.363 -0.2231 -0.2456 -0.1601
 6136TIP3    H139967   4.770   0.602   2.305 -0.5420  0.2198  0.5724
 6136TIP3    H239968   4.771   0.556   2.449 -2.8171 -2.9789 -0.3222
 6137TIP3   OH239969   0.888   2.469   7.753 -0.2766  0.6871 -0.4327
 6137TIP3    H139970   0.966   2.491   7.804  0.1315 -1.5723  0.0275
 6137TIP3    H239971   0.816   2.512   7.798  0.1984 -0.5230  1.5908
 6138TIP3   OH239972   6.314   1.650   7.176  0.3305  0.6054  0.5541
 6138TIP3    H139973   6.358   1.582   7.227 -0.3639 -0.9676 -0.8585
 6138TIP3    H239974   6.385   1.703   7.140  0.9201  0.0403  0.8706
 6139TIP3   OH239975   1.645   3.426   6.582 -0.5479  0.4203 -0.2966
 6139TIP3    H139976   1.704   3.353   6.603  0.3799  1.5004  0.9924
 6139TIP3    H239977   1.599   3.397   6.504  1.5897 -0.5300 -1.2941
 6140TIP3   OH239978   6.672   4.061   1.147  0.1568  0.0271  0.7987
 6140TIP3    H139979   6.582   4.050   1.178 -0.6297  1.7104 -0.6422
 6140TIP3    H239980   6.664   4.062   1.051  2.0267 -1.8269  0.5484
 6141TIP3   OH239981   1.360   1.610   7.091  0.6625  0.4767  0.2001
 6141TIP3    H139982   1.287   1.638   7.147  1.5147 -1.0703  2.2311
 6141TIP3    H239983   1.429   1.585   7.153  2.6365  1.0847 -1.6389
 6142TIP3   OH239984   4.939   3.730   8.266  0.3044 -0.0288 -0.3888
 6142TIP3    H139985   4.999   3.658   8.245  0.4886 -0.4006  1.2623
 6142TIP3    H239986   4.906   3.709   8.353 -2.4268  0.0644 -1.3218
 6143TIP3   OH239987   5.096   3.637   0.253  0.1754 -0.2809 -0.7444
 6143TIP3    H139988   5.060   3.592   0.177 -0.8702 -4.0487  1.7379
 6143TIP3    H239989   5.020   3.677   0.295  0.1729 -1.1425  0.0975
 6144TIP3   OH239990   5.090   4.483   7.516 -0.1014  0.2648  0.3717
 6144TIP3    H139991   5.124   4.546   7.579 -0.1675  0.2107  0.4624
 6144TIP3    H239992   5.119   4.398   7.549  0.0720  0.2547  0.1964
 6145TIP3   OH239993   3.955   6.289   6.593 -0.1704 -0.2662 -0.4056
 6145TIP3    H139994   3.889   6.260   6.530  1.3909 -1.9862 -1.3576
 6145TIP3    H239995   4.039   6.261   6.555  1.0009  0.4593  1.4710
 6146TIP3   OH239996   2.059   3.302   8.147  0.2012  0.1719  0.2008
 6146TIP3    H139997   2.043   3.387   8.106  1.9327  1.1234  1.3456
 6146TIP3    H239998   2.053   3.239   8.075  0.6703  1.4910 -1.0476
 6147TIP3   OH239999   6.183   3.998   8.169 -0.1310  0.1549 -0.0663
 6147TIP3    H140000   6.143   3.974   8.086 -2.4193 -2.4760  1.6394
 6147TIP3    H240001   6.253   3.934   8.182 -0.4155 -0.0520  0.4725
 6148TIP3   OH240002   5.944   2.491   6.946  0.1740 -0.4041  0.0546
 6148TIP3    H140003   5.871   2.502   6.885  1.8092 -1.8336 -2.3269
 6148TIP3    H240004   5.937   2.566   7.006 -2.1392  0.4941 -1.2237
 6149TIP3   OH240005   4.071   4.053   0.329  0.4563  0.0968 -0.0951
 6149TIP3    H140006   4.039   4.142   0.317 -0.5868  0.2219  2.9353
 6149TIP3    H240007   4.013   3.999   0.275 -0.3474  1.0220 -0.1829
 6150TIP3   OH240008   3.587   4.583   8.802  0.1203  0.0964  0.9158
 6150TIP3    H140009   3.542   4.500   8.793 -0.5333  0.5645 -0.3636
 6150TIP3    H240010   3.519   4.645   8.831  0.6669  0.1446  2.1830
 6151TIP3   OH240011   0.246   3.678   1.089  0.0044 -0.1021 -0.1968
 6151TIP3    H140012   0.300   3.678   1.010 -1.0216 -0.0104 -0.9231
 6151TIP3    H240013   0.246   3.587   1.118  3.4179  0.4059  1.9022
 6152TIP3   OH240014   4.609   4.345   6.173 -0.4641 -0.1063  0.1237
 6152TIP3    H140015   4.546   4.352   6.244 -1.3479  0.7369 -0.6963
 6152TIP3    H240016   4.558   4.311   6.099  0.7060 -2.1523  0.1860
 6153TIP3   OH240017   3.035   6.089   8.529  0.6264  0.2927  0.0821
 6153TIP3    H140018   3.062   6.168   8.576  0.0458  1.2191 -1.0867
 6153TIP3    H240019   3.084   6.018   8.571  1.1222  1.2615  1.1893
 6154TIP3   OH240020   1.241   1.435   0.845  0.2856  0.1230 -0.3745
 6154TIP3    H140021   1.322   1.466   0.886 -0.9010 -0.2632  2.5190
 6154TIP3    H240022   1.173   1.492   0.879 -1.0926 -1.7104  0.1319
 6155TIP3   OH240023   6.336   2.045   8.469  0.2505  0.0978  0.2849
 6155TIP3    H140024   6.294   1.965   8.437 -0.8064  0.4765  0.6860
 6155TIP3    H240025   6.344   2.100   8.390 -0.8038  0.3557  0.3401
 6156TIP3   OH240026   5.179   4.228   7.035  0.4233  0.7081 -0.6420
 6156TIP3    H140027   5.194   4.224   6.940  1.1147  1.1237 -0.5547
 6156TIP3    H240028   5.211   4.314   7.061  1.3416  0.1382  0.1626
 6157TIP3   OH240029   4.837   5.343   0.233 -0.1463  0.5210 -0.6394
 6157TIP3    H140030   4.845   5.436   0.253 -1.4711  0.8603 -1.5938
 6157TIP3    H240031   4.926   5.316   0.209 -0.0864  2.0104 -2.3190
 6158TIP3   OH240032   0.557   2.331   7.580  0.5657 -0.1631  0.1752
 6158TIP3    H140033   0.647   2.304   7.562  0.3430 -1.8887  1.3926
 6158TIP3    H240034   0.538   2.296   7.667 -1.0059  0.9120  0.3091
 6159TIP3   OH240035   5.973   0.235   0.089  0.4665  0.2606  0.0461
 6159TIP3    H140036   5.973   0.314   0.144 -0.0989 -0.0865  0.5562
 6159TIP3    H240037   6.059   0.196   0.103  0.6492  0.6424 -0.0005
 6160TIP3   OH240038   2.220   2.309   0.382  0.0659 -0.1694  0.0938
 6160TIP3    H140039   2.304   2.333   0.422  0.6194 -0.5358 -0.8014
 6160TIP3    H240040   2.159   2.375   0.412  0.7995  0.3965  0.3645
 6161TIP3   OH240041   0.773   4.121   0.588 -0.0523 -0.0439 -0.0994
 6161TIP3    H140042   0.788   4.027   0.598  1.1960  0.1232 -0.2574
 6161TIP3    H240043   0.680   4.132   0.606  0.2954 -0.9418  2.7836
 6162TIP3   OH240044   0.471   1.704   1.440  0.3816  0.2830 -0.2914
 6162TIP3    H140045   0.451   1.619   1.402 -1.3075  0.3465  0.3815
 6162TIP3    H240046   0.508   1.684   1.526 -1.7613  0.2034  0.6685
 6163TIP3   OH240047   3.925   2.332   8.816 -0.0872  0.7007  0.4367
 6163TIP3    H140048   3.899   2.311   8.906 -0.2904  0.7186  0.3818
 6163TIP3    H240049   3.962   2.420   8.822  3.9723 -0.8386  1.3161
 6164TIP3   OH240050   4.264   1.513   7.225  0.0240 -0.2196  0.3764
 6164TIP3    H140051   4.219   1.431   7.206 -0.0235  0.0676 -0.8479
 6164TIP3    H240052   4.222   1.577   7.168  1.7627  0.1310 -0.5726
 6165TIP3   OH240053   0.079   1.276   0.079  0.1234  0.2732 -0.4390
 6165TIP3    H140054   0.152   1.332   0.105 -0.2601  0.4433  0.2975
 6165TIP3    H240055   0.056   1.229   0.159 -0.1393 -0.2770 -0.8327
 6166TIP3   OH240056   3.480   5.085   0.037 -0.1025  0.3931  0.2546
 6166TIP3    H140057   3.551   5.107  -0.023 -0.7769 -0.0373 -0.7338
 6166TIP3    H240058   3.417   5.156   0.027 -1.6274 -1.1353 -1.8846
 6167TIP3   OH240059   3.937   4.315   0.396  0.1639 -0.2768  0.2525
 6167TIP3    H140060   3.983   4.313   0.480  0.4873  0.9120  0.1258
 6167TIP3    H240061   3.936   4.408   0.372  0.7767 -0.6797 -1.4436
 6168TIP3   OH240062   2.902   1.037   1.429  0.6449 -0.6555 -0.5566
 6168TIP3    H140063   2.945   0.952   1.420  0.5893 -0.8465  0.7031
 6168TIP3    H240064   2.911   1.058   1.522  2.5870  1.7572 -1.1917
 6169TIP3   OH240065   1.798   1.775   6.370  0.2334 -0.0798  0.1095
 6169TIP3    H140066   1.878   1.801   6.416  0.3083  0.0631 -0.0982
 6169TIP3    H240067   1.826   1.765   6.279  0.1338 -0.5659  0.1297
 6170TIP3   OH240068   4.119   2.582   8.421 -0.5982 -0.6442  0.0681
 6170TIP3    H140069   4.111   2.595   8.327  2.5789  2.0434 -0.0269
 6170TIP3    H240070   4.047   2.633   8.458 -0.4526  0.2843 -0.8836
 6171TIP3   OH240071   2.154   1.634   8.657  0.2820  0.1049  0.4721
 6171TIP3    H140072   2.085   1.582   8.617  1.3201 -1.2518  0.3853
 6171TIP3    H240073   2.148   1.719   8.614  0.1202 -0.7153 -1.1749
 6172TIP3   OH240074   5.227   6.080   7.764 -0.1907 -0.4555  0.1127
 6172TIP3    H140075   5.216   5.992   7.729  0.0300  0.0921 -1.4060
 6172TIP3    H240076   5.148   6.096   7.815 -0.5885 -1.2402 -0.2481
 6173TIP3   OH240077   5.522   3.138   8.078  0.0838  0.3501 -0.7712
 6173TIP3    H140078   5.538   3.044   8.087 -0.8487  0.3572  2.3184
 6173TIP3    H240079   5.478   3.147   7.994 -1.5409 -2.3076 -0.3473
 6174TIP3   OH240080   5.110   5.885   8.711 -0.3938 -0.4902 -0.4283
 6174TIP3    H140081   5.184   5.938   8.682 -0.9830  2.0235  2.2098
 6174TIP3    H240082   5.150   5.805   8.744  0.9932  0.0899 -0.6255
 6175TIP3   OH240083   0.556   5.347   8.296 -0.4148 -0.1450  0.5879
 6175TIP3    H140084   0.614   5.421   8.279 -0.1840 -0.4426  0.0353
 6175TIP3    H240085   0.549   5.343   8.392  0.7167 -0.2841  0.6776
 6176TIP3   OH240086   3.324   4.699   7.523 -0.0511 -0.5930  0.1582
 6176TIP3    H140087   3.315   4.619   7.575  1.0629  0.4796  2.1352
 6176TIP3    H240088   3.304   4.770   7.584 -3.5293  0.6711 -2.1484
 6177TIP3   OH240089   0.780   0.534   0.930  0.2343  0.0947 -0.2116
 6177TIP3    H140090   0.745   0.604   0.874  0.2713  0.3052  0.0261
 6177TIP3    H240091   0.842   0.487   0.873  0.3650  0.3831 -0.3108
 6178TIP3   OH240092   5.594   4.757   1.160 -0.2376 -0.1156  0.4279
 6178TIP3    H140093   5.626   4.667   1.165 -1.2365 -0.4360  1.4066
 6178TIP3    H240094   5.608   4.782   1.068 -1.2719 -1.7820 -0.2305
 6179TIP3   OH240095   4.952   4.028   6.119  0.2587  0.1516 -0.3463
 6179TIP3    H140096   4.902   4.064   6.192 -0.2259  0.3438 -0.7643
 6179TIP3    H240097   4.938   3.933   6.124  1.3833  0.0136  0.6468
 6180TIP3   OH240098   6.221   4.455   0.725  0.6024 -0.2469 -0.4196
 6180TIP3    H140099   6.305   4.443   0.680  0.6073 -2.0782  0.0238
 6180TIP3    H240100   6.159   4.403   0.675 -0.3088  1.0744 -0.7296
 6181TIP3   OH240101   2.073   3.754   0.099 -0.3445 -0.6306  0.1652
 6181TIP3    H140102   2.088   3.806   0.020 -1.9934 -1.6783 -0.8900
 6181TIP3    H240103   2.105   3.810   0.170 -2.0552  1.8967 -0.8895
 6182TIP3   OH240104   2.824   0.872   0.292  0.0985 -0.0273 -0.5487
 6182TIP3    H140105   2.740   0.859   0.247  0.1203 -0.7630 -0.3790
 6182TIP3    H240106   2.801   0.919   0.372 -0.0512  0.4768 -0.8805
 6183TIP3   OH240107   2.089   0.716   7.417  0.0237  0.0272  0.5036
 6183TIP3    H140108   2.081   0.737   7.324  0.1308  0.4377  0.5828
 6183TIP3    H240109   2.164   0.769   7.446 -0.8578  0.9546  1.1282
 6184TIP3   OH240110   3.035   6.559   7.314 -0.0284 -0.1736  0.2804
 6184TIP3    H140111   2.952   6.512   7.312 -1.1735  1.7616  0.2598
 6184TIP3    H240112   3.084   6.525   7.239 -0.8519 -1.2378  0.2089
 6185TIP3   OH240113   3.743   3.611   7.595  0.0067 -0.1653 -0.5450
 6185TIP3    H140114   3.838   3.598   7.596 -0.0435 -0.6882 -1.3237
 6185TIP3    H240115   3.731   3.704   7.613  0.6281 -0.2367  0.2980
 6186TIP3   OH240116   0.703   1.285   8.553  0.0899  0.8461 -0.3037
 6186TIP3    H140117   0.716   1.336   8.473  0.7441 -0.1294 -0.8435
 6186TIP3    H240118   0.786   1.294   8.600  1.0453 -1.3782 -1.4077
 6187TIP3   OH240119   5.359   2.730   0.153 -0.5151  0.1555  0.3169
 6187TIP3    H140120   5.416   2.765   0.084 -1.3520  1.0383  0.0388
 6187TIP3    H240121   5.417   2.681   0.210  0.8273  2.3121  0.9148
 6188TIP3   OH240122   0.214   4.050   7.855 -0.0423  0.6147 -0.0995
 6188TIP3    H140123   0.125   4.080   7.836 -0.3376 -0.8282 -1.2591
 6188TIP3    H240124   0.238   4.094   7.936 -2.1308  0.4206  0.6875
 6189TIP3   OH240125   3.424   0.208   0.864 -0.2972  0.3125  0.0233
 6189TIP3    H140126   3.473   0.248   0.793  0.5512  0.5430  0.7285
 6189TIP3    H240127   3.407   0.118   0.834 -0.8142  0.6945 -0.8756
 6190TIP3   OH240128   5.031   6.414   6.911  0.0089 -0.3433  0.4882
 6190TIP3    H140129   4.972   6.488   6.928  0.7777  0.1244  1.1961
 6190TIP3    H240130   5.079   6.440   6.832 -1.4436 -1.1908 -0.7230
 6191TIP3   OH240131   2.497   0.584   1.249 -0.2533 -0.2996  0.1250
 6191TIP3    H140132   2.453   0.533   1.318 -0.3373 -0.0179  0.2830
 6191TIP3    H240133   2.431   0.592   1.180 -1.3517  2.1673  1.3372
 6192TIP3   OH240134   1.233   1.310   0.250  0.7598  0.0466 -0.3813
 6192TIP3    H140135   1.242   1.404   0.266  0.7869 -0.0874  0.4136
 6192TIP3    H240136   1.214   1.304   0.156 -1.4572  0.9971 -0.0682
 6193TIP3   OH240137   1.746   2.580   8.742 -0.1569  0.1285 -0.4370
 6193TIP3    H140138   1.685   2.616   8.678 -1.3210 -0.6966  0.1610
 6193TIP3    H240139   1.793   2.512   8.695 -0.9299 -0.3990 -0.4722
 6194TIP3   OH240140   0.360   1.412   8.048  0.4658  0.3382 -0.2021
 6194TIP3    H140141   0.409   1.409   8.130 -0.8405 -0.5240  0.5812
 6194TIP3    H240142   0.394   1.338   7.998 -0.8966 -1.0921  0.8919
 6195TIP3   OH240143   1.867   4.007   1.906 -0.3830 -0.4909 -0.1444
 6195TIP3    H140144   1.925   3.957   1.849  1.3113 -0.3305  1.3537
 6195TIP3    H240145   1.817   3.940   1.954 -0.7365 -0.6528 -0.7327
 6196TIP3   OH240146   3.398   0.214   7.396 -0.7679  0.1319 -0.5938
 6196TIP3    H140147   3.442   0.131   7.412 -0.7544  0.0238 -1.1691
 6196TIP3    H240148   3.366   0.207   7.306 -1.7022  0.3255 -0.2883
 6197TIP3   OH240149   2.699   3.641   8.662 -0.0801  0.4256 -0.1544
 6197TIP3    H140150   2.611   3.603   8.665  0.5541 -1.1419 -0.4233
 6197TIP3    H240151   2.684   3.734   8.648 -1.7323  0.4672  1.5364
 6198TIP3   OH240152   3.440   3.714   7.390  0.6432  0.4684  0.5649
 6198TIP3    H140153   3.417   3.634   7.438 -0.6418  0.1270 -0.5510
 6198TIP3    H240154   3.367   3.774   7.408  0.3844  0.5075 -0.5398
 6199TIP3   OH240155   4.111   0.217   6.360 -0.7560 -0.0417  1.0572
 6199TIP3    H140156   4.185   0.162   6.384 -0.1605 -0.0346 -0.5981
 6199TIP3    H240157   4.060   0.226   6.440  0.0892 -1.5144  1.8024
 6200TIP3   OH240158   4.837   6.595   6.974 -0.0626 -0.3932  0.3723
 6200TIP3    H140159   4.761   6.555   6.933 -0.7343  1.3214 -0.1619
 6200TIP3    H240160   4.801   6.652   7.042  0.7605  0.1699  0.3481
 6201TIP3   OH240161   4.053   1.648   8.511 -0.1054 -0.3435 -0.0999
 6201TIP3    H140162   4.068   1.671   8.603 -0.4034  2.4282 -0.6501
 6201TIP3    H240163   4.133   1.604   8.484  2.2974  3.3101  0.2412
 6202TIP3   OH240164   2.500   1.855   8.775 -0.4592  0.2486 -0.5188
 6202TIP3    H140165   2.595   1.841   8.777  0.2017  3.8380 -0.1086
 6202TIP3    H240166   2.475   1.861   8.867 -0.8790  0.5268 -0.6483
 6203TIP3   OH240167   1.085   0.994   1.689 -0.5796 -0.0881  0.1548
 6203TIP3    H140168   1.066   1.045   1.768  0.5285  1.4378 -0.5126
 6203TIP3    H240169   1.180   0.999   1.679 -0.5683 -1.3679 -0.5595
 6204TIP3   OH240170   5.043   5.730   0.806 -0.2855  0.2863 -0.1698
 6204TIP3    H140171   5.111   5.694   0.863 -0.2384  1.4458  0.5202
 6204TIP3    H240172   4.968   5.672   0.818 -0.0389  0.1057  0.5274
 6205TIP3   OH240173   4.377   4.910   1.905  0.2618  0.4787 -0.4330
 6205TIP3    H140174   4.367   4.869   1.991  0.9159 -1.8551 -1.3882
 6205TIP3    H240175   4.458   4.961   1.912 -0.4719  1.5615  0.7263
 6206TIP3   OH240176   6.399   0.072   1.917 -0.2577 -0.4657 -0.5390
 6206TIP3    H140177   6.383  -0.013   1.876  0.5969 -0.5915 -0.6243
 6206TIP3    H240178   6.437   0.050   2.002 -0.0575 -0.1700 -0.5509
 6207TIP3   OH240179   5.858   5.101   1.886 -0.1917  0.1075 -0.2714
 6207TIP3    H140180   5.872   5.055   1.968  0.4226  0.2379 -0.3041
 6207TIP3    H240181   5.943   5.101   1.842  0.0556  2.0063  0.1194
 6208TIP3   OH240182   1.458   3.307   6.416  0.5108  0.2310 -0.8315
 6208TIP3    H140183   1.477   3.246   6.487 -1.2237 -0.6333 -1.0480
 6208TIP3    H240184   1.423   3.253   6.346  0.6029  1.2755 -1.7169
 6209TIP3   OH240185   1.825   3.155   8.219  0.1960  0.4340  0.0949
 6209TIP3    H140186   1.886   3.227   8.207  0.9360 -0.4876 -2.1014
 6209TIP3    H240187   1.778   3.148   8.136  1.3975 -2.6706 -0.4489
 6210TIP3   OH240188   0.306   3.462   7.907 -0.0163  0.1662 -0.0573
 6210TIP3    H140189   0.308   3.558   7.908  1.1067  0.1778  1.7130
 6210TIP3    H240190   0.255   3.438   7.984  3.1679 -0.5789  2.0018
 6211TIP3   OH240191   5.095   1.344   7.083 -0.5276  0.3873  1.1072
 6211TIP3    H140192   5.148   1.417   7.113  0.5049 -0.3414  1.1019
 6211TIP3    H240193   5.093   1.354   6.988  2.3802 -1.3509  0.7502
 6212TIP3   OH240194   6.178   5.816   2.542 -0.6849 -0.1425 -0.0010
 6212TIP3    H140195   6.169   5.905   2.510 -1.4325  0.9947  2.9837
 6212TIP3    H240196   6.269   5.810   2.571 -1.3627  0.8833  2.6965
 6213TIP3   OH240197   1.617   4.079   7.215  0.5634 -0.7878  0.5838
 6213TIP3    H140198   1.551   4.080   7.145  1.3247  1.1927 -0.1650
 6213TIP3    H240199   1.567   4.092   7.295 -0.0821 -0.4662  0.1394
 6214TIP3   OH240200   3.651   4.777   0.843  0.3972  0.0040  0.1643
 6214TIP3    H140201   3.572   4.730   0.868 -0.6003  1.1062 -0.7668
 6214TIP3    H240202   3.713   4.709   0.817 -0.7418 -0.8280 -0.4445
 6215TIP3   OH240203   4.347   1.181   0.662  0.6084 -0.1531  0.5510
 6215TIP3    H140204   4.437   1.211   0.654  1.9133 -3.1250  2.1952
 6215TIP3    H240205   4.338   1.155   0.754 -1.3462 -1.5403  0.0529
 6216TIP3   OH240206   5.081   3.628   2.180 -0.6447  0.2028  0.3348
 6216TIP3    H140207   5.133   3.623   2.100 -1.0258  0.3857  0.0722
 6216TIP3    H240208   5.044   3.540   2.189 -1.5595  0.5052 -0.3474
 6217TIP3   OH240209   1.966   6.357   1.765 -0.1036 -0.1922 -0.3819
 6217TIP3    H140210   2.010   6.272   1.767  0.0504 -0.0897  0.9555
 6217TIP3    H240211   1.962   6.379   1.671 -1.4747 -2.3361 -0.8907
 6218TIP3   OH240212   2.227   1.331   1.266 -0.2541  0.4947  0.0775
 6218TIP3    H140213   2.173   1.252   1.267  0.9902 -0.3839  0.7107
 6218TIP3    H240214   2.212   1.372   1.351  0.8888 -0.3530  0.7142
 6219TIP3   OH240215   4.761   4.063   8.838  0.2074 -0.6056  0.0310
 6219TIP3    H140216   4.852   4.086   8.818  0.0376 -1.2579 -1.6689
 6219TIP3    H240217   4.724   4.144   8.875  1.2416 -0.0829 -0.0143
 6220TIP3   OH240218   5.367   6.786   8.374  0.4583 -0.6341  1.1616
 6220TIP3    H140219   5.330   6.773   8.461  0.9927 -1.9135  1.2263
 6220TIP3    H240220   5.436   6.852   8.386 -0.3094  0.1294  1.4519
 6221TIP3   OH240221   6.279   1.683   2.494 -0.2331  0.1102  0.2659
 6221TIP3    H140222   6.287   1.601   2.446  0.8922  0.1920  0.2980
 6221TIP3    H240223   6.242   1.745   2.430 -0.5827 -0.2841  0.0874
 6222TIP3   OH240224   0.591   6.236   7.907 -0.3223  0.1377  0.0520
 6222TIP3    H140225   0.520   6.280   7.953 -0.7933  1.1951 -1.6052
 6222TIP3    H240226   0.547   6.187   7.837  0.2179 -2.6852  1.5021
 6223TIP3   OH240227   3.642   0.005   1.349  0.0670  0.0152 -0.1848
 6223TIP3    H140228   3.699   0.043   1.282  0.6640 -0.3493  0.1142
 6223TIP3    H240229   3.638   0.071   1.417  4.8498 -1.9976  2.5688
 6224TIP3   OH240230   4.664   6.579   1.729  0.7791 -0.1879  0.0086
 6224TIP3    H140231   4.757   6.593   1.746  1.2276  4.5838 -4.0606
 6224TIP3    H240232   4.661   6.518   1.655  0.9959  1.2132 -1.2185
 6225TIP3   OH240233   6.112   3.703   0.066 -0.4027  0.3799  0.6292
 6225TIP3    H140234   6.051   3.680  -0.004  0.6649 -1.2322  0.1726
 6225TIP3    H240235   6.056   3.732   0.138 -1.6841 -0.4999  0.0300
 6226TIP3   OH240236   3.066   5.905   0.985  0.0694 -0.8183 -0.1478
 6226TIP3    H140237   2.973   5.920   1.002  0.1972 -1.7033  1.5198
 6226TIP3    H240238   3.092   5.979   0.931 -1.6954 -0.7844 -1.0456
 6227TIP3   OH240239   6.259   3.546   7.879  0.0746  0.0611  0.0810
 6227TIP3    H140240   6.287   3.460   7.846  3.2476  0.2288  1.9677
 6227TIP3    H240241   6.306   3.609   7.824 -1.2420  0.5952 -0.4677
 6228TIP3   OH240242   4.435   0.033   6.026 -0.4097  0.5645 -0.4103
 6228TIP3    H140243   4.444   0.069   6.114  1.0695  1.6948 -1.0037
 6228TIP3    H240244   4.346  -0.004   6.025 -0.5868  0.8498  1.4208
 6229TIP3   OH240245   2.349   5.331   7.864  0.2725 -0.2495  0.5961
 6229TIP3    H140246   2.320   5.290   7.946 -1.3305  1.0613  0.7457
 6229TIP3    H240247   2.413   5.396   7.891  0.0106 -0.0649  0.7824
 6230TIP3   OH240248   3.138   0.379   1.425 -0.0612 -0.2678  0.1250
 6230TIP3    H140249   3.168   0.403   1.513 -0.3443  1.8792 -0.3005
 6230TIP3    H240250   3.044   0.365   1.435 -0.0126 -0.4976  0.2570
 6231TIP3   OH240251   5.018   4.728   1.479  0.0909 -0.1661 -0.0981
 6231TIP3    H140252   4.959   4.653   1.470  0.5081 -0.4213 -0.7858
 6231TIP3    H240253   5.012   4.753   1.572 -0.1886 -0.9378  0.0956
 6232TIP3   OH240254   0.437   2.513   1.628 -0.2706  0.5441  0.7050
 6232TIP3    H140255   0.459   2.511   1.721  1.6565 -0.2366  0.2864
 6232TIP3    H240256   0.512   2.556   1.587 -0.6567  0.0159 -0.5985
 6233TIP3   OH240257   0.600   1.994   7.870 -0.6668 -0.4261  0.3400
 6233TIP3    H140258   0.580   2.087   7.857 -0.7814 -0.3076  1.2938
 6233TIP3    H240259   0.525   1.948   7.832 -0.3960 -0.1541 -0.5514
 6234TIP3   OH240260   6.771   6.247   1.295  0.2227 -0.9205  0.5348
 6234TIP3    H140261   6.698   6.310   1.290  1.2668  0.2376 -0.8553
 6234TIP3    H240262   6.842   6.296   1.336  0.7295 -1.5171  0.3882
 6235TIP3   OH240263   1.049   0.740   1.518 -0.4183  0.0385  0.6846
 6235TIP3    H140264   1.060   0.835   1.517 -2.1924  0.2698  0.4899
 6235TIP3    H240265   0.979   0.725   1.581  0.6077 -1.2491  1.5539
 6236TIP3   OH240266   6.009   0.238   0.748  0.3913  0.6663 -0.3193
 6236TIP3    H140267   6.051   0.196   0.673 -0.1663  0.3103 -0.4417
 6236TIP3    H240268   6.033   0.182   0.822  0.0810  0.4250 -0.3996
 6237TIP3   OH240269   6.282   3.184   7.432  0.0478 -0.0606 -0.1286
 6237TIP3    H140270   6.377   3.173   7.437  0.0218 -0.9544 -1.1623
 6237TIP3    H240271   6.250   3.103   7.393 -1.1813  0.1067  0.4834
 6238TIP3   OH240272   1.060   4.544   0.389 -0.8362  0.7455 -0.4199
 6238TIP3    H140273   1.145   4.558   0.429 -1.2533  0.6859  0.5161
 6238TIP3    H240274   1.079   4.524   0.298  0.1903  0.0658 -0.0711
 6239TIP3   OH240275   1.006   6.326   8.005 -0.6367 -0.2381  0.4754
 6239TIP3    H140276   1.051   6.307   7.922 -0.9188  0.6534  0.1074
 6239TIP3    H240277   1.034   6.256   8.064  3.5081  1.6421  1.1353
 6240TIP3   OH240278   5.562   5.544   7.544  0.3407  0.4824 -0.1751
 6240TIP3    H140279   5.537   5.566   7.454 -0.6270  0.6290  0.1120
 6240TIP3    H240280   5.479   5.525   7.587  0.9281 -1.5429  0.1845
 6241TIP3   OH240281   2.324   4.391   6.767 -0.3843  0.2290  0.3930
 6241TIP3    H140282   2.228   4.396   6.764 -0.4628 -0.9193  0.7626
 6241TIP3    H240283   2.353   4.453   6.700 -1.4308 -0.7664 -1.0432
 6242TIP3   OH240284   2.883   5.109   6.873 -0.1891 -0.5326  0.6910
 6242TIP3    H140285   2.865   5.035   6.931 -2.8382 -1.3683 -1.0121
 6242TIP3    H240286   2.812   5.107   6.809 -0.3873  3.5119  0.5373
 6243TIP3   OH240287   3.398   6.728   7.506 -0.1634 -0.2859 -0.0833
 6243TIP3    H140288   3.371   6.637   7.495 -0.1763 -0.3705  0.5948
 6243TIP3    H240289   3.479   6.736   7.455 -1.6245  0.0800 -2.5052
 6244TIP3   OH240290   5.277   1.041   8.534 -0.0587  0.1175  0.3516
 6244TIP3    H140291   5.244   1.131   8.542  1.5459  0.7105  0.6515
 6244TIP3    H240292   5.237   1.009   8.453  0.5732  1.6821 -0.6338
 6245TIP3   OH240293   1.079   4.272   8.107 -0.1390  0.1874  0.1416
 6245TIP3    H140294   1.040   4.200   8.057 -0.2519  0.9075 -0.8337
 6245TIP3    H240295   1.123   4.325   8.041  1.9792 -0.2454  1.1351
 6246TIP3   OH240296   5.708   6.519   1.767 -0.3087 -0.3881  0.0487
 6246TIP3    H140297   5.695   6.507   1.673 -1.6107  0.8813  0.0497
 6246TIP3    H240298   5.729   6.612   1.777 -1.1581 -0.2883  1.0989
 6247TIP3   OH240299   4.419   0.095   0.563  0.1108 -0.0538  0.5084
 6247TIP3    H140300   4.339   0.141   0.585  0.7392  1.2356  0.2256
 6247TIP3    H240301   4.391   0.021   0.509 -0.9093  0.1454  0.7548
 6248TIP3   OH240302   0.303   4.109   7.386 -0.1045  0.6620 -0.2740
 6248TIP3    H140303   0.247   4.132   7.460 -0.7394  0.5573 -0.7159
 6248TIP3    H240304   0.253   4.044   7.337 -0.0691  1.3528 -1.2622
 6249TIP3   OH240305   0.889   2.870   2.342  0.1483 -0.5098 -0.1228
 6249TIP3    H140306   0.984   2.881   2.348  0.4503 -1.8598 -1.7543
 6249TIP3    H240307   0.853   2.957   2.361  1.8976  1.0891 -3.2590
 6250TIP3   OH240308   2.083   5.141   0.888  0.5247  0.6881 -0.1175
 6250TIP3    H140309   2.018   5.074   0.908  0.5380  0.3894 -1.0104
 6250TIP3    H240310   2.166   5.094   0.882  0.3657  0.5701 -1.8661
 6251TIP3   OH240311   0.761   6.399   7.085 -0.2025  0.1429 -0.2934
 6251TIP3    H140312   0.802   6.451   7.155  0.2577  0.6348 -0.9236
 6251TIP3    H240313   0.674   6.378   7.120 -0.1355  0.7358  0.2594
 6252TIP3   OH240314   0.824   6.287   1.731 -0.1046  0.1186 -0.1824
 6252TIP3    H140315   0.818   6.345   1.807 -2.0764 -0.7375  0.3844
 6252TIP3    H240316   0.744   6.305   1.681 -0.7749 -2.0298  0.0213
 6253TIP3   OH240317   1.130   6.239   1.387 -0.0642 -1.2870 -0.0492
 6253TIP3    H140318   1.060   6.262   1.326  0.0179 -0.8601  0.0151
 6253TIP3    H240319   1.209   6.240   1.333  0.1263 -0.0816  0.2294
 6254TIP3   OH240320   4.728   0.706   1.689 -0.0451 -0.0521 -0.3480
 6254TIP3    H140321   4.693   0.705   1.778 -0.9168 -3.5298 -0.6121
 6254TIP3    H240322   4.653   0.727   1.633 -0.0509 -0.2937 -0.4313
 6255TIP3   OH240323   0.935   6.530   7.725  0.4305 -0.2380  0.4068
 6255TIP3    H140324   0.852   6.525   7.772 -0.9258  1.4700 -1.6534
 6255TIP3    H240325   0.979   6.447   7.746 -2.5704 -2.0406  0.1231
 6256TIP3   OH240326   0.418   6.764   8.009 -0.0590  0.4808  0.7176
 6256TIP3    H140327   0.360   6.821   8.059  0.6658 -0.0634  2.2300
 6256TIP3    H240328   0.488   6.821   7.979 -0.9532  0.9902 -0.4933
 6257TIP3   OH240329   2.946   2.059   0.505 -0.4658  0.0129  1.1361
 6257TIP3    H140330   2.903   2.086   0.586 -0.7818  0.2022  0.9074
 6257TIP3    H240331   2.965   2.142   0.460 -0.7698 -0.1172  0.7731
 6258TIP3   OH240332   6.528   5.987   7.780  0.1876 -0.1751  0.0936
 6258TIP3    H140333   6.455   6.014   7.726  0.2388  0.0242  0.1233
 6258TIP3    H240334   6.512   6.028   7.865 -0.5768 -1.5315  0.6397
 6259TIP3   OH240335   2.839   0.293   7.144 -0.0870  0.3180  0.3574
 6259TIP3    H140336   2.861   0.243   7.223 -1.5351  1.7672  1.7664
 6259TIP3    H240337   2.923   0.320   7.108  0.6298 -1.0890  0.9245
 6260TIP3   OH240338   2.209   5.973   8.478 -0.5778 -0.0481 -0.5563
 6260TIP3    H140339   2.117   5.961   8.456 -1.0494 -2.1157  1.9383
 6260TIP3    H240340   2.257   5.924   8.411 -1.5294 -1.5679 -0.1640
 6261TIP3   OH240341   2.956   3.370   1.230  0.0306 -0.6078  0.1051
 6261TIP3    H140342   2.873   3.338   1.195  0.6061 -1.8756 -0.1891
 6261TIP3    H240343   2.937   3.458   1.262 -1.5925 -1.1269  0.6769
 6262TIP3   OH240344   2.541   3.557   1.806  0.0549 -0.7395 -0.5447
 6262TIP3    H140345   2.614   3.606   1.845  1.3593 -3.3123  0.4635
 6262TIP3    H240346   2.470   3.566   1.870 -0.4650  1.4539 -1.3449
 6263TIP3   OH240347   2.224   6.188   1.235 -0.5682  0.1939 -0.3749
 6263TIP3    H140348   2.289   6.251   1.204 -1.5384  2.0509  1.1825
 6263TIP3    H240349   2.265   6.147   1.311 -0.0984 -0.8340 -1.1499
 6264TIP3   OH240350   6.335   3.532   8.701 -0.4068  0.6882  0.7770
 6264TIP3    H140351   6.286   3.470   8.647 -0.6854  1.1343  0.5056
 6264TIP3    H240352   6.280   3.544   8.779  0.5410 -0.8502  1.7370
 6265TIP3   OH240353   0.389   3.572   6.183  0.1612  0.0551  0.5605
 6265TIP3    H140354   0.339   3.498   6.218  1.1090  0.0752  2.0513
 6265TIP3    H240355   0.334   3.648   6.201 -0.6525 -0.2186 -0.6502
 6266TIP3   OH240356   5.523   6.621   0.099  0.1343  0.0032  0.1745
 6266TIP3    H140357   5.489   6.571   0.025 -0.4717 -0.2262  0.6079
 6266TIP3    H240358   5.495   6.573   0.176  0.5119  0.4038  0.5671
 6267TIP3   OH240359   3.044   3.297   0.491 -0.1315  0.0520  0.2806
 6267TIP3    H140360   3.097   3.218   0.492  1.1230  0.8669 -0.0082
 6267TIP3    H240361   3.079   3.349   0.418 -0.7950  0.9606  0.5918
 6268TIP3   OH240362   0.424   3.912   2.628  0.0274 -0.2274 -0.3682
 6268TIP3    H140363   0.495   3.974   2.643  0.0530 -0.2476 -0.4039
 6268TIP3    H240364   0.447   3.836   2.683 -1.1745  0.6757  1.4979
 6269TIP3   OH240365   0.625   3.165   7.178  0.1818 -0.6941  0.2268
 6269TIP3    H140366   0.607   3.252   7.143 -0.2705 -1.6916 -2.2443
 6269TIP3    H240367   0.720   3.157   7.175  0.1882 -0.4964 -0.1120
 6270TIP3   OH240368   0.515   1.497   7.437  0.3878 -0.1488  0.0331
 6270TIP3    H140369   0.479   1.506   7.525  0.0816 -0.3284 -0.0748
 6270TIP3    H240370   0.590   1.557   7.436  0.8713 -0.7321  0.6705
 6271TIP3   OH240371   2.858   4.330   1.520 -0.2392 -0.1065  0.0724
 6271TIP3    H140372   2.800   4.290   1.585 -0.7257  0.2168 -0.1555
 6271TIP3    H240373   2.847   4.276   1.442 -0.4822  0.1435 -0.0691
 6272TIP3   OH240374   5.796   3.667   8.743  0.6747 -0.0496  0.1375
 6272TIP3    H140375   5.706   3.686   8.717 -0.0114 -2.5558  0.4457
 6272TIP3    H240376   5.821   3.741   8.798 -1.1250  0.7804 -0.0818
 6273TIP3   OH240377   3.993   5.412   0.827  0.3634  0.4516 -0.2318
 6273TIP3    H140378   4.067   5.441   0.775  0.5309  0.9356  0.2670
 6273TIP3    H240379   3.934   5.488   0.829  0.1690  0.2965 -0.0649
 6274TIP3   OH240380   6.000   5.726   0.732 -0.2194  0.6002  0.4969
 6274TIP3    H140381   6.072   5.718   0.795 -0.1536  2.1228  0.6529
 6274TIP3    H240382   5.957   5.641   0.735  1.1638 -0.1219  0.8927
 6275TIP3   OH240383   0.635   4.222   1.209  0.0815 -0.2785 -0.2057
 6275TIP3    H140384   0.556   4.176   1.237 -1.2002  0.5919 -2.1790
 6275TIP3    H240385   0.606   4.312   1.194  1.5794  0.1867 -0.4534
 6276TIP3   OH240386   5.503   1.501   7.019  0.0129  0.4072  0.4901
 6276TIP3    H140387   5.512   1.548   7.102 -0.7499  1.8321 -0.1922
 6276TIP3    H240388   5.542   1.560   6.954  0.0834 -0.4385 -0.2531
 6277TIP3   OH240389   3.711   1.771   0.954  0.0973  0.8744 -0.3177
 6277TIP3    H140390   3.761   1.690   0.948  1.0980  1.3813  0.7851
 6277TIP3    H240391   3.627   1.746   0.992  0.5086  0.3917  0.2829
 6278TIP3   OH240392   0.801   5.671   0.794  0.1534  0.3402  0.1361
 6278TIP3    H140393   0.880   5.621   0.811  0.0255  0.4522  1.0870
 6278TIP3    H240394   0.737   5.605   0.766  0.5434  0.2352 -0.5209
 6279TIP3   OH240395   0.539   3.392   0.035  0.2753 -0.1201 -0.3052
 6279TIP3    H140396   0.524   3.479   0.000 -0.5570  0.2226  0.8501
 6279TIP3    H240397   0.502   3.332  -0.030 -1.8861  0.5262  0.2648
 6280TIP3   OH240398   0.036   5.800   6.968  0.3737  0.4986 -0.4955
 6280TIP3    H140399   0.018   5.824   6.877  0.2242  4.1916  0.3461
 6280TIP3    H240400   0.125   5.765   6.967  0.0828 -0.3045 -2.1159
 6281TIP3   OH240401   1.743   5.209   0.790 -0.1846  0.5248 -0.3159
 6281TIP3    H140402   1.730   5.211   0.885  0.2606  2.6317 -0.2481
 6281TIP3    H240403   1.676   5.149   0.758 -1.4903  1.1237  1.1712
 6282TIP3   OH240404   5.507   4.743   8.174  0.5102  0.8506  0.2987
 6282TIP3    H140405   5.572   4.786   8.230  2.2428  0.6625 -1.4551
 6282TIP3    H240406   5.476   4.670   8.226  1.5663  1.0601  1.2825
 6283TIP3   OH240407   1.588   0.074   0.670  0.2599 -0.2459 -0.0195
 6283TIP3    H140408   1.543   0.010   0.615 -0.7615 -2.4836  3.1008
 6283TIP3    H240409   1.544   0.068   0.755  1.6035  3.0735  1.0958
 6284TIP3   OH240410   1.753   2.801   0.480  0.2735 -0.1845  0.0313
 6284TIP3    H140411   1.785   2.824   0.393  1.2679 -0.0304  0.4217
 6284TIP3    H240412   1.828   2.814   0.538 -0.1102 -1.1110  0.7853
 6285TIP3   OH240413   2.757   6.720   7.584  0.9154 -0.7563  0.8170
 6285TIP3    H140414   2.746   6.625   7.579 -0.1508 -0.5854 -0.8904
 6285TIP3    H240415   2.668   6.755   7.589  1.2164  0.1863  0.0224
 6286TIP3   OH240416   2.080   5.385   7.797  0.0548 -0.6166  0.2499
 6286TIP3    H140417   2.101   5.301   7.756  2.3943 -0.3163  0.6868
 6286TIP3    H240418   2.165   5.421   7.822 -1.0929  0.4317  2.9658
 6287TIP3   OH240419   5.982   3.470   7.116 -0.9016  0.1577  0.1737
 6287TIP3    H140420   5.893   3.453   7.085 -1.4496  1.6429  0.8232
 6287TIP3    H240421   6.028   3.503   7.039 -1.1145  0.0589  0.0021
 6288TIP3   OH240422   4.568   4.215   2.394 -0.1691 -0.4474  0.1313
 6288TIP3    H140423   4.536   4.128   2.419  1.7294 -0.5675  2.5579
 6288TIP3    H240424   4.662   4.212   2.414  0.2694  1.6875 -1.2376
 6289TIP3   OH240425   2.385   4.739   0.833 -0.4269  0.5170 -0.6843
 6289TIP3    H140426   2.369   4.833   0.843  0.3400  0.5580  0.3412
 6289TIP3    H240427   2.462   4.722   0.887 -0.9116 -0.8090 -0.3694
 6290TIP3   OH240428   4.099   4.462   7.142  0.5361 -0.0854 -0.0356
 6290TIP3    H140429   4.184   4.489   7.175  0.9451 -1.5222  0.1834
 6290TIP3    H240430   4.118   4.422   7.057 -0.4935  3.6395 -2.2590
 6291TIP3   OH240431   5.282   4.990   0.078 -0.1800  0.1458  0.3073
 6291TIP3    H140432   5.192   4.965   0.102  0.1145 -0.8272  0.4396
 6291TIP3    H240433   5.307   5.054   0.145 -0.6492  0.1523  0.4822
 6292TIP3   OH240434   2.474   5.842   1.520 -0.0126 -0.1801  0.0634
 6292TIP3    H140435   2.562   5.807   1.508  0.6846  1.6724 -0.6529
 6292TIP3    H240436   2.465   5.853   1.614 -0.2828 -2.2174  0.3243
 6293TIP3   OH240437   4.868   5.103   1.882  0.0370 -0.2799 -0.3109
 6293TIP3    H140438   4.923   5.181   1.876  0.5961 -0.6605 -0.2691
 6293TIP3    H240439   4.890   5.064   1.966 -2.6907  1.2817  1.2633
 6294TIP3   OH240440   0.664   5.021   6.994 -0.9745  0.4883  0.2997
 6294TIP3    H140441   0.753   5.036   6.963 -0.3475 -0.5420  1.5258
 6294TIP3    H240442   0.624   4.966   6.927 -0.1350 -0.4475  0.5511
 6295TIP3   OH240443   2.754   2.045   6.986  0.5086  0.2787 -0.1357
 6295TIP3    H140444   2.759   2.012   7.075  0.1193  1.8111  0.4877
 6295TIP3    H240445   2.814   2.120   6.985 -0.4238  1.0309 -0.7984
 6296TIP3   OH240446   6.330   5.999   0.218  0.2128 -0.3098  0.2203
 6296TIP3    H140447   6.304   5.964   0.303 -0.8685  0.1823  0.1064
 6296TIP3    H240448   6.277   6.077   0.206 -0.1421 -0.7277 -1.1887
 6297TIP3   OH240449   5.627   2.486   1.021  0.1958 -0.0470  0.2774
 6297TIP3    H140450   5.717   2.460   1.000  0.5079  0.8304  0.4834
 6297TIP3    H240451   5.623   2.483   1.116 -0.1031 -0.4285  0.2536
 6298TIP3   OH240452   1.371   2.345   1.038 -0.4685 -0.2196 -0.0300
 6298TIP3    H140453   1.452   2.385   1.007  0.1120 -0.1873  1.4230
 6298TIP3    H240454   1.374   2.255   1.005 -0.0145 -0.1091 -0.2985
 6299TIP3   OH240455   0.850   2.128   8.761  0.3192 -0.3671  0.2119
 6299TIP3    H140456   0.892   2.119   8.675  0.4232  0.7110  0.1406
 6299TIP3    H240457   0.922   2.127   8.824  0.2142 -1.5861  0.3354
 6300TIP3   OH240458   3.365   1.994   6.524  0.1017 -0.3681 -0.4389
 6300TIP3    H140459   3.353   2.058   6.594 -1.1491 -1.1761  0.1084
 6300TIP3    H240460   3.457   2.005   6.497  0.2991  0.6786  0.5892
 6301TIP3   OH240461   4.049   0.474   0.502  0.8986  0.0301 -0.0961
 6301TIP3    H140462   3.988   0.459   0.430  1.6432  0.5048 -0.8462
 6301TIP3    H240463   4.085   0.388   0.521  0.0094 -0.2600  0.3622
 6302TIP3   OH240464   6.784   3.835   7.993 -0.2626  0.0554 -0.1140
 6302TIP3    H140465   6.797   3.795   7.907 -0.5255  0.9190 -0.5718
 6302TIP3    H240466   6.740   3.768   8.044 -2.7147  0.4614 -1.5247
 6303TIP3   OH240467   4.964   4.303   2.737 -0.3326  0.2601  0.0235
 6303TIP3    H140468   5.010   4.366   2.793 -2.0178  1.4938  0.0822
 6303TIP3    H240469   5.010   4.220   2.751  2.1461  1.4948 -0.2862
 6304TIP3   OH240470   2.883   1.825   7.311  0.2529 -0.0682  0.0143
 6304TIP3    H140471   2.978   1.840   7.314  0.4926 -1.2751 -0.6672
 6304TIP3    H240472   2.861   1.831   7.218 -0.1255 -0.8895  0.0398
 6305TIP3   OH240473   5.622   0.020   8.623  0.5885 -0.2376 -0.4801
 6305TIP3    H140474   5.710   0.036   8.591  0.6170 -0.5961 -0.5871
 6305TIP3    H240475   5.570   0.093   8.590  0.5172 -0.8539 -1.7630
 6306TIP3   OH240476   6.152   3.607   0.905 -0.5865 -0.1936 -0.2760
 6306TIP3    H140477   6.060   3.625   0.883 -0.6338 -2.0752 -1.9298
 6306TIP3    H240478   6.195   3.598   0.820  0.9202 -0.3694  0.4750
 6307TIP3   OH240479   5.157   6.282   7.523  0.4250  0.1978  0.1523
 6307TIP3    H140480   5.136   6.229   7.446 -1.2758 -0.0070  0.7072
 6307TIP3    H240481   5.170   6.217   7.593  1.2772  0.4085  0.1955
 6308TIP3   OH240482   4.793   6.010   0.823  0.3592 -0.2930 -0.2241
 6308TIP3    H140483   4.854   6.000   0.896  1.2448  2.8677 -0.3791
 6308TIP3    H240484   4.707   6.016   0.864  0.5856 -0.7863  0.3354
 6309TIP3   OH240485   1.343   6.556   1.362  0.3589 -0.5568 -0.0226
 6309TIP3    H140486   1.395   6.513   1.429 -0.4373 -1.5030 -0.0037
 6309TIP3    H240487   1.327   6.644   1.396  1.6592 -0.3484  0.1114
 6310TIP3   OH240488   1.240   4.975   0.739  0.1761  1.1558  0.0497
 6310TIP3    H140489   1.214   5.048   0.795 -1.3162  1.5145 -1.0497
 6310TIP3    H240490   1.284   5.017   0.665  0.6811  0.8042  0.1425
 6311TIP3   OH240491   3.069   4.112   7.678  0.3252  0.2786 -0.5424
 6311TIP3    H140492   3.075   4.169   7.601 -0.1863  1.7540  0.4706
 6311TIP3    H240493   3.067   4.172   7.752  1.4587 -1.1372  0.6827
 6312TIP3   OH240494   3.214   3.236   7.974  0.2136 -0.3321 -0.1895
 6312TIP3    H140495   3.203   3.225   8.068  0.4184  0.4927 -0.0605
 6312TIP3    H240496   3.199   3.329   7.959 -1.1199 -0.6825 -1.1579
 6313TIP3   OH240497   4.209   0.962   0.932 -0.4040 -0.4292 -0.0238
 6313TIP3    H140498   4.210   1.054   0.957  0.8895 -0.4269 -0.0313
 6313TIP3    H240499   4.301   0.936   0.932 -0.6859 -1.4944 -0.8592
 6314TIP3   OH240500   5.645   3.755   1.588 -0.8769  0.2188 -0.1686
 6314TIP3    H140501   5.595   3.675   1.606 -1.9498  0.8515 -0.2645
 6314TIP3    H240502   5.689   3.737   1.505 -0.0547 -0.7520  0.4460
 6315TIP3   OH240503   5.622   4.208   0.039  0.2286 -0.2810  0.0298
 6315TIP3    H140504   5.679   4.145  -0.003 -1.4012 -0.6603 -1.7414
 6315TIP3    H240505   5.640   4.291  -0.005 -0.2984 -0.3270 -0.2850
 6316TIP3   OH240506   0.529   1.195   0.751  0.4880 -0.4004  0.1440
 6316TIP3    H140507   0.445   1.149   0.747  0.2591 -0.1361  1.3346
 6316TIP3    H240508   0.590   1.131   0.787  0.6543 -0.4016 -0.1370
 6317TIP3   OH240509   0.718   4.226   8.032 -0.1284 -0.1506 -0.9977
 6317TIP3    H140510   0.770   4.157   8.073  1.4716  2.4178  1.6259
 6317TIP3    H240511   0.633   4.221   8.077  0.0124 -0.3134 -0.7446
 6318TIP3   OH240512   1.275   3.522   8.020  0.1349  0.0739 -0.1740
 6318TIP3    H140513   1.280   3.473   8.102  0.2364  0.5025  0.0819
 6318TIP3    H240514   1.356   3.572   8.017  1.3287 -1.8244 -1.7721
 6319TIP3   OH240515   6.117   1.105   7.941  0.4770 -0.5821  0.0958
 6319TIP3    H140516   6.151   1.023   7.977  1.6738  0.2770  1.0333
 6319TIP3    H240517   6.045   1.129   7.999  0.2411 -0.8777 -0.0741
 6320TIP3   OH240518   0.941   6.150   0.822 -0.2870  0.3217 -0.6076
 6320TIP3    H140519   0.909   6.234   0.788  1.7315  3.0511  3.3910
 6320TIP3    H240520   1.036   6.154   0.810  0.2008  0.2337  2.4748
 6321TIP3   OH240521   2.974   4.610   8.392 -0.0014  0.2984 -0.0479
 6321TIP3    H140522   3.015   4.696   8.400  0.6177 -0.0865  1.1962
 6321TIP3    H240523   3.045   4.552   8.363 -0.1768  0.0252  0.0598
 6322TIP3   OH240524   5.388   3.536   1.240  0.0286 -0.2595  0.3966
 6322TIP3    H140525   5.315   3.596   1.224 -1.1958 -2.2346 -2.0990
 6322TIP3    H240526   5.433   3.531   1.155  1.3179 -1.3133  1.1120
 6323TIP3   OH240527   0.293   3.289   1.768  0.3453 -0.3752  0.7277
 6323TIP3    H140528   0.361   3.293   1.701  0.9791 -1.6727  1.2538
 6323TIP3    H240529   0.311   3.363   1.825  0.2229  0.3307 -0.1309
 6324TIP3   OH240530   2.603   6.715   8.836 -0.2817 -0.4755 -0.2684
 6324TIP3    H140531   2.638   6.792   8.791 -0.4729 -0.2011  0.0410
 6324TIP3    H240532   2.659   6.706   8.913 -0.7698 -0.1369  0.1374
 6325TIP3   OH240533   1.197   2.286   1.464 -0.4363 -0.2689  0.2385
 6325TIP3    H140534   1.274   2.307   1.411 -1.6701 -1.1699 -2.0529
 6325TIP3    H240535   1.224   2.212   1.518  0.6401  0.2084  0.3922
 6326TIP3   OH240536   6.054   3.523   6.643  0.7623  0.0765 -0.0906
 6326TIP3    H140537   6.097   3.453   6.593  1.5702  0.6456 -0.2168
 6326TIP3    H240538   5.967   3.529   6.604 -0.4072 -2.7840  1.7943
 6327TIP3   OH240539   4.559   0.992   6.982  0.8510 -0.2337  0.6917
 6327TIP3    H140540   4.513   1.037   6.911  2.8615  1.6178  0.4517
 6327TIP3    H240541   4.537   1.042   7.061  1.6708  0.1046  0.7168
 6328TIP3   OH240542   5.733   4.382   8.678 -0.2511  0.0252  0.1160
 6328TIP3    H140543   5.786   4.441   8.732 -0.9558 -0.2602  1.1635
 6328TIP3    H240544   5.762   4.398   8.588  1.1759  0.3044  0.5942
 6329TIP3   OH240545   5.182   1.380   8.037  0.4782 -0.0484  0.3035
 6329TIP3    H140546   5.239   1.432   8.092 -1.3781  1.7847  0.6222
 6329TIP3    H240547   5.126   1.444   7.992 -1.0365 -1.6952 -0.3106
 6330TIP3   OH240548   5.866   3.282   6.644  0.2259  0.0200 -0.2479
 6330TIP3    H140549   5.827   3.355   6.594  0.0069 -0.3294 -0.5903
 6330TIP3    H240550   5.812   3.277   6.724  1.0535  1.0798  0.4052
 6331TIP3   OH240551   5.275   6.086   8.526  0.2386  0.6810  0.3813
 6331TIP3    H140552   5.210   6.154   8.507  0.1902  0.1542 -1.6070
 6331TIP3    H240553   5.317   6.114   8.607 -2.7719  0.7926  2.0352
 6332TIP3   OH240554   2.651   4.909   0.145 -0.5042 -0.1624  0.4025
 6332TIP3    H140555   2.664   5.004   0.146  0.4969 -0.2850  2.1152
 6332TIP3    H240556   2.606   4.890   0.227  3.0982 -1.6072  2.2085
 6333TIP3   OH240557   3.486   0.930   1.675 -0.2706 -0.0803 -0.0652
 6333TIP3    H140558   3.457   0.844   1.646  1.8690 -1.4051  1.4744
 6333TIP3    H240559   3.558   0.953   1.617  0.3263 -0.1597  0.6311
 6334TIP3   OH240560   3.400   2.433   0.896 -0.3906 -0.4232 -0.5314
 6334TIP3    H140561   3.336   2.362   0.888 -0.6233 -0.2880  0.0816
 6334TIP3    H240562   3.478   2.391   0.932 -0.4737 -0.4021 -0.3245
 6335TIP3   OH240563   4.708   0.035   7.362  0.1556  0.2385  0.3492
 6335TIP3    H140564   4.644   0.098   7.396  1.1654  1.5968 -0.2144
 6335TIP3    H240565   4.683   0.022   7.271  0.0113 -0.1263  0.4359
 6336TIP3   OH240566   3.595   3.758   0.108 -0.1818 -0.4581 -0.3060
 6336TIP3    H140567   3.524   3.727   0.052 -1.7630  3.6595 -0.9379
 6336TIP3    H240568   3.659   3.796   0.048  0.6499 -0.5413  0.4868
 6337TIP3   OH240569   3.952   0.968   7.285 -0.1028  0.4840 -0.2815
 6337TIP3    H140570   3.991   0.893   7.240 -0.1333 -1.2536  2.3863
 6337TIP3    H240571   4.013   0.989   7.355 -1.2101  1.4852  0.4292
 6338TIP3   OH240572   2.340   5.901   8.244 -0.0524 -0.4444  0.1238
 6338TIP3    H140573   2.277   5.889   8.173  1.2718 -1.1078 -0.9854
 6338TIP3    H240574   2.385   5.816   8.251 -0.7199 -0.6938  2.3549
 6339TIP3   OH240575   5.467   6.060   8.733 -0.2677 -0.1621 -0.3093
 6339TIP3    H140576   5.553   6.039   8.695 -0.1485 -0.2315  0.0005
 6339TIP3    H240577   5.449   5.989   8.793 -1.1959 -0.8966 -1.4206
 6340TIP3   OH240578   0.068   2.809   1.229  0.4868  0.0986 -0.0785
 6340TIP3    H140579   0.071   2.788   1.135  1.0109  2.1287 -0.5799
 6340TIP3    H240580   0.106   2.897   1.234  0.5554 -0.0142  2.0699
 6341TIP3   OH240581   1.534   0.031   7.143 -0.0121 -0.0188  0.3184
 6341TIP3    H140582   1.520   0.125   7.159  0.5166 -0.0004  0.7177
 6341TIP3    H240583   1.625   0.016   7.171  0.7781 -0.1195 -2.0851
 6342TIP3   OH240584   4.289   5.379   7.503 -0.3545 -0.1529  0.1943
 6342TIP3    H140585   4.232   5.305   7.523 -1.1842  0.5242  0.3504
 6342TIP3    H240586   4.245   5.426   7.433 -0.3916  0.8059  0.8348
 6343TIP3   OH240587   0.359   2.179   7.470 -0.2812  0.0459 -0.4149
 6343TIP3    H140588   0.310   2.224   7.402 -0.1242  0.8744  0.0102
 6343TIP3    H240589   0.443   2.225   7.475  0.9741 -1.9533 -1.8046
 6344TIP3   OH240590   0.108   6.294   7.614  0.4064 -0.3643  0.0776
 6344TIP3    H140591   0.102   6.203   7.643  1.1885 -0.2511  0.6186
 6344TIP3    H240592   0.145   6.289   7.526  1.2111 -0.5347  0.4163
 6345TIP3   OH240593   0.912   5.630   8.495 -0.0305  0.0865  0.0657
 6345TIP3    H140594   0.949   5.617   8.408 -2.5384 -0.2662 -1.0355
 6345TIP3    H240595   0.959   5.566   8.550  1.6046  0.3222 -0.9718
 6346TIP3   OH240596   1.394   2.055   7.372 -0.6566  0.0689  0.1613
 6346TIP3    H140597   1.334   1.980   7.380 -0.9906 -0.1445 -2.9844
 6346TIP3    H240598   1.355   2.109   7.304  3.1251 -0.6419 -2.9239
 6347TIP3   OH240599   5.935   6.337   8.248 -0.9021 -0.4167 -0.4313
 6347TIP3    H140600   6.030   6.340   8.256 -0.9493 -0.0393  0.0650
 6347TIP3    H240601   5.904   6.397   8.316 -1.5154 -1.0269 -0.1647
 6348TIP3   OH240602   4.011   5.967   6.738  0.5118  0.2392  0.0495
 6348TIP3    H140603   4.012   5.875   6.763  0.0436  0.2444  0.0959
 6348TIP3    H240604   3.925   5.981   6.700 -0.2299  1.1285  1.8900
 6349TIP3   OH240605   4.112   5.790   8.445 -0.2362  0.3387 -0.2050
 6349TIP3    H140606   4.083   5.817   8.532 -2.4801 -1.2437 -0.3659
 6349TIP3    H240607   4.110   5.870   8.392 -2.6631  0.6900  0.2953
 6350TIP3   OH240608   1.860   2.274   6.841 -0.0527 -0.2600  0.0548
 6350TIP3    H140609   1.850   2.369   6.839 -3.1784 -0.4534  1.3709
 6350TIP3    H240610   1.806   2.245   6.914 -2.0348 -3.2789 -2.3208
 6351TIP3   OH240611   5.730   6.327   8.049 -0.5099 -0.1575  0.2838
 6351TIP3    H140612   5.792   6.323   8.122  0.4310 -2.5731 -0.5235
 6351TIP3    H240613   5.703   6.418   8.045  0.9043  0.4351  2.4060
 6352TIP3   OH240614   5.174   0.143   7.576  0.8447  0.4922  0.4441
 6352TIP3    H140615   5.197   0.144   7.669  0.8983  1.0451  0.4291
 6352TIP3    H240616   5.203   0.228   7.543  1.7632 -0.0989 -0.3123
 6353TIP3   OH240617   0.989   0.041   0.860 -0.5461 -0.3591  0.2131
 6353TIP3    H140618   0.981   0.136   0.862  0.7819 -0.1803 -1.4210
 6353TIP3    H240619   1.083   0.024   0.851 -0.6137 -1.8780  1.6765
 6354TIP3   OH240620   1.598   4.721   7.987  0.5319  0.0531  0.5011
 6354TIP3    H140621   1.694   4.724   7.981  0.5411  0.2860  0.7228
 6354TIP3    H240622   1.581   4.675   8.069  0.4328 -1.2786 -0.2322
 6355TIP3   OH240623   4.147   3.893   7.759  0.5550  0.2251  0.1893
 6355TIP3    H140624   4.144   3.957   7.687  0.1251 -1.2708 -1.1800
 6355TIP3    H240625   4.097   3.935   7.829  1.7605  2.1162 -0.0057
 6356TIP3   OH240626   3.398   4.454   0.512 -0.2257  0.1988  0.5696
 6356TIP3    H140627   3.315   4.448   0.464 -0.9060  0.0099  1.7332
 6356TIP3    H240628   3.376   4.427   0.601  1.3394 -1.0140  0.6294
 6357TIP3   OH240629   1.155   2.956   2.392  0.1765  0.1949 -0.4191
 6357TIP3    H140630   1.207   2.910   2.457  0.1811  1.1553  0.2808
 6357TIP3    H240631   1.218   2.986   2.326  0.2093 -0.5226 -0.7190
 6358TIP3   OH240632   4.449   0.609   8.828  0.2559 -0.1589  0.4607
 6358TIP3    H140633   4.462   0.526   8.782 -2.3565 -0.2024 -0.3443
 6358TIP3    H240634   4.399   0.586   8.906 -0.7046  0.6455  0.1106
 6359TIP3   OH240635   2.534   4.453   8.716  0.1113 -0.4033 -0.1876
 6359TIP3    H140636   2.590   4.529   8.701 -0.1677  0.0467  0.9646
 6359TIP3    H240637   2.557   4.423   8.804 -1.3244 -0.3158  0.2396
 6360TIP3   OH240638   4.938   1.908   0.632 -0.0551 -0.4943  0.1728
 6360TIP3    H140639   4.972   1.997   0.642 -0.0443 -0.4047 -0.5904
 6360TIP3    H240640   4.843   1.918   0.633 -0.1671 -0.8586  3.3462
 6361TIP3   OH240641   4.002   5.131   2.484 -0.4361  0.0812 -0.0794
 6361TIP3    H140642   3.955   5.051   2.507  0.4824 -0.0310  1.5628
 6361TIP3    H240643   3.984   5.192   2.555  0.5287  0.6226 -0.2720
 6362TIP3   OH240644   6.246   1.070   2.127 -0.6208  0.2513 -0.4044
 6362TIP3    H140645   6.263   1.160   2.154 -3.0395  1.0094 -1.1419
 6362TIP3    H240646   6.189   1.035   2.195 -0.4267 -0.4164 -0.5827
 6363TIP3   OH240647   3.764   3.871   6.730 -0.1402  0.0206  0.6252
 6363TIP3    H140648   3.837   3.930   6.751 -0.4719  0.1986  1.3086
 6363TIP3    H240649   3.766   3.805   6.799  1.4464 -1.9714 -1.1953
 6364TIP3   OH240650   4.400   2.723   6.754 -0.4720  0.6184 -0.1229
 6364TIP3    H140651   4.451   2.779   6.695 -0.5753  0.4503 -0.3712
 6364TIP3    H240652   4.465   2.666   6.795 -0.2334  1.5320  0.8342
 6365TIP3   OH240653   0.285   0.148   8.170  0.4056 -0.4707 -0.5541
 6365TIP3    H140654   0.210   0.103   8.210  0.0436 -0.1040 -0.8169
 6365TIP3    H240655   0.330   0.189   8.244  0.6383 -1.1071 -0.3342
 6366TIP3   OH240656   5.128   3.726   7.444 -0.4566  0.5056 -0.0306
 6366TIP3    H140657   5.152   3.796   7.504  0.5598 -1.5609  2.1438
 6366TIP3    H240658   5.036   3.708   7.463 -0.0432 -0.3924  1.2909
 6367TIP3   OH240659   5.493   1.476   7.649  0.2890  0.3332  0.0673
 6367TIP3    H140660   5.465   1.517   7.567 -1.4284  1.3210  1.0855
 6367TIP3    H240661   5.588   1.488   7.650  0.1660  1.7493 -1.0305
 6368TIP3   OH240662   5.630   5.374   0.209 -0.9898  0.4076 -0.2705
 6368TIP3    H140663   5.677   5.305   0.162  1.4138  1.5329  0.3551
 6368TIP3    H240664   5.584   5.328   0.280  0.2451 -0.6166 -0.1085
 6369TIP3   OH240665   2.586   5.406   0.918 -0.6415 -0.0186  0.0809
 6369TIP3    H140666   2.495   5.418   0.945 -0.9902  1.2655 -1.5147
 6369TIP3    H240667   2.612   5.491   0.884  1.5072 -0.0826  1.3956
 6370TIP3   OH240668   3.575   3.774   0.850 -0.6358  0.4644 -0.6130
 6370TIP3    H140669   3.620   3.782   0.935  0.8922 -1.8254 -1.1388
 6370TIP3    H240670   3.635   3.816   0.788  0.4843 -1.8509 -1.1868
 6371TIP3   OH240671   2.868   4.286   6.435  0.5007  0.3570 -0.0288
 6371TIP3    H140672   2.807   4.213   6.439 -0.5368  1.2508  1.8248
 6371TIP3    H240673   2.913   4.285   6.519  0.2350  2.0055  0.1740
 6372TIP3   OH240674   5.659   4.499   7.021 -0.2197  0.2899 -0.4365
 6372TIP3    H140675   5.664   4.430   6.955 -0.9337  0.9416 -1.2052
 6372TIP3    H240676   5.579   4.480   7.070 -0.0683  0.2072 -0.2198
 6373TIP3   OH240677   0.401   3.476   8.342  0.2470 -0.2219 -0.0933
 6373TIP3    H140678   0.422   3.392   8.302 -0.1995 -0.5095  0.2639
 6373TIP3    H240679   0.378   3.455   8.432  0.5411  0.3357  0.1159
 6374TIP3   OH240680   4.346   1.417   7.471 -0.0041 -1.0532  0.0764
 6374TIP3    H140681   4.334   1.488   7.534  1.3359  0.1195 -0.9261
 6374TIP3    H240682   4.312   1.451   7.389  1.1140 -1.3431 -0.5351
 6375TIP3   OH240683   6.732   5.228   8.278 -0.2068 -0.3120  0.1383
 6375TIP3    H140684   6.708   5.169   8.349 -1.4325  1.3319  1.1800
 6375TIP3    H240685   6.669   5.300   8.285  1.4870  1.3524 -0.7490
 6376TIP3   OH240686   2.251   3.248   7.442  0.1603  0.3174  0.1914
 6376TIP3    H140687   2.251   3.335   7.402 -0.7692 -0.3887 -1.4568
 6376TIP3    H240688   2.314   3.198   7.390  0.4943 -0.0668  0.9584
 6377TIP3   OH240689   0.862   0.591   7.621  0.0332  0.1188 -0.1264
 6377TIP3    H140690   0.913   0.521   7.582  1.2078  1.6295 -1.4288
 6377TIP3    H240691   0.822   0.636   7.547 -2.4915 -0.4310  0.8002
 6378TIP3   OH240692   3.770   6.170   7.619 -0.0371  0.0722 -0.8093
 6378TIP3    H140693   3.812   6.189   7.535  2.0924  0.1784  0.2024
 6378TIP3    H240694   3.734   6.253   7.648 -1.8415 -0.1955 -2.0981
 6379TIP3   OH240695   3.280   6.535   7.140 -0.5739 -0.3022  0.3205
 6379TIP3    H140696   3.328   6.456   7.164 -0.9883 -0.7418 -0.2699
 6379TIP3    H240697   3.226   6.509   7.066  0.5781  0.9709 -1.0395
 6380TIP3   OH240698   3.027   5.702   8.065  0.5689  0.2537 -0.0701
 6380TIP3    H140699   3.018   5.680   8.157 -4.3706 -0.9182 -0.5798
 6380TIP3    H240700   3.016   5.619   8.019  1.3867  1.0504 -1.8017
 6381TIP3   OH240701   3.270   5.143   1.442 -0.8504  0.4242  0.4964
 6381TIP3    H140702   3.264   5.239   1.450 -0.3331  1.0876 -4.0690
 6381TIP3    H240703   3.357   5.128   1.405 -0.7239 -1.9211  1.6195
 6382TIP3   OH240704   6.649   2.748   0.485 -0.2456 -0.5086  0.0567
 6382TIP3    H140705   6.648   2.828   0.433 -0.3807  0.5188  1.5926
 6382TIP3    H240706   6.726   2.700   0.454 -1.8567 -1.3794 -3.1103
 6383TIP3   OH240707   5.706   0.485   0.858 -0.4354  0.0217 -0.0069
 6383TIP3    H140708   5.672   0.454   0.942  0.3047 -2.8720 -0.6654
 6383TIP3    H240709   5.633   0.473   0.797 -0.3576  0.2228 -0.1401
 6384TIP3   OH240710   1.378   3.649   0.026 -0.8470 -0.1536 -0.3988
 6384TIP3    H140711   1.339   3.704  -0.041  1.0329  0.3741 -1.1011
 6384TIP3    H240712   1.462   3.690   0.046 -1.1399 -0.5301  1.9866
 6385TIP3   OH240713   1.694   4.709   7.436 -0.0551  0.6841 -0.0089
 6385TIP3    H140714   1.661   4.621   7.418 -0.5670  0.9285 -0.2927
 6385TIP3    H240715   1.786   4.705   7.410 -0.1838  0.3543 -0.4339
 6386TIP3   OH240716   1.542   3.745   7.039  0.2483  0.4702  0.0844
 6386TIP3    H140717   1.524   3.675   6.975  0.1503 -1.4078  2.0306
 6386TIP3    H240718   1.626   3.721   7.077 -0.2594  0.8415  1.4937
 6387TIP3   OH240719   0.158   0.351   0.008  0.1891 -0.3030  0.4592
 6387TIP3    H140720   0.205   0.387   0.083 -1.4343  0.4556  1.1690
 6387TIP3    H240721   0.134   0.262   0.036 -0.4679 -0.0006  0.9007
 6388TIP3   OH240722   3.327   1.404   8.182 -0.4619  0.2959 -0.5971
 6388TIP3    H140723   3.357   1.343   8.115 -1.3739 -0.2657 -0.5150
 6388TIP3    H240724   3.245   1.439   8.147 -0.6371  0.4433 -0.0463
 6389TIP3   OH240725   0.851   3.967   1.776  0.1148 -0.4062  0.3388
 6389TIP3    H140726   0.776   3.908   1.781 -1.1226  1.1017  0.4652
 6389TIP3    H240727   0.821   4.039   1.720  1.1305  0.6953  1.1697
 6390TIP3   OH240728   1.731   2.395   5.896 -0.7712  0.6222  0.7327
 6390TIP3    H140729   1.737   2.467   5.959  0.3096  0.4186  0.8729
 6390TIP3    H240730   1.775   2.428   5.817 -0.3049  0.1320  0.7845
 6391TIP3   OH240731   6.716   6.756   7.212  0.5895  0.2110 -0.5547
 6391TIP3    H140732   6.801   6.745   7.254  0.6296 -1.4415 -0.9649
 6391TIP3    H240733   6.682   6.839   7.245  1.8882  0.3653  0.4481
 6392TIP3   OH240734   3.832   4.000   7.387  0.6766  0.5744 -0.3037
 6392TIP3    H140735   3.797   4.059   7.319  0.5648  0.0755 -0.6823
 6392TIP3    H240736   3.921   4.032   7.403  0.1196  1.7920  0.5881
 6393TIP3   OH240737   0.137   1.735   7.531 -0.8425  0.1584 -0.5909
 6393TIP3    H140738   0.132   1.830   7.522 -1.2878  0.2791  0.7993
 6393TIP3    H240739   0.203   1.708   7.467 -0.1392  1.4819 -0.4393
 6394TIP3   OH240740   5.257   0.913   7.344 -0.2076  0.1119  0.0796
 6394TIP3    H140741   5.345   0.886   7.318  0.2656  0.7923  0.9369
 6394TIP3    H240742   5.228   0.971   7.273  0.3780  0.5746  0.2095
 6395TIP3   OH240743   1.315   6.619   1.930  0.4905 -0.0200  0.3840
 6395TIP3    H140744   1.280   6.670   2.003  1.9133  0.5198  0.7341
 6395TIP3    H240745   1.310   6.528   1.960 -0.1323  0.0882  0.6158
 6396TIP3   OH240746   1.805   2.948   0.919 -0.0840  0.3046 -0.2991
 6396TIP3    H140747   1.811   3.042   0.934  1.4135  0.1607  0.1763
 6396TIP3    H240748   1.715   2.934   0.890 -0.8667  1.6445  1.3010
 6397TIP3   OH240749   4.855   2.129   1.489 -0.1366 -0.1149  0.4044
 6397TIP3    H140750   4.866   2.079   1.569  0.9985  2.2914  1.8641
 6397TIP3    H240751   4.762   2.150   1.486 -0.0252  0.6894  1.7433
 6398TIP3   OH240752   0.029   0.901   8.675  0.3242  0.6187 -0.3640
 6398TIP3    H140753   0.114   0.876   8.712  0.6813  1.3435 -0.6687
 6398TIP3    H240754  -0.026   0.917   8.752  0.3964 -0.0649 -0.1640
 6399TIP3   OH240755   6.685   4.413   7.858 -0.0738  0.4218  0.8955
 6399TIP3    H140756   6.749   4.444   7.793 -1.1424  0.9691  0.0835
 6399TIP3    H240757   6.600   4.435   7.821 -0.8317 -1.7100  1.1978
 6400TIP3   OH240758   4.836   4.515   7.388 -0.3010 -0.0308  0.0239
 6400TIP3    H140759   4.913   4.486   7.438  0.4292  0.4624 -0.7858
 6400TIP3    H240760   4.762   4.487   7.441  0.4080 -1.4105  0.3373
 6401TIP3   OH240761   6.345   6.781   1.508  0.7521  0.0234 -0.1258
 6401TIP3    H140762   6.267   6.784   1.564  0.8858  1.2611  0.0121
 6401TIP3    H240763   6.313   6.805   1.421  0.4361 -2.4537 -0.7603
 6402TIP3   OH240764   2.711   3.540   1.289  0.2219  0.0553 -0.4653
 6402TIP3    H140765   2.672   3.544   1.377 -1.4416  0.4719 -1.1943
 6402TIP3    H240766   2.717   3.446   1.271 -0.4703 -0.0199 -0.3368
 6403TIP3   OH240767   1.795   1.897   8.567 -0.1072 -0.7373 -0.2266
 6403TIP3    H140768   1.773   1.941   8.649  1.5104  1.1381 -0.7496
 6403TIP3    H240769   1.886   1.919   8.551 -1.1032  1.3982 -3.9782
 6404TIP3   OH240770   3.066   3.268   6.036 -0.6431 -0.2379  0.1207
 6404TIP3    H140771   3.114   3.186   6.050  0.0692  0.1402 -0.0521
 6404TIP3    H240772   3.122   3.335   6.075 -1.4654  0.1120  0.7319
 6405TIP3   OH240773   0.999   0.214   7.198 -0.1678  0.9539 -0.4323
 6405TIP3    H140774   0.970   0.290   7.248  1.4363  1.9027 -0.8977
 6405TIP3    H240775   1.067   0.248   7.139  0.2931 -0.7639 -0.9392
 6406TIP3   OH240776   2.567   5.127   2.488 -0.1075  0.0841 -0.4736
 6406TIP3    H140777   2.512   5.129   2.410 -0.2061  3.1820 -0.4514
 6406TIP3    H240778   2.653   5.156   2.457 -0.3806  2.2982  0.6271
 6407TIP3   OH240779   4.838   3.541   7.106  0.4030 -0.2168  0.6201
 6407TIP3    H140780   4.911   3.596   7.076 -0.2908  1.3237  1.5902
 6407TIP3    H240781   4.774   3.544   7.035  0.3133  0.3805  0.7177
 6408TIP3   OH240782   2.837   6.306   0.966 -0.3231  0.0321  0.4069
 6408TIP3    H140783   2.920   6.335   0.929  0.2801 -0.4599  1.3204
 6408TIP3    H240784   2.775   6.312   0.894  0.4928  0.4690 -0.2761
 6409TIP3   OH240785   3.240   3.647   7.709  0.4076  0.5828 -0.2357
 6409TIP3    H140786   3.321   3.626   7.662 -0.8697  0.8481 -2.7380
 6409TIP3    H240787   3.195   3.708   7.651 -2.1649 -0.5399  0.4562
 6410TIP3   OH240788   6.668   3.238   7.154  0.3362 -0.1327  0.2824
 6410TIP3    H140789   6.620   3.229   7.072  1.3331  0.3215 -0.3755
 6410TIP3    H240790   6.721   3.317   7.142 -0.6411  0.8152  1.9659
 6411TIP3   OH240791   1.716   0.769   8.748  0.0019  0.1335 -0.7341
 6411TIP3    H140792   1.778   0.718   8.800  0.0570  0.5509 -0.3850
 6411TIP3    H240793   1.653   0.704   8.715  1.3566 -0.4986 -2.1876
 6412TIP3   OH240794   4.520   3.683   0.594  0.0313 -0.9789 -0.5059
 6412TIP3    H140795   4.459   3.727   0.654 -0.5781 -3.2751  0.6929
 6412TIP3    H240796   4.494   3.712   0.507  0.7697  2.2752  0.2308
 6413TIP3   OH240797   1.666   3.164   7.681  0.4825  0.2163 -0.0267
 6413TIP3    H140798   1.576   3.192   7.700  0.4625 -0.8930  1.7243
 6413TIP3    H240799   1.714   3.181   7.762  1.6803  0.0499 -0.6756
 6414TIP3   OH240800   6.593   4.846   0.228  0.2645 -0.1812 -0.2981
 6414TIP3    H140801   6.562   4.905   0.159  2.5881  0.3560 -0.9716
 6414TIP3    H240802   6.518   4.789   0.246 -0.9329  0.7033 -2.1123
 6415TIP3   OH240803   2.347   1.465   1.068  0.4963  0.3578 -0.5100
 6415TIP3    H140804   2.311   1.417   1.143  1.4140  0.7251  0.1844
 6415TIP3    H240805   2.273   1.474   1.008 -0.3990  0.5176  0.5786
 6416TIP3   OH240806   6.571   0.984   0.704 -0.2823  0.4917  0.5027
 6416TIP3    H140807   6.561   0.982   0.799 -1.1428  2.7136  0.5164
 6416TIP3    H240808   6.516   0.912   0.673 -0.1358 -0.1460  1.6659
 6417TIP3   OH240809   4.800   0.320   8.167 -0.2328 -0.4585 -0.0797
 6417TIP3    H140810   4.864   0.296   8.100 -0.0524  0.9817 -0.4624
 6417TIP3    H240811   4.820   0.411   8.189  0.1678 -1.0738  2.4704
 6418TIP3   OH240812   6.628   6.587   0.822 -0.1936  0.2352  0.1953
 6418TIP3    H140813   6.568   6.513   0.832 -0.2447  0.5278  2.6865
 6418TIP3    H240814   6.703   6.551   0.775 -0.1874 -1.4395  1.3945
 6419TIP3   OH240815   6.249   0.399   1.003  0.7698 -0.1919  0.0627
 6419TIP3    H140816   6.230   0.492   1.014 -0.8066 -0.4391 -0.2872
 6419TIP3    H240817   6.305   0.395   0.926  0.5658  0.4413 -0.1264
 6420TIP3   OH240818   5.786   1.619   7.717 -0.0216 -0.0887  0.4969
 6420TIP3    H140819   5.880   1.612   7.702 -0.0774 -1.1696  0.6202
 6420TIP3    H240820   5.773   1.587   7.806 -0.4431  0.5902  0.6864
 6421TIP3   OH240821   6.048   4.107   6.849  0.6484 -0.1211  0.6385
 6421TIP3    H140822   6.001   4.033   6.811 -0.0196  0.6144 -0.0151
 6421TIP3    H240823   6.093   4.148   6.775  2.6519 -1.0143  1.3101
 6422TIP3   OH240824   2.117   4.115   7.712  0.7217  0.3178  0.5200
 6422TIP3    H140825   2.114   4.139   7.619 -0.2750 -1.6644 -0.0230
 6422TIP3    H240826   2.207   4.088   7.727  0.5979 -0.5597 -0.2343
 6423TIP3   OH240827   4.364   2.260   7.842 -0.5979  0.3178  0.1626
 6423TIP3    H140828   4.302   2.235   7.910  0.7277  1.0947  1.7372
 6423TIP3    H240829   4.340   2.350   7.819 -0.8622  0.1575 -0.2040
 6424TIP3   OH240830   4.674   0.880   7.808 -0.3647 -0.1789 -0.2937
 6424TIP3    H140831   4.584   0.900   7.784 -0.3858 -0.7430 -0.6831
 6424TIP3    H240832   4.710   0.965   7.834 -1.2558 -0.0944  0.7273
 6425TIP3   OH240833   0.678   3.563   2.116 -0.3424  0.1244 -0.1224
 6425TIP3    H140834   0.759   3.564   2.064  0.8646 -0.7280  1.6372
 6425TIP3    H240835   0.680   3.479   2.160 -1.6090  0.5889  0.8570
 6426TIP3   OH240836   4.209   0.157   7.155 -0.1836 -0.1509  0.3142
 6426TIP3    H140837   4.152   0.106   7.212  0.5032 -1.4003 -0.0650
 6426TIP3    H240838   4.153   0.183   7.082 -0.4225 -0.8741  0.2258
 6427TIP3   OH240839   1.208   3.602   0.923 -0.1917 -0.0487 -0.0705
 6427TIP3    H140840   1.236   3.533   0.862  1.6835 -0.0344  0.7119
 6427TIP3    H240841   1.118   3.578   0.946  0.0569 -1.6626 -0.6208
 6428TIP3   OH240842   6.716   2.657   8.163  0.2652  0.2343 -0.4328
 6428TIP3    H140843   6.738   2.721   8.231  2.1746  0.6939 -1.4180
 6428TIP3    H240844   6.649   2.700   8.110 -0.4565  0.2941  0.4996
 6429TIP3   OH240845   3.142   3.604   0.889 -0.2395  0.9907  0.6423
 6429TIP3    H140846   3.165   3.516   0.918  2.0438  1.0388 -0.7512
 6429TIP3    H240847   3.076   3.591   0.822 -0.6372  0.4231  1.1342
 6430TIP3   OH240848   3.008   3.949   8.636 -0.3205  0.0270 -0.0065
 6430TIP3    H140849   3.101   3.970   8.623 -0.3064 -1.1445 -2.2329
 6430TIP3    H240850   2.964   4.034   8.635  0.7218  0.6426  1.5772
 6431TIP3   OH240851   1.930   1.819   7.043 -0.1521 -0.3491 -0.2644
 6431TIP3    H140852   1.930   1.885   6.974  3.0404 -0.8409 -0.8734
 6431TIP3    H240853   1.879   1.747   7.006 -0.1939  0.1748 -1.2649
 6432TIP3   OH240854   2.746   4.533   8.242  0.0455  0.1144  0.7795
 6432TIP3    H140855   2.669   4.562   8.291 -0.0231 -0.4415  1.0129
 6432TIP3    H240856   2.821   4.565   8.293 -0.0265  0.5806  0.5977
 6433TIP3   OH240857   0.146   6.785   0.989  0.4840  0.1676 -0.3117
 6433TIP3    H140858   0.163   6.786   0.895  0.1954  1.4097 -0.3663
 6433TIP3    H240859   0.090   6.708   1.003 -0.8074  0.8729 -1.4144
 6434TIP3   OH240860   3.979   0.657   2.143  0.5048 -0.1144 -0.2683
 6434TIP3    H140861   3.949   0.587   2.202 -2.7964  1.0352 -0.3984
 6434TIP3    H240862   3.968   0.737   2.194  0.3008  0.6543 -1.4895
 6435TIP3   OH240863   3.271   1.465   7.032  0.4226 -0.1653  0.4716
 6435TIP3    H140864   3.264   1.507   6.946  1.0438 -0.9578  0.0224
 6435TIP3    H240865   3.229   1.380   7.020  1.7225 -0.8424  0.5568
 6436TIP3   OH240866   3.929   2.055   1.523 -0.1024 -0.0375  0.3000
 6436TIP3    H140867   3.981   2.001   1.582  2.8916  1.2231 -1.0235
 6436TIP3    H240868   3.890   2.121   1.580  0.5709 -0.3913  1.1990
 6437TIP3   OH240869   5.236   0.897   8.029  0.2043  0.0776 -0.4554
 6437TIP3    H140870   5.185   0.820   8.054  1.2456  0.0556  1.9146
 6437TIP3    H240871   5.172   0.955   7.987 -1.4826 -0.5508  1.0836
 6438TIP3   OH240872   3.527   3.021   7.287  0.2486  0.1259 -0.3762
 6438TIP3    H140873   3.490   3.108   7.304  1.4516  0.8042 -1.0501
 6438TIP3    H240874   3.452   2.962   7.292 -0.3174  0.9254  1.9914
 6439TIP3   OH240875   2.162   4.265   8.462 -0.3118  0.3674 -0.0131
 6439TIP3    H140876   2.222   4.334   8.491  0.9326 -1.3179  1.6839
 6439TIP3    H240877   2.219   4.200   8.421 -1.1340 -0.6876  0.4864
 6440TIP3   OH240878   3.937   4.752   7.889  0.0781  0.0802 -0.4254
 6440TIP3    H140879   3.992   4.695   7.943 -1.6611 -1.0752  0.2187
 6440TIP3    H240880   3.917   4.826   7.945  0.5796  0.2741 -0.4972
 6441TIP3   OH240881   5.112   1.183   0.861  0.1926  0.2760 -0.3536
 6441TIP3    H140882   5.198   1.159   0.895  0.0650  1.4020  0.8279
 6441TIP3    H240883   5.058   1.195   0.939 -1.0360 -0.3568 -1.0774
 6442TIP3   OH240884   6.686   0.235   1.081 -0.4041 -0.0531  0.1692
 6442TIP3    H140885   6.599   0.267   1.057 -0.4429  0.5034  0.9818
 6442TIP3    H240886   6.677   0.140   1.086 -0.9775  0.0019  0.2650
 6443TIP3   OH240887   0.523   3.687   7.028 -0.2813  0.4323 -0.0956
 6443TIP3    H140888   0.569   3.751   7.081  0.5461 -0.5413  0.3980
 6443TIP3    H240889   0.450   3.735   6.989  1.7273  2.2875 -1.7586
 6444TIP3   OH240890   5.487   2.101   0.493 -0.4488 -0.1674  0.4959
 6444TIP3    H140891   5.458   2.009   0.486  3.0556 -1.6351  2.6543
 6444TIP3    H240892   5.440   2.135   0.569 -1.8220 -0.0554 -0.3537
 6445TIP3   OH240893   3.485   0.821   8.237  0.5031  0.2269 -0.2115
 6445TIP3    H140894   3.471   0.746   8.179 -1.5161  1.2838 -1.2067
 6445TIP3    H240895   3.503   0.894   8.177  0.5326  0.9099  0.6217
 6446TIP3   OH240896   5.548   4.178   7.875  0.5465 -0.5434  0.7220
 6446TIP3    H140897   5.521   4.250   7.932 -0.1116 -0.6054  0.5022
 6446TIP3    H240898   5.626   4.212   7.830 -0.4251  0.5015 -0.2442
 6447TIP3   OH240899   0.620   5.203   0.487 -0.0130 -0.5643  0.0433
 6447TIP3    H140900   0.551   5.243   0.435 -1.3998 -1.9488  0.7440
 6447TIP3    H240901   0.597   5.111   0.493  0.4807 -0.6163  2.4477
 6448TIP3   OH240902   1.566   2.198   0.117  0.2079 -0.3094  0.9588
 6448TIP3    H140903   1.573   2.153   0.201  1.3546 -1.2611  0.3787
 6448TIP3    H240904   1.594   2.288   0.136  1.2031 -0.7030  1.4676
 6449TIP3   OH240905   4.285   5.480   6.662 -0.2094 -0.5844 -0.1252
 6449TIP3    H140906   4.226   5.544   6.622 -1.9763 -0.9753  1.6969
 6449TIP3    H240907   4.284   5.406   6.601 -0.7315 -0.1672 -0.6422
 6450TIP3   OH240908   3.215   1.641   8.596 -0.2904  0.4187  0.0877
 6450TIP3    H140909   3.253   1.713   8.646 -1.9732  1.8941 -0.6315
 6450TIP3    H240910   3.280   1.621   8.528  0.7128  0.4045  1.0350
 6451TIP3   OH240911   4.652   3.043   0.653 -0.0879 -0.2843 -0.2742
 6451TIP3    H140912   4.632   2.956   0.686 -1.0652 -0.3327 -0.9601
 6451TIP3    H240913   4.659   3.032   0.558 -1.3074  0.5553 -0.4895
 6452TIP3   OH240914   6.335   5.718   0.054  0.4018  0.3090  0.5990
 6452TIP3    H140915   6.420   5.683   0.026  0.4062 -0.0646  1.0778
 6452TIP3    H240916   6.356   5.803   0.092  0.5284  0.3361  0.4718
 6453TIP3   OH240917   0.581   1.757   1.750  0.3691  0.0671 -0.0201
 6453TIP3    H140918   0.525   1.800   1.815  0.9951  2.8876 -1.2160
 6453TIP3    H240919   0.534   1.677   1.728 -1.8150  0.9529  1.0520
 6454TIP3   OH240920   4.290   2.711   1.439 -1.0102  0.0991  0.3692
 6454TIP3    H140921   4.307   2.765   1.516  3.1265  1.0811 -1.0086
 6454TIP3    H240922   4.284   2.622   1.474 -0.0946  0.6003  1.9157
 6455TIP3   OH240923   2.318   2.973   5.970 -0.2155 -0.3711  0.4693
 6455TIP3    H140924   2.398   3.006   5.930 -1.0757  1.2751  0.0239
 6455TIP3    H240925   2.311   3.020   6.052 -1.2754  0.3478 -0.0081
 6456TIP3   OH240926   1.210   5.204   1.666 -0.0936 -0.0639  0.3868
 6456TIP3    H140927   1.187   5.290   1.698 -1.0121 -0.2434  0.2168
 6456TIP3    H240928   1.286   5.178   1.719 -0.3572  0.4681  1.0299
 6457TIP3   OH240929   0.425   3.532   2.103  0.1276 -0.3410  0.3784
 6457TIP3    H140930   0.520   3.539   2.103  0.1086  0.0118  1.3000
 6457TIP3    H240931   0.403   3.498   2.189 -0.7195  2.0065  1.1753
 6458TIP3   OH240932   1.980   1.242   1.812  0.7224  0.0916 -0.0694
 6458TIP3    H140933   2.048   1.174   1.808  0.2781 -0.3658  0.0469
 6458TIP3    H240934   1.898   1.193   1.820  0.4819  0.6536  1.1572
 6459TIP3   OH240935   6.337   1.602   6.353 -0.2820 -0.2001 -0.2347
 6459TIP3    H140936   6.340   1.575   6.262  1.1875  2.3343 -1.0349
 6459TIP3    H240937   6.409   1.555   6.395  1.2812  1.1573 -1.2495
 6460TIP3   OH240938   6.002   4.729   1.253 -0.5427  0.2498 -0.2765
 6460TIP3    H140939   6.079   4.672   1.259 -1.0546 -0.7319 -2.3154
 6460TIP3    H240940   5.947   4.701   1.327  0.5098  0.1481  0.4937
 6461TIP3   OH240941   4.085   4.331   1.086  0.2694  0.2988  0.2179
 6461TIP3    H140942   4.009   4.389   1.082  0.3386  0.3350 -0.9542
 6461TIP3    H240943   4.052   4.251   1.127  0.0397  0.9477  1.3246
 6462TIP3   OH240944   0.816   3.848   1.047  0.3622 -0.3194 -0.0969
 6462TIP3    H140945   0.877   3.922   1.045 -0.7246  0.6960  1.3894
 6462TIP3    H240946   0.871   3.771   1.060  1.5137  0.2251 -1.5651
 6463TIP3   OH240947   3.501   4.621   6.591  0.1335 -0.1033 -0.1833
 6463TIP3    H140948   3.463   4.533   6.594  0.7542 -0.4173 -1.0646
 6463TIP3    H240949   3.457   4.669   6.661  0.9747 -1.5951  1.4388
 6464TIP3   OH240950   5.829   4.535   7.254 -0.2283 -0.0165 -0.4031
 6464TIP3    H140951   5.876   4.614   7.277 -0.3154 -0.4005  1.2354
 6464TIP3    H240952   5.826   4.535   7.159  3.0707  0.0169 -0.6026
 6465TIP3   OH240953   2.284   2.994   6.871  0.4025 -0.6573 -0.1120
 6465TIP3    H140954   2.266   3.075   6.823 -0.5242 -0.5844  0.3399
 6465TIP3    H240955   2.356   2.953   6.823  0.5952  0.2255 -0.5903
 6466TIP3   OH240956   5.189   6.607   6.503 -0.2012 -0.1314 -0.1867
 6466TIP3    H140957   5.124   6.661   6.549  0.1140 -0.8242  1.1426
 6466TIP3    H240958   5.262   6.666   6.486  0.8474 -0.3974  2.7285
 6467TIP3   OH240959   2.859   1.668   6.226  0.2285 -0.4250 -0.4127
 6467TIP3    H140960   2.937   1.646   6.278  0.7931 -1.2040 -1.5486
 6467TIP3    H240961   2.798   1.597   6.245  0.5406 -0.8596 -1.0170
 6468TIP3   OH240962   2.621   4.226   0.812 -0.0268 -0.0993  0.5832
 6468TIP3    H140963   2.530   4.249   0.793  0.6901  2.4166 -0.1679
 6468TIP3    H240964   2.642   4.159   0.748 -1.8379 -2.1695  1.9792
 6469TIP3   OH240965   4.345   2.715   1.970  0.9610  0.5844  0.1942
 6469TIP3    H140966   4.388   2.630   1.969  1.0317  0.6183  0.3340
 6469TIP3    H240967   4.400   2.770   1.913  1.4379  0.7876  0.8295
 6470TIP3   OH240968   0.671   2.081   1.810  0.2584  0.2722  0.2243
 6470TIP3    H140969   0.741   2.136   1.775  0.8925 -0.6493  0.0104
 6470TIP3    H240970   0.713   2.030   1.879 -0.2789 -0.0559  0.3136
 6471TIP3   OH240971   5.564   2.355   5.977  0.0414  0.1610 -0.4322
 6471TIP3    H140972   5.495   2.313   6.028 -0.5976  1.4835 -0.1692
 6471TIP3    H240973   5.518   2.408   5.912  0.8318  0.0760 -1.0822
 6472TIP3   OH240974   2.243   6.615   6.911 -0.2518  0.3428 -0.1323
 6472TIP3    H140975   2.254   6.687   6.850 -0.3804  1.4291  1.0893
 6472TIP3    H240976   2.164   6.570   6.881 -0.4644  1.0193 -0.6093
 6473TIP3   OH240977   5.463   4.548   0.210 -0.5310  0.3142 -0.5164
 6473TIP3    H140978   5.427   4.460   0.209 -0.6397  0.3318 -2.3335
 6473TIP3    H240979   5.391   4.603   0.241 -0.4698 -0.2026  0.6000
 6474TIP3   OH240980   4.971   5.842   8.047 -0.0139  0.7809  0.4465
 6474TIP3    H140981   5.042   5.778   8.051 -0.2530  0.4218 -0.7556
 6474TIP3    H240982   4.905   5.808   8.108 -0.1130 -0.1100 -0.1321
 6475TIP3   OH240983   6.310   5.274   2.402  0.2982  0.2138  0.3916
 6475TIP3    H140984   6.304   5.196   2.346  0.9843 -0.3095  1.0134
 6475TIP3    H240985   6.318   5.238   2.491  0.0595  1.0144  0.7445
 6476TIP3   OH240986   1.529   6.352   1.170 -0.0946  0.3251  0.2905
 6476TIP3    H140987   1.483   6.419   1.119 -0.3133  0.2518  0.3900
 6476TIP3    H240988   1.507   6.372   1.261  0.8788  0.8891  0.4125
 6477TIP3   OH240989   1.311   3.143   7.258 -0.2619  0.4831  0.3439
 6477TIP3    H140990   1.371   3.185   7.197 -0.1861 -0.7024 -0.4288
 6477TIP3    H240991   1.265   3.078   7.205 -0.8506  0.0540  1.3532
 6478TIP3   OH240992   6.653   3.171   2.423 -0.3353  0.3394 -0.2226
 6478TIP3    H140993   6.567   3.176   2.465  0.2290 -0.7898  1.0971
 6478TIP3    H240994   6.714   3.203   2.488  0.4067 -0.1456 -0.6656
 6479TIP3   OH240995   5.165   1.067   2.529  0.0289 -0.3956  0.8356
 6479TIP3    H140996   5.132   1.125   2.461  0.5659 -1.7731 -0.6469
 6479TIP3    H240997   5.106   0.992   2.528  0.9805 -1.1685  0.7448
 6480TIP3   OH240998   0.290   6.209   0.955 -0.0181 -0.2242  0.3968
 6480TIP3    H140999   0.317   6.119   0.935  1.9712  0.3689  0.1385
 6480TIP3    H241000   0.307   6.258   0.874  0.2168  0.6234  0.9403
 6481TIP3   OH241001   3.946   2.044   6.960  0.2331  0.0018  0.4505
 6481TIP3    H141002   3.966   1.984   7.031  0.5303  0.1600  0.4989
 6481TIP3    H241003   4.024   2.099   6.951 -0.3271  0.9030  0.9361
 6482TIP3   OH241004   1.218   3.339   0.825  0.1559 -0.3173  0.2089
 6482TIP3    H141005   1.261   3.316   0.743  0.1997  2.8467 -0.8024
 6482TIP3    H241006   1.258   3.282   0.891  2.9481 -0.3297 -1.3523
 6483TIP3   OH241007   3.268   2.207   6.769  0.1505  0.3643  0.4721
 6483TIP3    H141008   3.323   2.284   6.763 -0.1001  0.4230 -2.0924
 6483TIP3    H241009   3.327   2.137   6.796  0.7774  1.0577  0.9323
 6484TIP3   OH241010   6.720   5.640   7.736  0.2668  0.5973 -0.5140
 6484TIP3    H141011   6.695   5.557   7.697 -0.4732  0.3300  0.4996
 6484TIP3    H241012   6.639   5.690   7.741  0.3796  0.7062  0.4624
 6485TIP3   OH241013   5.583   0.164   8.346  0.0229  0.2075 -0.3636
 6485TIP3    H141014   5.670   0.185   8.380 -0.8061  1.6072  1.0115
 6485TIP3    H241015   5.543   0.249   8.327 -1.2637 -0.3866 -0.4181
 6486TIP3   OH241016   6.671   0.638   6.352 -0.1047 -0.2524  0.7243
 6486TIP3    H141017   6.678   0.572   6.283 -1.8161  1.2901 -1.0782
 6486TIP3    H241018   6.729   0.709   6.323  0.0825 -0.0809  1.5054
 6487TIP3   OH241019   2.533   0.488   8.060  0.3233  0.3654 -0.7791
 6487TIP3    H141020   2.599   0.429   8.097  0.8838  0.9130 -0.8902
 6487TIP3    H241021   2.456   0.432   8.047 -0.2231  0.3026  2.0228
 6488TIP3   OH241022   3.865   5.611   0.176 -0.2229 -0.3107  0.3637
 6488TIP3    H141023   3.837   5.702   0.189  0.7335 -0.0169  0.5036
 6488TIP3    H241024   3.866   5.574   0.265 -1.1472 -0.6318  0.2474
 6489TIP3   OH241025   6.598   6.473   1.977 -0.5037 -0.4322 -0.1898
 6489TIP3    H141026   6.607   6.379   1.961 -3.1661 -0.6452 -1.0284
 6489TIP3    H241027   6.559   6.479   2.064  1.8537  0.0966  0.9154
 6490TIP3   OH241028   2.935   3.770   0.006 -0.0290  0.5937 -0.5380
 6490TIP3    H141029   3.025   3.745  -0.014  0.6886  2.5659  0.0696
 6490TIP3    H241030   2.918   3.847  -0.049 -0.8866  1.0303  0.3091
 6491TIP3   OH241031   5.864   3.540   0.953  0.0580 -0.0237 -0.2130
 6491TIP3    H141032   5.855   3.580   1.039  0.5733 -0.5151  0.0745
 6491TIP3    H241033   5.853   3.446   0.969 -1.6143 -0.0004 -0.9356
 6492TIP3   OH241034   6.785   5.180   1.294  0.0651 -0.3697 -0.2780
 6492TIP3    H141035   6.780   5.093   1.334  0.9504 -0.9168 -1.3209
 6492TIP3    H241036   6.837   5.232   1.356 -1.5719 -0.1701  0.9991
 6493TIP3   OH241037   1.350   5.376   2.128 -0.1618  0.2231  0.3096
 6493TIP3    H141038   1.388   5.426   2.056 -0.4467  0.0728  0.0539
 6493TIP3    H241039   1.299   5.440   2.178  1.8500  0.8452  1.7159
 6494TIP3   OH241040   3.048   2.731   1.728 -0.0138  0.0000 -0.3952
 6494TIP3    H141041   2.985   2.735   1.656 -0.4510  0.3120 -0.0054
 6494TIP3    H241042   3.032   2.811   1.779 -0.0993 -0.4818  0.3548
 6495TIP3   OH241043   2.519   4.364   8.013  0.1563 -0.6068 -0.2060
 6495TIP3    H141044   2.604   4.333   8.044  0.5585  1.7104  1.2563
 6495TIP3    H241045   2.541   4.420   7.938 -0.0413  0.1396  0.2856
 6496TIP3   OH241046   1.186   0.936   6.453  0.3260  0.1682  0.6112
 6496TIP3    H141047   1.260   0.875   6.449 -0.7518 -1.3405  2.0381
 6496TIP3    H241048   1.134   0.915   6.376  1.4140  1.3490 -0.4901
 6497TIP3   OH241049   6.021   0.465   8.382 -0.4043 -0.2041  0.7315
 6497TIP3    H141050   6.051   0.553   8.402  0.7228 -0.3344 -0.2534
 6497TIP3    H241051   6.063   0.409   8.448  1.1709 -0.3170 -0.3066
 6498TIP3   OH241052   5.073   2.678   8.799  0.0055  0.4253 -0.2455
 6498TIP3    H141053   5.165   2.688   8.822 -0.4232  1.0877  1.3004
 6498TIP3    H241054   5.040   2.768   8.792 -0.0859  0.2846 -2.9012
 6499TIP3   OH241055   4.714   0.112   0.205 -0.1955 -0.6058 -0.2050
 6499TIP3    H141056   4.622   0.139   0.201 -0.8528 -1.5639  3.8603
 6499TIP3    H241057   4.750   0.137   0.120 -3.3065  3.1076 -0.7189
 6500TIP3   OH241058   5.834   2.165   8.564 -0.7952  0.2414 -0.0089
 6500TIP3    H141059   5.928   2.165   8.578 -1.1227 -1.6625  3.1042
 6500TIP3    H241060   5.813   2.076   8.534 -1.7256  0.2407  0.5926
 6501TIP3   OH241061   5.143   2.642   6.727 -0.1910  0.2565  0.0373
 6501TIP3    H141062   5.216   2.650   6.789 -0.3354  1.1357  0.1138
 6501TIP3    H241063   5.154   2.716   6.667 -1.3748  0.7914  0.4398
 6502TIP3   OH241064   6.470   4.228   7.201  0.6247  0.4542  0.1230
 6502TIP3    H141065   6.524   4.164   7.155 -0.1544 -1.4945  1.7830
 6502TIP3    H241066   6.429   4.279   7.131  0.9757 -1.0956 -1.2785
 6503TIP3   OH241067   0.822   4.672   0.214  0.7979  0.2185 -0.4909
 6503TIP3    H141068   0.845   4.614   0.141  2.6330  1.0721 -0.6474
 6503TIP3    H241069   0.893   4.661   0.277 -1.7021 -2.0063  2.2182
 6504TIP3   OH241070   2.069   2.828   7.752 -0.2146 -0.2784 -0.1612
 6504TIP3    H141071   2.017   2.887   7.697 -0.0702 -0.4486 -0.4818
 6504TIP3    H241072   2.160   2.856   7.738 -0.0607 -1.1349 -1.0077
 6505TIP3   OH241073   1.348   6.054   6.471  0.4900  0.0640 -0.2066
 6505TIP3    H141074   1.261   6.071   6.507  0.5622 -1.4997  0.7592
 6505TIP3    H241075   1.368   6.134   6.421 -0.6396  1.2840  1.1829
 6506TIP3   OH241076   2.729   0.303   1.726 -1.1269  0.4649 -0.5277
 6506TIP3    H141077   2.713   0.291   1.632 -0.8270  0.0258 -0.5258
 6506TIP3    H241078   2.824   0.306   1.734 -1.1436  0.2241 -0.2070
 6507TIP3   OH241079   3.777   2.492   7.237 -0.5538  0.1995  0.0341
 6507TIP3    H141080   3.707   2.474   7.174 -1.5488  2.5228  0.3901
 6507TIP3    H241081   3.857   2.462   7.193 -1.4548 -0.1362 -1.4619
 6508TIP3   OH241082   5.928   2.532   1.275 -0.0973  0.1273 -0.2112
 6508TIP3    H141083   5.896   2.442   1.281 -0.8281  0.3068 -1.2467
 6508TIP3    H241084   5.883   2.578   1.346 -0.4820 -0.1065 -0.3025
 6509TIP3   OH241085   3.905   4.313   6.889 -0.2930  0.3341  0.1326
 6509TIP3    H141086   3.964   4.297   6.816 -0.0113  0.0790  0.4108
 6509TIP3    H241087   3.908   4.408   6.902  0.0083  0.3288  0.1049
 6510TIP3   OH241088   0.975   5.369   8.306 -0.3791  0.1439  0.7631
 6510TIP3    H141089   0.940   5.340   8.391 -2.9357  0.5297 -0.0728
 6510TIP3    H241090   0.961   5.294   8.248  0.0660  0.3714  0.3569
 6511TIP3   OH241091   5.668   1.014   8.586 -0.1211  0.3972 -0.2718
 6511TIP3    H141092   5.628   0.941   8.633  1.2506 -0.5232 -0.4522
 6511TIP3    H241093   5.672   1.085   8.650 -0.1794 -0.1646  0.3596
 6512TIP3   OH241094   5.840   1.015   7.718  0.4901  0.4963 -0.5668
 6512TIP3    H141095   5.801   0.927   7.725  0.8739  0.4608  1.8475
 6512TIP3    H241096   5.934   1.000   7.722  0.6019  0.9424 -1.4120
 6513TIP3   OH241097   1.491   4.701   8.834 -0.0914  0.3272 -0.3438
 6513TIP3    H141098   1.527   4.789   8.843 -0.6902  0.6804 -1.3299
 6513TIP3    H241099   1.431   4.691   8.907  0.1921  0.6242 -0.0692
 6514TIP3   OH241100   0.593   1.890   8.349  0.2990  0.3935  0.3244
 6514TIP3    H141101   0.641   1.843   8.281 -0.2585  0.6309 -0.2336
 6514TIP3    H241102   0.597   1.982   8.323 -0.2058  0.4488  0.4318
 6515TIP3   OH241103   4.292   1.465   8.502  0.1010 -0.0174  0.0011
 6515TIP3    H141104   4.360   1.400   8.483  0.2990 -0.2300  1.3312
 6515TIP3    H241105   4.337   1.549   8.494  0.1296 -0.0781 -0.5780
 6516TIP3   OH241106   1.734   2.723   8.075  0.2361  0.1478 -0.0856
 6516TIP3    H141107   1.760   2.690   8.161 -0.6195  0.5477  0.3372
 6516TIP3    H241108   1.683   2.652   8.036  1.2655 -0.3268 -0.5821
 6517TIP3   OH241109   3.067   2.701   0.055  0.3228  0.0798 -0.3674
 6517TIP3    H141110   3.020   2.739   0.130 -0.4517  0.4171 -1.0138
 6517TIP3    H241111   3.139   2.652   0.095  0.3576  0.8541  0.5633
 6518TIP3   OH241112   3.769   3.424   8.362  0.6008 -0.3420  0.1235
 6518TIP3    H141113   3.823   3.501   8.344  0.5610 -0.1001  1.0100
 6518TIP3    H241114   3.825   3.366   8.413 -0.2491  0.3433  1.9345
 6519TIP3   OH241115   3.965   6.235   1.971  0.1779 -0.0422  0.7557
 6519TIP3    H141116   3.941   6.306   1.911 -1.6138 -1.3497 -0.1973
 6519TIP3    H241117   3.947   6.270   2.058 -1.3692  0.4945  0.2678
 6520TIP3   OH241118   4.556   2.300   8.768 -0.1654 -0.5119 -0.0529
 6520TIP3    H141119   4.643   2.263   8.784 -0.0860  0.4811  2.1712
 6520TIP3    H241120   4.570   2.367   8.701  1.2411  1.0522  1.6940
 6521TIP3   OH241121   1.942   4.969   8.304 -0.5208  0.2510  0.2856
 6521TIP3    H141122   2.001   5.034   8.341  0.4096  0.6082 -1.7185
 6521TIP3    H241123   1.968   4.961   8.212 -1.9721 -1.4259 -0.0465
 6522TIP3   OH241124   6.652   2.260   7.087  0.1872 -0.4821  0.2607
 6522TIP3    H141125   6.700   2.326   7.038  0.5441  0.0072  1.2362
 6522TIP3    H241126   6.560   2.289   7.085  0.0325 -1.0147 -0.9641
 6523TIP3   OH241127   1.027   0.422   0.520  0.3071  0.0647  0.7781
 6523TIP3    H141128   0.955   0.449   0.464  0.0487  1.0196  1.5235
 6523TIP3    H241129   1.105   0.460   0.479  0.2653 -0.1860  0.4677
 6524TIP3   OH241130   3.665   5.160   7.029  0.2711  0.1993  0.0311
 6524TIP3    H141131   3.649   5.191   6.940 -0.6057  2.6449  0.9802
 6524TIP3    H241132   3.600   5.090   7.041 -2.3841  2.4792  0.0075
 6525TIP3   OH241133   3.146   3.665   1.920 -0.3187 -0.0950 -0.7466
 6525TIP3    H141134   3.148   3.724   1.995 -1.5285 -0.5675 -0.3183
 6525TIP3    H241135   3.195   3.588   1.948 -1.3102 -0.5338 -0.2009
 6526TIP3   OH241136   2.217   5.723   1.418  0.3692  0.6027 -0.5553
 6526TIP3    H141137   2.310   5.742   1.408  0.2594  0.6229 -1.6259
 6526TIP3    H241138   2.213   5.627   1.424  0.3978  0.5373 -1.4069
 6527TIP3   OH241139   2.632   6.593   0.967 -0.1613 -0.1122  0.3849
 6527TIP3    H141140   2.663   6.521   1.021  2.3588  0.0878 -0.6930
 6527TIP3    H241141   2.619   6.555   0.880 -0.1181  0.4600  0.1204
 6528TIP3   OH241142   0.296   2.121   7.775 -0.0861  0.3440 -0.3966
 6528TIP3    H141143   0.271   2.144   7.685 -1.3306  0.1837 -0.1078
 6528TIP3    H241144   0.324   2.030   7.769 -2.2874 -0.4127 -0.2938
 6529TIP3   OH241145   6.127   4.400   7.206  0.1192  0.6495  0.1324
 6529TIP3    H141146   6.107   4.489   7.235  1.6457  0.6254  1.3725
 6529TIP3    H241147   6.221   4.401   7.189  0.8670 -1.4992  3.2742
 6530TIP3   OH241148   6.118   0.068   7.321  0.3046  0.1180  0.0557
 6530TIP3    H141149   6.188   0.013   7.356  1.1165 -0.4468 -2.3145
 6530TIP3    H241150   6.056   0.007   7.282 -0.8825  0.7040  0.9352
 6531TIP3   OH241151   1.632   3.308   1.844 -0.0795 -0.0073  0.2149
 6531TIP3    H141152   1.678   3.291   1.927  0.1196  1.3657  0.4074
 6531TIP3    H241153   1.592   3.224   1.821  1.7166 -1.0246  0.5441
 6532TIP3   OH241154   3.808   5.985   1.155 -0.1340 -0.0573 -0.1702
 6532TIP3    H141155   3.773   6.060   1.203  0.8778  1.1602 -1.2643
 6532TIP3    H241156   3.830   5.921   1.223 -0.6695  0.7746  0.8144
 6533TIP3   OH241157   3.223   4.942   7.399  0.1999  0.5009 -0.7243
 6533TIP3    H141158   3.218   5.006   7.469 -0.2678 -1.6578  1.3205
 6533TIP3    H241159   3.316   4.917   7.396  0.0331 -0.2330 -0.0569
 6534TIP3   OH241160   3.484   3.939   1.591 -0.6845 -0.5621  0.0799
 6534TIP3    H141161   3.431   3.882   1.647 -0.8253 -2.9051 -2.2501
 6534TIP3    H241162   3.574   3.907   1.601 -0.4554  0.0720  0.1531
 6535TIP3   OH241163   6.580   1.785   1.484 -0.3538 -0.0601  0.2995
 6535TIP3    H141164   6.556   1.693   1.474 -0.7067  0.1270 -0.7344
 6535TIP3    H241165   6.510   1.833   1.439 -0.2147  0.7163  0.9029
 6536TIP3   OH241166   0.960   1.780   7.143  0.4309  0.0043 -0.1131
 6536TIP3    H141167   0.899   1.750   7.076 -0.6035 -0.5804  1.0602
 6536TIP3    H241168   1.008   1.701   7.168  1.9193  0.5031 -1.2150
 6537TIP3   OH241169   0.833   1.870   7.786  0.2167  0.6382  0.3445
 6537TIP3    H141170   0.831   1.811   7.861 -0.0712 -0.7164 -0.7048
 6537TIP3    H241171   0.745   1.908   7.783 -0.1629 -0.2642 -0.0503
 6538TIP3   OH241172   5.688   6.608   2.151 -0.3310  0.1686  0.4604
 6538TIP3    H141173   5.728   6.677   2.204 -1.6805  1.3850 -0.0642
 6538TIP3    H241174   5.636   6.557   2.214 -2.1127  1.7464  0.3376
 6539TIP3   OH241175   5.098   0.592   1.619  0.8318  0.3206  0.1186
 6539TIP3    H141176   5.034   0.634   1.562  0.5382  0.8609  0.8243
 6539TIP3    H241177   5.127   0.515   1.571 -1.6786 -0.9635  0.5204
 6540TIP3   OH241178   2.189   2.316   7.631 -0.4883  0.3350  0.1545
 6540TIP3    H141179   2.188   2.262   7.710  2.4733 -0.6403 -0.3536
 6540TIP3    H241180   2.187   2.406   7.664  2.4975 -0.0077  1.5550
 6541TIP3   OH241181   0.896   2.019   8.128 -0.1461 -0.5189  0.1076
 6541TIP3    H141182   0.886   1.928   8.156  0.1407 -0.4924  0.2969
 6541TIP3    H241183   0.807   2.055   8.131  0.1830  0.3142  3.7985
 6542TIP3   OH241184   5.311   5.938   0.484  0.1054  0.0818  0.6641
 6542TIP3    H141185   5.256   5.862   0.501  1.5528 -1.3460 -0.5555
 6542TIP3    H241186   5.250   6.008   0.459 -1.1812 -1.3750 -0.4969
 6543TIP3   OH241187   6.631   4.939   8.011 -0.6673  0.0034  0.2315
 6543TIP3    H141188   6.710   4.967   7.964 -0.4852 -0.6258  0.1545
 6543TIP3    H241189   6.569   5.011   7.999  0.1336  0.8262  0.8915
 6544TIP3   OH241190   1.113   6.023   8.527 -0.0374  0.2581 -0.5592
 6544TIP3    H141191   1.050   5.994   8.593  1.8535 -1.0240  0.8027
 6544TIP3    H241192   1.071   6.005   8.443 -1.1861 -1.2468  0.2978
 6545TIP3   OH241193   0.150   2.338   8.141 -0.5150  0.1881 -0.2034
 6545TIP3    H141194   0.130   2.290   8.061 -0.4700  0.0961 -0.1604
 6545TIP3    H241195   0.102   2.420   8.133 -2.9322 -1.0055  0.9805
 6546TIP3   OH241196   4.610   2.341   7.948  0.2812 -0.0809 -1.1189
 6546TIP3    H141197   4.686   2.306   7.901  1.1811 -1.2531  1.0892
 6546TIP3    H241198   4.535   2.304   7.901  1.1611 -2.5084 -0.7852
 6547TIP3   OH241199   2.143   3.696   7.813 -0.1197 -0.1999  0.0002
 6547TIP3    H141200   2.091   3.698   7.733 -1.2216 -1.2063  0.6478
 6547TIP3    H241201   2.093   3.750   7.875 -0.5573 -1.3453  0.6928
 6548TIP3   OH241202   3.527   1.820   8.259 -0.2906  0.0012 -0.1630
 6548TIP3    H141203   3.603   1.766   8.239 -0.1513  0.1140  0.0540
 6548TIP3    H241204   3.457   1.758   8.279 -0.1850 -0.1002 -0.1111
 6549TIP3   OH241205   2.803   4.249   7.828  0.1907 -0.8806 -0.7526
 6549TIP3    H141206   2.877   4.196   7.858 -1.2049 -2.9313 -0.7257
 6549TIP3    H241207   2.794   4.318   7.893  1.5071 -1.1208 -0.2867
 6550TIP3   OH241208   5.427   5.417   0.523  0.4413  0.1779 -0.2381
 6550TIP3    H141209   5.487   5.492   0.525  0.4379  0.2000  1.9122
 6550TIP3    H241210   5.423   5.389   0.614 -2.7402  0.1102 -0.3056
 6551TIP3   OH241211   2.102   4.658   0.406 -0.4970  0.3926 -0.1218
 6551TIP3    H141212   2.171   4.700   0.354 -0.3066 -0.5283 -0.6305
 6551TIP3    H241213   2.054   4.731   0.445 -0.0500  1.0772 -0.8187
 6552TIP3   OH241214   4.364   1.927   6.349  0.1585  0.3066 -0.5920
 6552TIP3    H141215   4.313   1.846   6.345  1.8086 -0.7390 -1.3053
 6552TIP3    H241216   4.376   1.942   6.443 -0.9938  0.2842 -0.4291
 6553TIP3   OH241217   2.169   4.152   8.031  0.0753  0.2971 -0.5133
 6553TIP3    H141218   2.102   4.208   8.072 -0.8148 -1.1936  0.1255
 6553TIP3    H241219   2.168   4.178   7.939  1.4057  3.0154  0.1222
 6554TIP3   OH241220   0.130   0.334   8.469  0.2983  0.1353  0.1690
 6554TIP3    H141221   0.222   0.353   8.485 -0.1764  0.4220  2.9532
 6554TIP3    H241222   0.084   0.370   8.544 -1.9330 -1.4490 -0.3235
 6555TIP3   OH241223   0.752   3.853   0.573  0.6389  0.1219 -0.2807
 6555TIP3    H141224   0.738   3.811   0.657  2.5995 -2.3446 -1.0414
 6555TIP3    H241225   0.714   3.792   0.509  1.9578  0.3517 -1.3353
 6556TIP3   OH241226   6.176   6.236   1.956 -1.0110 -0.1331 -0.2013
 6556TIP3    H141227   6.145   6.310   2.009 -1.1992 -0.6823  0.4722
 6556TIP3    H241228   6.099   6.180   1.946 -0.3836 -1.2968  1.1233
 6557TIP3   OH241229   3.368   3.763   1.760  0.7022  0.2781 -0.1360
 6557TIP3    H141230   3.304   3.730   1.823  0.0128 -0.1068 -1.0147
 6557TIP3    H241231   3.450   3.718   1.783  1.0073  1.6878  1.7628
 6558TIP3   OH241232   1.105   5.692   7.994 -0.0900  0.4120  0.1511
 6558TIP3    H141233   1.174   5.756   7.976  0.8923 -0.8867 -0.9801
 6558TIP3    H241234   1.024   5.740   7.982  0.6026  1.2106 -1.8618
 6559TIP3   OH241235   5.495   1.243   2.238 -0.3797  0.1093 -0.0206
 6559TIP3    H141236   5.570   1.189   2.262 -0.1138  1.3329  2.2431
 6559TIP3    H241237   5.533   1.325   2.207 -0.7341  0.5603  0.6906
 6560TIP3   OH241238   1.481   0.497   8.368 -0.1140 -0.0292 -0.6571
 6560TIP3    H141239   1.406   0.527   8.318 -0.8251 -0.2159  0.2664
 6560TIP3    H241240   1.507   0.415   8.326 -0.5144 -0.0350 -0.8952
 6561TIP3   OH241241   0.141   3.723   7.759 -0.4608 -0.0197 -0.2622
 6561TIP3    H141242   0.173   3.797   7.810  0.4012 -0.5902  0.0563
 6561TIP3    H241243   0.189   3.728   7.677 -0.4199 -0.2108 -0.2495
 6562TIP3   OH241244   3.317   6.138   6.747 -0.2630 -0.0803 -0.0020
 6562TIP3    H141245   3.301   6.232   6.760 -1.4162 -0.5987  3.0686
 6562TIP3    H241246   3.412   6.131   6.741  0.0875  1.0681  2.7505
 6563TIP3   OH241247   3.381   1.794   0.634  0.0171  0.9094 -0.3647
 6563TIP3    H141248   3.307   1.762   0.582 -0.2804 -0.3806  0.7686
 6563TIP3    H241249   3.445   1.723   0.630  0.3607  1.1771  0.2622
 6564TIP3   OH241250   4.184   5.949   0.857  0.4015 -0.2807 -0.6000
 6564TIP3    H141251   4.229   5.986   0.933  0.1059 -1.4219  0.1426
 6564TIP3    H241252   4.243   5.881   0.824 -0.3198 -1.1093 -0.2165
 6565TIP3   OH241253   0.106   5.432   0.388 -0.5420 -0.1154  0.1578
 6565TIP3    H141254   0.133   5.365   0.326 -0.0326 -0.3714  0.6440
 6565TIP3    H241255   0.032   5.476   0.345 -0.1241 -0.2021 -0.6712
 6566TIP3   OH241256   5.900   6.746   8.160 -0.3697  0.2430  0.7653
 6566TIP3    H141257   5.875   6.676   8.220 -0.4009  0.8435  1.4768
 6566TIP3    H241258   5.944   6.702   8.088  0.6237 -0.4244  1.7446
 6567TIP3   OH241259   2.522   3.080   8.402 -0.1650 -0.6907 -0.4780
 6567TIP3    H141260   2.596   3.096   8.343  0.7334 -0.6627  0.6394
 6567TIP3    H241261   2.511   2.985   8.401  0.4930 -0.7803  0.0611
 6568TIP3   OH241262   5.984   0.517   0.663  0.3116 -0.6903  0.2157
 6568TIP3    H141263   5.977   0.422   0.668 -1.2241 -0.6637 -0.7611
 6568TIP3    H241264   5.929   0.549   0.734 -0.1858 -0.5341 -0.2319
 6569TIP3   OH241265   1.444   0.409   0.178  0.4397  0.1500  0.2821
 6569TIP3    H141266   1.537   0.429   0.165  0.7211 -2.0650 -1.6993
 6569TIP3    H241267   1.400   0.449   0.103 -0.0169 -0.0511  0.4401
 6570TIP3   OH241268   3.328   2.647   8.056  0.3576  0.1601 -0.2899
 6570TIP3    H141269   3.255   2.709   8.049  1.2557  1.2363 -0.5192
 6570TIP3    H241270   3.383   2.666   7.981 -0.2510 -2.2189 -1.4289
 6571TIP3   OH241271   3.338   0.897   7.916 -0.0491  0.7708 -0.1964
 6571TIP3    H141272   3.394   0.932   7.846  0.8220  0.0725  0.1305
 6571TIP3    H241273   3.379   0.814   7.940 -2.0960 -0.5492 -0.9889
 6572TIP3   OH241274   6.344   5.794   1.717  0.1376  0.3703  0.3679
 6572TIP3    H141275   6.251   5.774   1.713  0.3074 -0.5147  0.6499
 6572TIP3    H241276   6.349   5.878   1.763 -0.4711  0.0390  1.0514
 6573TIP3   OH241277   6.029   2.308   0.414 -0.1863 -0.1993  0.0404
 6573TIP3    H141278   5.989   2.221   0.419  0.3646 -0.4365  0.3895
 6573TIP3    H241279   6.105   2.303   0.471  0.3626  0.2331 -0.6337
 6574TIP3   OH241280   5.594   2.876   8.148 -0.0316 -0.6993  0.4314
 6574TIP3    H141281   5.557   2.787   8.147  2.5103 -1.8433  0.5468
 6574TIP3    H241282   5.584   2.905   8.238 -1.4402 -0.5613  0.2625
 6575TIP3   OH241283   6.634   1.027   8.553  0.4643 -0.2390  0.3626
 6575TIP3    H141284   6.624   1.100   8.614 -1.1196 -0.5190  0.4662
 6575TIP3    H241285   6.716   0.985   8.580  0.7762  0.7858  1.0632
 6576TIP3   OH241286   2.770   2.474   6.966 -0.2941  0.6484  0.0856
 6576TIP3    H141287   2.703   2.416   6.930  1.2647 -1.3486  0.2108
 6576TIP3    H241288   2.852   2.427   6.952  0.8784  2.0671  1.7773
 6577TIP3   OH241289   1.406   5.907   0.886  0.1958 -0.3054 -0.1361
 6577TIP3    H141290   1.453   5.917   0.803  0.0076  0.4502 -0.1606
 6577TIP3    H241291   1.475   5.890   0.951  0.5944  1.3275 -0.0748
 6578TIP3   OH241292   4.818   1.882   7.273  0.2210  0.3136 -0.9328
 6578TIP3    H141293   4.896   1.933   7.295 -0.7857  1.8298 -0.7463
 6578TIP3    H241294   4.751   1.910   7.336 -0.6633 -0.4951 -1.4747
 6579TIP3   OH241295   1.120   1.283   7.168 -0.2582 -0.4484  0.1927
 6579TIP3    H141296   1.094   1.362   7.122  0.5956 -0.1984  0.1278
 6579TIP3    H241297   1.040   1.230   7.171 -0.7102  0.1960 -0.1996
 6580TIP3   OH241298   2.056   4.385   2.016  0.2785 -0.5541  0.2291
 6580TIP3    H141299   2.082   4.470   1.982 -1.0443 -0.3035 -0.2116
 6580TIP3    H241300   2.098   4.322   1.958 -0.5563 -0.1561 -0.8332
 6581TIP3   OH241301   0.067   4.129   1.637 -0.4713  0.4037  0.0881
 6581TIP3    H141302   0.058   4.103   1.545  0.5035 -0.4934  0.2266
 6581TIP3    H241303   0.084   4.047   1.683 -0.6907  0.8828  1.0425
 6582TIP3   OH241304   4.002   6.245   0.051 -0.1111  0.5487  0.3738
 6582TIP3    H141305   3.959   6.179   0.105 -0.1493  0.2866  0.0316
 6582TIP3    H241306   4.095   6.221   0.053  0.0948  1.3958  1.5014
 6583TIP3   OH241307   1.953   6.600   6.792  0.0259 -0.6150  0.2025
 6583TIP3    H141308   1.955   6.569   6.702  2.5548 -2.7575  0.8737
 6583TIP3    H241309   1.933   6.693   6.786 -1.1104 -0.9452 -2.4282
 6584TIP3   OH241310   1.806   0.641   7.267  0.1516  0.2743 -0.0341
 6584TIP3    H141311   1.761   0.701   7.326  1.5312  0.5359  0.7957
 6584TIP3    H241312   1.876   0.603   7.320  0.1372 -1.0780 -0.9203
 6585TIP3   OH241313   4.129   5.164   0.543  0.4768  0.1170  0.0224
 6585TIP3    H141314   4.201   5.174   0.481 -0.1227 -0.4760 -0.7957
 6585TIP3    H241315   4.138   5.237   0.603  0.7759  1.0148 -1.0869
 6586TIP3   OH241316   4.075   1.920   7.182  0.0726  0.2985 -0.0820
 6586TIP3    H141317   4.019   1.844   7.199  1.2494 -0.7299 -0.6987
 6586TIP3    H241318   4.108   1.945   7.268  0.7010 -0.7073 -0.0132
 6587TIP3   OH241319   6.695   3.337   8.666  0.2848  0.3020 -0.0120
 6587TIP3    H141320   6.651   3.261   8.704  2.1773 -0.2070  1.3061
 6587TIP3    H241321   6.645   3.358   8.588 -0.2536 -2.3297 -0.4332
 6588TIP3   OH241322   2.745   2.084   7.652 -0.2097 -0.0142  0.0290
 6588TIP3    H141323   2.834   2.097   7.620 -0.0283 -0.6031  0.2954
 6588TIP3    H241324   2.700   2.166   7.630  0.5204  0.4781  0.3346
 6589TIP3   OH241325   5.794   6.105   8.297 -0.1773 -0.0810 -0.2105
 6589TIP3    H141326   5.859   6.164   8.260  1.0002 -0.7426  0.7252
 6589TIP3    H241327   5.765   6.148   8.377 -0.5813 -0.0007 -0.3942
 6590TIP3   OH241328   0.467   2.352   1.309 -0.1607  0.0408 -0.6372
 6590TIP3    H141329   0.432   2.359   1.398 -1.7290  1.2257 -1.2980
 6590TIP3    H241330   0.489   2.259   1.300 -1.5623 -0.4389  0.4233
 6591TIP3   OH241331   3.470   4.086   8.448  0.0016  0.8322 -0.3399
 6591TIP3    H141332   3.480   4.091   8.543 -0.2911  0.2507 -0.2693
 6591TIP3    H241333   3.512   4.165   8.415  1.6437  0.1908  0.1444
 6592TIP3   OH241334   6.243   5.299   8.225 -0.7524 -0.2301 -0.3786
 6592TIP3    H141335   6.215   5.254   8.305  0.2480 -0.1264  0.0442
 6592TIP3    H241336   6.167   5.293   8.167 -1.1489 -1.1863  0.2031
 6593TIP3   OH241337   4.589   3.124   8.119 -0.7586  0.2067 -0.4353
 6593TIP3    H141338   4.668   3.132   8.172 -1.6681  0.2514  0.9693
 6593TIP3    H241339   4.603   3.046   8.066  0.1126  0.0564  0.0036
 6594TIP3   OH241340   4.107   2.034   0.111 -0.0626  0.1272  0.2426
 6594TIP3    H141341   4.105   2.127   0.134  1.6133  0.1319  0.4999
 6594TIP3    H241342   4.126   2.032   0.018 -1.3334  0.0312 -0.0359
 6595TIP3   OH241343   2.022   6.357   1.138  0.7237 -0.2146 -0.4624
 6595TIP3    H141344   2.062   6.359   1.051  2.5857  0.0283  0.3444
 6595TIP3    H241345   2.066   6.285   1.183  0.9730  0.7002  0.7932
 6596TIP3   OH241346   3.802   0.116   1.162 -0.2539  0.0906  0.2345
 6596TIP3    H141347   3.882   0.168   1.161  0.3435 -0.8071 -0.6022
 6596TIP3    H241348   3.787   0.094   1.070 -0.9881 -0.4668  0.4805
 6597TIP3   OH241349   4.848   5.685   0.039  0.0559  0.1895 -0.0889
 6597TIP3    H141350   4.927   5.664   0.089 -0.7645 -1.5231  0.5766
 6597TIP3    H241351   4.878   5.743  -0.030  1.9723 -0.7098 -0.0766
 6598TIP3   OH241352   6.248   0.635   7.905 -0.0086 -0.1403 -0.2416
 6598TIP3    H141353   6.287   0.661   7.821 -0.3876  3.2576  0.4750
 6598TIP3    H241354   6.319   0.590   7.951  1.2312  0.7278 -1.2095
 6599TIP3   OH241355   3.588   2.285   0.541  0.1844  0.4809 -0.0579
 6599TIP3    H141356   3.650   2.278   0.613 -0.4870  1.2260  0.6079
 6599TIP3    H241357   3.599   2.203   0.492 -0.7135 -0.9348  1.9706
 6600TIP3   OH241358   5.983   1.182   8.186  0.8611  1.1319 -0.8299
 6600TIP3    H141359   6.063   1.189   8.238  1.7133  1.8443 -2.1475
 6600TIP3    H241360   5.923   1.130   8.239  1.6656  1.8432  0.8446
 6601TIP3   OH241361   2.850   1.390   6.357  0.2387 -0.7597  0.7483
 6601TIP3    H141362   2.944   1.404   6.343 -0.1184  0.7557 -0.4546
 6601TIP3    H241363   2.834   1.418   6.447  0.5382  1.5789  0.1383
 6602TIP3   OH241364   5.207   3.972   0.385 -0.1572  0.5476  0.1077
 6602TIP3    H141365   5.255   3.891   0.369  0.2391  0.3897  1.9147
 6602TIP3    H241366   5.116   3.944   0.391 -0.2946  0.5767 -1.4180
 6603TIP3   OH241367   4.945   5.631   7.760  0.5472  0.1487 -0.1583
 6603TIP3    H141368   4.900   5.553   7.793  1.8746 -0.6489 -0.1268
 6603TIP3    H241369   4.910   5.703   7.811  0.7051 -0.7117  1.2192
 6604TIP3   OH241370   5.950   0.873   1.252  0.3810 -0.6119  0.0655
 6604TIP3    H141371   5.902   0.920   1.321 -0.4445 -1.1010 -0.1578
 6604TIP3    H241372   6.039   0.867   1.285  0.8195  2.1187 -0.4041
 6605TIP3   OH241373   1.250   4.507   1.086  0.1086 -0.5208 -0.2287
 6605TIP3    H141374   1.238   4.467   1.000  1.8320 -1.5675 -0.0260
 6605TIP3    H241375   1.332   4.471   1.118  0.2514  0.9869  1.2399
 6606TIP3   OH241376   4.809   5.097   7.587  0.1058  0.0493 -0.1245
 6606TIP3    H141377   4.880   5.150   7.622  0.6037 -0.4204 -0.4011
 6606TIP3    H241378   4.735   5.157   7.579  0.9807  1.0063 -1.5066
 6607TIP3   OH241379   6.305   3.794   1.020  0.0264  0.4803 -0.0254
 6607TIP3    H141380   6.252   3.728   0.975 -1.4939  0.0894  2.1593
 6607TIP3    H241381   6.394   3.780   0.989 -0.4615 -1.8185 -0.5309
 6608TIP3   OH241382   2.601   1.044   1.705 -0.0057 -0.0495 -0.6055
 6608TIP3    H141383   2.565   1.124   1.667 -1.0836 -0.0725  0.3150
 6608TIP3    H241384   2.557   1.035   1.790 -0.4476 -1.9786 -0.9734
 6609TIP3   OH241385   4.826   3.595   8.697 -0.3615 -0.4091 -0.4198
 6609TIP3    H141386   4.893   3.605   8.629  0.3058  1.2187  0.4287
 6609TIP3    H241387   4.876   3.585   8.778 -1.1050  1.2113  0.2774
 6610TIP3   OH241388   1.173   4.935   6.925 -0.0533  0.2685 -0.2287
 6610TIP3    H141389   1.261   4.939   6.888 -0.9063 -1.6043 -2.7316
 6610TIP3    H241390   1.118   4.981   6.863 -1.1741 -0.6993  0.0115
 6611TIP3   OH241391   2.448   3.250   7.007 -0.6584  0.3805 -0.5072
 6611TIP3    H141392   2.421   3.163   6.977 -1.0363  0.4443 -0.3537
 6611TIP3    H241393   2.441   3.306   6.930 -0.4944  0.2937 -0.5859
 6612TIP3   OH241394   3.374   1.574   1.895  0.5627 -0.5277 -0.1516
 6612TIP3    H141395   3.396   1.654   1.848 -0.1692 -1.0868 -1.5083
 6612TIP3    H241396   3.329   1.604   1.974  2.2597  0.4476  0.4930
 6613TIP3   OH241397   2.636   2.946   7.114 -0.2361  0.4012 -0.2405
 6613TIP3    H141398   2.656   2.854   7.131  1.9052  1.0676  1.3984
 6613TIP3    H241399   2.613   2.949   7.022  0.1044 -1.7111 -0.4543
 6614TIP3   OH241400   2.434   4.527   6.577 -0.0923 -0.6991 -0.0659
 6614TIP3    H141401   2.461   4.446   6.534 -0.3166 -0.9582  0.2724
 6614TIP3    H241402   2.413   4.586   6.505  0.6936 -0.7200 -0.3250
 6615TIP3   OH241403   1.605   6.459   6.666  0.3600 -0.4262 -0.3651
 6615TIP3    H141404   1.632   6.540   6.623  0.5247  0.2337  0.9474
 6615TIP3    H241405   1.512   6.472   6.686  0.4848 -0.3841  0.2103
 6616TIP3   OH241406   3.507   4.922   8.019  0.2519  0.3127 -0.1113
 6616TIP3    H141407   3.485   4.989   8.084 -1.5048 -1.0503  0.7970
 6616TIP3    H241408   3.597   4.896   8.039  0.3935  1.2718  0.5311
 6617TIP3   OH241409   1.061   5.742   0.148  0.4820 -0.6123  0.3334
 6617TIP3    H141410   1.137   5.708   0.101  1.2916  1.0883  0.3525
 6617TIP3    H241411   1.087   5.830   0.176 -1.5847  0.1186  0.1227
 6618TIP3   OH241412   5.915   3.228   8.618 -0.6501  0.1320 -0.2617
 6618TIP3    H141413   5.848   3.231   8.550 -1.1355  0.9370  0.2275
 6618TIP3    H241414   5.914   3.316   8.657 -1.6722 -0.7785  1.9802
 6619TIP3   OH241415   1.539   3.018   2.174 -0.5338 -0.4337  0.2333
 6619TIP3    H141416   1.444   3.021   2.185 -0.5592 -2.0388  0.7350
 6619TIP3    H241417   1.565   2.933   2.210  1.0447 -0.2185 -0.2976
 6620TIP3   OH241418   0.553   3.321   7.892  0.3670 -0.1885  0.3896
 6620TIP3    H141419   0.511   3.252   7.841 -0.4754 -0.8833  1.9873
 6620TIP3    H241420   0.480   3.376   7.922  0.8481  0.1490  0.9433
 6621TIP3   OH241421   1.533   5.355   7.473  0.1926 -0.0916  0.4855
 6621TIP3    H141422   1.459   5.410   7.499  0.2700  0.5153 -0.5418
 6621TIP3    H241423   1.537   5.287   7.541 -0.8667  0.2736  0.9352
 6622TIP3   OH241424   1.638   2.099   1.109  0.4689 -0.1538  0.6132
 6622TIP3    H141425   1.564   2.039   1.124  1.5073 -1.4306  0.7779
 6622TIP3    H241426   1.665   2.082   1.019  1.3101 -0.5535  0.9359
 6623TIP3   OH241427   2.325   5.572   0.776 -0.8351 -0.1695  0.2315
 6623TIP3    H141428   2.330   5.494   0.832 -1.1740 -1.4799 -1.4718
 6623TIP3    H241429   2.392   5.557   0.709  0.6366  2.0842  1.0680
 6624TIP3   OH241430   6.725   1.935   8.646  0.0995 -0.0750  0.9856
 6624TIP3    H141431   6.702   1.939   8.739 -0.8614  0.1270  0.7450
 6624TIP3    H241432   6.804   1.881   8.644  0.6306  0.6080  2.0073
 6625TIP3   OH241433   4.868   0.245   0.395 -0.2723  0.3535 -0.5033
 6625TIP3    H141434   4.830   0.208   0.315 -1.3073 -0.5182  0.3539
 6625TIP3    H241435   4.822   0.200   0.466  1.6251  0.0500  0.5999
 6626TIP3   OH241436   3.190   3.497   7.427  0.2406  0.0682  0.1455
 6626TIP3    H141437   3.104   3.527   7.401  0.5029  2.8250  2.1094
 6626TIP3    H241438   3.186   3.490   7.522  0.7646 -4.8043  0.0857
 6627TIP3   OH241439   6.044   6.421   1.096 -0.3963  0.2673  0.5232
 6627TIP3    H141440   5.951   6.404   1.111 -0.2068 -0.8640  0.5483
 6627TIP3    H241441   6.047   6.509   1.059 -1.4748  0.3192  0.5222
 6628TIP3   OH241442   2.823   2.890   1.598  0.2661 -0.3419 -0.0133
 6628TIP3    H141443   2.812   2.918   1.507 -0.0433 -0.4524 -0.0121
 6628TIP3    H241444   2.764   2.815   1.607  0.1700 -0.2276  0.3232
 6629TIP3   OH241445   4.262   1.223   0.955  0.1349  0.0568 -0.1018
 6629TIP3    H141446   4.340   1.255   1.001  0.1386  1.1865 -0.8393
 6629TIP3    H241447   4.200   1.295   0.960  0.7568  0.9896 -3.3022
 6630TIP3   OH241448   5.406   0.659   0.404  0.1125 -0.2326 -0.7289
 6630TIP3    H141449   5.392   0.566   0.420  1.0797 -0.2474  0.1353
 6630TIP3    H241450   5.340   0.683   0.339 -2.4864 -0.6957  1.6019
 6631TIP3   OH241451   3.739   0.008   8.416  0.3831 -0.2120 -0.4444
 6631TIP3    H141452   3.781  -0.072   8.384 -0.8451 -0.4766 -1.5190
 6631TIP3    H241453   3.742   0.068   8.342 -0.2576  0.0987 -0.2256
 6632TIP3   OH241454   0.599   0.637   0.204 -0.7223 -0.1265  0.3376
 6632TIP3    H141455   0.580   0.717   0.156 -3.0003 -0.8369 -0.0972
 6632TIP3    H241456   0.540   0.572   0.166  1.8281 -2.3543 -0.1181
 6633TIP3   OH241457   3.037   6.262   6.871 -0.2706 -0.0191  0.1320
 6633TIP3    H141458   3.011   6.252   6.779  0.5293  0.9010 -0.2115
 6633TIP3    H241459   2.960   6.234   6.921 -0.4671 -1.2317 -0.7925
 6634TIP3   OH241460   5.687   1.148   1.573  0.2257 -0.3829 -0.2888
 6634TIP3    H141461   5.684   1.207   1.648  0.6047 -0.3006 -0.3353
 6634TIP3    H241462   5.699   1.061   1.611  1.9552 -0.1799 -0.2984
 6635TIP3   OH241463   3.330   5.515   6.238 -0.2391 -0.1807  0.2593
 6635TIP3    H141464   3.398   5.463   6.196  2.4264  0.7969  3.0394
 6635TIP3    H241465   3.249   5.466   6.221  1.6414 -3.4863 -0.0396
 6636TIP3   OH241466   4.276   5.986   6.569 -0.3636  0.3212  0.2514
 6636TIP3    H141467   4.192   5.967   6.611  0.6157  1.0268  2.7244
 6636TIP3    H241468   4.337   5.923   6.609  0.4509  0.3281 -0.9377
 6637TIP3   OH241469   4.412   1.951   0.315  0.7236 -0.5248 -0.2760
 6637TIP3    H141470   4.390   2.044   0.309 -0.1783 -0.5883  1.4608
 6637TIP3    H241471   4.478   1.938   0.247  2.3513  1.8377  0.6987
 6638TIP3   OH241472   4.107   2.263   8.030 -0.2615  0.3113 -0.3085
 6638TIP3    H141473   4.176   2.327   8.042  1.0977 -0.9199 -1.2804
 6638TIP3    H241474   4.037   2.311   7.985  0.2323  1.3920  0.0459
 6639TIP3   OH241475   3.466   6.567   0.260 -0.2886 -0.3365 -0.2651
 6639TIP3    H141476   3.446   6.529   0.346 -0.4427 -0.5640 -0.4031
 6639TIP3    H241477   3.546   6.523   0.232 -1.0933 -1.4136 -0.9486
 6640TIP3   OH241478   5.677   4.845   0.337 -0.3813  0.6499 -0.3963
 6640TIP3    H141479   5.735   4.863   0.410  0.4052  0.2312 -0.8995
 6640TIP3    H241480   5.729   4.866   0.259 -1.6369  2.3637 -0.8254
 6641TIP3   OH241481   4.455   1.986   7.808 -0.0107 -0.1800  0.3171
 6641TIP3    H141482   4.421   2.075   7.814 -0.5798 -0.4711  1.7548
 6641TIP3    H241483   4.501   1.972   7.891 -0.8221 -1.5771  0.5601
 6642TIP3   OH241484   3.014   4.950   7.205 -0.3421 -0.3277  0.2506
 6642TIP3    H141485   2.951   4.895   7.158 -2.3207  3.2554 -1.7451
 6642TIP3    H241486   2.965   4.985   7.279  0.1793  0.4424  0.2356
 6643TIP3   OH241487   4.178   4.664   1.851 -0.5550 -0.1578  0.3419
 6643TIP3    H141488   4.083   4.656   1.860 -0.5139  0.0213  0.9905
 6643TIP3    H241489   4.212   4.642   1.938 -0.1603  2.2047  0.8562
 6644TIP3   OH241490   6.188   2.163   1.397  0.5962 -0.0619 -0.3802
 6644TIP3    H141491   6.234   2.079   1.408  0.0443 -0.2199  0.9692
 6644TIP3    H241492   6.258   2.228   1.390  1.0332 -0.4747  0.0600
 6645TIP3   OH241493   5.769   5.877   1.734 -0.0410  0.6900  0.3808
 6645TIP3    H141494   5.783   5.889   1.828 -0.4148  0.9795  0.4062
 6645TIP3    H241495   5.855   5.859   1.699 -0.0306 -0.4320  0.9246
 6646TIP3   OH241496   1.407   2.356   1.313 -0.0036 -0.4538 -0.0413
 6646TIP3    H141497   1.467   2.429   1.332  0.0797 -0.3583 -0.6463
 6646TIP3    H241498   1.398   2.357   1.218 -2.2086  0.5314  0.1106
 6647TIP3   OH241499   6.678   0.532   0.755 -0.4455  0.1950  0.1735
 6647TIP3    H141500   6.746   0.465   0.762 -0.7950 -0.1068  0.8435
 6647TIP3    H241501   6.725   0.614   0.741 -0.0577 -0.3792 -2.3578
 6648TIP3   OH241502   5.383   5.509   1.194  0.2434  0.5481  0.2873
 6648TIP3    H141503   5.448   5.578   1.205  1.7768 -0.8961  0.8222
 6648TIP3    H241504   5.307   5.539   1.243  1.6436  0.9317  2.3590
 6649TIP3   OH241505   5.594   2.684   7.832 -0.5707  0.2584  0.0317
 6649TIP3    H141506   5.528   2.753   7.834 -0.4047  0.4954 -1.4403
 6649TIP3    H241507   5.573   2.634   7.753 -0.7450 -1.4480  1.1229
 6650TIP3   OH241508   5.354   3.187   7.877  0.5216  0.1174  0.1423
 6650TIP3    H141509   5.271   3.141   7.864  1.1771 -0.9279 -0.4536
 6650TIP3    H241510   5.331   3.280   7.870 -0.6892 -0.1346  0.5688
 6651TIP3   OH241511   6.373   5.772   0.830 -0.0461  0.0191 -0.4027
 6651TIP3    H141512   6.443   5.771   0.895 -1.3213  0.2268  1.0164
 6651TIP3    H241513   6.418   5.765   0.746  1.6077 -0.8633  0.5179
 6652TIP3   OH241514   3.789   2.752   0.850 -0.3687 -0.2536 -0.7904
 6652TIP3    H141515   3.810   2.695   0.776 -2.4715 -1.2556 -0.6957
 6652TIP3    H241516   3.700   2.726   0.875 -0.2369  1.0326  1.1945
 6653TIP3   OH241517   0.075   3.833   0.018  0.2051 -0.0077 -0.3661
 6653TIP3    H141518   0.090   3.742  -0.008 -0.8768  0.0356 -1.2202
 6653TIP3    H241519   0.114   3.884  -0.052  0.1217  0.1694 -0.2829
 6654TIP3   OH241520   0.564   3.140   8.704 -0.0038  0.1871  0.4807
 6654TIP3    H141521   0.522   3.096   8.630 -0.0186  0.4934  0.3083
 6654TIP3    H241522   0.518   3.106   8.781 -0.1088  0.0052  0.3409
 6655TIP3   OH241523   5.888   5.793   6.983  0.1650  0.0462  0.0853
 6655TIP3    H141524   5.904   5.852   6.909  0.6229 -0.2063 -0.0236
 6655TIP3    H241525   5.825   5.840   7.038  0.6610  0.7249  0.0928
 6656TIP3   OH241526   5.026   1.453   0.829 -0.6309  0.2401  0.2749
 6656TIP3    H141527   4.970   1.432   0.754  1.6657 -0.6165 -1.3157
 6656TIP3    H241528   5.069   1.370   0.851  1.6645  1.2304 -0.0970
 6657TIP3   OH241529   1.761   0.093   2.402  0.1941 -0.6720 -0.1925
 6657TIP3    H141530   1.672   0.070   2.376 -0.9135  0.3317  2.3834
 6657TIP3    H241531   1.751   0.132   2.489  3.0728  0.2323 -0.1734
 6658TIP3   OH241532   6.449   3.557   2.169  0.1044  0.5282  0.2478
 6658TIP3    H141533   6.397   3.526   2.095  0.7728 -0.7326  0.2801
 6658TIP3    H241534   6.391   3.617   2.216 -1.2389 -0.6552  0.1513
 6659TIP3   OH241535   3.317   5.299   1.828 -0.3183 -0.0090  0.0056
 6659TIP3    H141536   3.369   5.316   1.749  1.4228  4.0431  1.7256
 6659TIP3    H241537   3.383   5.291   1.897 -1.8848  0.0141  1.5413
 6660TIP3   OH241538   1.999   4.636   1.880  0.5940  0.7454  0.2432
 6660TIP3    H141539   2.032   4.715   1.838 -0.2545  1.2135  0.4373
 6660TIP3    H241540   1.911   4.659   1.908 -0.3101 -0.7923 -1.1874
 6661TIP3   OH241541   5.857   2.822   0.415 -0.2930  0.0027 -0.5120
 6661TIP3    H141542   5.868   2.870   0.497 -0.2181 -1.0631  0.1216
 6661TIP3    H241543   5.860   2.730   0.441  2.9858 -0.4681 -2.0951
 6662TIP3   OH241544   2.563   6.448   0.284 -0.4818 -0.0216  0.2503
 6662TIP3    H141545   2.637   6.439   0.224  0.1047 -1.7986  1.1740
 6662TIP3    H241546   2.601   6.479   0.365 -0.9986  0.6266  0.2500
 6663TIP3   OH241547   5.134   1.696   1.436  0.2643  0.1647  0.2818
 6663TIP3    H141548   5.186   1.714   1.358  1.8896  2.4937  1.7889
 6663TIP3    H241549   5.190   1.640   1.490 -0.2426 -0.2065  0.4302
 6664TIP3   OH241550   0.516   3.862   2.350  0.0274  0.0625  0.5249
 6664TIP3    H141551   0.513   3.903   2.436 -1.0045 -1.9855  1.5322
 6664TIP3    H241552   0.569   3.784   2.363 -0.4315 -0.4600 -0.6174
 6665TIP3   OH241553   2.633   6.777   8.385 -0.1387  0.2869  0.4122
 6665TIP3    H141554   2.542   6.803   8.373 -0.1950 -0.2545 -0.4466
 6665TIP3    H241555   2.677   6.806   8.305  0.7668  1.8136  1.4056
 6666TIP3   OH241556   6.086   5.987   7.368 -0.1611 -0.7245  0.4511
 6666TIP3    H141557   6.114   5.897   7.353  0.2945 -0.3779 -0.8630
 6666TIP3    H241558   6.001   5.994   7.324  1.0584  0.2221 -1.8843
 6667TIP3   OH241559   4.403   5.292   0.714  0.4313 -0.0041 -0.1546
 6667TIP3    H141560   4.450   5.318   0.793 -0.2700  0.7363  0.0277
 6667TIP3    H241561   4.413   5.197   0.711  1.7862  0.1174 -0.0356
 6668TIP3   OH241562   0.921   2.169   6.620  0.3808  0.0784 -0.0351
 6668TIP3    H141563   0.872   2.092   6.593 -0.4133  0.6988 -0.4134
 6668TIP3    H241564   1.013   2.142   6.614  0.1702 -0.4276 -1.4951
 6669TIP3   OH241565   4.157   2.803   8.718  0.1914 -0.5476  0.2981
 6669TIP3    H141566   4.179   2.745   8.646  0.5744 -0.2710  0.1908
 6669TIP3    H241567   4.241   2.836   8.750  0.0128 -0.5131  0.7399
 6670TIP3   OH241568   2.604   3.117   6.629  0.0590 -0.0044  0.0211
 6670TIP3    H141569   2.543   3.092   6.560  0.6074 -0.4182 -0.3174
 6670TIP3    H241570   2.686   3.073   6.606  0.7775  1.3235 -0.0743
 6671TIP3   OH241571   0.115   4.654   7.544 -0.4043  0.2674 -0.0251
 6671TIP3    H141572   0.165   4.704   7.607  0.2969  0.7331 -0.9252
 6671TIP3    H241573   0.134   4.695   7.460 -3.4085  1.3919 -0.2704
 6672TIP3   OH241574   5.078   1.956   7.327 -0.0404 -0.6760  0.2906
 6672TIP3    H141575   5.160   1.991   7.292 -0.2155  1.1442  1.5421
 6672TIP3    H241576   5.105   1.895   7.395  0.3595  1.0225  1.7404
 6673TIP3   OH241577   6.726   2.006   1.634  0.2852  0.5099  0.2354
 6673TIP3    H141578   6.682   1.939   1.581 -1.0769  1.2495  0.3818
 6673TIP3    H241579   6.804   2.030   1.583  1.2024 -1.6599  0.5144
 6674TIP3   OH241580   0.932   0.756   0.430 -0.3650 -0.1922 -0.4597
 6674TIP3    H141581   1.006   0.703   0.460 -1.2759 -0.7176  0.9464
 6674TIP3    H241582   0.931   0.832   0.488  1.1279  1.6488 -2.6560
 6675TIP3   OH241583   3.488   5.385   0.212  0.0650  0.1739  0.2578
 6675TIP3    H141584   3.468   5.475   0.187  1.4666  0.0629 -1.4650
 6675TIP3    H241585   3.494   5.388   0.308 -1.9363  1.4310  0.4086
 6676TIP3   OH241586   0.102   2.571   8.466 -0.1754  0.0395 -0.3063
 6676TIP3    H141587   0.032   2.518   8.428  1.2740 -1.0575 -1.6362
 6676TIP3    H241588   0.063   2.612   8.543 -2.0406 -1.0988 -0.5796
 6677TIP3   OH241589   0.485   1.508   1.259  0.3305  0.2610  0.0728
 6677TIP3    H141590   0.522   1.561   1.189  0.4026 -0.1164 -0.1760
 6677TIP3    H241591   0.545   1.435   1.269 -0.6465 -0.7050 -0.7749
 6678TIP3   OH241592   4.332   2.436   8.065  0.0571  0.2700  0.2450
 6678TIP3    H141593   4.412   2.387   8.049  0.6369  1.5162 -0.8970
 6678TIP3    H241594   4.332   2.452   8.159 -1.7254 -4.4302  1.3300
 6679TIP3   OH241595   5.872   4.059   7.966 -1.0570 -0.4806 -0.4110
 6679TIP3    H141596   5.880   4.131   8.029  1.3638 -0.2169 -0.9284
 6679TIP3    H241597   5.863   3.981   8.020  0.9020 -0.2498  0.3426
 6680TIP3   OH241598   1.415   6.097   1.874 -0.3112  0.4581  0.0988
 6680TIP3    H141599   1.407   6.192   1.881 -0.9473  0.4251 -0.0659
 6680TIP3    H241600   1.502   6.077   1.908  0.2652  1.2075 -0.8793
 6681TIP3   OH241601   2.455   2.038   8.588  0.1035  0.0986  0.1040
 6681TIP3    H141602   2.489   2.123   8.615 -0.6342  0.0861  1.1106
 6681TIP3    H241603   2.472   1.980   8.663  0.4680 -0.6171 -0.5116
 6682TIP3   OH241604   1.199   0.718   0.764 -0.2488  0.3793 -0.0145
 6682TIP3    H141605   1.199   0.623   0.775  0.0489  0.4637  0.8216
 6682TIP3    H241606   1.211   0.732   0.670  1.1006 -0.3974  0.0213
 6683TIP3   OH241607   1.548   1.722   1.617 -0.4440  0.5121 -0.7075
 6683TIP3    H141608   1.597   1.804   1.620 -1.2100  1.0313 -1.7307
 6683TIP3    H241609   1.499   1.721   1.699  0.9540  0.1666  0.1545
 6684TIP3   OH241610   2.180   0.181   1.804 -0.7205 -0.0394 -0.4237
 6684TIP3    H141611   2.114   0.112   1.813 -2.6740  1.9682  1.9326
 6684TIP3    H241612   2.263   0.133   1.796 -1.9585 -2.6832  1.0518
 6685TIP3   OH241613   5.205   6.561   7.957  0.5763 -0.7797  0.0372
 6685TIP3    H141614   5.255   6.481   7.946  0.4795 -1.1316  1.7782
 6685TIP3    H241615   5.212   6.581   8.051 -1.7068 -0.3053  0.1719
 6686TIP3   OH241616   2.344   6.586   0.603 -0.1993 -0.0654  0.1808
 6686TIP3    H141617   2.365   6.548   0.518 -0.7983  0.6733 -0.3139
 6686TIP3    H241618   2.427   6.583   0.651  0.5456  0.8828 -0.9775
 6687TIP3   OH241619   1.580   4.605   7.756  0.3497  0.1366 -0.4608
 6687TIP3    H141620   1.667   4.638   7.735 -0.3240  1.8848 -0.6972
 6687TIP3    H241621   1.560   4.643   7.842  0.1269 -0.8940 -0.0441
 6688TIP3   OH241622   5.074   2.332   0.210  0.4395 -0.5406 -0.2089
 6688TIP3    H141623   5.106   2.270   0.276 -1.1886 -2.2902 -0.9719
 6688TIP3    H241624   5.153   2.358   0.161  1.2759 -1.3038  0.6895
 6689TIP3   OH241625   2.471   3.163   7.300  0.9752 -0.5462  0.1520
 6689TIP3    H141626   2.480   3.174   7.205  2.3989  1.2026  0.4405
 6689TIP3    H241627   2.559   3.141   7.331  0.6936 -0.3343  1.1475
 6690TIP3   OH241628   6.000   6.534   8.748  0.2572  0.5072 -0.3724
 6690TIP3    H141629   6.004   6.625   8.721  1.2176  0.9700  1.2041
 6690TIP3    H241630   5.937   6.533   8.821  0.4035 -0.0495 -0.2490
 6691TIP3   OH241631   3.423   4.617   0.923 -0.0007 -0.3765  0.2455
 6691TIP3    H141632   3.383   4.537   0.888 -1.4810 -0.0202  1.0246
 6691TIP3    H241633   3.370   4.688   0.886 -0.2953  0.0966  1.5212
 6692TIP3   OH241634   5.110   5.308   0.518  0.4873 -0.0835 -0.1523
 6692TIP3    H141635   5.119   5.319   0.613  2.0835  1.4768 -0.4444
 6692TIP3    H241636   5.085   5.395   0.486 -0.9017 -0.7923 -1.1062
 6693TIP3   OH241637   4.258   3.938   6.869 -0.1190  0.3725  0.1175
 6693TIP3    H141638   4.338   3.911   6.825  1.0664 -0.1283  2.4400
 6693TIP3    H241639   4.227   3.859   6.913  0.1131  1.3460  2.1446
 6694TIP3   OH241640   6.441   0.979   0.263 -0.6654 -0.1447 -0.1457
 6694TIP3    H141641   6.395   0.972   0.347  1.7843 -1.9883  1.1812
 6694TIP3    H241642   6.394   1.048   0.215 -2.3529  0.7494  2.5760
 6695TIP3   OH241643   5.200   2.317   0.965 -0.2396 -0.8150 -0.4535
 6695TIP3    H141644   5.116   2.354   0.941  1.1572  2.2971 -0.9734
 6695TIP3    H241645   5.223   2.260   0.892 -0.9128  0.0142 -1.3334
 6696TIP3   OH241646   0.052   3.298   1.645 -0.3318  0.1902  0.6405
 6696TIP3    H141647   0.127   3.292   1.703  1.0178 -1.3376 -1.1599
 6696TIP3    H241648   0.033   3.392   1.641  1.9729  0.7151  0.5698
 6697TIP3   OH241649   5.271   3.661   1.632  0.1892  0.6418  0.5411
 6697TIP3    H141650   5.217   3.593   1.591  0.8782  0.3366  0.1207
 6697TIP3    H241651   5.358   3.623   1.637  0.3866  1.1594  1.1468
 6698TIP3   OH241652   1.221   5.259   7.017 -0.2313  0.1742 -0.5517
 6698TIP3    H141653   1.265   5.214   6.945  0.3925  0.0031 -0.0660
 6698TIP3    H241654   1.260   5.346   7.020 -0.5341  0.3169 -0.6657
 6699TIP3   OH241655   1.426   5.102   0.084  0.2398 -0.4044  0.3274
 6699TIP3    H141656   1.361   5.092   0.015  0.1928  0.9512  0.1480
 6699TIP3    H241657   1.385   5.158   0.149  0.9644 -0.1003  0.5400
 6700TIP3   OH241658   5.623   4.338   0.734  0.0638 -0.6179 -0.0221
 6700TIP3    H141659   5.688   4.320   0.802 -0.2225 -1.8019 -0.0447
 6700TIP3    H241660   5.663   4.307   0.653  0.2058  0.3412 -0.3254
 6701TIP3   OH241661   1.566   2.413   8.268 -0.1144  0.2349 -0.0206
 6701TIP3    H141662   1.506   2.339   8.284 -2.0002  1.6221 -0.3522
 6701TIP3    H241663   1.509   2.489   8.261  1.6668  1.5472 -1.0479
 6702TIP3   OH241664   5.130   4.227   0.245 -0.3893 -0.0672  0.6969
 6702TIP3    H141665   5.212   4.249   0.201 -0.2787  1.1564  1.4851
 6702TIP3    H241666   5.139   4.134   0.266  1.3069  0.2948  1.7925
 6703TIP3   OH241667   1.072   5.614   7.353 -0.4296  0.2132 -0.3198
 6703TIP3    H141668   1.026   5.551   7.298 -1.1694  2.0290 -1.8859
 6703TIP3    H241669   1.003   5.658   7.402  0.0775 -0.1372  0.7315
 6704TIP3   OH241670   2.652   4.042   7.725  0.0071  0.0562  0.1993
 6704TIP3    H141671   2.733   3.995   7.703 -0.2296  0.8415 -2.8526
 6704TIP3    H241672   2.682   4.123   7.765  0.6622 -0.3427  0.5349
 6705TIP3   OH241673   3.560   2.005   0.082 -0.2847  0.3289  0.3749
 6705TIP3    H141674   3.649   2.014   0.114  0.1539 -0.6249 -0.4787
 6705TIP3    H241675   3.539   2.090   0.043  1.3221 -0.1975 -1.8914
 6706TIP3   OH241676   0.521   1.611   7.138  0.2696 -0.5606 -0.5095
 6706TIP3    H141677   0.552   1.701   7.130  0.7318 -0.5703  0.9045
 6706TIP3    H241678   0.558   1.565   7.063  3.6767 -0.5589  1.0054
 6707TIP3   OH241679   1.806   0.935   7.136  0.0469 -0.1446 -0.4682
 6707TIP3    H141680   1.818   1.011   7.192 -0.7106 -0.6113  0.3417
 6707TIP3    H241681   1.873   0.873   7.164  0.5644  0.1443 -1.0262
 6708TIP3   OH241682   5.681   2.205   2.311  0.1678 -0.5685 -0.4875
 6708TIP3    H141683   5.649   2.289   2.344  2.0515  0.1047 -0.2269
 6708TIP3    H241684   5.686   2.149   2.389  3.1936  0.5556  0.2536
 6709TIP3   OH241685   2.699   0.430   1.987 -0.1655 -0.3224 -0.0879
 6709TIP3    H141686   2.734   0.519   1.991  2.1775 -1.1357 -0.8498
 6709TIP3    H241687   2.705   0.406   1.895 -1.4469 -1.0631 -0.0092
 6710TIP3   OH241688   1.624   4.432   8.820  0.0101  0.2911  0.0246
 6710TIP3    H141689   1.665   4.425   8.906 -1.1547 -1.9283  0.4747
 6710TIP3    H241690   1.579   4.517   8.821  2.9162  1.9420  0.1891
 6711TIP3   OH241691   5.628   0.760   8.766  0.4337 -0.1262 -0.0437
 6711TIP3    H141692   5.673   0.680   8.740 -0.2233 -0.4520 -0.1907
 6711TIP3    H241693   5.536   0.738   8.764  0.2395  0.6471 -0.1119
 6712TIP3   OH241694   4.093   2.778   1.731 -0.3569  0.5431 -0.5562
 6712TIP3    H141695   4.189   2.784   1.734 -0.4298  2.6826 -1.0698
 6712TIP3    H241696   4.075   2.684   1.727  1.7475  0.1155 -1.1897
 6713TIP3   OH241697   3.644   1.498   0.806 -0.1366 -0.0517 -0.3618
 6713TIP3    H141698   3.552   1.507   0.831  0.6480  2.5951  2.2083
 6713TIP3    H241699   3.663   1.405   0.816 -2.4830 -0.6647 -0.9473
 6714TIP3   OH241700   3.365   1.520   1.416  0.1204  0.1944  0.0768
 6714TIP3    H141701   3.362   1.613   1.440 -0.6925 -0.2649  1.8842
 6714TIP3    H241702   3.298   1.479   1.470  1.1529 -1.6181  0.0448
 6715TIP3   OH241703   0.283   5.133   8.719 -0.3472  0.1570 -0.5505
 6715TIP3    H141704   0.317   5.044   8.725 -0.3092  0.1801 -0.4194
 6715TIP3    H241705   0.350   5.187   8.761 -1.2968  0.0228  1.2567
 6716TIP3   OH241706   0.333   1.605   1.673  0.4126  0.0885 -0.9465
 6716TIP3    H141707   0.321   1.519   1.715 -3.0131  1.5064  1.4466
 6716TIP3    H241708   0.258   1.613   1.614 -0.2990  2.0588  0.1522
 6717TIP3   OH241709   3.369   3.501   0.054  0.5286 -0.3386  0.5793
 6717TIP3    H141710   3.400   3.528   0.140 -0.9092  0.4551  0.8731
 6717TIP3    H241711   3.308   3.430   0.072  0.5114 -0.4263  0.1776
 6718TIP3   OH241712   5.399   0.399   0.131  0.3476  0.4806 -0.0286
 6718TIP3    H141713   5.422   0.309   0.107  1.7532  1.5052 -3.0235
 6718TIP3    H241714   5.333   0.390   0.200  0.0047 -2.8261 -0.6448
 6719TIP3   OH241715   6.367   5.607   0.422 -0.3262  0.0290 -0.5057
 6719TIP3    H141716   6.317   5.558   0.357 -2.0847  0.0892  0.7069
 6719TIP3    H241717   6.301   5.658   0.469  0.9760  0.5776  0.8084
 6720TIP3   OH241718   1.904   5.980   0.446 -0.5188 -0.1146  0.4473
 6720TIP3    H141719   1.989   6.016   0.422 -1.3199  0.3884 -1.9263
 6720TIP3    H241720   1.877   6.029   0.523  0.8897  0.3960  0.6367
 6721TIP3   OH241721   2.108   5.904   7.388 -0.1227  0.2465  0.1659
 6721TIP3    H141722   2.166   5.963   7.340 -0.4659  0.0915 -0.4499
 6721TIP3    H241723   2.090   5.833   7.326  2.9902 -2.3619  1.9189
 6722TIP3   OH241724   6.532   4.030   7.633 -0.2669 -0.2197 -0.0388
 6722TIP3    H141725   6.612   4.038   7.581  0.5377 -0.9164  1.0441
 6722TIP3    H241726   6.463   4.067   7.577  0.5637 -0.8760 -1.5489
 6723TIP3   OH241727   5.329   3.240   7.009  0.3579 -0.0339 -0.3245
 6723TIP3    H141728   5.266   3.287   6.955  0.6128  1.0522  0.2816
 6723TIP3    H241729   5.337   3.293   7.089  1.9025 -0.2087 -0.3187
 6724TIP3   OH241730   2.778   3.292   8.509 -1.1254  0.0797 -0.2769
 6724TIP3    H141731   2.837   3.239   8.562 -0.6526  3.4066  2.9146
 6724TIP3    H241732   2.690   3.264   8.536 -0.9729 -1.1554 -0.9957
 6725TIP3   OH241733   5.348   0.649   8.336 -0.4015  0.1677  0.6481
 6725TIP3    H141734   5.280   0.713   8.359 -2.0552 -0.5058 -1.9009
 6725TIP3    H241735   5.372   0.672   8.246  1.7900 -0.4772  1.0269
 6726TIP3   OH241736   0.736   2.033   7.431  0.1147  0.0875  0.1128
 6726TIP3    H141737   0.778   2.078   7.358 -2.1639  2.7330  0.2714
 6726TIP3    H241738   0.750   2.090   7.506 -1.6462 -0.1346  0.6588
 6727TIP3   OH241739   1.762   2.253   1.284  0.0301 -0.2406  0.1568
 6727TIP3    H141740   1.728   2.192   1.218  0.1074  0.7266 -0.8147
 6727TIP3    H241741   1.687   2.307   1.307  0.2945  0.2561 -0.1124
 6728TIP3   OH241742   2.148   3.059   0.098 -0.1843 -0.1936  0.3924
 6728TIP3    H141743   2.164   3.152   0.113  2.3155 -0.3243 -0.9394
 6728TIP3    H241744   2.073   3.057   0.039  0.8723  1.1464 -1.1064
 6729TIP3   OH241745   3.278   5.602   0.561 -0.4078  0.1823 -0.2539
 6729TIP3    H141746   3.317   5.618   0.646 -2.9066  1.9779  0.7027
 6729TIP3    H241747   3.312   5.671   0.505 -1.8746  1.5946  0.5095
 6730TIP3   OH241748   1.904   3.477   0.434  0.3508  0.4036 -0.3175
 6730TIP3    H141749   1.926   3.564   0.466 -0.9799  0.8830 -0.6458
 6730TIP3    H241750   1.892   3.425   0.514 -1.0421  1.0966 -0.0555
 6731TIP3   OH241751   3.172   5.225   2.081 -0.7416 -0.7044  0.1386
 6731TIP3    H141752   3.227   5.246   2.006  0.2390 -0.7532  0.8294
 6731TIP3    H241753   3.082   5.241   2.051 -0.2659  0.7619 -0.5561
 6732TIP3   OH241754   3.596   0.492   8.138  0.2380  0.0430  0.1183
 6732TIP3    H141755   3.653   0.558   8.176  1.5225 -0.1816 -1.3007
 6732TIP3    H241756   3.638   0.408   8.161  0.9728 -0.1019 -1.5554
 6733TIP3   OH241757   4.794   1.418   6.310 -0.1298 -0.1774  0.3973
 6733TIP3    H141758   4.726   1.380   6.254  0.4604  0.5958 -0.8861
 6733TIP3    H241759   4.874   1.412   6.259  1.0542 -2.0742  2.3218
 6734TIP3   OH241760   0.466   1.634   7.800  0.2407 -0.0754  0.5099
 6734TIP3    H141761   0.530   1.649   7.869 -1.3073  1.1507  1.7659
 6734TIP3    H241762   0.404   1.571   7.839 -0.2359  0.0438 -0.0401
 6735TIP3   OH241763   1.056   3.956   6.644  0.0567  0.6266 -0.2497
 6735TIP3    H141764   1.027   3.925   6.559  1.6961 -1.6758 -0.0458
 6735TIP3    H241765   1.137   4.004   6.627 -1.2624  3.0405 -0.2758
 6736TIP3   OH241766   4.149   1.840   7.478  0.0279 -0.5847  0.2555
 6736TIP3    H141767   4.146   1.916   7.535 -1.4772 -0.4897  0.0763
 6736TIP3    H241768   4.242   1.816   7.475  0.3034  0.2294  1.6240
 6737TIP3   OH241769   1.692   4.353   7.395  0.2347 -0.5403  0.6206
 6737TIP3    H141770   1.780   4.388   7.380 -0.2839  1.5297  1.9908
 6737TIP3    H241771   1.689   4.336   7.489 -0.8488 -0.5292  0.5981
 6738TIP3   OH241772   5.797   1.493   1.441  0.1049  0.0552 -0.1780
 6738TIP3    H141773   5.797   1.440   1.361  1.4413 -0.8903  0.4141
 6738TIP3    H241774   5.817   1.430   1.511  2.9912  1.4638  0.4224
 6739TIP3   OH241775   1.384   5.923   7.322  0.1958  0.4468 -0.0494
 6739TIP3    H141776   1.402   6.016   7.338  0.5048  0.4768 -0.5520
 6739TIP3    H241777   1.334   5.895   7.399 -0.6329  1.2382 -0.2791
 6740TIP3   OH241778   1.838   1.777   7.839  0.3529  0.0191  0.2840
 6740TIP3    H141779   1.744   1.771   7.858  0.0757  1.9086 -0.2002
 6740TIP3    H241780   1.863   1.689   7.812 -1.1822 -0.6219  0.8336
 6741TIP3   OH241781   0.273   4.326   6.902  0.2225  0.0655 -0.3116
 6741TIP3    H141782   0.344   4.365   6.852 -0.3222  0.4427 -0.8045
 6741TIP3    H241783   0.193   4.352   6.856 -0.2393 -0.3676  0.2161
 6742TIP3   OH241784   0.010   2.428   1.094  0.2221 -0.5522 -0.0792
 6742TIP3    H141785  -0.004   2.449   1.186 -1.8116 -1.8387 -0.0527
 6742TIP3    H241786   0.071   2.354   1.095 -0.5898 -1.2297  0.3068
 6743TIP3   OH241787   5.428   6.662   0.723 -0.7775 -0.5650  0.2385
 6743TIP3    H141788   5.399   6.705   0.804  0.3045  4.5901 -1.7063
 6743TIP3    H241789   5.523   6.665   0.727 -0.6925 -1.4847 -0.7212
 6744TIP3   OH241790   5.987   0.571   7.665 -0.2536 -0.6204  0.3328
 6744TIP3    H141791   5.957   0.551   7.576 -0.6778 -2.5076  0.8534
 6744TIP3    H241792   6.081   0.589   7.655  0.2767 -3.2433 -0.2525
 6745TIP3   OH241793   1.009   5.902   8.318 -0.5933  0.3317 -0.6072
 6745TIP3    H141794   1.051   5.817   8.330  2.0350  1.5521 -0.4503
 6745TIP3    H241795   0.918   5.887   8.342  0.4324 -1.7199  2.7651
 6746TIP3   OH241796   1.044   0.488   8.353 -0.4524 -0.5375 -0.4595
 6746TIP3    H141797   1.029   0.539   8.432 -2.0041  0.4721 -1.3416
 6746TIP3    H241798   1.068   0.401   8.384 -0.5353 -0.0280  1.1022
 6747TIP3   OH241799   3.234   4.730   8.634  0.6234 -0.3628  0.1384
 6747TIP3    H141800   3.312   4.736   8.689  0.6462 -0.2222  0.0909
 6747TIP3    H241801   3.208   4.821   8.620  0.6584 -0.3955 -0.1432
 6748TIP3   OH241802   4.243   4.149   7.871 -0.3374 -0.0090  0.2793
 6748TIP3    H141803   4.231   4.198   7.790  0.5477 -1.2791 -0.6663
 6748TIP3    H241804   4.155   4.119   7.895 -0.6300  0.5335 -0.1022
 6749TIP3   OH241805   4.665   2.614   8.239  0.3045 -0.0778 -0.3531
 6749TIP3    H141806   4.683   2.671   8.314 -1.5732 -0.1320  0.1967
 6749TIP3    H241807   4.689   2.666   8.162  1.5380  0.2640  0.2426
 6750TIP3   OH241808   6.492   0.942   8.114  0.9237  0.1662 -0.1446
 6750TIP3    H141809   6.467   1.034   8.126  1.8509  0.4218 -0.0684
 6750TIP3    H241810   6.577   0.946   8.070  1.5213 -0.6331  0.8930
 6751TIP3   OH241811   3.629   4.809   1.240  0.6741 -0.1732  0.3544
 6751TIP3    H141812   3.612   4.749   1.312 -0.0767 -1.4836 -0.8562
 6751TIP3    H241813   3.724   4.815   1.234  0.7613  0.7780  2.0718
 6752TIP3   OH241814   0.971   4.219   6.587 -0.1127  0.5135 -0.0453
 6752TIP3    H141815   1.047   4.265   6.552 -0.8429  0.8022 -1.3007
 6752TIP3    H241816   1.008   4.139   6.626  1.0142  1.5133  1.0390
 6753TIP3   OH241817   6.444   2.593   6.440 -0.5745 -0.2459  0.3577
 6753TIP3    H141818   6.521   2.545   6.410 -0.4783  0.9686 -1.4884
 6753TIP3    H241819   6.370   2.553   6.394 -1.0006 -0.9919  1.6374
 6754TIP3   OH241820   0.357   0.263   1.633 -0.2542  0.1306  0.2016
 6754TIP3    H141821   0.308   0.185   1.607 -0.9402  0.6213  0.0143
 6754TIP3    H241822   0.306   0.336   1.600  0.3069  0.6715  0.5129
 6755TIP3   OH241823   5.636   5.250   1.787  0.0121  0.0252  0.0723
 6755TIP3    H141824   5.680   5.308   1.725 -1.0117  2.1900  1.2573
 6755TIP3    H241825   5.689   5.170   1.787  1.7164  1.0888 -1.3527
 6756TIP3   OH241826   2.932   2.368   6.721  0.0555 -0.1656 -0.2313
 6756TIP3    H141827   2.844   2.385   6.686 -0.6585 -1.2254  0.9621
 6756TIP3    H241828   2.985   2.352   6.643 -0.8577  0.2342 -0.9683
 6757TIP3   OH241829   1.881   1.547   7.637 -0.0986 -0.1326 -0.7783
 6757TIP3    H141830   1.875   1.480   7.705 -0.8290 -0.9941 -1.6748
 6757TIP3    H241831   1.975   1.553   7.618  0.3383  1.2701  1.3881
 6758TIP3   OH241832   4.384   2.612   7.070 -0.7175 -0.6685  0.0260
 6758TIP3    H141833   4.379   2.707   7.054  0.4363 -0.4902  0.5893
 6758TIP3    H241834   4.347   2.572   6.991 -0.5407  0.2439 -0.5352
 6759TIP3   OH241835   2.833   0.073   1.369 -0.4377 -0.2169 -0.2208
 6759TIP3    H141836   2.863   0.016   1.298  1.0002 -1.0828  1.0217
 6759TIP3    H241837   2.805   0.012   1.438 -0.0794  0.5690  0.6383
 6760TIP3   OH241838   0.532   3.421   7.113 -0.3011  0.1086 -0.8384
 6760TIP3    H141839   0.569   3.477   7.045 -0.6287 -0.0245 -1.1314
 6760TIP3    H241840   0.518   3.479   7.188  1.6817 -0.0892 -0.2633
 6761TIP3   OH241841   1.391   6.715   6.868 -0.0621 -0.8310  0.5562
 6761TIP3    H141842   1.382   6.660   6.790  1.7334  1.2010 -1.2135
 6761TIP3    H241843   1.477   6.692   6.904  1.3605  1.5923 -1.0079
 6762TIP3   OH241844   0.596   0.209   6.846  0.2503 -0.3919  0.1271
 6762TIP3    H141845   0.615   0.156   6.924  0.6579 -1.6316 -0.7932
 6762TIP3    H241846   0.564   0.146   6.781 -1.0008  0.7519 -0.4263
 6763TIP3   OH241847   0.024   3.500   7.657 -0.2882  0.3816 -0.0097
 6763TIP3    H141848   0.045   3.581   7.703 -1.2231  0.4163  0.3825
 6763TIP3    H241849   0.107   3.471   7.620  0.2505  1.0032  0.6793
 6764TIP3   OH241850   0.539   0.860   8.840  0.0352 -0.0215  0.1703
 6764TIP3    H141851   0.597   0.937   8.847  0.4057 -0.1362 -1.2500
 6764TIP3    H241852   0.594   0.793   8.798 -1.0492 -0.1952 -1.0395
 6765TIP3   OH241853   5.092   1.357   6.793 -0.3246  0.3064  0.6629
 6765TIP3    H141854   5.027   1.351   6.723  0.0538 -0.3332  0.3543
 6765TIP3    H241855   5.175   1.334   6.750  0.0720  0.9168  1.0930
 6766TIP3   OH241856   6.723   2.934   1.476  0.4656 -0.3140 -0.1794
 6766TIP3    H141857   6.685   2.887   1.401 -1.4416  1.1638 -0.2134
 6766TIP3    H241858   6.771   3.007   1.436  0.2087 -0.0510 -0.0126
 6767TIP3   OH241859   0.129   0.697   0.098  0.3869 -0.1644 -0.1147
 6767TIP3    H141860   0.052   0.668   0.146  1.9253  0.0031  2.6780
 6767TIP3    H241861   0.198   0.636   0.124  1.3413 -0.0831 -2.2272
 6768TIP3   OH241862   0.344   4.470   7.998 -0.6031  0.0370 -0.4532
 6768TIP3    H141863   0.321   4.399   8.057  1.4494 -0.1028  0.2468
 6768TIP3    H241864   0.364   4.427   7.915  3.0818 -0.6286  0.6177
 6769TIP3   OH241865   4.408   0.425   0.632 -0.1121 -0.0743 -0.4379
 6769TIP3    H141866   4.441   0.352   0.684  0.3236 -0.1400 -0.7963
 6769TIP3    H241867   4.487   0.472   0.604 -0.3283 -0.1828 -1.2454
 6770TIP3   OH241868   4.896   3.087   0.177 -0.1641  0.1351 -0.1337
 6770TIP3    H141869   4.971   3.145   0.167  1.1824 -1.5831 -0.5328
 6770TIP3    H241870   4.840   3.130   0.241  1.7266  0.9435  1.0454
 6771TIP3   OH241871   0.187   0.531   7.667 -0.4859 -0.2284 -0.3808
 6771TIP3    H141872   0.157   0.440   7.675 -0.7554  0.0017  3.0845
 6771TIP3    H241873   0.125   0.581   7.720  2.2171  1.2362  1.6615
 6772TIP3   OH241874   3.370   4.843   6.080 -0.2086  0.0376  0.5947
 6772TIP3    H141875   3.412   4.928   6.092 -0.5588  0.4145 -0.7678
 6772TIP3    H241876   3.439   4.779   6.099 -0.0592  0.5817  2.0649
 6773TIP3   OH241877   3.002   4.578   7.745 -0.3496 -0.1595  0.7221
 6773TIP3    H141878   2.920   4.622   7.724 -1.1321 -1.9191 -0.1494
 6773TIP3    H241879   2.975   4.498   7.791  1.0310  0.3964  2.6141
 6774TIP3   OH241880   2.719   2.156   7.355  0.5406  0.6966 -0.3319
 6774TIP3    H141881   2.634   2.184   7.388 -0.1024  0.1147 -1.4574
 6774TIP3    H241882   2.725   2.064   7.381  0.2173  0.3550 -1.4258
 6775TIP3   OH241883   5.221   1.988   0.877  0.2195  0.1040 -0.7306
 6775TIP3    H141884   5.283   2.046   0.834  0.4784  0.1723 -0.2590
 6775TIP3    H241885   5.206   1.918   0.813 -0.4520  0.9231 -1.4919
 6776TIP3   OH241886   6.067   1.379   2.121 -0.6705  0.2858  0.1491
 6776TIP3    H141887   6.159   1.365   2.141  0.1644  2.0343 -2.0349
 6776TIP3    H241888   6.032   1.292   2.104  0.0106 -0.6250  2.9414
 6777TIP3   OH241889   4.928   5.999   1.905 -0.8090  0.0194 -0.0233
 6777TIP3    H141890   4.861   5.946   1.949  0.3927 -0.4059  1.4055
 6777TIP3    H241891   4.905   6.089   1.927  0.2500 -0.2067  2.3749
 6778TIP3   OH241892   0.864   0.227   6.383  0.1056  0.2207 -0.2003
 6778TIP3    H141893   0.857   0.321   6.365 -1.1704 -0.3411 -3.2066
 6778TIP3    H241894   0.782   0.204   6.426 -0.7670  0.0672 -1.8895
 6779TIP3   OH241895   6.126   5.018   0.252  0.6257  0.1548 -0.0826
 6779TIP3    H141896   6.142   4.985   0.340 -0.8216  0.5632  0.3480
 6779TIP3    H241897   6.179   5.098   0.246  1.5859 -0.4584  0.0104
 6780TIP3   OH241898   0.459   5.329   1.623 -0.8810 -0.2875 -0.9296
 6780TIP3    H141899   0.457   5.379   1.705  1.3606 -1.7838  0.1452
 6780TIP3    H241900   0.367   5.315   1.601 -1.5569  0.1375  1.3591
 6781TIP3   OH241901   1.126   1.643   7.317 -0.1752  0.2907 -0.4803
 6781TIP3    H141902   1.090   1.585   7.384  0.1237 -1.0548 -1.4527
 6781TIP3    H241903   1.185   1.702   7.365  0.5906 -1.1095  0.3534
 6782TIP3   OH241904   5.698   2.264   6.895  0.5188  0.1305 -0.4000
 6782TIP3    H141905   5.669   2.354   6.877  1.5175  0.7322  0.8100
 6782TIP3    H241906   5.657   2.243   6.980 -1.4103 -1.3743 -1.6210
 6783TIP3   OH241907   5.717   6.699   6.338  0.6086  0.2361 -0.5032
 6783TIP3    H141908   5.789   6.760   6.355 -0.4132  1.0693  1.0612
 6783TIP3    H241909   5.668   6.740   6.266  0.6339  0.6380 -0.2952
 6784TIP3   OH241910   1.430   0.868   1.143 -0.2517  0.2080  0.3999
 6784TIP3    H141911   1.413   0.866   1.049 -0.5789 -0.5472  0.4666
 6784TIP3    H241912   1.343   0.877   1.183 -0.1618  0.0455  0.6379
 6785TIP3   OH241913   1.816   3.808   8.236  0.2652 -0.4009 -0.0370
 6785TIP3    H141914   1.767   3.889   8.250 -0.6550 -1.0490  0.6071
 6785TIP3    H241915   1.844   3.813   8.145 -1.2711 -0.1316 -0.5287
 6786TIP3   OH241916   0.756   4.355   2.231  0.2623  0.3538 -0.1058
 6786TIP3    H141917   0.717   4.328   2.314  2.5841 -0.4782  0.7898
 6786TIP3    H241918   0.784   4.445   2.247  1.2203  0.0069  0.2453
 6787TIP3   OH241919   0.797   3.325   6.945 -0.2201 -0.5961  0.4399
 6787TIP3    H141920   0.791   3.420   6.938 -2.8984 -0.5874  1.6922
 6787TIP3    H241921   0.868   3.309   7.006 -0.6167  0.6776  1.2631
 6788TIP3   OH241922   3.624   2.922   6.929 -0.3264 -0.1885  0.3411
 6788TIP3    H141923   3.687   2.897   6.996  1.1938 -0.9802 -1.3129
 6788TIP3    H241924   3.575   2.841   6.912 -1.2960  0.2261  1.0598
 6789TIP3   OH241925   5.092   6.618   7.265 -0.4713 -0.1839 -0.0230
 6789TIP3    H141926   5.130   6.706   7.256 -0.5253 -0.1553  0.0331
 6789TIP3    H241927   5.135   6.567   7.196 -1.6402  0.2922 -1.1464
 6790TIP3   OH241928   4.527   5.329   0.443 -0.3814 -0.2594 -0.2265
 6790TIP3    H141929   4.456   5.307   0.503 -0.5146  1.7380  0.4356
 6790TIP3    H241930   4.540   5.250   0.391 -1.8000 -1.2979  0.9070
 6791TIP3   OH241931   2.436   1.188   8.842  0.1378 -0.3947 -0.2542
 6791TIP3    H141932   2.490   1.207   8.918 -0.8684  0.5574  0.2456
 6791TIP3    H241933   2.353   1.231   8.860 -0.9392 -2.0995 -0.8377
 6792TIP3   OH241934   3.200   2.506   8.336  0.7088 -0.0490 -0.3541
 6792TIP3    H141935   3.168   2.461   8.258 -0.3119  1.2601 -0.7207
 6792TIP3    H241936   3.282   2.546   8.309  0.0434  0.9237 -0.9484
 6793TIP3   OH241937   2.900   3.654   8.412  0.1435 -1.0749  0.1404
 6793TIP3    H141938   2.937   3.729   8.459  0.6711 -2.4802  2.0518
 6793TIP3    H241939   2.833   3.619   8.470  0.3651 -2.4947 -0.4162
 6794TIP3   OH241940   6.498   1.580   0.752  0.4897 -0.7201  0.5014
 6794TIP3    H141941   6.517   1.532   0.832  3.5886  0.4739  0.6181
 6794TIP3    H241942   6.549   1.535   0.684  0.3990  0.1197 -0.1477
 6795TIP3   OH241943   2.378   0.106   8.647  0.7185 -0.2841  0.0674
 6795TIP3    H141944   2.412   0.181   8.598 -0.1459  0.4918  0.6140
 6795TIP3    H241945   2.370   0.036   8.582 -3.3427  1.5633 -1.7919
 6796TIP3   OH241946   2.514   0.359   8.407  0.5545  0.0030 -0.1152
 6796TIP3    H141947   2.499   0.289   8.344 -0.8495  0.0654  0.1315
 6796TIP3    H241948   2.438   0.417   8.398  0.1952 -0.1031  1.7837
 6797TIP3   OH241949   0.577   6.776   0.826 -0.8806  0.2860 -0.1065
 6797TIP3    H141950   0.623   6.826   0.759  0.8524 -1.0361 -0.0007
 6797TIP3    H241951   0.570   6.835   0.901  0.4803  0.6132 -0.2193
 6798TIP3   OH241952   5.389   5.647   0.749  0.3349 -0.5105 -0.4665
 6798TIP3    H141953   5.451   5.685   0.687  0.1485 -1.0985 -1.0277
 6798TIP3    H241954   5.435   5.571   0.784  0.8401  0.3858  0.9068
 6799TIP3   OH241955   4.259   0.556   1.029  0.2761 -0.2350 -0.0870
 6799TIP3    H141956   4.208   0.631   1.060 -0.2352  0.0378 -1.4718
 6799TIP3    H241957   4.240   0.552   0.935  2.2794 -0.5613 -0.5256
 6800TIP3   OH241958   2.721   0.130   8.634 -0.7628 -0.8937  0.3962
 6800TIP3    H141959   2.690   0.092   8.551 -1.9070  2.0284 -0.6464
 6800TIP3    H241960   2.813   0.151   8.617 -0.6733 -1.3725  0.2812
 6801TIP3   OH241961   5.643   1.448   1.149  0.0336 -0.7067  0.0348
 6801TIP3    H141962   5.552   1.461   1.175 -0.2154 -1.3687 -0.4678
 6801TIP3    H241963   5.655   1.353   1.149 -0.0681 -0.7856 -2.4852
 6802TIP3   OH241964   6.387   6.050   0.521  0.3854  0.2048 -0.1532
 6802TIP3    H141965   6.326   6.117   0.554  1.0723  1.1345 -0.7283
 6802TIP3    H241966   6.451   6.040   0.592 -0.7242 -1.2041  0.7023
 6803TIP3   OH241967   3.551   0.830   7.456 -0.4299  0.0320  0.4001
 6803TIP3    H141968   3.616   0.865   7.395 -0.6335  2.3351  1.3860
 6803TIP3    H241969   3.467   0.847   7.414 -0.5729 -4.2023 -1.5342
 6804TIP3   OH241970   4.113   3.124   0.640  0.4334 -0.1370 -0.0240
 6804TIP3    H141971   4.180   3.126   0.708  0.1350  1.0979  0.2637
 6804TIP3    H241972   4.031   3.107   0.688 -0.0296  2.3507  0.2211
 6805TIP3   OH241973   0.119   3.842   1.735 -0.1602 -0.1434  0.0477
 6805TIP3    H141974   0.036   3.833   1.782 -0.3793  0.1546 -0.2768
 6805TIP3    H241975   0.161   3.756   1.743  0.7486  0.4601  2.5335
 6806TIP3   OH241976   3.946   4.996   8.016  0.7934 -0.3758 -0.1547
 6806TIP3    H141977   3.884   5.008   8.088  0.6104 -2.8812  0.1722
 6806TIP3    H241978   3.896   5.019   7.937 -0.4994 -2.0185  0.1318
 6807TIP3   OH241979   3.566   4.937   8.453  0.5397  0.1611  0.4521
 6807TIP3    H141980   3.584   5.028   8.477 -0.3679  1.2230 -2.3899
 6807TIP3    H241981   3.496   4.943   8.387 -0.0317 -2.6692  0.6452
 6808TIP3   OH241982   4.792   0.648   0.638 -0.1394 -0.3033  0.1062
 6808TIP3    H141983   4.794   0.575   0.576  0.2547 -0.2713  0.0770
 6808TIP3    H241984   4.876   0.692   0.625  1.4595 -2.2087  2.9370
 6809TIP3   OH241985   5.050   6.518   8.841  0.5172  0.4502 -0.5388
 6809TIP3    H141986   5.015   6.470   8.917 -0.4103  0.4798 -0.9378
 6809TIP3    H241987   4.973   6.540   8.789  1.3069 -1.9195 -2.9014
 6810TIP3   OH241988   2.814   6.412   2.124 -0.1975  0.6047  0.0086
 6810TIP3    H141989   2.845   6.483   2.068  0.3661 -0.2342 -0.7699
 6810TIP3    H241990   2.749   6.366   2.071  1.1088 -0.8401 -0.4091
 6811TIP3   OH241991   4.199   2.870   6.410 -0.2624 -0.3239  0.0780
 6811TIP3    H141992   4.230   2.837   6.495  0.0716  0.0368  0.0968
 6811TIP3    H241993   4.239   2.957   6.402 -2.2786  0.7112  0.6870
 6812TIP3   OH241994   5.283   2.352   8.405  0.1486 -0.3120  0.2180
 6812TIP3    H141995   5.220   2.333   8.335  0.5537 -0.9984  0.0343
 6812TIP3    H241996   5.367   2.321   8.371  0.1269 -2.0386  1.5627
 6813TIP3   OH241997   6.324   0.757   6.638  0.1686 -0.6819 -0.0958
 6813TIP3    H141998   6.374   0.681   6.608 -1.3898 -2.0566  0.6044
 6813TIP3    H241999   6.263   0.721   6.702 -0.1479  1.3073  0.7932
 6814TIP3   OH242000   2.785   3.171   7.196  0.2995 -0.1021  0.2794
 6814TIP3    H142001   2.822   3.149   7.281 -1.6419 -0.9389  0.9585
 6814TIP3    H242002   2.743   3.091   7.166 -1.4670  0.9374 -0.1460
 6815TIP3   OH242003   4.650   5.572   7.785 -0.4899 -0.6258  0.1079
 6815TIP3    H142004   4.695   5.520   7.852 -0.8403  0.4808  1.2441
 6815TIP3    H242005   4.624   5.508   7.718  0.4679 -1.6593  0.6915
 6816TIP3   OH242006   0.056   3.018   2.339  0.0785 -0.5469  0.4010
 6816TIP3    H142007  -0.021   2.992   2.389  0.3850 -2.6816 -0.1446
 6816TIP3    H242008   0.076   2.942   2.284  3.2935 -0.5962  1.4178
 6817TIP3   OH242009   1.895   0.981   8.749 -0.1855  0.2484 -0.1607
 6817TIP3    H142010   1.855   1.031   8.820 -0.1270  0.7786 -0.4976
 6817TIP3    H242011   1.846   0.899   8.748 -0.6228  0.5008  0.0642
 6818TIP3   OH242012   0.459   5.261   7.940 -0.4111 -0.5139  0.1535
 6818TIP3    H142013   0.434   5.352   7.958 -1.1433 -0.3336 -1.6064
 6818TIP3    H242014   0.403   5.235   7.867  0.0579 -2.2724  0.3767
 6819TIP3   OH242015   4.386   4.912   7.932  0.9318  0.1778 -0.2924
 6819TIP3    H142016   4.355   4.861   7.857 -0.6105 -0.5275  0.7607
 6819TIP3    H242017   4.307   4.931   7.982  1.8535  1.0999  0.8813
 6820TIP3   OH242018   1.564   5.738   0.139 -0.2730 -0.6269  0.7457
 6820TIP3    H142019   1.592   5.698   0.056 -1.6935  0.1441 -0.1404
 6820TIP3    H242020   1.623   5.813   0.149 -0.6079 -0.2466 -0.0040
 6821TIP3   OH242021   0.053   3.130   1.962 -0.0455  0.7828 -0.1748
 6821TIP3    H142022  -0.030   3.111   1.918 -0.3975 -1.0932  1.1521
 6821TIP3    H242023   0.099   3.189   1.903 -1.4528  0.2168 -1.9169
 6822TIP3   OH242024   5.401   6.674   2.398 -0.2758 -0.1488 -0.8656
 6822TIP3    H142025   5.311   6.706   2.387 -0.4358 -1.2117 -3.5311
 6822TIP3    H242026   5.401   6.588   2.357  1.0326 -2.1158  2.8058
 6823TIP3   OH242027   6.154   5.333   7.395  0.0407 -0.2483  0.3843
 6823TIP3    H142028   6.196   5.414   7.424  0.8292 -0.4858 -0.0520
 6823TIP3    H242029   6.139   5.346   7.301 -0.0642 -0.5042  0.3637
 6824TIP3   OH242030   0.998   4.018   8.458 -0.6782  0.2326  0.2619
 6824TIP3    H142031   0.997   3.935   8.411 -3.3572  1.4916 -2.2208
 6824TIP3    H242032   0.942   4.004   8.534  1.9327 -1.1875  2.0933
 6825TIP3   OH242033   0.854   2.063   7.192  0.0186 -1.0726  0.2407
 6825TIP3    H142034   0.918   2.096   7.130  1.2113  0.0343  1.9776
 6825TIP3    H242035   0.867   1.969   7.192 -0.4862 -1.1874 -1.6427
 6826TIP3   OH242036   0.452   4.428   6.747 -0.4919  0.6859 -0.4236
 6826TIP3    H142037   0.440   4.520   6.722  0.4433  0.6204 -1.1617
 6826TIP3    H242038   0.520   4.396   6.688  0.0120 -0.1704  0.5911
 6827TIP3   OH242039   5.612   1.212   6.243  0.1794  0.5352  0.2152
 6827TIP3    H142040   5.659   1.294   6.228  1.4209  0.0479  1.1665
 6827TIP3    H242041   5.522   1.238   6.261  0.3869  1.6194 -0.2500
 6828TIP3   OH242042   1.877   0.648   7.015 -0.0071 -0.2754  0.2224
 6828TIP3    H142043   1.941   0.581   7.036 -1.6598 -2.0455 -0.0984
 6828TIP3    H242044   1.845   0.679   7.100  0.7208  0.0766  0.3713
 6829TIP3   OH242045   2.971   5.587   6.853 -0.6647 -0.5682 -0.3995
 6829TIP3    H142046   2.942   5.678   6.844 -0.5312 -0.4216  0.5548
 6829TIP3    H242047   3.064   5.593   6.874 -0.9828 -0.8325  1.2775
 6830TIP3   OH242048   5.358   6.166   1.730 -0.0782  0.6146 -0.1236
 6830TIP3    H142049   5.313   6.217   1.798  2.3350  0.5450  1.6186
 6830TIP3    H242050   5.327   6.077   1.743 -0.4677  0.7812  0.1291
 6831TIP3   OH242051   6.446   4.979   8.249  0.0278 -0.2424  0.6011
 6831TIP3    H142052   6.501   4.987   8.171 -0.4339 -0.6535  0.2241
 6831TIP3    H242053   6.425   4.886   8.253 -1.0811 -0.0023  0.4365
 6832TIP3   OH242054   4.619   5.998   1.503  0.0241 -0.0922  0.1907
 6832TIP3    H142055   4.606   5.925   1.564 -0.6168  0.8347  1.1903
 6832TIP3    H242056   4.602   6.076   1.555  1.1321  0.8146 -0.7457
 6833TIP3   OH242057   1.681   0.328   1.340  0.5519  0.0939 -0.1470
 6833TIP3    H142058   1.617   0.260   1.320  0.9128 -0.0604 -0.8183
 6833TIP3    H242059   1.766   0.286   1.328  0.8314 -0.1197  2.1247
 6834TIP3   OH242060   6.060   4.440   0.944  0.3473  0.4499  0.2161
 6834TIP3    H142061   6.107   4.473   0.868  0.2711  1.3740  0.5645
 6834TIP3    H242062   6.111   4.470   1.019 -1.1240  2.0392  0.6376
 6835TIP3   OH242063   1.536   1.845   6.445  0.2260 -0.0642 -0.3449
 6835TIP3    H142064   1.630   1.825   6.446 -0.0334 -1.4566 -1.4598
 6835TIP3    H242065   1.512   1.840   6.352 -0.6997  1.5784 -0.2213
 6836TIP3   OH242066   6.474   4.602   7.289  0.4569 -0.4148 -0.0823
 6836TIP3    H142067   6.521   4.675   7.249 -0.2565  0.8888  1.3474
 6836TIP3    H242068   6.437   4.554   7.215  0.6054  0.9138 -1.0547
 6837TIP3   OH242069   3.806   0.863   8.770 -0.4866  0.2890 -0.1559
 6837TIP3    H142070   3.886   0.880   8.820 -0.4448  0.7363 -0.3755
 6837TIP3    H242071   3.810   0.923   8.696 -0.7664 -0.0622 -0.4615
 6838TIP3   OH242072   5.951   1.128   1.020  0.6141 -0.2087  0.4789
 6838TIP3    H142073   5.951   1.074   0.941  0.7394  0.2545  0.1569
 6838TIP3    H242074   5.972   1.068   1.091  3.4893 -0.1250 -0.1917
 6839TIP3   OH242075   0.517   1.741   0.813 -0.0067 -0.0236 -0.1455
 6839TIP3    H142076   0.569   1.821   0.806  1.0493 -0.7127 -0.3485
 6839TIP3    H242077   0.457   1.745   0.738  0.5527  0.2181 -0.5885
 6840TIP3   OH242078   0.882   1.696   6.482 -0.5161 -0.1855 -0.1397
 6840TIP3    H142079   0.921   1.626   6.535  0.5130 -0.8246 -1.6572
 6840TIP3    H242080   0.794   1.664   6.463 -0.8576 -0.0040  1.0389
 6841TIP3   OH242081   6.379   6.592   1.863 -0.0681 -0.1177 -0.0629
 6841TIP3    H142082   6.331   6.523   1.816  1.2430 -0.6898 -0.6340
 6841TIP3    H242083   6.459   6.548   1.894  0.7933  1.1319 -0.4214
 6842TIP3   OH242084   3.528   1.127   0.811  0.5001 -0.5828  0.1523
 6842TIP3    H142085   3.510   1.149   0.720  0.0040 -1.0691  0.1205
 6842TIP3    H242086   3.441   1.106   0.847  0.7666 -0.9731  0.5720
 6843TIP3   OH242087   2.364   0.650   2.397  0.7767  0.5523 -0.2074
 6843TIP3    H142088   2.427   0.713   2.433  1.2890 -0.0994  0.0475
 6843TIP3    H242089   2.389   0.642   2.305  0.0976  1.4520 -0.4856
 6844TIP3   OH242090   4.814   6.343   7.143 -0.9457  0.4278 -1.1830
 6844TIP3    H142091   4.737   6.286   7.134 -1.1778  0.6236 -0.5517
 6844TIP3    H242092   4.800   6.412   7.079 -0.6325 -0.2428 -1.9969
 6845TIP3   OH242093   3.830   5.603   1.937 -0.2918 -0.4894  0.0792
 6845TIP3    H142094   3.911   5.558   1.915  0.2972  1.1565 -1.3537
 6845TIP3    H242095   3.761   5.539   1.916  0.5832 -1.5102  0.2504
 6846TIP3   OH242096   4.098   0.222   6.878  0.3181  0.2802 -0.1613
 6846TIP3    H142097   4.009   0.192   6.897 -0.1305  1.6146 -0.0284
 6846TIP3    H242098   4.127   0.168   6.806 -1.0531  0.5811 -0.9788
 6847TIP3   OH242099   6.156   5.968   7.896  0.3458  0.1449 -0.2372
 6847TIP3    H142100   6.202   5.884   7.901 -0.1946 -0.1575 -0.3057
 6847TIP3    H242101   6.124   5.971   7.806  1.1521  0.8497 -0.5170
 6848TIP3   OH242102   2.875   0.570   0.901  0.4515 -0.1254 -0.1043
 6848TIP3    H142103   2.904   0.592   0.989 -2.0762 -1.5966  1.1889
 6848TIP3    H242104   2.788   0.531   0.912  0.8502 -2.2349 -3.0384
 6849TIP3   OH242105   2.442   3.470   6.831 -0.0244 -0.2894  0.4544
 6849TIP3    H142106   2.453   3.441   6.741  0.6326 -0.6202  0.6339
 6849TIP3    H242107   2.352   3.503   6.836  0.8326  2.6440 -1.1613
 6850TIP3   OH242108   1.038   6.659   7.511 -0.0742  0.0095 -0.1786
 6850TIP3    H142109   1.008   6.607   7.586  0.2429 -0.8673 -0.6503
 6850TIP3    H242110   0.976   6.638   7.441 -0.6566  1.1972 -0.0371
 6851TIP3   OH242111   4.137   4.549   0.243 -0.2722 -0.4521  0.9705
 6851TIP3    H142112   4.202   4.578   0.306  0.2313  1.3879 -0.3008
 6851TIP3    H242113   4.083   4.627   0.227 -1.6574 -1.4353  0.6383
 6852TIP3   OH242114   2.787   5.047   1.264  0.3152  0.0496 -0.2292
 6852TIP3    H142115   2.762   5.126   1.215 -0.8467  1.0434  1.8288
 6852TIP3    H242116   2.832   5.081   1.341 -0.0113 -1.3118  0.5812
 6853TIP3   OH242117   3.326   0.229   8.081  0.3305  0.4740 -0.2045
 6853TIP3    H142118   3.379   0.276   8.016  0.6278 -0.9833 -1.0634
 6853TIP3    H242119   3.386   0.165   8.119 -0.4386 -0.2451 -0.1734
 6854TIP3   OH242120   5.165   6.184   2.428  0.3493 -0.3364  0.1375
 6854TIP3    H142121   5.181   6.118   2.495  0.2224 -1.4414 -0.8841
 6854TIP3    H242122   5.252   6.207   2.395  0.4661  0.6766  1.0731
 6855TIP3   OH242123   4.115   5.405   1.078 -0.1026  0.3999 -0.1054
 6855TIP3    H142124   4.114   5.500   1.063 -1.7224  0.4569  0.1545
 6855TIP3    H242125   4.086   5.367   0.995 -1.9722  0.3074  0.5522
 6856TIP3   OH242126   0.012   2.777   8.605 -0.2729  0.0770  0.1935
 6856TIP3    H142127   0.048   2.864   8.625 -0.4509 -0.1876  1.8437
 6856TIP3    H242128  -0.003   2.778   8.511  1.5310  1.1435 -0.1330
 6857TIP3   OH242129   3.660   6.492   7.080  0.3500  0.4520  0.3162
 6857TIP3    H142130   3.718   6.499   7.003  0.7752  1.0764  0.6832
 6857TIP3    H242131   3.686   6.411   7.122 -0.1827 -0.1253 -0.4334
 6858TIP3   OH242132   5.962   6.455   0.268  0.2900 -0.0329  0.3817
 6858TIP3    H142133   5.932   6.544   0.251 -0.3132 -0.3302 -0.1632
 6858TIP3    H242134   6.041   6.465   0.320 -0.1181  0.8030  0.8427
 6859TIP3   OH242135   2.143   3.665   0.787 -0.3818  0.1706 -0.4145
 6859TIP3    H142136   2.049   3.659   0.770 -0.2657  0.4773 -1.2109
 6859TIP3    H242137   2.183   3.664   0.700  0.3093  0.8765 -0.1176
 6860TIP3   OH242138   6.273   3.494   1.939  0.2733  0.2245  0.3434
 6860TIP3    H142139   6.292   3.432   1.868  0.5844  1.2490 -0.4965
 6860TIP3    H242140   6.178   3.498   1.942  0.2555  0.6111 -0.4248
 6861TIP3   OH242141   0.097   1.918   1.420  0.6300  0.6024 -0.0659
 6861TIP3    H142142   0.161   1.978   1.380  1.6428 -1.5511 -1.8750
 6861TIP3    H242143   0.058   1.872   1.345 -1.9666  0.7263  1.0948
 6862TIP3   OH242144   4.856   2.325   0.419 -0.1543 -0.3420  0.0049
 6862TIP3    H142145   4.822   2.244   0.380  0.5590 -1.1386  0.9606
 6862TIP3    H242146   4.920   2.357   0.356  0.0902 -0.9338 -0.0566
 6863TIP3   OH242147   2.143   6.431   0.724  0.0765  0.7005 -0.0004
 6863TIP3    H142148   2.216   6.470   0.676  0.4327  0.5678  0.4312
 6863TIP3    H242149   2.068   6.442   0.666  0.8999 -1.4084 -1.6039
 6864TIP3   OH242150   0.729   4.527   7.078 -0.2921  0.1697 -0.0628
 6864TIP3    H142151   0.650   4.561   7.036 -2.1910 -1.3907  1.9792
 6864TIP3    H242152   0.758   4.598   7.136 -0.1745  0.7370 -0.8002
 6865TIP3   OH242153   3.224   4.087   8.308  0.2041 -0.1436 -0.1588
 6865TIP3    H142154   3.289   4.153   8.333 -1.3648  1.4276 -0.0419
 6865TIP3    H242155   3.145   4.112   8.355 -0.9888 -0.9866 -1.6263
 6866TIP3   OH242156   6.399   0.157   7.491 -0.3313 -0.0290  0.3845
 6866TIP3    H142157   6.438   0.190   7.573  1.4131 -0.8305 -0.0737
 6866TIP3    H242158   6.365   0.071   7.514 -0.1524 -0.1063  0.3678
 6867TIP3   OH242159   6.164   0.829   1.650 -0.1030 -0.7358  0.1756
 6867TIP3    H142160   6.168   0.756   1.711 -0.2819 -1.4700 -0.6733
 6867TIP3    H242161   6.182   0.906   1.703 -0.7287 -1.3049  1.2461
 6868TIP3   OH242162   4.181   1.695   6.343  0.0374  0.2449 -0.4891
 6868TIP3    H142163   4.145   1.624   6.289  1.6143 -1.1827  0.2421
 6868TIP3    H242164   4.105   1.741   6.377 -1.0329 -1.0122 -1.1120
 6869TIP3   OH242165   0.557   4.136   8.315 -0.4283  0.0315 -0.2732
 6869TIP3    H142166   0.638   4.127   8.365 -1.2010 -0.8569  0.8906
 6869TIP3    H242167   0.514   4.051   8.326 -1.3728  0.3842 -1.1368
 6870TIP3   OH242168   6.376   2.678   0.008 -0.7456  0.3407  0.0080
 6870TIP3    H142169   6.458   2.712  -0.027 -1.1032 -0.1967 -1.3849
 6870TIP3    H242170   6.403   2.618   0.078 -0.0021  0.8794  0.1992
 6871TIP3   OH242171   1.710   3.395   8.502  0.2500 -0.4473 -0.4228
 6871TIP3    H142172   1.799   3.375   8.473  0.6790 -0.6338  0.9361
 6871TIP3    H242173   1.676   3.456   8.436  1.2054 -0.7623 -1.2188
 6872TIP3   OH242174   5.377   2.574   0.937  0.0110 -0.0520 -0.3325
 6872TIP3    H142175   5.315   2.502   0.944  1.5390 -1.5800 -1.4672
 6872TIP3    H242176   5.459   2.538   0.971  0.2128  2.1202  1.7974
 6873TIP3   OH242177   3.828   2.732   7.847  0.0221  0.0468  0.1103
 6873TIP3    H142178   3.788   2.685   7.920  0.9293 -0.3295  0.3788
 6873TIP3    H242179   3.851   2.663   7.784  0.7878  0.1893  0.2251
 6874TIP3   OH242180   6.117   4.957   7.200  0.0939 -0.3097  0.0611
 6874TIP3    H142181   6.153   4.949   7.112 -0.8810 -1.2500 -0.2800
 6874TIP3    H242182   6.171   5.024   7.243  0.0021  0.8642 -1.5565
 6875TIP3   OH242183   3.190   6.473   0.081  0.2771  0.0422 -0.8223
 6875TIP3    H142184   3.167   6.398   0.136  0.8552  0.1997 -0.3554
 6875TIP3    H242185   3.263   6.515   0.127  1.0832 -0.0883 -1.9376
 6876TIP3   OH242186   3.179   2.860   8.339 -0.2016 -0.1956 -0.2781
 6876TIP3    H142187   3.232   2.781   8.343  1.0453  0.6507  1.1388
 6876TIP3    H242188   3.126   2.857   8.418 -1.1342 -0.2649 -0.9001
 6877TIP3   OH242189   3.545   1.010   7.062  0.1543  0.1879  0.1990
 6877TIP3    H142190   3.505   0.986   7.146 -0.4356  0.2395 -0.0644
 6877TIP3    H242191   3.606   1.081   7.085 -0.3947  0.5725  0.5094
 6878TIP3   OH242192   1.962   4.451   7.457  0.0948  0.2984 -1.0894
 6878TIP3    H142193   1.935   4.486   7.372  1.0652 -0.1730 -1.6074
 6878TIP3    H242194   1.993   4.528   7.506 -4.5341  1.4050  0.6006
 6879TIP3   OH242195   6.475   3.389   1.247 -0.1779  0.0953  0.0221
 6879TIP3    H142196   6.431   3.304   1.246  0.2949 -0.1497 -1.6623
 6879TIP3    H242197   6.566   3.369   1.270  0.4716 -0.1775 -2.5318
 6880TIP3   OH242198   0.204   0.714   2.191 -0.2668  0.7163  0.1594
 6880TIP3    H142199   0.265   0.644   2.167  0.8591  1.3858  0.9669
 6880TIP3    H242200   0.252   0.795   2.172 -1.3423  1.2920 -0.2464
 6881TIP3   OH242201   6.304   0.628   8.806 -0.0932 -0.4683 -0.2951
 6881TIP3    H142202   6.363   0.692   8.768 -0.2336  1.1554  1.9979
 6881TIP3    H242203   6.251   0.678   8.868 -1.2546 -2.5497  0.4948
 6882TIP3   OH242204   3.603   4.629   0.446  0.2884  0.1572  0.3910
 6882TIP3    H142205   3.536   4.561   0.447  0.8449 -0.4098 -0.0993
 6882TIP3    H242206   3.556   4.709   0.425 -0.3763 -0.0693  0.9580
 6883TIP3   OH242207   2.652   3.408   1.602  0.3314  0.1576  0.1348
 6883TIP3    H142208   2.574   3.374   1.559  0.9747  1.0518 -1.8804
 6883TIP3    H242209   2.619   3.473   1.664 -0.6161 -0.8770  0.7318
 6884TIP3   OH242210   2.789   0.064   8.154  0.3262  0.4973 -0.6833
 6884TIP3    H142211   2.736   0.144   8.149  1.6661  1.4527 -0.0982
 6884TIP3    H242212   2.876   0.091   8.128  0.6741 -0.9271 -1.0592
 6885TIP3   OH242213   5.017   1.556   8.406  0.1789 -0.7461  0.2956
 6885TIP3    H142214   5.065   1.586   8.483 -0.6754 -2.3809  1.5245
 6885TIP3    H242215   4.928   1.541   8.437 -0.7987  0.7327 -1.5869
 6886TIP3   OH242216   5.737   6.256   8.510 -0.0054 -0.2846  0.0652
 6886TIP3    H142217   5.652   6.299   8.514 -0.8029 -1.7090 -0.5982
 6886TIP3    H242218   5.745   6.210   8.593  0.9018  1.1736  0.8271
 6887TIP3   OH242219   1.093   1.016   0.038 -0.2905  0.1066 -0.1935
 6887TIP3    H142220   1.059   1.096   0.079 -1.7635 -1.1535  1.1999
 6887TIP3    H242221   1.188   1.028   0.036 -0.4800  1.8888 -0.0542
 6888TIP3   OH242222   1.704   4.749   1.031  0.6070 -0.0390  0.5605
 6888TIP3    H142223   1.736   4.669   1.072 -2.7774 -1.8143  0.0763
 6888TIP3    H242224   1.650   4.790   1.098  0.1592  0.4197 -0.0666
 6889TIP3   OH242225   1.733   3.178   2.098 -0.1459  0.4448 -0.8854
 6889TIP3    H142226   1.675   3.124   2.151  0.8165  0.1783 -0.0684
 6889TIP3    H242227   1.785   3.115   2.048  0.5582  0.6126 -0.3859
 6890TIP3   OH242228   2.590   6.178   0.262 -0.0641  0.5434  0.1158
 6890TIP3    H142229   2.608   6.133   0.345  1.1027 -0.8408 -0.8345
 6890TIP3    H242230   2.566   6.267   0.288  1.4418  0.4986  1.8839
 6891TIP3   OH242231   2.946   5.124   1.475  0.1925  0.2010 -0.0068
 6891TIP3    H142232   3.040   5.118   1.460  0.0677 -2.3675 -0.1799
 6891TIP3    H242233   2.937   5.133   1.569  0.5912  1.4748 -0.0627
 6892TIP3   OH242234   3.784   5.624   1.235  0.3914  0.4215 -0.7267
 6892TIP3    H142235   3.831   5.676   1.300 -0.2084  0.0963 -0.0151
 6892TIP3    H242236   3.754   5.547   1.283 -0.9993  0.6996 -1.1074
 6893TIP3   OH242237   5.078   3.159   6.204 -0.9900  0.4383 -0.2239
 6893TIP3    H142238   4.986   3.164   6.232 -0.8274 -0.3926  0.4846
 6893TIP3    H242239   5.111   3.248   6.215 -1.0795  0.2620  1.7418
 6894TIP3   OH242240   2.548   4.702   0.573 -0.2426  0.1968  0.0273
 6894TIP3    H142241   2.497   4.746   0.640  0.3393  0.3798  0.3549
 6894TIP3    H242242   2.616   4.654   0.622  0.8663  1.2067 -0.4701
 6895TIP3   OH242243   1.750   4.603   7.038  0.3106  0.2486 -0.0594
 6895TIP3    H142244   1.708   4.523   7.069  1.8771 -0.4134  0.4514
 6895TIP3    H242245   1.797   4.577   6.960 -1.4084  1.3290 -1.5443
 6896TIP3   OH242246   2.395   2.015   1.096  0.4986 -0.0402 -0.1408
 6896TIP3    H142247   2.343   2.030   1.175 -1.1223  0.4681 -1.2494
 6896TIP3    H242248   2.354   2.070   1.030  2.7194  0.6643 -1.0194
 6897TIP3   OH242249   3.325   3.948   0.300  0.8731  0.2452  0.0972
 6897TIP3    H142250   3.362   3.902   0.376  0.4005 -0.9257 -0.3604
 6897TIP3    H242251   3.241   3.905   0.284 -1.1389  3.2620  1.5320
 6898TIP3   OH242252   4.064   0.481   7.805 -0.0999  0.1492  0.0908
 6898TIP3    H142253   4.085   0.388   7.798  0.7291  0.2978  0.4104
 6898TIP3    H242254   4.057   0.497   7.899  2.6955  0.9811  0.2519
 6899TIP3   OH242255   6.699   0.113   8.590  0.1962 -0.9767 -0.1908
 6899TIP3    H142256   6.762   0.066   8.644  0.2498 -1.0953 -0.3544
 6899TIP3    H242257   6.663   0.046   8.532  0.2276 -0.8298 -0.3811
 6900TIP3   OH242258   2.683   4.840   1.505 -0.1831 -0.6492  0.5415
 6900TIP3    H142259   2.759   4.784   1.488 -0.1267 -0.4534  0.1361
 6900TIP3    H242260   2.709   4.895   1.579  0.5917  0.3845 -0.4742
 6901TIP3   OH242261   6.127   2.799   8.690  0.2232  0.1127 -0.3011
 6901TIP3    H142262   6.117   2.777   8.783 -0.3872 -0.3710 -0.4695
 6901TIP3    H242263   6.221   2.792   8.673  0.5363  1.6223  0.6105
 6902TIP3   OH242264   5.431   5.463   0.042 -0.0577 -0.6183  0.3731
 6902TIP3    H142265   5.380   5.469   0.123  0.0488 -0.0916  0.4052
 6902TIP3    H242266   5.516   5.429   0.070 -0.2221 -1.0153  0.3933
 6903TIP3   OH242267   0.950   3.743   8.190  0.7308 -0.0457  0.5455
 6903TIP3    H142268   0.970   3.728   8.283  1.6353  1.5166  0.6347
 6903TIP3    H242269   1.023   3.796   8.158 -0.9558  1.9096 -0.3115
 6904TIP3   OH242270   3.256   2.161   1.800 -0.1179  0.0179 -0.0080
 6904TIP3    H142271   3.200   2.238   1.793 -0.7002 -0.3939  0.0237
 6904TIP3    H242272   3.278   2.155   1.893  1.0079  0.8839 -0.1961
 6905TIP3   OH242273   1.358   4.866   8.363 -0.2782 -0.2670  0.3015
 6905TIP3    H142274   1.440   4.876   8.412 -0.5995  3.6293  0.3818
 6905TIP3    H242275   1.385   4.842   8.275  0.9421  0.3455  0.4888
 6906TIP3   OH242276   3.384   4.754   0.630 -0.4567 -0.4601 -0.0292
 6906TIP3    H142277   3.473   4.727   0.610 -0.3824  1.4707 -2.8577
 6906TIP3    H242278   3.331   4.715   0.560 -1.5966 -0.1839  0.6452
 6907TIP3   OH242279   4.762   5.761   1.066  0.1999  0.0604 -0.3498
 6907TIP3    H142280   4.729   5.725   1.148  3.5451  0.2844  1.2487
 6907TIP3    H242281   4.788   5.684   1.015  0.3643 -0.0191 -0.1481
 6908TIP3   OH242282   3.545   0.181   0.179  0.3710 -0.6446  0.1167
 6908TIP3    H142283   3.636   0.171   0.207  0.5057 -3.6536 -0.9777
 6908TIP3    H242284   3.534   0.275   0.166  3.0628 -0.1063  1.0394
 6909TIP3   OH242285   5.689   5.573   8.686  0.0950  0.0094 -0.2337
 6909TIP3    H142286   5.737   5.559   8.768 -0.5454 -0.0339  0.1360
 6909TIP3    H242287   5.720   5.504   8.628  1.6529  0.9076 -0.5426
 6910TIP3   OH242288   5.656   1.568   1.915  0.3228 -0.2026  0.7700
 6910TIP3    H142289   5.569   1.586   1.950  0.5963  0.9544  0.8720
 6910TIP3    H242290   5.714   1.574   1.990  0.5608 -0.4563  0.6075
 6911TIP3   OH242291   0.735   4.116   7.292  0.0842 -0.0326  0.5281
 6911TIP3    H142292   0.808   4.174   7.313 -1.5536  1.6214  1.9427
 6911TIP3    H242293   0.734   4.053   7.364 -1.1269  1.2442  1.6750
 6912TIP3   OH242294   6.393   4.810   7.941 -0.4729 -0.0130 -0.0005
 6912TIP3    H142295   6.485   4.834   7.951 -0.6036  1.6889 -2.1693
 6912TIP3    H242296   6.385   4.726   7.987  2.4157 -0.7748 -0.7080
 6913TIP3   OH242297   2.990   6.182   0.518 -0.0516 -0.0199 -0.4633
 6913TIP3    H142298   2.930   6.198   0.445 -0.5601  0.1862 -0.0009
 6913TIP3    H242299   3.053   6.120   0.482 -0.8932 -0.7233 -0.7747
 6914TIP3   OH242300   2.727   3.425   7.959 -0.1637  0.0128  0.0598
 6914TIP3    H142301   2.765   3.434   8.046  0.6358 -1.6667 -0.0662
 6914TIP3    H242302   2.661   3.494   7.954  0.5039  0.8080  1.5878
 6915TIP3   OH242303   6.472   1.851   0.211 -0.0088  0.4021  0.1635
 6915TIP3    H142304   6.406   1.906   0.168 -1.2442 -0.9265  0.2966
 6915TIP3    H242305   6.514   1.803   0.140  0.1092  0.4958  0.1700
 6916TIP3   OH242306   0.432   4.938   7.482 -0.3129 -0.2350  0.3030
 6916TIP3    H142307   0.468   5.016   7.439 -2.5720 -0.1197 -1.5911
 6916TIP3    H242308   0.426   4.873   7.413 -2.0693 -0.7918  0.9366
 6917TIP3   OH242309   3.789   5.878   7.090 -0.5199  0.1478  0.7515
 6917TIP3    H142310   3.762   5.970   7.086  1.6896  0.8307 -0.6546
 6917TIP3    H242311   3.725   5.832   7.036 -1.7584  0.7894  1.6078
 6918TIP3   OH242312   5.441   2.640   7.081  0.1612  0.2033 -0.3269
 6918TIP3    H142313   5.488   2.624   7.164  0.8850  0.1197 -0.7454
 6918TIP3    H242314   5.349   2.627   7.104  0.5347 -3.9871 -0.3937
 6919TIP3   OH242315   1.551   3.501   0.631  0.0987  0.2015 -0.2285
 6919TIP3    H142316   1.535   3.540   0.717 -3.5781  0.7232 -0.9823
 6919TIP3    H242317   1.558   3.576   0.572  1.6965 -0.1797 -0.5806
 6920TIP3   OH242318   3.610   4.152   8.760 -0.5095  0.2712  0.0349
 6920TIP3    H142319   3.699   4.187   8.754 -0.9991  1.3511 -1.3211
 6920TIP3    H242320   3.619   4.059   8.737  0.2637  0.3668 -0.0726
 6921TIP3   OH242321   2.976   4.258   0.855  0.1284  0.1901 -0.5461
 6921TIP3    H142322   3.051   4.199   0.843 -0.3098 -0.7576  1.1407
 6921TIP3    H242323   2.919   4.213   0.917 -0.7901  1.8819 -0.1038
 6922TIP3   OH242324   0.365   6.526   8.185  0.3448  0.0083 -0.4089
 6922TIP3    H142325   0.294   6.463   8.199  1.2295 -1.0693 -0.6306
 6922TIP3    H242326   0.326   6.595   8.132 -1.2821  0.8498  1.7845
 6923TIP3   OH242327   3.643   6.784   7.163 -0.2337 -0.0746 -0.2766
 6923TIP3    H142328   3.553   6.800   7.137 -0.0942  0.0106 -0.7172
 6923TIP3    H242329   3.670   6.708   7.111 -0.2983 -0.5991  0.4351
 6924TIP3   OH242330   4.404   3.424   0.820 -0.1269  0.2984 -0.0584
 6924TIP3    H142331   4.316   3.459   0.836 -0.8065 -1.7718  1.1566
 6924TIP3    H242332   4.459   3.501   0.808 -1.8744  1.6899  0.5113
 6925TIP3   OH242333   3.655   3.071   7.542  0.2287 -0.1491 -0.2054
 6925TIP3    H142334   3.666   3.032   7.455  1.5013 -0.4553  0.0677
 6925TIP3    H242335   3.631   3.162   7.524 -1.0258 -0.5882 -0.8518
 6926TIP3   OH242336   6.533   2.116   0.880  0.2925  0.7395  0.1129
 6926TIP3    H142337   6.618   2.148   0.850  0.7538 -1.4855 -1.1898
 6926TIP3    H242338   6.548   2.087   0.970  1.0320  0.0429 -0.2246
 6927TIP3   OH242339   5.976   1.192   0.111  0.0401  0.1051 -0.5907
 6927TIP3    H142340   5.992   1.167   0.202 -1.2536  0.6078 -0.1982
 6927TIP3    H242341   5.973   1.108   0.064 -3.4392 -0.5768  0.5716
 6928TIP3   OH242342   3.001   1.585   2.199  0.4217 -0.9452 -0.0849
 6928TIP3    H142343   2.923   1.531   2.188  0.3001 -0.5550 -1.2259
 6928TIP3    H242344   2.994   1.617   2.289 -0.2415 -1.6714  0.1373
 6929TIP3   OH242345   5.088   0.399   1.374  0.4605  0.2424  0.2979
 6929TIP3    H142346   5.125   0.313   1.397  2.4057  1.0548  0.3595
 6929TIP3    H242347   5.079   0.396   1.278  1.1116  0.2051  0.2392
 6930TIP3   OH242348   1.522   3.429   1.153 -0.3699  0.1666 -0.0195
 6930TIP3    H142349   1.473   3.359   1.195  0.8410 -0.2778  0.6996
 6930TIP3    H242350   1.614   3.404   1.163  0.0925  1.8150  0.1924
 6931TIP3   OH242351   5.515   6.509   1.494  0.2956  0.0962  0.0918
 6931TIP3    H142352   5.464   6.500   1.574  1.5812  0.3337  0.9668
 6931TIP3    H242353   5.504   6.425   1.449 -1.2796  0.3416 -0.0176
 6932TIP3   OH242354   1.171   0.843   2.466 -0.2147 -0.4939 -0.3804
 6932TIP3    H142355   1.243   0.790   2.502  0.4473 -0.4888 -1.6495
 6932TIP3    H242356   1.213   0.922   2.434 -1.3071  1.3461  2.3412
 6933TIP3   OH242357   6.148   3.842   1.330 -0.2073 -0.1836 -0.1609
 6933TIP3    H142358   6.229   3.888   1.351 -1.4756  1.8094  0.6877
 6933TIP3    H242359   6.131   3.787   1.406  0.1997 -0.3936 -0.2210
 6934TIP3   OH242360   0.772   6.285   0.205 -0.0207  0.4815 -0.1149
 6934TIP3    H142361   0.761   6.200   0.163  1.1842  0.9118 -1.3948
 6934TIP3    H242362   0.714   6.343   0.155  1.4283  0.9987 -1.2647
 6935TIP3   OH242363   2.801   0.543   6.444 -0.0808 -0.2978 -0.2661
 6935TIP3    H142364   2.792   0.447   6.441 -1.0475 -0.3009  1.5281
 6935TIP3    H242365   2.861   0.560   6.516 -1.4986  0.4769  0.7907
 6936TIP3   OH242366   6.553   2.469   1.945  0.2803 -0.5138 -0.2078
 6936TIP3    H142367   6.609   2.457   1.868  1.1105 -1.1017  0.4698
 6936TIP3    H242368   6.489   2.398   1.939  0.1072 -0.3334 -0.5499
 6937TIP3   OH242369   3.016   0.652   8.083  0.2270 -0.4279  0.5606
 6937TIP3    H142370   2.922   0.633   8.087  0.2232 -0.4703  0.2711
 6937TIP3    H242371   3.041   0.629   7.994  0.2555  0.7751  0.2468
 6938TIP3   OH242372   3.812   2.244   7.558  0.3111  0.2120  0.0005
 6938TIP3    H142373   3.809   2.254   7.463 -0.8507 -0.3069 -0.0374
 6938TIP3    H242374   3.786   2.153   7.574  0.0255  0.4254  0.8307
 6939TIP3   OH242375   2.103   2.789   6.151  0.0026  0.2021 -0.1006
 6939TIP3    H142376   2.043   2.782   6.225 -1.5312 -2.2288 -1.4500
 6939TIP3    H242377   2.055   2.842   6.087  0.8696  1.3699  0.1865
 6940TIP3   OH242378   2.048   1.183   7.609 -0.1620 -0.0164 -0.1497
 6940TIP3    H142379   1.959   1.149   7.616 -0.6249  0.1245 -3.6784
 6940TIP3    H242380   2.077   1.191   7.700 -3.3686 -0.9434  1.1171
 6941TIP3   OH242381   3.870   0.782   1.627  0.2143 -0.2499 -0.1220
 6941TIP3    H142382   3.800   0.717   1.628 -0.9102  0.8692  1.6131
 6941TIP3    H242383   3.941   0.742   1.676 -0.2649 -0.4028  0.4616
 6942TIP3   OH242384   1.495   5.163   2.292  0.0150 -1.0456  0.0545
 6942TIP3    H142385   1.427   5.220   2.255 -0.4572 -2.1792 -0.9096
 6942TIP3    H242386   1.576   5.190   2.249 -0.1848 -1.0059 -0.2997
 6943TIP3   OH242387   2.268   6.692   7.343  0.3098  0.2649 -0.0649
 6943TIP3    H142388   2.178   6.684   7.374  0.2411 -0.8361 -0.4923
 6943TIP3    H242389   2.266   6.764   7.280 -0.1336  0.6774  0.4183
 6944TIP3   OH242390   5.833   4.914   2.127  0.1566  0.4153 -0.1624
 6944TIP3    H142391   5.749   4.933   2.086  0.9304 -1.2640 -2.7684
 6944TIP3    H242392   5.833   4.819   2.141  1.0505  0.5853  1.2438
 6945TIP3   OH242393   4.848   3.119   1.276  0.2313 -0.2803  0.2414
 6945TIP3    H142394   4.893   3.193   1.234  1.6971 -0.5678  1.2569
 6945TIP3    H242395   4.904   3.044   1.260  0.9429 -0.3807  2.7943
 6946TIP3   OH242396   5.911   5.117   6.634  0.3070  0.2398  0.1208
 6946TIP3    H142397   5.962   5.046   6.674  0.5149  1.1194  1.4849
 6946TIP3    H242398   5.968   5.193   6.641 -0.3565  0.7796 -0.3220
 6947TIP3   OH242399   4.990   0.520   0.242  0.2752  0.0052  0.1698
 6947TIP3    H142400   4.971   0.432   0.276 -0.6465 -1.2365 -3.1866
 6947TIP3    H242401   4.929   0.577   0.288 -0.0906 -1.3131  1.3987
 6948TIP3   OH242402   3.080   5.525   8.830  0.2671  0.3496  0.1348
 6948TIP3    H142403   3.008   5.584   8.853  0.2345  0.5627 -0.4874
 6948TIP3    H242404   3.110   5.557   8.745  0.8041 -0.0149  0.1860
 6949TIP3   OH242405   4.776   1.164   0.264  0.4384  0.1318 -0.8223
 6949TIP3    H142406   4.840   1.216   0.215 -0.1556  1.2915 -0.4161
 6949TIP3    H242407   4.754   1.220   0.339 -0.7750 -0.4071 -0.7665
 6950TIP3   OH242408   3.291   5.946   8.305  0.0190  0.2118  0.0065
 6950TIP3    H142409   3.375   5.939   8.259 -1.0559 -0.7448 -1.8688
 6950TIP3    H242410   3.226   5.958   8.236 -1.4164  0.9722  1.4282
 6951TIP3   OH242411   6.332   4.104   7.909  1.1174 -0.0454 -0.3222
 6951TIP3    H142412   6.293   4.017   7.916  1.8408 -0.3504  0.1268
 6951TIP3    H242413   6.318   4.129   7.818  0.3742 -0.3760 -0.3051
 6952TIP3   OH242414   0.294   1.816   0.660  0.3019  0.7822 -0.2424
 6952TIP3    H142415   0.235   1.891   0.667 -0.4442  0.1438  0.6448
 6952TIP3    H242416   0.239   1.745   0.625  0.4259  0.1004  0.8715
 6953TIP3   OH242417   4.435   4.250   8.767  0.1806 -0.4264 -0.2521
 6953TIP3    H142418   4.481   4.242   8.851  2.2631  2.0195 -0.9977
 6953TIP3    H242419   4.373   4.321   8.780 -0.1623 -0.6716 -0.5294
 6954TIP3   OH242420   3.433   5.290   7.381 -0.0159 -0.2212  0.3011
 6954TIP3    H142421   3.355   5.235   7.385 -0.5626  0.5930  1.3473
 6954TIP3    H242422   3.477   5.264   7.300 -0.6398 -1.6639  0.3950
 6955TIP3   OH242423   0.132   3.919   7.263 -0.0119  0.4164 -0.2331
 6955TIP3    H142424   0.125   3.828   7.291 -0.7152  0.6305  0.3298
 6955TIP3    H242425   0.157   3.915   7.171 -0.2532 -0.3468 -0.2682
 6956TIP3   OH242426   5.206   4.964   8.634  0.0533 -0.3058 -0.2858
 6956TIP3    H142427   5.123   5.008   8.648 -0.7288 -1.5775 -0.7505
 6956TIP3    H242428   5.253   4.973   8.717 -0.4190  0.6380 -0.1044
 6957TIP3   OH242429   0.467   1.201   0.077  0.2503  0.3010 -0.2058
 6957TIP3    H142430   0.418   1.281   0.059 -0.7070 -0.0293  0.8277
 6957TIP3    H242431   0.494   1.170  -0.009 -0.3445  1.1228 -0.7022
 6958TIP3   OH242432   0.464   1.556   0.404  0.4878  0.0785  0.0422
 6958TIP3    H142433   0.413   1.528   0.481 -0.4217 -1.1209 -0.9574
 6958TIP3    H242434   0.555   1.554   0.434  0.3071 -2.1402  0.6248
 6959TIP3   OH242435   1.014   0.951   7.346  0.2328 -0.3287 -0.2166
 6959TIP3    H142436   0.972   1.025   7.303  0.0039 -0.1894  0.2303
 6959TIP3    H242437   0.982   0.955   7.437  0.9752 -0.4103  0.0530
 6960TIP3   OH242438   3.548   5.043   1.364  0.3851  0.4714  0.3883
 6960TIP3    H142439   3.555   4.997   1.447  2.7768  0.2537  0.1346
 6960TIP3    H242440   3.557   4.975   1.297 -1.9878  0.5722 -0.1420
 6961TIP3   OH242441   3.167   1.898   7.353 -0.0580 -0.0273 -0.3949
 6961TIP3    H142442   3.244   1.955   7.345  2.5913 -2.7597  2.4609
 6961TIP3    H242443   3.198   1.812   7.324 -2.0929 -1.1666  0.5894
 6962TIP3   OH242444   5.603   6.388   6.666 -0.4393 -0.0722  0.4685
 6962TIP3    H142445   5.640   6.346   6.744  0.2148 -1.1543 -0.4095
 6962TIP3    H242446   5.510   6.400   6.688 -0.6495 -1.9657  0.7569
 6963TIP3   OH242447   0.815   0.171   0.186  0.1277  0.2882 -0.0402
 6963TIP3    H142448   0.722   0.191   0.196  0.0079 -0.0993 -0.3271
 6963TIP3    H242449   0.859   0.256   0.191 -0.1051  0.3415  1.5629
 6964TIP3   OH242450   6.343   4.286   8.671  0.3103  0.4063 -0.2626
 6964TIP3    H142451   6.360   4.373   8.634 -0.4413  0.6305 -0.0958
 6964TIP3    H242452   6.285   4.244   8.607 -1.5949  1.0613  0.9432
 6965TIP3   OH242453   1.713   3.623   1.458  0.5797  0.5232  0.7608
 6965TIP3    H142454   1.669   3.541   1.481  0.4875  0.5688  0.7463
 6965TIP3    H242455   1.804   3.610   1.486  1.4718 -0.9481 -2.2879
 6966TIP3   OH242456   2.604   6.465   7.619  0.2320  0.2092  0.2692
 6966TIP3    H142457   2.550   6.487   7.696  1.8540  1.0362  1.2103
 6966TIP3    H242458   2.652   6.387   7.647  0.9645  0.6224  0.1631
 6967TIP3   OH242459   3.391   5.803   5.971 -0.4049  0.1249 -0.0782
 6967TIP3    H142460   3.301   5.780   5.992  0.0080 -0.1086  1.6243
 6967TIP3    H242461   3.397   5.897   5.991  0.0925 -0.1798  1.3351
 6968TIP3   OH242462   2.087   5.522   1.106 -0.3185  0.6629  0.0246
 6968TIP3    H142463   2.049   5.607   1.128  1.2537  1.7147 -1.1232
 6968TIP3    H242464   2.062   5.508   1.015  0.1251  0.2870 -0.0431
 6969TIP3   OH242465   1.058   2.006   0.435  0.2242  0.5798  0.3594
 6969TIP3    H142466   1.015   1.957   0.365  0.8898  0.7090 -0.1580
 6969TIP3    H242467   1.151   1.983   0.427  1.3829  4.9270 -2.6268
 6970TIP3   OH242468   5.685   1.121   0.011  0.2100  0.1396 -0.1063
 6970TIP3    H142469   5.687   1.215   0.027 -0.0549  0.2918 -0.9583
 6970TIP3    H242470   5.767   1.088   0.048 -0.5044  0.4303  1.8521
 6971TIP3   OH242471   4.940   6.637   0.518  0.0339 -0.2731  0.0637
 6971TIP3    H142472   4.888   6.619   0.596  2.7324 -1.3189  1.7817
 6971TIP3    H242473   4.960   6.550   0.482 -0.6469  0.1765 -1.4660
 6972TIP3   OH242474   3.035   2.320   0.839  0.1769 -0.1939  0.3887
 6972TIP3    H142475   2.988   2.392   0.797  0.7328  0.1129  0.2750
 6972TIP3    H242476   3.037   2.344   0.932 -0.5598 -0.5931  0.5153
 6973TIP3   OH242477   6.394   6.446   8.126 -0.2576 -0.3579 -0.1620
 6973TIP3    H142478   6.315   6.419   8.172  0.0487 -0.3964  0.3422
 6973TIP3    H242479   6.464   6.441   8.191 -0.1532  1.4890 -0.0799
 6974TIP3   OH242480   0.176   1.892   7.195  0.2691 -0.3781 -0.0427
 6974TIP3    H142481   0.228   1.823   7.237  2.2315  1.2537  0.4058
 6974TIP3    H242482   0.241   1.946   7.150 -0.9033  2.1826  1.1309
 6975TIP3   OH242483   6.675   4.570   1.724 -0.5371  0.0985  0.4876
 6975TIP3    H142484   6.702   4.539   1.638  0.8828 -2.8220  1.8331
 6975TIP3    H242485   6.594   4.523   1.743 -1.3805  1.4602  0.4180
 6976TIP3   OH242486   6.149   1.807   2.287  0.7417 -0.2747 -0.2656
 6976TIP3    H142487   6.148   1.853   2.203 -0.7114  1.4700  0.6215
 6976TIP3    H242488   6.086   1.736   2.276 -0.4309  0.7379 -0.2848
 6977TIP3   OH242489   0.101   0.353   1.513  0.0816  0.0176  0.5818
 6977TIP3    H142490   0.065   0.265   1.528 -3.1336  1.1094  0.0267
 6977TIP3    H242491   0.078   0.373   1.423 -0.0256  1.7619  0.9616
 6978TIP3   OH242492   3.264   5.603   6.823  0.6135 -0.7306 -0.6623
 6978TIP3    H142493   3.244   5.526   6.769  0.3747 -0.5414 -0.8490
 6978TIP3    H242494   3.332   5.649   6.774  0.3956 -0.5581 -0.8086
 6979TIP3   OH242495   4.595   3.896   0.942 -0.3783 -0.9051 -0.6545
 6979TIP3    H142496   4.549   3.849   0.873  0.6063 -1.5169 -0.9110
 6979TIP3    H242497   4.526   3.925   1.001 -1.3651  0.5644 -2.4179
 6980TIP3   OH242498   6.166   0.485   1.500 -0.1543  0.1304  0.3273
 6980TIP3    H142499   6.175   0.418   1.567 -1.2235 -0.1229  0.2398
 6980TIP3    H242500   6.246   0.537   1.507  0.7430 -1.2038  0.3226
 6981TIP3   OH242501   2.115   3.586   7.162  0.0977 -0.1470  0.0501
 6981TIP3    H142502   2.126   3.598   7.067  0.4518  1.9666  0.3084
 6981TIP3    H242503   2.138   3.671   7.199 -2.7094 -0.0558  1.8561
 6982TIP3   OH242504   1.264   1.145   1.270 -0.5644  0.1037 -0.6019
 6982TIP3    H142505   1.174   1.174   1.251  0.0136  1.1356 -1.9164
 6982TIP3    H242506   1.266   1.054   1.238 -1.2024 -0.0055 -0.3583
 6983TIP3   OH242507   1.108   4.812   0.068  0.0215 -0.5029  0.4879
 6983TIP3    H142508   1.099   4.717   0.077 -1.1964 -0.2855  1.9852
 6983TIP3    H242509   1.042   4.848   0.128  0.8610  1.2908  0.3872
 6984TIP3   OH242510   4.933   2.609   1.238  0.4926  0.5081  0.3239
 6984TIP3    H142511   4.847   2.600   1.279 -0.1203  1.4987 -0.6733
 6984TIP3    H242512   4.925   2.561   1.155  0.8761  0.6357  0.2110
 6985TIP3   OH242513   2.878   0.621   8.334  0.4906  0.2188  0.6856
 6985TIP3    H142514   2.925   0.651   8.256  0.9169 -0.0983  0.8126
 6985TIP3    H242515   2.904   0.682   8.403 -2.2345  2.3879 -0.0434
 6986TIP3   OH242516   4.726   5.820   1.966  0.1303 -0.8287 -0.9218
 6986TIP3    H142517   4.733   5.745   2.026 -0.0862 -1.4282 -1.6235
 6986TIP3    H242518   4.641   5.859   1.986  0.7007 -0.1055  0.1824
 6987TIP3   OH242519   0.420   1.284   6.885  0.0365  0.3193 -0.3205
 6987TIP3    H142520   0.379   1.204   6.919 -0.2910  0.4895 -0.3140
 6987TIP3    H242521   0.388   1.291   6.795  1.0845 -0.2548 -0.7533
 6988TIP3   OH242522   4.459   2.500   1.191  0.1774  0.1181 -0.2593
 6988TIP3    H142523   4.437   2.548   1.111  2.7898  1.5907 -0.2094
 6988TIP3    H242524   4.375   2.479   1.230 -1.1759  3.3075 -1.1289
 6989TIP3   OH242525   3.349   6.020   1.361  0.3207 -0.7154  0.1279
 6989TIP3    H142526   3.394   6.018   1.277 -0.6944 -0.5819 -0.4375
 6989TIP3    H242527   3.416   6.046   1.424  0.9809 -0.3406 -0.7148
 6990TIP3   OH242528   4.315   0.349   0.358 -0.3789  0.3607 -0.5078
 6990TIP3    H142529   4.239   0.296   0.383  1.3485 -1.5128  1.2337
 6990TIP3    H242530   4.343   0.391   0.439 -0.0320  1.7284 -1.2979
 6991TIP3   OH242531   1.343   2.271   8.385 -0.6246 -0.2651 -0.2375
 6991TIP3    H142532   1.358   2.208   8.455  0.5836  0.3966  0.1192
 6991TIP3    H242533   1.268   2.236   8.337  0.1379 -2.0839 -0.1739
 6992TIP3   OH242534   5.589   1.111   7.257 -0.1017  0.1694  0.5695
 6992TIP3    H142535   5.641   1.189   7.236 -1.6662  0.9666 -0.5674
 6992TIP3    H242536   5.653   1.047   7.287  1.2861  1.7603  1.1958
 6993TIP3   OH242537   4.630   6.072   8.352  0.0078 -0.5123 -0.9640
 6993TIP3    H142538   4.681   6.084   8.271 -0.5455  1.5043 -1.0816
 6993TIP3    H242539   4.548   6.119   8.335 -0.3535 -0.5566  0.5565
 6994TIP3   OH242540   0.424   0.392   1.164  0.7055 -0.2648 -0.2096
 6994TIP3    H142541   0.373   0.314   1.187 -0.2200 -0.3554 -2.2680
 6994TIP3    H242542   0.361   0.448   1.118  1.9328  0.6317 -0.8496
 6995TIP3   OH242543   5.116   4.715   7.875 -0.1668  0.1960 -0.1021
 6995TIP3    H142544   5.079   4.633   7.908 -0.6471  0.5774  0.3099
 6995TIP3    H242545   5.117   4.774   7.951  0.9047  0.3325 -0.1983
 6996TIP3   OH242546   0.365   2.038   6.549 -0.4044 -0.2165  0.6251
 6996TIP3    H142547   0.309   2.012   6.476 -1.1245 -0.2897  1.1833
 6996TIP3    H242548   0.393   2.127   6.528 -0.0199 -0.4929 -0.0721
 6997TIP3   OH242549   2.528   1.063   2.250 -0.8480  0.5820  0.1743
 6997TIP3    H142550   2.548   1.045   2.158 -4.1483  0.8905 -0.7097
 6997TIP3    H242551   2.558   1.153   2.264  0.0680  0.3917 -0.4284
 6998TIP3   OH242552   4.663   2.987   0.963  0.6242 -0.1253  0.0440
 6998TIP3    H142553   4.637   3.080   0.961 -1.0703 -0.5576  0.1775
 6998TIP3    H242554   4.758   2.989   0.961  0.6124  1.5865 -1.1409
 6999TIP3   OH242555   3.762   0.413   6.689  0.0909 -0.4202 -0.0866
 6999TIP3    H142556   3.855   0.435   6.693  0.2183 -1.0996  1.3457
 6999TIP3    H242557   3.730   0.432   6.777 -0.4213 -3.1617  0.4083
 7000TIP3   OH242558   0.240   4.629   6.900 -0.9600 -0.0782  0.0613
 7000TIP3    H142559   0.257   4.645   6.807  0.1156  0.6944  0.3617
 7000TIP3    H242560   0.152   4.592   6.903  0.0465 -3.0129 -1.5501
 7001TIP3   OH242561   0.420   4.433   7.334 -0.2213 -0.2196  0.0736
 7001TIP3    H142562   0.438   4.350   7.289 -3.1405 -1.7945  1.5364
 7001TIP3    H242563   0.428   4.412   7.427 -2.1022  0.7611  0.5083
 7002TIP3   OH242564   0.722   6.483   1.929  0.0649 -0.3193  0.7271
 7002TIP3    H142565   0.655   6.524   1.873  1.3498  0.7507 -0.0753
 7002TIP3    H242566   0.691   6.498   2.018  1.1836  3.9603  0.6146
 7003TIP3   OH242567   2.941   2.934   0.814  0.4148  0.5950 -0.3492
 7003TIP3    H142568   2.922   2.911   0.723  0.9194 -2.7705  0.2658
 7003TIP3    H242569   3.036   2.930   0.821  0.2797 -2.1820  0.9109
 7004TIP3   OH242570   6.669   0.763   7.649  0.0492  0.7529  0.0389
 7004TIP3    H142571   6.710   0.736   7.731 -0.4615  0.1596  0.1054
 7004TIP3    H242572   6.740   0.762   7.585 -0.1309 -1.9889 -0.2459
 7005TIP3   OH242573   5.834   3.857   0.117  0.3101  0.6047 -0.0949
 7005TIP3    H142574   5.829   3.777   0.170 -1.8311 -0.4062 -1.6569
 7005TIP3    H242575   5.757   3.908   0.143  0.1255  0.8375 -1.0533
 7006TIP3   OH242576   0.514   5.098   7.254  0.3507  0.3024  0.1439
 7006TIP3    H142577   0.559   5.063   7.177 -2.2473 -0.2051 -1.2636
 7006TIP3    H242578   0.437   5.143   7.218 -0.0325  1.5641  2.3686
 7007TIP3   OH242579   3.429   4.337   8.292  0.3424 -0.0093 -0.0377
 7007TIP3    H142580   3.437   4.416   8.238  2.8224  1.3885  2.1018
 7007TIP3    H242581   3.518   4.305   8.301 -0.5445 -2.7903 -0.3404
 7008TIP3   OH242582   5.279   3.621   8.269 -0.2294 -0.0774  0.0385
 7008TIP3    H142583   5.207   3.560   8.287 -0.9203  0.9676  0.8820
 7008TIP3    H242584   5.328   3.625   8.351 -0.2528  0.5858  0.0211
 7009TIP3   OH242585   4.649   3.557   7.972 -0.0994 -0.4716 -0.5809
 7009TIP3    H142586   4.584   3.599   8.027 -1.2539 -1.1289 -1.3880
 7009TIP3    H242587   4.723   3.539   8.030 -0.7929 -0.0474  0.4460
 7010TIP3   OH242588   1.039   2.471   1.116 -0.0504  0.1846  0.1672
 7010TIP3    H142589   0.960   2.466   1.061  0.6550 -0.1155 -0.8420
 7010TIP3    H242590   1.090   2.542   1.077 -0.3880  1.2409  1.5986
 7011TIP3   OH242591   4.392   2.854   8.522 -0.3697 -0.0390  0.5577
 7011TIP3    H142592   4.431   2.940   8.508 -0.9071  0.4086  1.6970
 7011TIP3    H242593   4.440   2.818   8.597 -0.3573 -0.6106  0.2865
 7012TIP3   OH242594   6.495   2.880   1.636 -0.2012 -0.0830 -0.3717
 7012TIP3    H142595   6.561   2.915   1.576  0.4331 -0.3424  0.1720
 7012TIP3    H242596   6.513   2.786   1.641 -2.1715 -0.6301 -2.1683
 7013TIP3   OH242597   2.057   0.112   8.355  0.0282 -0.1456  0.0736
 7013TIP3    H142598   2.054   0.085   8.263  0.2279 -1.0897  0.3340
 7013TIP3    H242599   2.103   0.196   8.354  1.1153 -0.7396 -0.5611
 7014TIP3   OH242600   4.371   2.086   1.381 -0.1635  0.4339  0.1320
 7014TIP3    H142601   4.439   2.025   1.407  0.1802  1.5187  1.9540
 7014TIP3    H242602   4.415   2.171   1.379 -0.6368  0.6822 -2.3121
 7015TIP3   OH242603   5.131   4.781   6.659 -0.1375  0.1171 -0.3907
 7015TIP3    H142604   5.101   4.746   6.743 -0.2367  1.0578 -0.0225
 7015TIP3    H242605   5.109   4.874   6.662  1.8810  0.6468 -0.5206
 7016TIP3   OH242606   4.866   4.000   1.612  0.4125 -0.3877  0.3310
 7016TIP3    H142607   4.934   3.991   1.546  0.8463  0.5560  0.6303
 7016TIP3    H242608   4.810   4.070   1.580  1.0185  0.5581  1.2667
 7017TIP3   OH242609   1.879   3.420   0.708  1.0693 -0.1239  0.4289
 7017TIP3    H142610   1.816   3.487   0.735  1.6416  0.7708 -0.4291
 7017TIP3    H242611   1.867   3.350   0.772 -2.4747 -1.0611 -1.0415
 7018TIP3   OH242612   1.256   5.558   7.060  0.1177 -0.3211 -0.7052
 7018TIP3    H142613   1.176   5.540   7.011 -0.5016  2.1701 -0.7489
 7018TIP3    H242614   1.225   5.595   7.142  1.2131  0.5867 -0.6872
 7019TIP3   OH242615   0.105   2.527   2.015  0.0439  0.0731 -0.4099
 7019TIP3    H142616   0.138   2.589   2.080 -1.8638  0.3423  0.3911
 7019TIP3    H242617   0.182   2.500   1.965  1.4023  0.6481  1.2863
 7020TIP3   OH242618   2.361   3.108   0.640  0.2770  0.1325 -0.1352
 7020TIP3    H142619   2.349   3.168   0.567 -0.3731 -1.1063 -1.0900
 7020TIP3    H242620   2.455   3.090   0.641  0.2458 -0.0778 -0.8646
 7021TIP3   OH242621   6.178   4.189   6.615  0.4340  0.1627 -0.3296
 7021TIP3    H142622   6.208   4.108   6.575  1.1167  0.3309 -0.1702
 7021TIP3    H242623   6.118   4.227   6.551  0.1299 -0.4471 -0.4153
 7022TIP3   OH242624   1.094   3.019   0.934  0.0435 -0.1607  0.1223
 7022TIP3    H142625   1.095   2.983   0.845 -1.5911 -0.3384  0.1395
 7022TIP3    H242626   1.016   3.073   0.936  0.2288  0.0765  1.3735
 7023TIP3   OH242627   1.244   1.879   7.811  0.6413  0.4038 -0.2185
 7023TIP3    H142628   1.198   1.797   7.793  0.0491  0.4614  0.9542
 7023TIP3    H242629   1.336   1.858   7.796  0.6917 -0.9681  1.6682
 7024TIP3   OH242630   2.455   6.145   6.097  0.7527 -0.5010 -0.6317
 7024TIP3    H142631   2.514   6.144   6.173 -0.8588  0.1730  0.7100
 7024TIP3    H242632   2.480   6.068   6.047  0.8877 -1.8900  1.4189
 7025TIP3   OH242633   2.914   0.802   6.677  0.0624 -0.0654 -0.2380
 7025TIP3    H142634   2.850   0.772   6.742 -0.9532  1.7293 -0.3469
 7025TIP3    H242635   2.861   0.838   6.606  1.1839 -1.0051 -1.6098
 7026TIP3   OH242636   2.857   1.470   8.278 -0.0640  0.3638 -0.0332
 7026TIP3    H142637   2.827   1.391   8.324  1.2516 -0.6405 -0.8210
 7026TIP3    H242638   2.889   1.527   8.347 -0.1606 -0.1890  0.4819
 7027TIP3   OH242639   4.321   4.492   7.281  0.1993  0.3011 -0.0260
 7027TIP3    H142640   4.371   4.440   7.344  1.7486  2.1107  0.3212
 7027TIP3    H242641   4.259   4.542   7.334  1.7966  2.1545  0.2350
 7028TIP3   OH242642   6.543   3.043   1.123 -0.3852  0.3888  0.5011
 7028TIP3    H142643   6.491   3.084   1.192 -0.9952 -0.1216  0.3524
 7028TIP3    H242644   6.561   2.955   1.156 -1.2040 -0.0709 -0.2438
 7029TIP3   OH242645   0.246   2.709   0.384  0.0855 -0.0624  0.1942
 7029TIP3    H142646   0.300   2.661   0.321 -0.7164 -1.0945  0.2787
 7029TIP3    H242647   0.181   2.646   0.414  0.0536  0.5972  1.5909
 7030TIP3   OH242648   2.552   4.137   2.096  0.4984 -0.4082  0.1783
 7030TIP3    H142649   2.460   4.141   2.069  0.1840  0.6780  1.3714
 7030TIP3    H242650   2.593   4.081   2.029 -0.7915 -0.0222 -0.9930
 7031TIP3   OH242651   5.445   2.154   8.722 -0.0103 -0.5723  1.1299
 7031TIP3    H142652   5.358   2.114   8.731  0.4724 -2.2017 -0.7028
 7031TIP3    H242653   5.482   2.152   8.810 -2.2528  1.3135  2.2228
 7032TIP3   OH242654   0.457   3.480   2.373  0.2541 -0.3410  0.5742
 7032TIP3    H142655   0.539   3.528   2.376  0.0916  0.0663 -0.9503
 7032TIP3    H242656   0.475   3.400   2.422  1.0523  0.4560  1.6489
 7033TIP3   OH242657   0.174   3.616   8.306  0.2997 -0.3289  0.4084
 7033TIP3    H142658   0.154   3.575   8.391 -2.5759 -3.0612 -1.3531
 7033TIP3    H242659   0.258   3.578   8.280  0.9691  0.1593  1.7662
 7034TIP3   OH242660   4.951   3.313   7.698  0.2455 -0.9208  0.2235
 7034TIP3    H142661   5.017   3.331   7.632 -1.1422 -0.1114 -0.9954
 7034TIP3    H242662   4.922   3.399   7.729  0.5074 -1.2731  1.5440
 7035TIP3   OH242663   0.338   4.496   0.619  0.6539 -0.1646  0.0168
 7035TIP3    H142664   0.364   4.578   0.661  0.3985  0.1994 -0.5204
 7035TIP3    H242665   0.242   4.500   0.615  0.6489 -0.4166 -0.1522
 7036TIP3   OH242666   6.299   0.344   1.865  0.2123  0.0637  0.2094
 7036TIP3    H142667   6.346   0.397   1.930  0.6796 -1.4910  1.2114
 7036TIP3    H242668   6.337   0.256   1.875 -0.6987 -0.5212 -1.2123
 7037TIP3   OH242669   1.285   6.489   8.840  0.7720  0.3374 -0.3318
 7037TIP3    H142670   1.330   6.521   8.761  0.5929  0.9192 -0.1971
 7037TIP3    H242671   1.247   6.405   8.813  2.6524 -0.6171 -0.2180
 7038TIP3   OH242672   5.131   1.482   8.837 -0.0092  0.6250 -0.5496
 7038TIP3    H142673   5.157   1.545   8.769 -1.9032  0.9287 -1.0577
 7038TIP3    H242674   5.141   1.530   8.919 -0.7147  1.3603 -0.8776
 7039TIP3   OH242675   1.292   0.388   8.688 -0.6279  0.8274 -0.3486
 7039TIP3    H142676   1.359   0.338   8.641 -1.2289  1.0980 -1.5170
 7039TIP3    H242677   1.212   0.375   8.638 -2.2320 -1.8521  2.5909
 7040TIP3   OH242678   2.250   4.812   6.619  0.0407 -0.7410 -0.3556
 7040TIP3    H142679   2.177   4.772   6.667 -0.1799 -1.5307 -1.3058
 7040TIP3    H242680   2.328   4.781   6.666 -0.1892 -0.8887 -0.0597
 7041TIP3   OH242681   3.930   2.736   6.535 -0.1151  0.1812 -0.7411
 7041TIP3    H142682   3.990   2.736   6.610  0.7587  0.6322 -1.4158
 7041TIP3    H242683   3.983   2.701   6.463 -1.6283 -2.5127 -0.6490
 7042TIP3   OH242684   2.618   0.115   0.403 -0.0999  0.3198  0.2545
 7042TIP3    H142685   2.523   0.128   0.403 -0.0626  0.6401  1.1975
 7042TIP3    H242686   2.641   0.103   0.495  0.6302 -0.8740 -0.0566
 7043TIP3   OH242687   3.766   1.749   1.294  0.4386 -0.3342 -0.3052
 7043TIP3    H142688   3.710   1.788   1.361  0.5343  0.8179 -0.8778
 7043TIP3    H242689   3.706   1.722   1.225  0.4115 -0.8885 -0.0741
 7044TIP3   OH242690   4.039   6.752   8.044 -0.2714  0.6227 -0.2031
 7044TIP3    H142691   4.123   6.790   8.019 -0.5376  0.7553 -0.9349
 7044TIP3    H242692   4.060   6.688   8.112  0.3503  1.0587  0.0208
 7045TIP3   OH242693   6.754   0.803   7.090  0.4300  0.4206 -0.1960
 7045TIP3    H142694   6.831   0.813   7.034 -1.2981  0.6624 -2.6936
 7045TIP3    H242695   6.702   0.881   7.074 -2.0504 -1.3621 -1.5409
 7046TIP3   OH242696   6.153   3.105   8.617 -0.1628  0.0961 -0.2015
 7046TIP3    H142697   6.143   3.010   8.625 -1.7270  0.3618  1.6771
 7046TIP3    H242698   6.064   3.140   8.628  0.5414  1.8360  0.3750
 7047TIP3   OH242699   1.507   5.762   6.974 -0.4529 -0.2948  0.3524
 7047TIP3    H142700   1.533   5.676   6.941 -3.5283 -1.5418  0.8166
 7047TIP3    H242701   1.458   5.802   6.902 -1.3454 -0.1277  1.0246
 7048TIP3   OH242702   6.139   6.659   8.274 -0.1025 -0.5047 -0.1206
 7048TIP3    H142703   6.135   6.604   8.196 -1.3342 -0.8406  0.1503
 7048TIP3    H242704   6.054   6.704   8.275  0.8571  1.4325 -0.3466
 7049TIP3   OH242705   4.104   3.802   1.207 -0.5684 -0.2434  0.1501
 7049TIP3    H142706   4.139   3.717   1.182 -1.8142 -0.3758 -1.2470
 7049TIP3    H242707   4.101   3.799   1.303 -1.3128 -2.0883  0.1046
 7050TIP3   OH242708   2.206   6.554   0.959  0.0327 -0.3273  0.0174
 7050TIP3    H142709   2.174   6.519   0.876  0.5010  0.9161 -0.7109
 7050TIP3    H242710   2.254   6.633   0.935 -0.6673  0.6197  1.5469
 7051TIP3   OH242711   5.233   4.062   1.500 -0.2297 -0.1199  0.7221
 7051TIP3    H142712   5.309   4.118   1.515  0.3517 -0.4131 -0.9192
 7051TIP3    H242713   5.268   3.985   1.456 -1.3700 -0.6611  0.7138
 7052TIP3   OH242714   0.255   2.739   5.871 -0.4465  0.0357 -0.0633
 7052TIP3    H142715   0.340   2.709   5.903 -1.0886 -0.7062  1.0514
 7052TIP3    H242716   0.264   2.833   5.861  0.4410 -0.0080  0.2569
 7053TIP3   OH242717   1.792   6.218   1.220 -0.0808  0.3814  0.0863
 7053TIP3    H142718   1.701   6.243   1.206  0.0991  0.3402 -1.2626
 7053TIP3    H242719   1.841   6.270   1.157  0.5612 -1.4745 -1.0115
 7054TIP3   OH242720   4.514   1.283   8.548  0.6432  0.1071 -0.0384
 7054TIP3    H142721   4.579   1.302   8.616  1.4206 -0.2546 -0.6634
 7054TIP3    H242722   4.548   1.206   8.503  0.0313  0.2135 -0.7082
 7055TIP3   OH242723   6.792   5.037   7.771 -0.1032 -0.5365 -0.0319
 7055TIP3    H142724   6.840   4.954   7.764  0.3777 -0.1297 -3.1560
 7055TIP3    H242725   6.728   5.034   7.700 -0.2077  1.6693 -0.0998
 7056TIP3   OH242726   4.745   3.485   1.239  0.1740 -0.4390  0.1652
 7056TIP3    H142727   4.741   3.572   1.279 -0.2779 -0.4871  0.2295
 7056TIP3    H242728   4.653   3.456   1.234  0.2592 -0.6011 -0.5400
 7057TIP3   OH242729   1.256   0.193   8.398 -0.0896  0.1753  0.2005
 7057TIP3    H142730   1.187   0.236   8.447 -0.7587 -0.6455  0.0210
 7057TIP3    H242731   1.337   0.237   8.424 -0.7863  1.9452 -0.4537
 7058TIP3   OH242732   1.973   4.887   8.628  0.1214  0.5556 -0.4276
 7058TIP3    H142733   1.978   4.799   8.590  0.4987 -0.0384  0.9109
 7058TIP3    H242734   1.965   4.871   8.722 -0.1902  1.9601 -0.2022
 7059TIP3   OH242735   1.295   5.524   0.042  0.1148  0.0706  0.0281
 7059TIP3    H142736   1.373   5.483   0.005  0.9176  1.4568  0.0904
 7059TIP3    H242737   1.253   5.456   0.093  1.5825 -0.5663  0.4274
 7060TIP3   OH242738   1.785   5.241   2.415 -0.3754 -0.1959  0.7096
 7060TIP3    H142739   1.769   5.335   2.402 -2.1889 -0.7088 -1.2169
 7060TIP3    H242740   1.872   5.237   2.455  0.6955  2.2167 -1.1472
 7061TIP3   OH242741   6.173   1.016   1.839  0.8199 -0.8643 -0.0044
 7061TIP3    H142742   6.178   1.027   1.934 -0.7359 -1.8709  0.2225
 7061TIP3    H242743   6.085   1.046   1.816  1.5846  0.4804 -1.3267
 7062TIP3   OH242744   5.873   1.508   0.491 -0.2340  1.0533  0.0901
 7062TIP3    H142745   5.792   1.487   0.537 -0.5321  2.5819  0.3254
 7062TIP3    H242746   5.906   1.586   0.535  0.5598  1.3441 -0.9682
 7063TIP3   OH242747   2.828   1.267   0.640 -0.3312 -0.0407  0.0174
 7063TIP3    H142748   2.761   1.230   0.698 -0.0794 -1.1525 -0.3694
 7063TIP3    H242749   2.799   1.356   0.622 -2.2551 -0.8180 -0.9588
 7064TIP3   OH242750   0.557   2.367   8.656 -0.1656 -0.2574 -0.0165
 7064TIP3    H142751   0.562   2.275   8.680  1.2935  0.1514  1.4385
 7064TIP3    H242752   0.472   2.396   8.688  0.6679 -0.3695  2.5693
 7065TIP3   OH242753   0.971   5.207   0.716  0.4792  0.2238  0.2981
 7065TIP3    H142754   0.950   5.299   0.698  0.5251  0.5082  1.6289
 7065TIP3    H242755   1.060   5.209   0.752  0.8131 -0.4400 -0.4479
 7066TIP3   OH242756   2.905   4.718   0.033  0.2951 -0.0480 -0.1807
 7066TIP3    H142757   2.912   4.776  -0.042 -0.6751  1.1985  0.6491
 7066TIP3    H242758   2.820   4.675   0.023  0.4986 -0.4623 -0.1806
 7067TIP3   OH242759   2.776   5.346   7.633 -0.3395  0.1386 -0.1531
 7067TIP3    H142760   2.767   5.439   7.654 -0.0341 -0.0262  0.7277
 7067TIP3    H242761   2.736   5.300   7.707 -0.5539 -0.4391 -0.6144
 7068TIP3   OH242762   1.478   1.514   0.089 -0.0895 -0.3788  0.6451
 7068TIP3    H142763   1.398   1.556   0.055  1.1021  1.5320  0.0349
 7068TIP3    H242764   1.448   1.464   0.165 -2.1309 -1.1518 -0.5731
 7069TIP3   OH242765   2.589   2.669   0.579  0.4266  0.3383  0.2293
 7069TIP3    H142766   2.542   2.683   0.497 -0.8620 -0.5586  0.7701
 7069TIP3    H242767   2.680   2.692   0.559 -0.2394  2.3309 -0.8072
 7070TIP3   OH242768   2.985   4.684   0.657 -0.0099 -0.2377  0.6647
 7070TIP3    H142769   2.926   4.736   0.712 -0.4937  0.8059 -0.7414
 7070TIP3    H242770   2.930   4.614   0.622 -0.6034  0.9569 -0.9498
 7071TIP3   OH242771   2.622   5.808   7.677 -0.1416  0.4417  0.2478
 7071TIP3    H142772   2.660   5.867   7.743  1.8278 -0.1244 -0.3251
 7071TIP3    H242773   2.580   5.867   7.615  0.2717  1.1445  0.6135
 7072TIP3   OH242774   0.987   3.815   6.865  0.0588  0.1752  0.6909
 7072TIP3    H142775   1.049   3.882   6.896 -0.5093  0.7805  0.5468
 7072TIP3    H242776   0.982   3.828   6.770  1.0743 -1.0585  0.4435
 7073LIG     C142777   1.399   5.531   8.294  0.0933 -0.1117 -0.2645
 7073LIG     C242778   1.369   5.470   8.436  0.4288  0.1565  0.3664
 7073LIG     C342779   1.314   5.337   8.409  0.1336  0.0550  0.7349
 7073LIG      O42780   1.273   5.552   8.499 -0.1725  0.2852 -0.1889
 7073LIG     H142781   1.309   5.529   8.230  1.2654 -0.9178 -1.9780
 7073LIG     H242782   1.486   5.490   8.238  2.0535  2.9710  0.2837
 7073LIG     H342783   1.430   5.636   8.315 -0.8830  0.0928  0.2055
 7073LIG     H442784   1.465   5.473   8.493  0.5931 -0.7595  0.1613
 7073LIG     H542785   1.378   5.262   8.358 -2.2905 -2.2277  0.8129
 7073LIG     H642786   1.216   5.342   8.358 -0.0961 -1.2377  1.0280
 7073LIG     H742787   1.290   5.281   8.502  0.8771 -1.0252  0.3038
 7073LIG     H842788   1.210   5.575   8.430 -3.2402 -2.4000  1.4388
   6.79352   6.79352   8.84432
