Title
42785
    1SAPS     N    1   1.540   2.056   6.832  0.1753 -0.1359 -0.0974
    1SAPS   HN1    2   1.522   2.138   6.894 -1.2363 -0.2289 -0.3419
    1SAPS   HN2    3   1.624   2.075   6.774  1.1087 -1.3178  0.8255
    1SAPS   HN3    4   1.454   2.051   6.773  0.2722 -1.0223 -0.1654
    1SAPS   C12    5   1.554   1.939   6.922  0.3784 -0.2703 -0.0683
    1SAPS  H12A    6   1.659   1.936   6.950  0.4482  1.6542 -0.0052
    1SAPS   C13    7   1.471   1.953   7.054 -0.2061  0.1905  0.5318
    1SAPS  O13A    8   1.404   2.058   7.068 -0.3609 -0.1849 -0.5418
    1SAPS  O13B    9   1.462   1.855   7.136 -0.0419  0.5802 -0.0611
    1SAPS   C11   10   1.534   1.803   6.842 -0.2437  0.1682  0.1466
    1SAPS  H11A   11   1.425   1.797   6.825 -0.2310 -1.7484  0.5326
    1SAPS  H11B   12   1.559   1.715   6.905  3.6183  1.7100  1.0420
    1SAPS     P   13   1.583   1.685   6.622  0.1762  0.0085 -0.0731
    1SAPS   O13   14   1.693   1.680   6.523  0.0629 -0.1463  0.2864
    1SAPS   O14   15   1.549   1.561   6.694 -0.3009  1.0011  0.1202
    1SAPS   O12   16   1.613   1.803   6.724  0.1149 -0.1138 -0.1521
    1SAPS   O11   17   1.441   1.733   6.553  0.5362  0.1037 -0.6470
    1SAPS    C1   18   1.408   1.859   6.496  0.4429  0.1673 -0.5696
    1SAPS    HA   19   1.324   1.911   6.546 -0.1181  0.6045 -1.9327
    1SAPS    HB   20   1.493   1.930   6.510  0.1884  0.0565  2.2318
    1SAPS    C2   21   1.375   1.863   6.347 -0.5644 -0.2787 -0.2797
    1SAPS    HS   22   1.274   1.820   6.328 -1.4611  0.5853  2.1917
    1SAPS   O21   23   1.476   1.811   6.262  0.2707 -0.5395 -0.2511
    1SAPS   C21   24   1.452   1.689   6.209 -0.3954 -0.0714 -0.5149
    1SAPS   O22   25   1.364   1.621   6.250 -0.2735 -0.1813  0.2542
    1SAPS   C22   26   1.554   1.645   6.104 -0.2992 -0.7897  0.0558
    1SAPS   H2R   27   1.651   1.626   6.156  0.5640  0.1553 -1.1594
    1SAPS   H2S   28   1.508   1.552   6.064 -0.0718  0.4134 -3.3052
    1SAPS    C3   29   1.345   2.006   6.311  0.1539  0.0883 -0.1113
    1SAPS    HX   30   1.445   2.055   6.315  1.1602 -1.7611 -1.1333
    1SAPS    HY   31   1.283   2.057   6.388  1.3255 -1.3775  1.9088
    1SAPS   O31   32   1.278   2.025   6.187 -0.5243 -0.3388 -0.1658
    1SAPS   C31   33   1.324   2.120   6.110  0.4523 -0.5846  0.2950
    1SAPS   O32   34   1.404   2.205   6.144  0.3941  0.0594 -0.0327
    1SAPS   C32   35   1.266   2.122   5.968 -0.0071 -0.0578  0.0937
    1SAPS   H2X   36   1.185   2.197   5.974 -0.2432 -0.2166 -0.9291
    1SAPS   H2Y   37   1.223   2.020   5.957 -0.0363 -0.0276 -0.0784
    1SAPS   C23   38   1.586   1.752   5.991  0.2736  0.4171  0.0727
    1SAPS   H3R   39   1.628   1.851   6.019  0.0571  1.3204 -2.5997
    1SAPS   H3S   40   1.490   1.788   5.950  1.5169  3.1677 -0.6057
    1SAPS   C24   41   1.674   1.700   5.878 -0.4274  0.1251 -0.8474
    1SAPS   H4R   42   1.768   1.660   5.922 -0.2618 -0.7194 -1.9339
    1SAPS   H4S   43   1.715   1.795   5.838  1.0270  0.5685  1.4878
    1SAPS   C25   44   1.607   1.607   5.780 -0.4006 -0.2648  0.2703
    1SAPS   H5R   45   1.600   1.506   5.821 -0.4848 -1.9365 -3.4825
    1SAPS   C26   46   1.584   1.632   5.659  0.0934 -0.0805  0.5384
    1SAPS   H6R   47   1.541   1.548   5.601 -2.1794  1.5058 -0.2078
    1SAPS   C27   48   1.594   1.766   5.581 -0.1176 -0.0606 -0.1039
    1SAPS   H7R   49   1.573   1.855   5.644 -0.8120 -0.7130  0.6078
    1SAPS   H7S   50   1.509   1.759   5.510  1.0740 -0.0429 -1.5993
    1SAPS   C28   51   1.724   1.800   5.513 -0.7259  0.3574 -0.2456
    1SAPS   H8R   52   1.787   1.875   5.563 -0.0402 -0.4934  0.2028
    1SAPS   C29   53   1.760   1.749   5.392 -0.2117 -0.7923  0.6589
    1SAPS   H9R   54   1.856   1.788   5.356  0.2709 -1.4756  1.1759
    1SAPS  C210   55   1.689   1.644   5.310  0.0614 -0.4358 -0.4768
    1SAPS  H10R   56   1.605   1.685   5.250 -1.0050  1.8205  2.3651
    1SAPS  H10S   57   1.636   1.570   5.375  0.1369  1.3580  1.7368
    1SAPS  C211   58   1.780   1.571   5.221  0.2571 -0.6424  0.6605
    1SAPS  H11R   59   1.887   1.593   5.233 -0.0978  1.5845  0.1018
    1SAPS  C212   60   1.735   1.502   5.114 -0.8646  0.5177 -0.2985
    1SAPS  H12R   61   1.804   1.437   5.059  0.0656 -0.0542  1.4766
    1SAPS  C213   62   1.601   1.489   5.062  0.8802 -0.1371  0.2731
    1SAPS  H13R   63   1.605   1.466   4.954 -0.5703  1.1420 -0.0836
    1SAPS  H13S   64   1.555   1.590   5.069  1.7315  0.1982  1.7079
    1SAPS  C214   65   1.521   1.381   5.131 -0.2093 -0.4376 -0.0304
    1SAPS  H14R   66   1.508   1.399   5.239 -0.7056 -1.2363  0.0517
    1SAPS  C215   67   1.449   1.280   5.091  1.0204  0.7927 -0.2288
    1SAPS  H15R   68   1.425   1.201   5.164  0.5870  0.8964 -0.2550
    1SAPS  C216   69   1.456   1.227   4.955  0.0373 -0.7935 -0.2321
    1SAPS  H16R   70   1.518   1.292   4.889 -2.2594  0.1246 -1.6345
    1SAPS  H16S   71   1.353   1.232   4.913  0.3579 -0.5185 -1.0067
    1SAPS  C217   72   1.499   1.086   4.930  0.5063 -0.3822 -0.4243
    1SAPS  H17R   73   1.459   1.065   4.828  2.0116 -0.9175 -0.9314
    1SAPS  H17S   74   1.445   1.028   5.007 -0.5911 -0.3488 -1.1495
    1SAPS  C218   75   1.647   1.052   4.943  0.4866  0.2162  0.4674
    1SAPS  H18R   76   1.703   1.109   4.866 -1.7419  0.2476 -1.2403
    1SAPS  H18S   77   1.657   0.952   4.897 -0.9224  0.1768  0.1969
    1SAPS  C219   78   1.719   1.066   5.072  0.7835 -0.5655 -0.0086
    1SAPS  H19R   79   1.717   1.173   5.102 -2.1045 -0.8750  1.2004
    1SAPS  H19S   80   1.825   1.038   5.057  1.1859  0.4001  0.8690
    1SAPS  C220   81   1.681   0.988   5.197 -0.9785 -0.1774 -0.3728
    1SAPS  H20R   82   1.574   1.010   5.212 -0.9061  0.0042 -0.1277
    1SAPS  H20S   83   1.740   1.025   5.284  1.8647  0.1639 -2.3076
    1SAPS  H20T   84   1.684   0.877   5.184  0.7291 -0.1239 -0.7847
    1SAPS   C33   85   1.377   2.156   5.859 -0.1203  0.1775  0.5513
    1SAPS   H3X   86   1.466   2.090   5.869 -0.3557  0.1172  2.6412
    1SAPS   H3Y   87   1.421   2.258   5.859 -0.9153  0.5616  2.3886
    1SAPS   C34   88   1.324   2.100   5.722 -0.0473 -0.6136  0.0570
    1SAPS   H4X   89   1.315   1.990   5.725 -0.0564 -0.5966  2.5357
    1SAPS   H4Y   90   1.405   2.127   5.651  1.0041 -3.6768 -0.0229
    1SAPS   C35   91   1.193   2.157   5.660 -0.4823 -0.0752  0.3627
    1SAPS   H5X   92   1.182   2.268   5.658 -0.7607 -0.1168 -1.0111
    1SAPS   H5Y   93   1.101   2.117   5.708  1.2304 -3.7527  0.8938
    1SAPS   C36   94   1.187   2.111   5.512  0.1203 -0.5636  0.1676
    1SAPS   H6X   95   1.235   2.011   5.507 -0.6127 -0.9354  0.4390
    1SAPS   H6Y   96   1.244   2.185   5.453  0.1657 -1.5123 -1.0061
    1SAPS   C37   97   1.043   2.101   5.465 -0.6585  0.8171  0.4967
    1SAPS   H7X   98   0.990   2.194   5.498 -2.2598  0.2476 -0.3400
    1SAPS   H7Y   99   0.999   2.015   5.519  1.5955 -1.1023 -0.5860
    1SAPS   C38  100   1.035   2.081   5.312 -0.4138  0.8742  0.6884
    1SAPS   H8X  101   0.932   2.049   5.284 -0.4983  3.5045 -2.6651
    1SAPS   H8Y  102   1.102   1.997   5.282  0.1106  0.5973  2.4715
    1SAPS   C39  103   1.073   2.213   5.237  0.5145 -0.3180 -0.4991
    1SAPS   H9X  104   1.162   2.255   5.289 -0.1758  0.5928 -0.0127
    1SAPS   H9Y  105   0.996   2.292   5.247 -0.0650 -0.9973  0.5119
    1SAPS  C310  106   1.077   2.201   5.089 -0.3569  0.5021  0.6325
    1SAPS  H10X  107   0.999   2.133   5.048 -0.5308  0.5751  0.8365
    1SAPS  H10Y  108   1.169   2.149   5.056  0.3753  2.1135  0.0141
    1SAPS  C311  109   1.082   2.334   5.002  0.3058 -0.3039 -0.2244
    1SAPS  H11X  110   1.189   2.362   5.008  0.3432 -0.5563  0.3391
    1SAPS  H11Y  111   1.014   2.403   5.056  0.2898 -1.5244  1.4068
    1SAPS  C312  112   1.030   2.308   4.865 -0.3672 -0.2323  0.2198
    1SAPS  H12X  113   0.936   2.254   4.889  0.9451 -2.5636  0.4170
    1SAPS  H12Y  114   1.103   2.247   4.808  2.0446  0.6632  2.1707
    1SAPS  C313  115   0.990   2.435   4.793  0.7500 -0.2450  0.9576
    1SAPS  H13X  116   1.079   2.501   4.801 -1.1423  2.3462  1.7866
    1SAPS  H13Y  117   0.898   2.468   4.846  0.2574 -0.4452  0.2420
    1SAPS  C314  118   0.946   2.406   4.649 -0.0672 -0.2582 -0.2947
    1SAPS  H14X  119   0.898   2.495   4.604  0.5613  0.5080  0.5214
    1SAPS  H14Y  120   0.870   2.325   4.641  0.0854 -0.3182 -1.3028
    1SAPS  C315  121   1.063   2.373   4.551  0.1996  0.6198 -0.0027
    1SAPS  H15X  122   1.115   2.279   4.576  1.8633  1.0751 -1.5341
    1SAPS  H15Y  123   1.144   2.449   4.559  0.2269  0.5913 -0.0064
    1SAPS  C316  124   1.016   2.356   4.405 -0.0759 -0.0377 -0.0766
    1SAPS  H16X  125   0.929   2.288   4.413  0.1840 -0.4046 -0.3406
    1SAPS  H16Y  126   1.096   2.312   4.342 -0.8824 -1.9993  0.1951
    1SAPS  C317  127   0.972   2.489   4.345  0.2049 -0.0322 -0.5252
    1SAPS  H17X  128   1.030   2.517   4.255  1.0515  1.9315  0.5876
    1SAPS  H17Y  129   0.991   2.570   4.418  1.0965 -1.7667  1.2641
    1SAPS  C318  130   0.824   2.513   4.312 -0.0005 -0.6081  0.0376
    1SAPS  H18X  131   0.812   2.621   4.294  2.3455 -0.3427 -0.3072
    1SAPS  H18Y  132   0.755   2.479   4.392  1.4503 -3.4820  0.2277
    1SAPS  H18Z  133   0.791   2.458   4.222  1.1235  0.2823 -0.9441
    2SAPS     N  134   2.076   2.472   6.601 -0.3308  0.2250 -0.3054
    2SAPS   HN1  135   2.022   2.549   6.645 -2.2116 -1.7122  0.9893
    2SAPS   HN2  136   2.125   2.507   6.516 -0.2590 -1.1702 -0.8685
    2SAPS   HN3  137   2.012   2.395   6.572 -0.1334 -0.1704  0.2868
    2SAPS   C12  138   2.182   2.412   6.694  0.3738  0.6586 -0.6068
    2SAPS  H12A  139   2.253   2.489   6.721  0.8825  0.2621 -0.8009
    2SAPS   C13  140   2.139   2.368   6.838 -0.1964 -0.8580 -0.1615
    2SAPS  O13A  141   2.038   2.426   6.886  0.0925  0.7082  0.0657
    2SAPS  O13B  142   2.227   2.311   6.907 -0.0612  0.0866 -0.2355
    2SAPS   C11  143   2.255   2.295   6.609  0.6809 -0.1846  0.0646
    2SAPS  H11A  144   2.182   2.226   6.561 -0.3843  0.6471  0.4451
    2SAPS  H11B  145   2.309   2.238   6.687 -0.2507  1.5745  2.0905
    2SAPS     P  146   2.483   2.335   6.493  0.0891 -0.0881 -0.0976
    2SAPS   O13  147   2.560   2.381   6.615 -0.3719 -0.3475 -0.2642
    2SAPS   O14  148   2.507   2.199   6.436  0.2044 -0.1044  0.0856
    2SAPS   O12  149   2.330   2.352   6.509  0.7975  0.3998  0.0602
    2SAPS   O11  150   2.510   2.433   6.365 -0.0679  0.4501  0.5593
    2SAPS    C1  151   2.630   2.399   6.287  0.2658 -0.4064 -0.0964
    2SAPS    HA  152   2.719   2.403   6.354  0.3012  1.7136 -0.2195
    2SAPS    HB  153   2.630   2.294   6.250 -0.3285 -0.5016  0.1588
    2SAPS    C2  154   2.658   2.497   6.167  0.5413  0.3643 -1.0364
    2SAPS    HS  155   2.669   2.599   6.209 -2.6048  0.5943 -0.4965
    2SAPS   O21  156   2.534   2.494   6.091  0.4972  0.4772  0.0783
    2SAPS   C21  157   2.513   2.605   6.024 -0.6051  0.1959  0.0640
    2SAPS   O22  158   2.574   2.709   6.036 -0.0787 -0.0358  0.1750
    2SAPS   C22  159   2.397   2.574   5.925 -0.4980  0.1955  0.2317
    2SAPS   H2R  160   2.396   2.466   5.898 -3.3803  0.6676 -2.1305
    2SAPS   H2S  161   2.305   2.598   5.981 -0.0748  1.0194  0.6033
    2SAPS    C3  162   2.784   2.455   6.095 -0.1094  0.4471  0.8581
    2SAPS    HX  163   2.764   2.351   6.064  2.5164  0.0983  0.1065
    2SAPS    HY  164   2.877   2.451   6.156  1.3307  4.3524 -0.7145
    2SAPS   O31  165   2.811   2.538   5.973  0.2122 -0.1891 -0.3055
    2SAPS   C31  166   2.865   2.654   5.999  0.2201  0.0033 -0.2212
    2SAPS   O32  167   2.900   2.691   6.108 -0.0154 -0.2396 -0.1872
    2SAPS   C32  168   2.876   2.742   5.872 -0.4277 -0.7227 -0.3867
    2SAPS   H2X  169   2.963   2.807   5.891 -2.4495  1.6587  1.3558
    2SAPS   H2Y  170   2.785   2.807   5.871  0.3343  0.3816  0.3913
    2SAPS   C23  171   2.396   2.671   5.808 -0.7004 -1.0926  0.8305
    2SAPS   H3R  172   2.496   2.667   5.758 -1.8608 -1.6523 -1.6220
    2SAPS   H3S  173   2.381   2.775   5.845  0.9407  0.7732 -3.0905
    2SAPS   C24  174   2.289   2.626   5.706  0.5898 -0.0815  0.2068
    2SAPS   H4R  175   2.199   2.603   5.766  1.8747 -3.4221  1.0511
    2SAPS   H4S  176   2.312   2.526   5.663 -0.6733  0.8088 -2.8096
    2SAPS   C25  177   2.271   2.719   5.591  0.3414  0.0104  0.2779
    2SAPS   H5R  178   2.370   2.745   5.549  1.2673  1.4313  3.1086
    2SAPS   C26  179   2.161   2.784   5.549  0.2468 -0.5411  0.1619
    2SAPS   H6R  180   2.185   2.856   5.469  2.0387  0.1958  1.3022
    2SAPS   C27  181   2.015   2.770   5.597  0.6669 -0.1225  0.4004
    2SAPS   H7R  182   1.947   2.847   5.554 -1.2027 -1.6885  0.3586
    2SAPS   H7S  183   2.013   2.796   5.705 -1.6308  1.6178  0.0305
    2SAPS   C28  184   1.962   2.634   5.583  0.3254  0.2107  0.1468
    2SAPS   H8R  185   1.992   2.553   5.651  1.3291 -0.6658 -1.2746
    2SAPS   C29  186   1.886   2.586   5.477  0.7007  0.6794 -0.1095
    2SAPS   H9R  187   1.846   2.484   5.476  1.0289  0.4687  2.0546
    2SAPS  C210  188   1.852   2.663   5.352 -0.4092 -0.5433  0.3433
    2SAPS  H10R  189   1.778   2.741   5.377  0.4713  0.5621 -0.4492
    2SAPS  H10S  190   1.806   2.586   5.287  0.6618 -0.2108 -0.8439
    2SAPS  C211  191   1.959   2.710   5.260 -0.1745 -0.1089 -0.5603
    2SAPS  H11R  192   2.061   2.684   5.291  0.3412 -0.0758 -2.1233
    2SAPS  C212  193   1.935   2.772   5.144 -0.7734 -0.4395 -0.1724
    2SAPS  H12R  194   2.017   2.801   5.076  0.7511 -1.4827  1.1553
    2SAPS  C213  195   1.795   2.805   5.093 -0.5483 -0.7222 -0.2849
    2SAPS  H13R  196   1.721   2.762   5.164  0.0394 -0.4263  0.5310
    2SAPS  H13S  197   1.774   2.769   4.990  0.5852  0.7454 -1.0705
    2SAPS  C214  198   1.762   2.956   5.101 -0.8911 -0.1417 -0.3721
    2SAPS  H14R  199   1.675   2.978   5.164 -0.7190 -2.1071  0.6463
    2SAPS  C215  200   1.826   3.046   5.024 -0.7046  0.2001  0.1849
    2SAPS  H15R  201   1.820   3.156   5.032  3.1820  0.4388  1.6916
    2SAPS  C216  202   1.928   3.020   4.921 -0.0252  0.2726  0.2700
    2SAPS  H16R  203   1.970   2.918   4.927 -0.8302  0.0037  2.0185
    2SAPS  H16S  204   2.012   3.087   4.949  0.5741 -1.1866  2.1865
    2SAPS  C217  205   1.896   3.035   4.772 -0.1739  1.1063  0.0642
    2SAPS  H17R  206   1.989   3.022   4.713 -1.0030  2.1105 -1.5507
    2SAPS  H17S  207   1.860   3.137   4.748  0.0247  0.7120 -2.1022
    2SAPS  C218  208   1.808   2.926   4.725 -0.1129  0.5393 -1.0252
    2SAPS  H18R  209   1.708   2.930   4.773 -0.3683  0.4229 -1.5381
    2SAPS  H18S  210   1.859   2.831   4.752  1.9160  2.0867  1.0403
    2SAPS  C219  211   1.784   2.903   4.574 -0.6920  0.4810 -0.9300
    2SAPS  H19R  212   1.727   2.992   4.539 -1.7590  0.5357  0.7950
    2SAPS  H19S  213   1.710   2.820   4.572  0.6014 -1.1195  3.7029
    2SAPS  C220  214   1.911   2.885   4.495 -0.0051 -0.3090 -0.1889
    2SAPS  H20R  215   1.970   2.798   4.531  1.7425  1.0684  0.3818
    2SAPS  H20S  216   1.979   2.972   4.502  2.9775 -2.5454  0.5836
    2SAPS  H20T  217   1.879   2.873   4.389 -0.9370  0.8266 -0.0663
    2SAPS   C33  218   2.876   2.667   5.736 -0.5518 -0.6458 -0.3951
    2SAPS   H3X  219   2.785   2.603   5.735 -0.9817 -0.0848  0.7335
    2SAPS   H3Y  220   2.967   2.604   5.732 -0.6908 -0.8833  0.0345
    2SAPS   C34  221   2.887   2.765   5.622 -0.4581  0.5463 -0.5656
    2SAPS   H4X  222   2.994   2.788   5.602 -0.3860  0.3068 -0.4676
    2SAPS   H4Y  223   2.831   2.855   5.654  0.1704  1.2558 -1.4202
    2SAPS   C35  224   2.839   2.705   5.494  0.5381  0.1957  0.1542
    2SAPS   H5X  225   2.739   2.660   5.515  0.7539  0.3930  1.7060
    2SAPS   H5Y  226   2.911   2.626   5.465  0.2233 -0.3281  0.7827
    2SAPS   C36  227   2.819   2.796   5.375 -0.5652  0.0591 -0.5209
    2SAPS   H6X  228   2.749   2.872   5.415 -2.6659 -0.2340 -3.3392
    2SAPS   H6Y  229   2.767   2.740   5.294  0.0927 -4.1488  1.6660
    2SAPS   C37  230   2.944   2.863   5.330 -1.1676 -0.1851  0.1929
    2SAPS   H7X  231   3.010   2.782   5.291 -1.3176 -0.1578 -0.1229
    2SAPS   H7Y  232   2.983   2.928   5.411 -1.8109 -0.1487  0.4789
    2SAPS   C38  233   2.913   2.954   5.202  0.1422 -0.4640  0.1717
    2SAPS   H8X  234   3.012   3.002   5.188  1.3033 -2.2449  1.6231
    2SAPS   H8Y  235   2.841   3.037   5.217  1.1883  0.3439  0.8478
    2SAPS   C39  236   2.880   2.888   5.075  0.0964  0.0232  0.7325
    2SAPS   H9X  237   2.776   2.852   5.087 -1.6798  4.0471 -0.9479
    2SAPS   H9Y  238   2.957   2.810   5.052  0.3585  0.1496  1.1835
    2SAPS  C310  239   2.877   2.987   4.959  0.1372 -0.4580  0.0209
    2SAPS  H10X  240   2.973   3.037   4.935  0.7111 -1.9952 -0.9759
    2SAPS  H10Y  241   2.805   3.065   4.994  1.5436  1.4660 -1.2011
    2SAPS  C311  242   2.839   2.916   4.826 -0.3808  0.5010  0.3453
    2SAPS  H11X  243   2.738   2.871   4.822  0.1284 -0.7676  0.9713
    2SAPS  H11Y  244   2.908   2.829   4.820  0.2566  0.8652  1.8319
    2SAPS  C312  245   2.860   2.993   4.697 -0.3817 -0.8441  0.3550
    2SAPS  H12X  246   2.964   2.981   4.658 -0.2427  0.8498  0.0994
    2SAPS  H12Y  247   2.855   3.102   4.720  1.2593 -0.9919  1.6008
    2SAPS  C313  248   2.756   2.953   4.593  0.1922 -0.0220 -0.5518
    2SAPS  H13X  249   2.659   2.935   4.643  0.5159 -0.6291 -0.1364
    2SAPS  H13Y  250   2.793   2.856   4.553  0.8792 -0.7926  1.8081
    2SAPS  C314  251   2.733   3.063   4.486 -0.4743 -0.0169 -0.6279
    2SAPS  H14X  252   2.761   3.164   4.525 -0.9212 -0.1352  0.0145
    2SAPS  H14Y  253   2.625   3.081   4.472 -0.3929  1.8522  0.7654
    2SAPS  C315  254   2.810   3.025   4.359 -0.7972  0.3935  0.6373
    2SAPS  H15X  255   2.767   2.931   4.320 -0.8947  0.8801 -0.4667
    2SAPS  H15Y  256   2.916   3.003   4.387  0.1857  0.9733 -2.2702
    2SAPS  C316  257   2.814   3.127   4.241 -0.1080  0.1219  1.1469
    2SAPS  H16X  258   2.720   3.126   4.181  0.3607  2.5631  0.2613
    2SAPS  H16Y  259   2.894   3.097   4.169 -1.5649 -1.1981  0.0005
    2SAPS  C317  260   2.851   3.270   4.281  0.1019 -0.1780  0.0527
    2SAPS  H17X  261   2.946   3.274   4.338  0.5816  0.3405 -0.7591
    2SAPS  H17Y  262   2.774   3.316   4.345 -1.7457 -1.0742 -1.4271
    2SAPS  C318  263   2.876   3.359   4.149  0.0046 -0.0198  0.2050
    2SAPS  H18X  264   2.949   3.313   4.079 -0.4932 -1.9935  0.9289
    2SAPS  H18Y  265   2.918   3.456   4.182  0.8569 -0.3494  0.1116
    2SAPS  H18Z  266   2.785   3.375   4.088 -0.2221 -1.8421  0.0264
    3SAPS     N  267   2.280   1.043   6.653 -0.5338  0.9651  0.4349
    3SAPS   HN1  268   2.381   1.055   6.628 -0.3795  0.9399  1.0428
    3SAPS   HN2  269   2.243   0.956   6.611  1.5809 -0.6274  1.6831
    3SAPS   HN3  270   2.225   1.129   6.633 -0.9701  0.8338  1.0609
    3SAPS   C12  271   2.297   1.026   6.799  0.3909 -0.2612 -0.8376
    3SAPS  H12A  272   2.391   0.974   6.812 -1.2641 -3.3648 -0.1049
    3SAPS   C13  273   2.298   1.161   6.874  0.1240 -0.0268  0.7783
    3SAPS  O13A  274   2.268   1.267   6.812 -0.3430  0.1320  0.1921
    3SAPS  O13B  275   2.308   1.156   6.999  0.1365 -0.1966  0.1414
    3SAPS   C11  276   2.188   0.924   6.832  0.4231 -0.5295 -0.2728
    3SAPS  H11A  277   2.089   0.961   6.797 -0.5542 -2.9115 -0.2023
    3SAPS  H11B  278   2.180   0.914   6.942  0.5711  3.7572  0.2900
    3SAPS     P  279   2.127   0.711   6.690  0.1108 -0.3088 -0.0963
    3SAPS   O13  280   2.208   0.605   6.626  0.2496 -0.7059  0.2875
    3SAPS   O14  281   2.017   0.672   6.786  0.3558 -0.5321 -0.2624
    3SAPS   O12  282   2.220   0.797   6.778 -0.1057 -0.1253  0.6782
    3SAPS   O11  283   2.072   0.826   6.589 -0.1606 -0.0817  0.2190
    3SAPS    C1  284   2.054   0.790   6.451 -0.1040  0.1707 -0.5354
    3SAPS    HA  285   2.142   0.734   6.414  0.6709  0.1780  1.1938
    3SAPS    HB  286   1.963   0.728   6.438 -1.1409  1.6124 -0.3605
    3SAPS    C2  287   2.037   0.912   6.357  0.0883  0.1047  0.6249
    3SAPS    HS  288   2.131   0.970   6.368  1.4875 -1.8564 -0.2916
    3SAPS   O21  289   1.910   0.970   6.404  0.2990  0.0966  0.4406
    3SAPS   C21  290   1.920   1.062   6.500 -0.2910 -0.0369 -0.7769
    3SAPS   O22  291   2.025   1.114   6.537  0.3611 -0.5078 -0.2045
    3SAPS   C22  292   1.781   1.112   6.541  0.9405 -0.3569  0.1124
    3SAPS   H2R  293   1.721   1.020   6.557  1.7429 -0.8301  0.4773
    3SAPS   H2S  294   1.771   1.171   6.635 -1.3110  1.0047 -0.9112
    3SAPS    C3  295   2.019   0.876   6.208  0.6055  0.3072 -0.5010
    3SAPS    HX  296   2.012   0.967   6.146  2.1861  1.6032  1.0951
    3SAPS    HY  297   1.918   0.829   6.209 -0.5809  2.5065  3.2956
    3SAPS   O31  298   2.120   0.788   6.161  0.1478 -0.7040  0.2497
    3SAPS   C31  299   2.231   0.853   6.123  0.0399  0.0403  0.2199
    3SAPS   O32  300   2.258   0.971   6.145 -0.2808 -0.5972 -0.0411
    3SAPS   C32  301   2.318   0.756   6.039 -0.2262  0.0682 -0.0037
    3SAPS   H2X  302   2.298   0.656   6.085 -0.2078 -0.2885 -0.7626
    3SAPS   H2Y  303   2.422   0.791   6.056  0.2194 -0.9186 -0.5889
    3SAPS   C23  304   1.735   1.203   6.427  0.5711  0.2895  0.5209
    3SAPS   H3R  305   1.627   1.219   6.443  0.4840 -1.0578  1.4252
    3SAPS   H3S  306   1.756   1.158   6.328 -0.9204 -2.2534  1.2788
    3SAPS   C24  307   1.797   1.339   6.445 -0.2355 -0.2057 -0.1125
    3SAPS   H4R  308   1.908   1.339   6.449 -0.1783 -0.7390 -1.3821
    3SAPS   H4S  309   1.753   1.378   6.539 -1.2524 -1.8082  0.1082
    3SAPS   C25  310   1.761   1.419   6.323 -0.0281 -0.3329  0.4229
    3SAPS   H5R  311   1.671   1.478   6.348  0.0499 -0.2568  0.5287
    3SAPS   C26  312   1.846   1.455   6.223 -0.0712 -0.0603  0.7321
    3SAPS   H6R  313   1.820   1.525   6.142 -0.8444  1.3755  2.1715
    3SAPS   C27  314   1.979   1.394   6.206 -0.2951 -0.3909 -0.3579
    3SAPS   H7R  315   1.974   1.287   6.236  1.8679 -0.8168 -1.3280
    3SAPS   H7S  316   2.036   1.433   6.292  2.6592  0.8712 -2.7157
    3SAPS   C28  317   2.048   1.412   6.076  0.1532  0.3913 -0.1214
    3SAPS   H8R  318   2.118   1.495   6.089  2.1840 -1.1765 -0.4075
    3SAPS   C29  319   2.033   1.339   5.964 -0.5311  0.2230 -0.2615
    3SAPS   H9R  320   2.092   1.371   5.877  1.9575 -0.3634  1.0843
    3SAPS  C210  321   1.950   1.218   5.941 -0.3306  0.5988 -0.1529
    3SAPS  H10R  322   1.964   1.147   6.025  1.4205  0.2517 -0.7064
    3SAPS  H10S  323   1.992   1.171   5.850 -1.2006 -2.0346  0.7081
    3SAPS  C211  324   1.799   1.232   5.940  0.2602 -0.1312  0.1782
    3SAPS  H11R  325   1.756   1.265   6.035 -0.4626 -0.4992 -0.0151
    3SAPS  C212  326   1.715   1.201   5.837  0.7342 -0.6741  0.4616
    3SAPS  H12R  327   1.608   1.224   5.849  0.3896 -1.2121 -1.3072
    3SAPS  C213  328   1.757   1.146   5.699  0.2925 -0.2704 -0.2735
    3SAPS  H13R  329   1.717   1.043   5.691  1.5456 -0.9302  1.4175
    3SAPS  H13S  330   1.867   1.134   5.697  0.8611  3.1354  2.4721
    3SAPS  C214  331   1.709   1.227   5.578 -0.2494 -0.2362  0.6600
    3SAPS  H14R  332   1.791   1.254   5.510  0.3632  0.8153  1.7805
    3SAPS  C215  333   1.586   1.267   5.537  0.6475 -0.7581 -0.5495
    3SAPS  H15R  334   1.590   1.345   5.459 -2.7821 -1.2903 -1.4001
    3SAPS  C216  335   1.452   1.253   5.607 -1.0609 -0.1285  0.7315
    3SAPS  H16R  336   1.408   1.350   5.638 -0.9777 -0.2206  1.1425
    3SAPS  H16S  337   1.464   1.185   5.694  0.8831 -1.6241 -0.6230
    3SAPS  C217  338   1.353   1.187   5.511 -0.0466  0.0135  0.4658
    3SAPS  H17R  339   1.357   1.239   5.412  1.6857  0.0818  0.5442
    3SAPS  H17S  340   1.250   1.196   5.551 -0.0316 -0.9339  0.7283
    3SAPS  C218  341   1.374   1.030   5.499  0.2712 -0.3909 -0.0994
    3SAPS  H18R  342   1.392   0.988   5.600 -0.3400  0.1041  0.2261
    3SAPS  H18S  343   1.468   1.019   5.440 -1.0516  2.8978 -3.2167
    3SAPS  C219  344   1.255   0.965   5.431  0.6799  0.1618  0.2915
    3SAPS  H19R  345   1.255   0.857   5.458 -1.2791 -0.1931 -0.9165
    3SAPS  H19S  346   1.169   1.011   5.483  0.9820  0.6068  0.4003
    3SAPS  C220  347   1.243   0.975   5.280  0.2482 -0.2924  0.2516
    3SAPS  H20R  348   1.331   0.938   5.224  1.7373  1.2100  1.5007
    3SAPS  H20S  349   1.238   1.081   5.250 -0.9761 -0.9307 -2.0399
    3SAPS  H20T  350   1.148   0.933   5.239  0.4860  0.5808 -1.2497
    3SAPS   C33  351   2.279   0.740   5.890 -0.4259 -0.0153  0.5256
    3SAPS   H3X  352   2.358   0.690   5.830 -0.4653  0.4943  0.0367
    3SAPS   H3Y  353   2.281   0.843   5.849 -0.0463 -0.4329 -0.5225
    3SAPS   C34  354   2.145   0.676   5.871  0.0410  0.0500 -0.2190
    3SAPS   H4X  355   2.063   0.740   5.908 -0.5121 -0.2489 -0.8923
    3SAPS   H4Y  356   2.136   0.584   5.932  5.9019 -0.4352  0.5282
    3SAPS   C35  357   2.117   0.642   5.727 -0.5084  0.0523 -1.0427
    3SAPS   H5X  358   2.158   0.543   5.699  0.4973  0.3924 -0.8180
    3SAPS   H5Y  359   2.011   0.612   5.713 -1.5505  2.4907  0.8669
    3SAPS   C36  360   2.137   0.747   5.619 -1.0459  0.0293  0.5746
    3SAPS   H6X  361   2.246   0.765   5.602 -1.0919 -0.0173  0.2320
    3SAPS   H6Y  362   2.097   0.848   5.641 -0.4981  0.3384  0.1723
    3SAPS   C37  363   2.086   0.706   5.481  0.0030  0.0330  1.3187
    3SAPS   H7X  364   1.975   0.704   5.477  0.0169  0.7449  0.0278
    3SAPS   H7Y  365   2.125   0.606   5.452  0.1190  0.6682 -0.8817
    3SAPS   C38  366   2.129   0.811   5.374  0.2792  0.2843 -0.3353
    3SAPS   H8X  367   2.232   0.796   5.336  0.1046 -0.2036 -0.6217
    3SAPS   H8Y  368   2.127   0.910   5.425 -3.1213  0.6188 -0.8468
    3SAPS   C39  369   2.038   0.828   5.253  0.6430 -0.1389  0.7472
    3SAPS   H9X  370   2.063   0.920   5.196  1.2043 -0.8292 -0.1494
    3SAPS   H9Y  371   1.935   0.849   5.288  1.2720  1.7448  1.6358
    3SAPS  C310  372   2.033   0.703   5.172  0.4426 -0.3979  0.3546
    3SAPS  H10X  373   1.990   0.626   5.240  0.2732  1.5092  2.5487
    3SAPS  H10Y  374   2.136   0.670   5.147 -0.7571 -1.6288 -3.6544
    3SAPS  C311  375   1.952   0.715   5.040 -0.6381 -0.7235  0.0150
    3SAPS  H11X  376   1.857   0.766   5.063 -0.4674 -0.8289  1.0383
    3SAPS  H11Y  377   1.923   0.613   5.008 -1.0142 -1.0649  1.3795
    3SAPS  C312  378   2.029   0.780   4.925  0.0063 -0.2595  0.0309
    3SAPS  H12X  379   2.116   0.713   4.910  1.5947  1.9236 -1.0717
    3SAPS  H12Y  380   2.070   0.879   4.957  0.9735 -0.0710 -1.7256
    3SAPS  C313  381   1.954   0.811   4.794 -0.0199 -0.2065  0.0176
    3SAPS  H13X  382   2.033   0.800   4.716  0.8770  0.7724  0.7619
    3SAPS  H13Y  383   1.929   0.918   4.786 -1.3052 -0.5569 -0.8202
    3SAPS  C314  384   1.837   0.731   4.756  0.0561 -0.1901 -0.2232
    3SAPS  H14X  385   1.767   0.723   4.841  0.7784 -0.2629  0.3722
    3SAPS  H14Y  386   1.861   0.626   4.729 -2.8827 -0.7391 -1.0221
    3SAPS  C315  387   1.771   0.778   4.625  0.4023 -0.1441 -0.5971
    3SAPS  H15X  388   1.846   0.795   4.545  1.9637  0.5903  0.9826
    3SAPS  H15Y  389   1.716   0.870   4.652  0.6154 -0.6506  1.7811
    3SAPS  C316  390   1.654   0.684   4.566  0.1587  0.6138 -0.2087
    3SAPS  H16X  391   1.583   0.680   4.652  3.1891  2.9733  2.6928
    3SAPS  H16Y  392   1.695   0.581   4.553  1.2411  1.0914 -0.6595
    3SAPS  C317  393   1.595   0.754   4.439 -0.5436 -0.0315  0.0801
    3SAPS  H17X  394   1.669   0.807   4.375 -0.9778 -1.8775 -2.0625
    3SAPS  H17Y  395   1.524   0.832   4.472  1.3048  0.6523  2.8986
    3SAPS  C318  396   1.527   0.651   4.348  0.3842 -0.2315  0.4869
    3SAPS  H18X  397   1.440   0.620   4.409  1.3647  1.1677  2.7294
    3SAPS  H18Y  398   1.594   0.566   4.324  0.2067  0.0417 -1.0545
    3SAPS  H18Z  399   1.497   0.708   4.257  0.0912 -0.9513  0.1292
    4SAPS     N  400   5.462   1.058   6.270  0.3534 -0.1651 -0.0551
    4SAPS   HN1  401   5.420   1.046   6.364 -2.4964 -1.9214 -1.3936
    4SAPS   HN2  402   5.392   1.115   6.218  1.3387 -0.2518 -1.5347
    4SAPS   HN3  403   5.473   0.966   6.223 -1.6590 -0.2766 -0.4291
    4SAPS   C12  404   5.596   1.134   6.278  0.5689 -0.4941  0.1228
    4SAPS  H12A  405   5.600   1.191   6.186  1.0351  0.3010  0.6246
    4SAPS   C13  406   5.591   1.242   6.385  0.2791  0.0563  0.2421
    4SAPS  O13A  407   5.478   1.269   6.437  0.1234 -0.8756 -0.0595
    4SAPS  O13B  408   5.691   1.306   6.425  0.3919  0.3220 -0.6680
    4SAPS   C11  409   5.710   1.026   6.306 -0.4433 -0.0175 -0.1110
    4SAPS  H11A  410   5.797   1.084   6.345  0.4820 -1.2583 -0.2916
    4SAPS  H11B  411   5.741   0.974   6.213 -1.3599  0.8450 -0.9193
    4SAPS     P  412   5.781   0.840   6.469  0.3813  0.1785 -0.2625
    4SAPS   O13  413   5.852   0.921   6.568 -0.3125 -0.0182  0.1824
    4SAPS   O14  414   5.708   0.721   6.522 -0.0433  0.3178 -0.4089
    4SAPS   O12  415   5.675   0.934   6.405 -0.3050  0.3111  0.0204
    4SAPS   O11  416   5.877   0.799   6.347  0.0320 -0.2698 -0.0831
    4SAPS    C1  417   5.839   0.704   6.240  0.2967 -0.1390 -0.5124
    4SAPS    HA  418   5.745   0.650   6.268  0.1441  0.8463  1.0449
    4SAPS    HB  419   5.814   0.761   6.148  1.0314  2.5051  0.8345
    4SAPS    C2  420   5.948   0.590   6.220  0.0330 -0.4183 -0.0838
    4SAPS    HS  421   5.946   0.545   6.321 -0.1479  0.9153  0.5283
    4SAPS   O21  422   6.068   0.655   6.181  0.2073 -0.1755 -0.1052
    4SAPS   C21  423   6.174   0.581   6.208  0.2808  0.1034 -0.0373
    4SAPS   O22  424   6.181   0.488   6.287 -0.1579 -0.0168 -0.0656
    4SAPS   C22  425   6.294   0.624   6.117 -0.0685 -0.1100  0.3936
    4SAPS   H2R  426   6.375   0.554   6.146  0.1322 -0.7204 -1.4842
    4SAPS   H2S  427   6.267   0.597   6.013 -0.0193  1.7130 -0.1318
    4SAPS    C3  428   5.910   0.475   6.115 -0.1577 -0.4727 -0.8748
    4SAPS    HX  429   5.801   0.465   6.100 -0.3642  1.9880 -1.4634
    4SAPS    HY  430   5.943   0.378   6.159  4.5740  0.9090 -0.7636
    4SAPS   O31  431   5.977   0.489   5.983  0.2193 -0.1617 -0.3782
    4SAPS   C31  432   5.920   0.563   5.887  0.4090  0.5099  0.4848
    4SAPS   O32  433   5.807   0.615   5.903 -0.2255  0.4072  0.3899
    4SAPS   C32  434   5.999   0.555   5.757  0.4013 -0.2122 -0.0576
    4SAPS   H2X  435   5.928   0.523   5.677 -0.9188 -2.8021  2.0002
    4SAPS   H2Y  436   6.072   0.475   5.780 -1.2497 -1.5676  0.6872
    4SAPS   C23  437   6.333   0.773   6.119 -0.5557 -0.2832  0.1886
    4SAPS   H3R  438   6.345   0.815   6.221 -1.1205  1.0399 -0.2669
    4SAPS   H3S  439   6.262   0.830   6.056 -0.8742 -0.0516  0.7522
    4SAPS   C24  440   6.482   0.792   6.064  0.0476  0.7059  0.3228
    4SAPS   H4R  441   6.490   0.743   5.965 -1.4603  1.5465 -0.2609
    4SAPS   H4S  442   6.538   0.733   6.139 -1.8739 -1.9995 -0.2294
    4SAPS   C25  443   6.504   0.948   6.049  0.3782 -0.0368 -0.9139
    4SAPS   H5R  444   6.540   1.010   6.133 -4.4695  1.3060  0.4678
    4SAPS   C26  445   6.492   1.023   5.932 -0.2524 -0.1156  1.0846
    4SAPS   H6R  446   6.517   1.130   5.933  1.6311 -0.5150  0.7463
    4SAPS   C27  447   6.449   0.964   5.798  0.0838  0.2804 -0.0276
    4SAPS   H7R  448   6.360   1.012   5.752  0.5407  1.7591  0.5798
    4SAPS   H7S  449   6.413   0.861   5.816  1.3325  0.1758  2.1648
    4SAPS   C28  450   6.565   0.964   5.701 -0.0211 -0.3207  0.1649
    4SAPS   H8R  451   6.661   0.932   5.744  0.7243 -0.7242 -1.7004
    4SAPS   C29  452   6.562   0.969   5.565  0.2241 -0.7883 -0.5471
    4SAPS   H9R  453   6.656   0.966   5.508  1.4019  2.3858  0.9511
    4SAPS  C210  454   6.444   0.998   5.479  0.0712  0.2298  0.3285
    4SAPS  H10R  455   6.355   0.972   5.541  0.1417  2.4348  1.4633
    4SAPS  H10S  456   6.439   0.922   5.399 -0.2492  0.3049  0.2750
    4SAPS  C211  457   6.427   1.136   5.419  1.0412 -0.0135 -0.0980
    4SAPS  H11R  458   6.386   1.214   5.485  1.4484 -0.1584  0.3301
    4SAPS  C212  459   6.448   1.171   5.287 -0.0274 -0.4044 -0.6830
    4SAPS  H12R  460   6.439   1.279   5.271 -2.1961 -0.2460  1.1454
    4SAPS  C213  461   6.495   1.094   5.164  0.5964 -0.4917 -0.3507
    4SAPS  H13R  462   6.405   1.080   5.101  1.2979  2.9584 -2.3356
    4SAPS  H13S  463   6.533   0.994   5.195  0.8715  0.2690  1.9961
    4SAPS  C214  464   6.617   1.167   5.097 -0.0432  0.6210  0.4838
    4SAPS  H14R  465   6.710   1.156   5.154  1.8926 -0.9182 -2.6976
    4SAPS  C215  466   6.609   1.220   4.978 -0.1546 -0.2958  0.7556
    4SAPS  H15R  467   6.692   1.272   4.927 -1.3580  0.3294 -0.6384
    4SAPS  C216  468   6.489   1.234   4.879 -0.8524 -0.1068 -0.5924
    4SAPS  H16R  469   6.483   1.335   4.834 -0.0448 -0.1784 -0.8789
    4SAPS  H16S  470   6.393   1.218   4.932 -0.5057  0.7264  0.3030
    4SAPS  C217  471   6.484   1.131   4.760  0.0613  0.4959  0.1864
    4SAPS  H17R  472   6.507   1.032   4.805  0.5823  0.5188 -0.0229
    4SAPS  H17S  473   6.574   1.157   4.700  1.8256  0.1891  2.5569
    4SAPS  C218  474   6.354   1.124   4.688 -0.4747 -0.7660 -0.0155
    4SAPS  H18R  475   6.322   1.215   4.632 -1.4862 -1.4006 -0.4939
    4SAPS  H18S  476   6.274   1.108   4.763 -1.2209  0.5131 -0.5092
    4SAPS  C219  477   6.363   1.008   4.582 -0.4876  0.7536 -0.6530
    4SAPS  H19R  478   6.392   0.912   4.630  1.0538 -0.1978 -3.2817
    4SAPS  H19S  479   6.438   1.035   4.504 -0.3869  1.4896 -0.3168
    4SAPS  C220  480   6.220   0.996   4.525 -0.1573 -0.1226  1.2764
    4SAPS  H20R  481   6.196   1.079   4.454  0.0701 -1.5709 -0.5892
    4SAPS  H20S  482   6.153   0.984   4.613  1.1501 -3.4397  1.9598
    4SAPS  H20T  483   6.211   0.906   4.460  0.2064 -0.0671  1.1465
    4SAPS   C33  484   6.076   0.686   5.719  0.4358 -0.3145 -0.2927
    4SAPS   H3X  485   6.148   0.718   5.797  1.4791  0.9487 -1.7230
    4SAPS   H3Y  486   6.006   0.770   5.697  0.3246 -0.7211 -1.5903
    4SAPS   C34  487   6.166   0.670   5.598 -0.2954  0.2454  0.6011
    4SAPS   H4X  488   6.223   0.574   5.598 -0.0171  0.4098  0.2012
    4SAPS   H4Y  489   6.246   0.747   5.602 -0.7225  0.6612  1.3091
    4SAPS   C35  490   6.092   0.684   5.466 -0.1806  0.2819  0.6147
    4SAPS   H5X  491   6.051   0.788   5.464  0.5640  0.5823  0.7780
    4SAPS   H5Y  492   6.021   0.598   5.468  0.9002 -0.8393 -2.7496
    4SAPS   C36  493   6.189   0.666   5.357  0.1991  0.0152  0.4041
    4SAPS   H6X  494   6.221   0.562   5.334  2.4654  0.6055  0.6668
    4SAPS   H6Y  495   6.286   0.711   5.384 -0.5822  1.6165  0.6587
    4SAPS   C37  496   6.140   0.730   5.223 -0.5813  0.0282  0.4724
    4SAPS   H7X  497   6.111   0.835   5.242 -3.0503 -0.8463  1.9775
    4SAPS   H7Y  498   6.043   0.687   5.193 -0.4529  0.2275 -0.2344
    4SAPS   C38  499   6.237   0.703   5.107 -0.1635 -0.2852 -0.1790
    4SAPS   H8X  500   6.242   0.595   5.078  0.2257  0.2279 -2.1999
    4SAPS   H8Y  501   6.339   0.726   5.145 -1.2823 -0.9718  3.6751
    4SAPS   C39  502   6.208   0.784   4.980  0.3300  0.0215  0.4383
    4SAPS   H9X  503   6.263   0.740   4.893 -1.5156 -1.3045 -0.1164
    4SAPS   H9Y  504   6.230   0.893   4.992 -0.6953  0.2811  0.0884
    4SAPS  C310  505   6.059   0.789   4.945  0.1077  0.8250  0.7193
    4SAPS  H10X  506   6.008   0.849   5.024 -2.1930 -0.4195  0.2501
    4SAPS  H10Y  507   6.019   0.690   4.974 -0.1644  0.8556  0.4595
    4SAPS  C311  508   6.023   0.836   4.801 -0.1099 -0.0644  0.4077
    4SAPS  H11X  509   6.098   0.796   4.729 -0.2749 -1.4855  0.9878
    4SAPS  H11Y  510   6.047   0.944   4.803 -0.3547 -0.0257  1.9984
    4SAPS  C312  511   5.876   0.835   4.753  0.0269  0.0359 -0.0757
    4SAPS  H12X  512   5.823   0.916   4.807  0.3172  0.1086  0.0975
    4SAPS  H12Y  513   5.823   0.743   4.788 -2.6640  0.6270 -2.2381
    4SAPS  C313  514   5.868   0.841   4.597  0.3430  0.3438  0.5651
    4SAPS  H13X  515   5.884   0.739   4.557  0.9429  1.5180 -2.4112
    4SAPS  H13Y  516   5.948   0.902   4.551  0.8599 -1.3815 -0.9511
    4SAPS  C314  517   5.732   0.896   4.554  0.1028 -0.5796  0.3319
    4SAPS  H14X  518   5.736   1.002   4.587 -1.3446 -0.4421  0.1014
    4SAPS  H14Y  519   5.648   0.856   4.613  0.5044  0.2109  1.4922
    4SAPS  C315  520   5.702   0.867   4.402 -0.3393 -1.0377  0.2489
    4SAPS  H15X  521   5.768   0.788   4.361 -1.3065 -0.9703 -1.4988
    4SAPS  H15Y  522   5.726   0.960   4.347 -2.7937 -0.0451  0.7055
    4SAPS  C316  523   5.550   0.858   4.368 -0.0562 -0.0654 -0.8940
    4SAPS  H16X  524   5.483   0.931   4.418 -1.2262 -0.6932 -1.4760
    4SAPS  H16Y  525   5.513   0.761   4.410 -3.3349  1.0567 -0.9106
    4SAPS  C317  526   5.518   0.868   4.219  0.0338 -0.1613  0.0264
    4SAPS  H17X  527   5.578   0.788   4.171  0.8594  1.4985 -1.8339
    4SAPS  H17Y  528   5.554   0.965   4.179  1.8414 -0.6212  0.4463
    4SAPS  C318  529   5.372   0.855   4.191  0.1857  0.0321 -0.1479
    4SAPS  H18X  530   5.346   0.873   4.085 -1.2139  1.2583  0.3657
    4SAPS  H18Y  531   5.309   0.925   4.251 -1.1746 -0.6297 -0.7555
    4SAPS  H18Z  532   5.333   0.754   4.213  0.8122 -0.1512  0.1437
    5SAPS     N  533   2.376   1.473   6.667 -0.6416 -0.2499 -0.2393
    5SAPS   HN1  534   2.429   1.414   6.600 -1.0050 -0.4525 -0.3520
    5SAPS   HN2  535   2.336   1.410   6.739  1.3247 -1.2743  0.0288
    5SAPS   HN3  536   2.304   1.537   6.628  0.6744 -0.2537 -2.8540
    5SAPS   C12  537   2.472   1.565   6.749 -0.2687 -0.0720 -0.1224
    5SAPS  H12A  538   2.533   1.635   6.694 -0.0699  0.4962  0.8082
    5SAPS   C13  539   2.401   1.657   6.857 -0.1943 -0.2730 -0.1927
    5SAPS  O13A  540   2.275   1.668   6.849 -0.7970 -0.0624 -0.2101
    5SAPS  O13B  541   2.475   1.747   6.902  0.0376  0.4915 -0.3907
    5SAPS   C11  542   2.569   1.473   6.816  0.5502 -0.1740 -0.5354
    5SAPS  H11A  543   2.512   1.422   6.897 -1.7264  2.1495 -0.5736
    5SAPS  H11B  544   2.647   1.535   6.865  0.9445 -1.3099  0.3476
    5SAPS     P  545   2.792   1.333   6.762 -0.1949 -0.0576 -0.4574
    5SAPS   O13  546   2.837   1.376   6.896  0.3508  0.3878 -0.0446
    5SAPS   O14  547   2.810   1.190   6.732  0.4551  0.7935  0.1720
    5SAPS   O12  548   2.643   1.383   6.734  0.0175 -0.1259  0.1106
    5SAPS   O11  549   2.876   1.416   6.664 -0.2990 -0.2252  0.0472
    5SAPS    C1  550   2.841   1.549   6.638  0.5999  0.5936  0.4955
    5SAPS    HA  551   2.791   1.603   6.721 -0.6181 -0.5356  0.5364
    5SAPS    HB  552   2.931   1.613   6.631 -0.5046  2.0732 -0.7056
    5SAPS    C2  553   2.777   1.561   6.503  0.2893  0.5447  0.5240
    5SAPS    HS  554   2.685   1.499   6.510  0.0603  1.0150  1.9442
    5SAPS   O21  555   2.870   1.509   6.404  0.3765 -0.8473  0.1550
    5SAPS   C21  556   2.838   1.396   6.343 -0.9225 -0.2531 -0.4956
    5SAPS   O22  557   2.754   1.317   6.385 -0.0200 -0.1949  1.1658
    5SAPS   C22  558   2.918   1.384   6.210 -0.0488  0.2371 -0.5799
    5SAPS   H2R  559   2.979   1.475   6.195 -1.4402  1.0770 -1.3251
    5SAPS   H2S  560   2.993   1.303   6.228 -0.0371  0.4201  0.2141
    5SAPS    C3  561   2.735   1.709   6.468 -0.2241  1.0662  0.0257
    5SAPS    HX  562   2.834   1.759   6.462  0.3074  0.7056  3.6885
    5SAPS    HY  563   2.686   1.747   6.560  0.9860  1.0822  0.6773
    5SAPS   O31  564   2.662   1.726   6.344 -0.0654  0.1712 -0.4093
    5SAPS   C31  565   2.528   1.685   6.349 -0.0887 -0.8900  0.3899
    5SAPS   O32  566   2.456   1.662   6.441 -0.4204 -0.2831 -0.3675
    5SAPS   C32  567   2.490   1.669   6.207 -0.3266  0.2639  0.0917
    5SAPS   H2X  568   2.577   1.699   6.144 -0.5171  1.0613  0.1929
    5SAPS   H2Y  569   2.401   1.734   6.195  0.4467  1.1836 -0.8829
    5SAPS   C23  570   2.833   1.333   6.090  1.4777  0.1655 -0.5717
    5SAPS   H3R  571   2.812   1.418   6.021  0.8863 -0.4308 -1.1253
    5SAPS   H3S  572   2.735   1.297   6.127  1.7410  0.3124  0.2877
    5SAPS   C24  573   2.898   1.219   6.015 -0.3521 -0.1537  0.4983
    5SAPS   H4R  574   2.922   1.130   6.077  3.6255  0.7472  0.5092
    5SAPS   H4S  575   2.998   1.257   5.984 -1.6363  1.6357 -1.7181
    5SAPS   C25  576   2.830   1.181   5.885 -0.5628 -0.1055 -0.1846
    5SAPS   H5R  577   2.734   1.132   5.905 -0.4567  0.1816  1.1501
    5SAPS   C26  578   2.858   1.208   5.753 -0.2341 -0.5401 -0.4590
    5SAPS   H6R  579   2.787   1.178   5.674 -1.6156  0.6725  0.2606
    5SAPS   C27  580   2.971   1.290   5.700 -0.1515  0.6118 -1.2004
    5SAPS   H7R  581   3.005   1.370   5.769  2.3381 -1.9013  0.7834
    5SAPS   H7S  582   2.940   1.346   5.610 -0.9605  0.1344 -1.2312
    5SAPS   C28  583   3.083   1.209   5.649  0.1654 -0.2545 -0.1383
    5SAPS   H8R  584   3.159   1.174   5.720  0.8402 -0.0664 -0.7664
    5SAPS   C29  585   3.104   1.180   5.522  0.7686  0.8268  0.1191
    5SAPS   H9R  586   3.195   1.123   5.497  1.2235  1.7027 -0.2691
    5SAPS  C210  587   3.019   1.220   5.396 -0.0312 -0.0070 -0.3667
    5SAPS  H10R  588   3.070   1.309   5.355  0.3626 -0.0553  0.0148
    5SAPS  H10S  589   2.919   1.254   5.429  0.2681  2.2656 -1.6301
    5SAPS  C211  590   2.997   1.094   5.303  0.0291 -0.4152  0.4338
    5SAPS  H11R  591   2.921   1.022   5.335 -0.2854  0.3508  1.4522
    5SAPS  C212  592   3.070   1.061   5.194 -1.0334 -0.1720 -0.6267
    5SAPS  H12R  593   3.028   0.976   5.139 -1.8363 -0.9130  1.0580
    5SAPS  C213  594   3.184   1.150   5.128  0.1056  0.2610 -0.2314
    5SAPS  H13R  595   3.260   1.084   5.081 -0.4792  0.3204 -1.2891
    5SAPS  H13S  596   3.231   1.214   5.206  1.1130 -3.5445  2.5985
    5SAPS  C214  597   3.111   1.226   5.021  0.6748 -0.4472 -0.4179
    5SAPS  H14R  598   3.024   1.283   5.057 -0.0481  0.3112 -3.1471
    5SAPS  C215  599   3.156   1.235   4.899  0.1740  0.2937  0.1564
    5SAPS  H15R  600   3.115   1.307   4.827  0.6925  0.6389  0.1971
    5SAPS  C216  601   3.267   1.161   4.830  0.1865  0.3482 -0.1389
    5SAPS  H16R  602   3.243   1.052   4.829  2.3669 -0.1705 -0.0112
    5SAPS  H16S  603   3.360   1.151   4.889 -0.9184 -0.0558  1.6077
    5SAPS  C217  604   3.302   1.218   4.685  0.3903 -0.1627  0.1964
    5SAPS  H17R  605   3.332   1.325   4.685 -2.4014  0.6980  1.3103
    5SAPS  H17S  606   3.224   1.216   4.607 -1.4223  0.0960  1.9351
    5SAPS  C218  607   3.421   1.157   4.627  0.2129 -0.5452 -0.4617
    5SAPS  H18R  608   3.500   1.145   4.703  0.0188 -0.1656 -0.1976
    5SAPS  H18S  609   3.457   1.219   4.541 -0.0026 -0.6482 -0.6275
    5SAPS  C219  610   3.392   1.013   4.571 -0.4868  0.0078  0.0898
    5SAPS  H19R  611   3.315   1.015   4.490  1.2056  1.4432 -1.5876
    5SAPS  H19S  612   3.354   0.940   4.646  0.7063 -1.0696 -0.3262
    5SAPS  C220  613   3.517   0.947   4.502  0.4438  0.1359  0.5153
    5SAPS  H20R  614   3.560   1.019   4.429 -0.0024 -1.9358 -1.9429
    5SAPS  H20S  615   3.484   0.856   4.447  1.9613  0.1307 -0.4486
    5SAPS  H20T  616   3.591   0.922   4.582 -1.0652 -1.1969  1.5687
    5SAPS   C33  617   2.468   1.521   6.187 -0.6123  0.1060 -0.5856
    5SAPS   H3X  618   2.378   1.487   6.243 -0.0945 -0.7632 -0.2564
    5SAPS   H3Y  619   2.554   1.466   6.231  0.1179  2.2386  0.8091
    5SAPS   C34  620   2.450   1.495   6.038  0.2768 -0.6950  0.3699
    5SAPS   H4X  621   2.540   1.535   5.988  0.5152 -1.8644 -0.1605
    5SAPS   H4Y  622   2.357   1.549   6.008 -0.1458  0.3418  3.2926
    5SAPS   C35  623   2.429   1.342   6.006  0.5603 -0.1631  0.1360
    5SAPS   H5X  624   2.331   1.317   6.051  0.2348  0.9246  0.0470
    5SAPS   H5Y  625   2.509   1.275   6.044  1.9195 -0.8771 -3.5663
    5SAPS   C36  626   2.425   1.304   5.857  0.2364 -0.4941 -0.8166
    5SAPS   H6X  627   2.524   1.315   5.807  1.7378 -0.2255  2.0445
    5SAPS   H6Y  628   2.353   1.376   5.812  0.4034 -0.2170 -0.6431
    5SAPS   C37  629   2.363   1.165   5.831 -0.2403 -0.5325 -0.2195
    5SAPS   H7X  630   2.253   1.167   5.848 -0.4156  1.1255 -1.3697
    5SAPS   H7Y  631   2.413   1.096   5.903  1.0900  0.5063 -0.1077
    5SAPS   C38  632   2.382   1.118   5.692 -0.2586  0.8320  0.5249
    5SAPS   H8X  633   2.329   1.184   5.620 -0.2511 -0.6117 -0.8653
    5SAPS   H8Y  634   2.338   1.019   5.670  1.2538  0.0161  0.9974
    5SAPS   C39  635   2.533   1.102   5.653  0.7350  0.0121 -0.7085
    5SAPS   H9X  636   2.578   1.030   5.725  0.9884  0.1302 -0.7515
    5SAPS   H9Y  637   2.587   1.199   5.655  0.6266  0.0865  1.7308
    5SAPS  C310  638   2.551   1.033   5.522  0.2997 -0.0803  0.4137
    5SAPS  H10X  639   2.485   0.947   5.499  1.4999 -0.9532  0.1638
    5SAPS  H10Y  640   2.655   0.997   5.509 -0.3094 -1.2439 -1.7955
    5SAPS  C311  641   2.529   1.140   5.408 -0.4306  0.1384 -0.2193
    5SAPS  H11X  642   2.607   1.218   5.427  0.5376 -0.7702 -0.3372
    5SAPS  H11Y  643   2.431   1.190   5.423  0.7979  2.2494  1.2839
    5SAPS  C312  644   2.532   1.082   5.263 -0.6993 -0.1721  0.9250
    5SAPS  H12X  645   2.433   1.039   5.238 -0.4592 -0.5501  0.6196
    5SAPS  H12Y  646   2.612   1.005   5.264  0.4234  0.9376  0.3166
    5SAPS  C313  647   2.565   1.188   5.153 -0.0982  0.1885 -0.1739
    5SAPS  H13X  648   2.667   1.228   5.170  0.4795 -1.3260  0.0345
    5SAPS  H13Y  649   2.495   1.273   5.166 -0.5688 -0.2473  0.2037
    5SAPS  C314  650   2.558   1.124   5.013  0.4759 -0.0807 -0.1881
    5SAPS  H14X  651   2.451   1.093   5.020  0.6768 -0.4516  2.2219
    5SAPS  H14Y  652   2.630   1.042   4.995 -0.0885 -0.2826 -1.6396
    5SAPS  C315  653   2.576   1.232   4.911 -0.5053 -0.1096  0.2406
    5SAPS  H15X  654   2.684   1.257   4.902  0.0848 -2.1695  1.0609
    5SAPS  H15Y  655   2.523   1.323   4.946  1.6195  0.1028  3.2324
    5SAPS  C316  656   2.544   1.189   4.767  0.3245 -0.3221 -0.1588
    5SAPS  H16X  657   2.441   1.146   4.768  0.3341 -0.3770 -0.8624
    5SAPS  H16Y  658   2.601   1.099   4.736  1.5487  0.2716  0.3081
    5SAPS  C317  659   2.558   1.292   4.656 -0.0309  0.8125  0.0010
    5SAPS  H17X  660   2.548   1.246   4.555 -1.0246  0.6231  0.1771
    5SAPS  H17Y  661   2.662   1.330   4.654  0.3892 -0.2580  0.8456
    5SAPS  C318  662   2.459   1.409   4.666 -0.3152  0.2124 -0.6211
    5SAPS  H18X  663   2.354   1.373   4.660 -0.7939  1.3820  0.3656
    5SAPS  H18Y  664   2.484   1.478   4.583 -0.9110 -0.2780 -1.2231
    5SAPS  H18Z  665   2.481   1.463   4.760  2.1883 -0.7494 -0.5885
    6SAPS     N  666   5.464   3.557   6.714 -0.3109  0.2991 -0.7979
    6SAPS   HN1  667   5.411   3.644   6.735  1.6131  0.9011  2.3015
    6SAPS   HN2  668   5.548   3.585   6.769 -1.6902  0.9479  1.0837
    6SAPS   HN3  669   5.482   3.550   6.612  0.7554 -1.5237 -0.5427
    6SAPS   C12  670   5.407   3.446   6.790  0.3356  0.2466  1.5039
    6SAPS  H12A  671   5.478   3.367   6.770 -0.6249 -0.3909  0.4722
    6SAPS   C13  672   5.392   3.462   6.947 -0.0507 -0.8349 -0.1790
    6SAPS  O13A  673   5.454   3.558   7.007 -0.2921 -0.3708  0.6300
    6SAPS  O13B  674   5.334   3.377   7.009 -0.1860  0.3946 -0.2937
    6SAPS   C11  675   5.262   3.408   6.732  0.0574 -0.3045  0.0129
    6SAPS  H11A  676   5.204   3.502   6.741  0.5463 -0.0259  0.3190
    6SAPS  H11B  677   5.214   3.332   6.798 -1.7827  1.3356  0.6708
    6SAPS     P  678   5.289   3.235   6.539 -0.0302  0.2591  0.1873
    6SAPS   O13  679   5.428   3.212   6.490 -0.7122 -0.2283 -0.4657
    6SAPS   O14  680   5.233   3.143   6.642 -0.1303 -0.2780  1.1213
    6SAPS   O12  681   5.274   3.382   6.595  0.2399  0.1160  0.3344
    6SAPS   O11  682   5.187   3.231   6.422  0.2752 -0.3283  0.0565
    6SAPS    C1  683   5.196   3.135   6.316 -0.0759 -0.4566  0.7763
    6SAPS    HA  684   5.232   3.038   6.355  0.8494 -0.3228  0.2826
    6SAPS    HB  685   5.095   3.105   6.282  0.1717 -0.9681  0.4887
    6SAPS    C2  686   5.278   3.172   6.193  0.0491 -0.6595  0.9891
    6SAPS    HS  687   5.384   3.175   6.224 -0.1602 -1.2165  1.8024
    6SAPS   O21  688   5.222   3.292   6.135  0.3159  0.2227  0.5115
    6SAPS   C21  689   5.295   3.401   6.144  0.1498  0.4528 -0.2035
    6SAPS   O22  690   5.394   3.411   6.213 -0.3572  0.1890  0.3534
    6SAPS   C22  691   5.236   3.511   6.059  0.7985 -0.4009  0.1141
    6SAPS   H2R  692   5.137   3.487   6.013  1.2956  1.0448 -1.8546
    6SAPS   H2S  693   5.222   3.606   6.115  2.1944  0.2106 -0.5196
    6SAPS    C3  694   5.258   3.056   6.091 -0.1097 -0.5889  0.1368
    6SAPS    HX  695   5.160   3.074   6.042 -0.4672 -0.5316  0.8470
    6SAPS    HY  696   5.244   2.956   6.137 -0.5482 -0.3789  0.4686
    6SAPS   O31  697   5.368   3.051   6.001 -0.1591 -0.0811  0.2327
    6SAPS   C31  698   5.474   2.990   6.046  0.2420  0.0530  0.0205
    6SAPS   O32  699   5.496   2.942   6.156  0.1310 -0.1182  0.3443
    6SAPS   C32  700   5.579   2.979   5.938 -0.4897 -0.1092  0.2509
    6SAPS   H2X  701   5.562   3.055   5.858  0.7017 -0.0042  0.0767
    6SAPS   H2Y  702   5.572   2.877   5.896 -1.0027 -0.4623  1.1727
    6SAPS   C23  703   5.327   3.547   5.934 -0.1628  0.3278 -0.0977
    6SAPS   H3R  704   5.305   3.453   5.878 -1.4102  1.2351 -1.2089
    6SAPS   H3S  705   5.435   3.548   5.959 -0.4264  0.2485  1.1081
    6SAPS   C24  706   5.271   3.658   5.847 -0.1098 -0.2149 -0.6227
    6SAPS   H4R  707   5.265   3.755   5.900  1.3149  0.7712 -2.1850
    6SAPS   H4S  708   5.164   3.634   5.827  0.2431 -1.2596 -1.3474
    6SAPS   C25  709   5.353   3.667   5.723  0.5976 -0.4396  0.0202
    6SAPS   H5R  710   5.455   3.696   5.752  0.3589 -0.6473  1.1377
    6SAPS   C26  711   5.325   3.649   5.593 -0.0505  0.2036 -0.2633
    6SAPS   H6R  712   5.402   3.682   5.522 -0.3471  1.6580  0.0740
    6SAPS   C27  713   5.197   3.604   5.526 -0.4894  0.6264 -0.4172
    6SAPS   H7R  714   5.127   3.571   5.605  0.5148  0.5598  0.4625
    6SAPS   H7S  715   5.234   3.513   5.474  0.6784  0.9320 -0.1649
    6SAPS   C28  716   5.125   3.693   5.431 -0.0420 -0.4738 -0.3728
    6SAPS   H8R  717   5.121   3.795   5.473  0.9938 -0.5024 -0.1607
    6SAPS   C29  718   5.081   3.678   5.306 -0.0823 -0.1555 -0.2361
    6SAPS   H9R  719   5.027   3.760   5.256  0.9884 -0.5521 -2.1732
    6SAPS  C210  720   5.099   3.552   5.223  0.0719 -0.8354 -0.6643
    6SAPS  H10R  721   5.206   3.529   5.240  0.1461 -0.5536 -0.7563
    6SAPS  H10S  722   5.091   3.577   5.115  1.8262  1.5308 -0.3216
    6SAPS  C211  723   5.006   3.448   5.279  0.3774  0.6360  0.2889
    6SAPS  H11R  724   4.922   3.467   5.347 -0.6249 -2.7233  0.1669
    6SAPS  C212  725   5.010   3.319   5.236 -0.3453 -1.3821 -0.4258
    6SAPS  H12R  726   4.955   3.245   5.295 -1.5329 -0.7831 -0.7606
    6SAPS  C213  727   5.104   3.262   5.133  0.4803 -0.4905  0.1818
    6SAPS  H13R  728   5.186   3.332   5.108  0.4961 -0.7379 -0.4730
    6SAPS  H13S  729   5.055   3.232   5.038  0.3102 -0.1886  0.1730
    6SAPS  C214  730   5.169   3.146   5.202 -0.0962  0.0309  0.6753
    6SAPS  H14R  731   5.246   3.180   5.273 -0.8130  0.9065  1.0415
    6SAPS  C215  732   5.150   3.014   5.191  0.3823 -0.5026 -0.0894
    6SAPS  H15R  733   5.204   2.950   5.262  1.2481 -0.4827 -0.7064
    6SAPS  C216  734   5.065   2.955   5.089  0.0739 -0.9053 -0.0036
    6SAPS  H16R  735   4.997   3.027   5.039 -0.0458 -1.3844 -0.5488
    6SAPS  H16S  736   5.020   2.864   5.136 -0.9026 -1.0063 -1.0776
    6SAPS  C217  737   5.149   2.901   4.971  0.7896 -0.3265 -0.4486
    6SAPS  H17R  738   5.203   2.808   5.000 -0.0253 -0.3427  1.1316
    6SAPS  H17S  739   5.224   2.978   4.943 -0.0579  1.1141  1.0630
    6SAPS  C218  740   5.062   2.854   4.847 -0.0498 -0.0994 -0.1557
    6SAPS  H18R  741   4.987   2.781   4.885 -1.7871  1.7547  0.1349
    6SAPS  H18S  742   5.137   2.800   4.784  0.1150 -0.2602  0.1734
    6SAPS  C219  743   4.984   2.958   4.763 -0.1630  0.0846  0.2995
    6SAPS  H19R  744   5.049   3.032   4.711  0.2729 -0.2488  0.3658
    6SAPS  H19S  745   4.917   3.017   4.829  0.7008  0.4852  0.8317
    6SAPS  C220  746   4.918   2.889   4.649 -0.3877  0.2839  0.4110
    6SAPS  H20R  747   4.875   2.956   4.571  1.4105  1.8751  0.7194
    6SAPS  H20S  748   4.830   2.828   4.680 -0.9142 -1.2966 -3.6344
    6SAPS  H20T  749   4.986   2.812   4.608  0.9315  1.6170 -0.0040
    6SAPS   C33  750   5.718   3.011   6.000  0.2353  0.1871  0.0783
    6SAPS   H3X  751   5.723   2.967   6.102  0.3393  2.5162  1.1416
    6SAPS   H3Y  752   5.719   3.121   6.018 -0.5777  0.7231 -2.6811
    6SAPS   C34  753   5.843   2.984   5.915  0.7780  0.1164  0.0929
    6SAPS   H4X  754   5.858   2.875   5.902  0.0539  0.0472 -0.2207
    6SAPS   H4Y  755   5.937   3.019   5.964  0.1996 -0.5941  1.8149
    6SAPS   C35  756   5.824   3.050   5.774 -0.2170 -0.4636  0.0724
    6SAPS   H5X  757   5.828   3.161   5.780  0.8689 -0.5640  2.0388
    6SAPS   H5Y  758   5.725   3.022   5.733 -0.9207 -0.5793  1.7765
    6SAPS   C36  759   5.935   3.006   5.674  0.0210 -0.0618  0.6638
    6SAPS   H6X  760   5.919   2.899   5.649  1.7070 -0.1459 -0.1695
    6SAPS   H6Y  761   6.035   3.019   5.722  0.3892  0.1551 -0.1471
    6SAPS   C37  762   5.932   3.094   5.539 -0.9803  0.3337  0.5702
    6SAPS   H7X  763   5.995   3.182   5.559  1.1226 -0.9489 -0.1011
    6SAPS   H7Y  764   5.824   3.117   5.522 -0.7329  0.8686 -0.3241
    6SAPS   C38  765   5.997   3.020   5.419 -0.0214 -0.2899 -0.8384
    6SAPS   H8X  766   5.924   2.941   5.391  1.6908 -1.2955 -2.6737
    6SAPS   H8Y  767   6.097   2.983   5.449 -0.2078  1.0093  1.6531
    6SAPS   C39  768   6.019   3.099   5.296 -0.2504 -0.3967 -0.1889
    6SAPS   H9X  769   6.091   3.184   5.303  1.1351 -1.3568 -1.8835
    6SAPS   H9Y  770   5.919   3.141   5.271  0.4015  0.4272 -1.5560
    6SAPS  C310  771   6.084   3.016   5.180  0.5683 -0.1132 -0.5987
    6SAPS  H10X  772   6.038   2.916   5.168 -1.4955  1.0537 -3.7523
    6SAPS  H10Y  773   6.192   2.997   5.196  0.1399 -1.9321  0.2941
    6SAPS  C311  774   6.071   3.093   5.047 -0.3334 -0.3405  0.4467
    6SAPS  H11X  775   6.111   3.193   5.076  0.5887 -1.1402  2.0719
    6SAPS  H11Y  776   5.964   3.094   5.017 -0.4091 -0.6527  0.7101
    6SAPS  C312  777   6.168   3.038   4.936  0.6570 -0.0679 -0.1381
    6SAPS  H12X  778   6.107   2.982   4.862  0.2558 -0.5843  0.5710
    6SAPS  H12Y  779   6.232   2.959   4.981 -0.5368 -0.2148  1.4089
    6SAPS  C313  780   6.248   3.151   4.878 -0.1808 -0.0571  0.6812
    6SAPS  H13X  781   6.305   3.215   4.949 -1.7104  1.7079  0.4084
    6SAPS  H13Y  782   6.170   3.223   4.846 -0.5871  0.2412  2.2450
    6SAPS  C314  783   6.326   3.098   4.749  0.7214 -0.6607 -0.7036
    6SAPS  H14X  784   6.248   3.050   4.686 -1.9015  0.4406  1.5121
    6SAPS  H14Y  785   6.401   3.023   4.781 -0.7989 -1.2673  1.6603
    6SAPS  C315  786   6.398   3.203   4.682 -0.4088  0.0864  0.1834
    6SAPS  H15X  787   6.463   3.264   4.749  1.9542  0.7334 -2.5088
    6SAPS  H15Y  788   6.330   3.278   4.636  0.2810  0.3350 -0.4457
    6SAPS  C316  789   6.489   3.148   4.568 -0.1293  0.6148 -0.1597
    6SAPS  H16X  790   6.423   3.110   4.486 -0.1177 -0.6264  0.3769
    6SAPS  H16Y  791   6.539   3.054   4.600 -0.2602  0.2472 -1.0036
    6SAPS  C317  792   6.596   3.240   4.518 -0.3853 -0.2221  0.1308
    6SAPS  H17X  793   6.657   3.276   4.603 -0.0376  0.6964 -0.4944
    6SAPS  H17Y  794   6.537   3.327   4.483 -1.9622 -1.7546 -1.2335
    6SAPS  C318  795   6.682   3.169   4.412  0.0045  0.8589  0.3804
    6SAPS  H18X  796   6.730   3.076   4.450  3.7743  1.9296 -1.3427
    6SAPS  H18Y  797   6.757   3.241   4.373  1.5149 -0.8275  0.0557
    6SAPS  H18Z  798   6.620   3.125   4.332  0.4090 -0.4892  0.7788
    7SAPS     N  799   1.928   4.339   6.686  0.2295 -0.6498 -0.4552
    7SAPS   HN1  800   1.925   4.336   6.790  0.0876 -1.0849 -0.4704
    7SAPS   HN2  801   1.959   4.435   6.660  2.5377 -1.0022  0.7217
    7SAPS   HN3  802   1.829   4.337   6.654 -0.5483  0.4978  1.6727
    7SAPS   C12  803   2.013   4.242   6.628 -0.7262  0.2532  0.5244
    7SAPS  H12A  804   1.995   4.247   6.522  1.3778  0.6091  0.1371
    7SAPS   C13  805   2.163   4.274   6.645  0.1666 -0.1200  0.4247
    7SAPS  O13A  806   2.200   4.379   6.708  0.2240 -0.0590 -0.1252
    7SAPS  O13B  807   2.253   4.198   6.601  0.2744 -0.4729  0.1462
    7SAPS   C11  808   1.984   4.101   6.679 -0.0717 -0.0356  0.2483
    7SAPS  H11A  809   2.036   4.087   6.776  1.5818 -0.0458 -0.6128
    7SAPS  H11B  810   2.040   4.040   6.605  1.1483  1.8374 -0.4286
    7SAPS     P  811   1.795   3.936   6.754  0.5076  0.1468  0.1313
    7SAPS   O13  812   1.900   3.882   6.844 -0.2540  0.2748 -0.4975
    7SAPS   O14  813   1.662   3.960   6.816 -0.7841 -0.0802 -0.5255
    7SAPS   O12  814   1.844   4.077   6.704 -0.6045 -0.0894 -0.6105
    7SAPS   O11  815   1.768   3.847   6.625 -0.0782  0.2572  0.0602
    7SAPS    C1  816   1.680   3.890   6.520 -0.0478  0.0237 -0.7434
    7SAPS    HA  817   1.585   3.833   6.525 -0.2805  0.4690 -0.1677
    7SAPS    HB  818   1.677   4.000   6.510  2.2820  0.3624  1.3145
    7SAPS    C2  819   1.735   3.835   6.381 -0.3410 -0.5415 -0.1056
    7SAPS    HS  820   1.705   3.728   6.373  0.4934 -0.8346  0.4685
    7SAPS   O21  821   1.881   3.846   6.369  0.5258 -0.1499  0.3081
    7SAPS   C21  822   1.940   3.746   6.440 -0.8700 -0.5592 -0.6654
    7SAPS   O22  823   1.881   3.651   6.488 -0.4359  0.3890  0.1728
    7SAPS   C22  824   2.093   3.771   6.452 -0.4543 -0.1914  0.5293
    7SAPS   H2R  825   2.096   3.835   6.542  0.4346  2.7544 -1.4693
    7SAPS   H2S  826   2.145   3.675   6.475  1.8018  1.0143  0.7026
    7SAPS    C3  827   1.667   3.910   6.262 -0.4153 -0.5984  0.5058
    7SAPS    HX  828   1.691   4.019   6.272 -2.9815  0.2036 -1.1866
    7SAPS    HY  829   1.558   3.897   6.271 -0.3685 -0.8453  0.7228
    7SAPS   O31  830   1.716   3.866   6.135  0.7275 -0.4561 -0.0903
    7SAPS   C31  831   1.643   3.789   6.069  0.6483 -0.0039  0.4606
    7SAPS   O32  832   1.547   3.727   6.113 -0.7259 -0.0619  0.2963
    7SAPS   C32  833   1.696   3.767   5.927  0.9045  0.6700  0.5908
    7SAPS   H2X  834   1.806   3.750   5.936  0.9338 -1.6843 -2.4242
    7SAPS   H2Y  835   1.675   3.858   5.868  0.8501  2.0186  2.5929
    7SAPS   C23  836   2.152   3.839   6.330  0.3090  0.0557  0.3945
    7SAPS   H3R  837   2.262   3.848   6.344  0.6531 -1.7037 -0.8299
    7SAPS   H3S  838   2.110   3.942   6.324  0.1535  0.0109  0.7076
    7SAPS   C24  839   2.139   3.755   6.200 -0.3852 -0.2375 -0.8647
    7SAPS   H4R  840   2.033   3.738   6.174 -1.4116  1.7525  1.6024
    7SAPS   H4S  841   2.190   3.656   6.201  1.5560  0.6057 -3.8188
    7SAPS   C25  842   2.211   3.832   6.090  0.6165 -0.5999 -0.4673
    7SAPS   H5R  843   2.320   3.834   6.105  0.5460  1.3863  0.0438
    7SAPS   C26  844   2.160   3.913   5.993  0.2446 -0.5494  0.0462
    7SAPS   H6R  845   2.241   3.957   5.933 -1.4268  1.8133 -0.6397
    7SAPS   C27  846   2.014   3.926   5.953 -0.1735 -0.8711 -0.3575
    7SAPS   H7R  847   1.951   3.950   6.040  0.4942 -1.9306  0.4423
    7SAPS   H7S  848   1.978   3.828   5.913 -4.2112  0.5806 -0.7064
    7SAPS   C28  849   1.993   4.037   5.848 -0.3153  0.0866  0.0346
    7SAPS   H8R  850   2.022   4.138   5.881 -0.1880 -0.1060  0.5211
    7SAPS   C29  851   1.979   4.011   5.714  0.3746  0.1583  0.8837
    7SAPS   H9R  852   1.974   4.088   5.635  0.3241 -0.8710 -0.1332
    7SAPS  C210  853   1.956   3.872   5.649 -0.1371 -0.4683 -0.0399
    7SAPS  H10R  854   1.855   3.865   5.605  0.3773 -1.0179 -1.1766
    7SAPS  H10S  855   1.965   3.787   5.719  2.4061 -0.7955 -0.6626
    7SAPS  C211  856   2.066   3.839   5.548 -0.2506 -0.1904  0.1227
    7SAPS  H11R  857   2.168   3.835   5.590  0.9243  1.9224 -2.1949
    7SAPS  C212  858   2.047   3.834   5.412  0.3604 -0.2567 -0.2712
    7SAPS  H12R  859   2.141   3.823   5.356  0.9248 -0.3464  0.6679
    7SAPS  C213  860   1.920   3.834   5.341 -0.5049 -0.1574 -0.1356
    7SAPS  H13R  861   1.828   3.802   5.395 -2.8628  1.4486 -2.8840
    7SAPS  H13S  862   1.925   3.763   5.256 -0.0909  0.3370 -0.5297
    7SAPS  C214  863   1.881   3.977   5.298 -0.4059  0.3504  0.0653
    7SAPS  H14R  864   1.852   4.034   5.388 -1.2816 -1.1404  0.7717
    7SAPS  C215  865   1.867   4.024   5.177  0.5535 -1.0426  0.4981
    7SAPS  H15R  866   1.824   4.123   5.157  3.4506  0.1655 -0.1661
    7SAPS  C216  867   1.897   3.956   5.044  0.3589 -0.4900  0.3232
    7SAPS  H16R  868   2.006   3.934   5.042  0.5615  0.2070  2.0486
    7SAPS  H16S  869   1.889   4.028   4.960 -3.0025 -1.5527 -0.4197
    7SAPS  C217  870   1.825   3.830   5.002 -0.1143 -0.5402  0.3953
    7SAPS  H17R  871   1.717   3.851   4.993 -0.5627 -2.3235  1.1916
    7SAPS  H17S  872   1.856   3.739   5.058  2.2513 -0.9372 -1.4110
    7SAPS  C218  873   1.872   3.792   4.854  0.2386  0.2055  0.4907
    7SAPS  H18R  874   1.980   3.768   4.861 -0.1967 -1.5023  2.4975
    7SAPS  H18S  875   1.860   3.881   4.788  3.1328  0.4401  0.1652
    7SAPS  C219  876   1.787   3.672   4.808  0.4525  0.5852 -0.0966
    7SAPS  H19R  877   1.683   3.697   4.781 -0.1170 -1.2450  0.2746
    7SAPS  H19S  878   1.765   3.609   4.897  0.4987  0.6752 -0.0213
    7SAPS  C220  879   1.858   3.591   4.700  0.5472 -0.3726 -0.5669
    7SAPS  H20R  880   1.968   3.600   4.710  0.4448  1.8145 -0.8195
    7SAPS  H20S  881   1.835   3.634   4.600 -0.8872 -1.5068 -0.7613
    7SAPS  H20T  882   1.830   3.485   4.681  3.7258 -1.1935 -1.1325
    7SAPS   C33  883   1.625   3.641   5.862 -0.3476 -0.3471  0.2010
    7SAPS   H3X  884   1.525   3.666   5.821  0.1466 -0.3493 -1.0335
    7SAPS   H3Y  885   1.594   3.563   5.935 -0.8259 -3.7581 -3.2889
    7SAPS   C34  886   1.719   3.564   5.767  0.2829 -0.3166  0.0395
    7SAPS   H4X  887   1.820   3.564   5.814  0.4312  0.5556 -0.2541
    7SAPS   H4Y  888   1.729   3.630   5.678 -2.3828 -0.4127 -0.4110
    7SAPS   C35  889   1.677   3.420   5.738  0.7335 -0.0296 -0.7336
    7SAPS   H5X  890   1.668   3.376   5.840  0.0859  1.4233 -0.1295
    7SAPS   H5Y  891   1.752   3.365   5.677  0.4007  0.3322 -1.4856
    7SAPS   C36  892   1.534   3.398   5.693 -0.3495 -0.2239 -0.1086
    7SAPS   H6X  893   1.466   3.466   5.750  1.1547 -0.0607  1.5935
    7SAPS   H6Y  894   1.511   3.292   5.717 -2.3995  0.0308 -0.7594
    7SAPS   C37  895   1.515   3.411   5.545  0.1607  0.0954  0.0760
    7SAPS   H7X  896   1.524   3.520   5.522 -2.3233 -0.1524 -2.6759
    7SAPS   H7Y  897   1.407   3.390   5.535 -0.0856  1.0403  0.6244
    7SAPS   C38  898   1.594   3.312   5.451 -0.4524 -0.9366  0.0764
    7SAPS   H8X  899   1.599   3.216   5.506 -2.3848 -0.7043  0.7640
    7SAPS   H8Y  900   1.698   3.351   5.449 -0.9237  0.3431 -1.4123
    7SAPS   C39  901   1.534   3.310   5.311 -0.0103  0.6730  0.5389
    7SAPS   H9X  902   1.429   3.272   5.315  0.8158 -1.7885  0.8432
    7SAPS   H9Y  903   1.582   3.224   5.259 -1.0798  0.5455 -0.2842
    7SAPS  C310  904   1.535   3.441   5.235 -0.7186  0.1050 -0.2090
    7SAPS  H10X  905   1.639   3.477   5.232 -0.1104 -1.4848  0.6102
    7SAPS  H10Y  906   1.476   3.516   5.292  0.3271  2.5258 -2.1476
    7SAPS  C311  907   1.477   3.442   5.089 -0.2573 -0.2364 -0.2261
    7SAPS  H11X  908   1.479   3.548   5.057 -1.4517 -0.9783 -3.1128
    7SAPS  H11Y  909   1.380   3.388   5.083  0.7540 -2.5849  2.1354
    7SAPS  C312  910   1.552   3.358   4.994 -0.5420  0.1113  0.2728
    7SAPS  H12X  911   1.558   3.253   5.031  2.3856 -0.0816 -0.4690
    7SAPS  H12Y  912   1.656   3.393   4.978 -0.5341  0.6214  1.3272
    7SAPS  C313  913   1.485   3.355   4.856  0.0587 -0.5860 -0.1519
    7SAPS  H13X  914   1.487   3.456   4.808  0.9595 -0.7439 -0.4580
    7SAPS  H13Y  915   1.377   3.334   4.874  0.1355  0.2207  1.3867
    7SAPS  C314  916   1.552   3.260   4.753  0.5618  0.4052  0.4697
    7SAPS  H14X  917   1.540   3.159   4.798 -0.4613  0.9478  1.4680
    7SAPS  H14Y  918   1.659   3.287   4.750  1.0982 -1.3335  1.9165
    7SAPS  C315  919   1.499   3.265   4.610  0.4414 -0.3807 -0.3095
    7SAPS  H15X  920   1.388   3.271   4.611  0.5126  3.2002  0.6294
    7SAPS  H15Y  921   1.535   3.180   4.549  1.4176  0.1702 -0.5234
    7SAPS  C316  922   1.549   3.395   4.541 -0.4063  0.7637 -0.3450
    7SAPS  H16X  923   1.660   3.396   4.548 -0.3357 -1.5397 -0.2825
    7SAPS  H16Y  924   1.506   3.483   4.593 -1.2205 -0.7925  1.7696
    7SAPS  C317  925   1.523   3.417   4.392  0.7406 -0.3248 -0.2370
    7SAPS  H17X  926   1.565   3.333   4.333  3.6490  0.1783  0.9628
    7SAPS  H17Y  927   1.585   3.499   4.350 -0.9471  1.2048  0.1539
    7SAPS  C318  928   1.376   3.447   4.356  0.2518 -1.1692 -0.3896
    7SAPS  H18X  929   1.313   3.388   4.426  0.5897  0.1751  1.1166
    7SAPS  H18Y  930   1.348   3.410   4.255  0.5956 -2.3806 -0.0665
    7SAPS  H18Z  931   1.352   3.554   4.372  0.9214 -1.2933  1.8742
    8SAPS     N  932   0.681   0.228   6.970 -0.1964  0.3024  0.4633
    8SAPS   HN1  933   0.597   0.282   7.000 -0.9792  0.6298 -2.0462
    8SAPS   HN2  934   0.639   0.138   6.938 -0.7030  0.2665  1.2010
    8SAPS   HN3  935   0.747   0.206   7.047 -1.8210  0.4891  1.9997
    8SAPS   C12  936   0.758   0.297   6.863  0.4781  0.0718  0.5679
    8SAPS  H12A  937   0.691   0.328   6.785  1.2656  0.1593 -0.0921
    8SAPS   C13  938   0.823   0.433   6.912  0.1422 -0.0138 -0.5169
    8SAPS  O13A  939   0.840   0.464   7.034 -0.0967  0.1915 -0.0336
    8SAPS  O13B  940   0.856   0.517   6.824  0.7088 -0.1513  0.2975
    8SAPS   C11  941   0.877   0.202   6.813 -0.8998  0.2538  0.6833
    8SAPS  H11A  942   0.953   0.212   6.893 -2.1448  1.3254  1.7864
    8SAPS  H11B  943   0.918   0.256   6.725  0.9303  0.1489  1.4380
    8SAPS     P  944   0.946  -0.043   6.762  0.2865 -0.4495 -0.0385
    8SAPS   O13  945   1.061   0.032   6.704 -0.7448  0.2768  0.0469
    8SAPS   O14  946   0.970  -0.099   6.899  0.4412 -0.1590  0.0312
    8SAPS   O12  947   0.831   0.063   6.777 -0.1316  0.4284  0.0299
    8SAPS   O11  948   0.871  -0.141   6.662 -0.8551 -0.3080  0.0150
    8SAPS    C1  949   0.943  -0.171   6.544 -0.0494  0.6023 -0.2914
    8SAPS    HA  950   1.007  -0.092   6.498  0.0606  0.7721  0.1426
    8SAPS    HB  951   1.013  -0.253   6.572 -1.4823 -0.0310  1.6666
    8SAPS    C2  952   0.848  -0.198   6.424  0.0145 -0.0185 -0.1615
    8SAPS    HS  953   0.767  -0.262   6.464 -0.3022  1.4895  1.7568
    8SAPS   O21  954   0.929  -0.267   6.331 -0.3652  0.0220 -0.4371
    8SAPS   C21  955   0.912  -0.396   6.309  0.2064 -0.0114 -0.2593
    8SAPS   O22  956   0.826  -0.464   6.362  0.0452  0.3912 -0.3978
    8SAPS   C22  957   1.011  -0.438   6.196  0.3310 -0.4129  0.1190
    8SAPS   H2R  958   1.041  -0.345   6.143 -1.9352  0.4307  0.2205
    8SAPS   H2S  959   1.095  -0.493   6.245 -0.6371 -0.4673  1.7970
    8SAPS    C3  960   0.794  -0.066   6.361  0.4939 -0.2374 -0.1841
    8SAPS    HX  961   0.865  -0.007   6.299 -0.3688  1.9666  0.8474
    8SAPS    HY  962   0.777  -0.004   6.451  0.5655  0.2733 -0.5192
    8SAPS   O31  963   0.680  -0.094   6.272  0.0073  0.3596 -0.8652
    8SAPS   C31  964   0.584  -0.001   6.279 -0.6513 -0.1160  0.1495
    8SAPS   O32  965   0.583   0.100   6.343  0.1596 -0.0704 -0.2431
    8SAPS   C32  966   0.472  -0.040   6.186  0.1338 -0.1992  0.1164
    8SAPS   H2X  967   0.383  -0.051   6.252 -0.4392  0.4394 -0.5269
    8SAPS   H2Y  968   0.484  -0.139   6.137  1.7211  0.4028 -0.7964
    8SAPS   C23  969   0.936  -0.529   6.094  0.1584 -0.0098 -0.2135
    8SAPS   H3R  970   0.847  -0.571   6.145  0.2411  0.5741  0.4396
    8SAPS   H3S  971   0.998  -0.617   6.066 -1.1962 -0.8965 -0.5013
    8SAPS   C24  972   0.892  -0.462   5.962 -0.5603  0.0177  0.4414
    8SAPS   H4R  973   0.866  -0.547   5.894 -0.1803 -2.5183  3.2569
    8SAPS   H4S  974   0.980  -0.408   5.923 -1.8493  1.1538 -1.0024
    8SAPS   C25  975   0.770  -0.374   5.981 -0.7070 -0.1338 -0.7142
    8SAPS   H5R  976   0.749  -0.335   6.082 -0.3260  1.0042 -1.0586
    8SAPS   C26  977   0.684  -0.339   5.882  0.0870 -0.0896  0.3415
    8SAPS   H6R  978   0.593  -0.282   5.908  1.0904  0.5441  2.6919
    8SAPS   C27  979   0.697  -0.381   5.736  0.4485  0.2379 -0.3995
    8SAPS   H7R  980   0.604  -0.428   5.698  0.3735 -1.3956  1.6644
    8SAPS   H7S  981   0.760  -0.472   5.742 -0.1210 -0.0831  1.0006
    8SAPS   C28  982   0.762  -0.286   5.636 -0.7178 -0.0717  0.4952
    8SAPS   H8R  983   0.803  -0.194   5.680 -0.4260  1.9518 -3.5779
    8SAPS   C29  984   0.774  -0.305   5.503 -0.6971  0.0409 -0.4637
    8SAPS   H9R  985   0.821  -0.232   5.436  1.2233  0.0074  0.7672
    8SAPS  C210  986   0.724  -0.427   5.418  0.2116 -0.8492  0.2191
    8SAPS  H10R  987   0.736  -0.510   5.491  1.2069 -1.0682 -0.1850
    8SAPS  H10S  988   0.788  -0.450   5.330 -1.8440  1.1032 -1.9493
    8SAPS  C211  989   0.579  -0.415   5.371  0.0417 -0.5870 -0.5358
    8SAPS  H11R  990   0.504  -0.443   5.446  0.7758 -1.5161 -0.1219
    8SAPS  C212  991   0.543  -0.407   5.240  0.2587 -0.7872  0.1683
    8SAPS  H12R  992   0.437  -0.403   5.209  1.0814 -0.2756 -2.9398
    8SAPS  C213  993   0.631  -0.381   5.116 -0.0882  0.2340 -0.5805
    8SAPS  H13R  994   0.732  -0.342   5.144 -0.2798 -0.6777  1.5331
    8SAPS  H13S  995   0.584  -0.298   5.058 -1.8938 -0.0574  0.4141
    8SAPS  C214  996   0.655  -0.504   5.028 -0.0099  0.6407 -0.8384
    8SAPS  H14R  997   0.741  -0.565   5.056 -0.4823  0.5701  0.5480
    8SAPS  C215  998   0.567  -0.557   4.940  0.3132  0.0695 -0.1782
    8SAPS  H15R  999   0.608  -0.642   4.882 -0.5841 -1.0574  0.7890
    8SAPS  C216 1000   0.431  -0.501   4.895  0.8006  0.2768  0.0060
    8SAPS  H16R 1001   0.405  -0.413   4.957  0.6097 -0.2245  0.6450
    8SAPS  H16S 1002   0.356  -0.580   4.919  0.0111  0.8241 -0.5900
    8SAPS  C217 1003   0.419  -0.463   4.739 -0.3019  0.1708  0.0147
    8SAPS  H17R 1004   0.311  -0.441   4.725 -0.7815 -2.8684 -1.7819
    8SAPS  H17S 1005   0.446  -0.547   4.672  2.4379  0.7494  0.2868
    8SAPS  C218 1006   0.515  -0.348   4.719  0.4532 -0.0050  0.1812
    8SAPS  H18R 1007   0.622  -0.366   4.744 -0.3005 -2.7829  1.8064
    8SAPS  H18S 1008   0.481  -0.261   4.778 -0.9535 -0.8725  0.6962
    8SAPS  C219 1009   0.512  -0.299   4.568 -0.6187  0.4616 -0.2158
    8SAPS  H19R 1010   0.406  -0.282   4.542 -0.1560  1.2827 -1.6676
    8SAPS  H19S 1011   0.565  -0.373   4.503 -0.0579  1.4058 -0.8586
    8SAPS  C220 1012   0.606  -0.171   4.557 -0.4990 -0.3041  0.2949
    8SAPS  H20R 1013   0.576  -0.100   4.637 -1.9513  1.9761 -2.1004
    8SAPS  H20S 1014   0.579  -0.119   4.462 -0.6195  0.9069  0.9671
    8SAPS  H20T 1015   0.715  -0.192   4.556 -0.6250 -1.6664 -3.7303
    8SAPS   C33 1016   0.461   0.072   6.076 -0.6466  0.0665  0.6451
    8SAPS   H3X 1017   0.561   0.094   6.034 -0.6481  3.7625  2.1769
    8SAPS   H3Y 1018   0.431   0.166   6.129  2.5477  1.2785  0.4975
    8SAPS   C34 1019   0.356   0.033   5.969 -0.6057 -0.2278 -0.2588
    8SAPS   H4X 1020   0.332   0.132   5.924  0.0217 -0.7210 -1.7631
    8SAPS   H4Y 1021   0.275  -0.010   6.032  1.0869 -1.0577  1.4768
    8SAPS   C35 1022   0.419  -0.068   5.869  0.1323 -0.1875  0.1823
    8SAPS   H5X 1023   0.439  -0.156   5.933  1.4285  0.3488  0.5620
    8SAPS   H5Y 1024   0.508  -0.023   5.820 -1.2885 -0.3232 -2.7628
    8SAPS   C36 1025   0.330  -0.110   5.750  0.4367  0.2064  0.6222
    8SAPS   H6X 1026   0.225  -0.121   5.786  0.0447  0.5389 -0.3782
    8SAPS   H6Y 1027   0.367  -0.209   5.713  0.5661  0.5619 -0.2280
    8SAPS   C37 1028   0.328  -0.004   5.636 -0.0640 -0.3467 -0.8401
    8SAPS   H7X 1029   0.430   0.022   5.600 -0.8358  1.1626 -2.1047
    8SAPS   H7Y 1030   0.281   0.090   5.672 -0.0380 -0.9528  0.8307
    8SAPS   C38 1031   0.236  -0.047   5.518  0.2149  0.0694 -0.1079
    8SAPS   H8X 1032   0.130  -0.026   5.545  0.6744  0.9242  1.1523
    8SAPS   H8Y 1033   0.240  -0.158   5.519 -0.0062  0.0589  0.4783
    8SAPS   C39 1034   0.275   0.008   5.387 -0.5086  0.4141  0.1879
    8SAPS   H9X 1035   0.385   0.001   5.375 -0.6012  0.2271 -0.6046
    8SAPS   H9Y 1036   0.252   0.117   5.391  1.3063  0.8063  1.2896
    8SAPS  C310 1037   0.203  -0.065   5.265  0.2918  0.8474 -0.1804
    8SAPS  H10X 1038   0.096  -0.085   5.288  0.4655 -0.6207 -0.5357
    8SAPS  H10Y 1039   0.246  -0.167   5.270 -1.7603 -0.2546 -2.9007
    8SAPS  C311 1040   0.240   0.005   5.137 -0.6434 -0.2281  0.7185
    8SAPS  H11X 1041   0.328   0.073   5.147 -1.8214  1.1808  2.1608
    8SAPS  H11Y 1042   0.154   0.070   5.109 -2.9585 -3.8842 -1.5040
    8SAPS  C312 1043   0.260  -0.097   5.014 -0.5735 -0.0460 -0.4472
    8SAPS  H12X 1044   0.362  -0.141   5.020 -0.4668  0.1172 -0.9367
    8SAPS  H12Y 1045   0.249  -0.046   4.916 -3.1317  3.3555  1.4047
    8SAPS  C313 1046   0.153  -0.215   5.009  0.0004  0.0211 -0.0189
    8SAPS  H13X 1047   0.145  -0.275   5.102 -1.0924  0.4174  0.1618
    8SAPS  H13Y 1048   0.175  -0.278   4.921  1.6555 -0.7475  0.8926
    8SAPS  C314 1049   0.005  -0.154   5.005  0.6448 -0.6739  0.0272
    8SAPS  H14X 1050  -0.015  -0.089   5.093  0.4806  0.7886 -1.0595
    8SAPS  H14Y 1051  -0.070  -0.235   5.016 -1.7822  1.3408 -0.7403
    8SAPS  C315 1052  -0.025  -0.075   4.871 -0.6899  0.7328  0.1138
    8SAPS  H15X 1053   0.040   0.014   4.859 -0.0522  0.2080 -0.4663
    8SAPS  H15Y 1054  -0.131  -0.043   4.883 -1.7461 -2.0405 -0.8320
    8SAPS  C316 1055  -0.006  -0.156   4.741  0.0285 -0.1816  0.0480
    8SAPS  H16X 1056  -0.057  -0.254   4.758  0.3603 -0.0367  2.0778
    8SAPS  H16Y 1057   0.103  -0.176   4.732  0.1334 -0.6121  1.8971
    8SAPS  C317 1058  -0.046  -0.093   4.607 -0.3441 -0.0347  0.7587
    8SAPS  H17X 1059  -0.051   0.017   4.616 -0.8246  0.0968 -0.8691
    8SAPS  H17Y 1060  -0.153  -0.123   4.597  0.2450 -2.3940  0.9038
    8SAPS  C318 1061   0.036  -0.133   4.486  0.3214 -0.6193 -0.3251
    8SAPS  H18X 1062  -0.002  -0.079   4.397  1.0733  2.1437  0.9071
    8SAPS  H18Y 1063   0.022  -0.243   4.485  0.2574 -0.6785  1.6568
    8SAPS  H18Z 1064   0.142  -0.100   4.500  0.0615  0.4885 -0.8413
    9SAPS     N 1065   5.318   4.004   6.903  0.0915 -0.0777  0.0634
    9SAPS   HN1 1066   5.383   3.941   6.955 -0.3784 -0.5706  0.0661
    9SAPS   HN2 1067   5.329   4.103   6.933 -1.7482  0.5371 -1.1520
    9SAPS   HN3 1068   5.218   3.978   6.914 -0.1906  0.6941 -0.6203
    9SAPS   C12 1069   5.350   3.971   6.754 -0.3831 -0.0542  0.0135
    9SAPS  H12A 1070   5.452   3.995   6.730  0.3272 -2.1342  0.7259
    9SAPS   C13 1071   5.331   3.825   6.707  0.0580 -0.5320  0.1077
    9SAPS  O13A 1072   5.275   3.753   6.791 -0.3717 -0.0248 -0.0823
    9SAPS  O13B 1073   5.357   3.794   6.590 -0.1925  0.0657  0.0284
    9SAPS   C11 1074   5.268   4.069   6.659 -0.5681 -0.2206  0.5037
    9SAPS  H11A 1075   5.162   4.036   6.655 -0.4768 -0.6341  1.2420
    9SAPS  H11B 1076   5.313   4.051   6.560 -0.0171 -1.2283  0.9234
    9SAPS     P 1077   5.188   4.322   6.656 -0.0145 -0.4624  0.1323
    9SAPS   O13 1078   5.052   4.269   6.630  0.5221  0.3354  0.0644
    9SAPS   O14 1079   5.199   4.431   6.754 -0.2682  0.3464  0.0120
    9SAPS   O12 1080   5.288   4.208   6.692 -0.1888 -0.0901 -0.8530
    9SAPS   O11 1081   5.252   4.365   6.524  0.0600  0.3225 -0.7542
    9SAPS    C1 1082   5.231   4.308   6.396  0.7382  0.2180 -0.8194
    9SAPS    HA 1083   5.271   4.206   6.382 -1.1925 -0.7029  0.1027
    9SAPS    HB 1084   5.121   4.303   6.383  0.9773 -1.5201 -2.6584
    9SAPS    C2 1085   5.291   4.399   6.293  0.1058  0.8648 -0.0426
    9SAPS    HS 1086   5.255   4.503   6.303 -1.4373  0.3008  0.5756
    9SAPS   O21 1087   5.262   4.335   6.168  0.2836 -0.3560 -0.1185
    9SAPS   C21 1088   5.244   4.422   6.070  0.0933 -0.2917 -0.1891
    9SAPS   O22 1089   5.245   4.545   6.073  0.0602 -0.1535  0.4090
    9SAPS   C22 1090   5.220   4.348   5.938 -0.3377  0.7372 -0.8016
    9SAPS   H2R 1091   5.169   4.253   5.964 -1.1875  1.4616  0.3031
    9SAPS   H2S 1092   5.152   4.403   5.869 -1.6290  0.2849  0.0789
    9SAPS    C3 1093   5.450   4.402   6.310 -0.1088 -0.5957 -0.2573
    9SAPS    HX 1094   5.487   4.302   6.339 -1.1963 -1.1822 -0.8411
    9SAPS    HY 1095   5.472   4.480   6.387  0.8050 -1.8851  0.8278
    9SAPS   O31 1096   5.513   4.441   6.185  0.5277  0.0287 -0.0618
    9SAPS   C31 1097   5.644   4.461   6.191  0.1608  0.9268 -0.5387
    9SAPS   O32 1098   5.710   4.438   6.290 -0.2991 -0.8288  0.6493
    9SAPS   C32 1099   5.692   4.502   6.055 -0.7574  0.6418  0.1344
    9SAPS   H2X 1100   5.771   4.576   6.081  2.2804 -1.9833 -1.0337
    9SAPS   H2Y 1101   5.609   4.561   6.009 -2.4113  0.0580  2.2066
    9SAPS   C23 1102   5.361   4.337   5.868  0.1743  0.3092  0.4775
    9SAPS   H3R 1103   5.353   4.251   5.798 -0.6262  1.2104 -0.5671
    9SAPS   H3S 1104   5.436   4.304   5.943  1.7297 -0.7364 -1.4546
    9SAPS   C24 1105   5.411   4.459   5.788 -0.2672  0.0563 -0.8262
    9SAPS   H4R 1106   5.499   4.422   5.731  0.5600  0.2192  0.3054
    9SAPS   H4S 1107   5.453   4.518   5.872 -1.7548  0.9677 -0.6735
    9SAPS   C25 1108   5.305   4.542   5.719 -0.2670 -0.2422  0.1194
    9SAPS   H5R 1109   5.255   4.612   5.787  0.8879  1.0644 -0.3274
    9SAPS   C26 1110   5.300   4.559   5.581 -0.5898  0.7153  0.0438
    9SAPS   H6R 1111   5.226   4.631   5.543 -0.0909  1.4937  0.5033
    9SAPS   C27 1112   5.383   4.485   5.473  0.7044 -0.1027 -0.3394
    9SAPS   H7R 1113   5.322   4.514   5.385  0.0955  2.6717  0.8888
    9SAPS   H7S 1114   5.372   4.378   5.500  1.3037  0.2763  1.5627
    9SAPS   C28 1115   5.531   4.509   5.448  0.3562  0.1416 -0.2956
    9SAPS   H8R 1116   5.588   4.542   5.537  0.5469 -1.5901  0.2609
    9SAPS   C29 1117   5.613   4.479   5.342 -0.0523 -0.1548  0.4044
    9SAPS   H9R 1118   5.721   4.496   5.355 -0.0665  0.9269 -0.6767
    9SAPS  C210 1119   5.574   4.418   5.211 -0.3869 -0.1240 -0.2077
    9SAPS  H10R 1120   5.587   4.309   5.229 -1.0003  0.1556  2.3485
    9SAPS  H10S 1121   5.646   4.456   5.135 -0.3056 -0.8258 -0.4924
    9SAPS  C211 1122   5.437   4.448   5.153 -0.2632 -0.0465  0.0875
    9SAPS  H11R 1123   5.396   4.546   5.185 -1.1035 -0.5478  0.5914
    9SAPS  C212 1124   5.362   4.371   5.072  0.5260  1.1916 -0.8742
    9SAPS  H12R 1125   5.262   4.397   5.034 -0.4869 -2.2952 -0.9658
    9SAPS  C213 1126   5.414   4.242   5.013 -0.3536 -0.7141  0.3755
    9SAPS  H13R 1127   5.336   4.166   5.034  0.8626 -2.0748  0.1542
    9SAPS  H13S 1128   5.511   4.200   5.049  1.0153  1.7020 -0.2427
    9SAPS  C214 1129   5.416   4.258   4.865  0.7201 -0.7104  0.5904
    9SAPS  H14R 1130   5.327   4.238   4.803  1.2520 -2.6046  0.3877
    9SAPS  C215 1131   5.534   4.279   4.795  0.1078 -0.0872 -0.7210
    9SAPS  H15R 1132   5.528   4.294   4.686 -0.2808  0.5630 -0.6193
    9SAPS  C216 1133   5.668   4.312   4.844 -0.1331  0.6811 -0.1753
    9SAPS  H16R 1134   5.663   4.304   4.954 -1.5445 -0.3324 -0.2772
    9SAPS  H16S 1135   5.679   4.419   4.817 -1.4597  0.7315 -0.6051
    9SAPS  C217 1136   5.791   4.229   4.785 -0.1649  0.3046  0.1831
    9SAPS  H17R 1137   5.758   4.123   4.787 -0.2566  0.2533 -2.1118
    9SAPS  H17S 1138   5.876   4.236   4.857  0.3931 -1.0601 -0.3035
    9SAPS  C218 1139   5.835   4.276   4.646  0.6703  0.2073 -0.0501
    9SAPS  H18R 1140   5.819   4.386   4.644  0.7921  0.2243 -2.6127
    9SAPS  H18S 1141   5.762   4.238   4.572  0.5814  1.0206 -0.3829
    9SAPS  C219 1142   5.979   4.235   4.598  0.0011  0.0447  0.1315
    9SAPS  H19R 1143   5.982   4.126   4.581  0.2730  0.0930 -0.1530
    9SAPS  H19S 1144   6.060   4.251   4.672 -2.3689 -0.4344  2.9889
    9SAPS  C220 1145   6.019   4.304   4.471  0.6571 -0.2833  0.8315
    9SAPS  H20R 1146   5.943   4.292   4.391  0.9325  0.6659  0.4146
    9SAPS  H20S 1147   6.117   4.266   4.435 -1.2548 -4.1493 -0.8855
    9SAPS  H20T 1148   6.026   4.414   4.490 -0.4690 -0.4590  2.4704
    9SAPS   C33 1149   5.755   4.391   5.973 -0.1121 -0.2542 -0.4326
    9SAPS   H3X 1150   5.682   4.308   5.958  1.4202 -1.3258 -2.3273
    9SAPS   H3Y 1151   5.844   4.351   6.026 -0.2099  1.0655  0.7851
    9SAPS   C34 1152   5.789   4.437   5.833  0.0138  0.1682 -0.0574
    9SAPS   H4X 1153   5.863   4.520   5.829 -2.0124  2.0824  0.4526
    9SAPS   H4Y 1154   5.700   4.481   5.782  1.4956 -0.0702 -3.0443
    9SAPS   C35 1155   5.836   4.322   5.750 -0.4894 -0.1014 -0.3808
    9SAPS   H5X 1156   5.752   4.255   5.722  0.5459 -0.7350 -2.1051
    9SAPS   H5Y 1157   5.908   4.270   5.818 -1.3763 -0.3567  0.3879
    9SAPS   C36 1158   5.903   4.373   5.617 -0.4343  0.9438 -0.5536
    9SAPS   H6X 1159   6.001   4.419   5.643 -0.7989  0.5136  1.8955
    9SAPS   H6Y 1160   5.848   4.449   5.557 -2.1503  0.6313  0.5501
    9SAPS   C37 1161   5.925   4.257   5.520 -0.5116 -0.7960 -0.4939
    9SAPS   H7X 1162   5.828   4.220   5.481 -1.4748  2.2142 -1.2371
    9SAPS   H7Y 1163   5.975   4.171   5.569 -0.9279 -0.8613 -0.1829
    9SAPS   C38 1164   6.028   4.294   5.410 -0.2780 -0.0761 -0.4953
    9SAPS   H8X 1165   6.060   4.197   5.367  0.5362 -0.5856  1.1795
    9SAPS   H8Y 1166   6.125   4.335   5.444 -0.3616 -0.1919 -0.1122
    9SAPS   C39 1167   5.985   4.377   5.293 -0.3464  0.2778 -0.2885
    9SAPS   H9X 1168   5.958   4.478   5.331  0.3965  1.2951 -2.3133
    9SAPS   H9Y 1169   5.894   4.326   5.254  0.0497  0.4262 -1.4476
    9SAPS  C310 1170   6.091   4.382   5.184  0.7067  0.2554 -0.4227
    9SAPS  H10X 1171   6.115   4.277   5.159  1.0444  0.1166  0.4208
    9SAPS  H10Y 1172   6.183   4.439   5.211 -0.2168  3.2549 -2.9533
    9SAPS  C311 1173   6.044   4.447   5.063  0.4354 -0.3882 -0.7449
    9SAPS  H11X 1174   6.062   4.555   5.077 -2.4860  0.5576 -3.3072
    9SAPS  H11Y 1175   5.934   4.427   5.063  0.0928  1.1690 -2.9525
    9SAPS  C312 1176   6.110   4.394   4.936 -0.2219 -0.5540  0.4691
    9SAPS  H12X 1177   6.073   4.448   4.846 -2.0067  0.3345  1.6862
    9SAPS  H12Y 1178   6.093   4.284   4.933 -1.3736 -0.3720 -0.3916
    9SAPS  C313 1179   6.259   4.426   4.936 -0.6331 -1.0525  0.0679
    9SAPS  H13X 1180   6.317   4.376   5.016  3.0247 -0.0741 -1.7680
    9SAPS  H13Y 1181   6.266   4.536   4.952  0.7089 -1.1671  0.3567
    9SAPS  C314 1182   6.336   4.401   4.800 -0.3527 -0.1832  1.0564
    9SAPS  H14X 1183   6.281   4.447   4.715  0.5790  0.5396  0.8199
    9SAPS  H14Y 1184   6.332   4.291   4.793  2.1274 -0.2694  0.2696
    9SAPS  C315 1185   6.482   4.445   4.811  0.0879 -0.0435 -0.2693
    9SAPS  H15X 1186   6.542   4.374   4.872 -0.4780 -0.1143  0.2166
    9SAPS  H15Y 1187   6.479   4.540   4.868  1.3212  0.6327 -1.2898
    9SAPS  C316 1188   6.551   4.464   4.679  0.4914 -0.3094  0.1791
    9SAPS  H16X 1189   6.631   4.537   4.704  0.5473 -0.1126 -0.5317
    9SAPS  H16Y 1190   6.475   4.513   4.615 -0.0994 -0.9303  0.3904
    9SAPS  C317 1191   6.588   4.338   4.611 -0.0698  0.4945 -0.6279
    9SAPS  H17X 1192   6.498   4.276   4.588 -0.1521  0.5209 -0.3781
    9SAPS  H17Y 1193   6.654   4.281   4.679 -0.4492  0.1207 -0.5594
    9SAPS  C318 1194   6.650   4.358   4.478  0.0949 -0.6723  0.2364
    9SAPS  H18X 1195   6.688   4.266   4.429 -1.0515 -1.2759  0.4556
    9SAPS  H18Y 1196   6.727   4.439   4.481 -1.0842  0.5386 -1.0082
    9SAPS  H18Z 1197   6.572   4.402   4.412 -0.2702  1.2225  1.8267
   10SAPS     N 1198   6.190   3.550   6.898  0.6235  0.5894 -0.1693
   10SAPS   HN1 1199   6.099   3.514   6.863  0.0444  0.8154  1.0478
   10SAPS   HN2 1200   6.258   3.550   6.819  0.2413 -0.9327 -0.5279
   10SAPS   HN3 1201   6.230   3.486   6.970 -0.6334 -1.1836 -0.9854
   10SAPS   C12 1202   6.170   3.690   6.951  0.3712  0.6908 -0.4938
   10SAPS  H12A 1203   6.122   3.684   7.048  0.8594 -0.7288 -0.3118
   10SAPS   C13 1204   6.305   3.773   6.960 -0.8515  0.0464 -0.2602
   10SAPS  O13A 1205   6.414   3.708   6.955 -0.3210  0.2790  0.4320
   10SAPS  O13B 1206   6.297   3.889   6.994  0.1315 -0.1440 -0.7437
   10SAPS   C11 1207   6.078   3.768   6.855  0.1716 -0.6539  0.0973
   10SAPS  H11A 1208   6.127   3.773   6.755  0.8818  1.0477  0.4986
   10SAPS  H11B 1209   6.050   3.870   6.888  0.6767  0.1755 -1.8921
   10SAPS     P 1210   5.819   3.755   6.814  0.5122  0.2926 -0.2765
   10SAPS   O13 1211   5.721   3.642   6.793 -0.2558 -0.2056  0.0175
   10SAPS   O14 1212   5.772   3.866   6.902  0.1897 -0.5308  0.1013
   10SAPS   O12 1213   5.961   3.695   6.853  0.5296 -0.2043  0.9423
   10SAPS   O11 1214   5.857   3.823   6.674 -0.4146  0.2059 -0.2965
   10SAPS    C1 1215   5.883   3.741   6.557  0.2184  0.4484  0.5750
   10SAPS    HA 1216   5.992   3.742   6.536  0.5847  2.6971  2.2261
   10SAPS    HB 1217   5.856   3.634   6.562  1.0511 -0.0160 -2.6223
   10SAPS    C2 1218   5.797   3.801   6.443 -0.1546 -0.6306 -0.2555
   10SAPS    HS 1219   5.778   3.725   6.364 -2.0287  0.5009 -0.9868
   10SAPS   O21 1220   5.861   3.921   6.387 -0.0762 -0.0054  0.1573
   10SAPS   C21 1221   5.974   3.897   6.326  0.0717 -0.6478  0.3143
   10SAPS   O22 1222   6.018   3.785   6.292  0.6409 -0.4558 -0.1340
   10SAPS   C22 1223   6.041   4.032   6.297 -0.5864 -0.5306  0.0931
   10SAPS   H2R 1224   6.017   4.099   6.383 -0.9622 -1.4657  0.7338
   10SAPS   H2S 1225   6.151   4.018   6.300 -0.2797  1.5339 -0.0707
   10SAPS    C3 1226   5.652   3.844   6.483  0.1269 -0.4938  0.4214
   10SAPS    HX 1227   5.651   3.946   6.527  2.0060 -0.3432  0.2199
   10SAPS    HY 1228   5.627   3.775   6.567  2.2989  0.5751  2.0618
   10SAPS   O31 1229   5.556   3.816   6.379 -0.2677 -0.2797 -0.0347
   10SAPS   C31 1230   5.489   3.918   6.334 -0.1234  0.0102 -0.4246
   10SAPS   O32 1231   5.490   4.029   6.384 -0.1498  0.6812 -0.3899
   10SAPS   C32 1232   5.392   3.852   6.241 -0.2065  0.0536 -0.4537
   10SAPS   H2X 1233   5.321   3.801   6.309  0.8939 -0.0081  0.6957
   10SAPS   H2Y 1234   5.457   3.779   6.188  0.1311  1.3659 -1.9157
   10SAPS   C23 1235   6.013   4.097   6.161  0.4288  0.2559  0.6422
   10SAPS   H3R 1236   6.040   4.204   6.162 -0.5467  0.5417 -0.8117
   10SAPS   H3S 1237   5.908   4.078   6.133  0.6152  0.7102 -0.3806
   10SAPS   C24 1238   6.106   4.032   6.058  0.0401 -0.2830 -0.6928
   10SAPS   H4R 1239   6.087   3.926   6.034  1.5055 -0.7647  0.1444
   10SAPS   H4S 1240   6.208   4.037   6.101 -0.6095 -1.5751  1.0995
   10SAPS   C25 1241   6.109   4.119   5.927 -0.0161 -0.3184 -0.7072
   10SAPS   H5R 1242   6.101   4.228   5.943 -0.6423  0.0115 -2.9655
   10SAPS   C26 1243   6.139   4.082   5.807  0.0618  0.5963 -0.3455
   10SAPS   H6R 1244   6.158   4.158   5.730  0.4456  0.2301 -0.6092
   10SAPS   C27 1245   6.158   3.943   5.758  0.5995 -0.0774  0.2909
   10SAPS   H7R 1246   6.147   3.858   5.828  2.3661 -1.7576 -1.3238
   10SAPS   H7S 1247   6.266   3.938   5.730  0.6214  0.9640  0.1247
   10SAPS   C28 1248   6.068   3.910   5.640  0.4324  0.3000 -0.7298
   10SAPS   H8R 1249   5.963   3.909   5.674  0.9466 -3.0759  1.2435
   10SAPS   C29 1250   6.082   3.910   5.507 -0.1610  0.0576 -0.2228
   10SAPS   H9R 1251   6.000   3.888   5.437 -0.2604  2.0309 -0.7754
   10SAPS  C210 1252   6.221   3.919   5.437 -1.0093 -0.6749 -0.2915
   10SAPS  H10R 1253   6.305   3.899   5.508 -2.4133 -0.0941  1.6438
   10SAPS  H10S 1254   6.239   4.026   5.417 -1.1843 -0.9882 -2.2387
   10SAPS  C211 1255   6.251   3.830   5.317 -0.3024 -0.8365 -0.0365
   10SAPS  H11R 1256   6.308   3.739   5.342  1.8291  0.0078 -1.4915
   10SAPS  C212 1257   6.212   3.852   5.196 -0.0143 -0.6741  0.5521
   10SAPS  H12R 1258   6.236   3.780   5.116  2.7091  0.5139  0.1769
   10SAPS  C213 1259   6.154   3.985   5.144  0.1387  0.1475 -0.5467
   10SAPS  H13R 1260   6.214   4.011   5.055 -1.2098  0.5209 -1.3691
   10SAPS  H13S 1261   6.168   4.071   5.213 -2.8273  0.0170  0.3416
   10SAPS  C214 1262   6.009   3.978   5.107  0.0461  0.0739  0.1333
   10SAPS  H14R 1263   5.945   3.980   5.196 -0.4567  0.4795 -0.2259
   10SAPS  C215 1264   5.953   3.962   4.987  0.2722  0.1529 -0.2557
   10SAPS  H15R 1265   5.844   3.953   4.987  0.2226  0.4814 -1.7082
   10SAPS  C216 1266   6.027   3.939   4.855  0.5525 -0.0223  0.2323
   10SAPS  H16R 1267   6.134   3.970   4.864  0.8566 -0.7606 -0.6799
   10SAPS  H16S 1268   5.979   4.014   4.789 -0.7254 -0.7329  0.3252
   10SAPS  C217 1269   6.024   3.801   4.787  0.2579 -0.1147  0.0076
   10SAPS  H17R 1270   6.057   3.807   4.681 -0.5727 -0.1943 -0.2661
   10SAPS  H17S 1271   5.920   3.760   4.784 -0.3476  1.3744  0.0356
   10SAPS  C218 1272   6.104   3.700   4.872 -0.2829  0.4497  0.0555
   10SAPS  H18R 1273   6.071   3.701   4.978 -0.4039 -0.5113  0.0319
   10SAPS  H18S 1274   6.211   3.730   4.879  0.7471 -2.9283  0.6847
   10SAPS  C219 1275   6.106   3.555   4.815  0.0047 -0.1666  0.3187
   10SAPS  H19R 1276   6.000   3.525   4.797  0.2544  0.4229 -2.8278
   10SAPS  H19S 1277   6.157   3.495   4.893  1.4916  0.4045 -0.1874
   10SAPS  C220 1278   6.167   3.538   4.676  0.1416  0.2064  0.8798
   10SAPS  H20R 1279   6.163   3.434   4.637 -1.6367  0.4620  0.2716
   10SAPS  H20S 1280   6.276   3.558   4.686  0.2963 -0.3001  0.2402
   10SAPS  H20T 1281   6.121   3.607   4.603  0.3619 -0.8479 -0.2850
   10SAPS   C33 1282   5.330   3.955   6.149  0.0552  1.0122  0.7993
   10SAPS   H3X 1283   5.266   4.032   6.199 -1.8136  0.1515 -0.1373
   10SAPS   H3Y 1284   5.279   3.888   6.077  2.7803  0.3954 -0.6771
   10SAPS   C34 1285   5.430   4.038   6.061 -0.0249 -0.0315  0.4680
   10SAPS   H4X 1286   5.496   4.106   6.118 -0.1541  1.7106 -1.3713
   10SAPS   H4Y 1287   5.363   4.105   6.004 -1.2745 -1.4595  0.1812
   10SAPS   C35 1288   5.509   3.962   5.945  0.2438 -0.0744 -0.7367
   10SAPS   H5X 1289   5.435   3.914   5.877  0.1121  0.5993 -1.0699
   10SAPS   H5Y 1290   5.561   3.885   6.007  2.2995  2.1960  0.5087
   10SAPS   C36 1291   5.609   4.040   5.866  0.5159  0.5449 -0.1712
   10SAPS   H6X 1292   5.702   4.046   5.926  0.5022 -1.9613  0.1983
   10SAPS   H6Y 1293   5.565   4.143   5.866  0.7653  0.6583 -0.9779
   10SAPS   C37 1294   5.643   3.989   5.723 -0.3123  0.0330  0.1476
   10SAPS   H7X 1295   5.627   3.879   5.716  0.6641 -0.1649  0.9293
   10SAPS   H7Y 1296   5.752   3.992   5.704 -0.4222  0.6458 -0.4366
   10SAPS   C38 1297   5.566   4.053   5.608 -0.2967 -0.4197 -0.2127
   10SAPS   H8X 1298   5.618   4.142   5.567 -2.3421  0.8486 -0.2196
   10SAPS   H8Y 1299   5.469   4.095   5.643 -0.0622  0.0244 -0.0837
   10SAPS   C39 1300   5.535   3.963   5.492 -0.8885 -0.0436 -0.0295
   10SAPS   H9X 1301   5.470   3.878   5.521  0.6287 -0.9061  1.0246
   10SAPS   H9Y 1302   5.631   3.916   5.460 -0.5422  1.0078 -0.5725
   10SAPS  C310 1303   5.482   4.041   5.379 -0.0653 -0.0033  0.0255
   10SAPS  H10X 1304   5.553   4.110   5.331  0.3633  0.0221  0.6790
   10SAPS  H10Y 1305   5.408   4.116   5.414 -1.0893 -0.0705 -1.8591
   10SAPS  C311 1306   5.404   3.970   5.268  0.3463 -0.2962 -0.3781
   10SAPS  H11X 1307   5.324   4.039   5.234  0.9414  0.5177 -0.1519
   10SAPS  H11Y 1308   5.354   3.880   5.309  1.2839 -0.8341 -0.3819
   10SAPS  C312 1309   5.487   3.911   5.149  0.8300  0.5151 -1.2315
   10SAPS  H12X 1310   5.580   3.872   5.197 -1.0331 -0.1148  2.1900
   10SAPS  H12Y 1311   5.520   3.995   5.084 -0.8641  0.6758 -1.9387
   10SAPS  C313 1312   5.401   3.814   5.066 -0.3093 -0.0663 -0.6161
   10SAPS  H13X 1313   5.304   3.863   5.042 -1.3181 -1.7050 -0.0398
   10SAPS  H13Y 1314   5.369   3.735   5.137 -1.2279  2.3588  1.8757
   10SAPS  C314 1315   5.484   3.751   4.950  0.0305  0.3345  0.8505
   10SAPS  H14X 1316   5.412   3.671   4.922  0.0029  0.7365 -0.2897
   10SAPS  H14Y 1317   5.569   3.699   4.999  0.8849  0.9020  0.0246
   10SAPS  C315 1318   5.513   3.846   4.835 -0.0716 -0.0075  0.5477
   10SAPS  H15X 1319   5.584   3.804   4.761  0.5526  0.8566  0.6461
   10SAPS  H15Y 1320   5.571   3.929   4.881  0.0255  0.3457 -0.1964
   10SAPS  C316 1321   5.386   3.895   4.763  0.5543  0.4732  0.6642
   10SAPS  H16X 1322   5.345   3.972   4.833  1.5525  0.1303  1.6602
   10SAPS  H16Y 1323   5.314   3.811   4.752 -0.0058  0.9442  0.7016
   10SAPS  C317 1324   5.423   3.955   4.632  0.0801  0.6190 -0.0550
   10SAPS  H17X 1325   5.462   3.872   4.569 -0.8205 -0.6143  0.9489
   10SAPS  H17Y 1326   5.503   4.031   4.643  1.9681 -1.0948 -1.3294
   10SAPS  C318 1327   5.305   4.016   4.558  0.0981  0.1532  0.5091
   10SAPS  H18X 1328   5.274   3.946   4.477  2.4934 -0.9776  0.4937
   10SAPS  H18Y 1329   5.341   4.106   4.504 -1.0224 -0.2489 -0.9819
   10SAPS  H18Z 1330   5.224   4.033   4.632 -0.1846  0.3299  0.1664
   11SAPS     N 1331   2.264   3.928   1.911 -0.0393 -0.0836  0.3037
   11SAPS   HN1 1332   2.177   3.872   1.902 -0.9444  1.5340 -1.7455
   11SAPS   HN2 1333   2.340   3.879   1.860 -0.7663 -1.3209  0.3713
   11SAPS   HN3 1334   2.286   3.929   2.013  1.5572 -0.2862 -0.0081
   11SAPS   C12 1335   2.241   4.061   1.845  0.5109  0.2534  0.2935
   11SAPS  H12A 1336   2.313   4.067   1.764 -0.5256 -0.5926 -0.7206
   11SAPS   C13 1337   2.100   4.091   1.790  0.6142  1.1313 -0.5316
   11SAPS  O13A 1338   2.010   4.002   1.794 -0.1997  0.3247  0.0620
   11SAPS  O13B 1339   2.085   4.195   1.726  0.0106  0.5262 -0.1315
   11SAPS   C11 1340   2.251   4.171   1.954  0.0810 -0.0395 -0.6659
   11SAPS  H11A 1341   2.157   4.164   2.013  0.5561 -1.7073 -0.0506
   11SAPS  H11B 1342   2.261   4.268   1.901  1.9307  0.6986  0.8983
   11SAPS     P 1343   2.360   4.124   2.187  0.0465  0.2768 -0.1174
   11SAPS   O13 1344   2.301   3.993   2.190  0.2529 -0.3838 -0.5249
   11SAPS   O14 1345   2.489   4.138   2.251  0.2703 -0.0306 -0.0601
   11SAPS   O12 1346   2.373   4.160   2.034 -0.6870  0.3926  0.1212
   11SAPS   O11 1347   2.249   4.229   2.237 -0.4337  0.2848  0.5579
   11SAPS    C1 1348   2.272   4.363   2.216 -0.4802 -0.3326  0.3587
   11SAPS    HA 1349   2.373   4.386   2.177 -0.0134  1.2568  2.3430
   11SAPS    HB 1350   2.188   4.403   2.155  0.9454  2.1381 -0.1219
   11SAPS    C2 1351   2.270   4.447   2.348  0.1513  0.3326  0.5323
   11SAPS    HS 1352   2.242   4.553   2.331 -2.7506 -0.5987 -1.2796
   11SAPS   O21 1353   2.397   4.427   2.411 -0.2723  0.2100 -0.9716
   11SAPS   C21 1354   2.482   4.516   2.364  0.7080  0.9931  0.4020
   11SAPS   O22 1355   2.455   4.613   2.293 -0.2008  0.5544  0.0661
   11SAPS   C22 1356   2.619   4.467   2.396  0.2009  0.0841  0.8560
   11SAPS   H2R 1357   2.622   4.442   2.504  1.4495  3.2025  1.6589
   11SAPS   H2S 1358   2.627   4.377   2.332  0.3877  0.2805  0.6011
   11SAPS    C3 1359   2.148   4.397   2.427 -0.3674 -0.1543 -0.4617
   11SAPS    HX 1360   2.156   4.288   2.447  0.8125 -0.0548 -0.3346
   11SAPS    HY 1361   2.057   4.406   2.364 -1.9116 -0.7762  1.5637
   11SAPS   O31 1362   2.133   4.475   2.548  0.8661 -0.2404  0.0778
   11SAPS   C31 1363   2.191   4.430   2.658 -0.5000  0.4774 -0.1749
   11SAPS   O32 1364   2.263   4.331   2.657 -0.0205  0.1392  0.4530
   11SAPS   C32 1365   2.143   4.508   2.779 -0.2424 -0.8096  0.3306
   11SAPS   H2X 1366   2.032   4.503   2.780 -0.2269 -1.1542  0.8046
   11SAPS   H2Y 1367   2.169   4.611   2.745  1.9202 -1.4661 -0.1295
   11SAPS   C23 1368   2.738   4.565   2.372  0.3677  0.0931  0.1098
   11SAPS   H3R 1369   2.722   4.604   2.269 -4.7456  1.1524  0.9905
   11SAPS   H3S 1370   2.824   4.496   2.377  0.0181 -0.3186  0.4918
   11SAPS   C24 1371   2.764   4.672   2.477 -0.2776  0.0523 -0.2639
   11SAPS   H4R 1372   2.762   4.626   2.578 -0.4104 -1.4261 -0.9191
   11SAPS   H4S 1373   2.675   4.738   2.473 -0.9097 -0.8500 -2.0738
   11SAPS   C25 1374   2.901   4.741   2.446 -0.3186 -0.3364  0.9583
   11SAPS   H5R 1375   2.938   4.742   2.342 -0.5342  0.9114  0.8793
   11SAPS   C26 1376   2.996   4.775   2.531 -0.0663  0.4572  0.1479
   11SAPS   H6R 1377   3.071   4.847   2.494  1.3252 -1.3152 -0.6124
   11SAPS   C27 1378   2.966   4.793   2.676 -0.3229 -0.3012 -0.4688
   11SAPS   H7R 1379   2.931   4.701   2.728 -2.8950  0.9133  0.1324
   11SAPS   H7S 1380   2.877   4.858   2.690  0.1285 -0.0683  1.6855
   11SAPS   C28 1381   3.076   4.853   2.763 -0.1258  0.2030  0.2660
   11SAPS   H8R 1382   3.148   4.789   2.816 -0.8580  0.9372  2.2152
   11SAPS   C29 1383   3.086   4.984   2.797 -0.0791  0.2426 -0.1506
   11SAPS   H9R 1384   3.181   5.025   2.836 -0.5296  2.1239 -0.9107
   11SAPS  C210 1385   2.986   5.092   2.755 -0.0470 -0.6162 -1.1481
   11SAPS  H10R 1386   2.896   5.098   2.820  1.0711 -0.2071  0.4462
   11SAPS  H10S 1387   2.965   5.057   2.652  2.8903 -0.8002 -1.7838
   11SAPS  C211 1388   3.038   5.231   2.761 -0.3928  0.0515 -0.3859
   11SAPS  H11R 1389   3.057   5.283   2.666  0.1181 -0.1787 -0.4076
   11SAPS  C212 1390   3.056   5.307   2.874 -0.8994  0.3861 -0.2337
   11SAPS  H12R 1391   3.084   5.413   2.870  1.2596 -0.1862 -1.8938
   11SAPS  C213 1392   3.023   5.252   3.010  0.0292 -0.0177  0.0961
   11SAPS  H13R 1393   3.035   5.141   3.015  0.7104  0.0859  1.5137
   11SAPS  H13S 1394   2.919   5.273   3.041  0.2608  1.7605 -0.2159
   11SAPS  C214 1395   3.106   5.299   3.137  0.4950 -0.2025  0.9267
   11SAPS  H14R 1396   3.187   5.230   3.165  0.5936 -0.4296  0.1105
   11SAPS  C215 1397   3.097   5.428   3.182 -0.1867 -0.3629  0.4255
   11SAPS  H15R 1398   3.159   5.458   3.267 -1.2138 -1.1954  1.4990
   11SAPS  C216 1399   3.010   5.539   3.129 -0.2099 -0.0391 -0.0107
   11SAPS  H16R 1400   2.934   5.491   3.065 -0.0610  0.3678 -0.5002
   11SAPS  H16S 1401   3.068   5.617   3.075 -0.5032 -1.4845 -2.5729
   11SAPS  C217 1402   2.932   5.612   3.243  0.0887 -0.5745  0.1879
   11SAPS  H17R 1403   3.005   5.653   3.316 -0.3974 -0.2355  0.4901
   11SAPS  H17S 1404   2.869   5.539   3.298 -0.0365 -0.1394  0.6243
   11SAPS  C218 1405   2.836   5.720   3.191 -0.5986 -0.0559 -0.7762
   11SAPS  H18R 1406   2.748   5.672   3.144  0.3732 -0.1935 -2.5350
   11SAPS  H18S 1407   2.883   5.791   3.119 -1.1543  0.1307 -0.9663
   11SAPS  C219 1408   2.785   5.811   3.309 -0.0144 -0.0587 -0.1285
   11SAPS  H19R 1409   2.714   5.890   3.276 -0.4561 -0.4583 -0.1300
   11SAPS  H19S 1410   2.867   5.866   3.360 -0.1686 -0.5407  0.6578
   11SAPS  C220 1411   2.717   5.735   3.417 -0.4232  0.2715 -1.2132
   11SAPS  H20R 1412   2.617   5.774   3.445  0.3127  0.9015  0.6806
   11SAPS  H20S 1413   2.781   5.711   3.505 -2.6234  1.4209  0.8340
   11SAPS  H20T 1414   2.688   5.640   3.368 -0.9060 -1.6307  2.4212
   11SAPS   C33 1415   2.209   4.477   2.909 -0.2044 -0.2904 -0.1052
   11SAPS   H3X 1416   2.316   4.508   2.916  0.9346 -3.8173  0.2942
   11SAPS   H3Y 1417   2.214   4.367   2.927  0.1164 -0.7052 -2.4858
   11SAPS   C34 1418   2.155   4.557   3.032  0.1295 -0.7396  0.0247
   11SAPS   H4X 1419   2.049   4.524   3.036 -0.3593  0.8999  1.7978
   11SAPS   H4Y 1420   2.154   4.668   3.023  1.8882 -0.7785 -1.2385
   11SAPS   C35 1421   2.222   4.514   3.161 -0.1066 -0.3192  0.5983
   11SAPS   H5X 1422   2.320   4.566   3.163 -0.6102  0.7819 -0.9957
   11SAPS   H5Y 1423   2.251   4.407   3.166  0.0347 -0.3786 -1.0640
   11SAPS   C36 1424   2.140   4.549   3.277  0.1055 -0.0949  0.7642
   11SAPS   H6X 1425   2.036   4.510   3.269  0.9718 -2.2751 -0.8206
   11SAPS   H6Y 1426   2.134   4.659   3.292 -2.6417  0.3279 -2.2893
   11SAPS   C37 1427   2.189   4.492   3.415 -0.4956 -0.0613 -0.1279
   11SAPS   H7X 1428   2.282   4.546   3.443 -1.0106  1.6051 -1.4588
   11SAPS   H7Y 1429   2.212   4.386   3.392 -1.5878  0.0481 -1.9377
   11SAPS   C38 1430   2.091   4.526   3.533 -0.9496 -0.5478 -0.3905
   11SAPS   H8X 1431   1.991   4.483   3.511 -0.0600 -3.1428  0.2117
   11SAPS   H8Y 1432   2.087   4.637   3.534  1.9449 -0.3688  0.0694
   11SAPS   C39 1433   2.144   4.479   3.672  0.0615 -0.2799  0.2837
   11SAPS   H9X 1434   2.245   4.521   3.690  0.2853 -0.2686 -0.9305
   11SAPS   H9Y 1435   2.143   4.369   3.663  1.5087 -0.2398 -0.7860
   11SAPS  C310 1436   2.036   4.523   3.778  0.2009  0.9621 -0.1875
   11SAPS  H10X 1437   1.950   4.463   3.743  1.7013  0.0906 -2.6606
   11SAPS  H10Y 1438   2.017   4.633   3.776  0.9403  1.1404  1.1627
   11SAPS  C311 1439   2.061   4.489   3.922 -0.0390  0.4895 -0.3371
   11SAPS  H11X 1440   1.974   4.507   3.990  0.7853  1.4458  0.4891
   11SAPS  H11Y 1441   2.135   4.565   3.953  0.7413  0.1645 -1.3685
   11SAPS  C312 1442   2.128   4.353   3.939  0.1313  0.1932  0.4638
   11SAPS  H12X 1443   2.208   4.335   3.864 -0.0608  0.8436  0.0983
   11SAPS  H12Y 1444   2.059   4.269   3.917 -1.1745  1.7374 -1.6531
   11SAPS  C313 1445   2.190   4.329   4.080 -1.0108  0.3465 -0.3698
   11SAPS  H13X 1446   2.271   4.402   4.103  0.1550 -0.9661 -0.2023
   11SAPS  H13Y 1447   2.252   4.238   4.069  2.2352  2.3206  0.1928
   11SAPS  C314 1448   2.101   4.319   4.205 -0.1954 -1.2923 -0.5369
   11SAPS  H14X 1449   2.015   4.251   4.182 -0.9165 -0.1356 -1.3885
   11SAPS  H14Y 1450   2.053   4.419   4.202 -1.2984 -1.7515  0.6235
   11SAPS  C315 1451   2.169   4.309   4.340  0.3667 -0.4226 -0.6638
   11SAPS  H15X 1452   2.243   4.390   4.361 -0.0940 -0.3933  1.0632
   11SAPS  H15Y 1453   2.234   4.220   4.329  2.8493  1.5089 -2.9820
   11SAPS  C316 1454   2.065   4.301   4.446  0.1007 -0.2750 -0.0460
   11SAPS  H16X 1455   2.035   4.195   4.458 -2.4629  0.4748  0.8094
   11SAPS  H16Y 1456   1.971   4.348   4.409 -0.4540 -1.6277 -0.4216
   11SAPS  C317 1457   2.116   4.359   4.580 -0.4254 -0.5414 -0.2935
   11SAPS  H17X 1458   2.128   4.469   4.573 -2.8234 -0.2582 -0.8162
   11SAPS  H17Y 1459   2.215   4.324   4.618 -0.2911  0.5286  0.3680
   11SAPS  C318 1460   2.015   4.344   4.699 -0.1065 -0.0578 -0.0910
   11SAPS  H18X 1461   2.052   4.416   4.775  3.2889  0.7846 -2.3181
   11SAPS  H18Y 1462   2.024   4.238   4.729 -1.0278 -0.4125 -0.9709
   11SAPS  H18Z 1463   1.909   4.366   4.671  0.7168  0.8237 -2.9011
   12SAPS     N 1464   0.726   3.002   1.755 -0.4822  0.3587 -0.3046
   12SAPS   HN1 1465   0.801   2.972   1.689  1.2617 -0.5670  1.9844
   12SAPS   HN2 1466   0.656   2.925   1.748  1.3068 -1.7478  2.8485
   12SAPS   HN3 1467   0.680   3.088   1.720  3.0741  2.3946 -0.4600
   12SAPS   C12 1468   0.776   3.009   1.898 -0.2208  0.1580  0.8182
   12SAPS  H12A 1469   0.781   2.910   1.941 -0.1876 -0.2165 -0.0112
   12SAPS   C13 1470   0.921   3.081   1.895  0.1683  0.1632 -0.8650
   12SAPS  O13A 1471   0.950   3.129   1.787  0.0947 -0.6874  0.1849
   12SAPS  O13B 1472   0.998   3.070   1.996  0.5455 -0.1376  0.0428
   12SAPS   C11 1473   0.669   3.102   1.973  0.2496 -0.3319  0.6837
   12SAPS  H11A 1474   0.669   3.200   1.922 -1.3957 -0.7629 -0.2232
   12SAPS  H11B 1475   0.698   3.118   2.079 -1.0352  1.6841  0.7784
   12SAPS     P 1476   0.415   3.144   1.976 -0.0332  0.4578 -0.2686
   12SAPS   O13 1477   0.463   3.276   1.947  0.4467 -0.6912 -0.0762
   12SAPS   O14 1478   0.316   3.087   1.881  0.1598 -0.1845 -0.0445
   12SAPS   O12 1479   0.537   3.039   1.983  1.2200  0.2221 -0.0646
   12SAPS   O11 1480   0.356   3.154   2.121 -0.2576  0.1821  0.1130
   12SAPS    C1 1481   0.427   3.201   2.238 -0.0316  0.8010 -0.0857
   12SAPS    HA 1482   0.535   3.197   2.214 -0.4074  2.7636 -2.7073
   12SAPS    HB 1483   0.393   3.307   2.247 -0.9113  0.4135  1.5405
   12SAPS    C2 1484   0.397   3.126   2.368  0.7581  0.0427  0.3183
   12SAPS    HS 1485   0.434   3.183   2.456 -0.1417  2.4931 -0.8101
   12SAPS   O21 1486   0.446   2.993   2.362  0.2364  0.1766  0.2389
   12SAPS   C21 1487   0.487   2.942   2.474  0.1423  0.9691  0.1257
   12SAPS   O22 1488   0.468   2.989   2.587  0.1148 -0.6682  0.0471
   12SAPS   C22 1489   0.550   2.800   2.457  0.4929 -0.4392 -0.1232
   12SAPS   H2R 1490   0.466   2.742   2.413  0.5669  0.2957 -1.2905
   12SAPS   H2S 1491   0.632   2.801   2.382  0.6614 -1.1154  0.0481
   12SAPS    C3 1492   0.246   3.112   2.383  0.6874 -0.6078  0.3438
   12SAPS    HX 1493   0.216   3.046   2.300 -1.5513 -1.9512  2.1229
   12SAPS    HY 1494   0.194   3.209   2.368 -0.7800 -1.7082 -2.3554
   12SAPS   O31 1495   0.207   3.040   2.504 -0.0712  0.2078  0.3602
   12SAPS   C31 1496   0.182   3.125   2.606 -0.3506 -0.7887 -0.3552
   12SAPS   O32 1497   0.166   3.244   2.598  0.2493 -0.6230  0.6846
   12SAPS   C32 1498   0.173   3.038   2.733 -0.7135  0.5341  0.0674
   12SAPS   H2X 1499   0.277   3.000   2.743 -0.6048  0.3983 -1.3949
   12SAPS   H2Y 1500   0.097   2.959   2.722  0.0096 -0.4198  1.6481
   12SAPS   C23 1501   0.606   2.742   2.578 -0.2036  0.1469  0.0131
   12SAPS   H3R 1502   0.638   2.638   2.557 -1.3366 -0.1418 -0.3399
   12SAPS   H3S 1503   0.526   2.725   2.654 -1.2114 -1.3930 -1.3244
   12SAPS   C24 1504   0.726   2.821   2.631  0.5639 -0.2171 -0.9121
   12SAPS   H4R 1505   0.691   2.917   2.675 -1.0592 -1.2687  0.2154
   12SAPS   H4S 1506   0.803   2.840   2.553  2.7859  0.2460  1.2373
   12SAPS   C25 1507   0.793   2.734   2.733  0.0909  0.3974  0.0048
   12SAPS   H5R 1508   0.846   2.647   2.691 -1.1483 -1.0021  1.2009
   12SAPS   C26 1509   0.792   2.748   2.872  0.2551 -0.1039  0.0878
   12SAPS   H6R 1510   0.839   2.678   2.943 -0.6120  1.5726  2.4468
   12SAPS   C27 1511   0.722   2.852   2.953 -0.0116  0.2824  0.1425
   12SAPS   H7R 1512   0.708   2.947   2.897  1.6607 -0.7601 -2.2405
   12SAPS   H7S 1513   0.792   2.875   3.036  2.5312 -2.5600 -1.0247
   12SAPS   C28 1514   0.586   2.788   2.993  0.2167  0.2155  0.5379
   12SAPS   H8R 1515   0.526   2.769   2.903 -0.7525  2.9930  0.5097
   12SAPS   C29 1516   0.563   2.748   3.121  0.3448 -0.5720  0.1495
   12SAPS   H9R 1517   0.471   2.691   3.141  0.3534 -0.2739  1.0897
   12SAPS  C210 1518   0.649   2.761   3.242 -0.1208 -0.8445 -0.0508
   12SAPS  H10R 1519   0.588   2.773   3.334 -0.0175  1.5667 -0.2305
   12SAPS  H10S 1520   0.700   2.860   3.236  1.8165 -1.2206  5.0354
   12SAPS  C211 1521   0.756   2.658   3.267  0.9863 -0.8081  0.1941
   12SAPS  H11R 1522   0.767   2.591   3.181 -0.6171 -0.3062 -0.4431
   12SAPS  C212 1523   0.837   2.657   3.368  0.0503 -1.1810  0.0120
   12SAPS  H12R 1524   0.898   2.566   3.376  0.2626 -1.1162 -0.8289
   12SAPS  C213 1525   0.834   2.747   3.479  0.3762  0.0448 -0.7598
   12SAPS  H13R 1526   0.792   2.847   3.454 -0.7205  0.4028  2.0797
   12SAPS  H13S 1527   0.935   2.778   3.513  0.3140  0.6822 -1.1478
   12SAPS  C214 1528   0.764   2.685   3.598  0.6697  0.1806 -0.2140
   12SAPS  H14R 1529   0.785   2.577   3.602 -2.0343 -0.6021 -3.2378
   12SAPS  C215 1530   0.668   2.732   3.680  0.5256  0.4151 -0.4473
   12SAPS  H15R 1531   0.637   2.673   3.768 -1.4592  1.7887 -0.1641
   12SAPS  C216 1532   0.623   2.880   3.678 -0.1734 -0.0297 -0.3750
   12SAPS  H16R 1533   0.523   2.895   3.634 -0.4386  1.0209  0.5390
   12SAPS  H16S 1534   0.696   2.945   3.625  2.4731 -1.1292  1.6602
   12SAPS  C217 1535   0.627   2.939   3.823  0.7717 -0.3867 -0.4476
   12SAPS  H17R 1536   0.682   3.036   3.829 -1.4334  0.9706 -1.1884
   12SAPS  H17S 1537   0.678   2.868   3.892 -1.0772 -1.3002  0.0357
   12SAPS  C218 1538   0.483   2.958   3.875 -0.0253 -0.5290  0.3496
   12SAPS  H18R 1539   0.428   2.863   3.861 -2.7743  1.1192 -0.8386
   12SAPS  H18S 1540   0.444   3.030   3.800 -0.7670 -0.4775  0.7753
   12SAPS  C219 1541   0.481   3.013   4.019  0.7305 -0.6488 -0.0531
   12SAPS  H19R 1542   0.539   2.946   4.087 -0.9689 -1.7342  0.3974
   12SAPS  H19S 1543   0.375   3.022   4.053 -0.2900  1.6751 -3.3632
   12SAPS  C220 1544   0.542   3.156   4.024  0.0483  0.4959  0.2398
   12SAPS  H20R 1545   0.494   3.215   3.943  0.8963  2.1228  0.8776
   12SAPS  H20S 1546   0.652   3.160   4.006 -0.1250 -0.4894 -1.1726
   12SAPS  H20T 1547   0.518   3.205   4.121  0.9623  0.8365  0.3106
   12SAPS   C33 1548   0.147   3.113   2.867 -0.8013 -0.8598 -0.2459
   12SAPS   H3X 1549   0.051   3.167   2.872 -0.1623  0.2598  0.3296
   12SAPS   H3Y 1550   0.228   3.187   2.886  0.8056 -2.4483 -0.6555
   12SAPS   C34 1551   0.171   3.030   2.998  0.9168 -0.1589 -0.3786
   12SAPS   H4X 1552   0.164   3.101   3.083 -0.5865 -1.3272  0.5317
   12SAPS   H4Y 1553   0.271   2.981   2.994  1.2617  0.6191 -1.8664
   12SAPS   C35 1554   0.071   2.919   3.038  0.1838 -0.1983 -0.1906
   12SAPS   H5X 1555   0.072   2.832   2.970  3.2170  0.9932 -1.9013
   12SAPS   H5Y 1556  -0.025   2.973   3.047  1.3583  2.0730 -0.3740
   12SAPS   C36 1557   0.098   2.855   3.181  0.1964  0.1633  0.2785
   12SAPS   H6X 1558   0.206   2.837   3.200  0.1638 -1.8925 -1.1732
   12SAPS   H6Y 1559   0.043   2.759   3.191  1.4728 -0.7475 -1.0131
   12SAPS   C37 1560   0.045   2.940   3.304 -0.9283 -0.1506  0.4838
   12SAPS   H7X 1561  -0.064   2.961   3.290 -1.1363 -0.1245  1.9722
   12SAPS   H7Y 1562   0.095   3.039   3.302  0.1303 -0.6707 -1.7545
   12SAPS   C38 1563   0.047   2.876   3.436 -0.4863  0.2277 -0.3374
   12SAPS   H8X 1564  -0.006   2.778   3.444  0.3826 -0.1089  4.1885
   12SAPS   H8Y 1565  -0.009   2.946   3.501 -0.7483  0.4082 -0.7515
   12SAPS   C39 1566   0.184   2.859   3.502  0.1247  0.1974 -0.0804
   12SAPS   H9X 1567   0.240   2.954   3.489  2.4114 -1.0663  0.1082
   12SAPS   H9Y 1568   0.250   2.789   3.447  0.1645  0.8845 -0.9352
   12SAPS  C310 1569   0.174   2.815   3.648 -0.4405  0.2393 -0.5380
   12SAPS  H10X 1570   0.279   2.802   3.682 -0.9650  1.5109  1.7672
   12SAPS  H10Y 1571   0.129   2.714   3.658 -0.8221  0.4614  0.0063
   12SAPS  C311 1572   0.125   2.914   3.753  0.2503  0.4482 -0.1720
   12SAPS  H11X 1573   0.026   2.951   3.716  0.2953  0.0729 -0.6785
   12SAPS  H11Y 1574   0.184   3.006   3.772 -0.5358  0.8483  0.3768
   12SAPS  C312 1575   0.097   2.836   3.881 -0.1217 -0.3849  0.0353
   12SAPS  H12X 1576   0.197   2.796   3.908 -0.4906 -1.8438 -0.6528
   12SAPS  H12Y 1577   0.024   2.754   3.865 -0.1016 -0.5180  0.6117
   12SAPS  C313 1578   0.047   2.927   3.995  0.0259  1.1835  0.0042
   12SAPS  H13X 1579  -0.046   2.986   3.976 -1.2695 -0.4014  1.1065
   12SAPS  H13Y 1580   0.125   2.998   4.031  1.5364 -0.5644  0.3197
   12SAPS  C314 1581   0.006   2.833   4.117 -0.6305  0.1814 -0.4826
   12SAPS  H14X 1582   0.102   2.812   4.170 -1.4229 -0.9445  0.5716
   12SAPS  H14Y 1583  -0.025   2.736   4.075 -1.8296  1.1398 -1.9105
   12SAPS  C315 1584  -0.108   2.901   4.192  0.4812  0.2204  0.7275
   12SAPS  H15X 1585  -0.194   2.930   4.129 -0.0319 -0.4701  1.0935
   12SAPS  H15Y 1586  -0.058   2.994   4.227  4.1262 -0.2990 -2.3781
   12SAPS  C316 1587  -0.167   2.833   4.308 -0.6100  0.5088  0.1551
   12SAPS  H16X 1588  -0.239   2.893   4.368 -0.2416 -1.0487  2.2994
   12SAPS  H16Y 1589  -0.090   2.820   4.387  0.5803  0.1992 -1.0329
   12SAPS  C317 1590  -0.215   2.691   4.269 -0.0920 -0.4303  0.4522
   12SAPS  H17X 1591  -0.126   2.639   4.227 -0.5220  1.5058 -3.2282
   12SAPS  H17Y 1592  -0.292   2.705   4.190 -0.5560  1.2347  1.1514
   12SAPS  C318 1593  -0.274   2.613   4.381  0.6735 -0.4607  0.1211
   12SAPS  H18X 1594  -0.193   2.594   4.455 -1.2278  0.0994  2.4419
   12SAPS  H18Y 1595  -0.317   2.520   4.339  0.0046  0.0569 -0.3478
   12SAPS  H18Z 1596  -0.361   2.660   4.432  1.3680  0.5425  0.4161
   13SAPS     N 1597   2.551   3.170   2.323 -0.1841 -0.3571  0.3110
   13SAPS   HN1 1598   2.640   3.123   2.350  0.0194  0.2849  0.7825
   13SAPS   HN2 1599   2.560   3.265   2.366 -0.7098  0.8703 -2.1028
   13SAPS   HN3 1600   2.474   3.118   2.370 -0.2839  0.7702  1.4473
   13SAPS   C12 1601   2.534   3.198   2.179  0.1466  0.0841  0.5524
   13SAPS  H12A 1602   2.455   3.271   2.168  0.9057  0.8443 -0.0298
   13SAPS   C13 1603   2.662   3.252   2.103  0.0464 -0.2529  0.0629
   13SAPS  O13A 1604   2.777   3.235   2.148 -0.1559 -0.3541 -0.2744
   13SAPS  O13B 1605   2.636   3.306   1.991 -0.0837  0.0255  0.2634
   13SAPS   C11 1606   2.484   3.071   2.113 -0.8728 -0.2110  0.0525
   13SAPS  H11A 1607   2.562   2.995   2.093  1.0631  1.7484 -0.1370
   13SAPS  H11B 1608   2.452   3.095   2.009 -2.0451 -0.8907  0.2370
   13SAPS     P 1609   2.296   2.890   2.140  0.5039 -0.0051 -0.1629
   13SAPS   O13 1610   2.337   2.871   2.000 -0.5519  0.0548  0.8900
   13SAPS   O14 1611   2.326   2.784   2.241  0.1084  0.3945 -0.1758
   13SAPS   O12 1612   2.373   3.017   2.193  0.5743  0.2430  0.0187
   13SAPS   O11 1613   2.148   2.936   2.161 -1.2465  0.0773 -0.2881
   13SAPS    C1 1614   2.103   3.070   2.150  0.1926 -0.7165 -0.1899
   13SAPS    HA 1615   2.154   3.121   2.066 -0.1082 -0.3392 -0.1479
   13SAPS    HB 1616   1.992   3.074   2.145  0.1126 -1.1816  0.7624
   13SAPS    C2 1617   2.118   3.159   2.285  0.1655  0.2453 -0.6810
   13SAPS    HS 1618   2.221   3.199   2.281  0.3384 -0.2559 -1.5806
   13SAPS   O21 1619   2.096   3.080   2.402 -0.5591  1.0102 -0.8118
   13SAPS   C21 1620   2.200   3.041   2.470 -0.4808 -0.4059 -0.7117
   13SAPS   O22 1621   2.315   3.074   2.456  0.2811  0.2816  0.6435
   13SAPS   C22 1622   2.145   2.963   2.589  0.0249  0.7399  0.4420
   13SAPS   H2R 1623   2.067   3.028   2.635 -0.4957  1.7049 -1.6875
   13SAPS   H2S 1624   2.104   2.865   2.553 -0.7820  1.6527 -1.2447
   13SAPS    C3 1625   2.023   3.290   2.290 -0.6297 -0.2215 -0.4025
   13SAPS    HX 1626   2.039   3.343   2.194  2.0785  0.6140  0.4174
   13SAPS    HY 1627   2.072   3.343   2.374  0.3107 -0.3365 -0.8670
   13SAPS   O31 1628   1.883   3.258   2.301  0.9544 -0.7265 -0.2093
   13SAPS   C31 1629   1.849   3.230   2.422  0.7820 -0.3439 -0.3059
   13SAPS   O32 1630   1.917   3.253   2.522  0.4189  0.3790  0.3733
   13SAPS   C32 1631   1.713   3.155   2.424 -0.2919 -0.0929  0.2451
   13SAPS   H2X 1632   1.704   3.090   2.335  0.4161  0.7599 -0.4732
   13SAPS   H2Y 1633   1.642   3.241   2.421 -1.6371 -1.1103  1.6969
   13SAPS   C23 1634   2.245   2.938   2.702  0.5705 -0.7950  0.0770
   13SAPS   H3R 1635   2.278   3.037   2.740  1.9033 -1.0858 -0.2507
   13SAPS   H3S 1636   2.326   2.881   2.652  1.7675  0.9325 -0.0787
   13SAPS   C24 1637   2.192   2.855   2.821 -0.2619 -0.3308 -0.0763
   13SAPS   H4R 1638   2.282   2.809   2.867  0.5270  2.7137  1.6852
   13SAPS   H4S 1639   2.139   2.772   2.769  1.0900 -1.1058 -0.2565
   13SAPS   C25 1640   2.092   2.917   2.915  0.3992 -1.2656  0.1054
   13SAPS   H5R 1641   1.987   2.918   2.884  0.5987 -0.7720 -0.5964
   13SAPS   C26 1642   2.122   2.961   3.045  0.6123  0.4090  0.1182
   13SAPS   H6R 1643   2.044   3.005   3.108 -0.6604  0.2564 -1.2850
   13SAPS   C27 1644   2.255   2.944   3.123  0.1178 -0.5995  0.3099
   13SAPS   H7R 1645   2.321   2.891   3.051  1.3411  2.4130 -0.9172
   13SAPS   H7S 1646   2.235   2.860   3.194  0.1485 -0.5201  0.4133
   13SAPS   C28 1647   2.337   3.060   3.172  0.7733 -0.3072 -0.3413
   13SAPS   H8R 1648   2.372   3.118   3.086 -0.0970 -2.6726 -2.4381
   13SAPS   C29 1649   2.346   3.097   3.299 -0.8178  0.2838  0.0771
   13SAPS   H9R 1650   2.412   3.182   3.321  0.5989 -1.0277  1.1323
   13SAPS  C210 1651   2.298   3.019   3.415  0.4597 -0.1316 -0.6567
   13SAPS  H10R 1652   2.371   2.937   3.435 -0.2128 -0.7406 -0.6754
   13SAPS  H10S 1653   2.201   2.968   3.397  1.0015 -2.6470  2.5657
   13SAPS  C211 1654   2.287   3.098   3.537  0.3628 -0.0222  0.2082
   13SAPS  H11R 1655   2.235   3.195   3.526 -0.6530 -0.6928 -1.1718
   13SAPS  C212 1656   2.352   3.083   3.660  0.3877 -0.2042  0.0099
   13SAPS  H12R 1657   2.322   3.149   3.742 -1.7507 -0.4025 -0.5529
   13SAPS  C213 1658   2.445   2.975   3.703  0.7341 -0.7844  0.0929
   13SAPS  H13R 1659   2.461   2.910   3.614 -2.0562  0.3666 -1.3970
   13SAPS  H13S 1660   2.396   2.913   3.781  0.1332 -1.3068 -0.6718
   13SAPS  C214 1661   2.579   3.022   3.748  0.0719 -0.4603  0.0956
   13SAPS  H14R 1662   2.632   3.061   3.660 -3.4853 -0.1861 -2.1193
   13SAPS  C215 1663   2.637   3.018   3.870  0.2788  0.1281  0.2720
   13SAPS  H15R 1664   2.733   3.067   3.890 -0.0164  0.9237 -0.1877
   13SAPS  C216 1665   2.567   2.960   3.993 -0.3012 -0.1667 -0.1830
   13SAPS  H16R 1666   2.640   2.929   4.071 -1.6410 -0.3421  1.0350
   13SAPS  H16S 1667   2.504   2.872   3.967  0.6142 -0.5120 -1.3196
   13SAPS  C217 1668   2.470   3.057   4.071 -0.4190 -0.1744  0.4204
   13SAPS  H17R 1669   2.384   3.072   4.002 -0.2371  4.6121  0.8795
   13SAPS  H17S 1670   2.527   3.152   4.082 -1.7255  0.6513  0.3202
   13SAPS  C218 1671   2.422   2.999   4.197  0.2869  0.1628 -0.0437
   13SAPS  H18R 1672   2.509   2.978   4.264  0.0316  1.8631  0.8904
   13SAPS  H18S 1673   2.369   2.903   4.183  0.1472  0.1683  0.4167
   13SAPS  C219 1674   2.322   3.085   4.272  0.0140 -0.9067  0.5286
   13SAPS  H19R 1675   2.239   3.105   4.201  1.2589  2.2279 -0.2129
   13SAPS  H19S 1676   2.381   3.179   4.278 -1.2353  0.0212 -0.9038
   13SAPS  C220 1677   2.280   3.038   4.411  0.4538 -0.0523  0.0980
   13SAPS  H20R 1678   2.206   2.955   4.411  0.0009  0.2185  3.0923
   13SAPS  H20S 1679   2.230   3.125   4.458  0.7336 -0.1422  0.5737
   13SAPS  H20T 1680   2.369   3.004   4.469 -0.3908  0.4353  1.7481
   13SAPS   C33 1681   1.686   3.086   2.560 -0.2320 -0.5867  0.0580
   13SAPS   H3X 1682   1.582   3.048   2.554 -0.3594 -0.1438 -0.5963
   13SAPS   H3Y 1683   1.695   3.149   2.650  1.0543 -0.5402 -0.0834
   13SAPS   C34 1684   1.761   2.947   2.569  0.2008 -0.1285 -0.0115
   13SAPS   H4X 1685   1.863   2.963   2.528 -0.6071  1.2567 -1.6110
   13SAPS   H4Y 1686   1.707   2.877   2.502  0.8662  0.8315 -1.6166
   13SAPS   C35 1687   1.770   2.882   2.708  0.4104 -0.0910  0.7117
   13SAPS   H5X 1688   1.822   2.953   2.775 -0.2523  0.9261  0.1637
   13SAPS   H5Y 1689   1.836   2.794   2.694  0.1000 -0.0993 -0.8709
   13SAPS   C36 1690   1.624   2.844   2.753  0.3144  0.0953  0.7120
   13SAPS   H6X 1691   1.601   2.768   2.676  0.7729 -0.8641  1.4982
   13SAPS   H6Y 1692   1.569   2.941   2.745  1.2141  0.5395 -0.4910
   13SAPS   C37 1693   1.623   2.786   2.895  0.3194 -0.5213  0.3334
   13SAPS   H7X 1694   1.700   2.708   2.906 -0.5824 -1.4268  0.3604
   13SAPS   H7Y 1695   1.524   2.738   2.912 -0.9297  1.5102 -0.7446
   13SAPS   C38 1696   1.652   2.888   3.007  0.1356  0.1386 -0.3635
   13SAPS   H8X 1697   1.583   2.975   3.014  0.5610  0.3427  2.1916
   13SAPS   H8Y 1698   1.750   2.938   2.994  0.7930 -1.0978 -0.3166
   13SAPS   C39 1699   1.638   2.832   3.147  0.4275  0.5409 -0.0500
   13SAPS   H9X 1700   1.721   2.763   3.174 -0.0136 -0.7748 -1.8364
   13SAPS   H9Y 1701   1.544   2.774   3.139  0.8942 -0.2478  0.0962
   13SAPS  C310 1702   1.623   2.941   3.252 -0.1462 -0.2905  0.3660
   13SAPS  H10X 1703   1.531   2.999   3.228 -0.1957 -0.7516 -0.5988
   13SAPS  H10Y 1704   1.719   2.996   3.244 -0.5620  0.2615 -1.2382
   13SAPS  C311 1705   1.611   2.884   3.391  0.1868  0.0503  0.3944
   13SAPS  H11X 1706   1.683   2.799   3.399 -0.1285 -0.1294  1.6065
   13SAPS  H11Y 1707   1.512   2.834   3.400  0.4920 -0.7073 -0.3713
   13SAPS  C312 1708   1.617   2.986   3.506 -0.0072  0.6386  0.8901
   13SAPS  H12X 1709   1.519   3.037   3.500 -0.2523 -0.0345 -1.8089
   13SAPS  H12Y 1710   1.701   3.059   3.497 -1.2886  2.3681  2.1228
   13SAPS  C313 1711   1.631   2.924   3.646  0.0964  0.0875 -0.1770
   13SAPS  H13X 1712   1.553   2.848   3.670  0.6925 -0.4619  0.0527
   13SAPS  H13Y 1713   1.614   3.017   3.704  2.3178  0.6224 -0.3149
   13SAPS  C314 1714   1.764   2.876   3.689 -0.6475 -0.1259 -0.4638
   13SAPS  H14X 1715   1.836   2.960   3.675 -0.7978  0.0643 -0.1236
   13SAPS  H14Y 1716   1.803   2.794   3.626  2.2859  2.1635 -1.9084
   13SAPS  C315 1717   1.769   2.843   3.838 -0.0048 -0.2687  0.1193
   13SAPS  H15X 1718   1.717   2.747   3.860  0.2288 -0.1238  1.3678
   13SAPS  H15Y 1719   1.720   2.932   3.884 -1.7565 -0.2864 -1.5621
   13SAPS  C316 1720   1.906   2.827   3.904 -0.3710 -0.8074 -0.0882
   13SAPS  H16X 1721   1.956   2.752   3.839  1.1836  2.5850 -3.1464
   13SAPS  H16Y 1722   1.896   2.790   4.008 -1.0728 -1.2043 -0.2902
   13SAPS  C317 1723   2.002   2.948   3.896 -0.4107  0.2462  0.3934
   13SAPS  H17X 1724   1.954   3.036   3.944 -0.4155  1.0238 -0.9559
   13SAPS  H17Y 1725   2.015   2.968   3.787 -3.7819  0.0941 -0.1672
   13SAPS  C318 1726   2.128   2.911   3.971  0.2978  0.2766  0.1644
   13SAPS  H18X 1727   2.099   2.874   4.072  0.9740 -1.6893 -0.3068
   13SAPS  H18Y 1728   2.196   2.998   3.972 -1.2716  1.5405  0.6363
   13SAPS  H18Z 1729   2.179   2.820   3.932 -0.6154 -1.1147  2.0261
   14SAPS     N 1730   2.565   5.760   2.220 -0.2812  0.1663 -0.2026
   14SAPS   HN1 1731   2.602   5.844   2.270  1.2788 -0.6043 -0.0057
   14SAPS   HN2 1732   2.496   5.786   2.148 -2.3222 -0.4963  1.4205
   14SAPS   HN3 1733   2.513   5.695   2.282  0.0078  0.1111 -0.0111
   14SAPS   C12 1734   2.686   5.690   2.160  0.4138  0.7195  0.4525
   14SAPS  H12A 1735   2.734   5.623   2.230 -0.0750 -0.7165 -0.5452
   14SAPS   C13 1736   2.652   5.599   2.034  0.4751 -0.0309  0.5148
   14SAPS  O13A 1737   2.530   5.594   1.995  0.3463  0.2829  0.2942
   14SAPS  O13B 1738   2.743   5.529   1.985  0.0919 -0.0362 -0.6549
   14SAPS   C11 1739   2.782   5.801   2.118 -0.5750 -0.3832 -0.1104
   14SAPS  H11A 1740   2.723   5.866   2.051 -0.1522  0.0735 -0.0415
   14SAPS  H11B 1741   2.866   5.758   2.059 -0.9744  0.5170 -1.3512
   14SAPS     P 1742   2.959   5.856   2.305  0.2109  0.1459  0.1032
   14SAPS   O13 1743   3.067   5.887   2.208  0.0476 -0.6056 -0.4387
   14SAPS   O14 1744   2.970   5.926   2.429 -0.0224 -0.0086  0.1515
   14SAPS   O12 1745   2.816   5.884   2.232 -0.2513  0.4354  0.0491
   14SAPS   O11 1746   2.960   5.698   2.321  0.0705 -0.2505 -0.0158
   14SAPS    C1 1747   2.884   5.646   2.428 -0.2734  0.9945 -0.3744
   14SAPS    HA 1748   2.788   5.699   2.446 -1.3627 -1.0246  0.0456
   14SAPS    HB 1749   2.852   5.543   2.401 -0.0175  0.6584  0.5360
   14SAPS    C2 1750   2.969   5.633   2.564 -0.5182 -0.6687  0.6444
   14SAPS    HS 1751   2.970   5.736   2.606 -1.5626  0.5128 -1.9424
   14SAPS   O21 1752   3.104   5.589   2.542  0.0005  0.5613  0.1550
   14SAPS   C21 1753   3.176   5.595   2.660  0.3099  0.5409 -0.4171
   14SAPS   O22 1754   3.145   5.656   2.755  0.3037 -0.1563  0.1581
   14SAPS   C22 1755   3.308   5.523   2.637 -0.0666 -0.1221 -0.0816
   14SAPS   H2R 1756   3.286   5.422   2.597  0.0994 -0.4239  0.5689
   14SAPS   H2S 1757   3.357   5.583   2.558 -0.4591  1.6719  0.9919
   14SAPS    C3 1758   2.888   5.544   2.662 -0.1279  0.8097 -0.3466
   14SAPS    HX 1759   2.947   5.522   2.754  0.3683 -0.5449 -0.9652
   14SAPS    HY 1760   2.877   5.441   2.623  2.4078  0.4134 -0.1544
   14SAPS   O31 1761   2.757   5.602   2.684  0.0768  0.9708 -0.3241
   14SAPS   C31 1762   2.728   5.675   2.789 -1.1738 -0.2137 -0.4279
   14SAPS   O32 1763   2.816   5.706   2.870 -0.2101 -0.4343 -0.0636
   14SAPS   C32 1764   2.595   5.735   2.774  1.0424  0.3769 -0.1575
   14SAPS   H2X 1765   2.513   5.660   2.777  0.4107  0.9874 -1.4469
   14SAPS   H2Y 1766   2.603   5.781   2.673  0.7991  1.9467  0.5162
   14SAPS   C23 1767   3.397   5.502   2.757 -0.2898  0.2612  0.0570
   14SAPS   H3R 1768   3.469   5.424   2.725 -0.3850  1.1301 -2.4696
   14SAPS   H3S 1769   3.338   5.475   2.848 -0.1371  0.3043  0.1690
   14SAPS   C24 1770   3.471   5.633   2.803 -0.0407  0.7904 -0.2422
   14SAPS   H4R 1771   3.404   5.720   2.818  1.0296  2.0466 -2.2038
   14SAPS   H4S 1772   3.519   5.655   2.705 -0.6476  1.3984 -0.4113
   14SAPS   C25 1773   3.574   5.611   2.916 -0.7303 -0.8082  0.3020
   14SAPS   H5R 1774   3.677   5.611   2.877 -0.7275 -0.2170  0.3030
   14SAPS   C26 1775   3.552   5.619   3.046 -0.5190  1.0726 -0.3064
   14SAPS   H6R 1776   3.645   5.611   3.104 -1.1824 -1.4286  0.5580
   14SAPS   C27 1777   3.415   5.607   3.113 -0.5218 -0.0621 -0.1316
   14SAPS   H7R 1778   3.418   5.507   3.162  1.8107 -0.0361 -0.0771
   14SAPS   H7S 1779   3.335   5.600   3.036  1.0765 -0.4154 -1.8267
   14SAPS   C28 1780   3.393   5.720   3.201  0.0782 -0.3098 -0.9788
   14SAPS   H8R 1781   3.302   5.774   3.172 -1.8507 -3.0800 -0.5324
   14SAPS   C29 1782   3.452   5.741   3.321 -0.0693 -0.0227 -0.2505
   14SAPS   H9R 1783   3.422   5.833   3.373  1.3346  0.2810  0.0565
   14SAPS  C210 1784   3.565   5.663   3.390  0.2304 -0.5580 -0.3017
   14SAPS  H10R 1785   3.553   5.560   3.350 -0.8238 -0.3807 -0.4639
   14SAPS  H10S 1786   3.561   5.658   3.501  0.0850  1.5885 -0.1696
   14SAPS  C211 1787   3.702   5.726   3.355 -0.2138  0.1335  0.1201
   14SAPS  H11R 1788   3.714   5.746   3.248  0.9840  0.5208  0.3034
   14SAPS  C212 1789   3.791   5.777   3.446 -0.1891 -0.2931  0.6234
   14SAPS  H12R 1790   3.876   5.838   3.411 -0.2641 -1.0997 -1.0351
   14SAPS  C213 1791   3.771   5.767   3.593  0.0635  0.1831 -0.3267
   14SAPS  H13R 1792   3.875   5.761   3.631 -0.7588  0.7631  2.2007
   14SAPS  H13S 1793   3.709   5.677   3.613 -0.0067 -0.1609 -1.9398
   14SAPS  C214 1794   3.720   5.892   3.655 -0.8111 -0.0379 -0.3187
   14SAPS  H14R 1795   3.641   5.949   3.605 -2.0240 -3.3167 -2.4805
   14SAPS  C215 1796   3.762   5.943   3.772 -0.6200 -0.3089 -0.8381
   14SAPS  H15R 1797   3.725   6.041   3.806  3.2524  1.6322 -1.7127
   14SAPS  C216 1798   3.866   5.887   3.862  0.5067 -0.5069 -0.2168
   14SAPS  H16R 1799   3.958   5.949   3.857  0.7147 -0.7207  0.7225
   14SAPS  H16S 1800   3.898   5.786   3.828  4.0114  0.0901  0.8137
   14SAPS  C217 1801   3.821   5.882   4.007 -0.0084  0.0700  0.0441
   14SAPS  H17R 1802   3.892   5.823   4.069  1.9408  0.8784 -1.3139
   14SAPS  H17S 1803   3.723   5.830   4.021 -0.5784  1.0789 -0.1329
   14SAPS  C218 1804   3.803   6.025   4.064 -0.4040 -0.1794  0.7883
   14SAPS  H18R 1805   3.714   6.081   4.030  0.2221  2.8115  3.5887
   14SAPS  H18S 1806   3.890   6.085   4.030  0.1726 -1.4274 -0.0216
   14SAPS  C219 1807   3.787   6.013   4.216 -0.0926  0.1337 -0.4790
   14SAPS  H19R 1808   3.871   5.949   4.251 -0.6485 -0.2438  0.1803
   14SAPS  H19S 1809   3.703   5.951   4.253  0.7455 -0.3753  0.6356
   14SAPS  C220 1810   3.787   6.153   4.285  0.4191  0.2831  0.3518
   14SAPS  H20R 1811   3.737   6.148   4.384  0.1064 -1.5310  0.1248
   14SAPS  H20S 1812   3.729   6.223   4.221  1.9333  0.0367 -1.3818
   14SAPS  H20T 1813   3.887   6.195   4.309  0.4986 -0.4186  1.3095
   14SAPS   C33 1814   2.565   5.846   2.877 -0.3727  0.1597  0.4825
   14SAPS   H3X 1815   2.645   5.924   2.875 -2.1712  2.1110 -1.9198
   14SAPS   H3Y 1816   2.567   5.809   2.981  2.2951 -2.3023 -0.3002
   14SAPS   C34 1817   2.442   5.922   2.852  0.1854 -0.2528 -0.8781
   14SAPS   H4X 1818   2.356   5.858   2.881  0.8703 -0.2315  1.4042
   14SAPS   H4Y 1819   2.437   5.944   2.743  1.0675  0.6978 -0.7403
   14SAPS   C35 1820   2.422   6.054   2.930  0.4616 -0.6176  0.2714
   14SAPS   H5X 1821   2.318   6.087   2.912  0.3865 -1.2297 -0.4779
   14SAPS   H5Y 1822   2.486   6.126   2.876 -0.8705  0.9159  0.6793
   14SAPS   C36 1823   2.459   6.056   3.078  0.0035  0.4234  0.1706
   14SAPS   H6X 1824   2.434   6.161   3.107  0.8755  0.9652 -0.9600
   14SAPS   H6Y 1825   2.569   6.043   3.072 -0.0708 -0.0494 -0.1920
   14SAPS   C37 1826   2.386   5.958   3.165 -0.5619  0.7238  0.3738
   14SAPS   H7X 1827   2.408   5.856   3.128 -0.6747  1.0037 -0.4865
   14SAPS   H7Y 1828   2.278   5.979   3.149 -0.4244  1.8002  0.7839
   14SAPS   C38 1829   2.429   5.968   3.308 -0.2042 -0.6065 -0.2797
   14SAPS   H8X 1830   2.538   5.991   3.308  0.1306 -1.2979  4.2220
   14SAPS   H8Y 1831   2.407   5.877   3.367 -2.6156 -0.1752 -0.4102
   14SAPS   C39 1832   2.341   6.072   3.379  0.5151  0.3647  0.1196
   14SAPS   H9X 1833   2.237   6.035   3.393  0.5436 -0.0031 -0.6363
   14SAPS   H9Y 1834   2.338   6.163   3.316  0.2299 -0.8618 -1.7285
   14SAPS  C310 1835   2.394   6.119   3.521  0.3614  0.5321 -0.1830
   14SAPS  H10X 1836   2.324   6.193   3.565  1.8166  1.2740  0.9232
   14SAPS  H10Y 1837   2.494   6.163   3.504  1.3010 -1.6159 -0.6279
   14SAPS  C311 1838   2.406   5.999   3.625  0.2248  0.3863  0.9150
   14SAPS  H11X 1839   2.493   5.934   3.603 -0.5524 -0.5301  0.4748
   14SAPS  H11Y 1840   2.316   5.936   3.609 -0.8250  2.1121 -0.3120
   14SAPS  C312 1841   2.403   6.049   3.772  0.3785 -0.2820 -0.1792
   14SAPS  H12X 1842   2.322   6.120   3.797 -0.7371 -2.0945  1.7539
   14SAPS  H12Y 1843   2.506   6.089   3.785 -0.2103  0.8196  1.4321
   14SAPS  C313 1844   2.386   5.928   3.865  0.0450  0.0959  0.3064
   14SAPS  H13X 1845   2.461   5.853   3.831 -0.2676  0.7102 -1.8684
   14SAPS  H13Y 1846   2.284   5.886   3.847 -1.0602  1.9713  1.8201
   14SAPS  C314 1847   2.390   5.970   4.014  0.0655 -0.1115 -0.7439
   14SAPS  H14X 1848   2.325   6.057   4.040  0.7980  1.0268 -2.5502
   14SAPS  H14Y 1849   2.492   6.005   4.038 -0.6726  0.8503  1.2561
   14SAPS  C315 1850   2.355   5.858   4.110 -0.1281  0.3531  0.6791
   14SAPS  H15X 1851   2.433   5.781   4.093  1.7412  2.3836 -0.3597
   14SAPS  H15Y 1852   2.257   5.819   4.074 -0.5682  0.3517  1.8388
   14SAPS  C316 1853   2.355   5.894   4.255  0.2186 -0.4238 -0.0804
   14SAPS  H16X 1854   2.440   5.956   4.291 -1.6776  1.4296  1.4630
   14SAPS  H16Y 1855   2.351   5.803   4.320  0.8673 -0.5149 -0.1597
   14SAPS  C317 1856   2.241   5.978   4.303  0.2097 -0.0497  0.9225
   14SAPS  H17X 1857   2.148   5.920   4.283  0.3377 -0.2747  0.9768
   14SAPS  H17Y 1858   2.233   6.068   4.237 -0.9592 -1.5546 -1.0934
   14SAPS  C318 1859   2.254   6.026   4.452 -0.4757  0.0373  0.3047
   14SAPS  H18X 1860   2.249   5.944   4.527 -0.0654  0.7676  1.1461
   14SAPS  H18Y 1861   2.170   6.095   4.473  0.1817  1.1486 -0.6371
   14SAPS  H18Z 1862   2.353   6.076   4.458 -0.5306  0.3743 -1.2325
   15SAPS     N 1863   2.703   6.251   2.133 -0.1866  0.0982  0.7606
   15SAPS   HN1 1864   2.716   6.173   2.066 -1.8669  2.4532 -2.5720
   15SAPS   HN2 1865   2.748   6.329   2.082 -0.6137 -0.4451 -0.4695
   15SAPS   HN3 1866   2.752   6.227   2.222 -1.0735 -0.2476  1.1706
   15SAPS   C12 1867   2.560   6.286   2.159  0.3852 -0.2733  0.1837
   15SAPS  H12A 1868   2.522   6.328   2.067 -2.2897 -3.1104 -0.1652
   15SAPS   C13 1869   2.481   6.154   2.183 -0.2088  0.1634  0.1453
   15SAPS  O13A 1870   2.514   6.042   2.129 -0.7073 -0.0402  0.2820
   15SAPS  O13B 1871   2.358   6.168   2.213  0.8635 -0.1381  0.7638
   15SAPS   C11 1872   2.550   6.394   2.271 -0.2108 -0.1018 -0.6592
   15SAPS  H11A 1873   2.605   6.363   2.362  1.2608  2.4734 -0.5932
   15SAPS  H11B 1874   2.444   6.412   2.299  0.7849  2.1586  2.2382
   15SAPS     P 1875   2.539   6.647   2.175  0.2841 -0.2171 -0.1416
   15SAPS   O13 1876   2.632   6.719   2.090  0.6213 -0.5179  0.4475
   15SAPS   O14 1877   2.413   6.611   2.107  0.1128  0.0439  0.3981
   15SAPS   O12 1878   2.610   6.517   2.224  0.0474  0.4060  0.4386
   15SAPS   O11 1879   2.502   6.743   2.303  0.1870 -0.9590  0.0198
   15SAPS    C1 1880   2.602   6.766   2.400 -0.5886  0.0548 -0.1251
   15SAPS    HA 1881   2.704   6.760   2.357 -0.1492  0.0391  0.8909
   15SAPS    HB 1882   2.594   6.863   2.454  1.0457 -1.3236  2.8716
   15SAPS    C2 1883   2.587   6.658   2.515  0.1614  0.2844 -0.9609
   15SAPS    HS 1884   2.607   6.559   2.469 -1.2995 -0.1404 -0.7476
   15SAPS   O21 1885   2.455   6.660   2.577 -0.4231 -0.1759 -0.2588
   15SAPS   C21 1886   2.404   6.543   2.611 -0.0275  1.0396 -0.2060
   15SAPS   O22 1887   2.448   6.430   2.603  0.2343 -0.8670 -0.2635
   15SAPS   C22 1888   2.263   6.568   2.671 -0.1582  0.7835  0.4281
   15SAPS   H2R 1889   2.228   6.662   2.622  0.0895  0.2634 -0.7985
   15SAPS   H2S 1890   2.202   6.490   2.620  0.1810  2.4633 -2.7861
   15SAPS    C3 1891   2.697   6.675   2.628  0.9705 -0.3984  0.3780
   15SAPS    HX 1892   2.673   6.768   2.683 -0.7740  0.2317 -1.3269
   15SAPS    HY 1893   2.792   6.675   2.570  0.9280 -1.1747  0.2985
   15SAPS   O31 1894   2.695   6.561   2.718  0.5360  0.4328 -0.2580
   15SAPS   C31 1895   2.769   6.456   2.677 -0.0010  0.1321 -0.1649
   15SAPS   O32 1896   2.840   6.459   2.574  0.0095  0.4186  0.2454
   15SAPS   C32 1897   2.751   6.333   2.772  0.9364 -0.6150 -0.0959
   15SAPS   H2X 1898   2.781   6.247   2.708  0.5527 -0.2954 -0.7118
   15SAPS   H2Y 1899   2.647   6.308   2.798  1.4167 -0.4243  2.1802
   15SAPS   C23 1900   2.277   6.575   2.828  0.5932  0.3944  0.3240
   15SAPS   H3R 1901   2.326   6.480   2.858  2.1440  0.7527 -0.9370
   15SAPS   H3S 1902   2.176   6.586   2.872  0.4332  0.4533 -0.0480
   15SAPS   C24 1903   2.359   6.682   2.892 -0.8271 -0.5649 -0.1651
   15SAPS   H4R 1904   2.462   6.669   2.851  1.6352 -0.0057  5.1236
   15SAPS   H4S 1905   2.378   6.661   2.999 -0.6939 -1.4012 -0.3441
   15SAPS   C25 1906   2.312   6.825   2.856  0.4851  0.9244  0.2793
   15SAPS   H5R 1907   2.336   6.853   2.752 -1.5590 -2.9644 -1.4529
   15SAPS   C26 1908   2.257   6.917   2.937 -0.5919 -0.2398  0.9556
   15SAPS   H6R 1909   2.224   7.011   2.891 -0.3302 -0.4775  0.2805
   15SAPS   C27 1910   2.229   6.905   3.085  1.3156 -0.3910 -0.3383
   15SAPS   H7R 1911   2.143   6.834   3.088 -1.0112  2.2585  0.6560
   15SAPS   H7S 1912   2.184   7.001   3.118  1.2831 -1.2795  2.4930
   15SAPS   C28 1913   2.345   6.877   3.165 -0.3434 -0.1958  0.7821
   15SAPS   H8R 1914   2.435   6.888   3.102 -1.2950 -1.9992 -1.0075
   15SAPS   C29 1915   2.364   6.857   3.300  0.6302  0.8227  0.5420
   15SAPS   H9R 1916   2.467   6.833   3.332  1.0007  2.8173  1.0021
   15SAPS  C210 1917   2.263   6.837   3.411  0.3306 -0.1377  0.9323
   15SAPS  H10R 1918   2.283   6.745   3.470 -0.8930 -1.4681 -0.6144
   15SAPS  H10S 1919   2.176   6.811   3.346  1.9202  0.0204 -1.3606
   15SAPS  C211 1920   2.236   6.962   3.486  0.9202  0.0773 -0.1235
   15SAPS  H11R 1921   2.155   7.025   3.448 -0.0792 -1.1303 -0.0697
   15SAPS  C212 1922   2.296   6.989   3.604  0.1647 -0.4755  0.0976
   15SAPS  H12R 1923   2.266   7.085   3.649  1.0256 -0.2600  0.2216
   15SAPS  C213 1924   2.402   6.907   3.671 -0.8975 -0.6891  0.1551
   15SAPS  H13R 1925   2.472   6.977   3.721 -0.7628 -1.0481  0.4750
   15SAPS  H13S 1926   2.462   6.847   3.599 -0.2654  0.0236  0.0794
   15SAPS  C214 1927   2.359   6.815   3.782  0.3189  0.0815  0.4006
   15SAPS  H14R 1928   2.376   6.710   3.752  0.9827  0.4666 -0.6134
   15SAPS  C215 1929   2.277   6.831   3.891  0.1310  0.4437 -0.6007
   15SAPS  H15R 1930   2.270   6.753   3.967  2.3413  2.1534  1.5180
   15SAPS  C216 1931   2.213   6.960   3.931 -0.3143  0.1210 -0.1630
   15SAPS  H16R 1932   2.103   6.948   3.943 -0.0853 -0.0691  2.2199
   15SAPS  H16S 1933   2.227   7.040   3.856 -0.9712 -0.1948 -0.6338
   15SAPS  C217 1934   2.273   7.020   4.055 -0.2800 -0.3880  0.0174
   15SAPS  H17R 1935   2.218   7.117   4.059 -1.5311 -1.0674 -0.2505
   15SAPS  H17S 1936   2.377   7.055   4.038 -1.4235  2.8696 -1.0554
   15SAPS  C218 1937   2.260   6.938   4.184  0.2957 -0.1108 -0.3040
   15SAPS  H18R 1938   2.337   6.859   4.168 -0.5279 -1.3349  1.4635
   15SAPS  H18S 1939   2.155   6.903   4.198  0.1861 -1.0554 -2.9899
   15SAPS  C219 1940   2.306   7.030   4.296 -0.3277 -0.5164 -0.3805
   15SAPS  H19R 1941   2.241   7.120   4.288 -0.6268 -0.7419 -0.5371
   15SAPS  H19S 1942   2.406   7.063   4.262 -0.1652 -0.8537 -0.2357
   15SAPS  C220 1943   2.312   6.983   4.450 -0.0208  0.1130  0.8210
   15SAPS  H20R 1944   2.359   6.883   4.447 -2.6653 -1.2376 -2.0613
   15SAPS  H20S 1945   2.214   6.982   4.503 -1.6916 -0.8312 -2.0441
   15SAPS  H20T 1946   2.378   7.058   4.498  1.3598  0.3371 -1.2898
   15SAPS   C33 1947   2.841   6.323   2.896 -0.2515 -0.5216  0.7950
   15SAPS   H3X 1948   2.813   6.393   2.978  0.9493 -1.0375  1.6917
   15SAPS   H3Y 1949   2.943   6.358   2.870 -1.2048  1.7462 -0.1404
   15SAPS   C34 1950   2.830   6.184   2.961  0.2964  0.5863  0.2909
   15SAPS   H4X 1951   2.899   6.128   2.894  0.3484 -0.1889  0.9758
   15SAPS   H4Y 1952   2.733   6.130   2.961  1.4478 -1.6126 -0.4182
   15SAPS   C35 1953   2.874   6.182   3.108 -0.7014  0.9872 -0.5083
   15SAPS   H5X 1954   2.878   6.075   3.138  0.8235  0.6716 -1.6994
   15SAPS   H5Y 1955   2.811   6.245   3.173  0.1733  0.4629  0.9094
   15SAPS   C36 1956   3.022   6.229   3.123  0.5070 -0.7582  0.7986
   15SAPS   H6X 1957   3.045   6.329   3.080  0.1973 -1.3941 -0.9012
   15SAPS   H6Y 1958   3.096   6.169   3.066 -0.5237  0.0589 -1.5118
   15SAPS   C37 1959   3.074   6.225   3.263 -0.0790  0.1451 -0.5370
   15SAPS   H7X 1960   3.185   6.230   3.256  0.0559 -1.1746  0.2959
   15SAPS   H7Y 1961   3.060   6.121   3.298 -1.9408  0.3186 -0.6688
   15SAPS   C38 1962   3.009   6.326   3.359 -0.3233 -0.6999 -0.4571
   15SAPS   H8X 1963   2.899   6.316   3.373 -0.7629  1.1669 -2.0682
   15SAPS   H8Y 1964   3.013   6.429   3.316  2.8973 -0.7832 -0.5509
   15SAPS   C39 1965   3.075   6.321   3.504 -0.2807  0.2272  0.3508
   15SAPS   H9X 1966   3.186   6.318   3.501 -0.2021  1.0882  1.4942
   15SAPS   H9Y 1967   3.037   6.235   3.564  2.2102 -0.4797  1.0337
   15SAPS  C310 1968   3.033   6.446   3.590 -0.5772 -0.6853 -0.2482
   15SAPS  H10X 1969   2.928   6.465   3.561 -0.5182  0.4527  0.2294
   15SAPS  H10Y 1970   3.089   6.535   3.556  2.4807 -1.9977  0.9377
   15SAPS  C311 1971   3.037   6.440   3.743 -0.4715 -0.6506 -0.5473
   15SAPS  H11X 1972   2.955   6.368   3.766 -1.9809  1.0852 -0.2213
   15SAPS  H11Y 1973   3.005   6.542   3.774 -0.1063 -0.7948  0.3317
   15SAPS  C312 1974   3.176   6.401   3.806  0.6986  0.2544  0.7276
   15SAPS  H12X 1975   3.261   6.468   3.783  0.6446  0.2264  0.4442
   15SAPS  H12Y 1976   3.204   6.305   3.758  0.9626  1.3593 -1.4174
   15SAPS  C313 1977   3.152   6.386   3.959 -0.9406 -0.3171  0.0105
   15SAPS  H13X 1978   3.108   6.483   3.990  0.1735  0.5297 -0.9729
   15SAPS  H13Y 1979   3.252   6.380   4.006  0.2622  2.7133 -1.8364
   15SAPS  C314 1980   3.062   6.266   3.996 -0.2760  0.3944  0.1928
   15SAPS  H14X 1981   2.959   6.300   3.969  0.4555  1.6271 -1.1879
   15SAPS  H14Y 1982   3.058   6.251   4.106  1.2685 -1.2649  0.0640
   15SAPS  C315 1983   3.116   6.130   3.939  0.3387  0.4362 -0.2230
   15SAPS  H15X 1984   3.226   6.120   3.937  0.1949 -1.1276 -2.0810
   15SAPS  H15Y 1985   3.085   6.115   3.834  1.3101  1.4225 -0.6692
   15SAPS  C316 1986   3.058   6.005   4.004  1.2361 -0.0576 -0.5986
   15SAPS  H16X 1987   3.058   6.021   4.114 -0.5853  0.4074 -0.6308
   15SAPS  H16Y 1988   3.116   5.913   3.985  1.0505 -0.2009 -0.4809
   15SAPS  C317 1989   2.917   5.972   3.954  0.6778  0.2524 -0.1441
   15SAPS  H17X 1990   2.859   6.067   3.958  0.2318 -0.0030 -0.3821
   15SAPS  H17Y 1991   2.872   5.906   4.032 -2.0572  1.8132 -0.2665
   15SAPS  C318 1992   2.887   5.904   3.818  0.1594 -0.3419 -1.3825
   15SAPS  H18X 1993   2.941   5.964   3.742  1.7346  1.3286  0.9226
   15SAPS  H18Y 1994   2.776   5.910   3.810  0.0309 -1.1056 -0.2862
   15SAPS  H18Z 1995   2.922   5.799   3.808 -0.5625 -0.6449 -0.7938
   16SAPS     N 1996   5.090   5.817   1.870  0.3110  0.6736 -0.0379
   16SAPS   HN1 1997   5.011   5.752   1.849 -0.3538  1.6375 -0.5716
   16SAPS   HN2 1998   5.134   5.856   1.784  0.8242 -0.2556 -0.2091
   16SAPS   HN3 1999   5.158   5.765   1.929  1.1810  2.6249  0.7608
   16SAPS   C12 2000   5.052   5.922   1.954 -0.0541  0.0179  0.0180
   16SAPS  H12A 2001   5.136   5.978   1.993 -1.5512  1.9681  0.5979
   16SAPS   C13 2002   4.957   6.029   1.896  0.8596 -0.3528  0.4192
   16SAPS  O13A 2003   4.933   6.032   1.772 -0.2306  0.1122  0.2603
   16SAPS  O13B 2004   4.907   6.115   1.976  0.2650  0.1850  0.6947
   16SAPS   C11 2005   4.980   5.864   2.087 -0.3082  0.4354 -0.3464
   16SAPS  H11A 2006   4.951   5.948   2.152 -0.6367 -0.8756  1.2674
   16SAPS  H11B 2007   5.059   5.809   2.143 -0.7092  1.7345  1.5972
   16SAPS     P 2008   4.837   5.640   2.107  0.2501 -0.1816 -0.2671
   16SAPS   O13 2009   4.691   5.618   2.127  0.0353 -0.6765 -0.4052
   16SAPS   O14 2010   4.910   5.559   2.006 -0.1718 -0.3609 -0.0438
   16SAPS   O12 2011   4.862   5.787   2.059  0.4024 -0.3129  0.4783
   16SAPS   O11 2012   4.911   5.636   2.249 -0.2762  0.0367  0.6466
   16SAPS    C1 2013   4.861   5.716   2.355  0.0657  0.8281  0.3067
   16SAPS    HA 2014   4.896   5.820   2.339  0.5403  0.6284  0.0003
   16SAPS    HB 2015   4.750   5.723   2.362  0.1057  1.4598  0.3400
   16SAPS    C2 2016   4.909   5.666   2.498 -0.0165  0.2197 -0.3515
   16SAPS    HS 2017   4.898   5.556   2.489  0.3054  0.1513  0.0578
   16SAPS   O21 2018   4.820   5.709   2.600 -0.0246 -0.2226 -0.5589
   16SAPS   C21 2019   4.843   5.831   2.644 -0.2217 -0.5618  0.2827
   16SAPS   O22 2020   4.907   5.920   2.587  0.5987  0.8964  0.2312
   16SAPS   C22 2021   4.775   5.859   2.780  0.9436 -0.0450  0.1694
   16SAPS   H2R 2022   4.670   5.825   2.769  0.9743 -0.2914  0.6174
   16SAPS   H2S 2023   4.821   5.786   2.850  1.1975 -0.6050 -0.5707
   16SAPS    C3 2024   5.061   5.690   2.523 -0.0623 -0.0085 -0.5550
   16SAPS    HX 2025   5.086   5.797   2.508  3.7632 -0.8038 -1.1438
   16SAPS    HY 2026   5.112   5.625   2.448 -1.6139 -0.5751 -1.1535
   16SAPS   O31 2027   5.094   5.647   2.656  0.2175 -0.2887 -1.1663
   16SAPS   C31 2028   5.181   5.723   2.717 -0.1289 -0.4246 -0.0094
   16SAPS   O32 2029   5.242   5.818   2.677  0.1880  0.5612 -0.3540
   16SAPS   C32 2030   5.171   5.672   2.864 -0.2301 -0.1199  0.8171
   16SAPS   H2X 2031   5.140   5.566   2.878  0.6550 -0.4423  0.4245
   16SAPS   H2Y 2032   5.093   5.733   2.915 -2.1425  0.3758 -2.4500
   16SAPS   C23 2033   4.775   6.006   2.841 -0.1263 -0.5369  0.2628
   16SAPS   H3R 2034   4.688   6.013   2.911  0.6544 -2.8605  1.5691
   16SAPS   H3S 2035   4.758   6.083   2.763  2.4013  0.1397  0.2967
   16SAPS   C24 2036   4.905   6.027   2.926  0.5657  0.0030  0.1016
   16SAPS   H4R 2037   4.921   5.947   3.002  3.4828 -0.6611 -1.0759
   16SAPS   H4S 2038   4.884   6.119   2.985 -0.4496 -0.7747  1.0198
   16SAPS   C25 2039   5.035   6.046   2.856 -0.0258  0.0984 -0.1738
   16SAPS   H5R 2040   5.031   6.060   2.747  0.2923 -2.7912 -0.6379
   16SAPS   C26 2041   5.158   6.051   2.912 -0.4204 -0.6826 -0.6569
   16SAPS   H6R 2042   5.238   6.068   2.838 -1.6644 -1.5623 -2.2517
   16SAPS   C27 2043   5.193   6.055   3.061  0.3989  0.1218 -0.4576
   16SAPS   H7R 2044   5.293   6.011   3.082  1.4417  2.8386  0.8404
   16SAPS   H7S 2045   5.110   5.998   3.107 -0.8101  1.2143 -1.2114
   16SAPS   C28 2046   5.196   6.201   3.108 -0.3492  0.9408  0.5940
   16SAPS   H8R 2047   5.248   6.272   3.042  0.9766 -0.8823 -0.4053
   16SAPS   C29 2048   5.144   6.246   3.222  0.0604 -0.4978  0.0121
   16SAPS   H9R 2049   5.163   6.352   3.243 -0.5367  0.0733 -2.1124
   16SAPS  C210 2050   5.085   6.161   3.333  0.1906 -0.2511  0.6274
   16SAPS  H10R 2051   5.136   6.062   3.331 -0.9206 -0.8498  1.0980
   16SAPS  H10S 2052   4.978   6.143   3.311 -0.1682  2.3324 -0.0253
   16SAPS  C211 2053   5.099   6.232   3.470 -0.0888 -0.0755 -0.4022
   16SAPS  H11R 2054   5.003   6.267   3.510 -0.2678  0.1705 -1.0495
   16SAPS  C212 2055   5.204   6.250   3.551  0.8034 -0.2838  0.0175
   16SAPS  H12R 2056   5.185   6.302   3.646  0.0371  0.2301 -0.3985
   16SAPS  C213 2057   5.340   6.200   3.540 -0.2152 -0.2904  0.3114
   16SAPS  H13R 2058   5.410   6.285   3.534  0.7770 -1.1638 -1.4403
   16SAPS  H13S 2059   5.356   6.148   3.442 -1.1011 -0.6768  0.3608
   16SAPS  C214 2060   5.386   6.116   3.654  0.3615  0.0726  0.5000
   16SAPS  H14R 2061   5.375   6.008   3.637  2.6092 -0.0357 -0.6567
   16SAPS  C215 2062   5.432   6.156   3.776  0.1286  0.0644  0.3751
   16SAPS  H15R 2063   5.450   6.081   3.854  0.9132  1.0546  1.1701
   16SAPS  C216 2064   5.455   6.294   3.822  0.4243 -0.7894 -0.1072
   16SAPS  H16R 2065   5.449   6.364   3.736  0.9359 -0.1784  0.3428
   16SAPS  H16S 2066   5.555   6.303   3.868 -0.7219 -0.3411  2.4750
   16SAPS  C217 2067   5.341   6.349   3.920 -0.1366  1.0364 -0.0521
   16SAPS  H17R 2068   5.238   6.334   3.880 -0.6639 -0.5765  1.7707
   16SAPS  H17S 2069   5.357   6.458   3.905 -0.4597  1.0684 -0.1783
   16SAPS  C218 2070   5.357   6.300   4.062 -0.6873 -0.0177 -0.6310
   16SAPS  H18R 2071   5.465   6.305   4.084 -0.9659  0.6928  0.6213
   16SAPS  H18S 2072   5.337   6.190   4.063  0.1866 -0.1859  0.7178
   16SAPS  C219 2073   5.259   6.384   4.157 -0.2359  0.5942  0.1780
   16SAPS  H19R 2074   5.162   6.399   4.105 -0.4515 -0.5770  0.2095
   16SAPS  H19S 2075   5.305   6.481   4.187  2.3047  0.0474 -1.6263
   16SAPS  C220 2076   5.223   6.310   4.286 -0.3474 -0.3927  0.4301
   16SAPS  H20R 2077   5.121   6.267   4.283 -0.2153 -0.7898  1.2895
   16SAPS  H20S 2078   5.219   6.384   4.369  0.8510  0.0844  0.0877
   16SAPS  H20T 2079   5.300   6.238   4.321 -0.2745  0.6574  2.6197
   16SAPS   C33 2080   5.311   5.687   2.932  0.5084 -0.0302  0.0105
   16SAPS   H3X 2081   5.352   5.790   2.922  0.8134 -0.2613 -1.2773
   16SAPS   H3Y 2082   5.391   5.633   2.879 -1.3575 -0.5785 -2.4262
   16SAPS   C34 2083   5.307   5.632   3.077 -0.3485  0.1661 -0.0890
   16SAPS   H4X 2084   5.301   5.522   3.079  0.3689  0.1263 -0.0760
   16SAPS   H4Y 2085   5.208   5.653   3.125 -1.4370 -2.2217 -1.1484
   16SAPS   C35 2086   5.421   5.684   3.162  0.1979  0.2958 -0.2400
   16SAPS   H5X 2087   5.409   5.794   3.173  1.2587  0.5027 -1.0091
   16SAPS   H5Y 2088   5.512   5.655   3.105 -0.6412 -0.6398 -1.1265
   16SAPS   C36 2089   5.430   5.608   3.296 -0.1180  0.1770  0.5488
   16SAPS   H6X 2090   5.533   5.601   3.336 -0.2605 -1.5925  0.7039
   16SAPS   H6Y 2091   5.425   5.498   3.277 -0.0063  0.1313  0.7829
   16SAPS   C37 2092   5.331   5.648   3.413 -0.8561 -0.0408 -0.7387
   16SAPS   H7X 2093   5.236   5.591   3.411 -2.3792  2.2038  1.4116
   16SAPS   H7Y 2094   5.304   5.754   3.393  0.1782  0.3143 -0.3111
   16SAPS   C38 2095   5.393   5.619   3.556 -0.0383  0.3487 -0.7528
   16SAPS   H8X 2096   5.493   5.666   3.558  0.3621 -0.4104 -2.0110
   16SAPS   H8Y 2097   5.387   5.510   3.578 -0.7585  0.7192  1.1114
   16SAPS   C39 2098   5.308   5.685   3.666  0.8862  0.1135 -0.1513
   16SAPS   H9X 2099   5.199   5.664   3.667  0.9794 -0.8797  3.1863
   16SAPS   H9Y 2100   5.305   5.792   3.636 -1.4077  0.1424  0.0011
   16SAPS  C310 2101   5.391   5.673   3.797  0.0062  0.3793  0.8852
   16SAPS  H10X 2102   5.355   5.734   3.883  0.2314  0.2336  1.0846
   16SAPS  H10Y 2103   5.499   5.695   3.784 -0.2370  1.3752  0.5093
   16SAPS  C311 2104   5.375   5.532   3.857  0.2847  0.0314  0.2284
   16SAPS  H11X 2105   5.388   5.458   3.775  3.0156  0.9189 -0.2662
   16SAPS  H11Y 2106   5.270   5.518   3.888  0.5558  0.6001  1.4754
   16SAPS  C312 2107   5.476   5.495   3.967 -0.1082  0.0042 -0.9408
   16SAPS  H12X 2108   5.489   5.585   4.030  2.2226  0.4764 -1.9987
   16SAPS  H12Y 2109   5.579   5.483   3.927  0.3027  2.5184 -0.8178
   16SAPS  C313 2110   5.429   5.377   4.054  0.3933 -0.4580 -0.0928
   16SAPS  H13X 2111   5.412   5.294   3.981  2.5371 -0.2506 -0.8967
   16SAPS  H13Y 2112   5.337   5.414   4.104  0.4810 -2.2330  1.4675
   16SAPS  C314 2113   5.528   5.329   4.156  0.5552 -0.1901  0.5572
   16SAPS  H14X 2114   5.476   5.256   4.222  3.1027  0.1366  3.1161
   16SAPS  H14Y 2115   5.552   5.422   4.213 -0.5098  0.3284  0.1739
   16SAPS  C315 2116   5.658   5.270   4.101 -0.2465  0.7395  0.0692
   16SAPS  H15X 2117   5.722   5.247   4.189 -1.9157  0.5993  1.3206
   16SAPS  H15Y 2118   5.721   5.333   4.036  1.5274 -1.4388 -0.4403
   16SAPS  C316 2119   5.637   5.141   4.013  0.0438  0.2634  0.2290
   16SAPS  H16X 2120   5.576   5.165   3.923  0.6915  1.6500  0.1339
   16SAPS  H16Y 2121   5.586   5.069   4.080 -0.4406  1.1671  0.8638
   16SAPS  C317 2122   5.771   5.088   3.964 -0.4708  0.2698 -0.0822
   16SAPS  H17X 2123   5.852   5.090   4.040  0.8912 -1.1563 -1.4338
   16SAPS  H17Y 2124   5.804   5.155   3.881 -0.4232  0.3539  0.0044
   16SAPS  C318 2125   5.763   4.946   3.909  0.0564 -0.6975  0.7647
   16SAPS  H18X 2126   5.668   4.920   3.858  0.2283 -0.4994  0.3448
   16SAPS  H18Y 2127   5.774   4.871   3.991 -0.4475  0.4178  1.8798
   16SAPS  H18Z 2128   5.854   4.940   3.845  0.3536  1.0500  0.9690
   17SAPS     N 2129   5.764   4.054   1.909  0.5594 -0.3491  0.2771
   17SAPS   HN1 2130   5.715   3.996   1.839 -1.7991 -0.3008  1.7646
   17SAPS   HN2 2131   5.816   3.988   1.970 -0.1422 -0.1071  1.1659
   17SAPS   HN3 2132   5.701   4.114   1.967 -0.0884 -0.1707 -0.6049
   17SAPS   C12 2133   5.861   4.140   1.842 -0.3268 -0.4975  0.0379
   17SAPS  H12A 2134   5.909   4.070   1.776 -1.8951 -2.3998  0.7989
   17SAPS   C13 2135   5.781   4.249   1.774 -0.0234 -0.4370 -0.5265
   17SAPS  O13A 2136   5.664   4.274   1.799 -0.6252 -0.1988  0.1357
   17SAPS  O13B 2137   5.848   4.322   1.694  0.7136  0.1062  0.2674
   17SAPS   C11 2138   5.970   4.197   1.932  0.1203  0.0311 -0.0586
   17SAPS  H11A 2139   5.919   4.265   2.003  0.9394 -1.9964  2.6219
   17SAPS  H11B 2140   6.038   4.267   1.877 -0.5852  0.1412 -0.8060
   17SAPS     P 2141   6.142   3.999   1.961  0.1184 -0.1515  0.6510
   17SAPS   O13 2142   6.097   3.864   1.922  0.7898 -0.5296 -0.3279
   17SAPS   O14 2143   6.225   4.066   1.859  0.1938  0.3684  0.0901
   17SAPS   O12 2144   6.020   4.090   2.004 -0.2233  0.1505 -0.2449
   17SAPS   O11 2145   6.215   3.972   2.097 -0.3254  0.0036 -0.4957
   17SAPS    C1 2146   6.142   3.941   2.209 -0.3338  0.4744  0.5782
   17SAPS    HA 2147   6.048   3.885   2.190  1.3071 -1.9324 -1.1008
   17SAPS    HB 2148   6.209   3.877   2.271  1.3018  0.0734 -1.4899
   17SAPS    C2 2149   6.092   4.066   2.293  0.1249 -0.6186 -0.0644
   17SAPS    HS 2150   6.085   4.149   2.219 -2.1808  0.4743  1.2558
   17SAPS   O21 2151   6.202   4.088   2.379 -0.6504 -0.5899 -0.7569
   17SAPS   C21 2152   6.207   4.205   2.432  0.4088 -0.0122 -0.1807
   17SAPS   O22 2153   6.152   4.305   2.387  0.7352 -0.5575  0.0176
   17SAPS   C22 2154   6.290   4.208   2.567  0.0626 -0.8461  0.5321
   17SAPS   H2R 2155   6.243   4.291   2.622 -0.2537 -0.0758 -0.8488
   17SAPS   H2S 2156   6.269   4.111   2.617 -0.0845 -0.7044  0.7453
   17SAPS    C3 2157   5.953   4.049   2.362  0.4950  0.7384  0.1382
   17SAPS    HX 2158   5.881   4.022   2.282 -0.3502  1.0566  0.7698
   17SAPS    HY 2159   5.928   4.149   2.404 -0.8398 -0.0105  1.2034
   17SAPS   O31 2160   5.945   3.937   2.456 -0.3517 -0.3903  0.4477
   17SAPS   C31 2161   5.937   3.975   2.583 -0.0913 -0.6401  0.0991
   17SAPS   O32 2162   5.937   4.093   2.626  0.1746 -0.1860 -0.0589
   17SAPS   C32 2163   5.894   3.848   2.666 -0.3061 -0.0012  0.2239
   17SAPS   H2X 2164   5.988   3.794   2.686  1.4443  3.2446  1.5070
   17SAPS   H2Y 2165   5.831   3.788   2.597  1.8614 -1.5085 -0.5589
   17SAPS   C23 2166   6.445   4.237   2.533  0.9318 -0.4365 -0.2283
   17SAPS   H3R 2167   6.487   4.301   2.614  0.3863  1.0203 -1.0645
   17SAPS   H3S 2168   6.445   4.287   2.434 -0.6541  0.5795  0.2353
   17SAPS   C24 2169   6.515   4.102   2.542  0.1098  0.1824 -0.7262
   17SAPS   H4R 2170   6.469   4.026   2.476  1.3693 -1.1711 -0.1260
   17SAPS   H4S 2171   6.503   4.065   2.646  0.4538  1.9220 -0.0207
   17SAPS   C25 2172   6.657   4.116   2.512 -0.2060 -0.7269 -0.0690
   17SAPS   H5R 2173   6.684   4.131   2.406  0.0458  0.0077  0.0931
   17SAPS   C26 2174   6.752   4.145   2.604  0.3531  1.6007 -0.8584
   17SAPS   H6R 2175   6.856   4.162   2.571  1.4883 -0.1471  1.4930
   17SAPS   C27 2176   6.737   4.124   2.758  0.5776  0.1856  0.0578
   17SAPS   H7R 2177   6.646   4.174   2.798 -0.1334 -1.9206  1.2801
   17SAPS   H7S 2178   6.830   4.167   2.800  0.6847 -0.1347  0.1495
   17SAPS   C28 2179   6.706   3.985   2.806 -0.0898 -0.8284 -0.6107
   17SAPS   H8R 2180   6.675   3.919   2.724 -0.4803 -1.7344  0.2338
   17SAPS   C29 2181   6.703   3.951   2.934  0.4689 -0.5998  0.1434
   17SAPS   H9R 2182   6.679   3.849   2.967  0.0095 -0.3977  0.4536
   17SAPS  C210 2183   6.729   4.047   3.053 -0.0097 -0.3806 -0.2275
   17SAPS  H10R 2184   6.707   4.009   3.155  0.5857  1.6549  0.7203
   17SAPS  H10S 2185   6.660   4.133   3.047 -0.5816 -0.7976  0.2402
   17SAPS  C211 2186   6.874   4.085   3.071  0.4546  0.1031  0.3285
   17SAPS  H11R 2187   6.929   4.096   2.976 -2.1063 -0.5581 -1.3288
   17SAPS  C212 2188   6.951   4.114   3.181  0.2063 -0.6954 -0.3681
   17SAPS  H12R 2189   7.055   4.143   3.161  0.4030 -1.5859 -0.6973
   17SAPS  C213 2190   6.909   4.110   3.327  0.3379  0.2295  0.2003
   17SAPS  H13R 2191   6.970   4.038   3.386  0.0716  0.5017  0.8108
   17SAPS  H13S 2192   6.803   4.075   3.325  0.4577 -0.1102 -0.5434
   17SAPS  C214 2193   6.925   4.246   3.386 -0.4656 -0.0131 -0.2026
   17SAPS  H14R 2194   6.910   4.335   3.323 -0.2460  0.8607  0.9477
   17SAPS  C215 2195   6.924   4.266   3.522 -0.2081 -0.0034 -0.1620
   17SAPS  H15R 2196   6.923   4.369   3.559  1.8298  0.0325 -0.1038
   17SAPS  C216 2197   6.919   4.159   3.623 -0.1556 -0.0280  0.1532
   17SAPS  H16R 2198   6.971   4.067   3.590  0.6188  1.2749 -2.5027
   17SAPS  H16S 2199   6.819   4.119   3.648  0.3761 -0.4478  1.7659
   17SAPS  C217 2200   6.989   4.207   3.751  0.2176 -0.1923  0.2228
   17SAPS  H17R 2201   7.094   4.241   3.738  0.0050  1.2386  1.9178
   17SAPS  H17S 2202   6.992   4.118   3.817 -0.3896 -1.0935 -0.9199
   17SAPS  C218 2203   6.919   4.316   3.821  0.0652  0.0574 -0.4611
   17SAPS  H18R 2204   6.830   4.265   3.865  2.9055 -1.3748  4.4758
   17SAPS  H18S 2205   6.902   4.413   3.771 -1.3230 -0.7409 -1.6163
   17SAPS  C219 2206   6.987   4.357   3.955 -0.2230 -0.1572 -0.1510
   17SAPS  H19R 2207   7.083   4.411   3.938  0.0421 -1.1020 -1.8973
   17SAPS  H19S 2208   7.026   4.260   3.992 -0.0470 -1.3861 -3.2098
   17SAPS  C220 2209   6.892   4.428   4.052  0.3611  0.7036  0.4768
   17SAPS  H20R 2210   6.805   4.367   4.082  0.9165 -0.1183  0.4593
   17SAPS  H20S 2211   6.847   4.517   4.003 -1.1531  1.0939  2.4431
   17SAPS  H20T 2212   6.937   4.452   4.151  0.6733 -0.6822  0.6947
   17SAPS   C33 2213   5.829   3.887   2.802 -0.8416 -0.4692  0.4708
   17SAPS   H3X 2214   5.723   3.854   2.808 -1.2050 -0.7227 -4.1051
   17SAPS   H3Y 2215   5.816   3.997   2.811  1.2155 -0.0253 -1.2321
   17SAPS   C34 2216   5.918   3.830   2.918 -0.3288  0.0623 -0.2284
   17SAPS   H4X 2217   5.938   3.725   2.886 -0.2945  0.4503 -1.5399
   17SAPS   H4Y 2218   5.879   3.840   3.022  0.2810  1.2808 -0.1011
   17SAPS   C35 2219   6.052   3.904   2.921  0.1416  0.2197  0.5650
   17SAPS   H5X 2220   6.093   3.917   2.818 -0.2556 -2.3860  0.0069
   17SAPS   H5Y 2221   6.136   3.853   2.973  2.4156  1.8357 -1.3189
   17SAPS   C36 2222   6.044   4.045   2.981  0.4092 -0.7855 -0.0830
   17SAPS   H6X 2223   5.990   4.041   3.078  0.7038  2.6207  0.3736
   17SAPS   H6Y 2224   5.985   4.115   2.918 -1.3227 -0.7199  1.5157
   17SAPS   C37 2225   6.183   4.098   3.021 -0.5349 -0.4952  0.3472
   17SAPS   H7X 2226   6.190   4.204   2.986  0.1994 -0.3798  0.8290
   17SAPS   H7Y 2227   6.260   4.049   2.958  0.3823  0.2833  0.8286
   17SAPS   C38 2228   6.222   4.069   3.167 -0.0840  0.2633 -0.3819
   17SAPS   H8X 2229   6.195   3.964   3.188  1.8223  0.0417  1.1562
   17SAPS   H8Y 2230   6.158   4.131   3.234  0.2366 -1.3203  1.4446
   17SAPS   C39 2231   6.368   4.088   3.205 -1.0092  0.0777 -0.1332
   17SAPS   H9X 2232   6.401   4.193   3.184 -0.8468  0.2280  0.8265
   17SAPS   H9Y 2233   6.437   4.030   3.140  1.3278  3.5011 -1.0493
   17SAPS  C310 2234   6.390   4.027   3.345 -0.2309 -0.4443  0.4090
   17SAPS  H10X 2235   6.379   3.917   3.335  1.3488 -0.8523  2.4474
   17SAPS  H10Y 2236   6.317   4.062   3.422  0.1056  0.5293  0.2979
   17SAPS  C311 2237   6.537   4.047   3.395 -0.7509 -0.1836 -0.2145
   17SAPS  H11X 2238   6.564   4.152   3.368  3.4279 -1.0256  0.1141
   17SAPS  H11Y 2239   6.590   3.976   3.328 -0.3803  1.2143 -1.4595
   17SAPS  C312 2240   6.566   4.005   3.538  0.1108 -0.2737 -0.2845
   17SAPS  H12X 2241   6.677   4.002   3.538  0.1299 -2.1929 -2.0348
   17SAPS  H12Y 2242   6.525   3.902   3.553 -1.6143  0.3384 -0.5944
   17SAPS  C313 2243   6.510   4.107   3.647 -0.2280  0.2062  0.1072
   17SAPS  H13X 2244   6.402   4.097   3.627 -0.3667 -0.7440  1.2045
   17SAPS  H13Y 2245   6.562   4.205   3.641  0.5949 -0.2818 -1.0992
   17SAPS  C314 2246   6.543   4.076   3.791  0.6311 -0.2971 -0.6887
   17SAPS  H14X 2247   6.654   4.083   3.804  0.3914  2.0073  0.7750
   17SAPS  H14Y 2248   6.519   3.971   3.816  0.3292 -0.1800 -0.4848
   17SAPS  C315 2249   6.483   4.174   3.898 -1.0625  0.6275  0.5190
   17SAPS  H15X 2250   6.378   4.196   3.868 -0.7746  0.0973 -0.9775
   17SAPS  H15Y 2251   6.534   4.273   3.895  1.0990 -0.4224  0.6311
   17SAPS  C316 2252   6.498   4.130   4.045 -0.8133 -0.4212 -0.0083
   17SAPS  H16X 2253   6.601   4.148   4.082 -1.7222  1.7197  1.7059
   17SAPS  H16Y 2254   6.468   4.025   4.063 -0.8391 -0.1020  2.0595
   17SAPS  C317 2255   6.405   4.217   4.137 -0.0453  0.2880  0.4775
   17SAPS  H17X 2256   6.435   4.324   4.141 -0.3068  0.3767  0.0942
   17SAPS  H17Y 2257   6.435   4.178   4.237  1.0421  0.9078  0.4143
   17SAPS  C318 2258   6.261   4.186   4.106 -0.2869  0.2722  0.3088
   17SAPS  H18X 2259   6.185   4.222   4.179 -0.3322  0.9161 -0.0523
   17SAPS  H18Y 2260   6.252   4.075   4.100 -0.4724  0.3443 -1.0558
   17SAPS  H18Z 2261   6.242   4.238   4.010  1.4410 -0.6454 -0.5769
   18SAPS     N 2262   2.838   3.517   2.081  0.4486  0.4000 -0.1561
   18SAPS   HN1 2263   2.805   3.570   1.997 -0.2956  1.1772  0.6101
   18SAPS   HN2 2264   2.818   3.415   2.068  0.5468 -0.1300  3.1248
   18SAPS   HN3 2265   2.776   3.548   2.158 -1.4097 -1.8022 -0.6258
   18SAPS   C12 2266   2.980   3.533   2.119 -0.4516 -0.8058 -0.6759
   18SAPS  H12A 2267   3.020   3.456   2.183 -0.2237  1.3346  1.9188
   18SAPS   C13 2268   3.070   3.531   1.995 -0.2361 -0.3204 -0.5810
   18SAPS  O13A 2269   3.020   3.501   1.886  0.3817 -0.0915  0.9196
   18SAPS  O13B 2270   3.200   3.534   2.014 -0.1099  0.8606 -0.0193
   18SAPS   C11 2271   2.992   3.667   2.208 -0.1639  0.4302 -0.0993
   18SAPS  H11A 2272   3.098   3.661   2.237 -0.1208  1.2924 -0.0675
   18SAPS  H11B 2273   2.917   3.640   2.285 -0.5292 -0.0932 -0.6217
   18SAPS     P 2274   2.850   3.881   2.184 -0.2592  0.0581  0.2059
   18SAPS   O13 2275   2.860   4.011   2.112 -0.7257  0.1187  0.4224
   18SAPS   O14 2276   2.732   3.797   2.163  0.1989  0.8134  0.5545
   18SAPS   O12 2277   2.970   3.792   2.148 -0.4365 -0.5654  0.6465
   18SAPS   O11 2278   2.867   3.910   2.340  0.0650  0.8571  0.0149
   18SAPS    C1 2279   2.980   3.904   2.427 -0.5504  0.0536  0.1561
   18SAPS    HA 2280   2.976   3.804   2.475 -1.7973  0.3960  0.8001
   18SAPS    HB 2281   3.076   3.904   2.371  0.2922  0.3862  1.5607
   18SAPS    C2 2282   2.975   4.016   2.532 -0.4471  0.1489  0.1677
   18SAPS    HS 2283   3.081   4.033   2.561 -0.3720 -0.0796  0.0314
   18SAPS   O21 2284   2.886   3.984   2.649 -0.4374 -0.4470 -0.6812
   18SAPS   C21 2285   2.942   3.906   2.740  0.2569  0.6553  0.7167
   18SAPS   O22 2286   3.052   3.851   2.722  0.5113  0.1772 -0.0329
   18SAPS   C22 2287   2.847   3.886   2.862  0.3414 -0.6225 -0.2559
   18SAPS   H2R 2288   2.888   3.963   2.930  0.4150  0.0795 -1.0855
   18SAPS   H2S 2289   2.744   3.908   2.828  0.6499 -0.7772 -1.3539
   18SAPS    C3 2290   2.915   4.147   2.480 -0.0778 -0.1840 -0.0775
   18SAPS    HX 2291   2.804   4.143   2.488  0.0630 -0.6543  2.0610
   18SAPS    HY 2292   2.939   4.147   2.371 -0.8263 -0.6421 -0.2519
   18SAPS   O31 2293   2.962   4.266   2.554 -0.2248 -0.2914 -0.1074
   18SAPS   C31 2294   3.091   4.302   2.546  0.5553  0.8246  0.0449
   18SAPS   O32 2295   3.171   4.280   2.456 -0.1651 -0.4160 -0.6514
   18SAPS   C32 2296   3.112   4.375   2.675  0.6101 -0.1123 -0.1215
   18SAPS   H2X 2297   3.070   4.478   2.663  0.4421 -0.3600 -2.0185
   18SAPS   H2Y 2298   3.222   4.390   2.686  1.3456 -1.8858 -3.5501
   18SAPS   C23 2299   2.851   3.748   2.921 -0.3283 -0.4077 -0.1596
   18SAPS   H3R 2300   2.957   3.714   2.915 -0.1185 -0.1558  1.5802
   18SAPS   H3S 2301   2.795   3.670   2.864  1.7509 -1.9815 -0.1856
   18SAPS   C24 2302   2.808   3.750   3.065  0.9067 -0.0521 -1.1184
   18SAPS   H4R 2303   2.698   3.766   3.054  0.8277 -0.9250 -1.6907
   18SAPS   H4S 2304   2.851   3.841   3.112 -1.5981  0.9173 -0.5119
   18SAPS   C25 2305   2.819   3.628   3.147 -0.3390  0.9993 -0.0025
   18SAPS   H5R 2306   2.826   3.536   3.087  0.0083  0.6537  0.5693
   18SAPS   C26 2307   2.840   3.627   3.281 -0.0173  0.1698 -0.0480
   18SAPS   H6R 2308   2.844   3.533   3.338 -1.0561  0.1702  0.0434
   18SAPS   C27 2309   2.837   3.752   3.368  0.8781 -0.4818  0.0019
   18SAPS   H7R 2310   2.827   3.718   3.473  0.1274  0.2520  0.1792
   18SAPS   H7S 2311   2.735   3.792   3.355  0.0147 -3.3641 -3.6743
   18SAPS   C28 2312   2.929   3.870   3.354  0.3870 -0.4025 -0.0424
   18SAPS   H8R 2313   2.972   3.898   3.257 -0.1543 -0.4749 -0.3009
   18SAPS   C29 2314   2.952   3.961   3.451 -0.3182  0.0169 -0.5876
   18SAPS   H9R 2315   3.019   4.043   3.421 -0.7793  0.3280 -0.7896
   18SAPS  C210 2316   2.903   3.973   3.595  0.0561 -0.3524  0.0524
   18SAPS  H10R 2317   2.920   4.078   3.627 -2.6221  0.5045 -1.0278
   18SAPS  H10S 2318   2.969   3.915   3.662 -1.3709  0.3262  2.1131
   18SAPS  C211 2319   2.760   3.958   3.619 -0.0859 -0.0060  0.0098
   18SAPS  H11R 2320   2.689   3.953   3.536  1.0281  1.3460 -1.0528
   18SAPS  C212 2321   2.698   3.947   3.740  0.1263  0.4378 -0.2475
   18SAPS  H12R 2322   2.588   3.949   3.732  0.2222 -0.1778 -2.4673
   18SAPS  C213 2323   2.761   3.956   3.873 -1.0015  0.1471 -0.7493
   18SAPS  H13R 2324   2.866   3.990   3.868 -0.0936 -1.8252  2.2679
   18SAPS  H13S 2325   2.758   3.855   3.918 -2.4541  0.9694  1.1345
   18SAPS  C214 2326   2.685   4.045   3.967  0.6601 -0.9995 -0.3266
   18SAPS  H14R 2327   2.699   4.154   3.966 -0.8537 -0.7178  1.9590
   18SAPS  C215 2328   2.589   3.999   4.058  0.1013 -0.4432  0.0686
   18SAPS  H15R 2329   2.542   4.059   4.137  0.3747 -2.4796  1.8599
   18SAPS  C216 2330   2.565   3.851   4.081 -0.0975 -0.5981 -0.3355
   18SAPS  H16R 2331   2.597   3.785   3.997 -0.0458  1.2342 -1.8243
   18SAPS  H16S 2332   2.457   3.835   4.103  0.4923 -1.0084  2.6451
   18SAPS  C217 2333   2.653   3.799   4.208  0.3622  0.1613 -0.1547
   18SAPS  H17R 2334   2.759   3.834   4.203  0.4599  0.2141  1.8431
   18SAPS  H17S 2335   2.657   3.688   4.205  0.4293  0.0652  1.9897
   18SAPS  C218 2336   2.593   3.847   4.339 -0.5785  0.7706  0.6150
   18SAPS  H18R 2337   2.488   3.809   4.342 -0.6693  0.4392 -2.6931
   18SAPS  H18S 2338   2.583   3.956   4.357 -0.3063  0.6279  1.7036
   18SAPS  C219 2339   2.673   3.781   4.455  0.1020  0.4870 -0.4435
   18SAPS  H19R 2340   2.688   3.672   4.440  0.6279  0.3734  0.7657
   18SAPS  H19S 2341   2.626   3.807   4.552  0.2608  0.0032 -0.2360
   18SAPS  C220 2342   2.814   3.831   4.471 -0.2010 -0.0150  0.3214
   18SAPS  H20R 2343   2.861   3.804   4.568  1.3912  1.7047  0.0824
   18SAPS  H20S 2344   2.815   3.942   4.468  1.1155 -0.0083  0.2680
   18SAPS  H20T 2345   2.882   3.811   4.385 -0.6015 -0.9321  0.2095
   18SAPS   C33 2346   3.058   4.292   2.796 -0.3864  0.1826 -0.3444
   18SAPS   H3X 2347   3.106   4.193   2.803  0.3340  0.6343  1.7585
   18SAPS   H3Y 2348   2.950   4.276   2.775  0.1105 -2.7215 -1.0780
   18SAPS   C34 2349   3.091   4.357   2.929  0.2942  0.3700  0.2379
   18SAPS   H4X 2350   3.047   4.459   2.941 -0.8915 -0.2490  1.3750
   18SAPS   H4Y 2351   3.199   4.367   2.952  0.6981  3.2715 -2.3494
   18SAPS   C35 2352   3.012   4.280   3.036 -0.0536 -0.3873 -0.5713
   18SAPS   H5X 2353   3.011   4.174   3.005 -4.0846 -0.6753  0.0081
   18SAPS   H5Y 2354   2.904   4.308   3.035 -0.3384 -1.4071 -0.0404
   18SAPS   C36 2355   3.068   4.290   3.174  0.5953 -0.3177  0.1297
   18SAPS   H6X 2356   3.173   4.253   3.181  0.3685 -0.7127  1.9329
   18SAPS   H6Y 2357   3.013   4.217   3.237  2.0362 -0.6997  1.0030
   18SAPS   C37 2358   3.065   4.424   3.242  0.7108 -0.1202 -0.3351
   18SAPS   H7X 2359   2.962   4.466   3.246 -0.3002 -2.4485 -0.2323
   18SAPS   H7Y 2360   3.127   4.495   3.184  0.6352 -0.2091 -0.5276
   18SAPS   C38 2361   3.111   4.407   3.388  0.1529 -1.1816 -0.2210
   18SAPS   H8X 2362   3.206   4.350   3.390  1.5523  1.0313  1.6357
   18SAPS   H8Y 2363   3.034   4.363   3.454 -0.0045  1.2587  1.3471
   18SAPS   C39 2364   3.123   4.552   3.449  1.2262 -0.0461 -0.7398
   18SAPS   H9X 2365   3.031   4.607   3.420 -0.2465 -0.8470  2.0198
   18SAPS   H9Y 2366   3.212   4.602   3.406 -0.5176  3.2993 -0.7927
   18SAPS  C310 2367   3.144   4.558   3.596 -0.7500  0.0320 -0.6091
   18SAPS  H10X 2368   3.239   4.503   3.614 -0.8355 -0.0148 -0.2971
   18SAPS  H10Y 2369   3.069   4.499   3.652 -1.1417  0.5401 -0.5885
   18SAPS  C311 2370   3.140   4.697   3.671  0.1840  0.0233  0.1477
   18SAPS  H11X 2371   3.039   4.741   3.657 -1.7088 -3.8743  0.1058
   18SAPS  H11Y 2372   3.210   4.760   3.613  0.9092 -2.1346 -1.4654
   18SAPS  C312 2373   3.155   4.688   3.821 -0.5811 -0.3395 -0.1400
   18SAPS  H12X 2374   3.081   4.610   3.850 -0.0191 -0.5233  0.8795
   18SAPS  H12Y 2375   3.131   4.787   3.867  0.5707  0.4854 -1.2589
   18SAPS  C313 2376   3.291   4.639   3.865 -0.5743  0.4420  0.6459
   18SAPS  H13X 2377   3.342   4.738   3.866 -0.9256  0.6375 -0.0609
   18SAPS  H13Y 2378   3.329   4.571   3.785 -2.3593 -0.4000  0.4808
   18SAPS  C314 2379   3.286   4.558   3.991  1.0235  0.2190 -0.0118
   18SAPS  H14X 2380   3.392   4.531   4.013  0.5697 -1.8908 -0.1909
   18SAPS  H14Y 2381   3.236   4.461   3.972  1.8101 -0.8345  2.7978
   18SAPS  C315 2382   3.233   4.631   4.118  0.8627 -0.0732 -0.3892
   18SAPS  H15X 2383   3.125   4.656   4.111  0.7488  0.9966  3.0680
   18SAPS  H15Y 2384   3.282   4.731   4.116  0.8770 -0.0758 -0.1784
   18SAPS  C316 2385   3.261   4.553   4.247  0.0582  0.0349 -0.5231
   18SAPS  H16X 2386   3.367   4.527   4.265  0.1078  1.0585  0.8627
   18SAPS  H16Y 2387   3.218   4.451   4.241 -1.4302  0.6405 -0.7912
   18SAPS  C317 2388   3.190   4.616   4.366 -0.7676  0.0082 -0.1524
   18SAPS  H17X 2389   3.233   4.555   4.449  0.1162  1.8977  0.8303
   18SAPS  H17Y 2390   3.080   4.603   4.357 -0.5351 -0.6693 -2.4672
   18SAPS  C318 2391   3.225   4.762   4.414  0.7159 -0.5204 -0.6512
   18SAPS  H18X 2392   3.180   4.838   4.348 -2.6035 -0.6133  1.3084
   18SAPS  H18Y 2393   3.333   4.775   4.439  0.9213 -0.5545 -1.4808
   18SAPS  H18Z 2394   3.186   4.783   4.515  0.2692  0.7909 -1.0835
   19SAPS     N 2395   1.250   0.091   2.250  0.1937 -0.3065 -0.1780
   19SAPS   HN1 2396   1.238   0.171   2.315  0.3019 -1.0361  0.7657
   19SAPS   HN2 2397   1.223   0.009   2.309  1.0839  1.6062  3.1645
   19SAPS   HN3 2398   1.352   0.083   2.230  0.5814  0.6136  1.2449
   19SAPS   C12 2399   1.155   0.113   2.135 -0.8166  0.0197  0.4561
   19SAPS  H12A 2400   1.161   0.214   2.100  0.3096 -0.2253 -0.1177
   19SAPS   C13 2401   1.192   0.028   2.001 -0.5444  0.0463 -0.4091
   19SAPS  O13A 2402   1.313   0.005   1.992  0.3367  0.0128 -0.4195
   19SAPS  O13B 2403   1.115   0.011   1.902  0.5161  0.0012 -0.0356
   19SAPS   C11 2404   1.013   0.075   2.185 -0.2882 -0.4460  0.2582
   19SAPS  H11A 2405   0.948   0.091   2.096 -1.2328  0.5725  1.0977
   19SAPS  H11B 2406   0.989   0.154   2.260  2.1519  0.8396 -0.2142
   19SAPS     P 2407   0.850  -0.109   2.258 -0.5150  0.1862  0.0879
   19SAPS   O13 2408   0.766  -0.058   2.143  0.3005  0.6694 -0.1809
   19SAPS   O14 2409   0.858  -0.253   2.286  0.4249  0.8220  0.4508
   19SAPS   O12 2410   0.999  -0.057   2.237  0.4114 -0.0638  0.2732
   19SAPS   O11 2411   0.805  -0.052   2.403  1.1101  0.1054 -0.3015
   19SAPS    C1 2412   0.900  -0.053   2.510 -0.6260 -0.2844  0.3509
   19SAPS    HA 2413   0.967  -0.141   2.511 -1.9022 -1.2889  0.1022
   19SAPS    HB 2414   0.974   0.029   2.495 -1.6721  0.2785 -2.3164
   19SAPS    C2 2415   0.831  -0.040   2.637 -0.3684  0.6287  0.1127
   19SAPS    HS 2416   0.773   0.054   2.647 -0.4940  0.6635 -0.8751
   19SAPS   O21 2417   0.926  -0.053   2.744  0.3646  0.7501 -0.6226
   19SAPS   C21 2418   0.909   0.030   2.852 -0.0699  0.7188 -0.5682
   19SAPS   O22 2419   0.815   0.109   2.870  0.6344  0.1243 -0.4524
   19SAPS   C22 2420   1.007  -0.018   2.964  0.4448  0.4504  0.7278
   19SAPS   H2R 2421   0.965  -0.107   3.016 -1.3065  0.3450 -0.7494
   19SAPS   H2S 2422   1.098  -0.056   2.912 -2.5533 -2.4264 -3.0575
   19SAPS    C3 2423   0.727  -0.157   2.654  0.9743  0.2095  0.2040
   19SAPS    HX 2424   0.779  -0.252   2.630 -0.3275 -0.1045 -1.6335
   19SAPS    HY 2425   0.651  -0.161   2.573 -2.6400  0.4603  3.3455
   19SAPS   O31 2426   0.662  -0.160   2.780  0.2747 -0.2875 -0.0904
   19SAPS   C31 2427   0.560  -0.080   2.777  0.6716 -0.2556 -0.2825
   19SAPS   O32 2428   0.518  -0.020   2.684  0.4543  0.2140  0.4700
   19SAPS   C32 2429   0.500  -0.067   2.919  1.6044  0.8415 -0.3646
   19SAPS   H2X 2430   0.423  -0.146   2.911  1.3872  0.9207  0.7911
   19SAPS   H2Y 2431   0.438   0.024   2.934 -1.2392 -0.9020 -0.8578
   19SAPS   C23 2432   1.040   0.092   3.064  0.0871  0.3713 -0.8984
   19SAPS   H3R 2433   1.081   0.045   3.156 -2.2016  0.7226  0.3797
   19SAPS   H3S 2434   0.949   0.151   3.087  0.4736  1.1578 -1.3355
   19SAPS   C24 2435   1.141   0.197   3.009 -0.3718  0.2487  0.1086
   19SAPS   H4R 2436   1.112   0.213   2.902 -0.3785 -0.4333  0.0011
   19SAPS   H4S 2437   1.244   0.155   3.003 -0.5793 -0.3166  0.4495
   19SAPS   C25 2438   1.156   0.333   3.075 -0.0774 -0.1849 -0.4068
   19SAPS   H5R 2439   1.107   0.413   3.018  1.0662  0.1624 -0.9232
   19SAPS   C26 2440   1.220   0.364   3.192  0.2033 -0.6185  0.0579
   19SAPS   H6R 2441   1.216   0.470   3.221 -0.3711 -0.5190 -0.3590
   19SAPS   C27 2442   1.287   0.268   3.286 -0.3142  0.4617  0.1534
   19SAPS   H7R 2443   1.215   0.212   3.348  2.2329  0.2827  3.1836
   19SAPS   H7S 2444   1.349   0.329   3.356  1.6339  0.5727 -1.5543
   19SAPS   C28 2445   1.389   0.172   3.233 -0.4131  0.3539  0.4016
   19SAPS   H8R 2446   1.457   0.214   3.156  0.0366  1.7395  1.4981
   19SAPS   C29 2447   1.396   0.037   3.255 -0.3669  0.3036  0.2443
   19SAPS   H9R 2448   1.477  -0.027   3.216 -0.6033  1.0525 -1.5391
   19SAPS  C210 2449   1.304  -0.039   3.344 -0.4082  0.8538 -0.4442
   19SAPS  H10R 2450   1.294  -0.136   3.291  3.5732  0.4762 -0.7848
   19SAPS  H10S 2451   1.204   0.006   3.363 -0.7305 -0.2226  0.5386
   19SAPS  C211 2452   1.366  -0.095   3.475  1.3089 -0.6288  0.6456
   19SAPS  H11R 2453   1.433  -0.182   3.460  0.8125 -0.5655 -2.8325
   19SAPS  C212 2454   1.347  -0.049   3.596 -0.2130 -0.1311 -0.4081
   19SAPS  H12R 2455   1.409  -0.101   3.671  1.1426  1.4946 -0.3345
   19SAPS  C213 2456   1.249   0.056   3.643 -0.2102 -0.0774 -0.0860
   19SAPS  H13R 2457   1.161   0.016   3.698 -1.9063  2.0094 -1.1661
   19SAPS  H13S 2458   1.190   0.098   3.558 -1.7012  0.5527  1.2080
   19SAPS  C214 2459   1.315   0.166   3.718 -0.7198 -0.2457  0.8158
   19SAPS  H14R 2460   1.392   0.220   3.661 -0.5032 -1.0877  0.2892
   19SAPS  C215 2461   1.300   0.213   3.843  0.5558  0.6496 -0.3930
   19SAPS  H15R 2462   1.367   0.286   3.889  1.9202 -0.7421 -0.0644
   19SAPS  C216 2463   1.218   0.145   3.951 -0.2557 -0.2362  0.0977
   19SAPS  H16R 2464   1.116   0.121   3.913 -0.4505  0.0778  0.4120
   19SAPS  H16S 2465   1.206   0.216   4.036  0.2480  0.1323 -0.1336
   19SAPS  C217 2466   1.297   0.028   4.010  0.5058  0.5836 -0.7745
   19SAPS  H17R 2467   1.387   0.064   4.064  1.5352 -1.6555 -0.8600
   19SAPS  H17S 2468   1.316  -0.054   3.938  0.7246  0.2715 -0.3687
   19SAPS  C218 2469   1.203  -0.033   4.121  0.1448 -0.3449  0.3382
   19SAPS  H18R 2470   1.253  -0.130   4.145  0.8139  0.4486  2.2743
   19SAPS  H18S 2471   1.104  -0.056   4.076 -0.1691 -0.4943  1.0945
   19SAPS  C219 2472   1.190   0.051   4.247  0.1889 -0.1094 -0.2950
   19SAPS  H19R 2473   1.130   0.006   4.328  2.6643  0.5343  2.0457
   19SAPS  H19S 2474   1.132   0.144   4.231 -1.9035 -1.6414 -2.3341
   19SAPS  C220 2475   1.315   0.085   4.329 -0.2652 -0.3154 -0.4183
   19SAPS  H20R 2476   1.392   0.145   4.277 -0.0681 -1.4865 -1.5381
   19SAPS  H20S 2477   1.367  -0.012   4.342 -0.7644 -0.5923 -0.4645
   19SAPS  H20T 2478   1.290   0.132   4.426  0.4394 -0.1778 -0.3011
   19SAPS   C33 2479   0.593  -0.083   3.036 -0.3060  0.1007 -0.3304
   19SAPS   H3X 2480   0.678  -0.017   3.008  0.6213 -1.5740 -1.6321
   19SAPS   H3Y 2481   0.632  -0.187   3.037 -0.1999  0.1450 -0.0170
   19SAPS   C34 2482   0.541  -0.052   3.176 -0.9951 -0.0583  0.0266
   19SAPS   H4X 2483   0.476  -0.132   3.217 -0.2252 -0.0962  1.2467
   19SAPS   H4Y 2484   0.487   0.045   3.169 -0.6628  0.0429 -1.2684
   19SAPS   C35 2485   0.657  -0.050   3.269  0.3858  0.4697  0.0455
   19SAPS   H5X 2486   0.742   0.006   3.224  1.7457 -1.6663 -0.2026
   19SAPS   H5Y 2487   0.691  -0.156   3.266 -1.0571 -0.0035 -0.0223
   19SAPS   C36 2488   0.624  -0.003   3.408  0.7791 -0.4135  1.0094
   19SAPS   H6X 2489   0.526  -0.047   3.437  0.8742 -1.0766  0.3634
   19SAPS   H6Y 2490   0.609   0.107   3.405 -1.3465 -0.6615  0.8838
   19SAPS   C37 2491   0.717  -0.044   3.526 -0.4158  0.2435 -0.2112
   19SAPS   H7X 2492   0.822  -0.033   3.492 -1.4260  2.6987 -2.9486
   19SAPS   H7Y 2493   0.705  -0.155   3.530 -0.8353  0.3327  1.5358
   19SAPS   C38 2494   0.699   0.025   3.660 -0.6296 -0.7138 -0.4504
   19SAPS   H8X 2495   0.611  -0.023   3.708 -1.2993  1.4509  0.6164
   19SAPS   H8Y 2496   0.681   0.135   3.654 -2.8893 -0.9970  0.1515
   19SAPS   C39 2497   0.820   0.002   3.759  0.1718  0.4143  0.0414
   19SAPS   H9X 2498   0.906   0.058   3.716  1.0275 -0.8496  0.0504
   19SAPS   H9Y 2499   0.840  -0.107   3.760 -2.0027 -0.0926 -1.9522
   19SAPS  C310 2500   0.805   0.054   3.899  0.3491  0.1376 -0.5185
   19SAPS  H10X 2501   0.768   0.157   3.880  1.9026  0.5656 -1.4448
   19SAPS  H10Y 2502   0.904   0.067   3.948 -0.1135 -1.0254  0.7799
   19SAPS  C311 2503   0.702  -0.027   3.979 -0.0762 -0.3296  0.1463
   19SAPS  H11X 2504   0.685  -0.122   3.925 -0.4361  0.4365 -1.1394
   19SAPS  H11Y 2505   0.602   0.022   3.984 -0.5745 -1.4025  1.0133
   19SAPS  C312 2506   0.753  -0.043   4.124  0.1245 -1.1208 -0.2998
   19SAPS  H12X 2507   0.841  -0.111   4.119 -0.2165 -1.7645  1.5350
   19SAPS  H12Y 2508   0.683  -0.094   4.193 -0.8432  1.6234  0.8912
   19SAPS  C313 2509   0.796   0.086   4.197  0.0481  0.2084 -0.2048
   19SAPS  H13X 2510   0.869   0.152   4.146 -0.1045 -1.1442 -2.2841
   19SAPS  H13Y 2511   0.840   0.053   4.293  0.2491 -0.2317 -0.4480
   19SAPS  C314 2512   0.676   0.178   4.234  0.5687  0.3570  0.0355
   19SAPS  H14X 2513   0.631   0.215   4.140 -0.7125 -2.8355 -0.7488
   19SAPS  H14Y 2514   0.725   0.252   4.301  0.5235 -0.7734  1.3625
   19SAPS  C315 2515   0.565   0.126   4.325 -0.6406 -0.1698 -0.7783
   19SAPS  H15X 2516   0.595   0.138   4.431  0.0512 -0.3709 -0.9475
   19SAPS  H15Y 2517   0.559   0.018   4.301 -1.6284 -0.3878  0.3635
   19SAPS  C316 2518   0.437   0.193   4.285  0.0121  0.4188  0.5431
   19SAPS  H16X 2519   0.379   0.123   4.221 -1.0765  0.1982  1.7319
   19SAPS  H16Y 2520   0.452   0.289   4.230 -0.5397  0.1910 -0.0132
   19SAPS  C317 2521   0.353   0.212   4.407  0.7229  0.2023 -0.2611
   19SAPS  H17X 2522   0.394   0.284   4.481  0.8963 -2.2863  2.2248
   19SAPS  H17Y 2523   0.336   0.117   4.462 -0.1699 -0.9717 -2.4340
   19SAPS  C318 2524   0.206   0.251   4.369 -0.3748 -0.6356 -0.2793
   19SAPS  H18X 2525   0.167   0.181   4.293  0.8285  0.7273 -2.2474
   19SAPS  H18Y 2526   0.206   0.354   4.326  0.3290 -0.2828  0.5187
   19SAPS  H18Z 2527   0.132   0.263   4.451 -1.1019  0.0568 -1.0101
   20SAPS     N 2528   1.155   0.645   2.234  0.3376  0.2643  0.0076
   20SAPS   HN1 2529   1.196   0.603   2.149 -1.8893 -0.4416 -0.8069
   20SAPS   HN2 2530   1.079   0.714   2.214 -0.2676 -0.3474  0.1781
   20SAPS   HN3 2531   1.232   0.699   2.279  0.1350  1.8208 -1.3917
   20SAPS   C12 2532   1.088   0.544   2.321  1.0700 -0.8885  0.6899
   20SAPS  H12A 2533   0.991   0.540   2.274  1.2161  0.0726  0.2956
   20SAPS   C13 2534   1.146   0.408   2.328 -0.1114  0.1905 -0.2522
   20SAPS  O13A 2535   1.264   0.390   2.279 -0.1252 -0.1138  0.1612
   20SAPS  O13B 2536   1.102   0.316   2.407  0.3327  0.3345  0.3625
   20SAPS   C11 2537   1.079   0.614   2.460 -0.4836 -0.3427 -0.0194
   20SAPS  H11A 2538   1.183   0.620   2.501 -0.5028 -0.7176  0.0844
   20SAPS  H11B 2539   1.026   0.543   2.527  1.5283 -0.6308  1.3607
   20SAPS     P 2540   0.987   0.822   2.581 -0.0047 -0.4712 -0.3376
   20SAPS   O13 2541   0.858   0.888   2.573  0.4336 -0.0333  0.3278
   20SAPS   O14 2542   1.002   0.738   2.704 -0.1936 -0.2648  0.4657
   20SAPS   O12 2543   1.009   0.738   2.449  0.1394 -0.2859  0.1901
   20SAPS   O11 2544   1.091   0.930   2.565 -0.0594  0.2993  0.3908
   20SAPS    C1 2545   1.222   0.915   2.614  0.4739 -0.0885  0.5845
   20SAPS    HA 2546   1.254   0.812   2.641  1.1438  0.2761  1.2093
   20SAPS    HB 2547   1.298   0.939   2.536  0.5009 -0.2504  0.5593
   20SAPS    C2 2548   1.238   1.022   2.722 -1.0187  0.4395 -0.0797
   20SAPS    HS 2549   1.347   1.041   2.733 -0.3983 -2.8120  0.3431
   20SAPS   O21 2550   1.165   0.982   2.842 -0.0838 -0.0406 -0.0977
   20SAPS   C21 2551   1.225   0.886   2.913  0.1601  0.1846  0.2898
   20SAPS   O22 2552   1.337   0.843   2.881 -0.5129 -0.5825 -0.5115
   20SAPS   C22 2553   1.138   0.827   3.023 -0.4134 -0.5264 -0.7368
   20SAPS   H2R 2554   1.059   0.901   3.051  2.0503  2.1049 -0.3072
   20SAPS   H2S 2555   1.081   0.742   2.980 -0.4777 -0.3988 -0.9047
   20SAPS    C3 2556   1.186   1.170   2.688  0.0066  0.7844 -0.9308
   20SAPS    HX 2557   1.075   1.166   2.680 -0.1357  1.4194  0.4941
   20SAPS    HY 2558   1.238   1.192   2.592  0.6471 -1.7934 -1.2317
   20SAPS   O31 2559   1.227   1.258   2.798  0.5528 -0.1757  0.1355
   20SAPS   C31 2560   1.169   1.375   2.800  0.6388 -0.0561 -0.0436
   20SAPS   O32 2561   1.094   1.413   2.716  0.4392  0.1585  0.2692
   20SAPS   C32 2562   1.215   1.443   2.927  0.2996 -0.1508  0.0792
   20SAPS   H2X 2563   1.300   1.509   2.897  1.3849 -2.2905 -1.9093
   20SAPS   H2Y 2564   1.260   1.371   2.998  0.1352  0.5482  0.9024
   20SAPS   C23 2565   1.216   0.790   3.150 -0.7261 -0.4652 -0.4951
   20SAPS   H3R 2566   1.304   0.723   3.136  0.2326  0.2759  1.6178
   20SAPS   H3S 2567   1.147   0.739   3.221 -0.1880  2.6037  2.4921
   20SAPS   C24 2568   1.274   0.919   3.224  0.4488 -0.4876 -0.8658
   20SAPS   H4R 2569   1.337   0.980   3.156  1.3936  0.2802  0.6260
   20SAPS   H4S 2570   1.339   0.879   3.306 -1.9958 -3.6820 -0.2879
   20SAPS   C25 2571   1.174   1.013   3.283 -0.0466  0.2165  0.3804
   20SAPS   H5R 2572   1.103   1.051   3.208 -1.4650  3.6899  3.2054
   20SAPS   C26 2573   1.167   1.072   3.403 -0.3613  0.0308  0.6217
   20SAPS   H6R 2574   1.092   1.151   3.417  0.6641  1.4734 -1.4340
   20SAPS   C27 2575   1.255   1.054   3.521 -0.1692 -0.4432 -0.2463
   20SAPS   H7R 2576   1.245   1.146   3.584 -1.4268 -0.0316 -1.0179
   20SAPS   H7S 2577   1.359   1.037   3.486 -0.0767 -0.5484  0.0733
   20SAPS   C28 2578   1.216   0.927   3.602 -0.1003 -0.8852  0.2683
   20SAPS   H8R 2579   1.168   0.853   3.536 -0.1166  0.8806 -1.8065
   20SAPS   C29 2580   1.232   0.909   3.734  0.1081 -0.1805  0.1298
   20SAPS   H9R 2581   1.185   0.818   3.776  1.4050 -0.5336  0.9139
   20SAPS  C210 2582   1.294   1.005   3.831 -0.6889 -0.0939  0.0446
   20SAPS  H10R 2583   1.226   1.026   3.916 -0.3239  0.7505  0.1361
   20SAPS  H10S 2584   1.327   1.098   3.781 -0.9874 -1.9182 -4.0086
   20SAPS  C211 2585   1.416   0.943   3.890  0.0350 -0.6650 -0.3361
   20SAPS  H11R 2586   1.493   0.901   3.824  0.0998 -1.2680  0.1112
   20SAPS  C212 2587   1.452   0.924   4.019 -0.0004  0.1078 -0.0965
   20SAPS  H12R 2588   1.550   0.883   4.049 -0.2831 -0.1154  0.5394
   20SAPS  C213 2589   1.378   0.961   4.139 -0.0658  0.3632 -0.0684
   20SAPS  H13R 2590   1.419   0.904   4.225  2.1012  2.9723  0.7780
   20SAPS  H13S 2591   1.269   0.945   4.129 -0.3956  2.4711 -0.3578
   20SAPS  C214 2592   1.392   1.105   4.183  0.6191 -0.3771  0.4484
   20SAPS  H14R 2593   1.466   1.169   4.132 -0.5749  1.4634  0.8907
   20SAPS  C215 2594   1.329   1.139   4.300 -0.2470 -0.4764  0.0951
   20SAPS  H15R 2595   1.333   1.249   4.310  1.9376 -0.0149 -3.7083
   20SAPS  C216 2596   1.231   1.072   4.387 -0.1167  0.5280 -0.3087
   20SAPS  H16R 2597   1.214   0.970   4.347 -1.6635  0.7145 -0.2036
   20SAPS  H16S 2598   1.128   1.113   4.377 -0.0225  0.8935  0.1726
   20SAPS  C217 2599   1.273   1.084   4.533 -0.7724  0.4817  0.0897
   20SAPS  H17R 2600   1.251   1.189   4.560  2.5930  1.0737  1.0229
   20SAPS  H17S 2601   1.383   1.096   4.544 -0.7370  1.2645 -0.9954
   20SAPS  C218 2602   1.207   0.980   4.627  0.6830 -0.6040  0.1292
   20SAPS  H18R 2603   1.097   0.973   4.621  0.6003  0.6936 -0.1842
   20SAPS  H18S 2604   1.220   1.017   4.731 -0.1812  2.1918 -0.6538
   20SAPS  C219 2605   1.264   0.837   4.625  0.2546 -0.2392  0.9177
   20SAPS  H19R 2606   1.370   0.823   4.658  0.2840 -0.2720  0.8097
   20SAPS  H19S 2607   1.257   0.803   4.519  0.1094  1.1101  0.4718
   20SAPS  C220 2608   1.175   0.739   4.708 -1.2616 -0.2423  0.1370
   20SAPS  H20R 2609   1.084   0.708   4.651 -0.7281 -1.0869 -0.2750
   20SAPS  H20S 2610   1.148   0.781   4.807 -4.2554  1.0211 -1.0880
   20SAPS  H20T 2611   1.234   0.648   4.733 -0.4817  0.5417  1.2454
   20SAPS   C33 2612   1.107   1.525   3.003 -0.1170  0.1439  0.2487
   20SAPS   H3X 2613   1.014   1.466   3.021 -0.5203  0.6018 -0.2939
   20SAPS   H3Y 2614   1.067   1.608   2.941 -0.8655 -1.3623 -1.3965
   20SAPS   C34 2615   1.155   1.565   3.139 -0.2307 -0.6923 -0.4458
   20SAPS   H4X 2616   1.090   1.651   3.166  1.7064  1.3585 -1.9806
   20SAPS   H4Y 2617   1.257   1.607   3.123  0.0343 -1.9830 -2.5607
   20SAPS   C35 2618   1.141   1.457   3.247  0.4088  0.4646  0.0564
   20SAPS   H5X 2619   1.224   1.385   3.232 -0.5214 -0.6505  0.0866
   20SAPS   H5Y 2620   1.041   1.409   3.243  0.2421  0.4434  2.6473
   20SAPS   C36 2621   1.158   1.513   3.390 -0.5059 -0.5735  0.4541
   20SAPS   H6X 2622   1.104   1.609   3.400  1.3845  0.7448 -1.3019
   20SAPS   H6Y 2623   1.266   1.535   3.398 -1.0632  2.4271  0.9550
   20SAPS   C37 2624   1.125   1.424   3.504 -0.0459 -0.1741 -0.1110
   20SAPS   H7X 2625   1.185   1.332   3.490  0.7984  0.1664  1.1867
   20SAPS   H7Y 2626   1.016   1.400   3.497  0.0301 -0.1128 -2.3847
   20SAPS   C38 2627   1.147   1.483   3.636  0.5394 -0.0493  0.4853
   20SAPS   H8X 2628   1.093   1.579   3.650 -0.2923 -0.4518  0.1235
   20SAPS   H8Y 2629   1.257   1.499   3.644  1.0747 -1.8300 -1.9267
   20SAPS   C39 2630   1.131   1.376   3.756 -0.3808  0.2847  0.2378
   20SAPS   H9X 2631   1.183   1.280   3.732 -1.6995 -0.1447 -1.0346
   20SAPS   H9Y 2632   1.027   1.340   3.766 -0.0244 -0.9428 -0.2744
   20SAPS  C310 2633   1.174   1.438   3.886 -1.0245 -0.4420  0.0990
   20SAPS  H10X 2634   1.102   1.518   3.912  0.2002  1.0276 -0.8401
   20SAPS  H10Y 2635   1.275   1.486   3.883 -1.8863  1.9670  3.4474
   20SAPS  C311 2636   1.187   1.327   3.991 -0.1216 -0.2309 -0.3736
   20SAPS  H11X 2637   1.244   1.367   4.078 -0.6319 -2.3672  1.0435
   20SAPS  H11Y 2638   1.239   1.240   3.946  1.1149  1.3414 -2.0971
   20SAPS  C312 2639   1.045   1.280   4.037  0.5970  0.0667 -0.0002
   20SAPS  H12X 2640   1.042   1.177   4.080  0.8810  0.9722  2.3562
   20SAPS  H12Y 2641   0.973   1.280   3.953 -1.5201  1.3925  1.6963
   20SAPS  C313 2642   1.003   1.384   4.150  0.7612 -0.3119 -0.3747
   20SAPS  H13X 2643   0.984   1.478   4.095 -0.8774 -0.7931 -0.6914
   20SAPS  H13Y 2644   1.075   1.377   4.234 -0.1411 -0.1551  0.4142
   20SAPS  C314 2645   0.863   1.361   4.205 -0.6251 -0.0277  0.2782
   20SAPS  H14X 2646   0.861   1.269   4.268  0.6406 -0.2793 -0.0032
   20SAPS  H14Y 2647   0.781   1.337   4.134  0.0452  1.4632 -1.0683
   20SAPS  C315 2648   0.818   1.479   4.300  0.6308  0.4616 -0.2423
   20SAPS  H15X 2649   0.790   1.558   4.227  0.7575  0.1574 -0.6238
   20SAPS  H15Y 2650   0.906   1.512   4.359  0.0125 -0.5093  1.2731
   20SAPS  C316 2651   0.691   1.450   4.382 -0.3172  0.3055 -0.8504
   20SAPS  H16X 2652   0.728   1.393   4.469 -0.3394 -0.7423 -1.5091
   20SAPS  H16Y 2653   0.610   1.386   4.340 -0.6710  0.3315 -0.2153
   20SAPS  C317 2654   0.631   1.573   4.456 -0.5122 -0.9046 -0.5771
   20SAPS  H17X 2655   0.715   1.622   4.510 -0.9455  0.4533 -1.0918
   20SAPS  H17Y 2656   0.554   1.548   4.532 -0.0771 -0.0672  0.1450
   20SAPS  C318 2657   0.567   1.669   4.357 -0.1097  0.5753 -0.4956
   20SAPS  H18X 2658   0.496   1.620   4.286 -0.6107  0.8235 -0.1719
   20SAPS  H18Y 2659   0.650   1.720   4.304  4.0248 -2.0024  2.8040
   20SAPS  H18Z 2660   0.517   1.749   4.415  0.2788  0.0760  0.5612
   21CHL1    C3 2661   5.918   1.270   6.031  0.0313 -0.1738 -0.1576
   21CHL1    H3 2662   5.925   1.380   6.020 -2.2340  0.2252  1.5971
   21CHL1    O3 2663   5.906   1.242   6.169 -0.3372  0.7613 -0.0734
   21CHL1   H3' 2664   5.975   1.297   6.208 -1.3393  1.7858  0.3136
   21CHL1    C4 2665   5.785   1.238   5.954 -0.3624 -0.2350 -0.4878
   21CHL1   H4A 2666   5.752   1.137   5.986  2.3961 -1.1482 -0.2445
   21CHL1   H4B 2667   5.706   1.307   5.991 -0.1849 -0.5584  0.5281
   21CHL1    C5 2668   5.788   1.244   5.809  0.4775 -0.3499  1.4724
   21CHL1    C6 2669   5.701   1.322   5.737  0.5896 -0.0981 -0.1780
   21CHL1    H6 2670   5.626   1.375   5.798  1.0335  0.8180 -0.4165
   21CHL1    C7 2671   5.694   1.337   5.590 -0.7174  0.0424 -0.4047
   21CHL1   H7A 2672   5.587   1.326   5.562 -0.6016  2.6137 -2.1588
   21CHL1   H7B 2673   5.720   1.442   5.567  0.5063  0.1024  1.0671
   21CHL1    C8 2674   5.789   1.243   5.513  0.1213  0.0833  0.5313
   21CHL1    H8 2675   5.744   1.144   5.492  0.7773  0.2008 -1.7128
   21CHL1   C14 2676   5.823   1.296   5.371  0.1207 -0.3299  0.0884
   21CHL1   H14 2677   5.874   1.393   5.386 -0.1656 -0.3181  1.0706
   21CHL1   C15 2678   5.705   1.321   5.277  0.4933 -0.3331  0.2632
   21CHL1  H15A 2679   5.630   1.245   5.306 -0.1306  0.8608  1.9573
   21CHL1  H15B 2680   5.654   1.416   5.304  0.5772  0.0026 -0.7286
   21CHL1   C16 2681   5.757   1.317   5.138 -0.3829  0.3439  1.0885
   21CHL1  H16A 2682   5.701   1.233   5.093 -1.9357  0.6569  2.3621
   21CHL1  H16B 2683   5.736   1.412   5.084 -0.8717  0.0783  0.8047
   21CHL1   C17 2684   5.910   1.283   5.148  0.5128 -0.1047 -0.6262
   21CHL1   H17 2685   5.961   1.382   5.144 -1.5717  0.9669 -3.5694
   21CHL1   C13 2686   5.925   1.216   5.288  0.1912 -0.2090  0.1764
   21CHL1   C18 2687   5.884   1.066   5.280  0.7737  0.4026 -0.5492
   21CHL1  H18A 2688   5.884   1.025   5.383 -1.1680  0.7240 -0.4015
   21CHL1  H18B 2689   5.783   1.053   5.237  0.4645 -0.0291  0.2864
   21CHL1  H18C 2690   5.966   1.022   5.219 -0.2401  1.4612 -2.8044
   21CHL1   C12 2691   6.051   1.245   5.359 -0.7634  0.5751 -0.4981
   21CHL1  H12A 2692   6.139   1.187   5.325  0.0315  1.6868 -0.3835
   21CHL1  H12B 2693   6.080   1.352   5.353 -1.7477  0.7853 -1.9590
   21CHL1   C11 2694   6.049   1.186   5.502  0.6950  0.1228  0.1355
   21CHL1  H11A 2695   6.040   1.075   5.505 -0.9899  0.2524  1.3792
   21CHL1  H11B 2696   6.141   1.214   5.556  0.0041 -1.3176  2.1768
   21CHL1    C9 2697   5.924   1.243   5.578  0.1337  0.7518 -0.5303
   21CHL1    H9 2698   5.961   1.346   5.593  1.5760  0.2886 -0.7406
   21CHL1   C10 2699   5.912   1.190   5.731 -0.2087 -1.1795  0.6876
   21CHL1   C19 2700   5.895   1.038   5.726 -0.5341 -0.0219 -0.3631
   21CHL1  H19A 2701   5.808   0.993   5.674  0.6467 -0.0958 -2.3987
   21CHL1  H19B 2702   5.989   1.004   5.679  0.6228 -0.5150  2.1244
   21CHL1  H19C 2703   5.899   0.997   5.829  1.0383  0.7836 -0.0752
   21CHL1    C1 2704   6.038   1.235   5.813  0.0152  0.0143  0.4947
   21CHL1   H1A 2705   6.134   1.192   5.775  0.0237  0.2601  0.2360
   21CHL1   H1B 2706   6.045   1.343   5.789  1.2703 -0.3388 -0.9031
   21CHL1    C2 2707   6.033   1.198   5.962 -0.2145 -0.4715 -0.5096
   21CHL1   H2A 2708   6.128   1.240   6.002 -0.1408  3.3131 -3.9395
   21CHL1   H2B 2709   6.027   1.088   5.977 -2.8154 -0.4703 -1.0469
   21CHL1   C20 2710   5.963   1.215   5.022  0.4131  0.3109 -0.1579
   21CHL1   H20 2711   5.905   1.121   5.014  3.4482 -1.5288 -2.9415
   21CHL1   C21 2712   6.109   1.187   5.029 -0.0134 -0.0336  0.0357
   21CHL1  H21A 2713   6.156   1.282   5.062  2.1483 -1.4542  1.3010
   21CHL1  H21B 2714   6.157   1.143   4.938  1.3735 -1.6735  1.4668
   21CHL1  H21C 2715   6.142   1.125   5.116  0.5637 -1.3891 -1.1045
   21CHL1   C22 2716   5.932   1.300   4.893 -0.0296 -0.4957 -0.7292
   21CHL1  H22A 2717   5.826   1.332   4.890 -0.3398 -1.1819  1.3122
   21CHL1  H22B 2718   5.989   1.393   4.914 -0.0736 -1.0445  2.3550
   21CHL1   C23 2719   5.971   1.245   4.753 -0.2356  0.1114 -0.1644
   21CHL1  H23A 2720   6.073   1.200   4.752  0.0315  0.7163 -1.4035
   21CHL1  H23B 2721   5.898   1.165   4.728 -1.5706  1.5244 -0.9482
   21CHL1   C24 2722   5.946   1.348   4.640 -0.1976  0.6881 -0.1301
   21CHL1  H24A 2723   5.840   1.377   4.628 -0.3688  0.3388  0.5125
   21CHL1  H24B 2724   5.992   1.442   4.676  1.5586  0.6943 -2.1613
   21CHL1   C25 2725   6.016   1.301   4.515 -0.0662 -0.2356 -0.4629
   21CHL1   H25 2726   6.096   1.228   4.542  0.1596  0.1468 -0.0940
   21CHL1   C26 2727   5.920   1.219   4.434 -0.1197  0.3701  0.2751
   21CHL1  H26A 2728   5.835   1.285   4.406  0.0543  1.4913  2.1863
   21CHL1  H26B 2729   5.979   1.183   4.347 -2.2520  0.8405 -1.4570
   21CHL1  H26C 2730   5.872   1.137   4.493  1.5089 -0.4542  0.5042
   21CHL1   C27 2731   6.074   1.426   4.446  0.9990  0.3948  0.7413
   21CHL1  H27A 2732   6.158   1.476   4.499  0.9463  2.0955 -0.6637
   21CHL1  H27B 2733   6.112   1.386   4.349  0.9255 -0.6615  1.1448
   21CHL1  H27C 2734   5.997   1.505   4.429 -0.2001 -1.3740 -3.4237
   22CHL1    C3 2735   0.439   1.275   6.204 -0.2057 -0.2398 -0.3078
   22CHL1    H3 2736   0.528   1.341   6.191 -0.1470 -0.1469  0.5009
   22CHL1    O3 2737   0.379   1.288   6.330  0.3571 -0.7618 -0.3042
   22CHL1   H3' 2738   0.325   1.368   6.328  0.1185 -0.8258  1.6871
   22CHL1    C4 2739   0.333   1.301   6.100 -0.3552  0.0081  0.6310
   22CHL1   H4A 2740   0.248   1.229   6.093 -1.4500  1.3948 -1.4198
   22CHL1   H4B 2741   0.289   1.400   6.120 -0.2948 -0.0836  1.2239
   22CHL1    C5 2742   0.400   1.292   5.964  0.2477 -0.0427 -0.3353
   22CHL1    C6 2743   0.400   1.394   5.881  0.6887  0.3202 -0.4085
   22CHL1    H6 2744   0.352   1.486   5.917 -1.2389 -0.8071  0.0459
   22CHL1    C7 2745   0.463   1.380   5.748  0.0227 -0.2054  0.0995
   22CHL1   H7A 2746   0.408   1.436   5.669 -0.2187 -2.5112 -1.4535
   22CHL1   H7B 2747   0.567   1.417   5.764  0.0896 -0.7488  0.9568
   22CHL1    C8 2748   0.482   1.236   5.692  1.1554  0.5383  0.1861
   22CHL1    H8 2749   0.381   1.202   5.660  1.0064  2.2162 -1.2686
   22CHL1   C14 2750   0.572   1.240   5.573 -0.6212 -0.0841  0.4407
   22CHL1   H14 2751   0.675   1.265   5.607 -0.8736 -2.0191  2.8723
   22CHL1   C15 2752   0.543   1.350   5.457 -0.1141 -0.0519  0.2116
   22CHL1  H15A 2753   0.433   1.364   5.456 -0.2269  0.0548  3.3258
   22CHL1  H15B 2754   0.593   1.445   5.485  0.3571 -0.1163 -0.4049
   22CHL1   C16 2755   0.602   1.280   5.329  0.4189 -0.3575  0.5012
   22CHL1  H16A 2756   0.523   1.259   5.254  0.4480 -1.0521  0.6591
   22CHL1  H16B 2757   0.681   1.345   5.285  0.1601 -1.6409 -2.0319
   22CHL1   C17 2758   0.665   1.148   5.376 -0.5603  0.5338 -0.0986
   22CHL1   H17 2759   0.763   1.186   5.414 -0.6437 -1.1013  1.9385
   22CHL1   C13 2760   0.584   1.107   5.501  0.7284 -0.1218  0.1208
   22CHL1   C18 2761   0.445   1.050   5.451 -0.0656  0.1154 -0.2321
   22CHL1  H18A 2762   0.388   1.024   5.543  2.9404  1.5288  2.2465
   22CHL1  H18B 2763   0.395   1.132   5.396  2.9395  0.8831 -2.0774
   22CHL1  H18C 2764   0.461   0.963   5.385 -0.0877 -0.2542  0.2457
   22CHL1   C12 2765   0.650   1.015   5.601 -0.3496 -0.3037  0.8191
   22CHL1  H12A 2766   0.643   0.915   5.554  0.9873  0.1112 -0.3415
   22CHL1  H12B 2767   0.756   1.048   5.609 -0.0304 -0.7295 -1.1806
   22CHL1   C11 2768   0.584   1.013   5.743  0.6753 -0.7131  0.3199
   22CHL1  H11A 2769   0.508   0.932   5.732  1.0688 -1.1133  0.5232
   22CHL1  H11B 2770   0.663   0.978   5.812 -0.2359  0.0994  1.8274
   22CHL1    C9 2771   0.536   1.151   5.800 -0.1757 -0.3281  0.0267
   22CHL1    H9 2772   0.627   1.210   5.827  0.2418 -1.2573  0.6709
   22CHL1   C10 2773   0.456   1.148   5.925 -0.0221  0.0962 -0.6480
   22CHL1   C19 2774   0.350   1.038   5.912  0.3478 -0.2292  0.2114
   22CHL1  H19A 2775   0.286   1.025   6.003 -0.1801  0.2461 -0.0871
   22CHL1  H19B 2776   0.278   1.068   5.833  0.7348 -2.0983 -0.9151
   22CHL1  H19C 2777   0.389   0.938   5.883 -0.8473 -0.9175  0.8772
   22CHL1    C1 2778   0.549   1.111   6.049  0.4795 -0.0266 -0.6447
   22CHL1   H1A 2779   0.585   1.006   6.038  0.3304 -0.5612  2.7163
   22CHL1   H1B 2780   0.632   1.185   6.053 -2.1970  3.1705  0.3442
   22CHL1    C2 2781   0.486   1.133   6.190  0.2047 -0.4990  0.3907
   22CHL1   H2A 2782   0.577   1.118   6.252  0.4576  2.9502  1.0505
   22CHL1   H2B 2783   0.407   1.057   6.208  1.0976 -1.6158 -0.2145
   22CHL1   C20 2784   0.706   1.048   5.266 -0.2439  0.2187 -0.1395
   22CHL1   H20 2785   0.618   0.983   5.249 -2.0843  2.0193  1.8996
   22CHL1   C21 2786   0.826   0.966   5.312 -0.3099 -0.3812  0.0025
   22CHL1  H21A 2787   0.817   0.924   5.415 -4.4848 -1.4677 -0.6044
   22CHL1  H21B 2788   0.908   1.039   5.302  0.0154 -0.7812 -0.2826
   22CHL1  H21C 2789   0.835   0.876   5.248  1.7800 -1.4740  1.7042
   22CHL1   C22 2790   0.731   1.129   5.133  0.7856 -0.2647  0.0192
   22CHL1  H22A 2791   0.646   1.195   5.106 -0.1097 -0.2295  2.6988
   22CHL1  H22B 2792   0.811   1.201   5.162  1.0312 -1.0665  1.4238
   22CHL1   C23 2793   0.762   1.039   5.015  0.1765 -0.6109  0.8013
   22CHL1  H23A 2794   0.858   0.989   5.041  1.5076  1.1028 -0.5420
   22CHL1  H23B 2795   0.672   0.974   5.007 -0.4939  0.1915  1.6287
   22CHL1   C24 2796   0.779   1.106   4.876 -0.5702  0.4613 -0.2609
   22CHL1  H24A 2797   0.822   1.030   4.808 -0.9588 -0.4072  0.4512
   22CHL1  H24B 2798   0.679   1.142   4.842 -0.9169 -0.0067  0.2486
   22CHL1   C25 2799   0.876   1.228   4.890  0.7746  0.1825  0.1251
   22CHL1   H25 2800   0.826   1.299   4.960  1.6997 -0.7349  1.7821
   22CHL1   C26 2801   1.013   1.199   4.936 -0.0660  0.1765  0.3622
   22CHL1  H26A 2802   1.021   1.137   5.028  0.1887 -2.1120 -1.1226
   22CHL1  H26B 2803   1.068   1.135   4.863  3.2977  1.5057  1.5317
   22CHL1  H26C 2804   1.074   1.288   4.958 -0.0953  0.1994  0.3507
   22CHL1   C27 2805   0.890   1.300   4.753  0.1042 -0.2915  0.4474
   22CHL1  H27A 2806   0.939   1.234   4.678 -0.7684 -0.5738  0.1084
   22CHL1  H27B 2807   0.791   1.323   4.708 -0.2525 -2.5564 -0.0610
   22CHL1  H27C 2808   0.947   1.393   4.774 -1.2003  0.1894  2.0609
   23CHL1    C3 2809   5.482   0.712   5.801  0.1282 -0.5248 -0.2546
   23CHL1    H3 2810   5.375   0.734   5.820 -0.1580 -1.0118 -1.2455
   23CHL1    O3 2811   5.539   0.663   5.924 -0.4379 -0.2297 -0.0396
   23CHL1   H3' 2812   5.634   0.656   5.910  0.0582  1.9311  1.7735
   23CHL1    C4 2813   5.504   0.595   5.700 -0.2112  0.0458 -0.1096
   23CHL1   H4A 2814   5.611   0.565   5.709 -0.5749 -1.1230  0.4984
   23CHL1   H4B 2815   5.441   0.515   5.744  0.8130  0.4437  2.2505
   23CHL1    C5 2816   5.467   0.630   5.560  0.3545  0.4467 -0.2113
   23CHL1    C6 2817   5.379   0.560   5.488 -0.2473 -0.8346 -0.0715
   23CHL1    H6 2818   5.332   0.471   5.533 -0.8254 -0.5732 -0.1475
   23CHL1    C7 2819   5.362   0.583   5.344 -0.5631 -0.3717 -0.7845
   23CHL1   H7A 2820   5.367   0.493   5.280  0.9883  0.7067 -2.2573
   23CHL1   H7B 2821   5.264   0.635   5.339 -0.7383 -0.3360  1.8424
   23CHL1    C8 2822   5.457   0.680   5.280  0.1070 -0.3852  0.3239
   23CHL1    H8 2823   5.550   0.629   5.246 -1.5238 -1.4296 -3.0298
   23CHL1   C14 2824   5.395   0.739   5.159  0.6992 -0.3884  0.6085
   23CHL1   H14 2825   5.302   0.790   5.194  0.8087  0.7739 -0.7069
   23CHL1   C15 2826   5.334   0.646   5.060 -0.3986 -0.2117  0.2869
   23CHL1  H15A 2827   5.396   0.555   5.050 -1.3595 -0.6758 -2.1595
   23CHL1  H15B 2828   5.238   0.604   5.096 -0.2540 -0.5680  0.2575
   23CHL1   C16 2829   5.317   0.723   4.932  0.8024  0.6288 -0.4656
   23CHL1  H16A 2830   5.377   0.674   4.852  1.7993 -0.9129  1.1499
   23CHL1  H16B 2831   5.212   0.708   4.898  0.6243 -0.6854  0.5771
   23CHL1   C17 2832   5.365   0.870   4.962  0.3890 -0.3080  0.5846
   23CHL1   H17 2833   5.276   0.925   4.999 -1.2339 -2.2207 -0.2574
   23CHL1   C13 2834   5.474   0.844   5.079 -0.1018 -0.3830 -0.2430
   23CHL1   C18 2835   5.607   0.799   5.018 -0.6853  0.4085 -0.6539
   23CHL1  H18A 2836   5.672   0.878   4.975  0.1665  0.1716  0.1774
   23CHL1  H18B 2837   5.675   0.758   5.096 -0.1742  0.9643 -0.7994
   23CHL1  H18C 2838   5.576   0.716   4.951 -1.3417  1.4999 -1.7441
   23CHL1   C12 2839   5.503   0.959   5.170 -0.4650 -0.8866 -0.8167
   23CHL1  H12A 2840   5.565   1.038   5.123  0.7693  0.1774  2.3076
   23CHL1  H12B 2841   5.407   1.009   5.197  0.1097  0.0854 -0.5224
   23CHL1   C11 2842   5.563   0.910   5.305  0.7869  0.4304  0.6119
   23CHL1  H11A 2843   5.663   0.873   5.272  1.5822  1.3474  1.8752
   23CHL1  H11B 2844   5.577   0.994   5.377  0.8356 -0.3383  1.5113
   23CHL1    C9 2845   5.484   0.796   5.372 -0.1031  0.6496 -0.3093
   23CHL1    H9 2846   5.384   0.839   5.396  0.5097  2.2814 -0.5430
   23CHL1   C10 2847   5.544   0.756   5.514 -0.1162  0.3018  0.3612
   23CHL1   C19 2848   5.697   0.713   5.481  0.9587 -0.1048  0.1563
   23CHL1  H19A 2849   5.741   0.677   5.576 -0.3774 -1.4619  0.3047
   23CHL1  H19B 2850   5.693   0.636   5.401  1.3239 -2.9618  2.7231
   23CHL1  H19C 2851   5.758   0.800   5.446 -0.3213  0.2412 -1.3286
   23CHL1    C1 2852   5.529   0.876   5.613  0.3826 -1.0757  0.7400
   23CHL1   H1A 2853   5.615   0.940   5.582  0.0977 -0.9822  0.1457
   23CHL1   H1B 2854   5.440   0.938   5.592  0.5886 -1.2995 -0.9247
   23CHL1    C2 2855   5.550   0.835   5.762  0.7186 -0.8965 -0.5141
   23CHL1   H2A 2856   5.530   0.926   5.824  2.1548 -1.5036  0.9413
   23CHL1   H2B 2857   5.661   0.828   5.768  0.6497 -1.0757  0.9817
   23CHL1   C20 2858   5.412   0.947   4.835  0.1042 -0.2935  0.1928
   23CHL1   H20 2859   5.510   0.903   4.808  0.7956  0.4120  1.4430
   23CHL1   C21 2860   5.433   1.099   4.867 -0.3379  0.0985  0.2633
   23CHL1  H21A 2861   5.335   1.142   4.897  0.0957  1.8361 -0.6513
   23CHL1  H21B 2862   5.473   1.151   4.777 -1.7965  0.2042 -0.3472
   23CHL1  H21C 2863   5.499   1.119   4.955 -0.9312 -2.1548  1.2884
   23CHL1   C22 2864   5.328   0.924   4.702 -0.0751  0.2405 -0.0893
   23CHL1  H22A 2865   5.374   0.984   4.621  1.8468  0.2090  0.9238
   23CHL1  H22B 2866   5.350   0.819   4.674  0.5801 -0.0003  1.2283
   23CHL1   C23 2867   5.178   0.962   4.723 -0.1833 -0.0343 -0.0303
   23CHL1  H23A 2868   5.126   0.888   4.788 -0.2211 -0.9002 -1.0176
   23CHL1  H23B 2869   5.154   1.062   4.765  0.0520 -0.5190  1.3150
   23CHL1   C24 2870   5.110   0.955   4.581 -0.1537  0.0910  0.4096
   23CHL1  H24A 2871   5.003   0.982   4.590  0.1265  0.7035  2.1560
   23CHL1  H24B 2872   5.152   1.037   4.519 -1.1739  0.1799 -0.1969
   23CHL1   C25 2873   5.108   0.818   4.507  1.1030 -0.0409  0.4718
   23CHL1   H25 2874   5.213   0.783   4.498  0.8142 -1.2259  1.3650
   23CHL1   C26 2875   5.026   0.703   4.587  0.0520 -0.3003 -0.5895
   23CHL1  H26A 2876   4.924   0.745   4.602 -0.7759 -2.4704  0.2596
   23CHL1  H26B 2877   5.025   0.602   4.541 -2.1987 -0.0938 -1.0812
   23CHL1  H26C 2878   5.064   0.694   4.691  0.3365  0.3949 -0.6255
   23CHL1   C27 2879   5.049   0.821   4.366 -0.0391  1.1420  0.2423
   23CHL1  H27A 2880   5.101   0.895   4.301  0.2575  0.7357  0.0166
   23CHL1  H27B 2881   5.055   0.719   4.324 -1.0166  1.4933 -0.8315
   23CHL1  H27C 2882   4.942   0.850   4.376 -1.3432 -2.8929 -0.3121
   24CHL1    C3 2883   5.839   1.966   6.270 -0.4429  0.3878  0.5354
   24CHL1    H3 2884   5.739   1.950   6.225 -0.0229 -0.7375 -0.0409
   24CHL1    O3 2885   5.828   1.992   6.410 -0.0453  0.7157  0.1794
   24CHL1   H3' 2886   5.820   2.086   6.426  1.0749  0.6032  1.6102
   24CHL1    C4 2887   5.929   1.845   6.245  0.0736  0.3019  0.4905
   24CHL1   H4A 2888   6.027   1.845   6.297  0.6847  1.0832 -0.6266
   24CHL1   H4B 2889   5.869   1.756   6.274  0.3213 -1.0338 -2.6505
   24CHL1    C5 2890   5.962   1.827   6.093  0.0453 -0.3017 -0.2871
   24CHL1    C6 2891   5.947   1.716   6.030 -0.2789 -0.1512 -0.5404
   24CHL1    H6 2892   5.896   1.635   6.085  0.6992  0.1001  0.8091
   24CHL1    C7 2893   5.992   1.690   5.888  0.5558 -0.1438 -0.4415
   24CHL1   H7A 2894   6.044   1.594   5.907 -3.3985 -1.9268  3.0634
   24CHL1   H7B 2895   5.895   1.676   5.836 -0.1475  0.7254  0.5871
   24CHL1    C8 2896   6.069   1.800   5.821  0.1176  0.0314  0.4114
   24CHL1    H8 2897   6.180   1.799   5.834  0.4143  0.4685 -1.7212
   24CHL1   C14 2898   6.056   1.792   5.668  0.1914 -0.3825  0.0802
   24CHL1   H14 2899   5.947   1.810   5.657  0.3428 -0.3809 -1.6356
   24CHL1   C15 2900   6.089   1.662   5.597  0.2589 -0.3633  0.2504
   24CHL1  H15A 2901   6.188   1.624   5.629 -0.6612 -3.2280 -0.0746
   24CHL1  H15B 2902   6.020   1.576   5.611  0.1237  0.2447  4.8178
   24CHL1   C16 2903   6.089   1.702   5.449  0.6061 -0.2093 -0.5561
   24CHL1  H16A 2904   6.187   1.681   5.401  1.1411 -1.3863  0.9624
   24CHL1  H16B 2905   6.008   1.657   5.389  0.7560 -0.9980 -0.1747
   24CHL1   C17 2906   6.075   1.863   5.446 -0.0834  0.5193 -0.8877
   24CHL1   H17 2907   5.967   1.888   5.437  0.0728  1.0233 -1.4377
   24CHL1   C13 2908   6.118   1.907   5.587 -0.1074  0.2808 -0.1073
   24CHL1   C18 2909   6.275   1.904   5.596  0.2956  0.2837 -0.0286
   24CHL1  H18A 2910   6.317   1.984   5.531  1.6304  0.1607  0.6600
   24CHL1  H18B 2911   6.314   1.911   5.700  1.2453 -2.8922 -0.0707
   24CHL1  H18C 2912   6.324   1.811   5.560  2.0347  1.1539 -0.0063
   24CHL1   C12 2913   6.056   2.038   5.637  0.4593  0.2272  0.4415
   24CHL1  H12A 2914   6.104   2.126   5.589  1.7991 -1.4114 -1.3899
   24CHL1  H12B 2915   5.949   2.039   5.609  1.0992  1.1205 -2.3429
   24CHL1   C11 2916   6.078   2.055   5.785 -0.0495 -0.0849  0.0999
   24CHL1  H11A 2917   6.187   2.069   5.803  0.4326 -3.0230 -0.0097
   24CHL1  H11B 2918   6.038   2.154   5.814  1.6321  0.8008 -0.4483
   24CHL1    C9 2919   6.023   1.936   5.871 -0.5276 -0.4141 -0.3780
   24CHL1    H9 2920   5.915   1.923   5.845 -0.7513 -3.8554  1.7247
   24CHL1   C10 2921   6.017   1.952   6.027 -0.0592 -1.2532  0.7966
   24CHL1   C19 2922   6.159   1.969   6.088 -0.5805 -0.6118  0.1640
   24CHL1  H19A 2923   6.157   1.977   6.199  2.5690 -2.3587  0.4821
   24CHL1  H19B 2924   6.229   1.888   6.057  0.3653 -0.4204  1.6969
   24CHL1  H19C 2925   6.206   2.065   6.058 -0.7793  0.1105  2.0766
   24CHL1    C1 2926   5.943   2.084   6.062 -0.9063  0.1288  0.1549
   24CHL1   H1A 2927   5.997   2.175   6.029  1.0798 -0.9782  0.2375
   24CHL1   H1B 2928   5.843   2.069   6.015 -0.6963  2.1218 -1.0375
   24CHL1    C2 2929   5.914   2.094   6.213  0.0014  0.6586  0.5055
   24CHL1   H2A 2930   5.842   2.178   6.229 -2.0569 -1.3083  2.3710
   24CHL1   H2B 2931   6.006   2.116   6.271 -0.3732  0.7975  1.0584
   24CHL1   C20 2932   6.152   1.927   5.328  0.3139 -0.0551 -0.0503
   24CHL1   H20 2933   6.255   1.886   5.327  0.4296  0.0526  2.3721
   24CHL1   C21 2934   6.165   2.083   5.334 -0.3099 -0.6974  0.3970
   24CHL1  H21A 2935   6.225   2.114   5.245 -2.6031 -2.1238 -1.7973
   24CHL1  H21B 2936   6.209   2.108   5.432 -0.3548  0.2818  0.1794
   24CHL1  H21C 2937   6.071   2.139   5.316  0.0306 -0.5628 -1.0956
   24CHL1   C22 2938   6.084   1.893   5.194  0.0240  0.0709  0.4007
   24CHL1  H22A 2939   6.035   1.794   5.204  2.8307 -1.2890  1.8473
   24CHL1  H22B 2940   6.016   1.974   5.160  0.0003  0.1277  0.5817
   24CHL1   C23 2941   6.191   1.885   5.081  0.9840 -0.4215  0.4687
   24CHL1  H23A 2942   6.232   1.984   5.053 -0.1159  0.6999  2.5977
   24CHL1  H23B 2943   6.267   1.843   5.151 -0.6481  1.9951  3.9689
   24CHL1   C24 2944   6.147   1.796   4.973  0.4536 -0.1921 -0.2491
   24CHL1  H24A 2945   6.059   1.734   5.002 -0.1788  0.1777 -1.3287
   24CHL1  H24B 2946   6.097   1.862   4.900 -1.3484 -3.5284 -2.2926
   24CHL1   C25 2947   6.244   1.710   4.889 -0.3541  0.1243 -0.1999
   24CHL1   H25 2948   6.334   1.774   4.877 -0.0354  0.4580  3.0698
   24CHL1   C26 2949   6.292   1.587   4.957 -0.6372  0.6349 -0.2965
   24CHL1  H26A 2950   6.305   1.613   5.064 -0.3728  1.4472 -0.5168
   24CHL1  H26B 2951   6.217   1.505   4.960 -0.7814  0.7331 -1.0700
   24CHL1  H26C 2952   6.392   1.553   4.922 -0.1137  0.3126  1.4187
   24CHL1   C27 2953   6.185   1.671   4.742 -0.1173  0.0163 -0.7865
   24CHL1  H27A 2954   6.264   1.644   4.669 -0.4183 -0.8400 -0.8109
   24CHL1  H27B 2955   6.118   1.583   4.756  2.0123 -1.4511  0.9732
   24CHL1  H27C 2956   6.131   1.756   4.696  2.5139  1.0066 -2.2709
   25CHL1    C3 2957   3.465   1.769   6.332 -0.4218  0.7085 -0.2836
   25CHL1    H3 2958   3.376   1.704   6.347  0.1847 -0.3224 -1.0300
   25CHL1    O3 2959   3.541   1.783   6.453 -0.1493 -0.8676 -0.4570
   25CHL1   H3' 2960   3.557   1.690   6.474  0.2914 -0.7834 -0.4145
   25CHL1    C4 2961   3.556   1.690   6.235  0.0217 -0.1411  0.7654
   25CHL1   H4A 2962   3.653   1.732   6.201  0.7087 -1.9448  0.3606
   25CHL1   H4B 2963   3.582   1.588   6.271 -1.4399 -1.3479 -1.3533
   25CHL1    C5 2964   3.495   1.689   6.096  0.1592 -0.1459  0.7667
   25CHL1    C6 2965   3.480   1.574   6.032 -0.6590  0.1633 -0.1324
   25CHL1    H6 2966   3.504   1.478   6.079 -2.0306 -1.1208 -1.9161
   25CHL1    C7 2967   3.414   1.555   5.907 -0.1719  0.9816  0.5412
   25CHL1   H7A 2968   3.462   1.473   5.848 -2.5725  0.0926 -0.3152
   25CHL1   H7B 2969   3.312   1.519   5.931  0.2382  0.0189  0.9127
   25CHL1    C8 2970   3.404   1.678   5.823 -0.1555 -0.2161 -0.2724
   25CHL1    H8 2971   3.506   1.701   5.785 -0.2389 -2.0937 -1.7809
   25CHL1   C14 2972   3.308   1.654   5.703 -0.7011  0.1190 -0.4886
   25CHL1   H14 2973   3.207   1.659   5.750 -0.4882  0.4020 -0.0541
   25CHL1   C15 2974   3.332   1.523   5.623  0.1934 -0.0644 -0.5305
   25CHL1  H15A 2975   3.442   1.507   5.619  0.2239  0.0371 -0.1191
   25CHL1  H15B 2976   3.285   1.441   5.680  0.8402 -0.3262 -0.3627
   25CHL1   C16 2977   3.266   1.565   5.490  0.9632  0.3795  0.3081
   25CHL1  H16A 2978   3.342   1.550   5.410 -0.0578  2.5519 -1.1469
   25CHL1  H16B 2979   3.180   1.498   5.469 -0.5759  2.5631 -0.6825
   25CHL1   C17 2980   3.217   1.712   5.491  1.2007 -0.2730 -0.6355
   25CHL1   H17 2981   3.114   1.714   5.533  0.3823  0.2589 -2.5492
   25CHL1   C13 2982   3.304   1.771   5.604  0.2037  0.0936  0.4878
   25CHL1   C18 2983   3.442   1.791   5.545  0.2772 -0.2146  0.3189
   25CHL1  H18A 2984   3.424   1.875   5.474 -2.4665 -1.3105 -0.3740
   25CHL1  H18B 2985   3.523   1.821   5.615 -0.9790  0.4391  1.5312
   25CHL1  H18C 2986   3.474   1.705   5.483 -1.3281 -0.8658  0.3452
   25CHL1   C12 2987   3.255   1.898   5.681 -0.3132  0.3768 -0.1318
   25CHL1  H12A 2988   3.281   1.988   5.622 -0.2369  0.0173 -0.6547
   25CHL1  H12B 2989   3.147   1.904   5.703  0.0101  1.1746  1.3810
   25CHL1   C11 2990   3.338   1.920   5.804  0.5625 -0.7240  0.1268
   25CHL1  H11A 2991   3.437   1.957   5.768 -0.7759 -0.4216 -3.7109
   25CHL1  H11B 2992   3.293   2.008   5.855  2.4920  1.5187 -1.7864
   25CHL1    C9 2993   3.351   1.799   5.903 -0.8587 -0.0673 -0.2637
   25CHL1    H9 2994   3.250   1.771   5.939  0.1623 -3.0444  0.5515
   25CHL1   C10 2995   3.437   1.821   6.036 -0.0068  0.3183 -0.6046
   25CHL1   C19 2996   3.564   1.896   5.992  0.4690 -0.0098 -0.2276
   25CHL1  H19A 2997   3.634   1.841   5.926  0.9849 -0.6098  0.8064
   25CHL1  H19B 2998   3.546   1.995   5.943  0.0771 -0.8189 -1.7778
   25CHL1  H19C 2999   3.618   1.929   6.082  0.6353 -0.4019 -0.1835
   25CHL1    C1 3000   3.362   1.909   6.142 -0.3063  0.5526  1.3129
   25CHL1   H1A 3001   3.352   2.017   6.116 -0.2676  0.0611 -0.9637
   25CHL1   H1B 3002   3.266   1.855   6.153 -0.3611  0.0977 -0.9179
   25CHL1    C2 3003   3.431   1.908   6.282 -0.3627  0.2710  0.0606
   25CHL1   H2A 3004   3.369   1.965   6.355  1.3187  1.1729  0.8263
   25CHL1   H2B 3005   3.525   1.966   6.272 -0.5092  0.2842 -1.5869
   25CHL1   C20 3006   3.200   1.768   5.345  0.2832 -0.3872 -0.2284
   25CHL1   H20 3007   3.299   1.754   5.296  2.0706  1.5242  2.5585
   25CHL1   C21 3008   3.156   1.912   5.349 -0.3539  0.2893  0.2075
   25CHL1  H21A 3009   3.065   1.931   5.410 -0.3677  3.2664 -0.5490
   25CHL1  H21B 3010   3.128   1.951   5.249 -0.7570  1.6732  0.8282
   25CHL1  H21C 3011   3.232   1.980   5.391  0.0647  0.2719 -0.5086
   25CHL1   C22 3012   3.092   1.684   5.270 -0.2869  0.4564 -0.4570
   25CHL1  H22A 3013   3.121   1.577   5.258 -1.6428 -0.1381  1.0932
   25CHL1  H22B 3014   3.002   1.665   5.334 -0.0736 -4.2828 -1.1994
   25CHL1   C23 3015   3.053   1.729   5.132 -0.2662 -0.8623 -0.0442
   25CHL1  H23A 3016   3.010   1.831   5.127 -0.9713 -1.1059  0.7967
   25CHL1  H23B 3017   3.149   1.724   5.076 -0.5084  1.1263 -0.7174
   25CHL1   C24 3018   2.940   1.644   5.064  0.4809  0.5516  0.2842
   25CHL1  H24A 3019   2.969   1.537   5.066  1.6291  0.8534  1.7370
   25CHL1  H24B 3020   2.851   1.653   5.129  0.3667  3.7121 -0.1500
   25CHL1   C25 3021   2.898   1.690   4.922 -0.4747  0.6432  0.6233
   25CHL1   H25 3022   2.888   1.800   4.912  2.6392  1.3528  3.4651
   25CHL1   C26 3023   3.008   1.676   4.814  0.0375  0.6146 -0.3006
   25CHL1  H26A 3024   2.970   1.706   4.713  2.7598 -1.3027 -2.0346
   25CHL1  H26B 3025   3.097   1.740   4.832  1.8801 -1.1248 -2.6453
   25CHL1  H26C 3026   3.037   1.569   4.822 -0.0215  0.5315 -1.0456
   25CHL1   C27 3027   2.765   1.617   4.886 -0.4636 -0.0987  0.2609
   25CHL1  H27A 3028   2.736   1.628   4.779  0.1715  1.0699  0.1859
   25CHL1  H27B 3029   2.770   1.509   4.911  1.3766 -0.1087 -0.0274
   25CHL1  H27C 3030   2.690   1.673   4.946  0.5274  0.3390  1.1311
   26CHL1    C3 3031   0.532   2.603   5.991 -0.3401 -0.4446 -0.0922
   26CHL1    H3 3032   0.590   2.695   5.965 -2.5042  0.4908 -1.8923
   26CHL1    O3 3033   0.573   2.548   6.120 -0.4696 -0.0945  0.2802
   26CHL1   H3' 3034   0.508   2.578   6.184 -2.3352 -3.6211  0.2399
   26CHL1    C4 3035   0.385   2.625   5.975  0.4583 -0.2031 -0.5694
   26CHL1   H4A 3036   0.336   2.529   6.005  3.5285 -2.1774 -1.3773
   26CHL1   H4B 3037   0.351   2.704   6.046  0.1171  0.4967 -1.5021
   26CHL1    C5 3038   0.350   2.670   5.834 -0.0048  0.2452 -0.0883
   26CHL1    C6 3039   0.286   2.782   5.812 -0.1377  0.1622 -0.0661
   26CHL1    H6 3040   0.260   2.842   5.901 -0.7357 -0.1263 -0.0461
   26CHL1    C7 3041   0.258   2.842   5.678  0.7299 -0.8480  1.4934
   26CHL1   H7A 3042   0.152   2.875   5.679  1.2808  1.5500 -1.8745
   26CHL1   H7B 3043   0.330   2.926   5.666 -0.8104  0.2914 -0.2341
   26CHL1    C8 3044   0.280   2.742   5.565 -0.2506  0.3278  0.2349
   26CHL1    H8 3045   0.195   2.671   5.565  1.1803 -1.5576 -2.4351
   26CHL1   C14 3046   0.274   2.805   5.427 -0.1934  0.3159 -0.3255
   26CHL1   H14 3047   0.363   2.872   5.423  1.5699 -1.9387 -1.0038
   26CHL1   C15 3048   0.137   2.880   5.404 -0.6493  0.3919  0.2584
   26CHL1  H15A 3049   0.062   2.807   5.440  0.6846 -1.5062 -0.6364
   26CHL1  H15B 3050   0.132   2.968   5.472  0.9068  0.2322  0.6247
   26CHL1   C16 3051   0.141   2.902   5.253  0.5232  0.2050  0.1583
   26CHL1  H16A 3052   0.043   2.867   5.212  2.4909 -4.1848 -1.4257
   26CHL1  H16B 3053   0.160   3.010   5.237  0.8312  0.0018 -0.9597
   26CHL1   C17 3054   0.260   2.818   5.200  0.0403  0.2170 -0.3615
   26CHL1   H17 3055   0.348   2.884   5.188  1.2247 -1.0767  0.8434
   26CHL1   C13 3056   0.301   2.718   5.310 -0.2943  0.2270  0.8056
   26CHL1   C18 3057   0.204   2.590   5.312  0.1131 -0.1263 -0.1127
   26CHL1  H18A 3058   0.203   2.520   5.398  2.0591 -0.3119 -0.1957
   26CHL1  H18B 3059   0.098   2.623   5.313 -0.5425 -2.1261  0.5251
   26CHL1  H18C 3060   0.215   2.529   5.220 -4.3871 -0.2524 -0.8028
   26CHL1   C12 3061   0.447   2.674   5.319 -0.7786  0.4083  0.0491
   26CHL1  H12A 3062   0.484   2.610   5.236 -0.4554  0.0833  0.4472
   26CHL1  H12B 3063   0.510   2.766   5.327  0.1783 -0.2654  0.3668
   26CHL1   C11 3064   0.469   2.593   5.449 -0.1532  0.1965 -0.4996
   26CHL1  H11A 3065   0.429   2.490   5.433 -1.1218  0.3052  1.0272
   26CHL1  H11B 3066   0.579   2.589   5.461 -0.2826 -1.1582  0.4665
   26CHL1    C9 3067   0.412   2.672   5.579  0.2134  0.5807 -0.1781
   26CHL1    H9 3068   0.488   2.751   5.598 -0.3406  0.5877  2.4556
   26CHL1   C10 3069   0.416   2.589   5.711  0.1280  0.2433 -0.4139
   26CHL1   C19 3070   0.334   2.453   5.690  0.2265 -0.6654 -0.0157
   26CHL1  H19A 3071   0.372   2.402   5.599 -0.1359  2.1826 -1.8774
   26CHL1  H19B 3072   0.340   2.398   5.787 -0.4173  0.4574  0.6755
   26CHL1  H19C 3073   0.227   2.482   5.681  0.4871  0.9862  1.6220
   26CHL1    C1 3074   0.562   2.551   5.743  0.1192  0.3597 -0.0194
   26CHL1   H1A 3075   0.605   2.470   5.680  1.0956 -0.3592  1.4914
   26CHL1   H1B 3076   0.619   2.647   5.739 -0.7146  0.8029 -1.9540
   26CHL1    C2 3077   0.588   2.497   5.887  0.1278 -1.1036 -0.2178
   26CHL1   H2A 3078   0.696   2.479   5.905  0.2506 -0.7979 -0.6256
   26CHL1   H2B 3079   0.533   2.403   5.908  1.2705 -1.3011  2.2590
   26CHL1   C20 3080   0.226   2.759   5.065 -0.5718  0.0870 -0.1865
   26CHL1   H20 3081   0.145   2.684   5.080 -1.5936  0.7034 -2.2513
   26CHL1   C21 3082   0.351   2.678   5.011  0.4728 -0.0076 -0.5793
   26CHL1  H21A 3083   0.368   2.585   5.069  2.5415  0.5861 -0.1377
   26CHL1  H21B 3084   0.441   2.742   5.029  1.6709 -0.9107 -2.9077
   26CHL1  H21C 3085   0.334   2.651   4.904 -0.6211 -0.6371 -0.2579
   26CHL1   C22 3086   0.180   2.857   4.957 -0.5176 -0.2573  0.1680
   26CHL1  H22A 3087   0.177   2.810   4.856 -1.1592 -1.5576  0.7669
   26CHL1  H22B 3088   0.076   2.890   4.978  0.1270  2.5436 -0.6179
   26CHL1   C23 3089   0.276   2.974   4.946 -0.0028  0.0200  0.1472
   26CHL1  H23A 3090   0.280   3.032   5.041 -0.0841  1.2984 -0.6092
   26CHL1  H23B 3091   0.375   2.934   4.916  0.7850 -0.1817  2.7148
   26CHL1   C24 3092   0.230   3.082   4.845  0.3629 -0.6408  0.9768
   26CHL1  H24A 3093   0.130   3.122   4.873 -0.8844 -2.0015 -1.2146
   26CHL1  H24B 3094   0.307   3.160   4.861  1.2257 -1.3669  0.4528
   26CHL1   C25 3095   0.209   3.028   4.703 -0.0600 -0.3169  0.2021
   26CHL1   H25 3096   0.118   2.965   4.699  0.2335 -0.7299  0.0226
   26CHL1   C26 3097   0.177   3.142   4.608 -0.0644 -0.2230  0.0239
   26CHL1  H26A 3098   0.247   3.227   4.596 -0.9702  0.7966  1.6106
   26CHL1  H26B 3099   0.157   3.089   4.512 -4.6648  0.0001  0.6280
   26CHL1  H26C 3100   0.081   3.189   4.640 -0.9804 -0.8430 -1.6425
   26CHL1   C27 3101   0.333   2.943   4.653 -0.0678 -0.1232  0.4488
   26CHL1  H27A 3102   0.324   2.906   4.548 -1.6405 -0.5301  0.6886
   26CHL1  H27B 3103   0.423   3.003   4.677 -1.1737  1.8460 -0.0980
   26CHL1  H27C 3104   0.332   2.849   4.713  1.3790 -0.5812 -0.2091
   27CHL1    C3 3105   5.774   6.653   5.836  0.2671 -0.5544 -0.1255
   27CHL1    H3 3106   5.739   6.749   5.879  0.5802 -1.0563  1.3357
   27CHL1    O3 3107   5.766   6.563   5.948  0.2301  0.3138 -0.6156
   27CHL1   H3' 3108   5.774   6.623   6.023  0.0588  1.8612 -1.7681
   27CHL1    C4 3109   5.674   6.599   5.732  0.0073  0.6118 -0.6136
   27CHL1   H4A 3110   5.689   6.489   5.731 -0.1586  0.4888  2.3026
   27CHL1   H4B 3111   5.573   6.606   5.778  0.9075  1.7632  1.3103
   27CHL1    C5 3112   5.683   6.663   5.593 -0.6222 -0.0583  0.2011
   27CHL1    C6 3113   5.579   6.721   5.532  0.2305  0.1355  1.0263
   27CHL1    H6 3114   5.480   6.714   5.580  0.2765 -0.4165  1.0460
   27CHL1    C7 3115   5.586   6.767   5.393  0.1558 -0.1361  0.2281
   27CHL1   H7A 3116   5.500   6.728   5.335  0.3263  0.4174 -0.4059
   27CHL1   H7B 3117   5.600   6.878   5.390  0.7652 -0.2386 -1.1121
   27CHL1    C8 3118   5.711   6.707   5.314 -0.3224 -0.3564 -0.1082
   27CHL1    H8 3119   5.688   6.600   5.296 -1.3675  0.1891 -2.3381
   27CHL1   C14 3120   5.737   6.775   5.183 -0.2437  0.1016  0.9821
   27CHL1   H14 3121   5.746   6.883   5.207  0.3778  0.5981 -1.2480
   27CHL1   C15 3122   5.628   6.777   5.075  0.0928  0.3653  0.0644
   27CHL1  H15A 3123   5.585   6.676   5.056 -3.8056  1.5087  1.8099
   27CHL1  H15B 3124   5.539   6.839   5.098 -0.3991 -0.3371  0.0752
   27CHL1   C16 3125   5.698   6.824   4.951  0.2887  0.6840 -0.3388
   27CHL1  H16A 3126   5.689   6.748   4.869  1.5753 -1.3268  1.2692
   27CHL1  H16B 3127   5.651   6.916   4.910  0.7529  0.3202 -1.7865
   27CHL1   C17 3128   5.848   6.816   4.981 -0.2879  0.7244 -0.4532
   27CHL1   H17 3129   5.878   6.919   5.011  0.5731  0.9589 -2.0320
   27CHL1   C13 3130   5.866   6.729   5.110  0.2007 -0.3382 -0.4362
   27CHL1   C18 3131   5.859   6.577   5.072 -0.8085 -0.1262  0.4311
   27CHL1  H18A 3132   5.851   6.513   5.162  0.6603  1.8513  2.0765
   27CHL1  H18B 3133   5.777   6.565   4.999 -1.9435  1.0559  1.4531
   27CHL1  H18C 3134   5.948   6.544   5.014 -2.4541 -1.1330 -1.6267
   27CHL1   C12 3135   5.994   6.757   5.198 -0.8774 -0.6877 -0.1924
   27CHL1  H12A 3136   6.085   6.716   5.149 -0.1537 -1.0623  1.4198
   27CHL1  H12B 3137   6.002   6.867   5.207 -1.4551 -0.7500  1.3115
   27CHL1   C11 3138   5.977   6.702   5.335  0.2037 -0.5048 -0.0435
   27CHL1  H11A 3139   6.001   6.594   5.325  1.4300 -0.3191  0.7104
   27CHL1  H11B 3140   6.060   6.728   5.404  0.5094 -2.2020  0.2532
   27CHL1    C9 3141   5.839   6.726   5.402  0.3595  0.0354  1.2432
   27CHL1    H9 3142   5.836   6.835   5.420  0.7394  0.0712  1.0911
   27CHL1   C10 3143   5.819   6.657   5.537  0.2095 -0.2828  0.3415
   27CHL1   C19 3144   5.848   6.506   5.520 -0.4704 -0.0548 -0.3488
   27CHL1  H19A 3145   5.958   6.501   5.509 -0.1146  0.5849  2.3221
   27CHL1  H19B 3146   5.845   6.438   5.607  0.0987 -0.8723 -0.9527
   27CHL1  H19C 3147   5.808   6.456   5.428  2.9601 -1.6267 -1.1540
   27CHL1    C1 3148   5.921   6.714   5.646 -0.0896 -0.4046 -0.2821
   27CHL1   H1A 3149   6.027   6.698   5.617 -0.5330 -1.8123 -1.2626
   27CHL1   H1B 3150   5.915   6.824   5.651  3.0924 -0.2027  1.8720
   27CHL1    C2 3151   5.912   6.657   5.788  0.2718  0.6949  0.4697
   27CHL1   H2A 3152   5.969   6.710   5.868  0.6535  1.0345 -0.0262
   27CHL1   H2B 3153   5.952   6.553   5.782  0.9693  1.0639 -2.6152
   27CHL1   C20 3154   5.929   6.779   4.853  0.2556  0.2738  0.6695
   27CHL1   H20 3155   5.889   6.686   4.807 -0.3649  1.8851 -2.3133
   27CHL1   C21 3156   6.079   6.763   4.874  0.2337  0.5633 -0.8409
   27CHL1  H21A 3157   6.125   6.852   4.923 -0.4265  0.7090 -0.4852
   27CHL1  H21B 3158   6.133   6.760   4.776 -0.0751  0.2343 -1.0019
   27CHL1  H21C 3159   6.098   6.663   4.919  2.7634 -0.1443 -3.1349
   27CHL1   C22 3160   5.895   6.888   4.739 -0.1850  0.2858 -0.5799
   27CHL1  H22A 3161   5.790   6.922   4.747 -0.3778 -0.1701 -1.1017
   27CHL1  H22B 3162   5.963   6.973   4.763  1.9255 -1.1001 -1.3736
   27CHL1   C23 3163   5.915   6.832   4.597 -0.0644  0.0460  0.2548
   27CHL1  H23A 3164   6.024   6.821   4.579 -0.4655 -3.2193 -0.8594
   27CHL1  H23B 3165   5.864   6.736   4.576 -0.6566  0.9486 -3.1404
   27CHL1   C24 3166   5.853   6.929   4.494  0.2613  0.0720  0.3184
   27CHL1  H24A 3167   5.750   6.948   4.531 -1.0838  0.3277 -3.1808
   27CHL1  H24B 3168   5.904   7.028   4.484  0.1797 -0.0640 -2.1439
   27CHL1   C25 3169   5.843   6.871   4.348  0.3352 -0.7957  0.1788
   27CHL1   H25 3170   5.789   6.775   4.353  0.8854 -1.0592  1.2526
   27CHL1   C26 3171   5.762   6.969   4.261  0.4854  0.3644 -0.0016
   27CHL1  H26A 3172   5.771   6.918   4.163  1.8687 -2.6115  1.5388
   27CHL1  H26B 3173   5.655   6.964   4.290  0.6544 -0.0784  0.5653
   27CHL1  H26C 3174   5.802   7.073   4.251 -1.5039  1.0609 -1.3868
   27CHL1   C27 3175   5.983   6.848   4.289  0.4315  0.4032  0.0095
   27CHL1  H27A 3176   6.032   6.947   4.301  1.1237 -0.1553  2.2324
   27CHL1  H27B 3177   5.991   6.809   4.186  1.4015 -0.7484  0.4949
   27CHL1  H27C 3178   6.043   6.784   4.357  0.5205  0.4077 -0.0631
   28CHL1    C3 3179   3.830   6.792   6.192 -0.1731 -0.0508 -0.1850
   28CHL1    H3 3180   3.803   6.894   6.159  3.1156  0.5730 -1.4253
   28CHL1    O3 3181   3.816   6.768   6.329 -0.4234  0.0927 -0.2581
   28CHL1   H3' 3182   3.725   6.793   6.344 -0.4944  0.6158 -1.4375
   28CHL1    C4 3183   3.758   6.694   6.110  0.3372  0.8397  0.2039
   28CHL1   H4A 3184   3.768   6.589   6.142  1.3100  0.3439 -1.6017
   28CHL1   H4B 3185   3.654   6.714   6.142 -0.5173 -1.3443 -1.0205
   28CHL1    C5 3186   3.790   6.701   5.958  0.8571 -0.0423 -0.1201
   28CHL1    C6 3187   3.698   6.713   5.861  0.2306  0.4107 -0.8664
   28CHL1    H6 3188   3.589   6.715   5.879  0.0625 -2.3452 -1.0849
   28CHL1    C7 3189   3.727   6.716   5.718 -0.2816  0.4775 -0.1691
   28CHL1   H7A 3190   3.657   6.651   5.661  1.3463 -1.7483  0.1917
   28CHL1   H7B 3191   3.720   6.822   5.685  2.1221  0.7742  0.0703
   28CHL1    C8 3192   3.871   6.678   5.679 -0.0378 -0.2754  0.6145
   28CHL1    H8 3193   3.875   6.568   5.693  3.3026 -0.0566  2.3986
   28CHL1   C14 3194   3.907   6.719   5.531 -0.1266  0.3533 -0.8663
   28CHL1   H14 3195   3.915   6.830   5.535 -0.5041  0.3785 -0.7484
   28CHL1   C15 3196   3.813   6.675   5.423 -0.5887  0.0842 -0.5135
   28CHL1  H15A 3197   3.775   6.571   5.435  1.1172 -0.9423 -3.1821
   28CHL1  H15B 3198   3.724   6.742   5.422  0.1302  1.0447 -0.5582
   28CHL1   C16 3199   3.892   6.703   5.294  0.4744  0.7106  0.3657
   28CHL1  H16A 3200   3.894   6.613   5.228  1.3723  0.9609  0.0313
   28CHL1  H16B 3201   3.837   6.781   5.238 -0.4571 -0.7321 -0.7953
   28CHL1   C17 3202   4.042   6.727   5.342  0.4772  0.1570  0.3666
   28CHL1   H17 3203   4.071   6.834   5.343 -0.6551  0.4774  0.6336
   28CHL1   C13 3204   4.049   6.675   5.483 -0.9286 -0.6457 -0.5539
   28CHL1   C18 3205   4.065   6.518   5.493 -0.1677 -0.5705 -0.5109
   28CHL1  H18A 3206   3.997   6.469   5.566 -2.3698  0.3936 -1.7843
   28CHL1  H18B 3207   4.011   6.476   5.405 -4.1762  0.8371  0.9961
   28CHL1  H18C 3208   4.170   6.488   5.509  1.1475  2.8181 -1.7787
   28CHL1   C12 3209   4.143   6.750   5.582  0.3457  0.2228 -0.3860
   28CHL1  H12A 3210   4.251   6.732   5.559  0.8742 -1.6255  2.9681
   28CHL1  H12B 3211   4.131   6.861   5.576  1.8268  0.4114 -0.3476
   28CHL1   C11 3212   4.127   6.705   5.729  0.5071  0.4640 -0.0850
   28CHL1  H11A 3213   4.128   6.594   5.727  0.3493  0.4691 -1.5975
   28CHL1  H11B 3214   4.196   6.741   5.809 -1.7493  2.3156  1.1740
   28CHL1    C9 3215   3.977   6.736   5.769  0.7542  0.0334 -0.2883
   28CHL1    H9 3216   3.978   6.847   5.772  1.8826  0.0680 -1.2878
   28CHL1   C10 3217   3.947   6.694   5.921 -0.6242  0.1300 -0.2035
   28CHL1   C19 3218   3.996   6.557   5.949  0.1532 -0.0670 -1.0130
   28CHL1  H19A 3219   3.972   6.546   6.057 -0.3848  0.7829 -1.0369
   28CHL1  H19B 3220   3.934   6.483   5.895  1.4627  0.3937 -3.2433
   28CHL1  H19C 3221   4.106   6.544   5.935  0.9040 -0.6601  3.5768
   28CHL1    C1 3222   4.019   6.798   6.014 -0.0661  0.2105  1.0602
   28CHL1   H1A 3223   4.129   6.804   6.003  0.1736  1.0416  3.3833
   28CHL1   H1B 3224   3.974   6.897   5.992  0.0575  0.6916  2.8044
   28CHL1    C2 3225   3.980   6.779   6.164  0.0182 -0.1922 -0.3598
   28CHL1   H2A 3226   4.037   6.847   6.231  1.9773 -0.2522 -1.8600
   28CHL1   H2B 3227   4.020   6.677   6.185 -0.8897 -0.2629  1.1749
   28CHL1   C20 3228   4.137   6.661   5.243 -0.0201 -0.3446  0.4087
   28CHL1   H20 3229   4.129   6.552   5.223  0.6183 -0.8759  2.7338
   28CHL1   C21 3230   4.290   6.695   5.283  0.0420 -0.0635  0.4178
   28CHL1  H21A 3231   4.312   6.650   5.382 -1.1836 -1.5741  0.0586
   28CHL1  H21B 3232   4.300   6.806   5.283 -1.1734  0.0780 -0.5171
   28CHL1  H21C 3233   4.360   6.645   5.213  0.9017  2.0556 -0.3138
   28CHL1   C22 3234   4.114   6.724   5.099  0.8065 -0.4896 -0.2279
   28CHL1  H22A 3235   4.023   6.675   5.060 -0.1772 -0.5887  2.0238
   28CHL1  H22B 3236   4.085   6.828   5.124  1.3587 -0.5639  0.7871
   28CHL1   C23 3237   4.229   6.708   4.999 -0.1509 -0.1049 -0.5569
   28CHL1  H23A 3238   4.306   6.784   5.027 -0.5447  0.4563 -0.9719
   28CHL1  H23B 3239   4.283   6.612   4.988 -0.2281  0.0201 -2.3293
   28CHL1   C24 3240   4.185   6.735   4.854  0.0006  0.2155 -0.4168
   28CHL1  H24A 3241   4.258   6.685   4.787 -1.5560 -1.8217 -0.6906
   28CHL1  H24B 3242   4.090   6.680   4.840  0.4760 -0.6924 -0.1401
   28CHL1   C25 3243   4.166   6.888   4.823 -0.0875  0.7139  0.0544
   28CHL1   H25 3244   4.104   6.923   4.908 -2.0043  0.0771 -1.0226
   28CHL1   C26 3245   4.300   6.968   4.814  0.4408  1.0137  0.3023
   28CHL1  H26A 3246   4.345   6.963   4.713  3.9660  2.8025  1.6160
   28CHL1  H26B 3247   4.297   7.079   4.818  1.0859  1.1165 -1.3979
   28CHL1  H26C 3248   4.374   6.925   4.884 -0.5555 -1.9666 -0.3402
   28CHL1   C27 3249   4.079   6.914   4.701  0.3464  0.5577  0.2038
   28CHL1  H27A 3250   4.138   6.868   4.618  0.3937  0.2865  0.3847
   28CHL1  H27B 3251   3.981   6.864   4.715  1.1288 -0.7321  1.4359
   28CHL1  H27C 3252   4.057   7.022   4.693  0.6082  0.5390 -1.1074
   29CHL1    C3 3253   5.388   2.620   6.275 -0.1161  0.0084  0.2896
   29CHL1    H3 3254   5.429   2.722   6.260 -1.9645  0.4556 -2.5543
   29CHL1    O3 3255   5.364   2.607   6.416  0.4909  0.0112 -0.1764
   29CHL1   H3' 3256   5.320   2.688   6.443  1.8572  0.1522  1.8781
   29CHL1    C4 3257   5.251   2.606   6.197 -0.3978 -0.2496 -0.5573
   29CHL1   H4A 3258   5.212   2.505   6.222 -1.3092  0.1603 -0.2754
   29CHL1   H4B 3259   5.187   2.686   6.241 -1.1103  0.5136 -2.8280
   29CHL1    C5 3260   5.272   2.622   6.045  1.3018 -0.0324 -0.4154
   29CHL1    C6 3261   5.207   2.715   5.973  0.7366  0.3507 -0.1113
   29CHL1    H6 3262   5.129   2.778   6.019 -0.7051  0.2412 -2.2547
   29CHL1    C7 3263   5.225   2.727   5.827  0.0316 -0.5184  0.2467
   29CHL1   H7A 3264   5.131   2.767   5.784  1.5607  3.4220  0.2310
   29CHL1   H7B 3265   5.308   2.799   5.813 -1.1770  0.6978 -0.8917
   29CHL1    C8 3266   5.278   2.594   5.761  0.4768 -0.0315  0.1962
   29CHL1    H8 3267   5.196   2.518   5.765 -0.4889  1.0066  0.8325
   29CHL1   C14 3268   5.323   2.619   5.613  0.0755  0.4723 -1.1037
   29CHL1   H14 3269   5.401   2.698   5.615 -0.7352  1.2795 -0.1876
   29CHL1   C15 3270   5.214   2.679   5.522  0.5295 -0.5384  0.7918
   29CHL1  H15A 3271   5.119   2.628   5.548  0.1908  0.8486  2.4225
   29CHL1  H15B 3272   5.204   2.787   5.546 -1.5742 -0.9846  2.2216
   29CHL1   C16 3273   5.265   2.651   5.383  0.0792 -1.0289  0.1573
   29CHL1  H16A 3274   5.187   2.618   5.310  2.2018 -0.8793 -2.3090
   29CHL1  H16B 3275   5.314   2.744   5.348 -0.8410 -0.2067  0.9727
   29CHL1   C17 3276   5.380   2.548   5.399  0.1731 -0.3282  0.7188
   29CHL1   H17 3277   5.467   2.617   5.403 -0.5309  1.2322 -4.2437
   29CHL1   C13 3278   5.373   2.498   5.548 -0.5038  0.7318  0.0942
   29CHL1   C18 3279   5.275   2.378   5.560  0.1586 -0.6594  0.2049
   29CHL1  H18A 3280   5.304   2.296   5.492  0.2313 -1.0476  0.7026
   29CHL1  H18B 3281   5.268   2.329   5.660 -0.6728 -2.5027 -0.7065
   29CHL1  H18C 3282   5.173   2.417   5.538 -0.5492 -1.7558  1.4364
   29CHL1   C12 3283   5.508   2.455   5.609  0.4803  0.0113  0.5449
   29CHL1  H12A 3284   5.548   2.363   5.561  2.7375  0.4665  1.4308
   29CHL1  H12B 3285   5.582   2.537   5.599 -1.9328  2.4235  1.2195
   29CHL1   C11 3286   5.488   2.435   5.764 -0.1671  0.3475 -0.1425
   29CHL1  H11A 3287   5.445   2.334   5.785  0.8292  0.1250  0.9134
   29CHL1  H11B 3288   5.591   2.438   5.804 -0.8033  4.2878  1.6704
   29CHL1    C9 3289   5.402   2.545   5.839  0.1404  0.4975 -0.2927
   29CHL1    H9 3290   5.488   2.615   5.847  0.4859 -0.0166  0.6028
   29CHL1   C10 3291   5.371   2.515   5.993  0.3074  0.1430  0.6439
   29CHL1   C19 3292   5.293   2.372   5.989 -0.5433  0.1288  0.5430
   29CHL1  H19A 3293   5.375   2.298   6.001  0.9521  1.0761 -2.6720
   29CHL1  H19B 3294   5.214   2.353   6.064  0.9851 -0.5365  2.0548
   29CHL1  H19C 3295   5.256   2.356   5.885  0.5806 -1.8922  0.3928
   29CHL1    C1 3296   5.508   2.519   6.075  0.0725  0.4172  0.7028
   29CHL1   H1A 3297   5.565   2.429   6.042  1.0900  1.4298 -0.4078
   29CHL1   H1B 3298   5.554   2.615   6.043  0.9834 -0.4034 -0.5584
   29CHL1    C2 3299   5.486   2.512   6.227 -0.4726 -0.4482  0.3075
   29CHL1   H2A 3300   5.581   2.530   6.283 -1.1489  2.4181  0.6666
   29CHL1   H2B 3301   5.446   2.411   6.251  0.1716 -0.1383  2.9345
   29CHL1   C20 3302   5.403   2.462   5.276 -0.4734 -0.0964 -0.2120
   29CHL1   H20 3303   5.343   2.370   5.295  1.2769 -1.0746  0.9163
   29CHL1   C21 3304   5.547   2.406   5.266  0.1416  0.7543 -0.3274
   29CHL1  H21A 3305   5.634   2.475   5.256  2.2688 -1.9684 -1.7011
   29CHL1  H21B 3306   5.554   2.331   5.185  1.3655  0.1975  0.2675
   29CHL1  H21C 3307   5.576   2.341   5.351 -1.0448  0.2256 -0.3132
   29CHL1   C22 3308   5.372   2.535   5.139 -0.0013  0.6522 -0.3133
   29CHL1  H22A 3309   5.271   2.582   5.144 -1.3184 -1.9544 -0.6098
   29CHL1  H22B 3310   5.448   2.610   5.110  1.5007 -1.0219 -0.9297
   29CHL1   C23 3311   5.344   2.431   5.023  0.0265 -0.0833 -0.4455
   29CHL1  H23A 3312   5.437   2.383   4.986  1.4995  0.8306  1.7843
   29CHL1  H23B 3313   5.274   2.352   5.056  0.2984 -0.2999 -0.3777
   29CHL1   C24 3314   5.303   2.493   4.890 -0.0254  0.6690 -0.1496
   29CHL1  H24A 3315   5.248   2.587   4.912 -2.8425 -0.5705 -1.3453
   29CHL1  H24B 3316   5.387   2.524   4.824  1.1994 -0.4844  0.8074
   29CHL1   C25 3317   5.227   2.398   4.796 -0.0433 -0.4100  0.0977
   29CHL1   H25 3318   5.137   2.359   4.850  1.0064 -1.7379  0.9491
   29CHL1   C26 3319   5.183   2.462   4.663 -0.4665 -0.2386  0.1488
   29CHL1  H26A 3320   5.269   2.498   4.604 -1.1827  3.3795  1.1080
   29CHL1  H26B 3321   5.122   2.387   4.606  0.7564 -0.8739 -0.3555
   29CHL1  H26C 3322   5.115   2.541   4.702 -0.8316 -1.2134  1.5734
   29CHL1   C27 3323   5.315   2.277   4.771 -0.3348  0.3713  0.4351
   29CHL1  H27A 3324   5.395   2.298   4.697 -0.8482 -0.8883 -0.5115
   29CHL1  H27B 3325   5.360   2.234   4.863 -2.8032  0.4743  1.7711
   29CHL1  H27C 3326   5.262   2.191   4.725  2.8118 -1.2251 -0.4627
   30CHL1    C3 3327   5.472   1.908   6.030  0.2667 -0.1525 -0.1058
   30CHL1    H3 3328   5.391   1.831   6.024  1.8267 -1.8110 -0.6692
   30CHL1    O3 3329   5.491   1.934   6.168 -0.2589 -0.3483  0.3072
   30CHL1   H3' 3330   5.403   1.964   6.191 -0.7681  0.7964 -2.7039
   30CHL1    C4 3331   5.608   1.853   5.976 -0.1897  0.2363  0.1143
   30CHL1   H4A 3332   5.685   1.925   6.012 -2.0793  2.7866 -0.6209
   30CHL1   H4B 3333   5.619   1.755   6.028 -1.9587  0.2712  0.6157
   30CHL1    C5 3334   5.610   1.846   5.823  0.1952  0.5523 -0.5656
   30CHL1    C6 3335   5.654   1.729   5.768  0.5624  0.7795  0.5190
   30CHL1    H6 3336   5.693   1.639   5.818  0.6140 -0.3820 -1.5152
   30CHL1    C7 3337   5.664   1.718   5.625  0.4498 -0.2185  0.0458
   30CHL1   H7A 3338   5.758   1.666   5.594  0.6809  0.1932  0.0424
   30CHL1   H7B 3339   5.579   1.653   5.595  2.7796 -3.5269  0.0871
   30CHL1    C8 3340   5.661   1.856   5.547  0.1848  0.6905 -0.1461
   30CHL1    H8 3341   5.759   1.904   5.564  0.2405  0.9726 -1.2079
   30CHL1   C14 3342   5.636   1.830   5.401 -0.4115  0.3324  0.1253
   30CHL1   H14 3343   5.534   1.786   5.392  0.0801 -1.1362  1.3107
   30CHL1   C15 3344   5.730   1.734   5.313  0.2028 -0.1009 -0.5615
   30CHL1  H15A 3345   5.836   1.762   5.331 -0.0953  0.6097  0.1257
   30CHL1  H15B 3346   5.711   1.629   5.343  3.0699 -0.0938  1.6816
   30CHL1   C16 3347   5.703   1.778   5.170  0.5575 -0.0315 -0.5223
   30CHL1  H16A 3348   5.794   1.802   5.111 -1.3932  1.8851 -2.9833
   30CHL1  H16B 3349   5.651   1.695   5.117 -2.3152  1.7104 -0.6931
   30CHL1   C17 3350   5.610   1.904   5.179  0.9065 -0.3268 -0.3329
   30CHL1   H17 3351   5.506   1.865   5.188  0.7960 -0.4956 -1.9732
   30CHL1   C13 3352   5.626   1.958   5.321 -0.4169 -0.5405  0.7243
   30CHL1   C18 3353   5.754   2.045   5.337 -0.0523  0.0402  0.5460
   30CHL1  H18A 3354   5.839   2.000   5.281 -0.0370  0.5401  0.1505
   30CHL1  H18B 3355   5.743   2.138   5.277  1.7826  1.0271  1.6361
   30CHL1  H18C 3356   5.796   2.069   5.437 -0.6621  1.4263  0.4898
   30CHL1   C12 3357   5.498   2.031   5.373  0.2888 -0.5234  0.4362
   30CHL1  H12A 3358   5.501   2.131   5.324 -1.1083 -0.4480  0.4474
   30CHL1  H12B 3359   5.411   1.971   5.339  0.6289 -0.9078  0.2362
   30CHL1   C11 3360   5.510   2.060   5.521  0.3206 -0.2709 -0.1630
   30CHL1  H11A 3361   5.594   2.132   5.527  2.0988 -2.3228  0.8922
   30CHL1  H11B 3362   5.424   2.117   5.561  1.0640  2.7003 -2.4390
   30CHL1    C9 3363   5.539   1.935   5.606  0.4253 -0.6457 -0.7043
   30CHL1    H9 3364   5.444   1.878   5.601 -0.5098  0.8399 -0.6324
   30CHL1   C10 3365   5.555   1.970   5.755 -0.5690  0.1962  0.1396
   30CHL1   C19 3366   5.663   2.080   5.765 -0.0517  0.8843 -0.1610
   30CHL1  H19A 3367   5.754   2.056   5.705  0.5164 -0.0520  1.0545
   30CHL1  H19B 3368   5.623   2.181   5.741 -0.1477  1.3180  1.6918
   30CHL1  H19C 3369   5.682   2.089   5.874  0.5957 -0.2196 -0.1719
   30CHL1    C1 3370   5.424   2.019   5.820  0.2805 -0.2415 -0.9661
   30CHL1   H1A 3371   5.379   2.100   5.759  1.8209 -1.2054 -3.5952
   30CHL1   H1B 3372   5.349   1.941   5.794 -0.6205  0.5547 -0.8021
   30CHL1    C2 3373   5.433   2.039   5.966  0.0056 -0.1132 -0.5601
   30CHL1   H2A 3374   5.335   2.060   6.013 -0.2168 -1.6856 -0.2810
   30CHL1   H2B 3375   5.510   2.116   5.987 -1.1312  1.3607 -1.5501
   30CHL1   C20 3376   5.607   2.011   5.064 -0.0202  1.2005 -0.1579
   30CHL1   H20 3377   5.561   2.106   5.099 -2.6493 -0.4707  1.1943
   30CHL1   C21 3378   5.505   1.948   4.970  0.7233  0.0768 -0.3903
   30CHL1  H21A 3379   5.539   1.844   4.949  2.7992  0.6979 -0.3258
   30CHL1  H21B 3380   5.481   2.015   4.885  1.9374 -0.5458 -1.2479
   30CHL1  H21C 3381   5.407   1.931   5.018  1.1330  0.4472  0.6117
   30CHL1   C22 3382   5.740   2.035   4.992 -0.3508  0.4472  0.3027
   30CHL1  H22A 3383   5.814   2.065   5.070  2.3595 -3.5567 -0.4277
   30CHL1  H22B 3384   5.774   1.942   4.943  1.8542  0.6108  1.3900
   30CHL1   C23 3385   5.739   2.144   4.889 -0.0760 -0.2163  0.7393
   30CHL1  H23A 3386   5.655   2.119   4.820  0.8840 -0.0298 -0.5263
   30CHL1  H23B 3387   5.724   2.249   4.922 -1.0072  0.1089 -0.6240
   30CHL1   C24 3388   5.864   2.130   4.804  0.5999 -0.8071  0.5703
   30CHL1  H24A 3389   5.956   2.122   4.865 -0.4290 -1.2969  2.0972
   30CHL1  H24B 3390   5.866   2.027   4.762  0.8043 -0.7102  0.3370
   30CHL1   C25 3391   5.871   2.231   4.689 -0.2583  0.2553  0.7913
   30CHL1   H25 3392   5.877   2.329   4.741  0.2313  0.7067 -0.0901
   30CHL1   C26 3393   6.004   2.195   4.613 -0.2179 -0.2657  0.4614
   30CHL1  H26A 3394   6.010   2.092   4.574  2.8465  0.5250 -1.4911
   30CHL1  H26B 3395   6.038   2.269   4.538 -3.1837  1.2656  0.4794
   30CHL1  H26C 3396   6.088   2.196   4.686  1.0383 -2.7890 -0.8390
   30CHL1   C27 3397   5.752   2.230   4.590  0.4500  0.5336 -0.9131
   30CHL1  H27A 3398   5.726   2.125   4.564  0.9664 -0.2299  1.4147
   30CHL1  H27B 3399   5.672   2.291   4.636 -0.0775 -1.1903  0.5772
   30CHL1  H27C 3400   5.781   2.291   4.502  1.0582 -0.2467 -1.2772
   31CHL1    C3 3401   5.926   2.626   6.203  0.6764  0.4838 -0.3254
   31CHL1    H3 3402   5.831   2.652   6.153  0.5779  1.5653  0.3863
   31CHL1    O3 3403   5.891   2.623   6.339  0.2325 -0.0666  0.3230
   31CHL1   H3' 3404   5.972   2.621   6.391 -0.1624 -0.2677  0.9408
   31CHL1    C4 3405   5.968   2.481   6.164  0.0591  0.2189 -0.1389
   31CHL1   H4A 3406   6.060   2.448   6.218  0.2222  1.7073  0.5477
   31CHL1   H4B 3407   5.890   2.413   6.203  1.3374  0.3212  2.9118
   31CHL1    C5 3408   5.985   2.486   6.017 -0.3893  0.7969 -0.0515
   31CHL1    C6 3409   5.899   2.419   5.944 -0.1878 -0.5194 -0.2004
   31CHL1    H6 3410   5.818   2.364   5.993 -0.1859  0.1710  0.5906
   31CHL1    C7 3411   5.901   2.412   5.791  0.0139 -0.7152  0.1516
   31CHL1   H7A 3412   5.888   2.306   5.760 -0.1166 -0.2436 -1.4590
   31CHL1   H7B 3413   5.821   2.475   5.748 -0.6467 -1.6431  0.0082
   31CHL1    C8 3414   6.042   2.463   5.743  0.5143 -0.4019  0.5400
   31CHL1    H8 3415   6.115   2.380   5.753  0.4061 -0.4553  0.8809
   31CHL1   C14 3416   6.017   2.506   5.590  0.1354  0.3323  0.1710
   31CHL1   H14 3417   5.943   2.590   5.589 -0.8407 -0.4545 -2.4677
   31CHL1   C15 3418   5.955   2.396   5.503 -0.4337 -0.6518 -0.1968
   31CHL1  H15A 3419   6.020   2.307   5.513  0.2341 -0.1518 -0.0553
   31CHL1  H15B 3420   5.850   2.370   5.529 -0.7234 -2.8925 -3.0612
   31CHL1   C16 3421   5.979   2.445   5.362  0.3533 -0.8389  0.0841
   31CHL1  H16A 3422   6.003   2.359   5.296  2.9585  0.5217 -0.8908
   31CHL1  H16B 3423   5.890   2.497   5.321  2.0616  3.7336  1.4987
   31CHL1   C17 3424   6.078   2.571   5.372 -0.0324 -0.1593 -0.1744
   31CHL1   H17 3425   6.021   2.666   5.370 -2.2832 -1.4234 -1.8788
   31CHL1   C13 3426   6.143   2.556   5.515  0.4455 -0.4096 -0.1098
   31CHL1   C18 3427   6.264   2.459   5.524 -0.1653  0.5964  0.2072
   31CHL1  H18A 3428   6.273   2.426   5.629 -2.4278  1.4202  0.7230
   31CHL1  H18B 3429   6.231   2.366   5.472  2.1498  0.3598 -0.9650
   31CHL1  H18C 3430   6.356   2.494   5.473 -0.2109 -0.9641 -1.0389
   31CHL1   C12 3431   6.171   2.693   5.587  0.0737 -0.5124  0.1307
   31CHL1  H12A 3432   6.252   2.761   5.554  0.7731 -0.9038  1.0104
   31CHL1  H12B 3433   6.079   2.754   5.581 -0.1045 -0.7943 -0.0237
   31CHL1   C11 3434   6.199   2.677   5.733 -0.5027 -0.5634  0.3666
   31CHL1  H11A 3435   6.300   2.636   5.752  0.5172  1.6530  0.0749
   31CHL1  H11B 3436   6.207   2.779   5.777  0.5719 -0.0242 -0.9991
   31CHL1    C9 3437   6.092   2.596   5.809 -0.3977  1.1903  0.0733
   31CHL1    H9 3438   5.996   2.652   5.809 -0.2341  1.5838  2.8902
   31CHL1   C10 3439   6.103   2.569   5.960 -0.1009 -0.7793  0.0175
   31CHL1   C19 3440   6.245   2.511   5.983 -0.0231  0.5133 -0.0135
   31CHL1  H19A 3441   6.276   2.510   6.090  0.4027 -0.7795 -0.1334
   31CHL1  H19B 3442   6.255   2.409   5.941 -2.8122  0.3614 -0.5510
   31CHL1  H19C 3443   6.326   2.578   5.947  0.5847 -0.2851 -0.1455
   31CHL1    C1 3444   6.092   2.706   6.037 -0.8575 -0.2482  0.8728
   31CHL1   H1A 3445   6.195   2.750   6.038 -1.3731  1.0315  0.1521
   31CHL1   H1B 3446   6.034   2.774   5.972 -2.3362 -0.8628  1.5122
   31CHL1    C2 3447   6.044   2.716   6.187 -1.2074 -0.7082  0.3634
   31CHL1   H2A 3448   6.020   2.820   6.221  0.4479 -1.0789  2.9643
   31CHL1   H2B 3449   6.122   2.682   6.259 -0.8118 -0.9624 -0.1804
   31CHL1   C20 3450   6.180   2.588   5.252  0.2001 -0.4154 -0.5716
   31CHL1   H20 3451   6.248   2.501   5.253  1.1659  0.3237 -0.3983
   31CHL1   C21 3452   6.258   2.713   5.266  0.2197  0.2238 -0.1621
   31CHL1  H21A 3453   6.314   2.711   5.362 -1.2789 -1.3878  0.7386
   31CHL1  H21B 3454   6.186   2.796   5.257  0.5821  0.5297 -0.2716
   31CHL1  H21C 3455   6.331   2.720   5.182 -0.6766 -4.8016 -1.7095
   31CHL1   C22 3456   6.106   2.583   5.116  0.0189  0.0682  0.2271
   31CHL1  H22A 3457   6.058   2.484   5.109 -0.7822  0.3573  1.3023
   31CHL1  H22B 3458   6.016   2.648   5.112 -1.3518 -1.7580  0.3754
   31CHL1   C23 3459   6.199   2.599   4.992  0.6612 -0.7365 -0.1976
   31CHL1  H23A 3460   6.223   2.706   4.974 -1.4575 -0.0657  0.6734
   31CHL1  H23B 3461   6.297   2.548   5.007  1.8555  1.7502  1.2343
   31CHL1   C24 3462   6.125   2.538   4.872  0.0947  0.0109  1.5730
   31CHL1  H24A 3463   6.118   2.427   4.875 -3.3692 -0.1599 -3.0637
   31CHL1  H24B 3464   6.023   2.581   4.880 -1.1238 -2.2632 -0.6038
   31CHL1   C25 3465   6.187   2.591   4.737  0.0226  1.1633 -0.5511
   31CHL1   H25 3466   6.193   2.701   4.756 -0.2420  1.0192  0.3798
   31CHL1   C26 3467   6.315   2.526   4.704 -0.1922 -0.9416 -0.0117
   31CHL1  H26A 3468   6.302   2.416   4.718 -2.7607 -0.5502  1.2218
   31CHL1  H26B 3469   6.342   2.554   4.600 -2.8949  0.5744 -0.4037
   31CHL1  H26C 3470   6.399   2.561   4.768 -1.3243  1.6108  0.1923
   31CHL1   C27 3471   6.092   2.566   4.621 -0.5186 -0.2559 -0.1364
   31CHL1  H27A 3472   6.125   2.613   4.526 -0.2994  2.5305  1.2189
   31CHL1  H27B 3473   6.058   2.462   4.607 -0.7504 -0.0227 -1.3626
   31CHL1  H27C 3474   5.991   2.598   4.653 -1.8651 -0.7174 -3.5713
   32CHL1    C3 3475   0.525   0.544   6.136 -0.7522  0.3936  0.0463
   32CHL1    H3 3476   0.604   0.467   6.123 -1.1502  0.0781 -0.5015
   32CHL1    O3 3477   0.511   0.580   6.275 -0.4682  0.0620  0.0014
   32CHL1   H3' 3478   0.520   0.498   6.323  0.7820  1.3895  2.2187
   32CHL1    C4 3479   0.565   0.670   6.046 -0.2537  0.8734 -0.3360
   32CHL1   H4A 3480   0.488   0.749   6.059 -1.9634 -0.5830 -1.2324
   32CHL1   H4B 3481   0.660   0.702   6.094  0.1399 -0.5802 -0.0967
   32CHL1    C5 3482   0.574   0.629   5.906  0.6016  0.7187  0.2204
   32CHL1    C6 3483   0.689   0.640   5.838  0.8242  0.4361  0.1087
   32CHL1    H6 3484   0.777   0.680   5.890  1.3239 -3.3281  2.5208
   32CHL1    C7 3485   0.689   0.616   5.684 -0.6262  0.1173 -0.5056
   32CHL1   H7A 3486   0.739   0.703   5.634 -0.8109  0.1544 -0.6272
   32CHL1   H7B 3487   0.752   0.527   5.663  0.4967  0.5859  0.6703
   32CHL1    C8 3488   0.552   0.611   5.614 -0.4050 -0.2749 -0.0940
   32CHL1    H8 3489   0.513   0.715   5.616 -0.4902 -0.2733 -1.1590
   32CHL1   C14 3490   0.560   0.559   5.471  1.4078  0.3820  0.4432
   32CHL1   H14 3491   0.595   0.454   5.477 -2.2887 -1.1711 -1.7980
   32CHL1   C15 3492   0.651   0.637   5.372  0.3283  0.2603 -0.1186
   32CHL1  H15A 3493   0.628   0.743   5.393 -2.8668 -0.2987 -0.3670
   32CHL1  H15B 3494   0.760   0.623   5.391 -0.0309  0.8649  2.9918
   32CHL1   C16 3495   0.598   0.602   5.236 -0.3705 -0.2111  0.6171
   32CHL1  H16A 3496   0.564   0.693   5.182  1.3834  0.1753  0.1085
   32CHL1  H16B 3497   0.675   0.547   5.177  0.5238 -1.2426  2.6437
   32CHL1   C17 3498   0.472   0.512   5.249  0.3195  0.8450 -0.4688
   32CHL1   H17 3499   0.504   0.406   5.245 -1.8628  0.1629 -3.2464
   32CHL1   C13 3500   0.430   0.544   5.400 -0.1880 -0.0942  0.6621
   32CHL1   C18 3501   0.350   0.674   5.413 -0.5834  0.1321  0.1050
   32CHL1  H18A 3502   0.412   0.755   5.368  1.9137 -2.1374 -0.8452
   32CHL1  H18B 3503   0.270   0.669   5.336 -0.3080  1.3460 -0.2832
   32CHL1  H18C 3504   0.308   0.695   5.514  0.8294  0.6340  0.6191
   32CHL1   C12 3505   0.351   0.438   5.476 -0.3777 -0.3576 -0.0258
   32CHL1  H12A 3506   0.250   0.413   5.436 -0.5291 -0.2855  0.3138
   32CHL1  H12B 3507   0.411   0.346   5.460 -0.5631 -0.5316  0.2633
   32CHL1   C11 3508   0.336   0.459   5.629  0.5028 -0.1184  0.7263
   32CHL1  H11A 3509   0.254   0.533   5.643  0.7589  0.0419  1.4017
   32CHL1  H11B 3510   0.292   0.365   5.670  0.4627 -0.2337  0.4291
   32CHL1    C9 3511   0.466   0.510   5.704  0.4804 -0.6728 -0.4737
   32CHL1    H9 3512   0.527   0.417   5.713  0.0319 -0.7814  2.7850
   32CHL1   C10 3513   0.444   0.564   5.849  0.2478  0.0558  0.2059
   32CHL1   C19 3514   0.326   0.664   5.852 -0.2858 -0.0053 -0.1380
   32CHL1  H19A 3515   0.344   0.735   5.768  2.2700  0.3196  0.5952
   32CHL1  H19B 3516   0.231   0.611   5.828  0.6504 -2.0152  0.3315
   32CHL1  H19C 3517   0.312   0.729   5.940  0.3238  1.0828 -0.8248
   32CHL1    C1 3518   0.395   0.449   5.939  0.3148  0.4216 -0.3456
   32CHL1   H1A 3519   0.300   0.402   5.907  1.1004 -0.7815 -1.0070
   32CHL1   H1B 3520   0.468   0.366   5.928  0.2753  0.3072  0.2359
   32CHL1    C2 3521   0.394   0.479   6.092 -0.7135  0.4006 -0.4894
   32CHL1   H2A 3522   0.374   0.382   6.142  0.8525  0.3298  0.0714
   32CHL1   H2B 3523   0.312   0.549   6.119 -1.2151 -0.9845  1.8861
   32CHL1   C20 3524   0.361   0.527   5.142  0.6217 -0.3752  0.3650
   32CHL1   H20 3525   0.324   0.632   5.150  0.1834 -0.4311 -0.7320
   32CHL1   C21 3526   0.242   0.432   5.161 -0.1926 -0.0553 -1.3255
   32CHL1  H21A 3527   0.176   0.456   5.246  0.1019 -0.6101 -0.9348
   32CHL1  H21B 3528   0.276   0.327   5.171 -0.9184 -0.0830  1.6341
   32CHL1  H21C 3529   0.169   0.437   5.077 -1.4382 -1.3711 -0.3550
   32CHL1   C22 3530   0.414   0.507   4.998  0.0038  0.4705 -0.2193
   32CHL1  H22A 3531   0.510   0.555   4.972  1.1767 -1.4774  0.2914
   32CHL1  H22B 3532   0.440   0.399   4.987 -1.5918  0.0861 -0.4899
   32CHL1   C23 3533   0.312   0.547   4.885 -1.1585 -0.7097  0.1441
   32CHL1  H23A 3534   0.230   0.473   4.894 -0.6704 -1.0843  1.8734
   32CHL1  H23B 3535   0.275   0.650   4.906  3.4327  1.0650  0.8076
   32CHL1   C24 3536   0.376   0.541   4.753 -0.1216 -0.1457 -0.0806
   32CHL1  H24A 3537   0.466   0.606   4.745 -0.6073  0.2870 -2.8653
   32CHL1  H24B 3538   0.412   0.437   4.734  0.1879 -0.2019  0.7579
   32CHL1   C25 3539   0.311   0.598   4.626 -0.2111  0.4356  0.5966
   32CHL1   H25 3540   0.269   0.699   4.643  0.5413  0.6676  1.0904
   32CHL1   C26 3541   0.403   0.612   4.500 -0.0416  0.2246  1.2711
   32CHL1  H26A 3542   0.354   0.672   4.420 -0.9758  1.0916  2.4531
   32CHL1  H26B 3543   0.502   0.661   4.510  0.5868 -0.4594 -0.8479
   32CHL1  H26C 3544   0.430   0.513   4.457  4.9324  0.8336  2.3916
   32CHL1   C27 3545   0.187   0.514   4.597  0.1914 -0.6994  0.1758
   32CHL1  H27A 3546   0.117   0.515   4.682 -1.8374  1.3678 -1.3984
   32CHL1  H27B 3547   0.129   0.551   4.509  1.9254 -0.6853 -1.0203
   32CHL1  H27C 3548   0.219   0.408   4.583  3.2054  0.0519  0.5825
   33CHL1    C3 3549   0.699   5.841   6.057  0.3287 -0.0449  0.2146
   33CHL1    H3 3550   0.779   5.773   6.019 -0.1822 -0.5748  0.0704
   33CHL1    O3 3551   0.680   5.830   6.197 -0.8815  0.8781 -0.3071
   33CHL1   H3' 3552   0.730   5.895   6.247 -1.6954 -0.0194  1.7965
   33CHL1    C4 3553   0.717   5.985   6.007 -0.0824  0.1958 -0.4088
   33CHL1   H4A 3554   0.627   6.040   6.042 -0.2364 -0.1406 -0.2745
   33CHL1   H4B 3555   0.808   6.028   6.054 -0.1410 -0.4473  0.3109
   33CHL1    C5 3556   0.727   5.993   5.856  0.4076  0.9299  0.7814
   33CHL1    C6 3557   0.838   6.032   5.799  0.2798  0.2614  0.1600
   33CHL1    H6 3558   0.927   6.056   5.859 -0.7528 -0.7378  2.1894
   33CHL1    C7 3559   0.856   6.052   5.652 -0.3686 -0.0926  0.1589
   33CHL1   H7A 3560   0.888   6.157   5.638 -1.6000  0.7372  2.8922
   33CHL1   H7B 3561   0.931   5.984   5.606 -0.7431  0.1890 -0.9101
   33CHL1    C8 3562   0.719   6.030   5.573 -0.0056 -0.6833 -1.0875
   33CHL1    H8 3563   0.663   6.125   5.581 -1.1209 -1.0607 -3.4516
   33CHL1   C14 3564   0.741   6.006   5.425  0.1855 -0.1766  0.0199
   33CHL1   H14 3565   0.798   5.912   5.412  0.0974  0.0089 -2.0997
   33CHL1   C15 3566   0.831   6.100   5.348 -0.4083 -0.2452 -0.0010
   33CHL1  H15A 3567   0.801   6.205   5.370  1.1410 -0.0066  1.1982
   33CHL1  H15B 3568   0.935   6.108   5.385 -0.5930  0.7766  0.3319
   33CHL1   C16 3569   0.805   6.058   5.203  0.7150  0.3063  0.0898
   33CHL1  H16A 3570   0.788   6.145   5.136  0.2523 -0.8623 -1.3732
   33CHL1  H16B 3571   0.885   5.998   5.154  0.5503  0.7058 -0.6807
   33CHL1   C17 3572   0.681   5.963   5.204  0.8140  0.0821  0.7838
   33CHL1   H17 3573   0.711   5.856   5.205 -1.2962 -0.5640  1.6256
   33CHL1   C13 3574   0.621   5.978   5.339  0.3024 -0.3815  0.4219
   33CHL1   C18 3575   0.532   6.098   5.338 -0.2316  0.2158  0.2979
   33CHL1  H18A 3576   0.444   6.064   5.280 -0.3068 -0.7961  0.9753
   33CHL1  H18B 3577   0.522   6.130   5.444  2.9686  0.1336  0.7300
   33CHL1  H18C 3578   0.586   6.173   5.276 -0.9764  1.0763  0.6704
   33CHL1   C12 3579   0.551   5.851   5.397  0.1748  1.0061 -0.1114
   33CHL1  H12A 3580   0.447   5.838   5.358  0.7202 -0.4148 -1.1939
   33CHL1  H12B 3581   0.619   5.763   5.394 -1.7607 -0.7106  2.0785
   33CHL1   C11 3582   0.521   5.882   5.548 -0.2084  0.7175 -0.4979
   33CHL1  H11A 3583   0.440   5.958   5.553  1.8587  3.0878 -1.0984
   33CHL1  H11B 3584   0.487   5.784   5.589  0.6573 -0.0666 -1.5963
   33CHL1    C9 3585   0.640   5.915   5.635 -0.0654 -0.1963 -0.4443
   33CHL1    H9 3586   0.699   5.822   5.647  1.3705  0.4885 -1.9440
   33CHL1   C10 3587   0.600   5.949   5.784 -0.0188  0.5152 -0.7249
   33CHL1   C19 3588   0.495   6.052   5.807 -0.0979 -0.3906  0.2008
   33CHL1  H19A 3589   0.399   6.036   5.755 -1.2857  1.3569  1.7192
   33CHL1  H19B 3590   0.460   6.044   5.912  0.4630  0.4474  0.4655
   33CHL1  H19C 3591   0.523   6.158   5.788 -3.9488  0.9623  1.0877
   33CHL1    C1 3592   0.562   5.801   5.848  0.1072 -0.1455 -0.6083
   33CHL1   H1A 3593   0.456   5.781   5.820 -0.0686  0.6219 -0.5059
   33CHL1   H1B 3594   0.624   5.717   5.810  1.6536  1.1496 -1.0755
   33CHL1    C2 3595   0.569   5.785   6.003  0.2056 -0.4333 -0.5621
   33CHL1   H2A 3596   0.563   5.676   6.026 -0.7858 -0.6939 -1.9661
   33CHL1   H2B 3597   0.485   5.834   6.057  1.3518 -0.5337  1.4055
   33CHL1   C20 3598   0.598   5.975   5.069  0.4774  0.2441  0.0708
   33CHL1   H20 3599   0.532   6.064   5.068 -1.1608 -0.8589 -2.5720
   33CHL1   C21 3600   0.505   5.855   5.060  0.4905 -0.3759  0.7538
   33CHL1  H21A 3601   0.442   5.863   4.969  0.8994 -0.5618  0.4509
   33CHL1  H21B 3602   0.444   5.859   5.153 -0.0894 -1.2515  0.4234
   33CHL1  H21C 3603   0.555   5.756   5.069 -1.9171 -1.6055  1.2801
   33CHL1   C22 3604   0.697   5.977   4.942  0.5321 -0.7451 -0.3437
   33CHL1  H22A 3605   0.742   6.078   4.933 -0.4386 -0.3219 -0.5826
   33CHL1  H22B 3606   0.776   5.899   4.946  1.5504  0.3046  0.9671
   33CHL1   C23 3607   0.633   5.947   4.811 -0.2915 -0.6411  0.3599
   33CHL1  H23A 3608   0.593   5.844   4.813  1.3155 -1.3213  2.8361
   33CHL1  H23B 3609   0.542   6.008   4.792  0.7593  0.2588 -2.1741
   33CHL1   C24 3610   0.745   5.957   4.699 -0.0805  0.2535 -0.7672
   33CHL1  H24A 3611   0.830   5.890   4.726 -0.7787 -0.6021 -0.6535
   33CHL1  H24B 3612   0.705   5.919   4.603  0.6955  1.4032 -1.5690
   33CHL1   C25 3613   0.798   6.104   4.666  0.2499  0.1011 -0.2306
   33CHL1   H25 3614   0.834   6.147   4.762  0.1473 -0.0900 -0.1065
   33CHL1   C26 3615   0.921   6.111   4.575  0.6925  0.8551  0.3892
   33CHL1  H26A 3616   0.955   6.215   4.559  0.6785  0.4748 -2.5619
   33CHL1  H26B 3617   0.996   6.047   4.627  0.9435  0.6009 -0.2831
   33CHL1  H26C 3618   0.892   6.066   4.478 -2.3908  1.3054  1.0015
   33CHL1   C27 3619   0.689   6.197   4.605  0.9441 -0.5684 -0.0621
   33CHL1  H27A 3620   0.647   6.148   4.515 -0.2543  0.1536  0.0762
   33CHL1  H27B 3621   0.610   6.213   4.681  0.1722 -0.0660 -0.9518
   33CHL1  H27C 3622   0.728   6.296   4.570  0.6979  0.3870  2.1862
   34CHL1    C3 3623   1.011   1.613   6.097  0.5200  0.0642 -0.4789
   34CHL1    H3 3624   0.906   1.651   6.088  1.0286  1.7155  0.1768
   34CHL1    O3 3625   1.041   1.585   6.237 -0.0665  0.0426  0.2708
   34CHL1   H3' 3626   1.053   1.665   6.289 -0.8837 -0.2598  0.9484
   34CHL1    C4 3627   1.038   1.485   6.021 -0.8889  0.2583  0.0350
   34CHL1   H4A 3628   1.143   1.453   6.039 -1.6699 -1.6604  1.4403
   34CHL1   H4B 3629   0.982   1.399   6.062  1.3537 -1.2083  0.2300
   34CHL1    C5 3630   1.025   1.498   5.868 -0.4463  0.1205 -0.5967
   34CHL1    C6 3631   0.954   1.410   5.794  0.4464  0.5129  0.2024
   34CHL1    H6 3632   0.896   1.332   5.846 -2.4822  1.8563 -0.8228
   34CHL1    C7 3633   0.964   1.399   5.648 -1.2124 -0.6967  0.3052
   34CHL1   H7A 3634   0.988   1.298   5.610  0.3661 -0.1400 -0.2538
   34CHL1   H7B 3635   0.867   1.435   5.606 -0.3849  0.8312 -0.3882
   34CHL1    C8 3636   1.080   1.495   5.588 -0.2198  0.5543  0.2554
   34CHL1    H8 3637   1.176   1.440   5.598 -0.5063 -0.2410 -1.1684
   34CHL1   C14 3638   1.052   1.514   5.445 -1.3450  0.2677 -0.6614
   34CHL1   H14 3639   0.957   1.570   5.436 -1.0091  1.0951  0.6726
   34CHL1   C15 3640   1.038   1.388   5.358 -0.7093  0.0780 -0.5495
   34CHL1  H15A 3641   1.118   1.319   5.391  0.1532 -0.5019 -3.5412
   34CHL1  H15B 3642   0.936   1.344   5.350 -0.8397  0.4372 -0.9410
   34CHL1   C16 3643   1.065   1.439   5.212 -0.7569 -0.6753  0.5236
   34CHL1  H16A 3644   1.139   1.376   5.160 -0.8476 -0.8019  0.5478
   34CHL1  H16B 3645   0.974   1.415   5.153 -1.9959 -1.5191  2.6629
   34CHL1   C17 3646   1.107   1.588   5.225  0.0106 -0.2901  0.5502
   34CHL1   H17 3647   1.022   1.659   5.212  0.1176 -0.4870 -1.8093
   34CHL1   C13 3648   1.159   1.603   5.372 -0.3172 -0.4070  0.1002
   34CHL1   C18 3649   1.297   1.540   5.374 -0.5496  0.2375  0.0043
   34CHL1  H18A 3650   1.375   1.593   5.314 -1.2821  0.8567 -0.4167
   34CHL1  H18B 3651   1.340   1.538   5.477  1.5032 -0.9457 -0.8063
   34CHL1  H18C 3652   1.292   1.437   5.333  2.5742  0.6849 -1.8470
   34CHL1   C12 3653   1.151   1.747   5.437 -0.1405 -0.6821 -0.6872
   34CHL1  H12A 3654   1.232   1.816   5.405  0.2151 -0.4563  0.6531
   34CHL1  H12B 3655   1.050   1.790   5.421  0.2836  0.6292  0.0088
   34CHL1   C11 3656   1.184   1.729   5.591  0.1309 -0.0308 -0.0170
   34CHL1  H11A 3657   1.291   1.699   5.589  0.3072  0.6213 -1.2517
   34CHL1  H11B 3658   1.170   1.817   5.656 -2.6296 -0.5101  0.1459
   34CHL1    C9 3659   1.090   1.627   5.659 -0.4867 -0.1236 -0.4356
   34CHL1    H9 3660   0.990   1.675   5.649 -0.2755  0.6168  0.8069
   34CHL1   C10 3661   1.114   1.610   5.810  0.0585 -0.6156  0.7270
   34CHL1   C19 3662   1.260   1.562   5.837 -0.2894 -0.1864  0.5457
   34CHL1  H19A 3663   1.285   1.563   5.945  0.9272  0.5889  0.2761
   34CHL1  H19B 3664   1.293   1.467   5.789  0.7787 -0.0787  1.0406
   34CHL1  H19C 3665   1.334   1.635   5.798  1.5393 -2.2603 -0.0966
   34CHL1    C1 3666   1.077   1.742   5.882 -0.1956  0.1841  0.2903
   34CHL1   H1A 3667   1.146   1.822   5.847  1.3254 -0.9164  0.6972
   34CHL1   H1B 3668   0.975   1.782   5.863  0.1542 -0.6946 -4.9156
   34CHL1    C2 3669   1.089   1.728   6.037 -0.6700  0.1920  0.5554
   34CHL1   H2A 3670   1.073   1.821   6.095  0.4994 -0.4841  2.0198
   34CHL1   H2B 3671   1.194   1.705   6.066 -1.3658 -0.3218  2.8964
   34CHL1   C20 3672   1.198   1.628   5.112  0.1538  0.4413  0.4943
   34CHL1   H20 3673   1.292   1.569   5.118 -0.2347 -0.5234 -2.0336
   34CHL1   C21 3674   1.231   1.778   5.124 -1.3210 -0.2362 -0.3223
   34CHL1  H21A 3675   1.266   1.820   5.027  1.5028 -1.6426 -0.0182
   34CHL1  H21B 3676   1.314   1.785   5.198 -1.5665  2.2438 -0.2188
   34CHL1  H21C 3677   1.146   1.844   5.149  0.3352  0.6929  3.5959
   34CHL1   C22 3678   1.133   1.604   4.971  0.3045 -0.0009 -0.7739
   34CHL1  H22A 3679   1.085   1.504   4.979 -1.1818  0.8280  1.9474
   34CHL1  H22B 3680   1.052   1.676   4.949 -1.3184 -0.2070  3.5612
   34CHL1   C23 3681   1.241   1.596   4.866 -0.5130  0.1478  0.1401
   34CHL1  H23A 3682   1.276   1.701   4.864  0.1052 -0.0556 -2.4390
   34CHL1  H23B 3683   1.330   1.537   4.896 -0.9779 -0.3372  0.5986
   34CHL1   C24 3684   1.194   1.549   4.729 -0.8173 -0.1953 -0.2056
   34CHL1  H24A 3685   1.204   1.439   4.722 -3.7550 -0.5089 -0.5443
   34CHL1  H24B 3686   1.087   1.572   4.715 -1.0201 -1.3941 -0.7471
   34CHL1   C25 3687   1.276   1.591   4.609 -0.1842  0.0920 -0.3900
   34CHL1   H25 3688   1.286   1.701   4.602 -1.1312  0.3402  1.4787
   34CHL1   C26 3689   1.421   1.540   4.630  0.0718 -0.0130  0.5164
   34CHL1  H26A 3690   1.484   1.612   4.686 -1.1718  0.1020  1.8453
   34CHL1  H26B 3691   1.438   1.433   4.654  2.7425 -0.1792 -1.6368
   34CHL1  H26C 3692   1.473   1.541   4.532  1.6633 -1.8012  1.3022
   34CHL1   C27 3693   1.221   1.512   4.485 -0.3260 -0.3878  0.7878
   34CHL1  H27A 3694   1.274   1.542   4.391 -0.4848 -0.5829  0.6353
   34CHL1  H27B 3695   1.198   1.404   4.494 -4.2278  0.1588 -0.7874
   34CHL1  H27C 3696   1.123   1.562   4.469  0.9208  1.5569 -1.4978
   35CHL1    C3 3697   2.628   2.112   5.838 -0.0505  0.4364  0.1529
   35CHL1    H3 3698   2.710   2.089   5.767  0.1040  3.4851 -0.7866
   35CHL1    O3 3699   2.688   2.099   5.964  0.3547 -0.1522  0.9086
   35CHL1   H3' 3700   2.622   2.089   6.033  0.7165 -0.9432  1.1495
   35CHL1    C4 3701   2.569   2.248   5.827  0.6055 -0.1010  0.0054
   35CHL1   H4A 3702   2.488   2.253   5.903  1.7336  0.4734  1.2120
   35CHL1   H4B 3703   2.640   2.331   5.847  1.0297 -0.6557  0.8574
   35CHL1    C5 3704   2.495   2.263   5.692  0.0283  0.3322  0.2537
   35CHL1    C6 3705   2.538   2.347   5.600  0.1274 -0.0207 -0.2623
   35CHL1    H6 3706   2.616   2.422   5.621  2.0442 -1.1944 -2.7361
   35CHL1    C7 3707   2.472   2.379   5.464 -0.4720  0.2694 -0.0476
   35CHL1   H7A 3708   2.448   2.487   5.448 -2.3386  0.5596  3.7136
   35CHL1   H7B 3709   2.544   2.352   5.384  1.4979  2.3160  0.8936
   35CHL1    C8 3710   2.334   2.307   5.460 -0.0820 -0.1993 -0.4722
   35CHL1    H8 3711   2.260   2.364   5.520  2.2733  0.4070  2.0772
   35CHL1   C14 3712   2.286   2.304   5.315  0.2310  0.3559  0.0454
   35CHL1   H14 3713   2.362   2.257   5.247  0.3790 -1.2866  1.2923
   35CHL1   C15 3714   2.253   2.441   5.258 -0.2024  0.2786 -0.6200
   35CHL1  H15A 3715   2.221   2.501   5.346  1.4371  1.1278 -0.5531
   35CHL1  H15B 3716   2.354   2.479   5.231  0.7280 -1.8972 -0.3864
   35CHL1   C16 3717   2.163   2.412   5.140  0.4489  0.7070 -0.1394
   35CHL1  H16A 3718   2.074   2.477   5.129 -0.0663 -0.3219 -3.0919
   35CHL1  H16B 3719   2.220   2.424   5.046 -0.5339  0.8153 -0.7313
   35CHL1   C17 3720   2.122   2.257   5.144 -0.2286 -0.3494 -0.2669
   35CHL1   H17 3721   2.201   2.201   5.090  1.1691  1.1175  0.2107
   35CHL1   C13 3722   2.154   2.220   5.296 -1.0478  0.2501 -0.6176
   35CHL1   C18 3723   2.036   2.274   5.376  0.1554 -0.1517 -0.5490
   35CHL1  H18A 3724   2.064   2.290   5.483 -0.3573  3.8138 -0.8538
   35CHL1  H18B 3725   1.989   2.365   5.333  0.3207  0.3533  0.3051
   35CHL1  H18C 3726   1.966   2.187   5.376 -0.3375  0.1408  2.0951
   35CHL1   C12 3727   2.185   2.077   5.335 -0.0612  0.6904  0.5034
   35CHL1  H12A 3728   2.091   2.018   5.328 -0.2825  1.0654  0.3053
   35CHL1  H12B 3729   2.263   2.037   5.266 -1.1038 -1.4262  0.4915
   35CHL1   C11 3730   2.220   2.072   5.481  0.1952 -0.3681  0.2740
   35CHL1  H11A 3731   2.136   2.111   5.542  0.5064 -0.7622  0.9740
   35CHL1  H11B 3732   2.245   1.967   5.510  0.2984 -0.2208  0.7212
   35CHL1    C9 3733   2.346   2.161   5.516  0.9898 -0.4093  0.0675
   35CHL1    H9 3734   2.420   2.109   5.452  1.1116  1.2639 -1.2000
   35CHL1   C10 3735   2.384   2.152   5.668 -0.4057 -0.1285 -0.6927
   35CHL1   C19 3736   2.260   2.185   5.763  0.1603 -0.2750  0.6940
   35CHL1  H19A 3737   2.189   2.260   5.723 -1.4138 -0.8702  2.2578
   35CHL1  H19B 3738   2.192   2.097   5.768 -0.3870  0.0107 -1.0832
   35CHL1  H19C 3739   2.288   2.213   5.867 -1.0957  1.4590  0.6056
   35CHL1    C1 3740   2.445   2.015   5.705 -0.5803 -0.9752 -0.1778
   35CHL1   H1A 3741   2.360   1.943   5.706 -1.8120  0.3888  1.5119
   35CHL1   H1B 3742   2.520   2.000   5.625  1.9035  1.0329  1.6082
   35CHL1    C2 3743   2.521   2.006   5.839 -0.0213 -0.8186  0.2364
   35CHL1   H2A 3744   2.556   1.902   5.822 -0.7416 -0.8757 -1.0139
   35CHL1   H2B 3745   2.460   2.019   5.931 -0.2421  1.4875 -0.1812
   35CHL1   C20 3746   1.990   2.208   5.085  0.5211  0.2902 -0.3972
   35CHL1   H20 3747   1.905   2.224   5.155  0.0931 -0.3072 -0.7675
   35CHL1   C21 3748   1.998   2.052   5.055 -0.1102 -0.2014  0.4401
   35CHL1  H21A 3749   1.906   2.005   5.012  0.8979 -1.2505 -0.6671
   35CHL1  H21B 3750   2.022   1.989   5.144  0.6717  0.0147  0.3881
   35CHL1  H21C 3751   2.079   2.040   4.980  0.6115  2.3153  0.7545
   35CHL1   C22 3752   1.953   2.286   4.952 -0.0943 -0.5223  0.4433
   35CHL1  H22A 3753   2.044   2.326   4.903 -1.0677  0.7243 -0.3860
   35CHL1  H22B 3754   1.907   2.220   4.875  3.1544  0.4102 -2.5503
   35CHL1   C23 3755   1.861   2.403   4.971 -0.3830 -0.4460  0.5405
   35CHL1  H23A 3756   1.758   2.369   4.997 -0.3883 -1.5829 -0.8541
   35CHL1  H23B 3757   1.885   2.455   5.066  2.0548 -0.9605  0.2801
   35CHL1   C24 3758   1.860   2.505   4.859  0.2089 -0.4242  0.1044
   35CHL1  H24A 3759   1.812   2.602   4.884  2.5973  0.9046 -0.0726
   35CHL1  H24B 3760   1.969   2.529   4.857  0.3022 -0.5239  1.9860
   35CHL1   C25 3761   1.819   2.446   4.717 -0.3349 -0.4810  0.0202
   35CHL1   H25 3762   1.848   2.340   4.702 -1.0744 -0.3954 -2.7223
   35CHL1   C26 3763   1.670   2.455   4.697 -0.3535  0.1200 -0.0007
   35CHL1  H26A 3764   1.643   2.419   4.596  0.4845 -0.1442 -0.1418
   35CHL1  H26B 3765   1.631   2.380   4.769 -1.1981  0.2513 -0.3183
   35CHL1  H26C 3766   1.621   2.551   4.722 -1.7449 -0.9490  1.6182
   35CHL1   C27 3767   1.882   2.528   4.604  0.0952  0.2390  0.4636
   35CHL1  H27A 3768   1.866   2.636   4.624  0.1835  0.0706  1.4871
   35CHL1  H27B 3769   1.993   2.527   4.616  0.5448 -0.9685 -2.8184
   35CHL1  H27C 3770   1.858   2.498   4.500 -0.3211  0.4339  0.5042
   36CHL1    C3 3771   5.197   0.579   6.088 -0.1146 -0.1658 -0.7149
   36CHL1    H3 3772   5.302   0.594   6.054 -0.1133  1.1355 -0.1813
   36CHL1    O3 3773   5.199   0.518   6.213 -0.4750 -0.2025  0.4923
   36CHL1   H3' 3774   5.106   0.511   6.236 -0.1131 -0.9801  1.8291
   36CHL1    C4 3775   5.127   0.711   6.101 -0.7285 -0.3289 -0.5218
   36CHL1   H4A 3776   5.022   0.702   6.139 -0.1063 -4.3862  0.7246
   36CHL1   H4B 3777   5.178   0.772   6.178 -3.3637  0.1807  0.9766
   36CHL1    C5 3778   5.119   0.791   5.969 -0.6905  0.0129 -0.3519
   36CHL1    C6 3779   5.165   0.917   5.960 -0.1018  0.2738  0.4277
   36CHL1    H6 3780   5.206   0.973   6.044  0.3133  0.8802 -0.1748
   36CHL1    C7 3781   5.148   1.004   5.834 -0.2844 -0.4849 -0.9218
   36CHL1   H7A 3782   5.105   1.097   5.877 -3.7056 -3.4164  2.7897
   36CHL1   H7B 3783   5.251   1.024   5.798  0.2095 -2.3484 -0.6655
   36CHL1    C8 3784   5.063   0.937   5.731  0.3271  0.2118  0.7221
   36CHL1    H8 3785   4.954   0.950   5.743 -0.0001 -1.8652  0.3172
   36CHL1   C14 3786   5.100   1.002   5.594  0.3277  0.3739  0.0305
   36CHL1   H14 3787   5.206   0.978   5.573 -0.1853  0.0648 -2.6082
   36CHL1   C15 3788   5.096   1.158   5.584 -0.1545 -0.6682  0.3400
   36CHL1  H15A 3789   5.003   1.201   5.626  0.3066 -1.1291  1.9090
   36CHL1  H15B 3790   5.193   1.201   5.617 -0.2321  1.2139 -1.6751
   36CHL1   C16 3791   5.086   1.180   5.429  0.2587  0.3227 -0.2226
   36CHL1  H16A 3792   4.999   1.242   5.402 -1.4899 -2.6243 -1.9186
   36CHL1  H16B 3793   5.183   1.220   5.391  0.0969 -0.2751 -1.3145
   36CHL1   C17 3794   5.073   1.039   5.362 -0.2104  0.8889 -0.0531
   36CHL1   H17 3795   5.178   1.017   5.332 -0.4268 -0.2933 -0.0129
   36CHL1   C13 3796   5.027   0.947   5.470  0.3534  0.6834 -0.5129
   36CHL1   C18 3797   4.874   0.951   5.489  1.4879 -0.2220  0.0124
   36CHL1  H18A 3798   4.835   1.055   5.499 -1.4461 -1.4103  2.6724
   36CHL1  H18B 3799   4.825   0.898   5.405 -1.0764  0.4948  0.9604
   36CHL1  H18C 3800   4.832   0.906   5.582 -1.2924  0.2322 -0.9444
   36CHL1   C12 3801   5.065   0.795   5.464 -0.1722  0.2398 -0.2321
   36CHL1  H12A 3802   5.004   0.742   5.388 -2.5220  0.7723  1.1684
   36CHL1  H12B 3803   5.175   0.788   5.452 -0.1749 -1.5808  0.5547
   36CHL1   C11 3804   5.028   0.716   5.596  0.0549  0.6510  0.7130
   36CHL1  H11A 3805   4.918   0.721   5.610 -0.0201  0.2877  0.2811
   36CHL1  H11B 3806   5.064   0.611   5.586 -1.8243  0.1589 -1.9767
   36CHL1    C9 3807   5.090   0.785   5.719 -0.5396  0.1063  0.2197
   36CHL1    H9 3808   5.200   0.781   5.708 -0.6140  1.0015 -1.1396
   36CHL1   C10 3809   5.063   0.711   5.856 -0.1095  0.1119 -0.0678
   36CHL1   C19 3810   4.911   0.719   5.886  0.0062  0.6690 -0.2197
   36CHL1  H19A 3811   4.856   0.647   5.821  0.1571  0.7318 -0.4161
   36CHL1  H19B 3812   4.893   0.676   5.987  1.1012 -1.0821 -0.7301
   36CHL1  H19C 3813   4.864   0.818   5.866 -3.9801 -0.9305  0.2020
   36CHL1    C1 3814   5.125   0.563   5.851  0.1923 -0.5025 -0.1619
   36CHL1   H1A 3815   5.071   0.494   5.782  1.0500 -1.2572 -0.0862
   36CHL1   H1B 3816   5.229   0.569   5.815  0.2657 -1.3742 -0.1221
   36CHL1    C2 3817   5.127   0.489   5.987  0.2962 -0.1609 -0.0345
   36CHL1   H2A 3818   5.178   0.391   5.983  1.5784  0.5082 -0.4702
   36CHL1   H2B 3819   5.019   0.479   6.014  1.0354 -1.3727  2.8593
   36CHL1   C20 3820   4.999   1.060   5.231 -0.1352 -0.1315  1.1331
   36CHL1   H20 3821   4.899   1.107   5.241 -0.9391 -1.5902  0.3065
   36CHL1   C21 3822   4.983   0.926   5.159 -0.1013 -0.0725  0.2032
   36CHL1  H21A 3823   4.934   0.847   5.219 -1.4674  0.7103  0.1823
   36CHL1  H21B 3824   5.086   0.898   5.130  0.0323  0.6275 -0.0151
   36CHL1  H21C 3825   4.926   0.923   5.063  0.6929 -2.5253 -0.2564
   36CHL1   C22 3826   5.070   1.159   5.126  0.4401 -0.7186  0.4741
   36CHL1  H22A 3827   5.101   1.252   5.178  1.1375 -1.0979  0.7549
   36CHL1  H22B 3828   5.160   1.110   5.081  0.8415  0.3190  0.1123
   36CHL1   C23 3829   4.989   1.206   5.006  0.4968 -0.6086 -0.5323
   36CHL1  H23A 3830   4.956   1.116   4.950  0.7224 -3.0223  2.8598
   36CHL1  H23B 3831   4.896   1.246   5.052  0.1871  1.2372 -2.6346
   36CHL1   C24 3832   5.065   1.320   4.928 -1.5165 -0.1479 -0.1154
   36CHL1  H24A 3833   5.099   1.394   5.003  5.4315 -1.3955 -1.2650
   36CHL1  H24B 3834   5.153   1.276   4.875 -1.1621 -1.2028  1.3043
   36CHL1   C25 3835   4.974   1.393   4.825 -0.3270  0.2947 -0.4550
   36CHL1   H25 3836   4.877   1.400   4.880  0.2254 -0.7334  0.7058
   36CHL1   C26 3837   5.021   1.537   4.787 -0.5853 -0.2104  0.7303
   36CHL1  H26A 3838   5.122   1.527   4.743 -1.3414 -1.7223 -0.7738
   36CHL1  H26B 3839   4.963   1.571   4.698  1.0885 -0.3606 -0.4548
   36CHL1  H26C 3840   5.017   1.600   4.878  0.8854 -0.5799  1.0685
   36CHL1   C27 3841   4.948   1.304   4.702 -0.4062 -0.1023 -0.2990
   36CHL1  H27A 3842   4.917   1.204   4.739  0.7186 -0.8611 -1.3078
   36CHL1  H27B 3843   4.869   1.340   4.633  0.8025  2.0654 -0.6423
   36CHL1  H27C 3844   5.038   1.285   4.639 -0.0222 -1.3556  0.5771
   37CHL1    C3 3845   4.151   5.780   5.998 -0.3652  0.7321  0.0811
   37CHL1    H3 3846   4.252   5.737   5.980 -0.2324  1.2007 -0.3065
   37CHL1    O3 3847   4.144   5.842   6.124  0.5434  0.2000 -0.2170
   37CHL1   H3' 3848   4.157   5.771   6.187  0.5174 -1.5622 -2.0612
   37CHL1    C4 3849   4.118   5.891   5.893 -0.1867  0.1396 -0.1144
   37CHL1   H4A 3850   4.027   5.952   5.913  0.7869  1.5233  0.3283
   37CHL1   H4B 3851   4.205   5.960   5.906  0.7397 -0.2887 -3.3239
   37CHL1    C5 3852   4.123   5.824   5.758 -0.6238  0.3572 -0.2636
   37CHL1    C6 3853   4.206   5.860   5.660 -0.2364 -0.0624  0.0091
   37CHL1    H6 3854   4.271   5.947   5.680  0.6951 -0.3002 -1.8395
   37CHL1    C7 3855   4.200   5.810   5.512  0.7816  0.4971  0.5359
   37CHL1   H7A 3856   4.212   5.901   5.448  0.3009 -0.1465 -0.5116
   37CHL1   H7B 3857   4.278   5.736   5.487  0.6345  1.0725 -2.0019
   37CHL1    C8 3858   4.062   5.743   5.487  0.3300  0.0403 -0.2963
   37CHL1    H8 3859   3.984   5.821   5.490  0.9380  0.6699  2.7478
   37CHL1   C14 3860   4.059   5.672   5.355 -0.2360  0.2436  0.3547
   37CHL1   H14 3861   4.141   5.598   5.359 -0.1462  0.3872  1.3772
   37CHL1   C15 3862   4.101   5.757   5.230  0.4271  0.2831 -1.0088
   37CHL1  H15A 3863   4.050   5.855   5.239 -0.5778 -0.2476 -0.7557
   37CHL1  H15B 3864   4.209   5.778   5.213  1.4314 -0.5868  3.1555
   37CHL1   C16 3865   4.026   5.687   5.117 -0.2206 -0.5093  0.0776
   37CHL1  H16A 3866   3.954   5.766   5.086  1.2555  1.3844  1.2974
   37CHL1  H16B 3867   4.097   5.664   5.035  0.3328  0.8744  0.1555
   37CHL1   C17 3868   3.961   5.557   5.169  0.3793  0.3308  0.1780
   37CHL1   H17 3869   4.045   5.485   5.164  1.5925  1.7726 -0.9563
   37CHL1   C13 3870   3.929   5.597   5.322  0.7191 -0.1902 -0.3262
   37CHL1   C18 3871   3.805   5.695   5.322 -0.4808  0.0833  0.4530
   37CHL1  H18A 3872   3.710   5.640   5.305 -1.0138  1.2633 -0.4608
   37CHL1  H18B 3873   3.791   5.734   5.425 -1.9571  0.2758  0.1925
   37CHL1  H18C 3874   3.813   5.782   5.254 -0.5507  1.3489  2.0113
   37CHL1   C12 3875   3.918   5.488   5.424 -0.0028  0.6679 -0.3465
   37CHL1  H12A 3876   3.828   5.425   5.411 -1.1932  2.6558 -2.4810
   37CHL1  H12B 3877   4.016   5.436   5.412 -0.1487 -0.1073  1.5491
   37CHL1   C11 3878   3.913   5.538   5.567  0.4007 -0.1655 -0.3180
   37CHL1  H11A 3879   3.816   5.589   5.582  0.8051  0.4328  0.3217
   37CHL1  H11B 3880   3.917   5.457   5.643 -0.0778  0.8402  0.8074
   37CHL1    C9 3881   4.034   5.641   5.597 -0.0162  0.0648  0.1954
   37CHL1    H9 3882   4.123   5.574   5.601  1.3761  1.7384 -1.4842
   37CHL1   C10 3883   4.021   5.704   5.743 -0.9078 -1.1612  0.2093
   37CHL1   C19 3884   3.871   5.745   5.761  0.1321 -0.0264  0.5241
   37CHL1  H19A 3885   3.797   5.666   5.785  1.9450 -3.0229 -2.8167
   37CHL1  H19B 3886   3.858   5.828   5.834  1.8910  1.9413 -1.2559
   37CHL1  H19C 3887   3.847   5.793   5.664  0.3091  0.9878  0.9707
   37CHL1    C1 3888   4.061   5.609   5.855  1.1789  0.2635 -0.3110
   37CHL1   H1A 3889   3.987   5.528   5.837  1.2437  0.4147 -1.3138
   37CHL1   H1B 3890   4.167   5.579   5.844  1.5747  0.7155  1.7311
   37CHL1    C2 3891   4.064   5.666   5.996  0.3178 -0.4532 -0.4790
   37CHL1   H2A 3892   4.090   5.585   6.068  0.7821  0.8586  0.8976
   37CHL1   H2B 3893   3.959   5.690   6.022  1.2660  1.9270  1.5682
   37CHL1   C20 3894   3.852   5.491   5.078 -0.2289  0.2285 -0.3116
   37CHL1   H20 3895   3.755   5.540   5.102 -0.2516  0.2358 -0.4159
   37CHL1   C21 3896   3.851   5.339   5.109  0.5256 -0.8296 -0.8319
   37CHL1  H21A 3897   3.818   5.316   5.212  1.9778 -1.2297 -0.4288
   37CHL1  H21B 3898   3.949   5.289   5.094  1.1702 -2.2702  5.4266
   37CHL1  H21C 3899   3.774   5.284   5.052  2.8965 -2.8164 -2.3502
   37CHL1   C22 3900   3.879   5.521   4.921  0.2022  0.1148  0.1131
   37CHL1  H22A 3901   3.894   5.630   4.909  3.0138 -0.2319 -0.3680
   37CHL1  H22B 3902   3.980   5.479   4.900  0.6306  0.7770  0.8112
   37CHL1   C23 3903   3.763   5.468   4.843 -0.0120 -0.0049  1.1761
   37CHL1  H23A 3904   3.768   5.358   4.851  0.5453 -0.1796 -1.0153
   37CHL1  H23B 3905   3.662   5.500   4.877 -0.3464 -0.7423  0.8859
   37CHL1   C24 3906   3.776   5.514   4.696  0.0206  0.5392 -0.4712
   37CHL1  H24A 3907   3.787   5.624   4.703  1.5483  0.4295 -0.7072
   37CHL1  H24B 3908   3.878   5.485   4.660  0.2723  1.3498 -0.4170
   37CHL1   C25 3909   3.667   5.462   4.593 -1.0296 -0.8772 -0.1288
   37CHL1   H25 3910   3.571   5.510   4.621 -2.0607 -1.8670 -1.7925
   37CHL1   C26 3911   3.701   5.503   4.447 -0.9830 -0.2083 -0.1594
   37CHL1  H26A 3912   3.783   5.437   4.413 -1.6271 -0.2577 -1.7272
   37CHL1  H26B 3913   3.612   5.479   4.384 -0.9270  2.6404 -1.4743
   37CHL1  H26C 3914   3.725   5.611   4.440  4.4146 -0.9345  2.1068
   37CHL1   C27 3915   3.653   5.315   4.604  0.5045 -0.6164  0.0688
   37CHL1  H27A 3916   3.631   5.294   4.710 -0.2617  1.7025  0.4236
   37CHL1  H27B 3917   3.564   5.276   4.551  0.0906  0.5915 -0.1597
   37CHL1  H27C 3918   3.744   5.267   4.560  0.9130 -0.9675  1.2433
   38CHL1    C3 3919   0.009   6.488   6.103 -1.3132  0.1859 -0.2044
   38CHL1    H3 3920   0.036   6.381   6.118  0.7804  0.9764  2.4323
   38CHL1    O3 3921   0.007   6.557   6.229 -0.2547  1.1549  0.6240
   38CHL1   H3' 3922  -0.037   6.492   6.284 -0.0521  0.3644 -0.1274
   38CHL1    C4 3923   0.107   6.559   6.007  0.3488  0.0482  0.8300
   38CHL1   H4A 3924   0.080   6.667   5.999  0.4644 -0.0830 -2.0892
   38CHL1   H4B 3925   0.202   6.566   6.064  0.9759 -1.8458  0.0567
   38CHL1    C5 3926   0.112   6.498   5.862 -0.0778 -0.5045 -0.5358
   38CHL1    C6 3927   0.224   6.446   5.804 -0.3103 -0.7258  0.0084
   38CHL1    H6 3928   0.320   6.455   5.858 -0.6011 -0.8739  0.5598
   38CHL1    C7 3929   0.231   6.400   5.663  0.2108  0.6139 -0.8298
   38CHL1   H7A 3930   0.327   6.428   5.616  0.0932  0.9382 -0.8791
   38CHL1   H7B 3931   0.228   6.289   5.673 -1.4244  0.6300 -0.8915
   38CHL1    C8 3932   0.102   6.434   5.575 -0.2329  0.4485 -0.2747
   38CHL1    H8 3933   0.116   6.540   5.545  1.3288  1.3214  3.0511
   38CHL1   C14 3934   0.100   6.354   5.448  0.2545  0.1946  0.0032
   38CHL1   H14 3935   0.087   6.251   5.486 -0.1928  0.0609 -0.4990
   38CHL1   C15 3936   0.216   6.363   5.348  0.6501 -0.7403 -0.0923
   38CHL1  H15A 3937   0.253   6.467   5.338  2.3588 -1.3627 -0.7445
   38CHL1  H15B 3938   0.297   6.291   5.375  1.6492  0.2036 -0.4887
   38CHL1   C16 3939   0.153   6.308   5.222  0.1862  0.0890  0.1827
   38CHL1  H16A 3940   0.161   6.389   5.146  1.1144 -1.1922 -1.1446
   38CHL1  H16B 3941   0.207   6.229   5.166 -1.8886  0.2784 -2.2989
   38CHL1   C17 3942   0.005   6.273   5.246  0.0420 -0.4856 -0.7454
   38CHL1   H17 3943  -0.006   6.173   5.294  0.9830 -0.9438 -1.4458
   38CHL1   C13 3944  -0.030   6.368   5.369  0.3100  0.2533  0.4589
   38CHL1   C18 3945  -0.058   6.514   5.311 -0.3359 -0.0177 -0.0189
   38CHL1  H18A 3946  -0.065   6.587   5.394 -2.3715  0.8035 -0.8606
   38CHL1  H18B 3947   0.023   6.535   5.237  0.6889 -1.8127  0.5177
   38CHL1  H18C 3948  -0.148   6.519   5.246  0.9605 -0.5769 -1.9700
   38CHL1   C12 3949  -0.149   6.326   5.460 -0.2384 -0.6246  0.3729
   38CHL1  H12A 3950  -0.251   6.326   5.415 -0.5114 -0.1544  0.9818
   38CHL1  H12B 3951  -0.130   6.228   5.510  1.9102 -0.4910 -0.0789
   38CHL1   C11 3952  -0.155   6.414   5.584  0.2788  0.5904  0.0705
   38CHL1  H11A 3953  -0.189   6.516   5.554 -2.2088  0.1514  1.1394
   38CHL1  H11B 3954  -0.237   6.381   5.651 -0.8607 -0.3247 -1.6841
   38CHL1    C9 3955  -0.024   6.416   5.662  0.8456  0.1571  0.3056
   38CHL1    H9 3956  -0.010   6.310   5.692 -2.7487 -0.4769  0.2215
   38CHL1   C10 3957  -0.022   6.495   5.792 -0.0889  0.6270  0.0316
   38CHL1   C19 3958  -0.072   6.635   5.753 -0.4859 -0.3429 -0.6770
   38CHL1  H19A 3959  -0.008   6.670   5.669  1.2209 -0.2157  0.6261
   38CHL1  H19B 3960  -0.177   6.648   5.717 -0.4403  0.1697 -0.6343
   38CHL1  H19C 3961  -0.059   6.703   5.840  1.2117 -0.3689 -0.8750
   38CHL1    C1 3962  -0.120   6.432   5.897  0.3188  0.0531 -0.1952
   38CHL1   H1A 3963  -0.225   6.441   5.864  0.6299  2.1046 -0.7633
   38CHL1   H1B 3964  -0.093   6.324   5.903 -3.6128 -1.0390  0.6426
   38CHL1    C2 3965  -0.126   6.489   6.039 -0.4776 -0.6637 -0.6401
   38CHL1   H2A 3966  -0.189   6.425   6.104  2.0079 -2.7148 -0.1159
   38CHL1   H2B 3967  -0.173   6.590   6.040 -1.2342 -0.9983 -1.0169
   38CHL1   C20 3968  -0.077   6.288   5.114 -0.5191 -0.0848  0.3353
   38CHL1   H20 3969  -0.065   6.397   5.094 -0.2606 -0.3716 -1.1516
   38CHL1   C21 3970  -0.222   6.247   5.151  0.2599 -0.0950  0.4907
   38CHL1  H21A 3971  -0.277   6.212   5.062  2.8568 -3.0512 -0.1138
   38CHL1  H21B 3972  -0.274   6.331   5.201  0.2553  0.5306 -0.5328
   38CHL1  H21C 3973  -0.216   6.155   5.213 -3.0913 -2.6273 -2.5292
   38CHL1   C22 3974  -0.023   6.224   4.986 -0.0691 -0.0643 -0.4766
   38CHL1  H22A 3975   0.087   6.211   4.990  0.2746  2.2411 -0.5755
   38CHL1  H22B 3976  -0.070   6.124   4.985  1.2090 -0.6771 -0.8571
   38CHL1   C23 3977  -0.057   6.323   4.866  0.1612  0.4778 -0.1453
   38CHL1  H23A 3978  -0.149   6.375   4.898  1.5438  2.1441  1.3898
   38CHL1  H23B 3979   0.026   6.398   4.866 -1.1909  2.0777  1.6693
   38CHL1   C24 3980  -0.068   6.253   4.730  0.3996 -0.5468 -0.2929
   38CHL1  H24A 3981   0.025   6.197   4.703 -0.0341 -1.6422  0.4043
   38CHL1  H24B 3982  -0.127   6.159   4.741  1.0377 -0.7830  1.5362
   38CHL1   C25 3983  -0.111   6.337   4.606  0.5240  0.3998 -0.2384
   38CHL1   H25 3984  -0.045   6.427   4.606  0.8061  0.2908  2.5945
   38CHL1   C26 3985  -0.076   6.256   4.484 -0.4845 -0.1267  0.4624
   38CHL1  H26A 3986  -0.119   6.307   4.396 -0.5624 -1.3269 -0.2154
   38CHL1  H26B 3987   0.035   6.254   4.478 -0.4689  0.1195  0.6654
   38CHL1  H26C 3988  -0.121   6.155   4.493 -0.8532 -0.0016  0.0101
   38CHL1   C27 3989  -0.256   6.379   4.600  0.1609 -0.5562  0.0464
   38CHL1  H27A 3990  -0.281   6.437   4.508  1.9567  2.8983  1.5302
   38CHL1  H27B 3991  -0.325   6.292   4.606 -0.4836 -0.0579 -0.0119
   38CHL1  H27C 3992  -0.283   6.456   4.676 -0.0632  0.0364 -0.6158
   39CHL1    C3 3993   1.252   6.827   6.193  0.7862 -1.0180  0.5991
   39CHL1    H3 3994   1.277   6.723   6.162 -2.1930 -1.8889  0.7869
   39CHL1    O3 3995   1.213   6.835   6.326  0.3938 -0.4931  0.0017
   39CHL1   H3' 3996   1.152   6.910   6.323  0.6728 -0.2235  0.7368
   39CHL1    C4 3997   1.364   6.921   6.158 -0.1111 -0.6330  0.2741
   39CHL1   H4A 3998   1.355   7.031   6.177  1.1478 -0.4671 -0.0294
   39CHL1   H4B 3999   1.452   6.898   6.221  1.4300  1.2886 -1.0379
   39CHL1    C5 4000   1.393   6.909   6.012  0.3329  0.0858 -0.2736
   39CHL1    C6 4001   1.504   6.855   5.972 -0.4760  0.3121 -0.0438
   39CHL1    H6 4002   1.589   6.836   6.039 -1.1536 -0.1569  0.7049
   39CHL1    C7 4003   1.536   6.823   5.831 -0.2369 -0.4248 -0.0323
   39CHL1   H7A 4004   1.641   6.848   5.805  0.3644 -0.1985  2.3374
   39CHL1   H7B 4005   1.533   6.714   5.812  1.2085 -1.0937  2.8973
   39CHL1    C8 4006   1.439   6.902   5.730  0.2941  0.4594  0.3238
   39CHL1    H8 4007   1.470   7.009   5.725 -0.5698  0.8309  2.0590
   39CHL1   C14 4008   1.445   6.830   5.599  0.1359  0.5337  0.4178
   39CHL1   H14 4009   1.405   6.730   5.624  1.0257 -0.0262 -0.3113
   39CHL1   C15 4010   1.588   6.791   5.549  0.3477  0.7724  0.1644
   39CHL1  H15A 4011   1.663   6.874   5.549  1.6674 -0.3879 -0.3137
   39CHL1  H15B 4012   1.636   6.707   5.602 -1.3895  1.0062  2.2731
   39CHL1   C16 4013   1.564   6.746   5.397  0.4190 -0.6330 -0.3217
   39CHL1  H16A 4014   1.634   6.798   5.329  0.9924 -0.4103  0.4155
   39CHL1  H16B 4015   1.580   6.637   5.381  1.6008 -0.6823  0.9997
   39CHL1   C17 4016   1.413   6.780   5.368 -0.3993 -0.8078  0.0211
   39CHL1   H17 4017   1.356   6.687   5.386 -0.9515 -0.5098 -0.1627
   39CHL1   C13 4018   1.369   6.879   5.472  0.3452 -0.2362 -0.4856
   39CHL1   C18 4019   1.426   7.022   5.445  0.3948  0.7206  0.3357
   39CHL1  H18A 4020   1.385   7.068   5.353  0.2209 -1.3945 -0.7041
   39CHL1  H18B 4021   1.389   7.087   5.528  1.0144 -0.6617  1.7449
   39CHL1  H18C 4022   1.537   7.023   5.443  0.3920 -0.2597 -1.1499
   39CHL1   C12 4023   1.227   6.865   5.522  0.5135 -0.4169  0.5212
   39CHL1  H12A 4024   1.157   6.904   5.445  2.1792  1.0595 -0.3096
   39CHL1  H12B 4025   1.209   6.755   5.523 -1.3459 -0.2815 -2.7569
   39CHL1   C11 4026   1.202   6.938   5.661  0.4400  0.0678  0.4351
   39CHL1  H11A 4027   1.225   7.044   5.640 -0.2065  0.4933  1.7830
   39CHL1  H11B 4028   1.092   6.939   5.681  0.1303  0.9512 -1.1443
   39CHL1    C9 4029   1.295   6.887   5.773  0.3403  0.2319 -0.8577
   39CHL1    H9 4030   1.282   6.777   5.774  3.1386 -0.1654 -0.8132
   39CHL1   C10 4031   1.271   6.939   5.921  0.4649 -0.8727  0.3806
   39CHL1   C19 4032   1.249   7.090   5.916  0.4038  0.6789  0.1318
   39CHL1  H19A 4033   1.244   7.122   6.022 -0.5532  1.6390 -0.1767
   39CHL1  H19B 4034   1.342   7.125   5.866  0.8586 -0.2034  0.3525
   39CHL1  H19C 4035   1.162   7.125   5.855 -0.3574 -1.8514 -0.3466
   39CHL1    C1 4036   1.140   6.861   5.966 -0.6746 -0.2623  0.3104
   39CHL1   H1A 4037   1.052   6.907   5.917 -0.9861 -0.2498  0.8709
   39CHL1   H1B 4038   1.155   6.753   5.945  2.7116  0.3616 -1.0501
   39CHL1    C2 4039   1.128   6.876   6.118 -0.3173  0.1840 -0.2859
   39CHL1   H2A 4040   1.049   6.804   6.151  0.1598 -0.0019  0.4719
   39CHL1   H2B 4041   1.101   6.980   6.148 -0.3483  0.0705  0.0864
   39CHL1   C20 4042   1.391   6.820   5.217 -0.1776 -0.5949 -0.0270
   39CHL1   H20 4043   1.451   6.910   5.191  0.6445 -2.0996 -3.9417
   39CHL1   C21 4044   1.241   6.852   5.189 -0.8680  0.2330  0.5033
   39CHL1  H21A 4045   1.210   6.954   5.220 -0.6159  0.4053  0.1972
   39CHL1  H21B 4046   1.178   6.775   5.239  2.1668 -2.1809  0.9602
   39CHL1  H21C 4047   1.222   6.867   5.081 -1.0421  1.3191  0.6767
   39CHL1   C22 4048   1.441   6.698   5.130  0.5749  0.2473 -0.5203
   39CHL1  H22A 4049   1.547   6.667   5.139  0.8549  1.0743 -0.8611
   39CHL1  H22B 4050   1.385   6.609   5.165  1.0528  0.8724  2.0113
   39CHL1   C23 4051   1.430   6.716   4.974 -0.2770  0.4171  0.0917
   39CHL1  H23A 4052   1.331   6.753   4.940 -0.5639  0.4262  0.9097
   39CHL1  H23B 4053   1.508   6.792   4.952  1.2484 -0.9793  0.4190
   39CHL1   C24 4054   1.445   6.586   4.890  0.1115  0.3390 -0.1678
   39CHL1  H24A 4055   1.522   6.522   4.939 -0.1074  0.8891  0.9203
   39CHL1  H24B 4056   1.363   6.516   4.916  0.0634  0.6313  0.4937
   39CHL1   C25 4057   1.499   6.600   4.748  0.6198 -0.7882 -0.0189
   39CHL1   H25 4058   1.430   6.679   4.710  0.4178 -0.0279  1.8248
   39CHL1   C26 4059   1.649   6.640   4.738 -0.4721 -0.3874  0.5052
   39CHL1  H26A 4060   1.674   6.652   4.630 -1.9743  2.4313  0.3546
   39CHL1  H26B 4061   1.671   6.740   4.782  0.9667 -1.0033  1.2301
   39CHL1  H26C 4062   1.715   6.572   4.795 -2.0338 -1.1765  1.4188
   39CHL1   C27 4063   1.464   6.487   4.652 -0.1841 -0.5383  0.1059
   39CHL1  H27A 4064   1.475   6.527   4.549  2.3731  0.4917  0.7203
   39CHL1  H27B 4065   1.533   6.401   4.662  1.3215  0.4949 -1.0775
   39CHL1  H27C 4066   1.358   6.456   4.665 -0.0566 -0.8630  0.3893
   40CHL1    C3 4067   6.333   3.659   6.355 -0.6850  0.0046 -0.7755
   40CHL1    H3 4068   6.243   3.649   6.292 -1.3074 -0.1219  0.1107
   40CHL1    O3 4069   6.299   3.656   6.488 -1.0052  0.0438  0.0030
   40CHL1   H3' 4070   6.366   3.708   6.533 -1.8115  3.3572 -2.2923
   40CHL1    C4 4071   6.429   3.538   6.320 -0.0158  0.1061 -0.7906
   40CHL1   H4A 4072   6.521   3.558   6.380 -0.3183 -0.0212 -0.2791
   40CHL1   H4B 4073   6.388   3.441   6.355 -0.2828  0.4558 -0.1291
   40CHL1    C5 4074   6.461   3.550   6.171  0.0781 -0.5413  0.6647
   40CHL1    C6 4075   6.434   3.453   6.086 -0.4146 -0.2924  0.0103
   40CHL1    H6 4076   6.381   3.367   6.129  1.0633 -0.1936  2.1716
   40CHL1    C7 4077   6.488   3.441   5.945 -0.4760 -0.3420  0.1961
   40CHL1   H7A 4078   6.545   3.348   5.925 -0.0811 -0.1211  0.2837
   40CHL1   H7B 4079   6.406   3.442   5.871  0.8497  0.3827 -1.3100
   40CHL1    C8 4080   6.596   3.550   5.920 -0.2217  0.1082 -0.1293
   40CHL1    H8 4081   6.683   3.521   5.984 -1.5958 -1.1401  1.2628
   40CHL1   C14 4082   6.614   3.561   5.772  0.1749  0.4942  0.2068
   40CHL1   H14 4083   6.516   3.600   5.736  0.5687  2.8717  1.4808
   40CHL1   C15 4084   6.653   3.434   5.699  0.3355 -0.2719 -0.2892
   40CHL1  H15A 4085   6.726   3.378   5.762 -2.5507 -1.7106  2.0317
   40CHL1  H15B 4086   6.578   3.357   5.670  1.4367 -0.7770 -1.9638
   40CHL1   C16 4087   6.721   3.484   5.572 -0.7296 -0.2587  0.6766
   40CHL1  H16A 4088   6.829   3.457   5.578 -0.5886  0.0086 -0.5864
   40CHL1  H16B 4089   6.688   3.442   5.475  0.7145 -1.1537  0.5433
   40CHL1   C17 4090   6.716   3.641   5.571 -0.7070  1.5400 -0.1914
   40CHL1   H17 4091   6.613   3.660   5.533 -0.1483  3.3552 -0.8673
   40CHL1   C13 4092   6.715   3.671   5.722 -0.1273 -0.6741 -0.7271
   40CHL1   C18 4093   6.852   3.658   5.791 -0.2928 -0.6133  0.1049
   40CHL1  H18A 4094   6.838   3.671   5.901  2.1750  0.5901  0.3335
   40CHL1  H18B 4095   6.904   3.563   5.766 -0.3949 -0.9293  1.0280
   40CHL1  H18C 4096   6.911   3.746   5.761  1.6867 -1.7740  0.4451
   40CHL1   C12 4097   6.650   3.801   5.765 -0.3328 -0.8404 -0.4892
   40CHL1  H12A 4098   6.722   3.880   5.736  0.5517 -1.3682  0.2015
   40CHL1  H12B 4099   6.553   3.806   5.712 -0.0788 -2.2856 -1.1524
   40CHL1   C11 4100   6.625   3.807   5.917  0.0950  0.1018 -0.0698
   40CHL1  H11A 4101   6.717   3.807   5.979 -0.6408  0.2745  1.0586
   40CHL1  H11B 4102   6.575   3.902   5.945  1.2295 -0.1528  3.2671
   40CHL1    C9 4103   6.549   3.683   5.974 -0.1801 -0.4111  0.2835
   40CHL1    H9 4104   6.447   3.700   5.934  0.0079 -1.2049 -0.5873
   40CHL1   C10 4105   6.533   3.683   6.129 -0.0519 -0.2784 -0.4125
   40CHL1   C19 4106   6.675   3.669   6.199  0.2815 -0.1568 -0.3443
   40CHL1  H19A 4107   6.669   3.681   6.309 -1.1734 -0.1220 -0.4092
   40CHL1  H19B 4108   6.726   3.571   6.186 -0.1001 -0.2862 -0.9253
   40CHL1  H19C 4109   6.740   3.752   6.165  0.0227 -0.4485 -1.5976
   40CHL1    C1 4110   6.452   3.806   6.177 -0.2091 -0.0219  0.1804
   40CHL1   H1A 4111   6.506   3.903   6.179 -1.1493  0.5507  3.3095
   40CHL1   H1B 4112   6.370   3.809   6.102 -0.5196 -0.1178  0.5116
   40CHL1    C2 4113   6.407   3.794   6.321 -0.2069 -0.2499  0.1038
   40CHL1   H2A 4114   6.350   3.878   6.368  3.9118  1.3875  2.8122
   40CHL1   H2B 4115   6.501   3.796   6.380  0.9433  1.2452 -1.6756
   40CHL1   C20 4116   6.810   3.710   5.477 -0.0893 -0.6165 -0.0659
   40CHL1   H20 4117   6.908   3.717   5.530 -0.5906 -0.0886  0.8109
   40CHL1   C21 4118   6.753   3.853   5.450 -0.5165 -0.3117  0.7560
   40CHL1  H21A 4119   6.809   3.905   5.370 -1.9636  1.0841  0.5883
   40CHL1  H21B 4120   6.764   3.919   5.539  2.2213 -0.2191  0.4083
   40CHL1  H21C 4121   6.646   3.847   5.420 -0.1034 -0.0705 -0.8621
   40CHL1   C22 4122   6.837   3.637   5.334 -0.2134 -0.5503  0.0973
   40CHL1  H22A 4123   6.904   3.706   5.279 -1.9237  0.7043 -0.4840
   40CHL1  H22B 4124   6.898   3.547   5.356  1.3437  0.8625  1.8922
   40CHL1   C23 4125   6.723   3.604   5.232 -0.1563  0.0901  0.0230
   40CHL1  H23A 4126   6.643   3.552   5.288 -0.9048  0.6269 -0.5300
   40CHL1  H23B 4127   6.693   3.707   5.202  2.1925  0.6138 -0.7614
   40CHL1   C24 4128   6.777   3.523   5.113  0.2428  0.0545  0.3035
   40CHL1  H24A 4129   6.831   3.599   5.052 -0.3226 -1.0797 -1.6901
   40CHL1  H24B 4130   6.843   3.441   5.149 -0.9392 -1.3891 -0.6814
   40CHL1   C25 4131   6.664   3.460   5.029  0.1981 -0.1318  0.9857
   40CHL1   H25 4132   6.596   3.394   5.087 -1.5285 -0.9542 -1.7305
   40CHL1   C26 4133   6.586   3.577   4.964  0.1840  0.3877 -0.1249
   40CHL1  H26A 4134   6.654   3.659   4.932  1.0329 -0.1069  0.3912
   40CHL1  H26B 4135   6.512   3.535   4.894  0.2944 -1.6145  0.9035
   40CHL1  H26C 4136   6.522   3.620   5.045  0.0158  0.8589 -0.5016
   40CHL1   C27 4137   6.721   3.365   4.919 -0.7210  0.0034  0.1909
   40CHL1  H27A 4138   6.645   3.342   4.841 -0.6716  1.9962 -0.4954
   40CHL1  H27B 4139   6.815   3.413   4.883  0.0468 -1.1975  0.5326
   40CHL1  H27C 4140   6.753   3.268   4.963  0.5644 -0.5630 -1.8326
   41CHL1    C3 4141   4.922   2.412   6.055 -0.6312 -1.1470 -0.0371
   41CHL1    H3 4142   5.012   2.466   6.018 -1.2952 -0.5519 -0.8326
   41CHL1    O3 4143   4.935   2.365   6.189 -0.5633  0.0183 -0.6640
   41CHL1   H3' 4144   4.847   2.356   6.227  0.2323 -0.6416  1.1651
   41CHL1    C4 4145   4.802   2.504   6.038  0.0120 -0.1377  0.1973
   41CHL1   H4A 4146   4.705   2.459   6.070  0.0586  0.8240  1.7993
   41CHL1   H4B 4147   4.816   2.588   6.109 -0.1520  0.8994 -0.9540
   41CHL1    C5 4148   4.782   2.563   5.897  0.3473  0.0129 -0.4398
   41CHL1    C6 4149   4.780   2.695   5.871  0.2786  0.1540  0.2949
   41CHL1    H6 4150   4.786   2.761   5.959 -1.8356 -0.7369  1.1999
   41CHL1    C7 4151   4.761   2.756   5.730 -0.6787  0.9437  0.4960
   41CHL1   H7A 4152   4.681   2.831   5.721 -1.8936 -0.4731 -1.2568
   41CHL1   H7B 4153   4.859   2.796   5.694 -0.6692 -0.6136 -1.3950
   41CHL1    C8 4154   4.723   2.645   5.625  0.0129  0.4850 -0.3090
   41CHL1    H8 4155   4.617   2.616   5.642  0.8235 -1.6849  1.5254
   41CHL1   C14 4156   4.760   2.693   5.485  0.5100 -1.0131 -0.0882
   41CHL1   H14 4157   4.870   2.689   5.500  0.5902 -0.0222 -0.3676
   41CHL1   C15 4158   4.720   2.829   5.436  0.6272  0.6161  0.2518
   41CHL1  H15A 4159   4.611   2.847   5.449  0.3965 -0.2954 -0.3377
   41CHL1  H15B 4160   4.778   2.911   5.483  1.7085 -0.7119  1.3190
   41CHL1   C16 4161   4.724   2.820   5.281 -1.0748  0.5307 -0.4055
   41CHL1  H16A 4162   4.625   2.835   5.233 -1.5051 -1.0279 -0.0618
   41CHL1  H16B 4163   4.797   2.894   5.241 -0.5327  0.9150  1.2266
   41CHL1   C17 4164   4.778   2.676   5.252  0.6781 -0.4671 -0.4177
   41CHL1   H17 4165   4.888   2.688   5.262  0.8316  0.3330 -2.5166
   41CHL1   C13 4166   4.723   2.594   5.372 -0.5735  0.6345  0.0021
   41CHL1   C18 4167   4.571   2.571   5.369  0.2577 -0.1971 -0.1652
   41CHL1  H18A 4168   4.520   2.663   5.332  0.6422 -0.4084 -1.2692
   41CHL1  H18B 4169   4.549   2.496   5.290  1.6055  0.0644 -0.8186
   41CHL1  H18C 4170   4.519   2.532   5.459 -2.0770 -1.6316 -2.0079
   41CHL1   C12 4171   4.797   2.462   5.395 -0.4816 -0.4488 -0.3544
   41CHL1  H12A 4172   4.772   2.385   5.318 -2.1601  0.7443 -1.0726
   41CHL1  H12B 4173   4.905   2.486   5.387  0.1763 -1.1844  3.9527
   41CHL1   C11 4174   4.780   2.404   5.540  0.1432 -0.5347 -0.1253
   41CHL1  H11A 4175   4.674   2.371   5.544 -0.0673  0.0269 -0.7802
   41CHL1  H11B 4176   4.847   2.318   5.559 -1.6597 -1.6090  1.7855
   41CHL1    C9 4177   4.796   2.511   5.648 -0.6286 -0.6984  0.2296
   41CHL1    H9 4178   4.905   2.531   5.641 -0.5592 -1.6356 -2.4417
   41CHL1   C10 4179   4.779   2.449   5.791 -0.4900  0.0692 -0.7885
   41CHL1   C19 4180   4.641   2.382   5.798  0.3812 -0.4186 -0.2261
   41CHL1  H19A 4181   4.637   2.295   5.729  1.9419  0.2210 -1.1883
   41CHL1  H19B 4182   4.611   2.358   5.902  0.6027 -0.6314 -0.2087
   41CHL1  H19C 4183   4.565   2.452   5.758 -1.0353  0.3743  3.5094
   41CHL1    C1 4184   4.889   2.349   5.822  0.2780 -0.1081 -0.4873
   41CHL1   H1A 4185   4.871   2.263   5.754 -0.0295 -0.3270 -0.1374
   41CHL1   H1B 4186   4.990   2.388   5.798  0.7418  0.2226  1.7322
   41CHL1    C2 4187   4.901   2.297   5.962 -0.5332  0.7370  0.1517
   41CHL1   H2A 4188   4.988   2.228   5.960  0.7493  2.2996  0.1996
   41CHL1   H2B 4189   4.814   2.232   5.986  1.4615 -1.0328  3.3003
   41CHL1   C20 4190   4.759   2.623   5.104 -0.3249  0.2556 -0.1203
   41CHL1   H20 4191   4.689   2.538   5.097 -0.2894  0.3480 -2.5394
   41CHL1   C21 4192   4.894   2.563   5.059  0.0845 -0.5242  0.0870
   41CHL1  H21A 4193   4.874   2.488   4.978 -1.0241 -1.8074  1.4936
   41CHL1  H21B 4194   4.941   2.503   5.140 -1.1941 -2.1661 -0.3168
   41CHL1  H21C 4195   4.968   2.642   5.034 -0.6054  0.1614  0.2127
   41CHL1   C22 4196   4.704   2.718   4.995  0.2878  0.0400 -0.4345
   41CHL1  H22A 4197   4.601   2.750   5.022  0.1603 -2.7788  3.0866
   41CHL1  H22B 4198   4.768   2.809   4.988  0.1643  0.2388  0.7802
   41CHL1   C23 4199   4.695   2.650   4.853 -0.1086 -0.2639 -0.3140
   41CHL1  H23A 4200   4.678   2.732   4.780 -1.1273  0.5749  0.8198
   41CHL1  H23B 4201   4.798   2.615   4.829 -0.1011 -0.7516  0.3928
   41CHL1   C24 4202   4.585   2.539   4.839 -0.2504 -0.4502 -0.3965
   41CHL1  H24A 4203   4.608   2.450   4.902  0.8412  1.3047  1.8466
   41CHL1  H24B 4204   4.485   2.573   4.874  0.3305  0.0808  0.8030
   41CHL1   C25 4205   4.574   2.490   4.697  0.2785 -0.2007  0.3828
   41CHL1   H25 4206   4.680   2.475   4.665 -0.1787  2.1568 -2.8367
   41CHL1   C26 4207   4.500   2.359   4.685  0.5947  0.6468  0.5211
   41CHL1  H26A 4208   4.401   2.363   4.735  0.1941  0.6994 -0.2623
   41CHL1  H26B 4209   4.491   2.344   4.575 -1.2161 -0.0296  0.7247
   41CHL1  H26C 4210   4.558   2.273   4.725  0.9021 -0.3025 -1.7622
   41CHL1   C27 4211   4.522   2.595   4.594  0.3621  0.2753  1.0012
   41CHL1  H27A 4212   4.420   2.631   4.621  0.0396  0.7728 -0.7059
   41CHL1  H27B 4213   4.592   2.682   4.595  1.2737 -0.4133 -0.4308
   41CHL1  H27C 4214   4.524   2.553   4.491  1.8175  0.9322  0.7368
   42CHL1    C3 4215   3.247   0.805   6.135 -0.3031 -0.1115  0.0268
   42CHL1    H3 4216   3.323   0.871   6.088 -3.3708  3.0671 -0.8910
   42CHL1    O3 4217   3.212   0.831   6.274 -0.2031 -0.0496 -0.4073
   42CHL1   H3' 4218   3.132   0.883   6.276  0.1405  0.4785  1.8991
   42CHL1    C4 4219   3.111   0.801   6.047 -0.0572  0.1867 -0.8508
   42CHL1   H4A 4220   3.045   0.724   6.091 -2.1403  1.2997 -1.8515
   42CHL1   H4B 4221   3.060   0.899   6.060  0.8487  0.8561 -2.0977
   42CHL1    C5 4222   3.141   0.774   5.901 -0.0955 -0.5699  0.0918
   42CHL1    C6 4223   3.120   0.860   5.796  0.4642 -0.0503 -0.1674
   42CHL1    H6 4224   3.063   0.951   5.822 -0.2129 -0.5729  0.2352
   42CHL1    C7 4225   3.162   0.837   5.657 -0.1251 -0.1309  0.2064
   42CHL1   H7A 4226   3.074   0.874   5.599 -0.7771 -1.8703 -0.0022
   42CHL1   H7B 4227   3.249   0.898   5.628 -1.2804  0.0729 -3.3465
   42CHL1    C8 4228   3.193   0.689   5.633 -0.1765 -0.3195 -0.3243
   42CHL1    H8 4229   3.095   0.636   5.644 -0.1439 -0.2789  0.1641
   42CHL1   C14 4230   3.246   0.672   5.488  0.4798 -0.3612 -0.0184
   42CHL1   H14 4231   3.343   0.725   5.478 -0.2140  1.3794  1.7991
   42CHL1   C15 4232   3.150   0.714   5.370 -0.4266  0.6806 -0.0061
   42CHL1  H15A 4233   3.041   0.697   5.383 -0.2234 -2.1917 -1.3115
   42CHL1  H15B 4234   3.160   0.822   5.345  2.2429  0.6071  0.4771
   42CHL1   C16 4235   3.213   0.625   5.253  0.8004 -0.7385 -0.3278
   42CHL1  H16A 4236   3.127   0.577   5.203 -0.0346  1.7881 -1.4962
   42CHL1  H16B 4237   3.261   0.708   5.197  0.2576  1.0535  1.7406
   42CHL1   C17 4238   3.311   0.529   5.306 -0.5415 -0.0353 -0.3855
   42CHL1   H17 4239   3.409   0.580   5.312  0.0856 -1.2718  0.4577
   42CHL1   C13 4240   3.278   0.521   5.453 -0.0775  0.1937 -0.2628
   42CHL1   C18 4241   3.157   0.431   5.466  0.0822 -0.0925  0.3708
   42CHL1  H18A 4242   3.202   0.330   5.461  2.6441  1.0270 -0.6211
   42CHL1  H18B 4243   3.101   0.443   5.562  0.3981 -0.5326  0.6117
   42CHL1  H18C 4244   3.080   0.448   5.388 -0.6829 -4.4571 -0.0575
   42CHL1   C12 4245   3.384   0.474   5.548  0.3305 -0.4393  0.1320
   42CHL1  H12A 4246   3.417   0.369   5.531  2.4299 -0.0119  1.1421
   42CHL1  H12B 4247   3.473   0.529   5.511  0.8460 -1.8377 -0.7947
   42CHL1   C11 4248   3.362   0.499   5.702 -0.0969  0.3637  0.0985
   42CHL1  H11A 4249   3.299   0.416   5.742 -0.1800  0.3298 -0.1022
   42CHL1  H11B 4250   3.457   0.490   5.759 -0.3406  0.4403  0.5241
   42CHL1    C9 4251   3.293   0.634   5.739  0.6748 -0.2534  0.4218
   42CHL1    H9 4252   3.380   0.703   5.736  2.3876 -2.2408  1.8176
   42CHL1   C10 4253   3.227   0.646   5.884  0.3526  0.3710  0.4208
   42CHL1   C19 4254   3.119   0.534   5.890  0.3619  0.0360 -0.0814
   42CHL1  H19A 4255   3.170   0.435   5.884  0.3994  0.1117 -1.2214
   42CHL1  H19B 4256   3.056   0.537   5.981  2.3542 -2.8096  1.5534
   42CHL1  H19C 4257   3.061   0.535   5.795 -0.7297 -0.3985  0.5606
   42CHL1    C1 4258   3.338   0.617   5.990 -0.0982 -0.0910  0.3918
   42CHL1   H1A 4259   3.366   0.510   5.994  0.1981 -0.0146  0.3378
   42CHL1   H1B 4260   3.429   0.669   5.954 -0.3755  1.3105  1.6030
   42CHL1    C2 4261   3.305   0.667   6.130 -0.4134  0.1202 -0.3104
   42CHL1   H2A 4262   3.394   0.649   6.194 -0.0796 -0.5810 -0.9561
   42CHL1   H2B 4263   3.218   0.604   6.159 -2.2009  2.4738 -0.2971
   42CHL1   C20 4264   3.329   0.405   5.224 -0.4099  0.4822 -0.5010
   42CHL1   H20 4265   3.235   0.347   5.239 -0.3003  0.3230 -0.4304
   42CHL1   C21 4266   3.443   0.315   5.276  0.5254 -0.9892 -0.0751
   42CHL1  H21A 4267   3.476   0.240   5.201  1.0783  0.2599 -1.1285
   42CHL1  H21B 4268   3.417   0.251   5.363  2.3730 -2.4587 -0.5323
   42CHL1  H21C 4269   3.523   0.382   5.314 -0.0399 -0.2046 -0.2485
   42CHL1   C22 4270   3.345   0.427   5.075 -0.2032 -0.3376 -0.0341
   42CHL1  H22A 4271   3.344   0.323   5.037  1.3599 -1.3639  2.4625
   42CHL1  H22B 4272   3.250   0.465   5.033 -1.7208 -3.6514  0.0674
   42CHL1   C23 4273   3.473   0.505   5.030  0.2829 -1.1768  0.3160
   42CHL1  H23A 4274   3.455   0.613   5.050 -1.6235 -1.3932 -0.0744
   42CHL1  H23B 4275   3.559   0.470   5.092 -0.7764 -1.1248  1.8528
   42CHL1   C24 4276   3.518   0.472   4.879  0.4122 -0.1381 -0.1434
   42CHL1  H24A 4277   3.608   0.534   4.864 -0.1762  0.8299  0.2648
   42CHL1  H24B 4278   3.551   0.367   4.865  0.8329  0.1595 -1.5888
   42CHL1   C25 4279   3.401   0.501   4.774 -0.9791  0.7571  0.6911
   42CHL1   H25 4280   3.308   0.447   4.799 -0.9684 -2.1345 -4.1708
   42CHL1   C26 4281   3.377   0.651   4.768  0.6525 -0.5118 -0.2723
   42CHL1  H26A 4282   3.284   0.681   4.822 -1.2626 -0.4126 -3.3614
   42CHL1  H26B 4283   3.463   0.711   4.804 -0.1643  0.2688  0.4173
   42CHL1  H26C 4284   3.349   0.685   4.666  1.6862  2.1896  0.2532
   42CHL1   C27 4285   3.440   0.443   4.646  0.2925 -0.3521  0.7210
   42CHL1  H27A 4286   3.522   0.497   4.594 -0.8888  2.7564  1.8544
   42CHL1  H27B 4287   3.484   0.343   4.667 -0.2078 -0.8257 -0.3787
   42CHL1  H27C 4288   3.345   0.432   4.589  0.2201 -0.3578  0.8444
   43CHL1    C3 4289   5.590   5.403   6.006  0.0173 -0.4305 -0.3536
   43CHL1    H3 4290   5.553   5.507   5.999  0.4953 -0.1107  1.4490
   43CHL1    O3 4291   5.609   5.380   6.148 -0.1971  0.6416 -0.0175
   43CHL1   H3' 4292   5.704   5.365   6.150 -0.3211 -0.1187  0.4645
   43CHL1    C4 4293   5.502   5.302   5.934 -0.0908 -0.1740 -0.5769
   43CHL1   H4A 4294   5.538   5.197   5.941  2.2998  0.6484  0.6179
   43CHL1   H4B 4295   5.398   5.305   5.973 -0.3817 -0.0609 -1.3602
   43CHL1    C5 4296   5.486   5.338   5.787 -0.3672 -0.2284 -0.5478
   43CHL1    C6 4297   5.363   5.356   5.732 -0.3175  0.1762 -0.5844
   43CHL1    H6 4298   5.271   5.333   5.788 -1.9362  2.3025 -2.2075
   43CHL1    C7 4299   5.343   5.399   5.591  0.1089  0.2607 -0.3147
   43CHL1   H7A 4300   5.254   5.350   5.547 -0.0370  2.0268 -2.1210
   43CHL1   H7B 4301   5.324   5.507   5.575  2.5187  0.8877  0.5324
   43CHL1    C8 4302   5.473   5.383   5.503 -1.3373 -0.0441  0.2726
   43CHL1    H8 4303   5.497   5.276   5.485 -1.2226  0.0870 -0.3642
   43CHL1   C14 4304   5.452   5.454   5.375  0.3009  0.3385 -0.7841
   43CHL1   H14 4305   5.445   5.563   5.397 -0.6839  0.2939 -0.8319
   43CHL1   C15 4306   5.318   5.439   5.302  0.5126  0.1824  0.1448
   43CHL1  H15A 4307   5.302   5.330   5.294  0.1573  0.2023  0.5476
   43CHL1  H15B 4308   5.234   5.484   5.359  0.9419 -3.4038  4.0622
   43CHL1   C16 4309   5.348   5.506   5.171  1.2767 -0.0242 -0.1478
   43CHL1  H16A 4310   5.343   5.443   5.080 -2.5484 -2.0603  1.2650
   43CHL1  H16B 4311   5.271   5.584   5.150 -1.3479 -1.8449  2.0174
   43CHL1   C17 4312   5.496   5.560   5.178 -0.5490  0.6855  0.7532
   43CHL1   H17 4313   5.494   5.662   5.222  0.9356  2.1201 -2.2158
   43CHL1   C13 4314   5.563   5.466   5.278 -0.8150 -0.4734 -0.5487
   43CHL1   C18 4315   5.605   5.328   5.218 -0.5381 -0.0684 -0.4519
   43CHL1  H18A 4316   5.536   5.296   5.137  0.7143 -1.3362 -1.0493
   43CHL1  H18B 4317   5.704   5.341   5.169 -1.5465 -2.5476 -3.4468
   43CHL1  H18C 4318   5.596   5.245   5.292 -1.4247  0.0431 -0.4188
   43CHL1   C12 4319   5.679   5.533   5.354 -0.4095 -0.2320 -0.3795
   43CHL1  H12A 4320   5.775   5.540   5.298 -0.2838 -1.7587 -0.4025
   43CHL1  H12B 4321   5.650   5.636   5.386 -0.1674  0.5430 -2.4901
   43CHL1   C11 4322   5.718   5.445   5.474  0.2107 -0.1971  0.1124
   43CHL1  H11A 4323   5.760   5.344   5.452  0.2527 -0.2000  0.2063
   43CHL1  H11B 4324   5.800   5.497   5.527  1.3406  0.1438 -1.8763
   43CHL1    C9 4325   5.605   5.433   5.573  0.1740  0.1100 -0.6130
   43CHL1    H9 4326   5.576   5.538   5.595 -0.5304 -0.1638 -0.1835
   43CHL1   C10 4327   5.618   5.361   5.708 -0.5885  0.4112 -0.1355
   43CHL1   C19 4328   5.671   5.217   5.687  0.6786  0.0840 -0.2578
   43CHL1  H19A 4329   5.666   5.161   5.783  0.6573  1.3927  0.5175
   43CHL1  H19B 4330   5.605   5.169   5.612  0.9032  0.1913 -0.5260
   43CHL1  H19C 4331   5.776   5.210   5.649  1.0036 -0.8061  0.7449
   43CHL1    C1 4332   5.723   5.440   5.797  0.0118  0.2979  0.2757
   43CHL1   H1A 4333   5.825   5.426   5.755 -0.5357 -0.8909 -0.7173
   43CHL1   H1B 4334   5.699   5.548   5.780 -1.5298  0.1488  1.3467
   43CHL1    C2 4335   5.731   5.396   5.938  0.0734 -0.2563  0.5705
   43CHL1   H2A 4336   5.791   5.472   5.991 -1.1941  0.3720  1.1618
   43CHL1   H2B 4337   5.781   5.298   5.948 -0.0665 -0.3543  0.3330
   43CHL1   C20 4338   5.559   5.576   5.034 -0.3990  1.1053 -0.1832
   43CHL1   H20 4339   5.557   5.478   4.981  1.7138 -1.1439  3.5206
   43CHL1   C21 4340   5.713   5.603   5.030 -0.4759 -0.0666  0.3005
   43CHL1  H21A 4341   5.741   5.706   5.061 -0.5025 -0.0849  0.3880
   43CHL1  H21B 4342   5.748   5.602   4.925  2.0276  2.1005  1.0315
   43CHL1  H21C 4343   5.764   5.529   5.096  1.4698  0.6545 -0.3363
   43CHL1   C22 4344   5.483   5.678   4.947  0.2646 -0.1265  0.1264
   43CHL1  H22A 4345   5.375   5.651   4.947 -0.4007  2.3343  0.8326
   43CHL1  H22B 4346   5.479   5.777   4.997  0.0254  0.3817 -0.8927
   43CHL1   C23 4347   5.514   5.703   4.804  0.3433 -0.5911  0.2270
   43CHL1  H23A 4348   5.620   5.737   4.793 -0.6140  3.0812  0.9588
   43CHL1  H23B 4349   5.502   5.602   4.761  3.6476 -0.6028 -0.9925
   43CHL1   C24 4350   5.417   5.817   4.767  0.3092  0.0448 -0.2455
   43CHL1  H24A 4351   5.320   5.780   4.806  0.1201  0.3305 -0.4353
   43CHL1  H24B 4352   5.438   5.915   4.815 -1.6374 -0.4000  1.6760
   43CHL1   C25 4353   5.398   5.835   4.613  0.0056  0.0996 -0.3373
   43CHL1   H25 4354   5.499   5.821   4.568 -0.8208 -0.5332 -2.0546
   43CHL1   C26 4355   5.324   5.710   4.559  0.0821  0.0108  0.1212
   43CHL1  H26A 4356   5.384   5.620   4.581 -2.0275 -1.1757  1.2853
   43CHL1  H26B 4357   5.243   5.697   4.633 -0.1982 -0.6303 -0.2944
   43CHL1  H26C 4358   5.282   5.711   4.455 -1.4697  0.0419  0.7181
   43CHL1   C27 4359   5.334   5.972   4.581  0.0490  0.0223  0.1348
   43CHL1  H27A 4360   5.231   5.984   4.620  0.3064  1.2930  0.4816
   43CHL1  H27B 4361   5.391   6.056   4.626  0.4415 -1.1234  1.8566
   43CHL1  H27C 4362   5.346   5.988   4.472  0.6526 -2.1114 -0.1619
   44CHL1    C3 4363   5.213   6.809   6.018  0.1137 -0.0666 -0.3382
   44CHL1    H3 4364   5.323   6.803   6.001  0.2653  1.8132 -0.2109
   44CHL1    O3 4365   5.204   6.803   6.158  0.5218  0.4515 -0.2693
   44CHL1   H3' 4366   5.268   6.733   6.171  0.6121  0.1390 -2.1270
   44CHL1    C4 4367   5.149   6.941   5.961  0.5916 -0.4390  0.2281
   44CHL1   H4A 4368   5.038   6.944   5.967  0.3112 -0.0617 -3.1174
   44CHL1   H4B 4369   5.202   7.028   6.005  0.2343 -1.9047  3.9140
   44CHL1    C5 4370   5.175   6.946   5.814  0.1781 -0.0691 -0.8170
   44CHL1    C6 4371   5.233   7.055   5.764  0.4154  0.3239  0.0632
   44CHL1    H6 4372   5.260   7.144   5.823 -0.5271  1.0652 -0.5983
   44CHL1    C7 4373   5.255   7.064   5.614  0.0088 -0.2555  0.0232
   44CHL1   H7A 4374   5.240   7.169   5.580  0.3158 -0.2730 -0.1716
   44CHL1   H7B 4375   5.363   7.045   5.598  0.8322  3.8787 -0.4492
   44CHL1    C8 4376   5.186   6.966   5.521 -0.1972 -0.4803 -0.1790
   44CHL1    H8 4377   5.080   6.998   5.512 -0.6201 -1.9314 -0.5961
   44CHL1   C14 4378   5.249   6.959   5.388 -0.1102 -0.0071  0.4938
   44CHL1   H14 4379   5.354   6.929   5.408 -0.5228 -1.5463  0.4849
   44CHL1   C15 4380   5.266   7.089   5.306  0.8055 -0.8618  0.3862
   44CHL1  H15A 4381   5.171   7.145   5.325  0.3876 -1.5113  0.2227
   44CHL1  H15B 4382   5.344   7.158   5.344  0.4747 -0.4559  0.3395
   44CHL1   C16 4383   5.282   7.045   5.159  0.1901  0.2340 -0.1183
   44CHL1  H16A 4384   5.216   7.099   5.088 -0.4584 -0.7486 -0.2837
   44CHL1  H16B 4385   5.386   7.049   5.120  0.5020 -0.6448  0.5908
   44CHL1   C17 4386   5.250   6.893   5.154 -0.2499 -0.6058 -0.9033
   44CHL1   H17 4387   5.348   6.842   5.165 -0.5142 -0.6459  2.1514
   44CHL1   C13 4388   5.178   6.862   5.290  0.2152 -0.1300  0.6763
   44CHL1   C18 4389   5.027   6.905   5.259  0.4213  0.0205 -0.2564
   44CHL1  H18A 4390   5.022   6.993   5.192 -2.8265 -1.1354 -1.6882
   44CHL1  H18B 4391   4.982   6.818   5.208  0.7011 -0.4287  0.2527
   44CHL1  H18C 4392   4.969   6.925   5.352  1.7578 -1.2172  0.9041
   44CHL1   C12 4393   5.184   6.722   5.347 -1.0771 -0.2749  0.1502
   44CHL1  H12A 4394   5.141   6.653   5.270  1.3329 -2.5154  0.6558
   44CHL1  H12B 4395   5.288   6.685   5.350 -0.9737 -0.3826 -2.3441
   44CHL1   C11 4396   5.123   6.723   5.489  0.2212  1.1684 -0.1317
   44CHL1  H11A 4397   5.014   6.743   5.489 -0.7418 -2.3858  4.0519
   44CHL1  H11B 4398   5.130   6.617   5.521  1.2305  0.9756 -0.9496
   44CHL1    C9 4399   5.191   6.825   5.584  0.4478 -0.1389  0.2882
   44CHL1    H9 4400   5.300   6.802   5.593 -0.1019 -2.3429  2.5931
   44CHL1   C10 4401   5.130   6.815   5.728  0.0163  0.1476 -0.2699
   44CHL1   C19 4402   4.977   6.810   5.714  1.2793 -0.5131 -0.4199
   44CHL1  H19A 4403   4.935   6.720   5.665  1.4064 -0.0386 -1.4204
   44CHL1  H19B 4404   4.929   6.817   5.814  0.4493 -1.6509 -0.7229
   44CHL1  H19C 4405   4.931   6.891   5.654  0.3531 -1.1040 -0.5333
   44CHL1    C1 4406   5.173   6.682   5.802  0.2480 -0.4153  0.3295
   44CHL1   H1A 4407   5.116   6.605   5.747 -1.7117  2.9178 -2.7553
   44CHL1   H1B 4408   5.283   6.669   5.788 -0.2530 -3.1158 -1.8060
   44CHL1    C2 4409   5.144   6.681   5.953  0.2279 -0.5447 -0.2607
   44CHL1   H2A 4410   5.180   6.592   6.009 -1.8004 -1.5934 -0.5343
   44CHL1   H2B 4411   5.034   6.673   5.966  0.2538 -2.9211 -0.9950
   44CHL1   C20 4412   5.191   6.847   5.023 -0.6701  0.2610  0.1542
   44CHL1   H20 4413   5.104   6.911   4.996 -0.7242 -0.9835 -3.2465
   44CHL1   C21 4414   5.138   6.698   5.012  0.1953 -0.0623 -0.1807
   44CHL1  H21A 4415   5.083   6.671   4.920 -0.8198 -1.2750  0.7567
   44CHL1  H21B 4416   5.073   6.677   5.100  1.5310  0.9955  1.1217
   44CHL1  H21C 4417   5.226   6.630   5.012 -1.2785 -2.1605 -2.6104
   44CHL1   C22 4418   5.294   6.878   4.911  0.0203  0.4599  1.3597
   44CHL1  H22A 4419   5.336   6.980   4.924 -0.0130  0.5096  1.0773
   44CHL1  H22B 4420   5.367   6.794   4.911  1.5661  1.6025 -2.0828
   44CHL1   C23 4421   5.241   6.854   4.767  0.0864 -0.2413  0.7195
   44CHL1  H23A 4422   5.189   6.756   4.759  0.0864 -0.1640 -0.3377
   44CHL1  H23B 4423   5.166   6.934   4.750  0.3807 -0.0698  0.2261
   44CHL1   C24 4424   5.357   6.855   4.665  0.0812 -0.2336 -0.2043
   44CHL1  H24A 4425   5.414   6.949   4.680 -0.4012  0.0070  0.1359
   44CHL1  H24B 4426   5.431   6.781   4.706 -1.3301 -0.6238  1.7988
   44CHL1   C25 4427   5.322   6.828   4.523 -0.1019 -0.1735 -0.0586
   44CHL1   H25 4428   5.220   6.866   4.497 -0.4418 -1.7381 -1.1858
   44CHL1   C26 4429   5.415   6.889   4.423 -0.0387 -1.1394  0.0438
   44CHL1  H26A 4430   5.413   6.999   4.430  1.2293 -0.9350 -1.8967
   44CHL1  H26B 4431   5.512   6.862   4.471 -1.3363 -1.2203  2.8108
   44CHL1  H26C 4432   5.395   6.848   4.321  1.4959 -0.6629 -0.4880
   44CHL1   C27 4433   5.302   6.678   4.499 -0.0717 -0.2124  0.0394
   44CHL1  H27A 4434   5.227   6.626   4.562 -0.6872 -1.2326 -1.4734
   44CHL1  H27B 4435   5.280   6.652   4.393  1.1424 -0.8620 -0.0610
   44CHL1  H27C 4436   5.396   6.623   4.520 -1.0450 -1.9345  0.0967
   45CHL1    C3 4437   4.504   0.828   5.846 -0.5620 -0.7794  0.0210
   45CHL1    H3 4438   4.609   0.865   5.855 -0.5377 -0.9050  0.2555
   45CHL1    O3 4439   4.466   0.806   5.979  0.5287  0.0932 -0.7339
   45CHL1   H3' 4440   4.546   0.827   6.028  0.7928 -0.6547 -0.8288
   45CHL1    C4 4441   4.407   0.938   5.787 -0.3183  0.6880  0.4451
   45CHL1   H4A 4442   4.302   0.901   5.797 -0.2429 -0.4311 -2.2495
   45CHL1   H4B 4443   4.411   1.027   5.853 -0.7164  0.2245  1.1130
   45CHL1    C5 4444   4.421   0.965   5.636  0.2023 -0.2760  0.4139
   45CHL1    C6 4445   4.450   1.091   5.592  0.1351  0.3415  0.8347
   45CHL1    H6 4446   4.463   1.173   5.664  0.2342  0.2185  0.9572
   45CHL1    C7 4447   4.468   1.123   5.448 -0.5416  0.1779 -0.3149
   45CHL1   H7A 4448   4.413   1.215   5.418 -0.4876  0.3870  0.2141
   45CHL1   H7B 4449   4.577   1.136   5.431 -0.6741  0.1782 -1.1964
   45CHL1    C8 4450   4.437   1.010   5.346 -0.1486  0.1427  0.3016
   45CHL1    H8 4451   4.329   1.005   5.322 -0.3231  2.1799  0.4553
   45CHL1   C14 4452   4.508   1.044   5.221 -0.9388 -0.5647  0.4774
   45CHL1   H14 4453   4.612   1.056   5.256 -0.7456  2.4493 -0.8641
   45CHL1   C15 4454   4.488   1.181   5.143  0.5202  0.3411 -0.3098
   45CHL1  H15A 4455   4.382   1.210   5.125  0.0979  0.0015  1.4659
   45CHL1  H15B 4456   4.525   1.266   5.204  1.4711  1.3244 -2.1775
   45CHL1   C16 4457   4.566   1.157   5.010 -0.0282  0.2249  0.1770
   45CHL1  H16A 4458   4.503   1.181   4.921  0.8164 -3.1542 -1.4697
   45CHL1  H16B 4459   4.666   1.205   5.017 -0.4784  1.1461  0.5556
   45CHL1   C17 4460   4.595   1.009   4.999  0.1185  0.3359 -0.2900
   45CHL1   H17 4461   4.699   1.008   5.037  0.2765  3.3121 -0.4377
   45CHL1   C13 4462   4.512   0.934   5.110 -0.2169 -1.2440 -0.1244
   45CHL1   C18 4463   4.369   0.910   5.054  0.4451  0.2238 -0.2102
   45CHL1  H18A 4464   4.318   0.998   5.008  0.3143 -0.6742 -1.8629
   45CHL1  H18B 4465   4.380   0.831   4.977  0.9017  1.2282 -1.2094
   45CHL1  H18C 4466   4.297   0.874   5.130 -2.3131  2.3373 -1.6044
   45CHL1   C12 4467   4.581   0.811   5.176 -0.3227 -0.5781  0.6536
   45CHL1  H12A 4468   4.565   0.725   5.108 -1.9187 -0.5593  0.9897
   45CHL1  H12B 4469   4.688   0.830   5.200 -0.9368  0.9019  2.3975
   45CHL1   C11 4470   4.507   0.764   5.305  0.4067 -0.1427 -0.2096
   45CHL1  H11A 4471   4.401   0.752   5.272  1.0887 -0.3082 -2.5266
   45CHL1  H11B 4472   4.555   0.675   5.350  0.5890  0.0153 -0.0914
   45CHL1    C9 4473   4.500   0.883   5.405 -0.1674  0.2061  0.2808
   45CHL1    H9 4474   4.607   0.906   5.424 -0.1738  1.3852 -0.9454
   45CHL1   C10 4475   4.426   0.846   5.539  0.2876  0.4446  0.1222
   45CHL1   C19 4476   4.284   0.804   5.507 -0.3553  0.0348  0.1683
   45CHL1  H19A 4477   4.281   0.715   5.441 -3.0188  1.1885 -1.4613
   45CHL1  H19B 4478   4.234   0.789   5.605 -0.1493 -1.4096  0.0669
   45CHL1  H19C 4479   4.228   0.887   5.458  0.0769  0.0823 -0.2491
   45CHL1    C1 4480   4.505   0.728   5.604 -0.6804  0.7961 -0.0958
   45CHL1   H1A 4481   4.481   0.631   5.557  1.0800 -0.0617  0.6907
   45CHL1   H1B 4482   4.612   0.757   5.591 -0.4993 -0.0952 -0.6292
   45CHL1    C2 4483   4.484   0.702   5.756  0.6836  0.0431  0.3087
   45CHL1   H2A 4484   4.557   0.623   5.784  1.7546  1.2582  1.1206
   45CHL1   H2B 4485   4.380   0.667   5.769  1.1145 -1.5604 -0.3830
   45CHL1   C20 4486   4.598   0.954   4.857  0.0494  0.7746 -0.1585
   45CHL1   H20 4487   4.490   0.950   4.831 -0.4714  0.4940  1.9202
   45CHL1   C21 4488   4.652   0.816   4.848 -0.4322 -0.1594 -0.1202
   45CHL1  H21A 4489   4.594   0.752   4.919 -1.0793  0.3085 -0.2215
   45CHL1  H21B 4490   4.761   0.816   4.872 -0.3897 -0.4360 -0.3153
   45CHL1  H21C 4491   4.650   0.780   4.743  1.5138 -1.9464  0.3721
   45CHL1   C22 4492   4.662   1.047   4.750 -0.4291  0.1377 -0.3895
   45CHL1  H22A 4493   4.667   1.157   4.769  1.1165 -0.0836  0.6782
   45CHL1  H22B 4494   4.771   1.026   4.747 -0.4409  0.0118 -0.0000
   45CHL1   C23 4495   4.601   1.028   4.620 -0.1345  0.1815  0.7784
   45CHL1  H23A 4496   4.629   0.933   4.569  1.2981  2.1630 -2.4010
   45CHL1  H23B 4497   4.491   1.020   4.630  0.0222 -2.7540  1.0810
   45CHL1   C24 4498   4.636   1.134   4.515  0.0813 -0.1122  0.0345
   45CHL1  H24A 4499   4.746   1.150   4.514 -0.0191  0.6498  0.4255
   45CHL1  H24B 4500   4.590   1.102   4.419  0.4620 -2.1641  0.4933
   45CHL1   C25 4501   4.570   1.275   4.535 -0.0903  0.6596 -0.0568
   45CHL1   H25 4502   4.591   1.324   4.633 -1.5529  2.3692 -0.5615
   45CHL1   C26 4503   4.619   1.374   4.427  0.1418 -0.0094 -0.0478
   45CHL1  H26A 4504   4.575   1.351   4.328  0.4752  0.3628 -0.2886
   45CHL1  H26B 4505   4.578   1.477   4.435 -2.3602 -1.0240  1.2539
   45CHL1  H26C 4506   4.729   1.366   4.413  0.2788 -1.0701  1.4204
   45CHL1   C27 4507   4.416   1.275   4.528  0.1732  0.0763 -0.7937
   45CHL1  H27A 4508   4.376   1.204   4.603  0.0264 -0.0679 -1.0077
   45CHL1  H27B 4509   4.369   1.375   4.532 -1.1897 -0.5376 -1.1545
   45CHL1  H27C 4510   4.382   1.231   4.432 -2.9091  0.1076  0.1923
   46CHL1    C3 4511   1.143   4.033   6.120  0.3612 -0.0694 -0.3647
   46CHL1    H3 4512   1.157   4.142   6.100 -0.4222  0.1082  0.0004
   46CHL1    O3 4513   1.120   4.015   6.256  0.3535  0.3750  0.4078
   46CHL1   H3' 4514   1.028   4.038   6.268 -0.5431 -2.3822 -0.3691
   46CHL1    C4 4515   1.023   3.968   6.047  0.4180  0.1969  0.1020
   46CHL1   H4A 4516   1.006   3.866   6.086  1.0223 -0.1924 -0.6272
   46CHL1   H4B 4517   0.927   4.015   6.074 -0.4543 -1.5500  0.1508
   46CHL1    C5 4518   1.063   3.972   5.904 -0.0509 -0.3463 -0.4885
   46CHL1    C6 4519   0.976   4.024   5.814  0.4397 -0.3970  0.0385
   46CHL1    H6 4520   0.884   4.068   5.853  1.4761  2.1115 -0.1771
   46CHL1    C7 4521   0.991   4.029   5.665 -0.1022  0.4107 -0.7105
   46CHL1   H7A 4522   0.893   4.026   5.613  0.0646  0.5234 -1.0320
   46CHL1   H7B 4523   1.030   4.129   5.638  1.2248  0.3958  0.9219
   46CHL1    C8 4524   1.089   3.908   5.624 -0.4061  0.5966  0.0792
   46CHL1    H8 4525   1.042   3.811   5.648 -0.3907  1.0737  2.2717
   46CHL1   C14 4526   1.121   3.925   5.480  0.3850  0.7244  0.4098
   46CHL1   H14 4527   1.151   4.030   5.460  0.4012  0.6757  0.1666
   46CHL1   C15 4528   1.005   3.896   5.384  0.5719 -0.6427 -0.1160
   46CHL1  H15A 4529   0.946   3.802   5.384 -0.2435 -0.1433  0.2815
   46CHL1  H15B 4530   0.922   3.971   5.384  0.1913 -0.9786  2.2052
   46CHL1   C16 4531   1.074   3.897   5.245 -0.6695  0.3184 -0.4006
   46CHL1  H16A 4532   1.042   3.812   5.180  0.7614 -0.1149 -0.5814
   46CHL1  H16B 4533   1.063   3.993   5.189  3.5714  0.4417 -1.4466
   46CHL1   C17 4534   1.233   3.882   5.276  0.6378  0.5704 -0.1020
   46CHL1   H17 4535   1.272   3.986   5.271  0.4678  0.5898 -2.1118
   46CHL1   C13 4536   1.237   3.842   5.424 -0.0049  0.4179 -0.2916
   46CHL1   C18 4537   1.202   3.691   5.437 -0.7805 -0.0385 -0.6944
   46CHL1  H18A 4538   1.286   3.623   5.412 -1.2295 -0.9009  0.0765
   46CHL1  H18B 4539   1.153   3.660   5.532  0.0726  2.1895  0.5710
   46CHL1  H18C 4540   1.118   3.672   5.367 -0.5272  0.7478 -1.2241
   46CHL1   C12 4541   1.366   3.868   5.507  0.0448  0.1495  0.5019
   46CHL1  H12A 4542   1.451   3.802   5.480 -1.4191 -1.5364 -0.2129
   46CHL1  H12B 4543   1.394   3.974   5.488  0.3096  0.1850  1.0672
   46CHL1   C11 4544   1.345   3.850   5.653 -0.2154 -0.0813 -0.0674
   46CHL1  H11A 4545   1.364   3.741   5.668  2.0350  0.0772 -1.3821
   46CHL1  H11B 4546   1.426   3.900   5.708 -0.1547  0.3339 -0.5301
   46CHL1    C9 4547   1.217   3.923   5.707 -0.1759 -0.2940  0.4253
   46CHL1    H9 4548   1.252   4.028   5.698  1.6570 -0.7125  1.9754
   46CHL1   C10 4549   1.186   3.893   5.857  0.1094 -0.4931  0.1381
   46CHL1   C19 4550   1.184   3.736   5.870  0.0940 -0.5546 -0.1225
   46CHL1  H19A 4551   1.273   3.685   5.827  0.2846 -2.4018  2.2344
   46CHL1  H19B 4552   1.176   3.705   5.976  0.9616 -0.0721  0.0899
   46CHL1  H19C 4553   1.103   3.685   5.812 -1.2959  0.0745  1.1973
   46CHL1    C1 4554   1.309   3.963   5.938 -0.2795 -0.1485 -0.4911
   46CHL1   H1A 4555   1.394   3.892   5.927 -2.2126 -2.5597 -0.7238
   46CHL1   H1B 4556   1.326   4.071   5.918 -1.9589  0.3940  0.7813
   46CHL1    C2 4557   1.281   3.966   6.087 -0.3705  0.2087 -0.0372
   46CHL1   H2A 4558   1.363   4.021   6.137  0.1051  1.6140 -2.1830
   46CHL1   H2B 4559   1.278   3.866   6.134  0.6032  1.0794  2.0224
   46CHL1   C20 4560   1.311   3.813   5.173 -0.6599 -0.2541  0.0283
   46CHL1   H20 4561   1.283   3.706   5.179 -3.5532  0.2552 -2.1717
   46CHL1   C21 4562   1.461   3.840   5.202  0.5924 -0.6537 -0.3493
   46CHL1  H21A 4563   1.518   3.817   5.110  2.2106 -0.5345  0.5854
   46CHL1  H21B 4564   1.487   3.764   5.279 -1.6081 -0.2855  0.8575
   46CHL1  H21C 4565   1.487   3.945   5.224 -0.9216 -0.3448  0.0879
   46CHL1   C22 4566   1.268   3.856   5.027 -0.7613 -0.9585  0.9598
   46CHL1  H22A 4567   1.167   3.814   5.007 -0.6088 -0.6898 -0.4765
   46CHL1  H22B 4568   1.265   3.967   5.016 -0.1532 -1.0860 -1.1035
   46CHL1   C23 4569   1.350   3.789   4.905  0.3502 -0.3241  0.2854
   46CHL1  H23A 4570   1.450   3.837   4.902 -0.0908  0.5598 -1.3828
   46CHL1  H23B 4571   1.357   3.680   4.922 -0.5328 -0.6155 -1.0659
   46CHL1   C24 4572   1.280   3.801   4.775 -0.2351  0.7054 -0.0295
   46CHL1  H24A 4573   1.241   3.905   4.767  1.2580  1.3771  0.9263
   46CHL1  H24B 4574   1.354   3.783   4.695 -0.0584  1.5112 -0.0617
   46CHL1   C25 4575   1.156   3.711   4.744  1.0404 -0.0780 -0.0892
   46CHL1   H25 4576   1.075   3.742   4.812  0.7519  2.4667 -1.4727
   46CHL1   C26 4577   1.116   3.732   4.598 -0.1151  0.9169  0.5586
   46CHL1  H26A 4578   1.051   3.649   4.565  1.8756 -0.5608  0.1086
   46CHL1  H26B 4579   1.071   3.832   4.578  0.6985  1.5014  1.5183
   46CHL1  H26C 4580   1.204   3.714   4.532 -0.5703 -2.1848  0.6815
   46CHL1   C27 4581   1.177   3.559   4.768  0.6736 -0.5408  0.4514
   46CHL1  H27A 4582   1.207   3.527   4.870 -2.0801 -2.0981  0.8706
   46CHL1  H27B 4583   1.090   3.491   4.757  0.8334 -0.5745 -0.7025
   46CHL1  H27C 4584   1.253   3.520   4.696  0.4356  1.0678 -0.7121
   47CHL1    C3 4585   6.464   3.022   6.341  0.8123  0.0219 -0.1385
   47CHL1    H3 4586   6.461   3.131   6.323 -2.2196 -0.0611 -0.6555
   47CHL1    O3 4587   6.424   2.983   6.472  0.0866 -0.5356  0.4162
   47CHL1   H3' 4588   6.342   3.028   6.493  1.2005  1.7347  0.1182
   47CHL1    C4 4589   6.356   2.967   6.253  0.1009  0.7350  0.1819
   47CHL1   H4A 4590   6.338   2.859   6.268  1.2751  0.2246 -1.6900
   47CHL1   H4B 4591   6.262   3.018   6.283  0.0853  0.1988  1.0644
   47CHL1    C5 4592   6.377   2.999   6.112  0.1827 -0.0758  1.0045
   47CHL1    C6 4593   6.275   3.068   6.044 -0.4716 -0.3639 -0.0071
   47CHL1    H6 4594   6.181   3.093   6.097 -0.7983 -1.9487  0.1965
   47CHL1    C7 4595   6.283   3.091   5.897 -0.2311 -0.6674  0.3726
   47CHL1   H7A 4596   6.184   3.071   5.851 -0.7330  1.8716  0.2001
   47CHL1   H7B 4597   6.311   3.198   5.888 -1.3843 -0.3865 -0.0104
   47CHL1    C8 4598   6.402   3.008   5.827 -0.4475 -0.8699 -0.0156
   47CHL1    H8 4599   6.375   2.901   5.817 -2.2692 -0.9352  3.7813
   47CHL1   C14 4600   6.436   3.070   5.692  0.4090 -1.1826  0.5751
   47CHL1   H14 4601   6.456   3.178   5.712 -2.3235 -0.3607 -0.5408
   47CHL1   C15 4602   6.321   3.100   5.584 -0.7468  0.0246 -0.1484
   47CHL1  H15A 4603   6.257   3.009   5.585 -0.2443 -0.3480 -0.9224
   47CHL1  H15B 4604   6.256   3.186   5.612  0.8721  1.2542 -0.0062
   47CHL1   C16 4605   6.394   3.118   5.455  0.1705 -0.2791 -0.1986
   47CHL1  H16A 4606   6.361   3.036   5.388  1.2835 -0.3005 -0.7449
   47CHL1  H16B 4607   6.382   3.216   5.405  5.0316 -0.1060 -1.5298
   47CHL1   C17 4608   6.545   3.088   5.481  0.5929  0.4053 -0.2173
   47CHL1   H17 4609   6.579   3.192   5.500 -2.4968  1.7395 -1.4535
   47CHL1   C13 4610   6.555   3.009   5.613  0.1712 -0.1628  0.0721
   47CHL1   C18 4611   6.518   2.864   5.583 -0.0390 -1.1786 -0.7948
   47CHL1  H18A 4612   6.438   2.850   5.507 -0.5406 -4.1545  0.1280
   47CHL1  H18B 4613   6.611   2.811   5.551  0.3458 -0.3044 -1.1438
   47CHL1  H18C 4614   6.476   2.800   5.663 -2.8735  0.2330 -1.0386
   47CHL1   C12 4615   6.680   3.022   5.701 -0.2019  0.0626  0.1734
   47CHL1  H12A 4616   6.774   2.987   5.654  0.2002  0.4348  0.6908
   47CHL1  H12B 4617   6.697   3.131   5.716 -0.8074 -0.1387  2.7719
   47CHL1   C11 4618   6.657   2.966   5.847 -0.6184 -0.1921 -0.1426
   47CHL1  H11A 4619   6.655   2.857   5.828  1.4542 -0.3539  0.3648
   47CHL1  H11B 4620   6.749   2.991   5.903  0.0513  1.5620 -1.8965
   47CHL1    C9 4621   6.523   3.015   5.915  0.4169 -0.1885  0.8610
   47CHL1    H9 4622   6.536   3.124   5.926 -2.3466  0.5017 -1.5431
   47CHL1   C10 4623   6.511   2.954   6.056  0.1919 -0.2739 -0.8419
   47CHL1   C19 4624   6.519   2.801   6.044 -0.3150  0.2467 -0.1513
   47CHL1  H19A 4625   6.625   2.770   6.030 -0.0254  1.3062 -0.4331
   47CHL1  H19B 4626   6.483   2.755   6.139  1.5320 -2.0996 -0.4893
   47CHL1  H19C 4627   6.453   2.763   5.964  0.0108  1.7783 -1.1922
   47CHL1    C1 4628   6.627   3.008   6.153  0.2118 -0.5326  0.6848
   47CHL1   H1A 4629   6.727   2.971   6.121  0.4087 -0.1264  0.8101
   47CHL1   H1B 4630   6.624   3.119   6.138 -2.7060 -0.8291 -1.9395
   47CHL1    C2 4631   6.602   2.970   6.301 -0.0982 -0.3839 -0.4507
   47CHL1   H2A 4632   6.690   3.005   6.358  1.7440  0.0231 -3.3518
   47CHL1   H2B 4633   6.596   2.859   6.307  2.4236 -0.7334 -2.6851
   47CHL1   C20 4634   6.637   3.032   5.366  0.7521  0.2695  0.4513
   47CHL1   H20 4635   6.674   2.930   5.387 -1.0346  0.0016  2.7314
   47CHL1   C21 4636   6.755   3.126   5.364  0.3927 -0.2530  0.1182
   47CHL1  H21A 4637   6.808   3.119   5.461 -0.3388 -0.9890  0.4770
   47CHL1  H21B 4638   6.720   3.231   5.358 -1.5887 -0.6718  2.6152
   47CHL1  H21C 4639   6.817   3.112   5.273 -0.4735  2.5970 -0.9993
   47CHL1   C22 4640   6.569   3.020   5.226  1.0406  0.0441 -0.6991
   47CHL1  H22A 4641   6.487   2.946   5.228 -0.9662  2.1560  0.4918
   47CHL1  H22B 4642   6.520   3.116   5.199 -0.4865 -0.7789 -0.9508
   47CHL1   C23 4643   6.665   2.978   5.121 -0.5241  0.5140  0.3909
   47CHL1  H23A 4644   6.730   3.061   5.088  0.4021  0.2223  1.4308
   47CHL1  H23B 4645   6.730   2.906   5.174 -0.6786  0.0872  0.0068
   47CHL1   C24 4646   6.594   2.925   5.005 -0.1038 -0.6615  0.3552
   47CHL1  H24A 4647   6.534   2.834   5.028 -0.1707 -1.0372 -1.1858
   47CHL1  H24B 4648   6.516   2.999   4.976  0.8426  0.4656  0.5909
   47CHL1   C25 4649   6.681   2.883   4.893  0.3206 -0.5218 -0.8352
   47CHL1   H25 4650   6.775   2.840   4.933  0.4308 -0.2086 -0.7523
   47CHL1   C26 4651   6.627   2.776   4.797  0.2287 -0.0861  0.0790
   47CHL1  H26A 4652   6.540   2.814   4.740 -1.3931 -2.6272  0.6843
   47CHL1  H26B 4653   6.709   2.741   4.731  1.8505  1.1196  1.3591
   47CHL1  H26C 4654   6.596   2.694   4.865 -0.1129  0.9879  1.2663
   47CHL1   C27 4655   6.736   3.002   4.808 -0.3858  0.0465 -0.3246
   47CHL1  H27A 4656   6.788   3.065   4.883 -1.6677 -1.1935  1.7211
   47CHL1  H27B 4657   6.802   2.978   4.722  1.1539  0.4141  0.7203
   47CHL1  H27C 4658   6.657   3.064   4.762 -0.0841  1.6059  1.1476
   48CHL1    C3 4659   5.965   3.496   6.115  0.1716 -0.5571 -0.0301
   48CHL1    H3 4660   6.014   3.398   6.099 -1.3706 -1.2898 -0.5460
   48CHL1    O3 4661   5.985   3.540   6.252  0.0938  0.2711 -0.3556
   48CHL1   H3' 4662   6.013   3.631   6.251 -1.5327  0.8380  1.4600
   48CHL1    C4 4663   6.023   3.596   6.022 -0.7960 -0.4025 -0.8254
   48CHL1   H4A 4664   5.977   3.695   6.044  0.3028  0.1120 -0.8041
   48CHL1   H4B 4665   6.131   3.612   6.040 -0.9906  1.5409 -1.1137
   48CHL1    C5 4666   5.989   3.556   5.878  0.0012  0.5703  0.3179
   48CHL1    C6 4667   6.089   3.548   5.790  0.1439 -0.6715 -0.3231
   48CHL1    H6 4668   6.191   3.565   5.829 -0.0966 -0.3049  0.1565
   48CHL1    C7 4669   6.080   3.528   5.645  0.2702  0.1907  0.1527
   48CHL1   H7A 4670   6.144   3.603   5.594 -0.1126  0.8190  0.5924
   48CHL1   H7B 4671   6.128   3.430   5.625 -2.3809 -1.7350  2.4355
   48CHL1    C8 4672   5.931   3.537   5.595 -0.0500 -0.8033 -0.6103
   48CHL1    H8 4673   5.910   3.645   5.584 -3.0828 -1.2312 -0.1157
   48CHL1   C14 4674   5.905   3.472   5.457 -0.7661  0.2137  0.0834
   48CHL1   H14 4675   5.920   3.364   5.480  2.1979  0.8725  1.7026
   48CHL1   C15 4676   5.999   3.517   5.347  0.6682  0.1197  0.2022
   48CHL1  H15A 4677   6.026   3.625   5.337  0.6980  0.0292 -0.7436
   48CHL1  H15B 4678   6.094   3.463   5.364  0.2549  0.0602  2.6855
   48CHL1   C16 4679   5.934   3.469   5.218 -0.1943 -0.4087 -0.3207
   48CHL1  H16A 4680   5.926   3.557   5.150  1.8288  0.6776  0.7574
   48CHL1  H16B 4681   5.982   3.378   5.175  1.1264  0.0490  0.1433
   48CHL1   C17 4682   5.792   3.422   5.257 -0.2077 -0.5104 -0.1570
   48CHL1   H17 4683   5.795   3.314   5.284  2.5144 -0.1609  1.3368
   48CHL1   C13 4684   5.763   3.482   5.398 -0.4683 -0.7507 -0.4322
   48CHL1   C18 4685   5.724   3.636   5.385  0.1258  0.4196 -0.6270
   48CHL1  H18A 4686   5.615   3.645   5.367  0.0663 -1.4373 -1.4734
   48CHL1  H18B 4687   5.741   3.701   5.473  1.1199 -0.5419 -0.0796
   48CHL1  H18C 4688   5.786   3.692   5.311 -0.7046  4.3048  1.3690
   48CHL1   C12 4689   5.664   3.408   5.494  0.5038 -1.1099 -0.4250
   48CHL1  H12A 4690   5.565   3.436   5.453  0.0744 -0.5383  0.9462
   48CHL1  H12B 4691   5.677   3.297   5.499  1.4118 -0.9651  2.5173
   48CHL1   C11 4692   5.680   3.480   5.638  0.3213  1.1464 -0.2716
   48CHL1  H11A 4693   5.637   3.580   5.620  1.0033  1.0815 -2.5111
   48CHL1  H11B 4694   5.617   3.416   5.703  0.7645  1.6312  0.6569
   48CHL1    C9 4695   5.832   3.485   5.694 -0.2278  0.4644  0.9106
   48CHL1    H9 4696   5.851   3.376   5.703 -0.3465  0.1989 -1.3300
   48CHL1   C10 4697   5.846   3.549   5.839 -0.1484  0.5524 -0.0134
   48CHL1   C19 4698   5.793   3.692   5.833  0.5101  0.2795 -0.1458
   48CHL1  H19A 4699   5.685   3.692   5.808  0.2468 -0.1583  0.9363
   48CHL1  H19B 4700   5.800   3.741   5.933 -1.4472  1.1712 -0.4029
   48CHL1  H19C 4701   5.840   3.753   5.753  0.2196  1.5595  0.6429
   48CHL1    C1 4702   5.777   3.453   5.941  0.4532  0.2819 -0.5734
   48CHL1   H1A 4703   5.669   3.452   5.915  0.8137 -0.2357 -2.1609
   48CHL1   H1B 4704   5.808   3.348   5.919 -1.2119 -0.1759 -0.9064
   48CHL1    C2 4705   5.809   3.472   6.094 -0.3983  0.4167  0.4962
   48CHL1   H2A 4706   5.781   3.388   6.161  1.5134 -0.7575 -0.0890
   48CHL1   H2B 4707   5.753   3.558   6.135 -0.5384  0.2029  0.7510
   48CHL1   C20 4708   5.687   3.432   5.141  0.1998  0.3471  0.6519
   48CHL1   H20 4709   5.644   3.533   5.128  0.0998  0.1914 -0.3056
   48CHL1   C21 4710   5.565   3.345   5.186  0.0692 -0.7441  0.0663
   48CHL1  H21A 4711   5.498   3.317   5.103 -1.5482  0.0243  1.0539
   48CHL1  H21B 4712   5.595   3.247   5.229 -0.3875 -1.1820 -0.5996
   48CHL1  H21C 4713   5.504   3.398   5.263 -1.5535  0.6014 -2.0291
   48CHL1   C22 4714   5.735   3.377   5.003  0.4177  0.2484 -0.9352
   48CHL1  H22A 4715   5.827   3.430   4.970  0.3058  0.3548 -1.0799
   48CHL1  H22B 4716   5.764   3.272   5.026  0.4270  0.4648  0.0886
   48CHL1   C23 4717   5.639   3.393   4.883  0.0608 -0.1787 -0.2822
   48CHL1  H23A 4718   5.558   3.320   4.908  0.3078 -0.0798  0.8818
   48CHL1  H23B 4719   5.595   3.495   4.881 -2.5307 -1.1667  1.0224
   48CHL1   C24 4720   5.704   3.342   4.748 -0.5618  0.0033 -0.3648
   48CHL1  H24A 4721   5.769   3.421   4.705  0.5181 -1.4280 -1.4711
   48CHL1  H24B 4722   5.772   3.254   4.762 -1.2733 -0.5839 -0.5494
   48CHL1   C25 4723   5.605   3.300   4.643 -0.9804  0.7085  0.3206
   48CHL1   H25 4724   5.525   3.377   4.636 -1.5734  0.0029 -1.2591
   48CHL1   C26 4725   5.691   3.280   4.514 -0.0459 -0.2964  0.0456
   48CHL1  H26A 4726   5.723   3.174   4.515 -1.8526 -0.8931  1.3759
   48CHL1  H26B 4727   5.628   3.290   4.423 -2.3647 -4.0195  1.0055
   48CHL1  H26C 4728   5.776   3.351   4.507 -0.2825  0.2962  2.2898
   48CHL1   C27 4729   5.517   3.176   4.672 -0.0110 -0.1456 -0.3862
   48CHL1  H27A 4730   5.462   3.142   4.582  0.5157 -2.0680 -0.0319
   48CHL1  H27B 4731   5.581   3.101   4.724 -1.4873 -1.5268 -0.4870
   48CHL1  H27C 4732   5.437   3.200   4.745  1.6599  0.5719  1.3144
   49CHL1    C3 4733   1.273   5.727   2.951  0.8463 -0.3094 -1.2824
   49CHL1    H3 4734   1.204   5.813   2.968  1.2893  0.0206 -1.1265
   49CHL1    O3 4735   1.295   5.711   2.814 -0.7015  0.2096  0.0014
   49CHL1   H3' 4736   1.361   5.780   2.802 -0.3496  0.1524  1.4610
   49CHL1    C4 4737   1.411   5.761   3.022  1.0336 -0.4541  0.6673
   49CHL1   H4A 4738   1.472   5.670   3.003  1.5924  0.1251 -0.4255
   49CHL1   H4B 4739   1.453   5.856   2.984 -2.2427  1.0705  0.5249
   49CHL1    C5 4740   1.382   5.768   3.167  0.9106  0.0440  0.5705
   49CHL1    C6 4741   1.407   5.876   3.241 -0.3723 -0.0929 -0.6306
   49CHL1    H6 4742   1.446   5.970   3.198  0.5856 -0.7052 -1.1294
   49CHL1    C7 4743   1.395   5.880   3.395  0.4693  0.0592  1.1293
   49CHL1   H7A 4744   1.483   5.931   3.440  3.1056 -1.9134 -1.4178
   49CHL1   H7B 4745   1.308   5.947   3.415 -0.1479 -0.2521 -0.3276
   49CHL1    C8 4746   1.361   5.745   3.454  0.3477  0.4072 -0.1609
   49CHL1    H8 4747   1.448   5.679   3.477 -0.1272 -0.1556  0.0303
   49CHL1   C14 4748   1.316   5.753   3.596 -0.1654  0.0293  1.0046
   49CHL1   H14 4749   1.220   5.809   3.591 -2.0248 -2.9810 -0.2622
   49CHL1   C15 4750   1.407   5.834   3.685  0.0548  0.7420 -0.2744
   49CHL1  H15A 4751   1.504   5.781   3.672 -1.8577 -2.7097 -1.6970
   49CHL1  H15B 4752   1.405   5.944   3.668 -1.4243  0.5930 -1.1642
   49CHL1   C16 4753   1.350   5.806   3.826  0.7890  0.6685 -0.0260
   49CHL1  H16A 4754   1.425   5.779   3.904 -2.4029 -0.3880  2.9104
   49CHL1  H16B 4755   1.292   5.894   3.861 -0.1284  0.3495 -0.7038
   49CHL1   C17 4756   1.251   5.680   3.805  0.1438  0.8004  0.1725
   49CHL1   H17 4757   1.150   5.725   3.795  1.0740  2.7809 -1.0875
   49CHL1   C13 4758   1.278   5.621   3.664 -0.3135 -0.2533 -0.4605
   49CHL1   C18 4759   1.399   5.521   3.678  0.0983 -1.0240 -0.4556
   49CHL1  H18A 4760   1.392   5.426   3.735  0.0215 -0.8247 -0.1261
   49CHL1  H18B 4761   1.440   5.499   3.577  1.0276  0.6616 -0.4774
   49CHL1  H18C 4762   1.484   5.572   3.729 -1.2964 -0.9757  1.9960
   49CHL1   C12 4763   1.170   5.562   3.576  0.1376  0.5038 -0.0778
   49CHL1  H12A 4764   1.127   5.476   3.632  3.2216  1.0868  3.6200
   49CHL1  H12B 4765   1.089   5.637   3.571  0.7695  1.4336  2.1665
   49CHL1   C11 4766   1.212   5.530   3.437  0.8365  0.5701 -0.2147
   49CHL1  H11A 4767   1.282   5.444   3.434  1.9710  1.4746 -2.0694
   49CHL1  H11B 4768   1.121   5.496   3.383  0.5663  1.3283 -0.2591
   49CHL1    C9 4769   1.266   5.659   3.367  0.2758 -0.1158 -0.7490
   49CHL1    H9 4770   1.174   5.719   3.351 -0.9641 -1.6785  0.2469
   49CHL1   C10 4771   1.315   5.640   3.223  0.0665 -0.9901  0.4055
   49CHL1   C19 4772   1.410   5.521   3.226  0.0633  0.1637  0.2256
   49CHL1  H19A 4773   1.466   5.536   3.321 -0.4621 -0.2514  0.6077
   49CHL1  H19B 4774   1.352   5.428   3.244 -0.3360  0.3076 -0.2876
   49CHL1  H19C 4775   1.465   5.509   3.130  0.7522 -0.8136  0.7219
   49CHL1    C1 4776   1.186   5.605   3.139 -0.1564 -0.2931  0.9097
   49CHL1   H1A 4777   1.160   5.500   3.167  0.6959 -0.7516  0.0725
   49CHL1   H1B 4778   1.105   5.673   3.171  0.7691  0.7964  0.9899
   49CHL1    C2 4779   1.212   5.601   2.991 -0.2613  0.1226 -0.2841
   49CHL1   H2A 4780   1.117   5.574   2.940  0.0844 -0.3977 -0.6708
   49CHL1   H2B 4781   1.278   5.513   2.973 -0.8327 -0.1729 -0.9569
   49CHL1   C20 4782   1.257   5.584   3.922  0.2481 -0.6433  0.1106
   49CHL1   H20 4783   1.358   5.539   3.925  0.0985 -0.9504  2.6385
   49CHL1   C21 4784   1.152   5.474   3.903  0.5600 -0.4269 -0.3083
   49CHL1  H21A 4785   1.126   5.402   3.983 -2.3858 -1.0769 -1.6859
   49CHL1  H21B 4786   1.187   5.412   3.817  1.7712 -0.1321 -0.0393
   49CHL1  H21C 4787   1.053   5.519   3.877  0.0403 -0.3590  1.6098
   49CHL1   C22 4788   1.232   5.657   4.062  0.2213  0.2264  0.2012
   49CHL1  H22A 4789   1.320   5.725   4.068 -0.8376  1.7247 -0.7450
   49CHL1  H22B 4790   1.140   5.719   4.065 -0.4868 -0.7952  0.2254
   49CHL1   C23 4791   1.239   5.548   4.174 -0.4577 -0.1630 -0.8371
   49CHL1  H23A 4792   1.147   5.486   4.171 -2.0840  2.1502 -1.7265
   49CHL1  H23B 4793   1.322   5.480   4.144 -0.1273 -0.5202  0.8209
   49CHL1   C24 4794   1.249   5.607   4.319  0.1829 -0.3829  0.1220
   49CHL1  H24A 4795   1.323   5.690   4.317  0.1258 -0.3063  0.8753
   49CHL1  H24B 4796   1.157   5.658   4.357  0.9521  1.5306 -0.4810
   49CHL1   C25 4797   1.284   5.510   4.430  0.2600  1.1405 -0.2637
   49CHL1   H25 4798   1.379   5.455   4.412  0.4396  1.5034 -0.4370
   49CHL1   C26 4799   1.291   5.579   4.566  0.1746 -0.2448 -0.2778
   49CHL1  H26A 4800   1.199   5.639   4.582  0.9842  0.6772  1.1390
   49CHL1  H26B 4801   1.300   5.508   4.650 -3.8219  1.0468  1.4750
   49CHL1  H26C 4802   1.374   5.653   4.573  2.5573 -2.8727  1.7913
   49CHL1   C27 4803   1.177   5.396   4.439  0.2301 -0.0118 -0.4670
   49CHL1  H27A 4804   1.078   5.432   4.473 -0.8436 -0.6949 -2.6791
   49CHL1  H27B 4805   1.174   5.363   4.333 -0.6837  0.7745 -0.7042
   49CHL1  H27C 4806   1.205   5.306   4.499 -1.6340 -0.6131 -0.4425
   50CHL1    C3 4807   1.296   2.562   2.689  0.7712  0.4775  0.6427
   50CHL1    H3 4808   1.402   2.588   2.709  0.7810  0.0239  1.1858
   50CHL1    O3 4809   1.282   2.571   2.549 -0.4514  0.0909  0.3956
   50CHL1   H3' 4810   1.194   2.546   2.520 -0.3631  0.1773  0.0432
   50CHL1    C4 4811   1.265   2.421   2.754  0.8793 -0.2816  0.1230
   50CHL1   H4A 4812   1.165   2.389   2.717  2.6282 -1.6077 -4.0942
   50CHL1   H4B 4813   1.335   2.352   2.703  0.6479 -1.3737  1.2533
   50CHL1    C5 4814   1.287   2.419   2.901  0.4606  0.4527 -0.4622
   50CHL1    C6 4815   1.368   2.327   2.951 -0.5713 -0.5392 -0.8616
   50CHL1    H6 4816   1.414   2.249   2.889 -0.4896 -2.2202  1.1765
   50CHL1    C7 4817   1.394   2.315   3.099 -0.5656  0.4548  0.4969
   50CHL1   H7A 4818   1.385   2.211   3.138 -0.5449  0.9522  1.8971
   50CHL1   H7B 4819   1.501   2.342   3.115  0.3236 -2.1436 -0.5091
   50CHL1    C8 4820   1.304   2.408   3.185 -0.3853  1.0504  0.4557
   50CHL1    H8 4821   1.214   2.348   3.211  0.2693 -1.9023 -3.3113
   50CHL1   C14 4822   1.380   2.432   3.314 -0.4700  0.1017  0.3412
   50CHL1   H14 4823   1.469   2.490   3.284 -0.0853 -1.7340 -2.3750
   50CHL1   C15 4824   1.445   2.309   3.385  0.4960  0.0654  0.0261
   50CHL1  H15A 4825   1.363   2.236   3.400 -0.9126  1.7913  0.9819
   50CHL1  H15B 4826   1.526   2.265   3.323 -1.3831 -2.4837 -0.8036
   50CHL1   C16 4827   1.494   2.374   3.514  0.3935 -0.4447 -0.1595
   50CHL1  H16A 4828   1.481   2.303   3.599  1.6041  1.4291  1.6739
   50CHL1  H16B 4829   1.602   2.397   3.504  0.4990  0.7779  2.6633
   50CHL1   C17 4830   1.417   2.508   3.534 -0.4735  0.3897  0.4893
   50CHL1   H17 4831   1.471   2.601   3.505 -2.6826  1.3734 -0.7220
   50CHL1   C13 4832   1.313   2.511   3.417 -0.2464 -0.3693  0.3222
   50CHL1   C18 4833   1.177   2.445   3.461 -0.2700  0.0894 -0.9563
   50CHL1  H18A 4834   1.116   2.526   3.506  1.8886  0.9286  0.6358
   50CHL1  H18B 4835   1.115   2.406   3.377 -0.6772 -1.5158  0.0467
   50CHL1  H18C 4836   1.199   2.365   3.535  0.1565  1.1783  0.1281
   50CHL1   C12 4837   1.277   2.651   3.355  0.1342  0.4492  0.0752
   50CHL1  H12A 4838   1.211   2.714   3.419 -1.5012  0.0682 -1.1674
   50CHL1  H12B 4839   1.373   2.705   3.337 -0.3250  1.6002  0.9485
   50CHL1   C11 4840   1.201   2.637   3.221 -0.7370 -0.2844  0.3671
   50CHL1  H11A 4841   1.096   2.605   3.238 -0.5665 -0.2160  1.6011
   50CHL1  H11B 4842   1.206   2.739   3.176  1.0700 -0.9559 -1.1199
   50CHL1    C9 4843   1.274   2.540   3.114 -0.1195  0.3664  0.4934
   50CHL1    H9 4844   1.368   2.596   3.095 -1.8123  2.8513 -1.2200
   50CHL1   C10 4845   1.207   2.522   2.978 -0.2934 -0.6158 -0.3653
   50CHL1   C19 4846   1.062   2.478   2.993  0.4272 -0.2628 -0.8956
   50CHL1  H19A 4847   1.041   2.389   3.055 -0.7435 -0.8695 -2.1014
   50CHL1  H19B 4848   1.008   2.563   3.039 -0.1111 -1.1295  0.0969
   50CHL1  H19C 4849   1.018   2.463   2.892  0.9582  0.8987 -1.3190
   50CHL1    C1 4850   1.219   2.663   2.909  0.6185  0.3687  0.1089
   50CHL1   H1A 4851   1.131   2.719   2.949 -1.1535 -0.3366 -2.5160
   50CHL1   H1B 4852   1.306   2.722   2.944  1.0859 -1.1908  1.7138
   50CHL1    C2 4853   1.197   2.669   2.751  0.5985  1.0362 -0.3077
   50CHL1   H2A 4854   1.226   2.766   2.706  3.3498  0.9588  1.0951
   50CHL1   H2B 4855   1.092   2.637   2.734  0.7943 -1.1109  1.8833
   50CHL1   C20 4856   1.375   2.526   3.677 -0.5933 -0.5186  0.6874
   50CHL1   H20 4857   1.299   2.451   3.708 -0.7251 -0.5179  0.3592
   50CHL1   C21 4858   1.306   2.661   3.702 -0.3204  0.8704  0.4709
   50CHL1  H21A 4859   1.282   2.670   3.810  1.0643 -0.5895  0.9513
   50CHL1  H21B 4860   1.208   2.650   3.651  1.6299 -2.0083 -3.1394
   50CHL1  H21C 4861   1.366   2.748   3.668 -0.1260  0.5581  0.0167
   50CHL1   C22 4862   1.502   2.532   3.765  1.0253  0.4780 -0.9012
   50CHL1  H22A 4863   1.570   2.450   3.737  1.3505 -0.5187  2.3677
   50CHL1  H22B 4864   1.549   2.633   3.758  2.2339  0.3234  2.7153
   50CHL1   C23 4865   1.461   2.494   3.908  0.3380  0.4013  0.2542
   50CHL1  H23A 4866   1.383   2.554   3.961 -0.1211 -1.0991  1.3529
   50CHL1  H23B 4867   1.410   2.396   3.898  0.3356  0.4966 -0.7560
   50CHL1   C24 4868   1.582   2.488   4.017 -0.0509 -0.4746  0.2762
   50CHL1  H24A 4869   1.646   2.399   3.996 -1.4628 -1.3216 -0.6043
   50CHL1  H24B 4870   1.641   2.582   4.012  0.5313 -0.8551 -0.2736
   50CHL1   C25 4871   1.533   2.455   4.158  0.6553  0.2123 -0.3979
   50CHL1   H25 4872   1.479   2.542   4.201 -1.5851 -0.3779 -1.8474
   50CHL1   C26 4873   1.426   2.341   4.166  0.9012  0.7991  0.3538
   50CHL1  H26A 4874   1.405   2.305   4.269 -1.8281 -1.2528 -0.7983
   50CHL1  H26B 4875   1.326   2.364   4.122  0.8048 -0.2068  0.0296
   50CHL1  H26C 4876   1.452   2.243   4.121  0.1278  0.9538 -0.4567
   50CHL1   C27 4877   1.641   2.419   4.256 -0.2619 -0.1939 -0.3959
   50CHL1  H27A 4878   1.724   2.493   4.264 -0.7685  0.5713 -1.7803
   50CHL1  H27B 4879   1.590   2.403   4.353 -1.3536  4.5265  0.0824
   50CHL1  H27C 4880   1.694   2.328   4.220  1.0301 -1.2246  3.5679
   51CHL1    C3 4881   2.485   4.091   2.882 -0.8680  0.5726 -0.6689
   51CHL1    H3 4882   2.401   4.160   2.856 -0.4919  0.6845 -1.6156
   51CHL1    O3 4883   2.491   4.003   2.771  0.3881  0.3218 -0.0899
   51CHL1   H3' 4884   2.465   4.054   2.694 -1.2152 -1.3490 -0.7390
   51CHL1    C4 4885   2.614   4.174   2.902 -0.0082  0.1554  0.5675
   51CHL1   H4A 4886   2.701   4.105   2.898 -0.8384 -0.8573 -0.6955
   51CHL1   H4B 4887   2.626   4.246   2.818 -0.5982  1.8311  1.8543
   51CHL1    C5 4888   2.606   4.264   3.024  0.0070 -0.2473  0.5603
   51CHL1    C6 4889   2.627   4.398   3.030 -0.2608 -0.8388 -0.1052
   51CHL1    H6 4890   2.661   4.453   2.941 -0.7616 -0.9053 -0.3437
   51CHL1    C7 4891   2.654   4.477   3.162 -0.3959  0.4762  0.9854
   51CHL1   H7A 4892   2.752   4.528   3.148  0.5452 -1.2534  0.9750
   51CHL1   H7B 4893   2.563   4.541   3.168 -2.7892 -2.7414  1.8241
   51CHL1    C8 4894   2.647   4.391   3.283 -0.3087 -0.0430 -0.9008
   51CHL1    H8 4895   2.747   4.346   3.299  0.4428  2.2438  1.3472
   51CHL1   C14 4896   2.624   4.476   3.409  0.6682 -0.5302  0.3504
   51CHL1   H14 4897   2.522   4.519   3.401 -0.2301 -2.5638  0.0783
   51CHL1   C15 4898   2.710   4.605   3.427 -0.4310 -0.4010 -0.0101
   51CHL1  H15A 4899   2.814   4.591   3.390 -1.1812 -1.4919 -1.8739
   51CHL1  H15B 4900   2.663   4.697   3.386 -1.6496 -1.2821 -0.6971
   51CHL1   C16 4901   2.711   4.615   3.581  0.1821  0.3718  0.5241
   51CHL1  H16A 4902   2.812   4.592   3.620  0.2540 -1.0378 -0.4374
   51CHL1  H16B 4903   2.695   4.717   3.622  1.0464  0.0491  1.7059
   51CHL1   C17 4904   2.612   4.513   3.636  0.8080 -0.0483 -0.0479
   51CHL1   H17 4905   2.514   4.562   3.618 -0.5481 -2.6744 -0.2225
   51CHL1   C13 4906   2.621   4.399   3.537  1.1287  0.6307 -0.2920
   51CHL1   C18 4907   2.757   4.327   3.557 -0.3499  0.1646  0.3121
   51CHL1  H18A 4908   2.750   4.285   3.659 -0.6398  2.4803  1.3242
   51CHL1  H18B 4909   2.776   4.249   3.481  0.0324 -0.5216  1.1030
   51CHL1  H18C 4910   2.842   4.398   3.548 -1.0841  1.2949  1.7935
   51CHL1   C12 4911   2.508   4.300   3.537  0.7691 -0.0924 -0.1088
   51CHL1  H12A 4912   2.495   4.237   3.628 -1.4455 -0.2455 -0.4735
   51CHL1  H12B 4913   2.420   4.368   3.540  1.2897  0.5709  0.2831
   51CHL1   C11 4914   2.517   4.208   3.411  0.1149  0.5832 -0.1105
   51CHL1  H11A 4915   2.601   4.140   3.438  0.0783  0.9299  0.9435
   51CHL1  H11B 4916   2.434   4.136   3.398  2.0112 -1.5830 -0.8904
   51CHL1    C9 4917   2.538   4.279   3.275  0.7066  0.0619  0.0485
   51CHL1    H9 4918   2.442   4.332   3.253  2.0102  1.5039 -2.8711
   51CHL1   C10 4919   2.565   4.186   3.150  0.1642  0.0664  0.4770
   51CHL1   C19 4920   2.675   4.083   3.195  0.1461 -0.4942 -0.3937
   51CHL1  H19A 4921   2.644   4.017   3.279  0.1958 -1.2677 -0.9729
   51CHL1  H19B 4922   2.715   4.028   3.107 -0.0287  0.3785 -1.0334
   51CHL1  H19C 4923   2.760   4.142   3.234 -0.9314  0.5590  0.4406
   51CHL1    C1 4924   2.434   4.103   3.133  0.3237 -0.5253  0.3770
   51CHL1   H1A 4925   2.399   4.036   3.215  2.5178 -3.2644 -0.7405
   51CHL1   H1B 4926   2.357   4.178   3.107  0.6906 -0.5534 -0.8697
   51CHL1    C2 4927   2.442   4.015   3.006 -0.2663 -0.1548  0.1241
   51CHL1   H2A 4928   2.345   3.968   2.978 -0.1760  0.1477 -0.7142
   51CHL1   H2B 4929   2.512   3.933   3.035  2.5914  2.9126  2.8233
   51CHL1   C20 4930   2.621   4.491   3.788  0.0532 -0.2060  0.2770
   51CHL1   H20 4931   2.653   4.387   3.810 -3.6193 -1.3908  0.6789
   51CHL1   C21 4932   2.486   4.489   3.849  1.4775  0.3360 -0.6424
   51CHL1  H21A 4933   2.485   4.463   3.957  2.8799  0.5783 -0.5470
   51CHL1  H21B 4934   2.415   4.412   3.813 -1.2190  2.0130  0.7139
   51CHL1  H21C 4935   2.444   4.591   3.841  1.3801  0.3363 -0.1694
   51CHL1   C22 4936   2.718   4.590   3.863 -0.8691 -0.1696 -0.9089
   51CHL1  H22A 4937   2.823   4.573   3.831  0.6641  3.5957  1.3899
   51CHL1  H22B 4938   2.695   4.697   3.842  0.1417  0.5526  1.3717
   51CHL1   C23 4939   2.725   4.563   4.015 -1.1018 -0.3036 -0.5605
   51CHL1  H23A 4940   2.624   4.571   4.062 -0.9465 -1.0797 -0.0686
   51CHL1  H23B 4941   2.765   4.460   4.026 -0.6944  0.0675  2.1574
   51CHL1   C24 4942   2.821   4.648   4.098  0.0640 -0.4583  0.6181
   51CHL1  H24A 4943   2.791   4.621   4.202  1.9589 -1.2179  1.0134
   51CHL1  H24B 4944   2.922   4.605   4.081 -0.3213 -1.1905  0.1073
   51CHL1   C25 4945   2.816   4.800   4.081  0.1903 -0.4161  0.0849
   51CHL1   H25 4946   2.865   4.821   3.983  2.2667 -1.4889  0.8355
   51CHL1   C26 4947   2.678   4.864   4.097  0.8149  0.6085 -0.1305
   51CHL1  H26A 4948   2.625   4.854   4.000  0.0572  0.8577  0.2489
   51CHL1  H26B 4949   2.612   4.813   4.172  1.5393  1.3039  1.0081
   51CHL1  H26C 4950   2.679   4.970   4.129 -1.7608  1.2295 -1.7914
   51CHL1   C27 4951   2.905   4.871   4.186  0.2453 -0.4987 -0.0379
   51CHL1  H27A 4952   2.908   4.982   4.180 -2.5708 -0.3882 -0.6011
   51CHL1  H27B 4953   2.860   4.859   4.287 -0.3726 -0.0918 -0.2590
   51CHL1  H27C 4954   3.008   4.829   4.190 -0.6357 -2.9277 -0.9918
   52CHL1    C3 4955   2.080   5.098   2.962 -0.2527 -0.0170  0.5908
   52CHL1    H3 4956   2.164   5.165   2.933 -0.9273  1.9569  2.8835
   52CHL1    O3 4957   2.028   5.067   2.834 -0.1170 -0.0222  0.1542
   52CHL1   H3' 4958   1.941   5.109   2.831  0.6539  1.8862  2.0198
   52CHL1    C4 4959   2.117   4.958   3.016  0.6265 -0.0422 -0.3755
   52CHL1   H4A 4960   2.030   4.889   3.022 -0.9809  1.9842  0.6288
   52CHL1   H4B 4961   2.196   4.930   2.943  1.4262  0.4635  0.2825
   52CHL1    C5 4962   2.163   4.957   3.160  0.1052  0.1563 -0.2431
   52CHL1    C6 4963   2.279   4.902   3.202 -0.5377 -0.3133  0.0717
   52CHL1    H6 4964   2.349   4.854   3.133  0.4839  0.1154  0.7886
   52CHL1    C7 4965   2.331   4.913   3.347 -0.7864 -0.4700 -0.0207
   52CHL1   H7A 4966   2.398   4.826   3.367 -1.0185 -0.8432 -0.8233
   52CHL1   H7B 4967   2.405   4.995   3.356 -0.2465 -1.1213  2.3744
   52CHL1    C8 4968   2.215   4.947   3.443 -0.2679  0.0447 -0.1657
   52CHL1    H8 4969   2.160   4.853   3.464 -0.6647  0.0268 -1.2129
   52CHL1   C14 4970   2.284   4.987   3.578 -0.1775 -0.1335  0.0954
   52CHL1   H14 4971   2.342   5.078   3.549 -2.9763  0.9287 -2.6928
   52CHL1   C15 4972   2.393   4.906   3.649 -1.0386 -1.2675 -0.3584
   52CHL1  H15A 4973   2.365   4.798   3.654 -0.5738 -1.3303  1.1817
   52CHL1  H15B 4974   2.482   4.917   3.585 -2.5150 -0.5304 -2.4007
   52CHL1   C16 4975   2.400   4.964   3.789  0.2189  0.0172  0.0683
   52CHL1  H16A 4976   2.373   4.880   3.857 -2.4486 -0.9820 -2.0358
   52CHL1  H16B 4977   2.505   4.994   3.809  0.3596 -0.7916  0.5670
   52CHL1   C17 4978   2.283   5.074   3.804  0.4782 -0.5105  0.7508
   52CHL1   H17 4979   2.335   5.164   3.766 -1.2241  0.2925  0.1904
   52CHL1   C13 4980   2.184   5.033   3.688  0.0853  0.4513 -0.4472
   52CHL1   C18 4981   2.096   4.911   3.726 -0.1929  0.3407 -0.2550
   52CHL1  H18A 4982   2.162   4.829   3.764  1.7711  1.4247 -1.1756
   52CHL1  H18B 4983   2.023   4.948   3.801  1.1374  0.2605  1.1359
   52CHL1  H18C 4984   2.042   4.872   3.638  1.1704  0.4673 -1.1833
   52CHL1   C12 4985   2.108   5.151   3.634  0.2111  0.2569 -0.6132
   52CHL1  H12A 4986   2.043   5.191   3.715 -1.5971 -0.2450 -1.7605
   52CHL1  H12B 4987   2.189   5.221   3.603  0.1748  0.8355  0.5167
   52CHL1   C11 4988   2.031   5.122   3.501  0.3179 -0.5451  0.1365
   52CHL1  H11A 4989   1.950   5.050   3.524  1.9078 -1.6803  2.6724
   52CHL1  H11B 4990   1.987   5.216   3.462  1.5863 -0.2099 -0.5629
   52CHL1    C9 4991   2.129   5.062   3.388 -0.1659 -0.8195 -0.0742
   52CHL1    H9 4992   2.192   5.152   3.370 -0.6760 -0.3798  0.2811
   52CHL1   C10 4993   2.067   5.036   3.253  0.1691  0.5890 -0.9990
   52CHL1   C19 4994   1.946   4.950   3.271  0.3449 -0.2705 -0.5759
   52CHL1  H19A 4995   1.894   4.916   3.179 -0.2207  1.4910 -0.9400
   52CHL1  H19B 4996   1.984   4.858   3.322  1.6847  0.6563  0.1616
   52CHL1  H19C 4997   1.867   4.990   3.338  1.9660  1.0922  0.6078
   52CHL1    C1 4998   2.021   5.175   3.193  0.5457  0.0329 -0.1204
   52CHL1   H1A 4999   1.948   5.226   3.260  2.6455  1.3205  1.2806
   52CHL1   H1B 5000   2.111   5.240   3.198 -1.8996  3.6067  1.9073
   52CHL1    C2 5001   1.969   5.167   3.044  0.2783 -0.1443  0.0714
   52CHL1   H2A 5002   1.952   5.272   3.010  0.7745  0.8812  2.7705
   52CHL1   H2B 5003   1.871   5.115   3.048 -0.3023  0.7630 -1.3531
   52CHL1   C20 5004   2.235   5.108   3.946 -0.2582  0.1564 -0.2458
   52CHL1   H20 5005   2.146   5.174   3.942 -1.5959 -1.1144  4.0014
   52CHL1   C21 5006   2.360   5.182   4.015  0.0109  0.1878 -0.1583
   52CHL1  H21A 5007   2.404   5.263   3.953 -0.9461  1.5977  0.9200
   52CHL1  H21B 5008   2.435   5.105   4.044 -0.9444 -0.8317 -0.3529
   52CHL1  H21C 5009   2.321   5.228   4.108  3.1693 -0.6443  1.7629
   52CHL1   C22 5010   2.205   4.991   4.037 -0.2074  0.0976  0.1432
   52CHL1  H22A 5011   2.149   4.921   3.972  0.8027 -0.6106  0.0060
   52CHL1  H22B 5012   2.302   4.946   4.067 -0.2516  0.1627  0.3801
   52CHL1   C23 5013   2.127   5.022   4.164 -0.0838 -0.2781 -0.6616
   52CHL1  H23A 5014   2.184   5.072   4.245 -1.7622  0.0851  0.3450
   52CHL1  H23B 5015   2.055   5.102   4.136  1.9932  1.3202 -1.7432
   52CHL1   C24 5016   2.046   4.899   4.220  0.6680 -0.9573 -0.3387
   52CHL1  H24A 5017   1.977   4.861   4.142 -1.4496  1.2308  0.3488
   52CHL1  H24B 5018   2.112   4.819   4.259  1.3024  0.6231  2.0202
   52CHL1   C25 5019   1.956   4.943   4.332  0.1559  0.2587  0.4781
   52CHL1   H25 5020   1.879   5.006   4.283  0.1038  0.8152  1.2681
   52CHL1   C26 5021   1.884   4.819   4.389  0.2587  0.2011 -0.1187
   52CHL1  H26A 5022   1.965   4.753   4.426 -1.0901 -0.9302  0.9397
   52CHL1  H26B 5023   1.815   4.847   4.472  0.6764 -0.2559  0.3931
   52CHL1  H26C 5024   1.827   4.766   4.310  0.3500 -1.0298  0.6052
   52CHL1   C27 5025   2.033   5.014   4.445 -0.2532 -0.5256  0.2839
   52CHL1  H27A 5026   2.058   5.110   4.396  0.3276 -1.5049 -1.4045
   52CHL1  H27B 5027   1.965   5.044   4.528  0.1958 -1.0884  0.8731
   52CHL1  H27C 5028   2.122   4.959   4.483 -0.0718  0.5954  1.5729
   53CHL1    C3 5029   1.396   4.129   2.503  0.0328 -0.3457  0.3754
   53CHL1    H3 5030   1.329   4.041   2.510 -0.7903 -0.1653 -3.3241
   53CHL1    O3 5031   1.421   4.153   2.368 -0.6317 -0.0488  0.0290
   53CHL1   H3' 5032   1.479   4.083   2.340 -1.0301  0.3150 -1.8607
   53CHL1    C4 5033   1.342   4.253   2.574  0.0618  0.6858 -0.5034
   53CHL1   H4A 5034   1.405   4.341   2.549  2.7233 -0.8821  0.3159
   53CHL1   H4B 5035   1.244   4.275   2.526 -0.5656  1.3566  1.0425
   53CHL1    C5 5036   1.323   4.229   2.720 -1.1056  0.2368  0.0782
   53CHL1    C6 5037   1.205   4.237   2.788 -0.4900  0.6774 -0.0090
   53CHL1    H6 5038   1.111   4.268   2.742 -0.3059  1.2491 -0.0067
   53CHL1    C7 5039   1.184   4.198   2.928 -0.1389  0.4357 -0.7411
   53CHL1   H7A 5040   1.112   4.259   2.987 -0.4124 -0.7336  0.1814
   53CHL1   H7B 5041   1.122   4.105   2.927  2.9741 -1.8017 -0.1169
   53CHL1    C8 5042   1.310   4.179   3.017 -0.1007 -0.5946 -0.1498
   53CHL1    H8 5043   1.350   4.281   3.028 -1.0747 -0.0665 -1.2381
   53CHL1   C14 5044   1.280   4.114   3.154 -1.0920  0.0670  0.7619
   53CHL1   H14 5045   1.240   4.014   3.129 -0.2090 -0.5625  1.7451
   53CHL1   C15 5046   1.175   4.175   3.237 -1.3110 -1.0737 -0.1349
   53CHL1  H15A 5047   1.186   4.285   3.244  0.7234 -1.2407 -0.3005
   53CHL1  H15B 5048   1.071   4.155   3.203 -1.6835  0.7655 -0.1582
   53CHL1   C16 5049   1.205   4.125   3.377 -0.0638  0.3062 -0.1326
   53CHL1  H16A 5050   1.231   4.203   3.452  0.6961  0.2947 -0.3759
   53CHL1  H16B 5051   1.121   4.066   3.418 -1.6521  2.3412 -0.2816
   53CHL1   C17 5052   1.325   4.028   3.371  0.7994  0.1785  0.6882
   53CHL1   H17 5053   1.285   3.927   3.351 -0.6664  0.8280  0.1775
   53CHL1   C13 5054   1.400   4.083   3.242  0.1388  0.5766  0.4916
   53CHL1   C18 5055   1.471   4.217   3.280 -0.1216  0.9193 -0.2494
   53CHL1  H18A 5056   1.494   4.271   3.185 -1.2347  1.9176  0.0201
   53CHL1  H18B 5057   1.402   4.284   3.335 -0.6418 -1.0261  1.5963
   53CHL1  H18C 5058   1.562   4.181   3.332  1.2070  0.4838 -2.7128
   53CHL1   C12 5059   1.493   3.992   3.154 -0.4246 -0.0088  0.3130
   53CHL1  H12A 5060   1.590   3.978   3.206 -0.8092 -1.6052  0.6541
   53CHL1  H12B 5061   1.438   3.895   3.147 -0.2274 -0.0380 -1.1834
   53CHL1   C11 5062   1.532   4.048   3.013 -0.1779  0.4324  0.1970
   53CHL1  H11A 5063   1.603   4.132   3.027  0.1265  0.7262 -2.5722
   53CHL1  H11B 5064   1.585   3.971   2.954  2.3082  0.2764  2.4381
   53CHL1    C9 5065   1.413   4.107   2.936  0.4827  0.1499  0.0140
   53CHL1    H9 5066   1.361   4.011   2.918  1.0105 -0.7328  2.6539
   53CHL1   C10 5067   1.448   4.166   2.797  0.4777 -0.0050  0.4654
   53CHL1   C19 5068   1.556   4.277   2.811  0.1955 -0.0730  1.0480
   53CHL1  H19A 5069   1.531   4.357   2.884  2.0210 -0.1101  1.7783
   53CHL1  H19B 5070   1.655   4.231   2.833 -0.2302 -2.2292 -1.0625
   53CHL1  H19C 5071   1.577   4.314   2.708 -1.7276  1.7264  1.2365
   53CHL1    C1 5072   1.504   4.053   2.707  0.4051 -0.5106 -0.7692
   53CHL1   H1A 5073   1.602   4.017   2.745  1.1588  0.3664 -1.8276
   53CHL1   H1B 5074   1.438   3.965   2.718  1.0169 -1.0451 -1.3023
   53CHL1    C2 5075   1.524   4.079   2.559 -0.0021 -0.7941 -0.8815
   53CHL1   H2A 5076   1.561   3.989   2.507  2.6016 -0.6910  0.6170
   53CHL1   H2B 5077   1.596   4.163   2.547 -2.9522  2.0317 -0.2816
   53CHL1   C20 5078   1.409   4.016   3.506 -0.4225 -0.1310  0.2381
   53CHL1   H20 5079   1.462   4.111   3.528 -0.0334 -0.4976  0.9039
   53CHL1   C21 5080   1.524   3.920   3.487 -0.7028  0.3800 -0.0719
   53CHL1  H21A 5081   1.489   3.818   3.464  1.2931 -0.7548  1.5194
   53CHL1  H21B 5082   1.582   3.899   3.580 -0.4914  1.4232  0.0502
   53CHL1  H21C 5083   1.604   3.954   3.417 -0.6517  1.6653  0.5826
   53CHL1   C22 5084   1.318   3.987   3.628  0.1415  0.3418  0.6931
   53CHL1  H22A 5085   1.221   4.041   3.622 -0.3697 -0.0443  3.7118
   53CHL1  H22B 5086   1.286   3.881   3.631  1.2143  0.0128  1.2069
   53CHL1   C23 5087   1.387   4.028   3.746 -0.6564 -0.0862 -0.0004
   53CHL1  H23A 5088   1.482   3.973   3.765 -0.1512  1.3494  2.0249
   53CHL1  H23B 5089   1.429   4.131   3.746 -0.6740 -0.0198  2.1554
   53CHL1   C24 5090   1.309   4.010   3.876 -0.5012  0.2695 -0.0698
   53CHL1  H24A 5091   1.258   4.106   3.899 -0.5545 -0.0306  1.1236
   53CHL1  H24B 5092   1.239   3.924   3.865 -0.0734  0.0306 -0.9649
   53CHL1   C25 5093   1.399   3.985   3.997 -0.8234  0.1588  0.8710
   53CHL1   H25 5094   1.459   3.893   3.980  0.9869  1.3712  0.3179
   53CHL1   C26 5095   1.497   4.101   4.025  0.2616 -0.5247 -0.7680
   53CHL1  H26A 5096   1.424   4.182   4.044  1.8131  0.5360  1.0547
   53CHL1  H26B 5097   1.560   4.078   4.114  1.5796 -0.3430 -1.6180
   53CHL1  H26C 5098   1.554   4.128   3.933 -0.2834 -0.0043 -0.9565
   53CHL1   C27 5099   1.321   3.955   4.129 -0.6841 -0.5121  0.6311
   53CHL1  H27A 5100   1.247   3.876   4.104 -0.3734 -0.5165 -0.3337
   53CHL1  H27B 5101   1.384   3.909   4.208 -1.0923  1.3229  2.0761
   53CHL1  H27C 5102   1.276   4.048   4.168 -0.8053 -0.6633  0.8521
   54CHL1    C3 5103   0.865   3.748   2.280  0.0482 -0.1412  0.2730
   54CHL1    H3 5104   0.772   3.691   2.300 -1.5548  2.4831  0.7919
   54CHL1    O3 5105   0.885   3.766   2.143  0.1205 -0.6409 -0.3757
   54CHL1   H3' 5106   0.972   3.805   2.129  0.1354 -0.7196 -0.5060
   54CHL1    C4 5107   0.845   3.891   2.331 -0.4349  0.8732 -0.7165
   54CHL1   H4A 5108   0.938   3.949   2.310  0.9956 -0.9381  0.3251
   54CHL1   H4B 5109   0.758   3.930   2.274 -1.6961  1.5759  1.5702
   54CHL1    C5 5110   0.811   3.891   2.485 -0.5247 -0.0886  0.8357
   54CHL1    C6 5111   0.695   3.938   2.525  0.1125  0.3546 -0.2719
   54CHL1    H6 5112   0.621   3.982   2.457 -1.1930  3.7953  2.9992
   54CHL1    C7 5113   0.665   3.947   2.671 -0.1150 -0.8836  0.5967
   54CHL1   H7A 5114   0.645   4.054   2.696 -0.9031 -0.6337 -0.9904
   54CHL1   H7B 5115   0.584   3.875   2.696  0.3914 -1.1116  1.6638
   54CHL1    C8 5116   0.780   3.906   2.775  0.5094 -0.1683  0.0901
   54CHL1    H8 5117   0.848   3.993   2.792  1.8019 -1.3131  1.0298
   54CHL1   C14 5118   0.717   3.863   2.909  0.4347  0.6001  0.8415
   54CHL1   H14 5119   0.652   3.775   2.892 -1.1478  1.6813  1.0827
   54CHL1   C15 5120   0.626   3.959   2.988  0.0618 -0.8642  0.0247
   54CHL1  H15A 5121   0.669   4.061   2.975 -1.4855 -0.2381 -0.4136
   54CHL1  H15B 5122   0.531   3.965   2.931  0.8163  0.4240 -1.1649
   54CHL1   C16 5123   0.617   3.904   3.132  1.0145 -1.0294 -0.0212
   54CHL1  H16A 5124   0.653   3.979   3.206 -1.0575 -0.0475  0.0656
   54CHL1  H16B 5125   0.519   3.875   3.174  1.0447 -0.9094  0.1359
   54CHL1   C17 5126   0.711   3.776   3.129 -0.3114 -0.2144 -0.0970
   54CHL1   H17 5127   0.654   3.687   3.095  0.1714 -1.2529  1.6724
   54CHL1   C13 5128   0.813   3.807   3.010 -0.2108  0.0721  0.1487
   54CHL1   C18 5129   0.914   3.914   3.048 -0.0348 -0.1966  0.2010
   54CHL1  H18A 5130   0.993   3.870   3.113 -0.6168 -2.1102 -0.3346
   54CHL1  H18B 5131   0.969   3.951   2.959 -0.4592  0.1837  0.0939
   54CHL1  H18C 5132   0.855   3.996   3.096 -2.6404 -1.7727 -0.0944
   54CHL1   C12 5133   0.899   3.687   2.951  1.0440  0.5112  0.5610
   54CHL1  H12A 5134   0.980   3.661   3.023 -0.3531 -0.9260  1.6846
   54CHL1  H12B 5135   0.836   3.596   2.944 -0.0299  1.0779  2.3125
   54CHL1   C11 5136   0.960   3.726   2.809  0.6060 -0.0663  0.5198
   54CHL1  H11A 5137   1.038   3.802   2.828 -0.9639  2.2064 -1.4730
   54CHL1  H11B 5138   1.008   3.634   2.769  0.5823  0.1558 -0.0297
   54CHL1    C9 5139   0.858   3.789   2.714 -0.2700 -0.5107 -1.1234
   54CHL1    H9 5140   0.788   3.705   2.692 -0.6840 -0.9346  1.4196
   54CHL1   C10 5141   0.911   3.819   2.574 -1.1482 -0.8514  0.1007
   54CHL1   C19 5142   1.031   3.899   2.592 -0.8697 -0.3434  0.3461
   54CHL1  H19A 5143   1.002   3.998   2.631  0.5296  0.0232  0.4945
   54CHL1  H19B 5144   1.107   3.850   2.657  0.8519 -0.2183 -1.4656
   54CHL1  H19C 5145   1.085   3.923   2.498  2.4478 -0.0023  2.2030
   54CHL1    C1 5146   0.956   3.681   2.496 -0.7042 -0.4351  0.0175
   54CHL1   H1A 5147   1.042   3.627   2.541  0.5032 -1.3363 -3.1045
   54CHL1   H1B 5148   0.867   3.619   2.518 -0.6512 -1.5623 -2.4885
   54CHL1    C2 5149   0.981   3.691   2.342  0.4179 -0.2087 -0.3324
   54CHL1   H2A 5150   1.019   3.594   2.302  3.7207  0.5790  0.5632
   54CHL1   H2B 5151   1.072   3.754   2.329  0.8689 -0.8332 -0.2574
   54CHL1   C20 5152   0.772   3.730   3.272  0.1631  0.4350 -0.1991
   54CHL1   H20 5153   0.846   3.807   3.302  0.5583 -0.5469  1.4771
   54CHL1   C21 5154   0.840   3.599   3.265  0.2598 -0.3496 -0.0785
   54CHL1  H21A 5155   0.830   3.531   3.353  0.0659  2.4803  2.2232
   54CHL1  H21B 5156   0.947   3.614   3.238  0.0385  0.4974 -0.5080
   54CHL1  H21C 5157   0.798   3.532   3.186  0.7695 -0.2416 -0.4483
   54CHL1   C22 5158   0.651   3.723   3.377  0.6278  0.3445  0.1168
   54CHL1  H22A 5159   0.629   3.829   3.405  0.1474  0.0833  0.7425
   54CHL1  H22B 5160   0.565   3.670   3.331  1.1471 -1.1184  0.7839
   54CHL1   C23 5161   0.666   3.631   3.510  0.8732 -0.3031  0.0694
   54CHL1  H23A 5162   0.567   3.641   3.560 -0.5577  0.0625 -2.6189
   54CHL1  H23B 5163   0.672   3.523   3.487 -1.6605 -0.7011  0.9252
   54CHL1   C24 5164   0.776   3.667   3.607 -0.0847  0.6231 -0.5379
   54CHL1  H24A 5165   0.872   3.650   3.554 -0.1702 -2.0337  0.0534
   54CHL1  H24B 5166   0.780   3.773   3.640 -2.8893  0.0214  2.2937
   54CHL1   C25 5167   0.779   3.588   3.736 -0.2147  0.0534 -0.3055
   54CHL1   H25 5168   0.865   3.628   3.794 -0.1573  0.8874 -0.9488
   54CHL1   C26 5169   0.660   3.621   3.825  0.1788  0.6800  0.2724
   54CHL1  H26A 5170   0.663   3.570   3.924  1.1822  2.7496  1.3677
   54CHL1  H26B 5171   0.666   3.730   3.848 -0.8953  0.8044  0.0374
   54CHL1  H26C 5172   0.563   3.608   3.773  1.1588  1.7291 -1.9260
   54CHL1   C27 5173   0.794   3.435   3.704  0.5206  0.3997  0.0776
   54CHL1  H27A 5174   0.700   3.391   3.666 -0.2557  2.6770 -0.8470
   54CHL1  H27B 5175   0.883   3.426   3.638  1.2016  1.5668  0.7914
   54CHL1  H27C 5176   0.818   3.378   3.796 -0.8941  1.0352  0.8813
   55CHL1    C3 5177   0.802   1.103   2.800  0.9000  0.7900  0.3661
   55CHL1    H3 5178   0.903   1.058   2.812  1.1808  1.8020  2.0749
   55CHL1    O3 5179   0.761   1.123   2.668 -0.1713 -0.1493 -0.1240
   55CHL1   H3' 5180   0.789   1.045   2.619 -0.7403  0.7941 -2.0896
   55CHL1    C4 5181   0.695   1.007   2.861 -0.3124  1.1915 -0.9085
   55CHL1   H4A 5182   0.589   1.037   2.847 -1.4826 -0.9899  2.2300
   55CHL1   H4B 5183   0.711   0.907   2.815  0.3375  1.4702 -1.3022
   55CHL1    C5 5184   0.707   0.996   3.012  0.4328  0.9182  0.4489
   55CHL1    C6 5185   0.714   0.877   3.074  0.3835 -0.2387 -0.2094
   55CHL1    H6 5186   0.719   0.791   3.004  0.8231  1.3724 -2.2563
   55CHL1    C7 5187   0.724   0.858   3.220  0.1953 -0.6032  0.0829
   55CHL1   H7A 5188   0.658   0.775   3.254 -1.5368  0.3560 -0.8330
   55CHL1   H7B 5189   0.825   0.821   3.247  0.2382  0.4268  1.4416
   55CHL1    C8 5190   0.681   0.978   3.297  0.2707 -0.5120  0.5012
   55CHL1    H8 5191   0.571   0.994   3.300  0.4729  1.4330 -0.7767
   55CHL1   C14 5192   0.727   0.975   3.443 -0.0307 -0.4968 -0.1957
   55CHL1   H14 5193   0.838   0.974   3.439  0.1206 -2.2123  2.2622
   55CHL1   C15 5194   0.698   0.837   3.508 -0.2682 -0.0810  0.2910
   55CHL1  H15A 5195   0.596   0.803   3.481 -0.0073 -2.4399  1.9565
   55CHL1  H15B 5196   0.771   0.759   3.476  1.0525  1.4131 -0.5307
   55CHL1   C16 5197   0.716   0.862   3.654 -0.2004 -0.4929 -0.2809
   55CHL1  H16A 5198   0.625   0.819   3.703  0.4875  0.6324  2.1640
   55CHL1  H16B 5199   0.803   0.813   3.703  0.1686  2.3831  2.2700
   55CHL1   C17 5200   0.742   1.017   3.676  0.2902 -0.8744 -0.1195
   55CHL1   H17 5201   0.849   1.037   3.656  0.3911 -1.0135  0.2710
   55CHL1   C13 5202   0.687   1.082   3.546 -0.2690 -0.0168  0.2229
   55CHL1   C18 5203   0.534   1.091   3.561 -0.0210 -0.4351 -0.3949
   55CHL1  H18A 5204   0.483   0.996   3.588 -1.1620  0.1134 -0.5457
   55CHL1  H18B 5205   0.514   1.176   3.631  2.5332  2.6548 -3.0475
   55CHL1  H18C 5206   0.494   1.123   3.463  1.7833  3.0298 -0.1674
   55CHL1   C12 5207   0.742   1.216   3.491  0.1705 -0.1286  0.4908
   55CHL1  H12A 5208   0.704   1.302   3.550 -0.3557 -0.4377  0.6089
   55CHL1  H12B 5209   0.853   1.217   3.498  0.1004  0.1037  2.2714
   55CHL1   C11 5210   0.701   1.234   3.338 -0.2889  0.2274 -0.3924
   55CHL1  H11A 5211   0.593   1.259   3.349 -0.3344 -0.5896  1.4419
   55CHL1  H11B 5212   0.739   1.327   3.292 -1.8495  1.2561  0.3094
   55CHL1    C9 5213   0.735   1.108   3.237  0.4007  0.3442  0.6710
   55CHL1    H9 5214   0.846   1.100   3.241  0.4800  1.1971  0.3901
   55CHL1   C10 5215   0.696   1.127   3.089  0.1544 -0.7402 -0.0681
   55CHL1   C19 5216   0.552   1.190   3.075 -0.0109  0.0027  0.2514
   55CHL1  H19A 5217   0.555   1.286   3.129  1.2243  0.7917 -1.1531
   55CHL1  H19B 5218   0.529   1.205   2.967 -1.7760 -2.4866  0.1880
   55CHL1  H19C 5219   0.487   1.123   3.137 -1.1470  1.9937  1.3068
   55CHL1    C1 5220   0.803   1.217   3.025  0.0087  0.0009  0.5564
   55CHL1   H1A 5221   0.793   1.322   3.063  0.6571  1.6158 -3.2818
   55CHL1   H1B 5222   0.909   1.186   3.037  0.5621  1.4350 -0.4089
   55CHL1    C2 5223   0.799   1.235   2.873  0.1280  0.1781  0.4210
   55CHL1   H2A 5224   0.877   1.307   2.840 -1.3946  2.9380  2.4792
   55CHL1   H2B 5225   0.707   1.294   2.857  1.0334  1.8580  1.1827
   55CHL1   C20 5226   0.701   1.065   3.817  0.3544  0.7865 -0.7987
   55CHL1   H20 5227   0.593   1.039   3.828  0.9908 -1.1131  1.8397
   55CHL1   C21 5228   0.727   1.221   3.824  0.0590  0.2996 -0.0665
   55CHL1  H21A 5229   0.824   1.259   3.786 -0.5649  0.3633 -1.6681
   55CHL1  H21B 5230   0.709   1.261   3.926  0.4902 -2.2167  1.0933
   55CHL1  H21C 5231   0.647   1.267   3.762 -1.3548 -4.4515 -2.2589
   55CHL1   C22 5232   0.775   0.984   3.925 -0.7160 -0.2070 -0.2019
   55CHL1  H22A 5233   0.770   0.877   3.896 -0.8550 -0.0346 -0.8378
   55CHL1  H22B 5234   0.883   1.008   3.929 -0.6983 -0.4493  1.0505
   55CHL1   C23 5235   0.714   1.006   4.068 -0.8825 -0.2367  0.0230
   55CHL1  H23A 5236   0.711   1.116   4.084 -0.3361 -0.3368  0.8835
   55CHL1  H23B 5237   0.612   0.962   4.065  0.9107 -4.8834 -1.7842
   55CHL1   C24 5238   0.796   0.939   4.177 -0.4517 -0.0745 -0.0177
   55CHL1  H24A 5239   0.780   0.831   4.157  1.8602 -0.7067  1.2080
   55CHL1  H24B 5240   0.905   0.957   4.172 -0.7231  1.4965 -1.0264
   55CHL1   C25 5241   0.748   0.955   4.319  0.0997 -1.1162 -0.0172
   55CHL1   H25 5242   0.771   1.060   4.346  0.9070 -1.3640  0.2992
   55CHL1   C26 5243   0.594   0.938   4.335 -0.1845  0.5868  0.8733
   55CHL1  H26A 5244   0.546   1.020   4.276 -0.5194 -0.6549 -0.6367
   55CHL1  H26B 5245   0.557   0.837   4.308  0.1633  0.9586 -1.1373
   55CHL1  H26C 5246   0.581   0.957   4.444 -1.8950  1.7296  0.5172
   55CHL1   C27 5247   0.828   0.861   4.409 -0.3826 -0.8006  0.3115
   55CHL1  H27A 5248   0.811   0.752   4.399  2.1672 -1.0822 -2.0248
   55CHL1  H27B 5249   0.936   0.882   4.392 -0.5834  1.2400  1.1859
   55CHL1  H27C 5250   0.805   0.901   4.510  0.3392  0.5195 -0.0127
   56CHL1    C3 5251   2.266   3.433   2.656  0.0604  0.4953  0.1901
   56CHL1    H3 5252   2.160   3.403   2.670  0.1114 -1.9054 -3.2219
   56CHL1    O3 5253   2.294   3.411   2.518 -0.0549  0.6583  0.2863
   56CHL1   H3' 5254   2.390   3.404   2.515 -0.0673 -3.2348  2.4676
   56CHL1    C4 5255   2.288   3.576   2.692  0.0646 -0.0553 -0.0245
   56CHL1   H4A 5256   2.393   3.596   2.664 -0.0050 -0.1757 -0.3813
   56CHL1   H4B 5257   2.225   3.640   2.626 -2.5134 -1.2506  1.1478
   56CHL1    C5 5258   2.270   3.607   2.839  0.7881  0.3578 -0.3954
   56CHL1    C6 5259   2.187   3.693   2.888  0.5067 -0.5478  0.3171
   56CHL1    H6 5260   2.133   3.761   2.821  0.4985 -0.8857 -0.0184
   56CHL1    C7 5261   2.164   3.715   3.029  0.2652  0.5744 -0.1100
   56CHL1   H7A 5262   2.147   3.825   3.037 -0.5996  0.5283 -1.1658
   56CHL1   H7B 5263   2.075   3.654   3.055  1.2735 -0.8742  0.0766
   56CHL1    C8 5264   2.272   3.660   3.127 -0.4090 -0.0641  0.3346
   56CHL1    H8 5265   2.360   3.726   3.114 -0.0033 -0.8659 -1.2299
   56CHL1   C14 5266   2.230   3.649   3.271  0.9045  0.0587 -0.4719
   56CHL1   H14 5267   2.143   3.580   3.277  0.3752  0.7931  0.9447
   56CHL1   C15 5268   2.162   3.773   3.337  0.3812 -0.5250  0.7356
   56CHL1  H15A 5269   2.209   3.867   3.301 -1.8236 -0.0242 -1.0290
   56CHL1  H15B 5270   2.054   3.785   3.314  0.8216  1.5650 -0.5401
   56CHL1   C16 5271   2.186   3.764   3.487 -0.5713  0.4344 -0.8929
   56CHL1  H16A 5272   2.235   3.852   3.533  2.9221 -2.8860  2.4324
   56CHL1  H16B 5273   2.091   3.734   3.536 -0.1803 -0.4917 -0.6965
   56CHL1   C17 5274   2.268   3.637   3.505 -0.5691 -0.5368  0.1868
   56CHL1   H17 5275   2.189   3.559   3.512 -1.0531  0.0176  1.1142
   56CHL1   C13 5276   2.342   3.615   3.371  0.8372  0.1923  0.1184
   56CHL1   C18 5277   2.452   3.712   3.364 -0.4157 -0.2022  0.0994
   56CHL1  H18A 5278   2.528   3.690   3.442  1.2569 -1.1975 -1.6937
   56CHL1  H18B 5279   2.513   3.702   3.271 -0.7767  1.9498 -0.4345
   56CHL1  H18C 5280   2.425   3.817   3.390 -0.3464 -0.2966  0.5506
   56CHL1   C12 5281   2.384   3.466   3.333  0.1810 -0.3274  0.0368
   56CHL1  H12A 5282   2.468   3.430   3.397  0.3563  1.0576  0.6284
   56CHL1  H12B 5283   2.298   3.400   3.356 -0.7211  0.9351  0.4419
   56CHL1   C11 5284   2.418   3.448   3.183 -0.3638 -0.4107  0.7255
   56CHL1  H11A 5285   2.514   3.498   3.160  0.2391 -1.6387  0.4911
   56CHL1  H11B 5286   2.421   3.340   3.158 -0.5733  0.1679 -2.1672
   56CHL1    C9 5287   2.316   3.521   3.080  0.2521 -0.5259 -0.8462
   56CHL1    H9 5288   2.222   3.462   3.080  0.7377 -1.3181 -0.8934
   56CHL1   C10 5289   2.353   3.503   2.929  0.3443  0.7778  0.0703
   56CHL1   C19 5290   2.499   3.542   2.907 -0.8632 -1.0466  0.9285
   56CHL1  H19A 5291   2.541   3.534   2.804  3.0664 -0.9851  2.3562
   56CHL1  H19B 5292   2.518   3.644   2.946  1.3545 -0.9440 -0.2434
   56CHL1  H19C 5293   2.557   3.464   2.962 -1.3482 -2.2358 -0.1954
   56CHL1    C1 5294   2.331   3.349   2.887  0.6078  0.0938  0.1378
   56CHL1   H1A 5295   2.390   3.272   2.940 -0.5321 -0.2359  0.9559
   56CHL1   H1B 5296   2.227   3.326   2.916  0.4968  1.5193  0.9930
   56CHL1    C2 5297   2.352   3.329   2.737  0.7964 -0.5674 -0.2275
   56CHL1   H2A 5298   2.325   3.225   2.705  1.7346 -1.0065  0.3751
   56CHL1   H2B 5299   2.459   3.344   2.712  0.9807  0.1472  0.9592
   56CHL1   C20 5300   2.342   3.628   3.645 -0.5307  0.5358  0.7755
   56CHL1   H20 5301   2.406   3.718   3.656 -1.4963  1.2198  1.0143
   56CHL1   C21 5302   2.442   3.512   3.654 -0.0884 -1.0281  0.4121
   56CHL1  H21A 5303   2.525   3.533   3.583 -0.5444  0.8229  0.3645
   56CHL1  H21B 5304   2.400   3.411   3.634 -0.6888 -0.2486 -2.8291
   56CHL1  H21C 5305   2.491   3.508   3.753 -0.8895 -0.2544  0.8500
   56CHL1   C22 5306   2.240   3.626   3.758  0.0047  0.0154  0.3046
   56CHL1  H22A 5307   2.204   3.731   3.760 -0.1576 -0.0450  0.7305
   56CHL1  H22B 5308   2.156   3.555   3.741  0.4674 -0.4178 -0.2013
   56CHL1   C23 5309   2.298   3.602   3.899 -0.7585  0.6643 -0.2467
   56CHL1  H23A 5310   2.327   3.496   3.911  1.3961  1.3537  1.2260
   56CHL1  H23B 5311   2.390   3.665   3.905  0.4677 -0.8784 -1.7644
   56CHL1   C24 5312   2.204   3.626   4.011  0.0676  0.6525 -0.0429
   56CHL1  H24A 5313   2.166   3.730   4.000 -2.1303 -0.2277 -1.5857
   56CHL1  H24B 5314   2.117   3.556   4.006  0.6243 -0.0210 -0.3907
   56CHL1   C25 5315   2.264   3.605   4.147  0.0059 -0.5801 -0.3374
   56CHL1   H25 5316   2.354   3.670   4.135  0.3029 -0.9577 -0.1930
   56CHL1   C26 5317   2.180   3.650   4.265  0.5105 -0.0522  0.0434
   56CHL1  H26A 5318   2.177   3.761   4.272 -0.2064 -0.1246  1.0172
   56CHL1  H26B 5319   2.075   3.617   4.248  0.9562 -0.8840 -1.2367
   56CHL1  H26C 5320   2.217   3.612   4.362  1.8907  0.4411 -0.2667
   56CHL1   C27 5321   2.318   3.460   4.163  0.4761  0.0673 -0.0879
   56CHL1  H27A 5322   2.403   3.431   4.098 -0.7658 -3.7919 -0.2463
   56CHL1  H27B 5323   2.367   3.458   4.263  5.8565  2.7737 -2.2085
   56CHL1  H27C 5324   2.229   3.397   4.144 -0.3021  1.2573 -0.4496
   57CHL1    C3 5325   1.715   1.803   2.437  0.0482  0.2325 -0.0819
   57CHL1    H3 5326   1.820   1.835   2.447  0.2160 -0.8772  2.2783
   57CHL1    O3 5327   1.684   1.779   2.301  1.1079 -0.2942 -0.2108
   57CHL1   H3' 5328   1.736   1.844   2.252 -1.0990 -0.1375 -2.5842
   57CHL1    C4 5329   1.701   1.671   2.515  0.6602  0.0738  0.1966
   57CHL1   H4A 5330   1.607   1.618   2.489  1.6134 -1.6252  0.0665
   57CHL1   H4B 5331   1.776   1.601   2.472 -1.5146 -2.0379 -0.3717
   57CHL1    C5 5332   1.703   1.670   2.663  0.4043 -0.3931 -0.9260
   57CHL1    C6 5333   1.783   1.593   2.734  0.2668  0.0838  0.1482
   57CHL1    H6 5334   1.852   1.524   2.684  1.3104  0.7794  0.6109
   57CHL1    C7 5335   1.796   1.596   2.886  0.2982 -0.0910  0.2446
   57CHL1   H7A 5336   1.793   1.496   2.935 -1.8234 -0.6500 -0.8894
   57CHL1   H7B 5337   1.895   1.636   2.917  0.0063  0.7667  0.1011
   57CHL1    C8 5338   1.689   1.679   2.953  0.4573  0.8891  0.0107
   57CHL1    H8 5339   1.597   1.618   2.962 -0.1101  1.9646  2.0048
   57CHL1   C14 5340   1.736   1.714   3.086  0.1750 -1.1221 -0.7585
   57CHL1   H14 5341   1.813   1.791   3.069 -0.7387 -0.5863 -2.6651
   57CHL1   C15 5342   1.801   1.609   3.178 -1.0652 -0.2614  0.4950
   57CHL1  H15A 5343   1.750   1.511   3.172  1.2397 -1.4698 -0.8514
   57CHL1  H15B 5344   1.906   1.585   3.150 -0.5082  0.2992  1.9804
   57CHL1   C16 5345   1.797   1.675   3.315  0.0056  0.3857  0.5864
   57CHL1  H16A 5346   1.730   1.613   3.378 -0.3508  0.2623  0.0862
   57CHL1  H16B 5347   1.902   1.676   3.352  0.6102 -4.6034 -0.3402
   57CHL1   C17 5348   1.734   1.815   3.308  0.7660 -0.7449  0.4487
   57CHL1   H17 5349   1.819   1.884   3.289  1.6671 -2.6740 -3.2697
   57CHL1   C13 5350   1.646   1.800   3.175  0.1560  0.0342 -0.8509
   57CHL1   C18 5351   1.520   1.731   3.218  0.2399  0.1097 -0.0423
   57CHL1  H18A 5352   1.460   1.796   3.284  0.8683 -0.3146  0.9801
   57CHL1  H18B 5353   1.449   1.713   3.134 -1.6375 -2.2163  1.8804
   57CHL1  H18C 5354   1.533   1.636   3.274  1.8530  1.8723  2.8432
   57CHL1   C12 5355   1.606   1.926   3.096  0.2087  0.4329  0.4415
   57CHL1  H12A 5356   1.531   1.986   3.151  0.8217  2.1137 -0.4933
   57CHL1  H12B 5357   1.701   1.983   3.087  2.0911 -2.7478 -2.5897
   57CHL1   C11 5358   1.552   1.895   2.952 -0.6914  0.8607  0.1882
   57CHL1  H11A 5359   1.462   1.831   2.964 -0.0666 -0.6320 -2.4684
   57CHL1  H11B 5360   1.535   1.994   2.904  0.2399 -0.5641 -3.3911
   57CHL1    C9 5361   1.659   1.805   2.873 -0.0536 -0.1382  0.2192
   57CHL1    H9 5362   1.763   1.844   2.880  0.5761 -1.9858  3.1302
   57CHL1   C10 5363   1.620   1.781   2.726  0.4882 -0.1632 -0.3822
   57CHL1   C19 5364   1.471   1.734   2.720  0.7667  0.9863  0.1812
   57CHL1  H19A 5365   1.450   1.719   2.612  2.9980  0.4523 -0.2393
   57CHL1  H19B 5366   1.455   1.640   2.776 -1.3582  1.5380  0.5987
   57CHL1  H19C 5367   1.401   1.805   2.769 -0.6248 -1.2496  1.6046
   57CHL1    C1 5368   1.631   1.923   2.653  0.6870  0.0892  0.4069
   57CHL1   H1A 5369   1.548   1.990   2.685 -1.5220 -1.7960 -1.0574
   57CHL1   H1B 5370   1.731   1.967   2.674  0.2629  1.3105 -0.0618
   57CHL1    C2 5371   1.623   1.912   2.496 -0.0788 -0.5008 -0.1253
   57CHL1   H2A 5372   1.651   2.004   2.440 -0.1582 -2.0788 -2.9625
   57CHL1   H2B 5373   1.519   1.883   2.472 -0.4364  0.5395  0.0969
   57CHL1   C20 5374   1.664   1.859   3.434 -0.2448 -0.0059  0.6786
   57CHL1   H20 5375   1.586   1.782   3.452 -1.7051  0.3892 -2.9692
   57CHL1   C21 5376   1.606   2.004   3.410  0.1663  0.8275 -0.3450
   57CHL1  H21A 5377   1.510   2.000   3.355  0.9048  2.7996 -1.9190
   57CHL1  H21B 5378   1.679   2.057   3.345  0.7790 -0.8083 -1.0342
   57CHL1  H21C 5379   1.600   2.077   3.493  0.7512  1.9064 -1.2211
   57CHL1   C22 5380   1.762   1.860   3.544  0.1259 -0.1072 -0.4252
   57CHL1  H22A 5381   1.799   1.756   3.558  4.2778  1.0995 -1.0127
   57CHL1  H22B 5382   1.843   1.935   3.532 -0.3513  0.6477  0.8449
   57CHL1   C23 5383   1.697   1.890   3.678 -0.1698 -0.4184 -0.0411
   57CHL1  H23A 5384   1.649   1.990   3.679  2.5197  0.9905 -0.1322
   57CHL1  H23B 5385   1.617   1.815   3.696  0.0982 -0.4755  1.0147
   57CHL1   C24 5386   1.790   1.886   3.802 -0.7357 -0.5127 -0.0180
   57CHL1  H24A 5387   1.827   1.782   3.807 -1.4497 -0.9435 -2.2918
   57CHL1  H24B 5388   1.881   1.947   3.789  0.7896 -2.1913  2.1013
   57CHL1   C25 5389   1.718   1.927   3.934  0.5464 -0.3018  0.2851
   57CHL1   H25 5390   1.641   1.847   3.944 -1.4718  1.3732 -0.9969
   57CHL1   C26 5391   1.824   1.917   4.037 -0.3610  0.2095 -0.7477
   57CHL1  H26A 5392   1.867   1.815   4.036  0.2868  0.4620 -2.3297
   57CHL1  H26B 5393   1.903   1.994   4.019  0.2953  0.0247  1.1507
   57CHL1  H26C 5394   1.779   1.929   4.138  0.5276 -1.4476 -0.1183
   57CHL1   C27 5395   1.640   2.069   3.932  0.2220  1.1309 -0.5373
   57CHL1  H27A 5396   1.596   2.105   4.027  1.3127  4.5984 -1.1988
   57CHL1  H27B 5397   1.711   2.144   3.892 -0.9459  3.1889  1.0562
   57CHL1  H27C 5398   1.561   2.070   3.854 -0.9158 -2.7991  0.3456
   58CHL1    C3 5399   2.101   1.711   2.553 -0.1083  0.5793  0.3223
   58CHL1    H3 5400   2.003   1.673   2.589  0.6816 -0.5180  1.4185
   58CHL1    O3 5401   2.116   1.684   2.411  0.1681 -0.6715  0.1616
   58CHL1   H3' 5402   2.205   1.713   2.392 -0.4377  0.7390 -0.7204
   58CHL1    C4 5403   2.119   1.864   2.581 -0.1358  0.5569 -0.1924
   58CHL1   H4A 5404   2.212   1.914   2.546 -1.6096  2.2509 -1.8904
   58CHL1   H4B 5405   2.045   1.927   2.528 -0.5904  1.5149  1.5147
   58CHL1    C5 5406   2.110   1.888   2.730  0.0553 -0.1406  0.3667
   58CHL1    C6 5407   2.022   1.980   2.780  0.5299  0.2490 -0.6581
   58CHL1    H6 5408   1.960   2.039   2.711 -1.1163 -0.4664  0.1509
   58CHL1    C7 5409   2.015   2.019   2.926 -0.9162  0.4096 -0.5791
   58CHL1   H7A 5410   2.004   2.129   2.941 -1.0222 -0.0095  3.5120
   58CHL1   H7B 5411   1.916   1.983   2.963 -0.9131 -0.1527 -1.1132
   58CHL1    C8 5412   2.134   1.956   3.014  0.4545  0.4956 -0.0950
   58CHL1    H8 5413   2.233   2.003   2.993  2.7724 -3.4364  1.0426
   58CHL1   C14 5414   2.099   1.961   3.159 -0.1412 -0.4926  0.6477
   58CHL1   H14 5415   2.006   1.901   3.167  0.8525 -1.8863  2.4662
   58CHL1   C15 5416   2.066   2.098   3.217 -0.4138 -0.7994 -0.0517
   58CHL1  H15A 5417   2.132   2.177   3.175  0.9621 -0.5285  2.3776
   58CHL1  H15B 5418   1.968   2.143   3.193  1.2950  3.2409 -0.3387
   58CHL1   C16 5419   2.089   2.084   3.370 -0.2622  0.0826  0.3360
   58CHL1  H16A 5420   2.178   2.141   3.404 -0.1541  0.3241 -0.3431
   58CHL1  H16B 5421   2.000   2.109   3.433 -0.1863 -0.8251  0.8083
   58CHL1   C17 5422   2.129   1.937   3.390  0.9451  0.2058  0.2510
   58CHL1   H17 5423   2.043   1.867   3.393  0.7573  0.4591  0.8221
   58CHL1   C13 5424   2.201   1.902   3.253 -0.2400  0.1120 -0.1052
   58CHL1   C18 5425   2.342   1.973   3.236  0.2082  0.7928 -0.1363
   58CHL1  H18A 5426   2.378   1.983   3.131 -1.7520  0.3189 -0.9082
   58CHL1  H18B 5427   2.337   2.079   3.267 -1.0807  0.5739  0.4944
   58CHL1  H18C 5428   2.426   1.920   3.285  0.3508  0.8858 -0.2826
   58CHL1   C12 5429   2.208   1.752   3.222 -0.3847 -0.1326  1.1922
   58CHL1  H12A 5430   2.288   1.710   3.286  0.5963 -0.4061 -0.1719
   58CHL1  H12B 5431   2.117   1.704   3.264 -2.3152  0.9209 -1.4800
   58CHL1   C11 5432   2.250   1.730   3.077 -0.3330  1.0850 -0.3963
   58CHL1  H11A 5433   2.354   1.762   3.056  0.6453 -2.1170 -1.0969
   58CHL1  H11B 5434   2.243   1.622   3.049 -0.3169  1.0184 -0.1459
   58CHL1    C9 5435   2.158   1.811   2.974 -1.0902  0.4404  0.2703
   58CHL1    H9 5436   2.054   1.771   2.976 -0.4812 -1.2114  0.7464
   58CHL1   C10 5437   2.199   1.800   2.820  0.1887 -0.2597  0.2631
   58CHL1   C19 5438   2.342   1.843   2.800  0.0918 -0.0072  0.1488
   58CHL1  H19A 5439   2.415   1.791   2.866 -0.4470 -1.4770 -0.3771
   58CHL1  H19B 5440   2.376   1.836   2.695 -0.9019 -1.4813 -0.0922
   58CHL1  H19C 5441   2.350   1.951   2.827  2.5207  0.1311 -0.8339
   58CHL1    C1 5442   2.181   1.645   2.785 -0.0919 -0.8332 -0.3167
   58CHL1   H1A 5443   2.266   1.592   2.834 -0.1324  1.0883  1.9995
   58CHL1   H1B 5444   2.080   1.603   2.802  1.2503 -4.0723  0.3749
   58CHL1    C2 5445   2.205   1.631   2.631  0.6427 -0.2810 -0.6400
   58CHL1   H2A 5446   2.194   1.528   2.591  1.0386 -0.5030 -0.1878
   58CHL1   H2B 5447   2.308   1.668   2.611  0.8766  0.7216  2.0736
   58CHL1   C20 5448   2.207   1.912   3.527  0.1323 -0.4205 -0.6357
   58CHL1   H20 5449   2.286   1.989   3.540 -2.2314  1.8344  1.9236
   58CHL1   C21 5450   2.273   1.779   3.525 -0.2220  0.2215 -0.1030
   58CHL1  H21A 5451   2.362   1.786   3.458  1.2656  1.3010  1.8716
   58CHL1  H21B 5452   2.209   1.698   3.484 -0.7058  1.0712 -1.0772
   58CHL1  H21C 5453   2.295   1.745   3.628 -1.4394 -1.7752 -0.4547
   58CHL1   C22 5454   2.105   1.929   3.648 -0.6134 -0.0702 -0.3958
   58CHL1  H22A 5455   2.018   1.988   3.611 -0.8537 -0.8234 -1.0698
   58CHL1  H22B 5456   2.066   1.828   3.674 -0.3689  0.2376  1.2451
   58CHL1   C23 5457   2.160   1.994   3.773 -0.0325  0.1433  0.5262
   58CHL1  H23A 5458   2.195   2.100   3.768  1.1852 -0.2672 -0.2534
   58CHL1  H23B 5459   2.074   1.996   3.843  0.8248 -0.0299  1.6047
   58CHL1   C24 5460   2.270   1.910   3.843  0.3265  0.0831  0.0158
   58CHL1  H24A 5461   2.212   1.816   3.855 -1.4025  1.1187  0.2004
   58CHL1  H24B 5462   2.351   1.893   3.770  1.1274 -0.3134  0.9692
   58CHL1   C25 5463   2.313   1.952   3.985  0.0368  0.0529 -0.8696
   58CHL1   H25 5464   2.218   1.940   4.042 -0.2866 -3.0558 -1.8616
   58CHL1   C26 5465   2.411   1.849   4.050  0.5553  0.1196  0.4343
   58CHL1  H26A 5466   2.412   1.855   4.161 -0.4694 -0.4012  0.4814
   58CHL1  H26B 5467   2.381   1.746   4.021 -2.3651  0.2184  2.6283
   58CHL1  H26C 5468   2.514   1.869   4.012  1.7025  0.5709  3.4583
   58CHL1   C27 5469   2.361   2.096   4.000 -0.8749  0.1021 -0.1442
   58CHL1  H27A 5470   2.426   2.109   4.089 -1.3096 -0.6152  0.2857
   58CHL1  H27B 5471   2.421   2.139   3.917 -2.8939  0.9899 -1.2050
   58CHL1  H27C 5472   2.273   2.164   4.007 -1.9411 -1.0298 -1.7913
   59CHL1    C3 5473   0.030   6.101   2.742 -0.4118  0.0188 -0.2304
   59CHL1    H3 5474  -0.062   6.150   2.781  0.6916  1.6593  0.4310
   59CHL1    O3 5475  -0.002   6.062   2.611  0.1934 -0.1958 -0.2739
   59CHL1   H3' 5476  -0.004   5.966   2.611  2.4846 -0.3057 -0.0735
   59CHL1    C4 5477   0.134   6.212   2.737 -0.6544  0.1682 -0.1842
   59CHL1   H4A 5478   0.213   6.172   2.670 -1.4409 -2.9493  0.5866
   59CHL1   H4B 5479   0.088   6.298   2.683  0.2730  0.4238 -0.5785
   59CHL1    C5 5480   0.192   6.259   2.867  0.5282  0.0140 -0.2605
   59CHL1    C6 5481   0.189   6.391   2.900  0.4153  0.2324 -0.5231
   59CHL1    H6 5482   0.152   6.460   2.822 -2.7315 -1.8357 -1.0591
   59CHL1    C7 5483   0.228   6.451   3.034 -0.5502 -0.0253 -0.0075
   59CHL1   H7A 5484   0.295   6.538   3.015  0.7656 -1.2339 -1.0867
   59CHL1   H7B 5485   0.130   6.491   3.068 -0.9012  0.4234 -1.4755
   59CHL1    C8 5486   0.307   6.352   3.121 -0.6942 -0.2197 -0.9902
   59CHL1    H8 5487   0.410   6.357   3.081 -0.4682  2.5817 -0.2602
   59CHL1   C14 5488   0.306   6.404   3.262  0.5320 -0.1241  0.4496
   59CHL1   H14 5489   0.200   6.393   3.290  0.3683  1.6094  0.6022
   59CHL1   C15 5490   0.365   6.549   3.292  0.2599  0.3952 -0.3624
   59CHL1  H15A 5491   0.459   6.560   3.234 -0.7540 -0.2510 -2.2071
   59CHL1  H15B 5492   0.293   6.625   3.255  0.6068  0.3512 -1.1646
   59CHL1   C16 5493   0.391   6.551   3.443  0.6081  0.2468 -0.0945
   59CHL1  H16A 5494   0.489   6.600   3.458  0.5215  0.2014  0.6461
   59CHL1  H16B 5495   0.317   6.611   3.500 -0.0052 -1.0157  0.4951
   59CHL1   C17 5496   0.384   6.403   3.484  0.0973  0.3463 -0.4272
   59CHL1   H17 5497   0.288   6.395   3.540  0.8597 -1.7533  0.7137
   59CHL1   C13 5498   0.381   6.321   3.358  0.3433 -0.1268 -0.1721
   59CHL1   C18 5499   0.522   6.295   3.308 -0.3603  0.0227  0.2964
   59CHL1  H18A 5500   0.525   6.246   3.208 -0.4032 -1.1112  0.8345
   59CHL1  H18B 5501   0.581   6.389   3.303  0.7523 -0.7441 -2.8539
   59CHL1  H18C 5502   0.571   6.215   3.367 -2.4237 -1.4313  0.1372
   59CHL1   C12 5503   0.311   6.182   3.359  0.0352  0.0644 -0.6347
   59CHL1  H12A 5504   0.353   6.112   3.434  0.0971 -0.1450 -0.8642
   59CHL1  H12B 5505   0.205   6.195   3.391 -0.4434  1.7346 -2.6633
   59CHL1   C11 5506   0.304   6.119   3.218 -0.1080 -0.8432  0.4796
   59CHL1  H11A 5507   0.405   6.081   3.193 -0.4998 -0.3933 -1.9915
   59CHL1  H11B 5508   0.247   6.024   3.230  0.0342 -1.5587 -3.3015
   59CHL1    C9 5509   0.243   6.208   3.117  0.2578  0.3366  0.1090
   59CHL1    H9 5510   0.138   6.225   3.149 -0.1295  1.3086 -1.5851
   59CHL1   C10 5511   0.237   6.150   2.970 -0.2985  0.8587 -0.3194
   59CHL1   C19 5512   0.379   6.104   2.927  0.3250 -0.1641 -0.6151
   59CHL1  H19A 5513   0.426   6.033   2.998 -0.1623 -0.3012 -0.4197
   59CHL1  H19B 5514   0.359   6.042   2.837  3.3942 -0.2741 -1.3007
   59CHL1  H19C 5515   0.457   6.179   2.903 -1.1381  0.8812 -2.3720
   59CHL1    C1 5516   0.137   6.034   2.959  0.4757 -0.0673  0.3376
   59CHL1   H1A 5517   0.185   5.943   3.002  0.6584  0.1389  0.5712
   59CHL1   H1B 5518   0.049   6.054   3.022 -0.7840 -2.6524 -0.4445
   59CHL1    C2 5519   0.084   5.987   2.831 -0.3282  0.7179  0.1451
   59CHL1   H2A 5520   0.008   5.908   2.845 -1.0556  1.5531  1.0611
   59CHL1   H2B 5521   0.174   5.954   2.775 -0.5866 -4.8376  2.4178
   59CHL1   C20 5522   0.488   6.369   3.601  0.1876 -1.1502  0.8682
   59CHL1   H20 5523   0.591   6.359   3.562  0.9791  2.8299  1.4548
   59CHL1   C21 5524   0.455   6.236   3.673  0.1959  0.1083 -0.1771
   59CHL1  H21A 5525   0.519   6.234   3.764 -0.2161 -3.0616  0.1467
   59CHL1  H21B 5526   0.460   6.146   3.608 -1.0417  0.1231 -0.3130
   59CHL1  H21C 5527   0.349   6.237   3.707  0.4220 -3.7223  1.1340
   59CHL1   C22 5528   0.497   6.480   3.710 -0.0243 -0.1772  0.5868
   59CHL1  H22A 5529   0.564   6.449   3.794 -1.3536 -2.5827  0.8537
   59CHL1  H22B 5530   0.543   6.574   3.674  1.9373 -1.7567 -1.3186
   59CHL1   C23 5531   0.371   6.520   3.784  0.0675 -0.2962  0.3080
   59CHL1  H23A 5532   0.291   6.539   3.709  2.8201  1.6630 -2.4017
   59CHL1  H23B 5533   0.333   6.442   3.854  0.1018 -1.5890 -1.0465
   59CHL1   C24 5534   0.389   6.659   3.847  0.2446 -0.8688 -0.0113
   59CHL1  H24A 5535   0.474   6.649   3.919  1.1582 -0.4477 -1.0044
   59CHL1  H24B 5536   0.408   6.742   3.776 -0.8050  1.0366  1.8417
   59CHL1   C25 5537   0.273   6.716   3.923  0.6364  0.5294 -0.7764
   59CHL1   H25 5538   0.222   6.632   3.974 -1.5698  1.2582 -1.6442
   59CHL1   C26 5539   0.301   6.816   4.027  0.1668  0.0091  0.4121
   59CHL1  H26A 5540   0.382   6.886   3.996  1.1008 -0.6814  1.2600
   59CHL1  H26B 5541   0.214   6.883   4.048 -0.1974  0.0207 -1.0047
   59CHL1  H26C 5542   0.330   6.771   4.124 -3.6648 -1.0820  1.2067
   59CHL1   C27 5543   0.156   6.775   3.829 -0.2982  0.1375 -0.3189
   59CHL1  H27A 5544   0.125   6.700   3.753 -0.0167 -0.5641  0.2549
   59CHL1  H27B 5545   0.067   6.795   3.892  0.0792 -1.3358  0.7123
   59CHL1  H27C 5546   0.197   6.866   3.779 -0.4835 -0.1550 -1.0203
   60CHL1    C3 5547   2.566   0.918   2.987 -0.3403  0.0129  0.3382
   60CHL1    H3 5548   2.525   1.021   2.984  2.0818  1.0699  0.8170
   60CHL1    O3 5549   2.608   0.869   2.862 -0.3514  0.6724  0.1612
   60CHL1   H3' 5550   2.680   0.925   2.831 -0.3211 -0.2651 -1.6247
   60CHL1    C4 5551   2.687   0.916   3.083  0.0294 -0.1797 -0.3687
   60CHL1   H4A 5552   2.731   0.813   3.077  0.3573 -0.0671  0.0660
   60CHL1   H4B 5553   2.771   0.982   3.053 -0.2412 -0.9739 -3.1679
   60CHL1    C5 5554   2.638   0.936   3.226 -0.8591  0.4920  0.1355
   60CHL1    C6 5555   2.690   1.036   3.303 -0.2221 -0.2672  0.6689
   60CHL1    H6 5556   2.771   1.097   3.261 -0.1842 -1.0868 -0.5295
   60CHL1    C7 5557   2.644   1.069   3.438  0.0417 -0.4565  0.0170
   60CHL1   H7A 5558   2.727   1.101   3.505  1.3884 -2.3658 -0.6625
   60CHL1   H7B 5559   2.571   1.153   3.439  0.5095 -0.0425  0.8899
   60CHL1    C8 5560   2.571   0.949   3.499  0.0250  0.5845 -0.4626
   60CHL1    H8 5561   2.646   0.869   3.520  0.7473  0.9553 -1.5516
   60CHL1   C14 5562   2.504   0.990   3.629  0.6546  0.1597 -0.3448
   60CHL1   H14 5563   2.433   1.072   3.605  0.6962  0.3351  0.1231
   60CHL1   C15 5564   2.588   1.048   3.742 -0.9395  0.5917  0.5339
   60CHL1  H15A 5565   2.677   0.982   3.738 -1.1460  0.2151  1.7612
   60CHL1  H15B 5566   2.616   1.153   3.717  1.5726  0.4035  2.1153
   60CHL1   C16 5567   2.509   1.031   3.871  0.1870  0.2154  0.3933
   60CHL1  H16A 5568   2.571   0.971   3.940  0.7632  0.5493  0.1656
   60CHL1  H16B 5569   2.482   1.129   3.916 -0.6989 -0.7422  2.0480
   60CHL1   C17 5570   2.379   0.952   3.828 -0.7737 -0.2793  0.1919
   60CHL1   H17 5571   2.290   1.016   3.809 -0.8010 -0.6777 -1.1164
   60CHL1   C13 5572   2.423   0.878   3.698 -0.8777 -0.4848  0.1018
   60CHL1   C18 5573   2.517   0.763   3.727 -0.1676  0.1713  0.7162
   60CHL1  H18A 5574   2.555   0.707   3.639  2.5159  1.3494  1.0112
   60CHL1  H18B 5575   2.607   0.790   3.787  0.4836  0.7434 -0.4764
   60CHL1  H18C 5576   2.459   0.687   3.784 -0.0602 -0.3496  0.1308
   60CHL1   C12 5577   2.310   0.830   3.609  0.4273  0.4026 -0.4747
   60CHL1  H12A 5578   2.267   0.737   3.651  2.2216  0.0456  0.6870
   60CHL1  H12B 5579   2.251   0.924   3.606 -1.8696 -0.8499  1.9191
   60CHL1   C11 5580   2.356   0.797   3.471  0.0737 -0.1099  0.5845
   60CHL1  H11A 5581   2.412   0.701   3.467  0.4965  0.1608 -2.2782
   60CHL1  H11B 5582   2.270   0.779   3.403  0.1411 -2.0368  0.9543
   60CHL1    C9 5583   2.460   0.899   3.408 -0.0256 -0.6409 -0.2638
   60CHL1    H9 5584   2.396   0.989   3.393 -1.2643 -0.7100  3.5109
   60CHL1   C10 5585   2.522   0.844   3.278 -0.5911 -0.3594 -0.3939
   60CHL1   C19 5586   2.604   0.709   3.290  0.1486  0.2790  0.1250
   60CHL1  H19A 5587   2.529   0.633   3.324  1.3013 -1.4092 -0.9240
   60CHL1  H19B 5588   2.655   0.665   3.201  0.8643 -0.1629  0.7391
   60CHL1  H19C 5589   2.685   0.719   3.365  1.1005  2.3025 -1.1117
   60CHL1    C1 5590   2.403   0.837   3.174 -0.8249  0.1910  0.3061
   60CHL1   H1A 5591   2.344   0.748   3.205 -1.8609  0.6066 -0.4285
   60CHL1   H1B 5592   2.342   0.929   3.172 -1.9442 -0.5295 -1.3155
   60CHL1    C2 5593   2.455   0.825   3.028 -0.0362  1.0064 -0.6445
   60CHL1   H2A 5594   2.373   0.842   2.955 -0.4982  1.3584 -0.0522
   60CHL1   H2B 5595   2.498   0.722   3.025 -0.8839  0.6376 -0.4584
   60CHL1   C20 5596   2.330   0.862   3.944 -0.4180  0.4840 -0.8540
   60CHL1   H20 5597   2.354   0.755   3.928 -2.1480 -0.1288  0.3503
   60CHL1   C21 5598   2.174   0.857   3.938 -0.4775 -0.1899  0.2974
   60CHL1  H21A 5599   2.145   0.964   3.944 -1.8899 -0.5739  0.7546
   60CHL1  H21B 5600   2.128   0.798   4.020  0.3754  0.0889  0.9942
   60CHL1  H21C 5601   2.153   0.806   3.842 -0.5747 -1.8698  1.1783
   60CHL1   C22 5602   2.367   0.901   4.093  0.1525 -0.1422 -0.4711
   60CHL1  H22A 5603   2.476   0.893   4.112  0.0008 -6.1312 -0.2922
   60CHL1  H22B 5604   2.343   1.010   4.098  0.3980 -0.1396  0.8973
   60CHL1   C23 5605   2.303   0.835   4.218  0.3518 -0.7166 -0.0873
   60CHL1  H23A 5606   2.198   0.870   4.226  0.9152  0.6262  1.8900
   60CHL1  H23B 5607   2.301   0.724   4.209  1.2637 -0.6873 -0.7415
   60CHL1   C24 5608   2.367   0.877   4.351  0.1434 -0.2411  0.3937
   60CHL1  H24A 5609   2.476   0.858   4.342  0.1768 -0.1207  0.5552
   60CHL1  H24B 5610   2.356   0.988   4.347 -1.2761 -0.3894 -0.8360
   60CHL1   C25 5611   2.301   0.819   4.485 -0.7926 -0.5165  0.5953
   60CHL1   H25 5612   2.190   0.809   4.482 -0.7686 -0.6106 -0.3228
   60CHL1   C26 5613   2.359   0.681   4.500 -0.0143 -0.2555 -0.5952
   60CHL1  H26A 5614   2.469   0.691   4.516 -0.0297  1.1607 -1.1983
   60CHL1  H26B 5615   2.327   0.620   4.586 -1.2890 -0.5920 -1.2909
   60CHL1  H26C 5616   2.344   0.628   4.404  1.4068 -1.4541 -0.1893
   60CHL1   C27 5617   2.341   0.909   4.603  0.2572  0.2933 -0.4638
   60CHL1  H27A 5618   2.308   0.863   4.699  1.2547  1.3171  0.3839
   60CHL1  H27B 5619   2.451   0.910   4.615  0.0969  1.2928  1.2062
   60CHL1  H27C 5620   2.287   1.006   4.596 -0.1842  0.0882 -0.0347
   61CHL1    C3 5621   3.852   4.357   2.523 -0.5934 -0.4386 -0.0542
   61CHL1    H3 5622   3.842   4.467   2.536 -2.0089 -0.5794  0.2441
   61CHL1    O3 5623   3.802   4.328   2.395  0.6870 -0.4479  0.1370
   61CHL1   H3' 5624   3.750   4.247   2.398 -0.7580  0.4408  0.4163
   61CHL1    C4 5625   3.995   4.300   2.535  0.0753 -0.0914 -0.0567
   61CHL1   H4A 5626   3.989   4.191   2.518 -0.1347  0.0170 -0.6741
   61CHL1   H4B 5627   4.069   4.333   2.460  0.1750 -2.9299 -1.3209
   61CHL1    C5 5628   4.055   4.318   2.673 -0.2356 -0.1454 -0.0998
   61CHL1    C6 5629   4.173   4.382   2.695 -0.6580 -0.3673 -0.3246
   61CHL1    H6 5630   4.224   4.426   2.608  0.6624  0.6050  0.9037
   61CHL1    C7 5631   4.225   4.423   2.827 -0.6391 -0.2227 -0.3975
   61CHL1   H7A 5632   4.336   4.421   2.831 -0.6554 -0.4007  0.0231
   61CHL1   H7B 5633   4.203   4.529   2.852 -1.4699 -0.3295 -0.6684
   61CHL1    C8 5634   4.159   4.337   2.943 -0.4599  0.0247  0.1500
   61CHL1    H8 5635   4.197   4.233   2.938  0.2939  0.3254 -0.4842
   61CHL1   C14 5636   4.172   4.401   3.083  0.1292  0.2249 -0.5905
   61CHL1   H14 5637   4.110   4.493   3.087  0.4991  0.5051 -1.1098
   61CHL1   C15 5638   4.318   4.439   3.105 -0.1510  0.2314 -0.7961
   61CHL1  H15A 5639   4.383   4.371   3.045 -0.9700 -1.6964  0.4071
   61CHL1  H15B 5640   4.326   4.544   3.069 -0.5657  0.0780 -1.3428
   61CHL1   C16 5641   4.329   4.420   3.258 -0.8062 -0.5643  0.0675
   61CHL1  H16A 5642   4.399   4.335   3.273  0.0796 -0.7517 -3.9605
   61CHL1  H16B 5643   4.368   4.514   3.303 -0.2248 -0.3814 -0.8054
   61CHL1   C17 5644   4.187   4.383   3.312  0.0935  0.3789  0.9024
   61CHL1   H17 5645   4.134   4.479   3.329 -0.2327  0.1062  1.4435
   61CHL1   C13 5646   4.122   4.318   3.192 -0.0475  0.1194  0.2038
   61CHL1   C18 5647   4.173   4.172   3.185 -0.0898  0.3883  0.6878
   61CHL1  H18A 5648   4.187   4.119   3.282  0.1626  1.3980  1.2091
   61CHL1  H18B 5649   4.115   4.112   3.112  2.5015 -0.9598 -0.4005
   61CHL1  H18C 5650   4.272   4.176   3.135 -0.5601 -0.1608 -0.3205
   61CHL1   C12 5651   3.968   4.316   3.175 -0.7767 -0.3878 -0.5346
   61CHL1  H12A 5652   3.908   4.258   3.249 -1.1587  1.9194  1.0800
   61CHL1  H12B 5653   3.942   4.423   3.194  1.5206  0.0208  0.6986
   61CHL1   C11 5654   3.923   4.270   3.035  0.4387  0.4096  0.9767
   61CHL1  H11A 5655   3.911   4.160   3.037 -0.9693  0.5457  2.4293
   61CHL1  H11B 5656   3.823   4.317   3.021 -0.4889 -1.5238  0.8733
   61CHL1    C9 5657   4.004   4.328   2.919  0.1901  0.0966  0.3728
   61CHL1    H9 5658   3.984   4.437   2.914  1.9042  0.4495  0.5717
   61CHL1   C10 5659   3.960   4.270   2.786  0.2030 -0.4991  0.3280
   61CHL1   C19 5660   3.959   4.116   2.797  0.2130  0.9282 -0.4973
   61CHL1  H19A 5661   3.873   4.083   2.859  0.5830  0.6393 -0.1335
   61CHL1  H19B 5662   3.935   4.060   2.704 -0.5739 -1.2512  0.9450
   61CHL1  H19C 5663   4.059   4.079   2.829 -0.0482  0.4459 -0.2247
   61CHL1    C1 5664   3.807   4.312   2.761 -0.6875  0.7257 -0.2831
   61CHL1   H1A 5665   3.750   4.252   2.836  0.2841 -0.7554 -0.6767
   61CHL1   H1B 5666   3.794   4.420   2.781 -0.6787  0.6907 -0.0839
   61CHL1    C2 5667   3.750   4.295   2.617  0.0489 -0.6056 -0.3558
   61CHL1   H2A 5668   3.649   4.339   2.604  0.3884  0.5104  0.6006
   61CHL1   H2B 5669   3.745   4.187   2.588 -1.7736 -0.8855  0.8179
   61CHL1   C20 5670   4.186   4.314   3.450 -0.0711  0.5324 -0.0128
   61CHL1   H20 5671   4.246   4.220   3.444  2.3636  1.9434  0.9195
   61CHL1   C21 5672   4.035   4.283   3.487  0.2208 -0.3968 -0.3284
   61CHL1  H21A 5673   3.972   4.370   3.459 -0.3717 -0.5557  0.4653
   61CHL1  H21B 5674   4.042   4.263   3.596  0.3740 -0.0435 -0.2725
   61CHL1  H21C 5675   3.990   4.191   3.443  0.6626 -0.9724  0.3967
   61CHL1   C22 5676   4.252   4.389   3.563 -0.1347  0.4176  0.1689
   61CHL1  H22A 5677   4.344   4.447   3.544 -0.1449  0.6004  0.6574
   61CHL1  H22B 5678   4.179   4.467   3.594 -2.7861 -1.3938 -1.0490
   61CHL1   C23 5679   4.273   4.309   3.690 -0.0325  0.8883  0.1617
   61CHL1  H23A 5680   4.186   4.257   3.735 -0.7822  2.2571  0.3331
   61CHL1  H23B 5681   4.353   4.234   3.667 -1.4755 -0.4279 -0.7287
   61CHL1   C24 5682   4.331   4.397   3.809  0.3620 -0.1664  0.7269
   61CHL1  H24A 5683   4.418   4.445   3.759 -0.0989 -1.8289 -1.8630
   61CHL1  H24B 5684   4.252   4.468   3.840  0.5268 -0.1627  1.1480
   61CHL1   C25 5685   4.386   4.303   3.916 -0.4116  0.6896  0.0894
   61CHL1   H25 5686   4.297   4.241   3.937 -0.1678  0.5699  0.7839
   61CHL1   C26 5687   4.510   4.216   3.881  0.7001  0.5979 -0.3785
   61CHL1  H26A 5688   4.601   4.277   3.861  1.4723 -0.3852  0.0481
   61CHL1  H26B 5689   4.545   4.161   3.972  1.7519  2.0646  0.1477
   61CHL1  H26C 5690   4.486   4.144   3.800 -2.6443  0.8546  0.2566
   61CHL1   C27 5691   4.425   4.389   4.041  0.3629  0.0592 -0.6654
   61CHL1  H27A 5692   4.488   4.478   4.022 -0.2463  0.2098 -2.1323
   61CHL1  H27B 5693   4.332   4.433   4.082  0.7758 -0.1451  0.5092
   61CHL1  H27C 5694   4.473   4.332   4.123 -1.9014 -0.2401  0.5215
   62CHL1    C3 5695   6.292   2.388   2.883  0.1080 -0.1642  0.0219
   62CHL1    H3 5696   6.400   2.389   2.907  0.0543 -0.1412  0.2581
   62CHL1    O3 5697   6.276   2.445   2.753  0.3881  0.6146  0.3665
   62CHL1   H3' 5698   6.227   2.372   2.714 -1.2472  1.0843  1.4306
   62CHL1    C4 5699   6.242   2.250   2.888  0.0521 -0.2646  0.1612
   62CHL1   H4A 5700   6.135   2.244   2.857  0.4190  0.2932 -1.3307
   62CHL1   H4B 5701   6.306   2.201   2.812 -0.3998  1.1963 -1.2371
   62CHL1    C5 5702   6.257   2.190   3.029  0.3024  0.3583  0.2559
   62CHL1    C6 5703   6.328   2.083   3.053 -0.2869 -0.1740  0.5841
   62CHL1    H6 5704   6.376   2.027   2.971 -2.6786 -1.6046  0.0610
   62CHL1    C7 5705   6.326   2.008   3.184  0.3795 -0.2193  0.5553
   62CHL1   H7A 5706   6.298   1.901   3.181 -1.7141  0.3090 -1.2451
   62CHL1   H7B 5707   6.423   2.019   3.238 -0.0512  1.1776  1.0940
   62CHL1    C8 5708   6.231   2.070   3.287  0.5950  0.8826 -0.9122
   62CHL1    H8 5709   6.130   2.027   3.269  0.5264  0.3916  0.5012
   62CHL1   C14 5710   6.266   2.033   3.435 -0.7004  0.2184 -0.7407
   62CHL1   H14 5711   6.358   2.092   3.457  0.5444 -2.0266  0.4481
   62CHL1   C15 5712   6.308   1.889   3.467 -0.0014 -0.3751  0.1752
   62CHL1  H15A 5713   6.249   1.805   3.425 -2.2537 -0.6346  3.4340
   62CHL1  H15B 5714   6.417   1.882   3.445 -0.0615  0.4526 -0.3777
   62CHL1   C16 5715   6.296   1.888   3.627  0.0343  0.8244  0.5582
   62CHL1  H16A 5716   6.241   1.798   3.663  2.1447 -0.5395  0.5577
   62CHL1  H16B 5717   6.392   1.885   3.683 -0.3091  0.3185  1.1202
   62CHL1   C17 5718   6.218   2.020   3.676 -0.2665 -0.0543 -0.3049
   62CHL1   H17 5719   6.305   2.079   3.712 -0.1908 -0.7921  0.7748
   62CHL1   C13 5720   6.159   2.074   3.548 -0.0504 -0.3539 -0.8518
   62CHL1   C18 5721   6.029   2.004   3.515  0.8602  0.3539  0.2316
   62CHL1  H18A 5722   5.950   2.036   3.586 -2.4852 -1.1306 -2.5310
   62CHL1  H18B 5723   5.990   2.036   3.416  2.3778 -0.0134 -0.5206
   62CHL1  H18C 5724   6.041   1.894   3.522  0.9502  0.3897  0.6515
   62CHL1   C12 5725   6.169   2.225   3.532 -0.8824  0.2437 -0.1020
   62CHL1  H12A 5726   6.107   2.275   3.609 -1.0456 -2.3907  1.6077
   62CHL1  H12B 5727   6.271   2.245   3.571 -0.6322 -3.3167  1.4857
   62CHL1   C11 5728   6.134   2.282   3.395 -0.3396 -0.1950  0.5532
   62CHL1  H11A 5729   6.024   2.263   3.387 -0.2008 -1.0175  0.4955
   62CHL1  H11B 5730   6.149   2.392   3.402  1.9761 -0.3950 -0.3714
   62CHL1    C9 5731   6.223   2.222   3.275 -0.3996  0.5785  0.1774
   62CHL1    H9 5732   6.324   2.260   3.301 -0.6580  0.8023  0.8921
   62CHL1   C10 5733   6.178   2.273   3.133  0.2836  0.8602  0.0710
   62CHL1   C19 5734   6.025   2.245   3.104  0.0160  0.4022 -0.0691
   62CHL1  H19A 5735   5.957   2.292   3.178  1.0966 -0.7541  1.7663
   62CHL1  H19B 5736   5.994   2.284   3.006 -0.2941 -0.1740 -0.2074
   62CHL1  H19C 5737   5.997   2.137   3.110 -2.8636  1.1171  0.4431
   62CHL1    C1 5738   6.207   2.429   3.122 -0.7233  0.1456  0.5374
   62CHL1   H1A 5739   6.128   2.482   3.179 -0.5790  0.8968  0.0567
   62CHL1   H1B 5740   6.306   2.445   3.170  0.1783  0.6668 -1.3774
   62CHL1    C2 5741   6.218   2.489   2.977 -0.5825 -0.2654 -0.3369
   62CHL1   H2A 5742   6.268   2.588   2.974  2.3778 -1.6693 -2.2485
   62CHL1   H2B 5743   6.119   2.510   2.932  0.3256  2.8349 -1.1541
   62CHL1   C20 5744   6.123   1.990   3.790 -0.0609 -0.8066  0.4086
   62CHL1   H20 5745   6.038   1.920   3.774 -0.2849 -0.4190 -0.1069
   62CHL1   C21 5746   6.063   2.125   3.841 -0.1907 -0.4167 -0.4865
   62CHL1  H21A 5747   5.999   2.098   3.928 -0.6208 -2.6859 -1.4268
   62CHL1  H21B 5748   5.993   2.159   3.763 -0.9720  1.9912  1.1578
   62CHL1  H21C 5749   6.139   2.203   3.863 -0.1867 -0.7679  0.8308
   62CHL1   C22 5750   6.203   1.926   3.908 -0.3431  0.2349  0.3828
   62CHL1  H22A 5751   6.263   1.842   3.867  0.3695  0.4670  0.9311
   62CHL1  H22B 5752   6.290   1.994   3.920 -0.5687  1.2903 -2.9329
   62CHL1   C23 5753   6.128   1.889   4.036  1.0602  0.1981 -0.7069
   62CHL1  H23A 5754   6.079   1.981   4.075  0.8245  0.5915 -1.8838
   62CHL1  H23B 5755   6.054   1.808   4.017  0.2831  0.2239  1.8147
   62CHL1   C24 5756   6.212   1.825   4.147 -0.3321  0.5952 -0.2292
   62CHL1  H24A 5757   6.225   1.719   4.118 -2.4740 -0.1948  1.3874
   62CHL1  H24B 5758   6.319   1.855   4.143 -0.2140  0.0838 -1.7098
   62CHL1   C25 5759   6.159   1.844   4.281  0.3988 -0.5580 -0.4888
   62CHL1   H25 5760   6.170   1.951   4.307 -1.1307 -0.7583  1.1767
   62CHL1   C26 5761   6.017   1.793   4.299  0.5463 -0.5712 -0.2037
   62CHL1  H26A 5762   6.010   1.696   4.245  0.4709  1.0503 -3.2812
   62CHL1  H26B 5763   6.007   1.794   4.410  0.8499  2.4870 -0.1336
   62CHL1  H26C 5764   5.948   1.866   4.252  0.2940 -0.8859 -0.3249
   62CHL1   C27 5765   6.245   1.784   4.398  0.4352 -0.2600 -0.0550
   62CHL1  H27A 5766   6.350   1.820   4.387  0.6436 -0.5470  0.9331
   62CHL1  H27B 5767   6.197   1.805   4.496  2.2371  0.2433  0.7615
   62CHL1  H27C 5768   6.256   1.674   4.388 -0.3325 -0.3960  0.5408
   63CHL1    C3 5769   1.404   6.459   2.951  0.2362  0.0122  0.2144
   63CHL1    H3 5770   1.471   6.547   2.963 -0.2877  0.3902  0.4091
   63CHL1    O3 5771   1.388   6.461   2.809  0.0259 -0.2980  0.0802
   63CHL1   H3' 5772   1.320   6.526   2.790  1.0400  0.7721 -0.0724
   63CHL1    C4 5773   1.458   6.321   2.996  0.1856  0.2719 -0.3085
   63CHL1   H4A 5774   1.381   6.243   2.979  0.5012 -0.1109 -0.0158
   63CHL1   H4B 5775   1.545   6.302   2.929 -0.4573  0.7605 -1.3072
   63CHL1    C5 5776   1.488   6.315   3.149 -0.0312 -0.1334  0.5480
   63CHL1    C6 5777   1.611   6.277   3.202  0.1329  0.1444 -0.5660
   63CHL1    H6 5778   1.693   6.255   3.132  1.2297  0.7725  0.5011
   63CHL1    C7 5779   1.648   6.270   3.349  0.0043 -0.2042  0.1584
   63CHL1   H7A 5780   1.689   6.171   3.377 -0.1022 -0.9744 -2.1963
   63CHL1   H7B 5781   1.727   6.345   3.369 -0.6393  0.1964  1.2728
   63CHL1    C8 5782   1.522   6.293   3.439 -0.6827  0.0285  0.4816
   63CHL1    H8 5783   1.466   6.198   3.433  2.4417 -1.8709 -1.7824
   63CHL1   C14 5784   1.577   6.318   3.577  0.1351  0.1042 -0.7795
   63CHL1   H14 5785   1.633   6.411   3.555  1.1943 -0.5724 -1.0370
   63CHL1   C15 5786   1.675   6.225   3.650  0.3074  0.5120 -0.0393
   63CHL1  H15A 5787   1.654   6.120   3.620 -0.2846  0.7130 -0.3498
   63CHL1  H15B 5788   1.779   6.244   3.618  1.5947  0.1581  3.5219
   63CHL1   C16 5789   1.671   6.248   3.799 -0.0494  0.2902  0.2880
   63CHL1  H16A 5790   1.647   6.150   3.845 -1.0136 -0.1589 -1.0831
   63CHL1  H16B 5791   1.767   6.284   3.841 -0.1114 -1.9203  2.5661
   63CHL1   C17 5792   1.555   6.354   3.808 -0.6875 -0.2722  0.2734
   63CHL1   H17 5793   1.601   6.455   3.798  1.6080 -1.2024  0.7087
   63CHL1   C13 5794   1.469   6.339   3.677 -0.3444  0.2310 -0.6291
   63CHL1   C18 5795   1.382   6.216   3.704 -0.2475  0.3494 -0.5996
   63CHL1  H18A 5796   1.442   6.131   3.743 -0.1308 -0.1510 -1.8311
   63CHL1  H18B 5797   1.301   6.233   3.778 -1.1160  0.3282 -1.5345
   63CHL1  H18C 5798   1.333   6.186   3.609  0.2290 -3.0721  0.1277
   63CHL1   C12 5799   1.393   6.459   3.631  0.4982 -0.1645  0.2399
   63CHL1  H12A 5800   1.320   6.499   3.705  0.8797 -0.7748  0.9524
   63CHL1  H12B 5801   1.454   6.552   3.625 -2.2517  1.9514  2.0732
   63CHL1   C11 5802   1.321   6.436   3.492 -0.3759  0.2524 -0.3742
   63CHL1  H11A 5803   1.238   6.362   3.503 -0.9223  0.4997 -2.4223
   63CHL1  H11B 5804   1.272   6.534   3.474 -2.3092 -0.7465 -0.8055
   63CHL1    C9 5805   1.430   6.400   3.384  0.0766  0.2609  0.6798
   63CHL1    H9 5806   1.483   6.497   3.378 -0.0614  0.2725 -0.6544
   63CHL1   C10 5807   1.379   6.372   3.239  0.3557 -0.0524 -0.5505
   63CHL1   C19 5808   1.263   6.267   3.244  0.4425  0.2140 -0.1813
   63CHL1  H19A 5809   1.205   6.249   3.151  2.2018  0.8160 -1.4520
   63CHL1  H19B 5810   1.304   6.171   3.283 -2.2703 -0.6564  0.7671
   63CHL1  H19C 5811   1.191   6.311   3.316 -0.6935 -1.1667 -0.4264
   63CHL1    C1 5812   1.327   6.506   3.182  0.1428 -0.6167  0.0109
   63CHL1   H1A 5813   1.245   6.551   3.242 -0.2542 -1.6869  0.2882
   63CHL1   H1B 5814   1.409   6.580   3.182  1.0841 -1.6018  1.4080
   63CHL1    C2 5815   1.280   6.503   3.030  0.4347 -0.6547 -0.1884
   63CHL1   H2A 5816   1.255   6.609   3.007 -2.0478 -1.5181 -1.8507
   63CHL1   H2B 5817   1.197   6.431   3.016  1.2554 -1.7961  0.5934
   63CHL1   C20 5818   1.473   6.356   3.940 -0.1145  0.0570  0.1455
   63CHL1   H20 5819   1.373   6.399   3.918  0.5439  1.3917 -0.3713
   63CHL1   C21 5820   1.550   6.465   4.018 -0.5589  0.0638 -0.2011
   63CHL1  H21A 5821   1.654   6.437   4.041 -1.0643 -1.7720 -0.0199
   63CHL1  H21B 5822   1.502   6.492   4.115  2.3651 -0.7534  1.5799
   63CHL1  H21C 5823   1.547   6.563   3.964  1.5797 -0.0039 -0.5140
   63CHL1   C22 5824   1.457   6.220   4.015 -0.2085 -0.2300  0.2163
   63CHL1  H22A 5825   1.429   6.133   3.951 -0.6469  0.7878 -1.0004
   63CHL1  H22B 5826   1.559   6.190   4.049 -0.6276 -1.0163  0.8093
   63CHL1   C23 5827   1.370   6.225   4.136 -0.3615  0.1785  0.2378
   63CHL1  H23A 5828   1.414   6.286   4.218 -4.2476  1.5715  1.5244
   63CHL1  H23B 5829   1.272   6.273   4.113  0.0066  1.0176  0.4102
   63CHL1   C24 5830   1.338   6.084   4.195 -0.0380  0.5278  0.3536
   63CHL1  H24A 5831   1.280   6.028   4.119 -0.3483  0.1776  0.8456
   63CHL1  H24B 5832   1.431   6.034   4.227  0.1831  1.3675  1.0620
   63CHL1   C25 5833   1.261   6.093   4.328 -0.1849 -0.1732 -0.1721
   63CHL1   H25 5834   1.171   6.153   4.301  0.9083  1.7458  0.2665
   63CHL1   C26 5835   1.217   5.957   4.391 -0.1155 -0.1120 -0.6752
   63CHL1  H26A 5836   1.159   5.907   4.310 -1.4772  1.6341 -0.8459
   63CHL1  H26B 5837   1.306   5.898   4.421 -0.4661 -0.9863 -1.3050
   63CHL1  H26C 5838   1.147   5.961   4.477  0.7924 -2.2893  0.2159
   63CHL1   C27 5839   1.334   6.175   4.441 -0.0504 -0.2609 -0.4814
   63CHL1  H27A 5840   1.337   6.282   4.412 -3.2564 -0.1305 -0.7071
   63CHL1  H27B 5841   1.269   6.168   4.530  1.7278  0.4688  0.9321
   63CHL1  H27C 5842   1.439   6.140   4.451  0.2075  0.5565 -0.2953
   64CHL1    C3 5843   1.119   3.330   2.494 -0.0126 -0.8445 -0.2546
   64CHL1    H3 5844   1.160   3.427   2.529 -0.8384 -0.9479  1.0778
   64CHL1    O3 5845   1.130   3.317   2.351  0.5288  0.5488 -0.0678
   64CHL1   H3' 5846   1.078   3.240   2.326  2.7240 -1.6254  1.5885
   64CHL1    C4 5847   1.199   3.215   2.549  0.3606 -0.3622 -0.5987
   64CHL1   H4A 5848   1.165   3.116   2.511  0.1635 -0.1097 -1.0902
   64CHL1   H4B 5849   1.304   3.232   2.515 -0.0112 -0.4508 -1.8289
   64CHL1    C5 5850   1.205   3.221   2.706  0.7978  0.1494  0.4335
   64CHL1    C6 5851   1.317   3.226   2.776  0.2071 -0.5845  0.5855
   64CHL1    H6 5852   1.414   3.229   2.723  1.2530  1.0982  2.4193
   64CHL1    C7 5853   1.324   3.209   2.925 -0.3760 -0.3409  0.5452
   64CHL1   H7A 5854   1.401   3.134   2.956 -1.3016 -0.9299  1.4793
   64CHL1   H7B 5855   1.346   3.306   2.974  0.8201 -0.4804  0.3153
   64CHL1    C8 5856   1.181   3.158   2.985  0.5411  0.0621 -0.0712
   64CHL1    H8 5857   1.184   3.049   2.962 -0.4531  0.0559 -0.2065
   64CHL1   C14 5858   1.182   3.189   3.138 -0.8065  0.3060  0.7047
   64CHL1   H14 5859   1.179   3.300   3.143  1.1764  0.5434 -1.7408
   64CHL1   C15 5860   1.294   3.139   3.225  0.9063  0.2769 -0.0359
   64CHL1  H15A 5861   1.326   3.040   3.188 -1.2717 -0.1410 -0.9434
   64CHL1  H15B 5862   1.382   3.206   3.214  0.2610  1.2324  0.4148
   64CHL1   C16 5863   1.246   3.143   3.372  0.1132 -0.6381 -0.5832
   64CHL1  H16A 5864   1.262   3.047   3.427 -0.7146  0.8014  2.4178
   64CHL1  H16B 5865   1.292   3.226   3.429 -0.7959 -0.7830  0.4094
   64CHL1   C17 5866   1.090   3.171   3.360 -0.8170 -0.3425  0.0125
   64CHL1   H17 5867   1.081   3.281   3.375 -0.6279  0.1875 -3.2071
   64CHL1   C13 5868   1.060   3.144   3.213 -0.5333  0.2898  0.2719
   64CHL1   C18 5869   1.035   2.988   3.186  0.4286 -1.0375 -0.6270
   64CHL1  H18A 5870   0.945   2.953   3.240  1.9229 -1.4462  1.7783
   64CHL1  H18B 5871   1.010   2.966   3.080 -2.4511  0.1660 -0.2676
   64CHL1  H18C 5872   1.117   2.926   3.229 -0.5539 -2.2799 -0.4789
   64CHL1   C12 5873   0.935   3.217   3.151  0.1852  1.1536  0.1521
   64CHL1  H12A 5874   0.843   3.165   3.185 -1.3751  2.8924 -1.1903
   64CHL1  H12B 5875   0.932   3.324   3.179 -1.0735  1.4968 -1.1471
   64CHL1   C11 5876   0.932   3.209   2.996  0.5848 -0.5623 -0.6072
   64CHL1  H11A 5877   0.884   3.109   2.986 -0.9640  0.1139 -0.2318
   64CHL1  H11B 5878   0.859   3.291   2.977  0.0863 -0.3191  1.9953
   64CHL1    C9 5879   1.066   3.227   2.917 -0.5397  0.2784  0.4612
   64CHL1    H9 5880   1.097   3.333   2.923 -1.5106  0.4960  3.8706
   64CHL1   C10 5881   1.065   3.208   2.767 -0.0080  0.8743  0.6048
   64CHL1   C19 5882   1.016   3.055   2.746  0.2413 -0.8933  0.0796
   64CHL1  H19A 5883   0.999   3.040   2.638  2.9612  0.0540 -0.5697
   64CHL1  H19B 5884   1.100   2.990   2.779  2.2663  1.4624 -0.1090
   64CHL1  H19C 5885   0.933   3.034   2.817  0.3278  0.4390  0.6056
   64CHL1    C1 5886   0.971   3.309   2.698  0.1394 -0.0772 -0.3398
   64CHL1   H1A 5887   0.869   3.278   2.727  0.0923 -1.6236 -2.0138
   64CHL1   H1B 5888   0.998   3.408   2.742 -0.3358 -0.1982  0.2370
   64CHL1    C2 5889   0.979   3.310   2.540 -0.1658 -0.2453 -0.1611
   64CHL1   H2A 5890   0.915   3.394   2.505  0.6034 -0.1332 -1.3674
   64CHL1   H2B 5891   0.918   3.229   2.495 -0.8883  0.3317 -0.2416
   64CHL1   C20 5892   1.007   3.112   3.473 -0.8282  0.2650  0.6419
   64CHL1   H20 5893   0.997   3.002   3.470 -0.3310  0.2446 -0.8393
   64CHL1   C21 5894   0.859   3.167   3.463 -0.0442  0.8882 -0.1434
   64CHL1  H21A 5895   0.792   3.139   3.547 -0.4205 -1.4298 -1.1587
   64CHL1  H21B 5896   0.795   3.132   3.380 -0.4220 -1.4990  1.0512
   64CHL1  H21C 5897   0.859   3.278   3.458  2.2924  0.8766 -2.1320
   64CHL1   C22 5898   1.052   3.153   3.618 -0.8293  0.3114  0.7307
   64CHL1  H22A 5899   1.161   3.139   3.630 -1.1044 -0.0375  3.5281
   64CHL1  H22B 5900   1.040   3.261   3.642 -2.0215  0.3899 -0.1471
   64CHL1   C23 5901   0.993   3.066   3.729  0.2890 -0.1431 -0.1905
   64CHL1  H23A 5902   0.883   3.082   3.731  0.6189  2.3090  0.5908
   64CHL1  H23B 5903   1.000   2.959   3.698  0.6045  0.3958 -2.1101
   64CHL1   C24 5904   1.055   3.082   3.868  0.2819  0.1108  0.5548
   64CHL1  H24A 5905   1.160   3.046   3.875  0.7107  1.0513 -0.7001
   64CHL1  H24B 5906   1.057   3.192   3.881 -0.0026  0.0795  0.8681
   64CHL1   C25 5907   0.960   3.036   3.977 -0.2795  0.1566 -0.1902
   64CHL1   H25 5908   0.859   3.077   3.958 -0.0270  1.0173  0.2622
   64CHL1   C26 5909   0.956   2.883   3.992 -0.6134  0.5573 -0.0160
   64CHL1  H26A 5910   1.038   2.853   4.060 -2.6987 -3.0622  1.1589
   64CHL1  H26B 5911   0.866   2.858   4.053  1.6203 -1.1055  2.8758
   64CHL1  H26C 5912   0.946   2.836   3.892 -1.1425  0.3982  0.1068
   64CHL1   C27 5913   0.993   3.110   4.111  0.7616 -0.3702 -0.4289
   64CHL1  H27A 5914   1.090   3.089   4.161 -0.2284 -0.9479  1.3194
   64CHL1  H27B 5915   0.995   3.220   4.093  1.9092 -0.0899  1.1503
   64CHL1  H27C 5916   0.910   3.087   4.180 -0.4804  1.0054 -1.4006
   65CHL1    C3 5917   5.226   3.267   3.231 -0.1525 -1.1265 -0.3123
   65CHL1    H3 5918   5.326   3.219   3.233  0.1153 -0.9307 -3.7728
   65CHL1    O3 5919   5.176   3.254   3.099  0.3873 -0.3970  1.1376
   65CHL1   H3' 5920   5.164   3.342   3.061  0.0401 -0.6944  0.5252
   65CHL1    C4 5921   5.135   3.192   3.323 -0.4219  0.2655  0.1459
   65CHL1   H4A 5922   5.031   3.222   3.301  0.2040  1.0136 -2.0745
   65CHL1   H4B 5923   5.136   3.086   3.290 -1.9323  0.4415 -0.5305
   65CHL1    C5 5924   5.160   3.204   3.472 -0.0007  0.1039 -0.5313
   65CHL1    C6 5925   5.185   3.102   3.557 -0.0705 -0.1502  0.7850
   65CHL1    H6 5926   5.190   2.999   3.518  0.6186 -0.3517  1.3865
   65CHL1    C7 5927   5.203   3.118   3.707  0.6868 -0.0914 -0.2109
   65CHL1   H7A 5928   5.138   3.051   3.766  0.7940 -0.5184 -0.5696
   65CHL1   H7B 5929   5.307   3.088   3.734  1.0023 -0.1408 -1.3971
   65CHL1    C8 5930   5.177   3.263   3.751 -0.3314  0.2508 -0.7112
   65CHL1    H8 5931   5.067   3.269   3.758 -0.3012  0.7180 -0.6183
   65CHL1   C14 5932   5.233   3.293   3.888  1.0527  0.4414 -0.1094
   65CHL1   H14 5933   5.343   3.306   3.882  1.4090 -2.4823 -1.7199
   65CHL1   C15 5934   5.211   3.188   3.990  0.5988  0.3531 -0.1633
   65CHL1  H15A 5935   5.111   3.142   3.976  1.0364 -0.2179 -1.5497
   65CHL1  H15B 5936   5.261   3.089   3.977 -0.9104 -0.2516 -1.7681
   65CHL1   C16 5937   5.220   3.262   4.123  0.3720  0.2734 -0.2996
   65CHL1  H16A 5938   5.125   3.239   4.176  0.8764 -3.4520 -0.7185
   65CHL1  H16B 5939   5.293   3.220   4.196 -0.0277 -1.3767 -0.8115
   65CHL1   C17 5940   5.240   3.408   4.095  0.9615 -0.2462  0.0100
   65CHL1   H17 5941   5.348   3.431   4.094  0.5860  1.6727  0.2005
   65CHL1   C13 5942   5.182   3.423   3.951  1.0221  0.3855 -0.3367
   65CHL1   C18 5943   5.025   3.435   3.960  0.1925  0.6273 -0.0777
   65CHL1  H18A 5944   4.982   3.344   4.008 -0.4688  0.0025 -1.7588
   65CHL1  H18B 5945   4.992   3.520   4.024  0.4966 -0.5438  1.7162
   65CHL1  H18C 5946   4.976   3.432   3.860 -0.5098  0.2572  0.2700
   65CHL1   C12 5947   5.239   3.537   3.868  0.1397 -0.4453  0.4363
   65CHL1  H12A 5948   5.195   3.636   3.894 -0.7812 -0.7752  0.1869
   65CHL1  H12B 5949   5.348   3.557   3.876  0.1013 -0.8515  2.3395
   65CHL1   C11 5950   5.207   3.519   3.718 -0.3454 -0.1011  0.1741
   65CHL1  H11A 5951   5.097   3.535   3.710 -0.5836 -2.3058 -1.7699
   65CHL1  H11B 5952   5.260   3.587   3.649 -0.7785 -0.6224 -0.6876
   65CHL1    C9 5953   5.223   3.375   3.657 -0.0929  0.0726  0.0072
   65CHL1    H9 5954   5.333   3.366   3.654  0.1034  2.1057 -0.0088
   65CHL1   C10 5955   5.167   3.355   3.516  0.0182 -0.0030 -0.6283
   65CHL1   C19 5956   5.019   3.404   3.513  0.6614  0.1154 -0.7437
   65CHL1  H19A 5957   5.011   3.515   3.515 -0.7451  0.0266  0.7139
   65CHL1  H19B 5958   4.968   3.366   3.422 -2.7275  0.3318  0.9228
   65CHL1  H19C 5959   4.963   3.365   3.600 -1.4781  1.8447 -1.2595
   65CHL1    C1 5960   5.249   3.448   3.416  0.2455  0.3803 -0.5810
   65CHL1   H1A 5961   5.224   3.553   3.440  0.1576  0.2754 -0.2115
   65CHL1   H1B 5962   5.358   3.438   3.432 -0.0487 -1.3151  0.6640
   65CHL1    C2 5963   5.222   3.418   3.267 -0.0769  0.1114  0.5262
   65CHL1   H2A 5964   5.292   3.474   3.201  0.9649 -1.4610  0.2383
   65CHL1   H2B 5965   5.124   3.461   3.238 -0.2401 -1.3012 -1.1523
   65CHL1   C20 5966   5.186   3.510   4.196 -0.1166  0.3340 -0.5855
   65CHL1   H20 5967   5.076   3.500   4.205 -0.0503  0.4464  0.4908
   65CHL1   C21 5968   5.215   3.661   4.168 -0.3629 -0.2352  0.9703
   65CHL1  H21A 5969   5.144   3.700   4.091  1.3253 -1.3436 -1.2718
   65CHL1  H21B 5970   5.317   3.678   4.125 -0.2638 -1.1233  0.8488
   65CHL1  H21C 5971   5.211   3.717   4.264  0.0868  0.7625  0.4223
   65CHL1   C22 5972   5.252   3.473   4.326 -0.2381  0.1700  0.4863
   65CHL1  H22A 5973   5.238   3.365   4.349  0.1853  0.2746  1.2694
   65CHL1  H22B 5974   5.361   3.481   4.306 -0.3725  0.9850  0.0310
   65CHL1   C23 5975   5.208   3.554   4.450 -0.1475  0.3901  0.0276
   65CHL1  H23A 5976   5.281   3.636   4.467 -0.8682  0.3747  4.2322
   65CHL1  H23B 5977   5.110   3.605   4.438  0.7335  2.6762  1.8137
   65CHL1   C24 5978   5.212   3.468   4.576 -0.3062 -0.2887 -0.5709
   65CHL1  H24A 5979   5.126   3.397   4.581  0.5122 -1.2962 -0.5691
   65CHL1  H24B 5980   5.307   3.413   4.592 -1.1198 -1.9525 -1.1557
   65CHL1   C25 5981   5.212   3.546   4.705  0.4682  0.0289  0.6647
   65CHL1   H25 5982   5.300   3.614   4.703  0.2970  0.2322 -0.3635
   65CHL1   C26 5983   5.076   3.615   4.737  0.1545  0.1790  0.6279
   65CHL1  H26A 5984   5.048   3.688   4.658 -1.3046 -1.6851 -0.6792
   65CHL1  H26B 5985   5.008   3.528   4.732 -2.1214  1.8567  0.6975
   65CHL1  H26C 5986   5.082   3.665   4.836  1.9922 -0.0863  0.6928
   65CHL1   C27 5987   5.243   3.448   4.817  0.3495  0.6221  0.6524
   65CHL1  H27A 5988   5.346   3.407   4.808  0.3537  0.9765 -1.1142
   65CHL1  H27B 5989   5.252   3.488   4.920  0.3830 -0.1804  0.9737
   65CHL1  H27C 5990   5.171   3.363   4.814 -0.2495  1.0914  1.2728
   66CHL1    C3 5991   1.806   3.488   2.782  0.1872  0.2861 -0.4030
   66CHL1    H3 5992   1.905   3.538   2.782 -0.4197  1.5881  0.9634
   66CHL1    O3 5993   1.763   3.455   2.648 -0.2132  0.6186 -0.0421
   66CHL1   H3' 5994   1.835   3.397   2.623  0.2613  1.4187 -0.5780
   66CHL1    C4 5995   1.809   3.358   2.858 -0.4321  0.9543  0.2026
   66CHL1   H4A 5996   1.711   3.308   2.844 -0.7574  1.4556  0.6586
   66CHL1   H4B 5997   1.883   3.291   2.810 -0.3056  1.1808  0.0795
   66CHL1    C5 5998   1.836   3.380   3.002  0.3808 -0.0356  0.0279
   66CHL1    C6 5999   1.936   3.316   3.059  0.5671  0.3284 -0.2740
   66CHL1    H6 6000   1.988   3.242   2.996 -2.3628 -2.2884  0.1611
   66CHL1    C7 6001   1.962   3.315   3.205 -0.3317  0.1310  0.3083
   66CHL1   H7A 6002   1.992   3.214   3.242  0.6881 -1.4377 -4.1687
   66CHL1   H7B 6003   2.048   3.379   3.232 -0.6800  0.2167  1.2612
   66CHL1    C8 6004   1.840   3.373   3.281 -0.3596  0.0896 -0.0499
   66CHL1    H8 6005   1.759   3.297   3.277 -0.1236 -0.2368  1.0575
   66CHL1   C14 6006   1.888   3.400   3.422 -0.2997 -0.0767  0.0303
   66CHL1   H14 6007   1.979   3.463   3.414  1.0187 -1.7415  1.1950
   66CHL1   C15 6008   1.923   3.274   3.506 -0.4489 -0.9246  0.4905
   66CHL1  H15A 6009   1.840   3.199   3.503 -0.7164 -0.6120 -0.0657
   66CHL1  H15B 6010   2.012   3.216   3.476  0.4867  0.8929 -0.3816
   66CHL1   C16 6011   1.930   3.325   3.650  0.4113 -0.9294  0.2272
   66CHL1  H16A 6012   1.888   3.246   3.716 -1.4018  0.0630  0.3359
   66CHL1  H16B 6013   2.037   3.345   3.677  0.5707  2.4798 -2.3162
   66CHL1   C17 6014   1.850   3.455   3.659  0.7320  0.0927  0.8605
   66CHL1   H17 6015   1.914   3.546   3.655  1.1413 -0.2394 -0.9119
   66CHL1   C13 6016   1.786   3.473   3.515  0.1342  0.0209  0.2880
   66CHL1   C18 6017   1.656   3.387   3.521 -0.2576  0.3120 -0.1733
   66CHL1  H18A 6018   1.626   3.345   3.423  0.5803  0.5464 -0.5403
   66CHL1  H18B 6019   1.669   3.298   3.587  2.2419  1.6941  1.3714
   66CHL1  H18C 6020   1.571   3.444   3.563 -0.5638 -0.5561  0.4298
   66CHL1   C12 6021   1.763   3.610   3.454  0.3406 -0.0801 -0.0870
   66CHL1  H12A 6022   1.684   3.661   3.513  0.2368 -0.2265 -0.0993
   66CHL1  H12B 6023   1.853   3.674   3.457  1.5763 -1.7431 -0.4451
   66CHL1   C11 6024   1.712   3.593   3.306 -0.4296 -0.8914 -0.4950
   66CHL1  H11A 6025   1.609   3.552   3.318 -0.4741 -0.4040  0.9926
   66CHL1  H11B 6026   1.694   3.690   3.256 -0.8399 -1.2586 -1.0715
   66CHL1    C9 6027   1.798   3.502   3.211 -0.3626  0.4109  0.0520
   66CHL1    H9 6028   1.890   3.563   3.195 -0.0104 -0.0406  0.3277
   66CHL1   C10 6029   1.741   3.472   3.073 -0.3292  0.8136 -0.2200
   66CHL1   C19 6030   1.598   3.413   3.086 -0.8932 -0.3525 -0.5744
   66CHL1  H19A 6031   1.596   3.314   3.136  1.2390  0.9591  2.3753
   66CHL1  H19B 6032   1.538   3.477   3.154  1.3522  0.3747  0.8110
   66CHL1  H19C 6033   1.559   3.399   2.983 -2.9911  1.3384 -0.0771
   66CHL1    C1 6034   1.739   3.603   2.990 -0.1006 -0.1530  0.2134
   66CHL1   H1A 6035   1.663   3.676   3.026  0.1319  1.4570 -2.3115
   66CHL1   H1B 6036   1.838   3.652   2.995 -1.3758  2.6106 -0.0350
   66CHL1    C2 6037   1.707   3.588   2.837 -0.2495 -0.0641 -0.2498
   66CHL1   H2A 6038   1.717   3.685   2.785 -1.6541  0.2302 -0.0056
   66CHL1   H2B 6039   1.600   3.566   2.818 -0.4783  0.3753  0.4961
   66CHL1   C20 6040   1.770   3.464   3.794  0.0601 -0.4652  1.1907
   66CHL1   H20 6041   1.691   3.386   3.792 -1.0289  0.6214  0.7117
   66CHL1   C21 6042   1.693   3.591   3.792  0.2569 -1.1644  0.2958
   66CHL1  H21A 6043   1.622   3.585   3.707  0.4819  0.2006 -0.0245
   66CHL1  H21B 6044   1.742   3.691   3.782 -0.6640 -0.6814  0.5187
   66CHL1  H21C 6045   1.631   3.602   3.883 -0.4435  1.7571 -0.4230
   66CHL1   C22 6046   1.851   3.443   3.921 -0.0831  0.3623  0.1019
   66CHL1  H22A 6047   1.894   3.342   3.911  1.7146  1.0882  0.1957
   66CHL1  H22B 6048   1.940   3.510   3.921  0.7732 -0.5006  3.8772
   66CHL1   C23 6049   1.778   3.447   4.055  0.5709 -0.2675  0.2203
   66CHL1  H23A 6050   1.764   3.552   4.088 -1.2722 -0.0537 -1.1103
   66CHL1  H23B 6051   1.677   3.402   4.045  0.1913  0.5508  0.3034
   66CHL1   C24 6052   1.856   3.387   4.168 -0.2956 -0.2470  0.0457
   66CHL1  H24A 6053   1.951   3.443   4.151 -1.2165  1.2481 -0.3929
   66CHL1  H24B 6054   1.811   3.411   4.266  0.7691  0.4813  0.3687
   66CHL1   C25 6055   1.874   3.232   4.180 -0.3892 -0.2500 -0.4644
   66CHL1   H25 6056   1.945   3.196   4.103 -0.8260 -0.1094 -0.9371
   66CHL1   C26 6057   1.925   3.197   4.322 -0.5977  0.5400 -0.1495
   66CHL1  H26A 6058   2.020   3.245   4.353  0.9237 -2.5909  0.4457
   66CHL1  H26B 6059   1.840   3.208   4.393 -1.1094  0.8597 -0.7973
   66CHL1  H26C 6060   1.953   3.090   4.309 -1.4301  0.5967 -3.3997
   66CHL1   C27 6061   1.743   3.159   4.152  0.4370  0.2983 -0.4663
   66CHL1  H27A 6062   1.758   3.050   4.137 -0.0918  0.3967 -1.8618
   66CHL1  H27B 6063   1.696   3.195   4.058  0.0566  1.5548  0.1888
   66CHL1  H27C 6064   1.674   3.182   4.236  0.1590  0.6041 -0.7772
   67CHL1    C3 6065   2.713   1.878   3.032  0.1544  0.1773  0.0195
   67CHL1    H3 6066   2.626   1.819   3.067  0.8617 -0.7869  0.1698
   67CHL1    O3 6067   2.709   1.875   2.892  0.3294 -0.3562 -0.5554
   67CHL1   H3' 6068   2.775   1.941   2.871  0.3539 -0.4184 -0.6752
   67CHL1    C4 6069   2.701   2.023   3.077 -0.9236 -0.3686  0.9056
   67CHL1   H4A 6070   2.775   2.081   3.019 -1.0936 -2.1787 -1.2110
   67CHL1   H4B 6071   2.601   2.066   3.056  0.0082  2.3058  1.4970
   67CHL1    C5 6072   2.734   2.049   3.227 -0.1719 -0.1952  0.0407
   67CHL1    C6 6073   2.648   2.114   3.305 -0.2876  0.0573 -0.0471
   67CHL1    H6 6074   2.564   2.167   3.257 -0.9331  0.3997  1.3928
   67CHL1    C7 6075   2.670   2.143   3.449  0.2123  0.0477 -0.4251
   67CHL1   H7A 6076   2.655   2.251   3.469  0.5800 -0.2116  1.4563
   67CHL1   H7B 6077   2.599   2.083   3.510 -1.9848  2.6073 -0.2709
   67CHL1    C8 6078   2.815   2.109   3.499 -0.2650  0.3435  0.4465
   67CHL1    H8 6079   2.878   2.192   3.458  0.3440 -0.2808  0.1050
   67CHL1   C14 6080   2.822   2.106   3.650  0.4520 -0.1585  0.2091
   67CHL1   H14 6081   2.747   2.031   3.684  0.0551  0.9185  1.8479
   67CHL1   C15 6082   2.772   2.239   3.718  0.0246 -0.3945  0.1170
   67CHL1  H15A 6083   2.830   2.315   3.661 -0.3808  0.1311  0.3999
   67CHL1  H15B 6084   2.665   2.262   3.697 -0.3567 -1.9460  0.2321
   67CHL1   C16 6085   2.809   2.218   3.863 -0.4932  0.7965  0.6710
   67CHL1  H16A 6086   2.851   2.315   3.899  1.4523  0.0715  0.4972
   67CHL1  H16B 6087   2.722   2.195   3.928 -0.7008  0.3651  0.2435
   67CHL1   C17 6088   2.911   2.095   3.862  0.5892  0.3577  0.0150
   67CHL1   H17 6089   2.861   1.999   3.887  1.5265 -1.0476 -2.9345
   67CHL1   C13 6090   2.954   2.075   3.714 -0.7989 -0.9206  0.2612
   67CHL1   C18 6091   3.064   2.176   3.685  0.1181 -0.1472 -0.1703
   67CHL1  H18A 6092   3.071   2.192   3.575 -2.5108  2.2382 -0.1004
   67CHL1  H18B 6093   3.039   2.277   3.723 -1.5188 -0.8680  0.7727
   67CHL1  H18C 6094   3.163   2.149   3.726 -0.3752 -1.4057  0.2454
   67CHL1   C12 6095   2.999   1.935   3.669  0.6366 -0.1881 -0.2749
   67CHL1  H12A 6096   3.100   1.896   3.696  0.5946 -0.5394 -0.6171
   67CHL1  H12B 6097   2.925   1.862   3.708 -1.1945  1.1608 -1.1389
   67CHL1   C11 6098   2.996   1.916   3.509  0.3081 -0.6863  0.0860
   67CHL1  H11A 6099   3.096   1.951   3.475 -0.2574 -0.3908 -1.3456
   67CHL1  H11B 6100   2.989   1.806   3.504 -0.1072 -0.6617  0.1455
   67CHL1    C9 6101   2.866   1.975   3.448  0.0078  0.5390  0.3614
   67CHL1    H9 6102   2.786   1.904   3.480 -1.2557  1.0508 -1.5006
   67CHL1   C10 6103   2.857   1.971   3.290  0.3925  0.4789 -0.4830
   67CHL1   C19 6104   2.982   2.048   3.239 -0.4322 -0.1689  0.1805
   67CHL1  H19A 6105   3.077   1.999   3.269  1.2452  0.2707 -3.7813
   67CHL1  H19B 6106   2.980   2.044   3.128 -5.1591 -1.6660  0.1061
   67CHL1  H19C 6107   2.988   2.156   3.265  0.8986 -0.4024  0.9179
   67CHL1    C1 6108   2.866   1.826   3.227 -0.8352 -0.7080 -0.4095
   67CHL1   H1A 6109   2.970   1.798   3.257 -0.9078  0.2577  0.8325
   67CHL1   H1B 6110   2.797   1.763   3.287 -1.3837 -1.0732 -1.3996
   67CHL1    C2 6111   2.844   1.818   3.075 -0.0650  0.6258 -0.3673
   67CHL1   H2A 6112   2.821   1.713   3.047 -2.2662  1.4429 -1.8922
   67CHL1   H2B 6113   2.935   1.858   3.025 -0.8610 -0.9733 -3.3258
   67CHL1   C20 6114   3.023   2.111   3.964 -0.3766 -0.2083 -0.6272
   67CHL1   H20 6115   3.075   2.208   3.949  1.1388 -0.4954  2.1491
   67CHL1   C21 6116   3.119   1.991   3.967 -0.1391 -0.4065  0.8823
   67CHL1  H21A 6117   3.178   1.989   3.874  1.4761 -1.8686  1.8860
   67CHL1  H21B 6118   3.054   1.902   3.982 -1.7031  0.7987  1.7016
   67CHL1  H21C 6119   3.176   1.990   4.062  0.9340  1.0912  0.2897
   67CHL1   C22 6120   2.976   2.127   4.109 -0.5906  0.2815 -0.1105
   67CHL1  H22A 6121   3.068   2.157   4.165 -1.5629 -1.8102  2.8969
   67CHL1  H22B 6122   2.899   2.207   4.121 -0.7492  0.1559 -0.3058
   67CHL1   C23 6123   2.914   2.002   4.177 -0.1735 -0.5443 -0.2812
   67CHL1  H23A 6124   2.839   1.958   4.108  1.9846 -0.4906 -2.8793
   67CHL1  H23B 6125   2.982   1.914   4.181  0.3304 -0.1553 -0.2029
   67CHL1   C24 6126   2.879   2.037   4.324 -0.7385  0.1071 -0.8488
   67CHL1  H24A 6127   2.973   2.067   4.375 -0.7826  0.0754 -0.7478
   67CHL1  H24B 6128   2.813   2.125   4.341 -1.2167 -0.3425 -0.3293
   67CHL1   C25 6129   2.827   1.909   4.394  0.4475  0.0963 -0.3034
   67CHL1   H25 6130   2.897   1.823   4.383  2.8172  1.8473  0.1816
   67CHL1   C26 6131   2.810   1.949   4.541 -0.0928  0.3359  0.0230
   67CHL1  H26A 6132   2.739   2.034   4.547  0.1937  0.7198 -1.5392
   67CHL1  H26B 6133   2.783   1.874   4.619  1.1465 -2.7301 -2.2756
   67CHL1  H26C 6134   2.911   1.979   4.577  0.1217 -0.0153 -0.2797
   67CHL1   C27 6135   2.695   1.865   4.327 -0.5666  0.0850 -0.4326
   67CHL1  H27A 6136   2.709   1.819   4.227 -0.2913  1.7284 -1.1836
   67CHL1  H27B 6137   2.646   1.780   4.378 -1.8123  1.9505  1.6512
   67CHL1  H27C 6138   2.625   1.951   4.323 -0.0118  0.5347 -0.7637
   68CHL1    C3 6139   0.879   5.878   2.856  0.4503  0.7766 -0.1793
   68CHL1    H3 6140   0.961   5.803   2.865 -0.0720  0.0054 -1.5502
   68CHL1    O3 6141   0.845   5.870   2.716  0.0939  0.0152 -0.4753
   68CHL1   H3' 6142   0.845   5.963   2.690 -2.3463 -0.2461 -1.7373
   68CHL1    C4 6143   0.757   5.824   2.937 -0.1532  0.1391  0.8296
   68CHL1   H4A 6144   0.671   5.887   2.904  0.9528  0.4762 -1.6769
   68CHL1   H4B 6145   0.742   5.723   2.894  2.2141  0.4358 -0.8988
   68CHL1    C5 6146   0.784   5.824   3.084 -0.5894 -0.0434  0.3770
   68CHL1    C6 6147   0.767   5.713   3.155 -0.0170 -0.2774 -0.3083
   68CHL1    H6 6148   0.732   5.620   3.109  0.4763  0.1793 -1.6690
   68CHL1    C7 6149   0.797   5.697   3.299 -0.6681  0.1388 -0.8124
   68CHL1   H7A 6150   0.723   5.638   3.357 -1.1920  0.3212 -1.2910
   68CHL1   H7B 6151   0.901   5.661   3.314  0.3283  2.7640 -0.8650
   68CHL1    C8 6152   0.789   5.847   3.357 -0.3587 -0.5414 -0.6491
   68CHL1    H8 6153   0.681   5.871   3.367 -0.2705 -0.9304  1.9020
   68CHL1   C14 6154   0.835   5.837   3.509 -0.3355 -0.4767 -0.2192
   68CHL1   H14 6155   0.937   5.796   3.495 -0.2608 -0.0075 -1.1562
   68CHL1   C15 6156   0.762   5.743   3.599  0.2231  0.7290 -0.2781
   68CHL1  H15A 6157   0.652   5.742   3.587 -0.0765 -0.2231  2.0488
   68CHL1  H15B 6158   0.781   5.634   3.591  1.5134  0.9384 -0.3057
   68CHL1   C16 6159   0.808   5.780   3.743  0.4717 -0.1171 -0.1265
   68CHL1  H16A 6160   0.719   5.797   3.807  0.3830 -0.4562 -0.1583
   68CHL1  H16B 6161   0.876   5.701   3.782  1.3357  0.2524 -0.8445
   68CHL1   C17 6162   0.876   5.920   3.719 -0.5150 -0.1215  0.2162
   68CHL1   H17 6163   0.984   5.895   3.712 -0.7688 -2.4290  2.9828
   68CHL1   C13 6164   0.834   5.974   3.578  0.3933  0.0113  0.2898
   68CHL1   C18 6165   0.694   6.036   3.578  0.3728  0.3582 -0.4574
   68CHL1  H18A 6166   0.617   5.981   3.636  1.1100  0.1659  0.3689
   68CHL1  H18B 6167   0.703   6.138   3.622 -1.6051 -0.1808  1.3758
   68CHL1  H18C 6168   0.650   6.046   3.477 -1.4109 -1.2928  0.1084
   68CHL1   C12 6169   0.934   6.065   3.507  1.1280  0.5263  0.4221
   68CHL1  H12A 6170   0.946   6.160   3.564 -0.1755  0.0874  1.4652
   68CHL1  H12B 6171   1.031   6.012   3.499  0.1470 -1.2100 -0.4891
   68CHL1   C11 6172   0.897   6.090   3.363  0.1027 -0.9737 -0.3267
   68CHL1  H11A 6173   0.804   6.150   3.359  1.0177  0.5665  0.5122
   68CHL1  H11B 6174   0.967   6.159   3.310 -1.6937  0.6176 -0.7227
   68CHL1    C9 6175   0.870   5.958   3.284 -0.2355 -0.0500 -0.0157
   68CHL1    H9 6176   0.964   5.899   3.272 -1.0681 -1.0872 -1.8484
   68CHL1   C10 6177   0.829   5.969   3.134  0.4703 -0.2448 -0.1699
   68CHL1   C19 6178   0.712   6.065   3.122 -0.1730 -0.3615  0.7523
   68CHL1  H19A 6179   0.638   6.031   3.197 -1.2243  0.4926  0.1159
   68CHL1  H19B 6180   0.757   6.165   3.145 -2.7702  1.4545 -1.4547
   68CHL1  H19C 6181   0.672   6.067   3.019 -0.4378 -1.6183  0.8232
   68CHL1    C1 6182   0.951   6.015   3.052 -0.1574  0.7821  0.3085
   68CHL1   H1A 6183   0.985   6.112   3.095  1.7399 -0.2467  1.2568
   68CHL1   H1B 6184   1.030   5.938   3.064 -1.1391  0.0093  2.2169
   68CHL1    C2 6185   0.925   6.012   2.902  0.0677 -0.0217 -0.3258
   68CHL1   H2A 6186   1.012   6.045   2.840 -1.1943 -0.4385 -2.4314
   68CHL1   H2B 6187   0.848   6.087   2.874  0.2904  0.5397  0.5214
   68CHL1   C20 6188   0.870   6.012   3.838 -0.1834 -0.4528 -0.6698
   68CHL1   H20 6189   0.888   6.115   3.803 -2.5199  0.1908 -0.1385
   68CHL1   C21 6190   0.993   5.983   3.930 -1.1431  0.3763  0.1140
   68CHL1  H21A 6191   1.000   6.055   4.014  2.3656 -0.5825  0.8175
   68CHL1  H21B 6192   1.082   5.998   3.865 -0.7672  1.2225  0.8034
   68CHL1  H21C 6193   0.988   5.886   3.984  0.8947  0.2046  0.0881
   68CHL1   C22 6194   0.736   6.004   3.920 -0.2038  0.6114  1.1407
   68CHL1  H22A 6195   0.653   5.996   3.847  0.0919  1.3289  0.7195
   68CHL1  H22B 6196   0.737   5.908   3.976  1.4438 -0.8712 -1.2591
   68CHL1   C23 6197   0.714   6.123   4.011  0.5505 -0.1486  0.9211
   68CHL1  H23A 6198   0.784   6.122   4.097 -0.4456  1.6807  1.8264
   68CHL1  H23B 6199   0.737   6.214   3.951  0.4492 -0.1194  0.9252
   68CHL1   C24 6200   0.567   6.129   4.064  0.3431  0.6606  0.4600
   68CHL1  H24A 6201   0.504   6.155   3.976  0.3953  1.2139  0.5816
   68CHL1  H24B 6202   0.534   6.027   4.093  0.5548 -0.4942 -2.9120
   68CHL1   C25 6203   0.551   6.235   4.184 -0.3713 -0.0383 -0.4850
   68CHL1   H25 6204   0.638   6.204   4.244  1.2790 -1.0433 -3.2286
   68CHL1   C26 6205   0.565   6.383   4.146 -0.1214  0.0592  0.1308
   68CHL1  H26A 6206   0.670   6.416   4.156  0.3750 -1.0897 -1.0726
   68CHL1  H26B 6207   0.546   6.395   4.037  0.7698 -2.7391 -0.4093
   68CHL1  H26C 6208   0.512   6.455   4.213 -0.1938 -1.1431  1.4061
   68CHL1   C27 6209   0.422   6.210   4.265  1.1151  1.0664  0.3976
   68CHL1  H27A 6210   0.418   6.101   4.289  0.3152  0.3207 -2.6051
   68CHL1  H27B 6211   0.433   6.254   4.366 -2.0277  0.1455  1.2386
   68CHL1  H27C 6212   0.325   6.233   4.216  1.1341  1.2083  0.4268
   69CHL1    C3 6213   5.103   5.068   2.700  0.4867  0.0709 -0.1062
   69CHL1    H3 6214   5.214   5.059   2.709  0.6114  0.3941 -1.1129
   69CHL1    O3 6215   5.056   5.044   2.569 -0.1990  0.3369  0.6531
   69CHL1   H3' 6216   4.962   5.038   2.585 -0.2521  0.3061  0.3262
   69CHL1    C4 6217   5.033   4.967   2.791  0.1753  0.2342 -0.9100
   69CHL1   H4A 6218   4.927   4.955   2.763  0.5421 -0.3997 -2.0938
   69CHL1   H4B 6219   5.094   4.875   2.774  0.6534  0.5721 -1.0654
   69CHL1    C5 6220   5.051   4.998   2.941  0.1216 -0.3742 -0.5114
   69CHL1    C6 6221   5.107   4.915   3.031  0.1101 -0.0076 -0.5610
   69CHL1    H6 6222   5.145   4.815   3.006  2.9321  0.8419 -0.0312
   69CHL1    C7 6223   5.120   4.935   3.183 -0.2132  1.0455 -0.3109
   69CHL1   H7A 6224   5.077   4.844   3.231  1.1579  1.4144  1.7337
   69CHL1   H7B 6225   5.224   4.938   3.221  0.4827 -0.6667 -1.9085
   69CHL1    C8 6226   5.039   5.059   3.229  0.9547  1.0701 -0.2181
   69CHL1    H8 6227   4.933   5.029   3.222  0.6985  0.9372  3.0282
   69CHL1   C14 6228   5.079   5.096   3.362  0.3995 -0.1121 -0.1094
   69CHL1   H14 6229   5.186   5.127   3.355  0.6032 -0.3959  1.3241
   69CHL1   C15 6230   5.084   4.990   3.477 -0.1333  0.1808 -0.1523
   69CHL1  H15A 6231   4.998   4.919   3.469  0.1465 -0.1075 -0.7144
   69CHL1  H15B 6232   5.179   4.933   3.472 -0.4509 -0.6884  2.3024
   69CHL1   C16 6233   5.070   5.065   3.609 -0.9018  0.0219 -0.2485
   69CHL1  H16A 6234   4.970   5.054   3.657  0.0983 -1.2945  1.6874
   69CHL1  H16B 6235   5.156   5.050   3.678 -1.8757  1.7080  1.4079
   69CHL1   C17 6236   5.053   5.215   3.579 -0.4189  0.3658  0.3656
   69CHL1   H17 6237   5.158   5.247   3.566 -0.8921  2.0813  0.4192
   69CHL1   C13 6238   5.003   5.221   3.428  0.5161  0.5176  0.3135
   69CHL1   C18 6239   4.847   5.193   3.436  0.0987  0.1527 -0.1568
   69CHL1  H18A 6240   4.784   5.276   3.474 -2.6564 -2.0135  0.3233
   69CHL1  H18B 6241   4.810   5.169   3.334  1.9891 -1.2824 -0.5694
   69CHL1  H18C 6242   4.829   5.100   3.495  1.1794 -0.7656 -1.2022
   69CHL1   C12 6243   5.028   5.340   3.337  0.1135 -0.3221 -0.7106
   69CHL1  H12A 6244   4.967   5.427   3.370  1.1900 -0.0165  0.5796
   69CHL1  H12B 6245   5.137   5.362   3.325  0.2747 -1.6639 -2.0029
   69CHL1   C11 6246   4.984   5.313   3.188 -0.1833 -0.5269 -0.1226
   69CHL1  H11A 6247   4.873   5.302   3.191 -0.2564  0.1326 -0.2612
   69CHL1  H11B 6248   5.008   5.396   3.119 -0.2118  0.1741  0.6952
   69CHL1    C9 6249   5.050   5.183   3.133 -0.2512 -0.0199 -0.2753
   69CHL1    H9 6250   5.158   5.207   3.134 -0.4521  0.9396 -0.2801
   69CHL1   C10 6251   5.018   5.144   2.986  0.7257 -0.0890 -0.0729
   69CHL1   C19 6252   4.864   5.163   2.967  0.9193 -0.8348  0.1413
   69CHL1  H19A 6253   4.830   5.114   2.873  0.9711  0.3539 -0.5194
   69CHL1  H19B 6254   4.817   5.122   3.059  0.0824  2.5338  1.3524
   69CHL1  H19C 6255   4.829   5.268   2.960 -0.6515 -1.3861 -0.9255
   69CHL1    C1 6256   5.086   5.237   2.890  0.4402 -0.1700 -0.3202
   69CHL1   H1A 6257   5.045   5.339   2.905  1.3679  0.4971 -2.0548
   69CHL1   H1B 6258   5.192   5.238   2.922 -0.0370  1.5297  1.4049
   69CHL1    C2 6259   5.059   5.210   2.737  0.0757  0.1728 -0.1222
   69CHL1   H2A 6260   5.130   5.271   2.678  0.1415 -2.2920 -2.8475
   69CHL1   H2B 6261   4.951   5.229   2.724 -0.1905 -0.4081  1.1068
   69CHL1   C20 6262   4.995   5.308   3.684 -0.3197  0.1544 -0.0524
   69CHL1   H20 6263   4.886   5.291   3.695 -0.3889  0.1462 -0.7499
   69CHL1   C21 6264   5.027   5.453   3.655 -0.4509  0.5136 -0.2478
   69CHL1  H21A 6265   4.986   5.478   3.554  0.8283 -1.8602 -1.4573
   69CHL1  H21B 6266   5.136   5.469   3.646 -0.5972  3.1744  1.6195
   69CHL1  H21C 6267   4.989   5.530   3.725 -0.7580  2.1255 -2.0689
   69CHL1   C22 6268   5.043   5.272   3.824 -0.5444  0.1555 -0.7986
   69CHL1  H22A 6269   5.037   5.166   3.855  0.4422  0.4863  0.6032
   69CHL1  H22B 6270   5.153   5.292   3.817 -0.8244  1.3373 -3.5047
   69CHL1   C23 6271   4.985   5.354   3.934 -0.0894 -0.1371  0.6680
   69CHL1  H23A 6272   4.989   5.465   3.923  0.3582 -0.3317 -1.7202
   69CHL1  H23B 6273   4.875   5.342   3.918 -0.0884  0.6779 -0.0522
   69CHL1   C24 6274   5.036   5.312   4.071  0.3692 -0.0431 -0.7884
   69CHL1  H24A 6275   5.019   5.205   4.095 -0.1023  0.3638  0.8134
   69CHL1  H24B 6276   5.147   5.324   4.071  0.5683 -1.3943  0.9016
   69CHL1   C25 6277   4.972   5.387   4.192 -1.1999 -0.1606  0.3437
   69CHL1   H25 6278   5.015   5.343   4.284  2.0433  1.0351 -0.4665
   69CHL1   C26 6279   5.022   5.533   4.191 -0.1350  0.6327 -0.7819
   69CHL1  H26A 6280   4.990   5.590   4.281 -1.7448 -1.1181 -0.1751
   69CHL1  H26B 6281   5.133   5.533   4.181  0.0613 -1.8228  0.5951
   69CHL1  H26C 6282   4.991   5.585   4.098  1.3965 -1.0348 -2.3090
   69CHL1   C27 6283   4.824   5.369   4.209  0.8222  0.7031  0.1513
   69CHL1  H27A 6284   4.795   5.262   4.211 -0.0038  0.8641 -1.3927
   69CHL1  H27B 6285   4.796   5.423   4.302 -2.2838 -1.1622  0.4403
   69CHL1  H27C 6286   4.776   5.423   4.125 -0.2823  0.1248  0.4045
   70CHL1    C3 6287   6.046   1.398   2.753  0.1833  0.6772 -0.7363
   70CHL1    H3 6288   6.067   1.289   2.756  2.0163  1.0319  1.1681
   70CHL1    O3 6289   5.978   1.436   2.636 -0.0977  0.1703  0.2607
   70CHL1   H3' 6290   6.011   1.523   2.612  2.2393 -0.7606 -0.1763
   70CHL1    C4 6291   5.965   1.437   2.879  0.5635 -0.2834 -0.3075
   70CHL1   H4A 6292   5.948   1.547   2.876 -1.8910 -0.6192 -0.1211
   70CHL1   H4B 6293   5.861   1.398   2.878  1.4507 -3.2826  3.0896
   70CHL1    C5 6294   6.038   1.384   3.004  0.3385 -0.2425  0.4255
   70CHL1    C6 6295   5.975   1.309   3.100  0.5532 -0.0266 -0.0390
   70CHL1    H6 6296   5.872   1.279   3.074  0.8072 -1.1008  0.1556
   70CHL1    C7 6297   6.034   1.252   3.232 -0.2282 -0.2986 -0.0618
   70CHL1   H7A 6298   5.974   1.274   3.323 -1.0367  1.3573 -0.9400
   70CHL1   H7B 6299   6.059   1.144   3.237  2.7389  0.3490  2.2418
   70CHL1    C8 6300   6.173   1.328   3.253  0.0102  0.0454 -0.1841
   70CHL1    H8 6301   6.144   1.428   3.290  2.4122  1.0737 -0.8790
   70CHL1   C14 6302   6.259   1.254   3.361 -0.2237 -0.2400 -0.5787
   70CHL1   H14 6303   6.313   1.166   3.319  4.0644  1.9845 -0.2704
   70CHL1   C15 6304   6.186   1.209   3.488 -0.0794 -0.5266 -0.0299
   70CHL1  H15A 6305   6.114   1.287   3.519 -2.1320 -1.9000 -1.0933
   70CHL1  H15B 6306   6.129   1.114   3.474 -0.2386 -0.4056 -0.1996
   70CHL1   C16 6307   6.298   1.201   3.586  0.4422 -0.2386  0.0354
   70CHL1  H16A 6308   6.280   1.253   3.682  0.9182 -0.2571  0.1359
   70CHL1  H16B 6309   6.306   1.094   3.615 -0.5957 -0.2769  0.2278
   70CHL1   C17 6310   6.438   1.247   3.518  0.7114 -0.2178 -0.0609
   70CHL1   H17 6311   6.482   1.157   3.470 -0.2497 -0.3101 -0.7835
   70CHL1   C13 6312   6.388   1.334   3.402 -0.1111 -0.4646  0.1793
   70CHL1   C18 6313   6.351   1.482   3.451  0.2241  0.8780  0.6992
   70CHL1  H18A 6314   6.441   1.536   3.488 -0.2828  0.2633  2.9312
   70CHL1  H18B 6315   6.299   1.544   3.374 -0.9400 -0.8929 -0.0092
   70CHL1  H18C 6316   6.273   1.480   3.530  0.4548 -1.0408  0.9211
   70CHL1   C12 6317   6.478   1.337   3.266  0.4744 -0.3786  0.0780
   70CHL1  H12A 6318   6.584   1.366   3.283  0.1602 -0.7289  3.1033
   70CHL1  H12B 6319   6.496   1.230   3.241  1.0051  0.1677 -2.1696
   70CHL1   C11 6320   6.399   1.409   3.157 -0.8136  0.8722 -0.1740
   70CHL1  H11A 6321   6.392   1.518   3.176  0.6638  1.2682 -1.6900
   70CHL1  H11B 6322   6.459   1.403   3.064  0.0653  1.7560  0.3265
   70CHL1    C9 6323   6.255   1.347   3.127 -0.4122  0.1416 -0.3292
   70CHL1    H9 6324   6.274   1.246   3.083 -0.9889 -0.4554  0.7415
   70CHL1   C10 6325   6.185   1.427   3.013  0.6866 -0.7591  0.6004
   70CHL1   C19 6326   6.180   1.582   3.048  0.1849  0.4404 -0.8534
   70CHL1  H19A 6327   6.124   1.634   2.968 -0.0294  0.1148 -0.9174
   70CHL1  H19B 6328   6.134   1.607   3.146  1.4789  0.0550 -0.1269
   70CHL1  H19C 6329   6.282   1.626   3.039 -0.2740  2.1544  1.3581
   70CHL1    C1 6330   6.260   1.403   2.878 -0.3127 -0.3175 -0.2555
   70CHL1   H1A 6331   6.362   1.447   2.874 -0.1648 -0.6614 -0.3889
   70CHL1   H1B 6332   6.268   1.292   2.875 -0.0792 -0.3860  1.7095
   70CHL1    C2 6333   6.188   1.459   2.751 -0.9230 -0.2800  0.7228
   70CHL1   H2A 6334   6.249   1.432   2.662  1.3138  2.0987  1.4039
   70CHL1   H2B 6335   6.179   1.570   2.755 -0.9359 -0.2273 -0.3427
   70CHL1   C20 6336   6.538   1.305   3.621  0.5287  0.3357  0.5376
   70CHL1   H20 6337   6.492   1.394   3.668  0.8706  0.5157  0.5359
   70CHL1   C21 6338   6.672   1.349   3.557  0.5446 -0.0224 -0.1842
   70CHL1  H21A 6339   6.716   1.268   3.494  0.9880  0.6454 -0.7440
   70CHL1  H21B 6340   6.739   1.397   3.631 -1.0123  0.2840  1.0659
   70CHL1  H21C 6341   6.641   1.424   3.482  0.8601 -0.4838 -0.7846
   70CHL1   C22 6342   6.574   1.202   3.730  0.0893 -0.6027  0.1076
   70CHL1  H22A 6343   6.488   1.141   3.765  0.3984 -0.2719  1.5122
   70CHL1  H22B 6344   6.649   1.126   3.700  1.2446 -0.2910  2.0230
   70CHL1   C23 6345   6.609   1.268   3.865 -0.5789  0.7962  0.0462
   70CHL1  H23A 6346   6.712   1.310   3.859  0.1469 -1.0178 -1.8137
   70CHL1  H23B 6347   6.531   1.340   3.897 -2.6019 -2.1486  2.3518
   70CHL1   C24 6348   6.618   1.163   3.984 -0.3303 -0.0342  0.5638
   70CHL1  H24A 6349   6.516   1.123   4.000  0.0856 -0.2016  3.1490
   70CHL1  H24B 6350   6.673   1.085   3.927  0.4690  0.9376 -0.0496
   70CHL1   C25 6351   6.679   1.217   4.113  0.8417  0.3717 -0.3264
   70CHL1   H25 6352   6.767   1.281   4.089  0.6804  0.5817 -0.3628
   70CHL1   C26 6353   6.566   1.296   4.187  0.1174  0.1740  0.3736
   70CHL1  H26A 6354   6.509   1.360   4.116  0.8381 -1.2134 -1.5364
   70CHL1  H26B 6355   6.491   1.232   4.239 -0.6108 -0.3553 -1.2484
   70CHL1  H26C 6356   6.605   1.360   4.268  0.1039  0.4371  0.1750
   70CHL1   C27 6357   6.736   1.107   4.199 -0.4280  0.5763 -0.0174
   70CHL1  H27A 6358   6.761   1.150   4.298 -0.2210  0.3719  0.0181
   70CHL1  H27B 6359   6.657   1.030   4.220  1.2106 -1.2176 -0.1501
   70CHL1  H27C 6360   6.826   1.058   4.157  1.0320  0.8353  2.5890
   71CHL1    C3 6361   3.097   1.120   2.835 -0.2716  0.8766 -0.5666
   71CHL1    H3 6362   3.175   1.042   2.848  0.8959  1.7482 -2.0490
   71CHL1    O3 6363   3.042   1.085   2.706  0.2414 -0.3720 -0.2118
   71CHL1   H3' 6364   3.116   1.076   2.645 -1.4618  0.8929 -2.6102
   71CHL1    C4 6365   2.993   1.084   2.942 -0.4761  0.4125 -0.5558
   71CHL1   H4A 6366   2.902   1.141   2.912  0.3197  0.5954 -2.8591
   71CHL1   H4B 6367   2.974   0.975   2.933 -1.0552  0.4864 -0.2925
   71CHL1    C5 6368   3.038   1.123   3.081 -0.2125  0.6791 -0.1190
   71CHL1    C6 6369   3.037   1.030   3.180 -0.7397  0.4214 -0.1742
   71CHL1    H6 6370   3.023   0.923   3.160 -0.8442 -0.0018  1.8758
   71CHL1    C7 6371   3.060   1.065   3.324 -0.2768 -0.4669 -0.2250
   71CHL1   H7A 6372   2.986   1.011   3.386 -1.0352 -1.7212 -2.1404
   71CHL1   H7B 6373   3.155   1.021   3.360 -0.2613  0.4037  0.8450
   71CHL1    C8 6374   3.071   1.221   3.352  0.3907  1.4304 -0.5473
   71CHL1    H8 6375   2.965   1.253   3.353  0.4505  1.6152  0.7362
   71CHL1   C14 6376   3.151   1.242   3.483 -0.1060  0.7423  0.5503
   71CHL1   H14 6377   3.257   1.216   3.465 -0.0026  0.2378  1.8055
   71CHL1   C15 6378   3.091   1.171   3.611  0.0453 -0.1181  0.0724
   71CHL1  H15A 6379   2.982   1.191   3.624 -0.4037 -3.0699  2.0519
   71CHL1  H15B 6380   3.108   1.061   3.607  0.0848 -0.1794  1.5273
   71CHL1   C16 6381   3.173   1.236   3.721 -0.3549  1.0677  0.5430
   71CHL1  H16A 6382   3.105   1.266   3.804 -0.8229 -1.7592  1.2673
   71CHL1  H16B 6383   3.255   1.171   3.758  1.5118  1.7798 -2.0931
   71CHL1   C17 6384   3.229   1.369   3.665  0.3683 -0.8966  0.4890
   71CHL1   H17 6385   3.334   1.344   3.640 -0.4663 -4.7436  0.2223
   71CHL1   C13 6386   3.161   1.387   3.522 -0.0401 -0.5608  0.2136
   71CHL1   C18 6387   3.022   1.458   3.556 -0.0842 -0.2141  0.8411
   71CHL1  H18A 6388   2.968   1.412   3.642 -0.1231 -1.4064  0.1891
   71CHL1  H18B 6389   3.037   1.563   3.590  0.8514 -0.3474  0.8451
   71CHL1  H18C 6390   2.960   1.473   3.465  1.5950  0.8417 -0.1742
   71CHL1   C12 6391   3.246   1.467   3.416 -0.7469  0.5921  0.0656
   71CHL1  H12A 6392   3.253   1.577   3.425  0.6083  0.5876 -0.6603
   71CHL1  H12B 6393   3.350   1.428   3.425 -1.7027 -1.6069  3.2342
   71CHL1   C11 6394   3.180   1.440   3.271 -0.6773  0.6106 -0.4799
   71CHL1  H11A 6395   3.091   1.507   3.265 -2.5242 -1.6781  0.1009
   71CHL1  H11B 6396   3.249   1.470   3.189 -2.7161  1.8746 -1.8163
   71CHL1    C9 6397   3.144   1.296   3.237 -0.3254  0.3998 -0.2561
   71CHL1    H9 6398   3.248   1.257   3.233 -0.7846 -0.8003 -1.0165
   71CHL1   C10 6399   3.079   1.277   3.096 -0.2767  0.9513 -0.7958
   71CHL1   C19 6400   2.956   1.363   3.088  0.4279  0.4588 -0.6936
   71CHL1  H19A 6401   2.910   1.346   2.988 -0.9829 -1.4486  0.2314
   71CHL1  H19B 6402   2.893   1.334   3.174  0.7397  1.1812 -0.2087
   71CHL1  H19C 6403   2.983   1.471   3.096  0.2606  0.4550 -0.0608
   71CHL1    C1 6404   3.193   1.308   2.994 -0.1648  0.8884  0.0996
   71CHL1   H1A 6405   3.233   1.412   2.995 -0.0268  0.8355  0.5589
   71CHL1   H1B 6406   3.281   1.248   3.023 -0.2502  0.6097 -0.2194
   71CHL1    C2 6407   3.161   1.258   2.850 -0.4903  0.0988  0.6576
   71CHL1   H2A 6408   3.246   1.257   2.780 -0.1794 -0.2227  1.0362
   71CHL1   H2B 6409   3.094   1.327   2.795  2.4607  1.3553 -1.6299
   71CHL1   C20 6410   3.225   1.485   3.769  0.5636  0.1267 -0.5397
   71CHL1   H20 6411   3.120   1.513   3.790  0.1519 -0.6814 -1.4930
   71CHL1   C21 6412   3.284   1.612   3.712 -0.2442 -0.7057 -0.1459
   71CHL1  H21A 6413   3.285   1.692   3.789  2.1652  1.2681 -2.0619
   71CHL1  H21B 6414   3.225   1.657   3.630 -1.3854  0.8122  1.4230
   71CHL1  H21C 6415   3.392   1.597   3.693 -0.0748  0.0693  0.1626
   71CHL1   C22 6416   3.278   1.442   3.914  0.0472 -0.6383  0.7575
   71CHL1  H22A 6417   3.242   1.526   3.978  0.9688  0.2565  0.1509
   71CHL1  H22B 6418   3.230   1.346   3.941  0.0967 -1.8630 -2.9309
   71CHL1   C23 6419   3.423   1.418   3.920 -0.6729 -0.3127  0.5672
   71CHL1  H23A 6420   3.446   1.352   3.834 -0.6765  0.3375  0.0587
   71CHL1  H23B 6421   3.471   1.517   3.912  0.2163 -0.6628  1.3987
   71CHL1   C24 6422   3.475   1.338   4.041  0.1713 -0.7940 -0.0941
   71CHL1  H24A 6423   3.412   1.249   4.066  0.8818 -1.1705  0.3985
   71CHL1  H24B 6424   3.573   1.298   4.005 -0.8488 -1.2187 -2.6330
   71CHL1   C25 6425   3.485   1.424   4.170 -0.9392  0.2188  1.0758
   71CHL1   H25 6426   3.529   1.525   4.156  0.3207 -0.7295 -3.0796
   71CHL1   C26 6427   3.345   1.436   4.238 -0.1732  0.3872 -0.0252
   71CHL1  H26A 6428   3.362   1.489   4.334  4.0969  0.0443 -0.3917
   71CHL1  H26B 6429   3.271   1.487   4.171 -1.1213  0.9898  1.4286
   71CHL1  H26C 6430   3.295   1.340   4.263 -0.3717  0.3304 -0.6285
   71CHL1   C27 6431   3.570   1.343   4.269 -0.4039  0.1712  0.4238
   71CHL1  H27A 6432   3.560   1.384   4.372  0.3702 -1.3104  1.1326
   71CHL1  H27B 6433   3.538   1.237   4.265  0.3020 -0.0210 -2.0943
   71CHL1  H27C 6434   3.677   1.345   4.240  0.1299  1.5990  2.2590
   72CHL1    C3 6435   3.679   6.029   2.966 -0.5182 -0.1764  0.6913
   72CHL1    H3 6436   3.638   5.936   3.011 -2.6290 -0.7519 -2.0932
   72CHL1    O3 6437   3.682   6.016   2.820  0.5394  0.0103 -0.1042
   72CHL1   H3' 6438   3.751   5.950   2.807 -0.1673 -0.5204 -1.2476
   72CHL1    C4 6439   3.591   6.151   3.011  0.4153  0.1251  0.5685
   72CHL1   H4A 6440   3.617   6.249   2.964 -1.4277  1.9048  2.9952
   72CHL1   H4B 6441   3.488   6.134   2.974  1.0618  2.6426 -2.9002
   72CHL1    C5 6442   3.602   6.178   3.158 -0.5402  0.3189  0.2809
   72CHL1    C6 6443   3.503   6.161   3.243 -0.3142 -0.2141 -0.3329
   72CHL1    H6 6444   3.400   6.143   3.207 -0.0045  0.4979 -1.6512
   72CHL1    C7 6445   3.510   6.197   3.389 -0.3956  0.0815  0.5027
   72CHL1   H7A 6446   3.418   6.252   3.418 -1.9876 -1.8237 -0.6675
   72CHL1   H7B 6447   3.514   6.108   3.455  1.8595 -1.3413 -1.3759
   72CHL1    C8 6448   3.637   6.287   3.418 -0.4275  0.4061  0.0291
   72CHL1    H8 6449   3.620   6.386   3.369  1.1743  1.8336  2.1892
   72CHL1   C14 6450   3.655   6.313   3.563  0.1703  0.7865 -0.1258
   72CHL1   H14 6451   3.660   6.209   3.603 -0.1773  1.4224  1.6071
   72CHL1   C15 6452   3.532   6.373   3.646 -0.5402  0.6576  0.2332
   72CHL1  H15A 6453   3.494   6.461   3.589 -4.1714 -0.1033  1.2189
   72CHL1  H15B 6454   3.457   6.291   3.648 -0.2911  0.4497  2.1070
   72CHL1   C16 6455   3.596   6.411   3.782  0.2431  0.5438  0.1102
   72CHL1  H16A 6456   3.555   6.506   3.822  0.8716  1.0393 -0.3808
   72CHL1  H16B 6457   3.566   6.332   3.854 -0.0537 -0.9230 -1.5536
   72CHL1   C17 6458   3.752   6.391   3.767 -0.3638 -0.0018 -0.1375
   72CHL1   H17 6459   3.786   6.293   3.807 -0.9384  0.2068  0.8813
   72CHL1   C13 6460   3.778   6.379   3.616 -0.2019 -0.2343  0.4504
   72CHL1   C18 6461   3.777   6.522   3.551 -0.5627  0.6083 -0.3323
   72CHL1  H18A 6462   3.769   6.512   3.441 -1.4090  1.1231 -0.3343
   72CHL1  H18B 6463   3.694   6.585   3.592 -1.1395  1.1740 -2.2892
   72CHL1  H18C 6464   3.878   6.557   3.581  0.2953 -3.6190  2.6671
   72CHL1   C12 6465   3.899   6.295   3.561  0.3269  0.2089 -0.5099
   72CHL1  H12A 6466   3.994   6.338   3.599  0.2533 -0.8013  0.9021
   72CHL1  H12B 6467   3.886   6.200   3.617  1.1397  0.3411 -0.0853
   72CHL1   C11 6468   3.897   6.273   3.411 -0.2399 -0.1581 -0.1817
   72CHL1  H11A 6469   3.937   6.355   3.347 -0.8693 -2.4573 -3.8779
   72CHL1  H11B 6470   3.970   6.191   3.396  0.8128  0.7031  0.1046
   72CHL1    C9 6471   3.759   6.226   3.356  0.5030 -0.1842  0.4867
   72CHL1    H9 6472   3.746   6.121   3.390  0.9012 -0.1157  0.8598
   72CHL1   C10 6473   3.747   6.213   3.201  0.1819  0.1573 -0.0319
   72CHL1   C19 6474   3.797   6.346   3.142 -0.2779  0.6728 -0.4154
   72CHL1  H19A 6475   3.907   6.361   3.141 -0.1619  0.1069  1.1788
   72CHL1  H19B 6476   3.768   6.347   3.035  0.9473 -1.4048 -0.8248
   72CHL1  H19C 6477   3.746   6.434   3.187 -2.0008  0.0021 -0.9717
   72CHL1    C1 6478   3.833   6.091   3.161  0.3341  0.7025 -0.2081
   72CHL1   H1A 6479   3.940   6.112   3.184  0.7760 -1.5748  0.0993
   72CHL1   H1B 6480   3.799   5.998   3.212  2.0723 -0.4751 -1.0935
   72CHL1    C2 6481   3.821   6.059   3.011 -0.0363  0.9798 -0.4153
   72CHL1   H2A 6482   3.883   5.974   2.975  2.0297  2.7091 -1.1365
   72CHL1   H2B 6483   3.855   6.145   2.949 -1.9770  1.7448 -0.5131
   72CHL1   C20 6484   3.827   6.494   3.850 -0.0165  0.2696 -0.2821
   72CHL1   H20 6485   3.803   6.595   3.808  0.1571  2.5187  4.4295
   72CHL1   C21 6486   3.972   6.454   3.843  0.7629 -0.3962 -0.4337
   72CHL1  H21A 6487   3.985   6.344   3.842 -0.3658 -0.5767  1.1946
   72CHL1  H21B 6488   4.036   6.500   3.921  0.5545  1.2296 -1.1691
   72CHL1  H21C 6489   4.009   6.493   3.746  0.4284  0.8489 -0.0869
   72CHL1   C22 6490   3.790   6.508   4.000 -0.2611  0.1232 -0.2502
   72CHL1  H22A 6491   3.680   6.493   4.000 -0.1457 -0.8701 -1.2618
   72CHL1  H22B 6492   3.839   6.423   4.051  1.8966 -0.4782 -3.0677
   72CHL1   C23 6493   3.827   6.644   4.058 -0.3480 -0.8786  0.0638
   72CHL1  H23A 6494   3.937   6.654   4.049 -0.5459  0.4153 -1.2992
   72CHL1  H23B 6495   3.782   6.714   3.984  1.0283 -1.4156 -1.3280
   72CHL1   C24 6496   3.778   6.674   4.196 -0.0432  0.5483 -0.1379
   72CHL1  H24A 6497   3.667   6.663   4.199 -0.0060  0.3660  1.2754
   72CHL1  H24B 6498   3.825   6.606   4.270  2.2525 -1.0406 -2.8432
   72CHL1   C25 6499   3.802   6.821   4.238  0.2026  1.1371  0.2607
   72CHL1   H25 6500   3.768   6.883   4.152 -2.0296 -1.6297 -1.0021
   72CHL1   C26 6501   3.718   6.862   4.360 -0.7103 -0.2579 -0.3442
   72CHL1  H26A 6502   3.752   6.961   4.398  0.0366 -0.4667 -0.4515
   72CHL1  H26B 6503   3.613   6.867   4.325 -0.2359  3.3969 -1.6423
   72CHL1  H26C 6504   3.741   6.786   4.438  1.7242  0.3127 -0.4401
   72CHL1   C27 6505   3.951   6.834   4.272  0.1312  0.2826 -0.0144
   72CHL1  H27A 6506   3.968   6.786   4.371  1.2001  0.8614  0.1074
   72CHL1  H27B 6507   4.028   6.790   4.205  0.8969 -0.8942  1.5737
   72CHL1  H27C 6508   3.971   6.942   4.286  0.5397  0.1634  0.3345
   73CHL1    C3 6509   4.860   0.671   2.627  0.4454 -0.2009  0.1317
   73CHL1    H3 6510   4.923   0.762   2.635  0.3254 -0.2140  1.4648
   73CHL1    O3 6511   4.847   0.637   2.488 -0.2960 -1.2057 -0.1568
   73CHL1   H3' 6512   4.771   0.579   2.481 -0.0897 -1.4227 -0.6469
   73CHL1    C4 6513   4.937   0.566   2.710 -0.4336 -0.0578 -0.4471
   73CHL1   H4A 6514   4.873   0.476   2.698  0.8379 -0.8175 -1.8577
   73CHL1   H4B 6515   5.036   0.541   2.666  0.7829 -1.5167  2.8366
   73CHL1    C5 6516   4.955   0.612   2.856  0.8511 -0.3042 -0.5943
   73CHL1    C6 6517   5.075   0.634   2.915 -0.3975  0.1194 -0.6933
   73CHL1    H6 6518   5.166   0.613   2.857 -0.3491  0.5832 -0.7914
   73CHL1    C7 6519   5.090   0.666   3.055 -0.4030  0.6000 -0.2743
   73CHL1   H7A 6520   5.164   0.596   3.099  0.7507  0.4806 -2.2576
   73CHL1   H7B 6521   5.121   0.770   3.074  0.5235  0.3552 -0.4197
   73CHL1    C8 6522   4.960   0.651   3.137  0.0147  0.1609  0.0663
   73CHL1    H8 6523   4.949   0.540   3.142  0.2123 -0.0281 -2.4019
   73CHL1   C14 6524   4.979   0.712   3.276 -0.0279  0.0055 -0.6020
   73CHL1   H14 6525   4.990   0.820   3.251 -0.1788  0.5642  1.5142
   73CHL1   C15 6526   5.106   0.685   3.360 -0.3669  0.7695 -0.0600
   73CHL1  H15A 6527   5.126   0.576   3.366  1.1536  1.0782  3.5004
   73CHL1  H15B 6528   5.196   0.740   3.324 -0.2999  1.2429  0.7942
   73CHL1   C16 6529   5.067   0.736   3.497  0.1193  0.3763 -0.5818
   73CHL1  H16A 6530   5.070   0.649   3.566 -3.9455 -1.0299 -1.8884
   73CHL1  H16B 6531   5.133   0.820   3.530  0.4851  0.3579 -1.2458
   73CHL1   C17 6532   4.925   0.787   3.483  0.1353  0.1727 -0.0595
   73CHL1   H17 6533   4.938   0.895   3.461  0.8680  0.1128  0.0453
   73CHL1   C13 6534   4.851   0.710   3.358 -0.0920 -0.4434 -0.3713
   73CHL1   C18 6535   4.812   0.566   3.394  0.5879  0.4564 -0.0534
   73CHL1  H18A 6536   4.895   0.515   3.446 -1.8582 -2.9579  0.8585
   73CHL1  H18B 6537   4.734   0.570   3.473  0.5628 -1.2358  0.0398
   73CHL1  H18C 6538   4.783   0.505   3.306  0.3965 -1.0321  0.9921
   73CHL1   C12 6539   4.751   0.799   3.287  0.0494  0.3306  0.2458
   73CHL1  H12A 6540   4.664   0.818   3.354 -1.7668 -1.3671 -1.5316
   73CHL1  H12B 6541   4.804   0.896   3.274 -0.5895  0.6345 -0.1622
   73CHL1   C11 6542   4.716   0.736   3.155 -0.2767  0.4996  0.1081
   73CHL1  H11A 6543   4.669   0.639   3.181  0.5243 -0.3321 -1.3844
   73CHL1  H11B 6544   4.644   0.802   3.102 -1.2901  1.0829  2.1200
   73CHL1    C9 6545   4.842   0.717   3.064 -0.1426 -0.1637 -0.6694
   73CHL1    H9 6546   4.874   0.820   3.036 -1.3719 -0.0627 -1.7768
   73CHL1   C10 6547   4.815   0.647   2.927  0.1901 -0.1542  0.4514
   73CHL1   C19 6548   4.749   0.511   2.952 -0.5514 -0.2091  0.5105
   73CHL1  H19A 6549   4.812   0.454   3.023 -1.9556 -0.0764  1.9134
   73CHL1  H19B 6550   4.645   0.519   2.987 -0.1471  0.1890  1.6460
   73CHL1  H19C 6551   4.742   0.457   2.855 -0.1859  0.6000  0.0202
   73CHL1    C1 6552   4.731   0.735   2.840  0.1549 -0.1849 -0.1994
   73CHL1   H1A 6553   4.631   0.754   2.885 -0.1922 -1.3732 -0.4141
   73CHL1   H1B 6554   4.787   0.831   2.834  2.4938 -1.5056 -0.6785
   73CHL1    C2 6555   4.718   0.683   2.696 -0.2981 -0.4044  0.2691
   73CHL1   H2A 6556   4.662   0.765   2.646 -1.5000 -0.6414  1.1837
   73CHL1   H2B 6557   4.663   0.586   2.693 -0.9890 -0.0112 -1.3609
   73CHL1   C20 6558   4.859   0.781   3.625 -0.0780  0.1389 -0.0837
   73CHL1   H20 6559   4.833   0.674   3.642  0.5743 -0.7274 -3.7055
   73CHL1   C21 6560   4.729   0.857   3.627  0.8655  0.1815  0.0381
   73CHL1  H21A 6561   4.742   0.961   3.592 -1.7850 -0.1402 -2.2153
   73CHL1  H21B 6562   4.679   0.851   3.726 -0.8379 -1.4118 -0.8625
   73CHL1  H21C 6563   4.656   0.814   3.555 -0.8600  3.3881 -0.3032
   73CHL1   C22 6564   4.939   0.838   3.747 -0.6966 -0.5058  0.2162
   73CHL1  H22A 6565   4.895   0.786   3.834  1.1178  0.5937  1.8832
   73CHL1  H22B 6566   5.043   0.801   3.739  0.0507  1.2622  1.2039
   73CHL1   C23 6567   4.931   0.988   3.793 -0.7670 -0.6303  0.1593
   73CHL1  H23A 6568   4.990   1.057   3.729  1.8464 -0.8807  2.1479
   73CHL1  H23B 6569   4.824   1.020   3.797 -0.8211 -0.9004  1.1661
   73CHL1   C24 6570   4.981   1.000   3.939  0.5495  0.3668  0.9585
   73CHL1  H24A 6571   4.918   0.929   3.996 -0.8085  0.6480 -0.1426
   73CHL1  H24B 6572   5.085   0.962   3.946  1.0889  1.7337  0.7738
   73CHL1   C25 6573   4.983   1.144   3.989 -0.1931  0.2852 -0.4346
   73CHL1   H25 6574   5.046   1.194   3.912 -0.8741  0.2856 -1.0059
   73CHL1   C26 6575   4.846   1.207   3.996  0.1831  0.1641  0.0222
   73CHL1  H26A 6576   4.785   1.185   3.905  0.7557 -0.2936 -0.2567
   73CHL1  H26B 6577   4.790   1.173   4.086  1.2754 -1.9774 -0.0357
   73CHL1  H26C 6578   4.859   1.317   4.004  1.5766  0.1571 -1.5629
   73CHL1   C27 6579   5.063   1.160   4.121 -0.0013  0.0239 -0.5767
   73CHL1  H27A 6580   5.065   1.266   4.155  0.2761 -0.1850  0.0691
   73CHL1  H27B 6581   5.029   1.097   4.205 -0.2323  0.1759 -0.5543
   73CHL1  H27C 6582   5.168   1.126   4.105 -0.0889 -0.6839  0.2968
   74CHL1    C3 6583   5.372   6.498   2.565  0.7731  0.5422  0.0972
   74CHL1    H3 6584   5.266   6.521   2.586 -0.4673 -2.6886 -1.8335
   74CHL1    O3 6585   5.401   6.467   2.432  0.4248  0.5005 -0.1053
   74CHL1   H3' 6586   5.483   6.417   2.436 -0.6953 -1.4718 -0.2016
   74CHL1    C4 6587   5.464   6.619   2.594 -0.2943 -0.6877 -0.2609
   74CHL1   H4A 6588   5.567   6.620   2.552  0.0171  0.8395  0.4783
   74CHL1   H4B 6589   5.418   6.701   2.535  0.0122 -0.4585 -0.1816
   74CHL1    C5 6590   5.473   6.647   2.744 -0.7717 -0.8421 -0.5361
   74CHL1    C6 6591   5.430   6.764   2.799  0.1830  0.3552  0.0411
   74CHL1    H6 6592   5.403   6.844   2.728 -0.4280  1.0066  0.9913
   74CHL1    C7 6593   5.435   6.811   2.944  0.5909  0.1015  0.6710
   74CHL1   H7A 6594   5.485   6.909   2.956  0.0484  0.4830 -0.0869
   74CHL1   H7B 6595   5.333   6.818   2.988 -0.7482 -1.2208 -1.9283
   74CHL1    C8 6596   5.519   6.709   3.026 -0.5104  0.2832 -0.4953
   74CHL1    H8 6597   5.621   6.719   2.983  0.0440 -3.5670 -0.4536
   74CHL1   C14 6598   5.507   6.738   3.174 -0.0562 -0.3289 -0.6626
   74CHL1   H14 6599   5.398   6.725   3.195 -0.7527  1.6875 -2.6637
   74CHL1   C15 6600   5.542   6.879   3.217 -0.0007  0.2943  0.1570
   74CHL1  H15A 6601   5.635   6.908   3.163  0.2025  0.9165  0.8225
   74CHL1  H15B 6602   5.458   6.951   3.206  2.1099  3.1093  1.2042
   74CHL1   C16 6603   5.587   6.860   3.368 -0.1690  0.4656 -0.1486
   74CHL1  H16A 6604   5.693   6.889   3.380  0.7050 -2.5627  0.1252
   74CHL1  H16B 6605   5.514   6.913   3.434 -0.7776 -0.3014 -0.1902
   74CHL1   C17 6606   5.565   6.705   3.395  0.4985  0.3768 -0.4300
   74CHL1   H17 6607   5.457   6.695   3.421  0.2821  1.1464 -1.0007
   74CHL1   C13 6608   5.582   6.639   3.264  0.4821  0.1900 -0.1339
   74CHL1   C18 6609   5.734   6.644   3.231  0.7944 -0.0512 -0.0442
   74CHL1  H18A 6610   5.794   6.569   3.287 -0.7785 -1.2010  0.1669
   74CHL1  H18B 6611   5.755   6.615   3.125  1.5988  1.6029 -0.3643
   74CHL1  H18C 6612   5.777   6.744   3.251  0.9633  0.1352 -1.2629
   74CHL1   C12 6613   5.518   6.496   3.243 -0.0196 -0.0648  0.5978
   74CHL1  H12A 6614   5.557   6.419   3.313 -2.2895 -0.4834  1.4995
   74CHL1  H12B 6615   5.409   6.499   3.263  0.1055 -0.3516  1.3486
   74CHL1   C11 6616   5.530   6.454   3.092  0.1195  0.0316  0.0587
   74CHL1  H11A 6617   5.633   6.414   3.080  0.2277 -0.4656  2.3054
   74CHL1  H11B 6618   5.463   6.366   3.077  2.2138 -1.8993  1.3787
   74CHL1    C9 6619   5.480   6.566   2.990 -0.3836 -0.3768  0.1989
   74CHL1    H9 6620   5.371   6.562   3.011 -0.1441  0.2097  1.7314
   74CHL1   C10 6621   5.507   6.532   2.841 -0.3056 -0.2287  0.5361
   74CHL1   C19 6622   5.656   6.501   2.823 -0.7029  0.2723 -0.0492
   74CHL1  H19A 6623   5.676   6.500   2.714 -1.5448 -2.1534 -0.2437
   74CHL1  H19B 6624   5.723   6.570   2.877  0.8577 -0.7728 -0.5810
   74CHL1  H19C 6625   5.664   6.393   2.849 -0.6290  0.4371  0.6221
   74CHL1    C1 6626   5.412   6.415   2.800 -0.3962 -0.4630 -0.4856
   74CHL1   H1A 6627   5.448   6.333   2.865  0.0588  0.7085  0.7954
   74CHL1   H1B 6628   5.316   6.439   2.851  0.8909  1.1222  1.3426
   74CHL1    C2 6629   5.414   6.377   2.658  0.0270 -0.3301 -0.2116
   74CHL1   H2A 6630   5.342   6.293   2.654 -0.3084 -0.0722  0.2713
   74CHL1   H2B 6631   5.512   6.334   2.627 -0.1260 -0.0297 -1.1554
   74CHL1   C20 6632   5.649   6.669   3.518 -0.2526  0.3419 -0.2468
   74CHL1   H20 6633   5.758   6.670   3.497  0.0463 -1.0208  1.0286
   74CHL1   C21 6634   5.621   6.519   3.560 -0.3447  0.0037  0.0034
   74CHL1  H21A 6635   5.510   6.509   3.569 -0.2640  0.7657  2.2420
   74CHL1  H21B 6636   5.662   6.498   3.661  0.7162  1.4667 -0.0974
   74CHL1  H21C 6637   5.663   6.447   3.486 -2.7444 -1.8850  0.3506
   74CHL1   C22 6638   5.620   6.747   3.645  0.0209 -0.1181  0.2427
   74CHL1  H22A 6639   5.689   6.713   3.725  2.1139  1.9753 -0.5578
   74CHL1  H22B 6640   5.640   6.855   3.628 -2.0386  0.1125 -1.0752
   74CHL1   C23 6641   5.480   6.726   3.692 -0.2671 -0.4072  0.2816
   74CHL1  H23A 6642   5.397   6.727   3.618 -3.4660 -2.0755  3.5719
   74CHL1  H23B 6643   5.472   6.635   3.754 -2.6971 -2.3712 -2.5769
   74CHL1   C24 6644   5.432   6.840   3.786  0.3387 -0.7806 -0.9942
   74CHL1  H24A 6645   5.436   6.938   3.734  1.4330  0.1091  0.6776
   74CHL1  H24B 6646   5.325   6.828   3.814  0.6977 -0.5033  0.5717
   74CHL1   C25 6647   5.495   6.861   3.923  0.7915  0.2509  0.0047
   74CHL1   H25 6648   5.604   6.851   3.903  0.4461 -2.2665 -1.0265
   74CHL1   C26 6649   5.451   6.987   3.990 -0.0967  0.0270  0.5906
   74CHL1  H26A 6650   5.522   7.020   4.068 -0.7033  1.9124  0.4109
   74CHL1  H26B 6651   5.451   7.069   3.914 -1.4010 -0.1633  0.3686
   74CHL1  H26C 6652   5.351   6.976   4.037  0.1572 -0.3910  1.0396
   74CHL1   C27 6653   5.454   6.748   4.018  0.5419 -0.3334 -0.0631
   74CHL1  H27A 6654   5.346   6.720   4.010  0.5046 -0.2642  0.1856
   74CHL1  H27B 6655   5.508   6.654   3.996 -1.5776 -2.3263  2.5932
   74CHL1  H27C 6656   5.486   6.777   4.120  1.8255 -0.7699 -0.3304
   75CHL1    C3 6657   4.339   5.775   2.936 -0.2815  1.3373 -0.8016
   75CHL1    H3 6658   4.408   5.690   2.956 -2.2071 -0.3277 -0.9180
   75CHL1    O3 6659   4.320   5.783   2.797  0.1864 -0.5442  0.1711
   75CHL1   H3' 6660   4.305   5.876   2.780 -1.4738 -0.7994  0.0276
   75CHL1    C4 6661   4.205   5.753   3.016 -0.0398  0.4399 -0.0897
   75CHL1   H4A 6662   4.129   5.819   2.971 -1.3503 -1.3020 -0.5220
   75CHL1   H4B 6663   4.181   5.650   2.983  2.8825  0.0500 -1.3803
   75CHL1    C5 6664   4.218   5.774   3.164 -0.1411 -0.5307 -0.3252
   75CHL1    C6 6665   4.173   5.678   3.247  0.4330 -1.0268  0.3968
   75CHL1    H6 6666   4.121   5.587   3.214  1.2445 -1.0063 -1.0497
   75CHL1    C7 6667   4.194   5.686   3.394 -0.7810  0.4494 -0.7414
   75CHL1   H7A 6668   4.113   5.636   3.451  0.4795  0.7024  1.3588
   75CHL1   H7B 6669   4.285   5.629   3.421 -0.7734  1.2181  1.0424
   75CHL1    C8 6670   4.219   5.828   3.447 -0.1310 -0.5106 -0.2526
   75CHL1    H8 6671   4.120   5.876   3.434  0.6483  1.4818  0.7188
   75CHL1   C14 6672   4.258   5.827   3.595 -0.9318 -0.3729 -0.5624
   75CHL1   H14 6673   4.340   5.753   3.608 -0.4105  0.3390  0.3241
   75CHL1   C15 6674   4.161   5.765   3.694  0.3945  0.1357  0.0297
   75CHL1  H15A 6675   4.068   5.821   3.669  0.0443 -1.1603 -1.7238
   75CHL1  H15B 6676   4.147   5.656   3.678  0.5541  0.4827 -2.9215
   75CHL1   C16 6677   4.212   5.812   3.829 -0.6183  0.2325  0.3055
   75CHL1  H16A 6678   4.129   5.857   3.887 -1.2286 -0.6594  0.1530
   75CHL1  H16B 6679   4.253   5.729   3.891 -2.4054  0.8971  2.5201
   75CHL1   C17 6680   4.321   5.922   3.799 -0.1134  0.8178  0.1110
   75CHL1   H17 6681   4.415   5.863   3.802 -0.6928 -0.3742  5.1869
   75CHL1   C13 6682   4.300   5.966   3.653 -1.2743 -0.3197 -0.4104
   75CHL1   C18 6683   4.184   6.080   3.642  0.3151  0.1805 -0.1891
   75CHL1  H18A 6684   4.135   6.084   3.542 -1.4820  1.0236  0.6734
   75CHL1  H18B 6685   4.104   6.050   3.713 -0.1316  0.1105 -0.7077
   75CHL1  H18C 6686   4.220   6.177   3.681 -1.2746  0.0474  1.7240
   75CHL1   C12 6687   4.417   6.017   3.567  0.2139  0.4282  0.1375
   75CHL1  H12A 6688   4.451   6.115   3.604 -0.0764  0.2433  0.9057
   75CHL1  H12B 6689   4.504   5.947   3.567  0.2965  0.5298 -0.2321
   75CHL1   C11 6690   4.383   6.021   3.418 -0.1151  0.3489 -0.3644
   75CHL1  H11A 6691   4.320   6.111   3.403  2.2244  2.3666  1.1113
   75CHL1  H11B 6692   4.465   6.046   3.347 -1.1582 -1.2712 -2.2608
   75CHL1    C9 6693   4.333   5.888   3.360  0.2770  0.3221 -0.4780
   75CHL1    H9 6694   4.418   5.815   3.363 -1.1584 -1.4069  1.6616
   75CHL1   C10 6695   4.302   5.897   3.212  0.3620  0.6644 -0.2958
   75CHL1   C19 6696   4.209   6.015   3.186  0.2864 -0.2632  0.2920
   75CHL1  H19A 6697   4.150   6.005   3.093  0.8753 -0.5770 -0.0496
   75CHL1  H19B 6698   4.132   6.024   3.266  0.3457  1.0922  0.2259
   75CHL1  H19C 6699   4.267   6.110   3.182  2.8297 -1.7847 -1.9501
   75CHL1    C1 6700   4.436   5.923   3.131  0.3821  0.0454  0.3122
   75CHL1   H1A 6701   4.479   6.025   3.135  0.8660 -0.1394 -0.0447
   75CHL1   H1B 6702   4.506   5.844   3.165 -0.0960 -0.6578 -0.3010
   75CHL1    C2 6703   4.415   5.905   2.980 -0.7316 -0.3548  0.3965
   75CHL1   H2A 6704   4.510   5.919   2.924 -0.2445 -0.3809  1.2072
   75CHL1   H2B 6705   4.351   5.990   2.947 -0.6803  0.2509  1.7653
   75CHL1   C20 6706   4.345   6.035   3.900  0.2622 -0.1356 -0.5632
   75CHL1   H20 6707   4.388   6.119   3.842  0.9427 -0.6326 -0.7980
   75CHL1   C21 6708   4.455   5.985   3.994 -0.0163 -0.0933  0.2018
   75CHL1  H21A 6709   4.492   6.066   4.061 -0.2941  0.8916 -0.7905
   75CHL1  H21B 6710   4.544   5.958   3.933  0.6247  1.2666  0.5034
   75CHL1  H21C 6711   4.422   5.897   4.052 -0.6567 -0.8532 -1.2560
   75CHL1   C22 6712   4.224   6.083   3.987  0.0432 -0.0955  0.0587
   75CHL1  H22A 6713   4.129   6.096   3.930  0.3849  1.1499 -0.2638
   75CHL1  H22B 6714   4.197   5.995   4.050  1.0843 -0.6205 -0.2101
   75CHL1   C23 6715   4.261   6.209   4.069  0.0050 -0.9639  0.1302
   75CHL1  H23A 6716   4.337   6.183   4.145  1.5232  1.3173 -0.5135
   75CHL1  H23B 6717   4.302   6.276   3.991  0.7860 -0.2613  1.1378
   75CHL1   C24 6718   4.145   6.284   4.135 -0.7031 -0.7876 -0.3525
   75CHL1  H24A 6719   4.071   6.333   4.069 -3.3338 -0.3350  2.7130
   75CHL1  H24B 6720   4.080   6.218   4.195  0.0657 -0.5230  0.7982
   75CHL1   C25 6721   4.197   6.393   4.233 -0.1654 -0.2112  0.4886
   75CHL1   H25 6722   4.276   6.352   4.299  1.0856  1.5871  0.1792
   75CHL1   C26 6723   4.257   6.514   4.169 -0.1854 -0.4204  0.4386
   75CHL1  H26A 6724   4.288   6.594   4.239 -1.1385 -0.4695  0.9370
   75CHL1  H26B 6725   4.350   6.480   4.119  0.0217  0.5444  0.1466
   75CHL1  H26C 6726   4.196   6.558   4.087  0.0051  1.5928  1.3379
   75CHL1   C27 6727   4.077   6.443   4.323 -0.6164  0.3876 -0.1384
   75CHL1  H27A 6728   4.115   6.510   4.403  2.0625  0.2466 -1.1746
   75CHL1  H27B 6729   4.014   6.503   4.253  0.1520  0.5043 -0.7506
   75CHL1  H27C 6730   4.020   6.354   4.355  0.3835 -0.1171  0.2893
   76CHL1    C3 6731   4.785   6.838   2.447 -0.5822 -0.0934 -0.4667
   76CHL1    H3 6732   4.841   6.742   2.457  0.9720  0.6924 -1.2527
   76CHL1    O3 6733   4.786   6.867   2.310 -0.1889 -0.2447  0.5450
   76CHL1   H3' 6734   4.714   6.930   2.302 -1.0348 -1.3871 -1.3570
   76CHL1    C4 6735   4.643   6.838   2.507  0.6459  1.0395  0.4167
   76CHL1   H4A 6736   4.595   6.932   2.472 -1.3571 -0.3901 -0.8087
   76CHL1   H4B 6737   4.589   6.757   2.455  3.6736  0.2606 -1.8197
   76CHL1    C5 6738   4.625   6.841   2.654 -0.0204  0.0895  1.1220
   76CHL1    C6 6739   4.558   6.743   2.719 -0.0302  0.2004  0.1249
   76CHL1    H6 6740   4.512   6.661   2.663  0.2503 -0.2247  0.5088
   76CHL1    C7 6741   4.560   6.735   2.869 -0.6135  0.0075  0.1227
   76CHL1   H7A 6742   4.457   6.714   2.906 -0.9286 -1.1220 -1.2963
   76CHL1   H7B 6743   4.625   6.649   2.897  0.1356  0.4789 -0.1528
   76CHL1    C8 6744   4.598   6.868   2.939  0.1704 -0.1560  0.1882
   76CHL1    H8 6745   4.520   6.944   2.917 -0.5532 -0.6232  1.0958
   76CHL1   C14 6746   4.620   6.843   3.093 -0.2603  0.1732  0.1486
   76CHL1   H14 6747   4.692   6.758   3.099 -0.1978 -0.0014 -2.1162
   76CHL1   C15 6748   4.503   6.795   3.179 -0.1072  0.0579  0.1538
   76CHL1  H15A 6749   4.408   6.852   3.179 -1.5223 -1.9795  3.9699
   76CHL1  H15B 6750   4.480   6.687   3.168 -2.4858  0.3321  1.7481
   76CHL1   C16 6751   4.554   6.813   3.322  0.3645  0.0403 -0.2896
   76CHL1  H16A 6752   4.474   6.874   3.369  0.6963  0.9358 -0.8524
   76CHL1  H16B 6753   4.562   6.716   3.376 -1.6092 -0.5656 -0.9921
   76CHL1   C17 6754   4.682   6.899   3.318 -0.1261 -0.0665  0.2622
   76CHL1   H17 6755   4.770   6.832   3.315  0.3945  0.5977  0.3915
   76CHL1   C13 6756   4.683   6.961   3.169  0.5787  0.4478 -0.5975
   76CHL1   C18 6757   4.587   7.091   3.166 -0.3314 -0.4805  0.4699
   76CHL1  H18A 6758   4.649   7.178   3.197 -1.3951  0.9316 -1.1505
   76CHL1  H18B 6759   4.535   7.115   3.071 -0.0455  0.7646  0.6024
   76CHL1  H18C 6760   4.512   7.072   3.246  0.6952 -1.2310  1.2727
   76CHL1   C12 6761   4.816   7.006   3.113  0.4084  0.0730  0.0849
   76CHL1  H12A 6762   4.856   7.100   3.157  0.0133  0.3524 -0.1433
   76CHL1  H12B 6763   4.893   6.927   3.122 -1.5738 -1.7886  1.7007
   76CHL1   C11 6764   4.794   7.036   2.958 -0.3570 -0.0908  0.1676
   76CHL1  H11A 6765   4.733   7.128   2.959 -0.4197 -0.1186 -0.6130
   76CHL1  H11B 6766   4.885   7.083   2.914  0.7360 -2.8919 -0.8199
   76CHL1    C9 6767   4.734   6.915   2.876  0.0391  0.3610 -0.0360
   76CHL1    H9 6768   4.812   6.837   2.889 -0.9824 -0.8044 -0.7297
   76CHL1   C10 6769   4.712   6.942   2.725 -0.3288  0.0449  1.0495
   76CHL1   C19 6770   4.654   7.080   2.689 -0.0109  0.4123  0.6731
   76CHL1  H19A 6771   4.628   7.100   2.582  2.1459  2.2801  0.4098
   76CHL1  H19B 6772   4.556   7.101   2.738 -0.7402 -1.9742  0.3765
   76CHL1  H19C 6773   4.721   7.167   2.709 -2.7716  2.5572  1.2930
   76CHL1    C1 6774   4.861   6.935   2.675  0.4017  0.0792 -0.0456
   76CHL1   H1A 6775   4.896   7.034   2.713  0.6531 -0.6208  1.6497
   76CHL1   H1B 6776   4.925   6.854   2.716  0.1677 -0.5667 -0.9294
   76CHL1    C2 6777   4.875   6.941   2.525  0.6529  0.3709  0.3668
   76CHL1   H2A 6778   4.979   6.934   2.486 -0.3483 -0.1259 -2.4952
   76CHL1   H2B 6779   4.836   7.037   2.483  1.3147 -0.3010 -1.9093
   76CHL1   C20 6780   4.686   6.991   3.440  0.5225 -0.1598 -0.1255
   76CHL1   H20 6781   4.597   7.057   3.444  0.9531  0.4605 -0.6671
   76CHL1   C21 6782   4.811   7.080   3.445 -0.3012 -1.3374 -0.3893
   76CHL1  H21A 6783   4.904   7.021   3.437  0.7939  0.1111  0.9769
   76CHL1  H21B 6784   4.819   7.139   3.539 -1.5075 -1.7925  0.0184
   76CHL1  H21C 6785   4.807   7.156   3.364  1.4670  1.2688  1.7928
   76CHL1   C22 6786   4.675   6.910   3.581  0.1352 -0.1319  0.0262
   76CHL1  H22A 6787   4.594   6.836   3.566  1.2246 -1.0557 -1.6963
   76CHL1  H22B 6788   4.775   6.866   3.600  0.1816  0.9792  2.7353
   76CHL1   C23 6789   4.638   6.997   3.701 -0.1905 -0.1327 -0.0215
   76CHL1  H23A 6790   4.718   7.072   3.720  0.7604 -1.2164  0.3109
   76CHL1  H23B 6791   4.545   7.044   3.663  0.1475 -1.2549 -2.4252
   76CHL1   C24 6792   4.608   6.922   3.834  0.3371  1.1059  0.0001
   76CHL1  H24A 6793   4.578   7.002   3.906 -0.7328  0.1738  0.6331
   76CHL1  H24B 6794   4.506   6.879   3.826  0.4991  0.3277  1.6396
   76CHL1   C25 6795   4.711   6.827   3.899 -0.9262 -0.1731  0.3059
   76CHL1   H25 6796   4.750   6.746   3.833 -0.2220 -0.1356  0.6721
   76CHL1   C26 6797   4.832   6.901   3.961 -0.4804  0.5363  1.1963
   76CHL1  H26A 6798   4.795   6.984   4.025 -1.7199  1.3241 -0.4672
   76CHL1  H26B 6799   4.900   6.828   4.011 -0.6647 -1.4332 -1.2758
   76CHL1  H26C 6800   4.886   6.967   3.890 -1.2560  0.4557  0.5268
   76CHL1   C27 6801   4.638   6.750   4.009 -0.0221 -0.1305 -0.2507
   76CHL1  H27A 6802   4.590   6.815   4.086 -1.4075  1.7538 -2.5592
   76CHL1  H27B 6803   4.558   6.684   3.970 -1.1565 -0.1939  2.0227
   76CHL1  H27C 6804   4.715   6.679   4.048  1.3575  0.8251 -1.1352
   77SOPE     N 6805   0.166   2.578   7.007 -0.0919 -0.3461 -0.2251
   77SOPE   HN1 6806   0.184   2.602   6.907  0.3485  1.9921  0.3548
   77SOPE   HN2 6807   0.066   2.557   7.022 -0.5279  0.7973 -1.2956
   77SOPE   HN3 6808   0.187   2.662   7.064 -0.9111  0.8474 -1.6025
   77SOPE   C12 6809   0.259   2.471   7.049 -0.1260  0.6157  0.1951
   77SOPE  H12A 6810   0.248   2.451   7.158  1.0595 -0.3038  0.1782
   77SOPE  H12B 6811   0.361   2.514   7.036 -0.1698  1.3983  2.1597
   77SOPE   C11 6812   0.231   2.345   6.969 -0.3346  0.1195 -0.1417
   77SOPE  H11A 6813   0.281   2.262   7.022  1.0192  1.7862  1.2971
   77SOPE  H11B 6814   0.269   2.373   6.868  0.5015  1.5369  0.5394
   77SOPE     P 6815   0.031   2.199   6.899  0.2408  0.8075  0.1994
   77SOPE   O13 6816  -0.115   2.220   6.895  0.3197  0.5895  0.5922
   77SOPE   O14 6817   0.087   2.076   6.965  0.6210  0.2857 -0.2581
   77SOPE   O12 6818   0.087   2.328   6.967 -0.6929  0.2022  0.5334
   77SOPE   O11 6819   0.082   2.207   6.746 -0.6568 -0.6457 -0.2198
   77SOPE    C1 6820   0.099   2.336   6.680  0.1312 -0.1789  0.4530
   77SOPE    HA 6821   0.201   2.337   6.636  1.2735  2.2344  2.8886
   77SOPE    HB 6822   0.091   2.420   6.753  0.5769  0.4162 -0.1715
   77SOPE    C2 6823  -0.007   2.360   6.569 -0.4567 -0.2288  0.0240
   77SOPE    HS 6824  -0.104   2.359   6.624 -0.3749  1.6471  0.2597
   77SOPE   O21 6825   0.018   2.270   6.463  0.3065  0.0416 -0.3569
   77SOPE   C21 6826  -0.064   2.162   6.456 -0.8031 -1.1893 -0.0301
   77SOPE   O22 6827  -0.147   2.130   6.538  0.2144  0.2720  0.7070
   77SOPE   C22 6828  -0.039   2.096   6.321 -0.1322 -0.3167  0.2915
   77SOPE   H2R 6829   0.067   2.073   6.295 -0.9700 -2.9216 -1.2012
   77SOPE   H2S 6830  -0.073   2.164   6.240 -0.0576 -0.1579  0.3948
   77SOPE    C3 6831  -0.001   2.504   6.509  0.1081 -0.5910  0.1588
   77SOPE    HX 6832   0.097   2.507   6.457  0.0333 -1.0450 -0.0160
   77SOPE    HY 6833   0.013   2.577   6.591  0.6450 -1.2532  0.6676
   77SOPE   O31 6834  -0.112   2.530   6.416 -0.6930  0.0762  0.0225
   77SOPE   C31 6835  -0.221   2.570   6.486 -0.3363 -0.5627  0.0342
   77SOPE   O32 6836  -0.234   2.578   6.605 -0.3805 -0.3677 -0.2941
   77SOPE   C32 6837  -0.347   2.598   6.391 -0.7087  0.6290  0.4799
   77SOPE   H2X 6838  -0.306   2.664   6.312  2.4221  1.2305  2.4341
   77SOPE   H2Y 6839  -0.414   2.665   6.449 -0.2539 -1.0936  3.1942
   77SOPE   C23 6840  -0.129   1.972   6.300 -0.6823  0.3066 -0.4499
   77SOPE   H3R 6841  -0.230   2.014   6.317  0.5673  2.8665  1.4230
   77SOPE   H3S 6842  -0.112   1.901   6.384 -1.1142  1.0845  0.3169
   77SOPE   C24 6843  -0.117   1.908   6.162  0.0601  0.9329  0.2917
   77SOPE   H4R 6844  -0.197   1.831   6.154 -0.4605  1.3280  1.4690
   77SOPE   H4S 6845  -0.137   1.988   6.086  0.5966 -0.4181 -1.3311
   77SOPE   C25 6846   0.026   1.855   6.135 -0.8736 -0.2430 -0.2968
   77SOPE   H5R 6847   0.096   1.936   6.102 -0.1335 -1.4999 -1.9585
   77SOPE   H5S 6848   0.064   1.828   6.235 -1.4734  0.3764  0.1101
   77SOPE   C26 6849   0.038   1.742   6.032 -0.2887 -0.4888  0.2577
   77SOPE   H6R 6850   0.141   1.702   6.039 -0.3652 -1.3173 -2.3153
   77SOPE   H6S 6851  -0.047   1.672   6.049 -0.9354  0.0823 -0.5484
   77SOPE   C27 6852   0.014   1.791   5.884  0.0009 -0.2593 -0.4569
   77SOPE   H7R 6853  -0.051   1.882   5.883  1.1446  0.6278  1.3239
   77SOPE   H7S 6854   0.112   1.830   5.849  0.3464  0.7795  1.5296
   77SOPE   C28 6855  -0.023   1.677   5.792  0.5002 -0.3976 -0.0600
   77SOPE   H8R 6856   0.047   1.592   5.808  0.4183 -0.2122  1.4391
   77SOPE   H8S 6857  -0.115   1.641   5.844 -1.0420  2.6110 -0.4798
   77SOPE   C29 6858  -0.045   1.719   5.651  0.3619  0.1535 -0.1144
   77SOPE   H91 6859  -0.137   1.778   5.635  1.6621  1.8966 -1.5274
   77SOPE  C210 6860   0.028   1.682   5.549  0.0171  0.0563  0.3832
   77SOPE  H101 6861   0.000   1.717   5.448 -0.1574 -2.3417 -0.4707
   77SOPE  C211 6862   0.155   1.601   5.556 -0.3238  0.6180 -0.3440
   77SOPE  H11R 6863   0.163   1.544   5.651  0.6014 -0.3367 -0.9845
   77SOPE  H11S 6864   0.247   1.663   5.550  0.9963 -1.4082 -3.3298
   77SOPE  C212 6865   0.162   1.502   5.441 -0.7648 -0.2139  0.0259
   77SOPE  H12R 6866   0.061   1.466   5.411 -0.5865  0.7504 -1.8883
   77SOPE  H12S 6867   0.221   1.416   5.479 -2.4704 -0.9186  1.1884
   77SOPE  C213 6868   0.221   1.556   5.317  0.0362 -0.2972  0.2441
   77SOPE  H13R 6869   0.313   1.616   5.335 -0.1830  0.2861 -0.4961
   77SOPE  H13S 6870   0.141   1.618   5.270  0.4121 -1.0840 -1.5082
   77SOPE  C214 6871   0.238   1.446   5.213  0.5506 -0.3472  0.2355
   77SOPE  H14R 6872   0.138   1.414   5.177  0.5441  0.0113 -0.0682
   77SOPE  H14S 6873   0.303   1.364   5.252  2.4537  0.3511 -1.3370
   77SOPE  C215 6874   0.327   1.502   5.096  0.5066 -0.2430  0.2868
   77SOPE  H15R 6875   0.430   1.524   5.132 -0.1529  3.1913  0.4492
   77SOPE  H15S 6876   0.289   1.601   5.063  1.3914  0.1158  0.3086
   77SOPE  C216 6877   0.322   1.406   4.974  0.2088  0.4539  0.8118
   77SOPE  H16R 6878   0.217   1.382   4.947  1.0338 -1.8187 -0.6974
   77SOPE  H16S 6879   0.369   1.309   5.002  0.6056  0.6801  0.9383
   77SOPE  C217 6880   0.398   1.461   4.848 -0.5147 -0.0122  0.2029
   77SOPE  H17R 6881   0.357   1.563   4.830 -0.9466  0.1224  1.8147
   77SOPE  H17S 6882   0.374   1.395   4.762 -0.6946 -1.6587  1.4673
   77SOPE  C218 6883   0.551   1.468   4.877  0.6646 -0.0741  0.5085
   77SOPE  H18R 6884   0.595   1.367   4.888  0.5040 -0.5293 -2.4467
   77SOPE  H18S 6885   0.574   1.536   4.962  3.2136 -0.4932  0.2047
   77SOPE  H18T 6886   0.608   1.516   4.795  0.4768  1.2404  1.1063
   77SOPE   C33 6887  -0.440   2.481   6.342 -0.5119  0.5083  0.1612
   77SOPE   H3X 6888  -0.529   2.517   6.286  2.3946  3.5403 -3.0133
   77SOPE   H3Y 6889  -0.475   2.421   6.428 -0.8000 -0.8465 -0.8644
   77SOPE   C34 6890  -0.371   2.387   6.244  0.0506 -0.3605  0.5116
   77SOPE   H4X 6891  -0.283   2.337   6.289 -0.3547 -0.8881  0.7374
   77SOPE   H4Y 6892  -0.342   2.447   6.155  1.5445 -1.6806  0.0607
   77SOPE   C35 6893  -0.450   2.269   6.210 -0.2605  0.6027 -0.1172
   77SOPE   H5X 6894  -0.554   2.290   6.175 -0.8103  0.0227  1.1231
   77SOPE   H5Y 6895  -0.463   2.219   6.308  1.1999  1.1810  0.3998
   77SOPE   C36 6896  -0.373   2.175   6.108 -0.0362  0.9352 -0.1593
   77SOPE   H6X 6897  -0.382   2.073   6.151 -0.7960  1.5715  1.2588
   77SOPE   H6Y 6898  -0.266   2.196   6.132  0.2197 -0.8453  0.4573
   77SOPE   C37 6899  -0.411   2.184   5.960 -0.6196 -0.4948  0.0730
   77SOPE   H7X 6900  -0.382   2.289   5.937  0.4479 -0.1060  2.7610
   77SOPE   H7Y 6901  -0.517   2.165   5.935 -0.3121 -1.2374 -0.6892
   77SOPE   C38 6902  -0.322   2.102   5.870 -0.3011 -0.8329  0.4381
   77SOPE   H8X 6903  -0.326   1.992   5.884 -2.0932 -0.8040  0.4626
   77SOPE   H8Y 6904  -0.220   2.144   5.876 -0.8911  0.4258  2.6361
   77SOPE   C39 6905  -0.361   2.128   5.720  0.3269 -0.4254 -0.0324
   77SOPE   H9X 6906  -0.377   2.233   5.686  1.6329 -0.3338 -0.4094
   77SOPE   H9Y 6907  -0.458   2.077   5.705  1.1436 -2.5267  1.4464
   77SOPE  C310 6908  -0.252   2.060   5.628  0.2554 -0.3659 -0.2347
   77SOPE  H10X 6909  -0.248   1.953   5.657 -3.0200 -0.1245  1.5710
   77SOPE  H10Y 6910  -0.154   2.110   5.640  0.7893 -1.6692  1.0685
   77SOPE  C311 6911  -0.282   2.064   5.474  0.1176 -0.5585 -0.0209
   77SOPE  H11X 6912  -0.231   2.157   5.442 -3.2016  1.8615  1.1693
   77SOPE  H11Y 6913  -0.392   2.076   5.465  0.3475  1.1629 -0.8810
   77SOPE  C312 6914  -0.249   1.948   5.382 -0.1401  0.5731  0.0517
   77SOPE  H12X 6915  -0.329   1.873   5.399  0.7802 -0.0500  2.0528
   77SOPE  H12Y 6916  -0.152   1.905   5.417 -0.4683  0.2472  0.5754
   77SOPE  C313 6917  -0.245   1.990   5.231 -0.0003 -0.1378  0.2704
   77SOPE  H13X 6918  -0.195   1.908   5.175  0.4266 -0.3729  0.9879
   77SOPE  H13Y 6919  -0.170   2.068   5.208  0.4741 -0.0566  1.9830
   77SOPE  C314 6920  -0.378   2.033   5.173 -0.0609  0.1304 -0.2667
   77SOPE  H14X 6921  -0.391   2.121   5.240  2.6154 -0.7574  1.6036
   77SOPE  H14Y 6922  -0.466   1.971   5.200  0.8279 -0.3713  1.6282
   77SOPE  C315 6923  -0.372   2.070   5.026  0.6702 -0.5930 -0.3815
   77SOPE  H15X 6924  -0.340   2.172   4.996 -1.1645  0.7518  1.9203
   77SOPE  H15Y 6925  -0.481   2.077   5.003 -0.0801  0.2628  2.8945
   77SOPE  C316 6926  -0.329   1.947   4.933 -0.4149 -0.2180 -0.0166
   77SOPE  H16X 6927  -0.384   1.854   4.958  1.0914 -0.7625  1.4138
   77SOPE  H16Y 6928  -0.224   1.925   4.958 -0.2158 -2.0036 -2.1561
   77SOPE  C317 6929  -0.361   1.976   4.788  0.1004 -0.6784  0.3769
   77SOPE  H17X 6930  -0.332   2.082   4.771  2.4438 -1.6690 -2.8813
   77SOPE  H17Y 6931  -0.468   1.975   4.759  0.4102 -1.0782 -0.8181
   77SOPE  C318 6932  -0.270   1.896   4.686  0.7295  0.4715  1.1140
   77SOPE  H18X 6933  -0.323   1.900   4.588  0.6755 -2.4540  0.9401
   77SOPE  H18Y 6934  -0.260   1.788   4.713  1.3254  0.1921 -0.1543
   77SOPE  H18Z 6935  -0.179   1.953   4.661  1.4082 -0.8845  0.3964
   78SOPE     N 6936   0.715   1.287   6.551  0.4908 -0.9207  0.1872
   78SOPE   HN1 6937   0.797   1.300   6.614 -0.5657  2.1695  1.1300
   78SOPE   HN2 6938   0.705   1.184   6.544  0.4923 -0.9078 -0.0223
   78SOPE   HN3 6939   0.743   1.333   6.461  0.1581 -2.1098 -0.5424
   78SOPE   C12 6940   0.585   1.331   6.619  0.8076 -0.7077  0.4745
   78SOPE  H12A 6941   0.596   1.322   6.729 -1.2407  0.9140  0.8814
   78SOPE  H12B 6942   0.507   1.257   6.588  0.6609 -0.4333  0.1824
   78SOPE   C11 6943   0.547   1.479   6.572 -0.3833 -0.2290 -0.7581
   78SOPE  H11A 6944   0.469   1.512   6.644  0.3783  1.0645 -0.4977
   78SOPE  H11B 6945   0.509   1.479   6.468 -1.0918  2.2554 -0.5513
   78SOPE     P 6946   0.635   1.724   6.593 -0.0083  0.7483  0.1628
   78SOPE   O13 6947   0.768   1.782   6.586 -0.0795  0.1999 -0.5395
   78SOPE   O14 6948   0.569   1.736   6.727  0.1423  0.1491  0.5481
   78SOPE   O12 6949   0.651   1.571   6.574  0.4083  0.2490 -0.1131
   78SOPE   O11 6950   0.544   1.771   6.470  0.1153  0.1682 -0.3839
   78SOPE    C1 6951   0.584   1.752   6.332 -0.1445  0.1340 -0.5356
   78SOPE    HA 6952   0.541   1.657   6.294 -0.2592 -0.6186  1.3318
   78SOPE    HB 6953   0.693   1.729   6.327 -0.1061 -0.3113  1.5132
   78SOPE    C2 6954   0.551   1.864   6.239  0.3655  0.1837  0.3784
   78SOPE    HS 6955   0.441   1.851   6.236  0.5285 -3.0140  2.5949
   78SOPE   O21 6956   0.617   1.835   6.114  0.7527  0.3673 -0.4784
   78SOPE   C21 6957   0.539   1.789   6.018  1.6821 -0.0299 -0.1759
   78SOPE   O22 6958   0.417   1.768   6.021  1.1647  0.1289  0.2229
   78SOPE   C22 6959   0.626   1.758   5.895  0.0872 -0.4332 -0.3286
   78SOPE   H2R 6960   0.687   1.670   5.925 -0.5032 -0.3609  1.1642
   78SOPE   H2S 6961   0.700   1.836   5.867 -0.2416  0.1009  0.2722
   78SOPE    C3 6962   0.595   1.999   6.292 -0.2150 -0.1986  0.2099
   78SOPE    HX 6963   0.704   2.006   6.308 -0.0595  0.0705 -0.8668
   78SOPE    HY 6964   0.564   2.008   6.398 -0.6555  1.1202 -0.0009
   78SOPE   O31 6965   0.536   2.118   6.221 -1.0041  0.2606  0.1607
   78SOPE   C31 6966   0.409   2.129   6.226 -0.1827 -0.0480 -0.4613
   78SOPE   O32 6967   0.328   2.053   6.281  0.0027  0.3800 -0.4357
   78SOPE   C32 6968   0.376   2.248   6.139 -0.2549  0.1073 -0.3946
   78SOPE   H2X 6969   0.474   2.273   6.093  0.9748 -1.3260  1.2975
   78SOPE   H2Y 6970   0.339   2.335   6.197 -1.0675  0.0147 -0.7475
   78SOPE   C23 6971   0.536   1.737   5.771  0.3577  0.4216 -0.5910
   78SOPE   H3R 6972   0.465   1.822   5.765 -0.2500  0.0097  0.5406
   78SOPE   H3S 6973   0.467   1.650   5.782 -0.0756  0.9000  0.6103
   78SOPE   C24 6974   0.606   1.730   5.635 -0.7467 -0.1205 -0.1111
   78SOPE   H4R 6975   0.665   1.824   5.622  1.3312 -1.0501  1.9050
   78SOPE   H4S 6976   0.677   1.645   5.645 -1.1572 -0.2315  2.7159
   78SOPE   C25 6977   0.515   1.745   5.517  0.2905  0.3354  0.5367
   78SOPE   H5R 6978   0.469   1.645   5.502  1.0106  0.2939 -1.7827
   78SOPE   H5S 6979   0.436   1.822   5.532  0.1072  0.1737  0.4078
   78SOPE   C26 6980   0.568   1.775   5.376 -0.2328 -0.7786 -0.3271
   78SOPE   H6R 6981   0.491   1.751   5.300  0.7498  0.6994 -1.8517
   78SOPE   H6S 6982   0.612   1.877   5.384  1.2349 -1.4941  1.4754
   78SOPE   C27 6983   0.693   1.692   5.328  0.8331  0.4878 -0.3488
   78SOPE   H7R 6984   0.784   1.709   5.389  0.4313  0.3031  0.3196
   78SOPE   H7S 6985   0.649   1.592   5.350  1.3257  0.6059  1.3212
   78SOPE   C28 6986   0.712   1.702   5.172 -0.8042 -0.1077  1.1719
   78SOPE   H8R 6987   0.808   1.650   5.152  0.8473  3.4648 -1.3303
   78SOPE   H8S 6988   0.616   1.660   5.135 -0.4208 -1.0217  1.1894
   78SOPE   C29 6989   0.740   1.846   5.128  0.6488 -1.2647  0.0571
   78SOPE   H91 6990   0.777   1.909   5.211 -0.8235  0.0047 -0.2113
   78SOPE  C210 6991   0.725   1.895   5.004 -0.1162 -0.1548  0.9168
   78SOPE  H101 6992   0.743   2.001   4.981 -1.5439 -0.0370  0.2662
   78SOPE  C211 6993   0.671   1.813   4.892 -0.1850 -0.4525  0.2951
   78SOPE  H11R 6994   0.561   1.811   4.903 -0.0553 -2.3471  1.8351
   78SOPE  H11S 6995   0.718   1.712   4.888 -1.7288 -1.1883 -0.3801
   78SOPE  C212 6996   0.716   1.874   4.754 -0.5495  0.2039 -0.0262
   78SOPE  H12R 6997   0.747   1.793   4.684  2.4673  0.2479  1.1188
   78SOPE  H12S 6998   0.810   1.926   4.784 -0.8202  0.4177  0.4585
   78SOPE  C213 6999   0.628   1.984   4.688  0.5338  0.4384 -0.7471
   78SOPE  H13R 7000   0.589   2.058   4.761 -1.5453  0.6079 -1.9288
   78SOPE  H13S 7001   0.534   1.933   4.656  0.1860  0.1062  0.7527
   78SOPE  C214 7002   0.682   2.061   4.575 -0.0278  0.3213  0.0298
   78SOPE  H14R 7003   0.779   2.102   4.610 -0.3673  0.0879  1.3051
   78SOPE  H14S 7004   0.606   2.132   4.536  0.4495  0.6739 -0.2601
   78SOPE  C215 7005   0.708   1.976   4.448 -0.6314  0.1335 -0.0351
   78SOPE  H15R 7006   0.609   1.955   4.401 -0.3032 -1.0123 -0.2498
   78SOPE  H15S 7007   0.760   1.886   4.486 -0.9208 -0.2880 -0.6187
   78SOPE  C216 7008   0.803   2.044   4.340 -0.5255  0.6810 -0.3566
   78SOPE  H16R 7009   0.899   2.082   4.381  1.2147 -0.0665 -3.4238
   78SOPE  H16S 7010   0.752   2.137   4.308  0.4118  0.3364 -3.0867
   78SOPE  C217 7011   0.816   1.949   4.221 -0.2721 -0.8359 -0.4973
   78SOPE  H17R 7012   0.711   1.919   4.201 -0.7235 -0.1729  0.7803
   78SOPE  H17S 7013   0.867   1.853   4.241 -0.1317 -0.6063  0.3146
   78SOPE  C218 7014   0.875   2.019   4.103  0.1525 -0.2532 -0.1421
   78SOPE  H18R 7015   0.976   2.058   4.130 -1.0641  1.6357  2.1611
   78SOPE  H18S 7016   0.809   2.103   4.073  0.6275  1.2966  2.7592
   78SOPE  H18T 7017   0.895   1.953   4.016 -4.1789 -2.2949  0.1594
   78SOPE   C33 7018   0.276   2.231   6.037 -0.1033 -0.6954 -0.1571
   78SOPE   H3X 7019   0.256   2.337   6.009 -1.3851 -0.7745  0.3872
   78SOPE   H3Y 7020   0.179   2.187   6.071  0.0510 -1.4125 -0.6250
   78SOPE   C34 7021   0.320   2.148   5.914  0.9434  0.1123 -0.4967
   78SOPE   H4X 7022   0.347   2.047   5.949 -1.2065  0.0869  1.3127
   78SOPE   H4Y 7023   0.414   2.190   5.873  2.2766 -0.2032  2.0478
   78SOPE   C35 7024   0.213   2.153   5.807 -0.5685 -0.4001  0.0256
   78SOPE   H5X 7025   0.194   2.260   5.782  1.5937  0.5536  2.0016
   78SOPE   H5Y 7026   0.123   2.106   5.853 -1.3062  1.9907  1.1978
   78SOPE   C36 7027   0.255   2.083   5.673  0.1514 -0.2231 -0.1175
   78SOPE   H6X 7028   0.222   1.977   5.682  2.3807 -0.9566 -0.1747
   78SOPE   H6Y 7029   0.365   2.096   5.670  0.2721 -1.3451 -1.3791
   78SOPE   C37 7030   0.193   2.140   5.550 -0.1010  0.4735 -0.0630
   78SOPE   H7X 7031   0.240   2.235   5.516 -0.8624  0.8100 -0.2045
   78SOPE   H7Y 7032   0.085   2.163   5.567 -0.4376  0.1021 -1.5480
   78SOPE   C38 7033   0.215   2.043   5.436 -0.2226 -0.3519  0.9563
   78SOPE   H8X 7034   0.171   1.944   5.462 -1.0547  0.2677  2.0062
   78SOPE   H8Y 7035   0.325   2.031   5.425 -0.3832 -1.8096  0.6840
   78SOPE   C39 7036   0.137   2.101   5.315  0.0918  0.0412 -0.5799
   78SOPE   H9X 7037   0.175   2.199   5.277 -0.1299  0.5668  0.5226
   78SOPE   H9Y 7038   0.036   2.124   5.356  0.3970  0.7929 -0.2322
   78SOPE  C310 7039   0.123   1.998   5.202 -0.0604 -0.0584  0.0399
   78SOPE  H10X 7040   0.068   2.059   5.127  0.1743 -0.6333 -0.6187
   78SOPE  H10Y 7041   0.061   1.909   5.228  0.7181  0.0803  2.5515
   78SOPE  C311 7042   0.256   1.943   5.155 -0.0979  0.6404  0.3952
   78SOPE  H11X 7043   0.299   1.886   5.240  1.2753  1.0798  0.0220
   78SOPE  H11Y 7044   0.319   2.033   5.142 -2.6899  2.4063 -0.6687
   78SOPE  C312 7045   0.260   1.862   5.026 -0.1531 -0.3024  0.2374
   78SOPE  H12X 7046   0.218   1.759   5.022 -0.2460 -0.5281  3.9583
   78SOPE  H12Y 7047   0.370   1.845   5.023 -0.0360  0.5365 -0.7252
   78SOPE  C313 7048   0.220   1.951   4.897 -0.1474  0.7937 -0.5198
   78SOPE  H13X 7049   0.268   2.050   4.910 -0.8061  0.9727  0.7096
   78SOPE  H13Y 7050   0.110   1.960   4.910 -0.2822 -1.8738  0.7958
   78SOPE  C314 7051   0.253   1.889   4.764  0.3579 -0.8916  0.3052
   78SOPE  H14X 7052   0.192   1.798   4.782 -1.3849  0.3579  0.9627
   78SOPE  H14Y 7053   0.361   1.863   4.768  0.6420  0.2764  0.8154
   78SOPE  C315 7054   0.219   1.973   4.648  0.3076  0.0809  0.9229
   78SOPE  H15X 7055   0.293   2.057   4.649  0.4304 -0.0280  0.9403
   78SOPE  H15Y 7056   0.121   2.024   4.658  0.7250  0.7161  2.0704
   78SOPE  C316 7057   0.257   1.901   4.519  0.2309 -0.0703 -0.0378
   78SOPE  H16X 7058   0.218   1.797   4.527 -0.9741  0.5053  3.0888
   78SOPE  H16Y 7059   0.367   1.893   4.511  0.1534 -1.0752 -0.2853
   78SOPE  C317 7060   0.193   1.964   4.406  0.8113 -0.0713  0.1187
   78SOPE  H17X 7061   0.220   2.072   4.398  1.9529 -0.3064  0.5689
   78SOPE  H17Y 7062   0.083   1.967   4.418  0.7747  1.6578 -0.3465
   78SOPE  C318 7063   0.233   1.880   4.277 -0.3766  0.2648 -0.3702
   78SOPE  H18X 7064   0.253   1.939   4.186  1.1230 -1.8260 -1.4895
   78SOPE  H18Y 7065   0.157   1.805   4.248 -0.5651  0.0908  0.5250
   78SOPE  H18Z 7066   0.334   1.839   4.300  0.5678  3.0638  0.8187
   79SOPE     N 7067   3.289   5.312   6.160  1.0374  0.0688 -0.4085
   79SOPE   HN1 7068   3.213   5.309   6.231  0.6064  5.4382 -0.2112
   79SOPE   HN2 7069   3.373   5.369   6.186  1.1977  0.8332 -2.4259
   79SOPE   HN3 7070   3.245   5.364   6.082  0.2615  1.0283  0.6165
   79SOPE   C12 7071   3.301   5.179   6.096 -0.1905 -0.2028  0.0074
   79SOPE  H12A 7072   3.367   5.107   6.150  1.3023  1.0787 -0.0411
   79SOPE  H12B 7073   3.347   5.193   5.995 -2.0943 -1.3114 -1.0699
   79SOPE   C11 7074   3.166   5.103   6.076 -0.5585 -0.0110  0.2465
   79SOPE  H11A 7075   3.191   5.008   6.023 -2.0047 -0.9277  1.1717
   79SOPE  H11B 7076   3.110   5.170   6.007  0.5178 -1.0489 -1.7247
   79SOPE     P 7077   2.990   5.156   6.260  0.0639 -0.3157  0.3484
   79SOPE   O13 7078   3.036   5.295   6.286 -0.9729  0.3627  0.4530
   79SOPE   O14 7079   2.938   5.088   6.377 -0.2562  0.3333 -0.0150
   79SOPE   O12 7080   3.102   5.066   6.199 -0.3129  0.5682  0.2565
   79SOPE   O11 7081   2.878   5.159   6.142  0.0486 -0.0238  0.0414
   79SOPE    C1 7082   2.838   5.039   6.067 -0.5367  0.4041  0.4369
   79SOPE    HA 7083   2.736   5.001   6.089 -0.8697  0.0833 -1.4694
   79SOPE    HB 7084   2.909   4.956   6.087  0.7548  1.8634  2.2327
   79SOPE    C2 7085   2.834   5.070   5.917  0.0954  0.0465 -0.3916
   79SOPE    HS 7086   2.936   5.096   5.881 -0.2801  2.6009  0.1952
   79SOPE   O21 7087   2.747   5.186   5.897 -0.0429  0.0903 -0.3187
   79SOPE   C21 7088   2.786   5.265   5.799 -0.2857  0.3951 -0.2333
   79SOPE   O22 7089   2.891   5.250   5.732  0.0416 -0.2756  0.5575
   79SOPE   C22 7090   2.685   5.378   5.777  0.3462 -1.1317 -0.9616
   79SOPE   H2R 7091   2.742   5.467   5.741  1.0988 -0.0038  2.6651
   79SOPE   H2S 7092   2.649   5.404   5.878 -1.1091 -1.0154 -1.4869
   79SOPE    C3 7093   2.772   4.947   5.849 -0.1464 -0.1500  0.2436
   79SOPE    HX 7094   2.744   4.972   5.745 -0.8693 -0.9569  0.2416
   79SOPE    HY 7095   2.684   4.907   5.904 -0.0689 -1.8700 -0.8414
   79SOPE   O31 7096   2.864   4.826   5.845 -0.0936 -0.7141  0.2568
   79SOPE   C31 7097   2.818   4.729   5.776  0.3568  0.0805 -0.1435
   79SOPE   O32 7098   2.715   4.737   5.707 -0.2616 -0.0587  0.0123
   79SOPE   C32 7099   2.900   4.603   5.798  0.5043  0.5251 -0.2020
   79SOPE   H2X 7100   2.925   4.587   5.905 -0.3315 -1.4875 -0.2591
   79SOPE   H2Y 7101   2.992   4.615   5.737  1.2223 -1.7887  0.3193
   79SOPE   C23 7102   2.575   5.320   5.692 -0.1339 -0.8951 -0.0841
   79SOPE   H3R 7103   2.485   5.384   5.702  0.2043 -0.5628  0.9606
   79SOPE   H3S 7104   2.526   5.226   5.726 -0.3372 -0.5326  0.6528
   79SOPE   C24 7105   2.611   5.327   5.544 -0.5703  0.1581 -0.0416
   79SOPE   H4R 7106   2.633   5.432   5.515  1.0936  0.0733  0.7761
   79SOPE   H4S 7107   2.694   5.258   5.519 -2.5178 -1.9722 -0.9450
   79SOPE   C25 7108   2.503   5.274   5.439 -0.7023 -0.4634 -0.5455
   79SOPE   H5R 7109   2.492   5.169   5.472  0.1067  0.0132  1.4062
   79SOPE   H5S 7110   2.409   5.333   5.443 -0.3184  0.0917  0.7297
   79SOPE   C26 7111   2.542   5.300   5.291  0.0082 -0.8865  0.1719
   79SOPE   H6R 7112   2.451   5.280   5.230  0.3917 -0.4234 -0.5599
   79SOPE   H6S 7113   2.564   5.407   5.269  0.4974 -0.6460  1.6991
   79SOPE   C27 7114   2.652   5.198   5.249  0.0575 -0.1546 -0.1358
   79SOPE   H7R 7115   2.747   5.229   5.296 -0.4093  1.3712 -0.1512
   79SOPE   H7S 7116   2.620   5.097   5.284 -0.4503  0.0099 -0.1152
   79SOPE   C28 7117   2.665   5.194   5.090  0.1548 -0.0231  0.5542
   79SOPE   H8R 7118   2.565   5.176   5.045 -0.1618  0.1747  1.1748
   79SOPE   H8S 7119   2.683   5.298   5.057  1.2091 -0.2514  0.3927
   79SOPE   C29 7120   2.774   5.106   5.035  0.4594 -0.2242 -0.1107
   79SOPE   H91 7121   2.788   5.010   5.087  1.3017  0.4887  1.0106
   79SOPE  C210 7122   2.840   5.116   4.921 -0.1953 -0.0863 -0.6670
   79SOPE  H101 7123   2.918   5.042   4.899 -0.8433 -1.3465  1.0235
   79SOPE  C211 7124   2.836   5.221   4.813 -0.1544  0.2861 -0.1290
   79SOPE  H11R 7125   2.896   5.180   4.728 -0.1552  1.4872 -0.7359
   79SOPE  H11S 7126   2.887   5.309   4.858 -1.3780  0.5241  0.8479
   79SOPE  C212 7127   2.704   5.266   4.749  0.2630  0.0567  0.1558
   79SOPE  H12R 7128   2.722   5.344   4.672  1.9990 -0.4472  0.0124
   79SOPE  H12S 7129   2.646   5.309   4.833 -0.3690 -0.0706 -0.2053
   79SOPE  C213 7130   2.626   5.155   4.680 -0.5111 -0.0607 -0.8074
   79SOPE  H13R 7131   2.582   5.090   4.759  0.7934 -1.2719 -1.0252
   79SOPE  H13S 7132   2.684   5.087   4.614 -3.1627 -2.5209 -0.8032
   79SOPE  C214 7133   2.518   5.197   4.578 -0.1640  0.3220  0.2953
   79SOPE  H14R 7134   2.443   5.244   4.646  0.0847  1.6637 -0.3262
   79SOPE  H14S 7135   2.472   5.106   4.534  0.1843  0.0798  0.4271
   79SOPE  C215 7136   2.564   5.291   4.458 -0.8596  0.1218 -0.3836
   79SOPE  H15R 7137   2.634   5.237   4.390 -0.3662 -0.3528  0.4792
   79SOPE  H15S 7138   2.606   5.385   4.498  0.4215 -0.2180 -0.8601
   79SOPE  C216 7139   2.450   5.336   4.369 -0.2767 -0.0369  0.3011
   79SOPE  H16R 7140   2.375   5.387   4.434 -1.2135 -3.3281  2.0135
   79SOPE  H16S 7141   2.395   5.251   4.324 -1.2270 -1.2548  3.4969
   79SOPE  C217 7142   2.503   5.432   4.258 -0.7408  0.4364 -0.1730
   79SOPE  H17R 7143   2.436   5.431   4.169  0.3638 -1.4009 -1.0333
   79SOPE  H17S 7144   2.589   5.377   4.216 -1.8680 -0.3842 -1.4785
   79SOPE  C218 7145   2.548   5.568   4.307 -0.0342 -0.5698 -0.0720
   79SOPE  H18R 7146   2.657   5.573   4.328  0.6174  0.2165 -3.1280
   79SOPE  H18S 7147   2.484   5.605   4.390  0.6660 -0.3857  0.3934
   79SOPE  H18T 7148   2.544   5.640   4.222  0.3414  1.0004  1.1845
   79SOPE   C33 7149   2.802   4.490   5.761  0.4516  0.7070 -0.3941
   79SOPE   H3X 7150   2.701   4.503   5.805  1.3082  0.2894  1.8037
   79SOPE   H3Y 7151   2.840   4.396   5.806  0.6634  0.4838 -1.0241
   79SOPE   C34 7152   2.811   4.453   5.612 -0.5252 -0.3187 -0.5686
   79SOPE   H4X 7153   2.763   4.541   5.563 -0.4693  1.1148  1.8155
   79SOPE   H4Y 7154   2.756   4.363   5.577  1.8307 -1.3444 -1.8451
   79SOPE   C35 7155   2.947   4.438   5.549  0.2458 -0.1103 -0.6437
   79SOPE   H5X 7156   3.015   4.376   5.612  0.2318  0.4041 -0.1110
   79SOPE   H5Y 7157   2.992   4.532   5.511 -0.6547  0.5775 -0.0484
   79SOPE   C36 7158   2.930   4.358   5.417 -0.1537 -0.3899  0.0679
   79SOPE   H6X 7159   2.836   4.391   5.368 -1.7350 -0.9729  2.5193
   79SOPE   H6Y 7160   2.903   4.253   5.438  0.5529 -0.5586  0.1712
   79SOPE   C37 7161   3.050   4.362   5.325  0.2797 -0.6927 -0.0090
   79SOPE   H7X 7162   3.142   4.345   5.384 -0.0900 -0.8979  0.5155
   79SOPE   H7Y 7163   3.054   4.466   5.285  0.6089 -0.2954  1.0380
   79SOPE   C38 7164   3.043   4.275   5.203  0.3081  0.7273 -0.0142
   79SOPE   H8X 7165   3.077   4.177   5.244 -2.5935 -1.6891 -2.8642
   79SOPE   H8Y 7166   3.115   4.319   5.131 -0.2088  0.9265 -0.4108
   79SOPE   C39 7167   2.898   4.277   5.148  0.1859  0.0442  0.0232
   79SOPE   H9X 7168   2.846   4.373   5.127 -2.6796 -0.5355  3.4178
   79SOPE   H9Y 7169   2.830   4.222   5.217  0.2203 -0.1130 -0.0676
   79SOPE  C310 7170   2.893   4.191   5.021  0.5759  0.5168  0.5724
   79SOPE  H10X 7171   2.952   4.098   5.038 -1.5810 -1.3018 -1.3201
   79SOPE  H10Y 7172   2.957   4.232   4.939  0.3751 -0.9229 -0.3389
   79SOPE  C311 7173   2.750   4.159   4.974  0.2166 -0.9675  0.7440
   79SOPE  H11X 7174   2.708   4.262   4.966  1.9972 -0.2982 -0.8346
   79SOPE  H11Y 7175   2.704   4.090   5.047  0.0810 -1.3864  0.2664
   79SOPE  C312 7176   2.756   4.093   4.835 -0.0540  0.0501  0.2382
   79SOPE  H12X 7177   2.822   4.004   4.833  0.3435  0.2505  2.3275
   79SOPE  H12Y 7178   2.792   4.161   4.755 -0.7729  0.1597 -0.0003
   79SOPE  C313 7179   2.614   4.032   4.800  0.3415 -1.0987 -0.3733
   79SOPE  H13X 7180   2.590   3.957   4.878 -0.2157  1.7363  2.4040
   79SOPE  H13Y 7181   2.621   3.981   4.702 -0.6229 -0.3664 -0.8412
   79SOPE  C314 7182   2.501   4.139   4.796  0.3372 -0.5195  0.1940
   79SOPE  H14X 7183   2.520   4.202   4.706 -0.7696  0.6087  0.7248
   79SOPE  H14Y 7184   2.507   4.208   4.882  0.0562  2.0889 -1.7391
   79SOPE  C315 7185   2.358   4.083   4.804 -0.2727  0.0653  0.7837
   79SOPE  H15X 7186   2.285   4.166   4.810 -1.7117 -0.9068 -1.5869
   79SOPE  H15Y 7187   2.342   4.010   4.886 -1.0375 -0.1604  0.4436
   79SOPE  C316 7188   2.312   4.011   4.674 -0.3795  0.0206 -0.1072
   79SOPE  H16X 7189   2.371   3.917   4.674 -0.5989 -0.1238  0.4882
   79SOPE  H16Y 7190   2.343   4.067   4.583 -2.3223  0.5534 -0.4840
   79SOPE  C317 7191   2.161   3.992   4.663 -0.6719 -0.4817  0.2957
   79SOPE  H17X 7192   2.125   4.091   4.628 -0.1138 -0.8326 -1.3699
   79SOPE  H17Y 7193   2.121   3.960   4.761  0.1605 -0.2850  0.7099
   79SOPE  C318 7194   2.102   3.897   4.557  0.1325 -0.3349 -0.3162
   79SOPE  H18X 7195   1.992   3.890   4.565 -0.0149  0.5456 -1.3757
   79SOPE  H18Y 7196   2.153   3.799   4.564  1.6459  0.4335 -0.0587
   79SOPE  H18Z 7197   2.132   3.940   4.459 -0.8245  2.2012  0.4159
   80SOPE     N 7198   6.145   2.144   6.939  0.3186  0.1089 -0.5138
   80SOPE   HN1 7199   6.117   2.228   6.994  2.1220  0.1753  0.3699
   80SOPE   HN2 7200   6.208   2.167   6.860  0.5762 -0.6316 -0.5296
   80SOPE   HN3 7201   6.066   2.095   6.892  0.9479 -0.1075 -1.3723
   80SOPE   C12 7202   6.210   2.041   7.027  0.8955  0.3035  0.1047
   80SOPE  H12A 7203   6.127   2.000   7.089 -0.7695  1.5432 -1.2255
   80SOPE  H12B 7204   6.284   2.094   7.091  1.5645 -1.1128  0.5453
   80SOPE   C11 7205   6.288   1.942   6.936 -0.1198 -0.2440  0.1792
   80SOPE  H11A 7206   6.336   1.867   7.003  0.8391  0.3668  0.1973
   80SOPE  H11B 7207   6.378   1.995   6.898 -1.3183  2.1453  0.5197
   80SOPE     P 7208   6.116   1.765   6.842  0.3167 -0.0895 -0.1823
   80SOPE   O13 7209   5.981   1.791   6.783  0.3587 -0.3835 -0.7136
   80SOPE   O14 7210   6.108   1.713   6.985  0.2050  0.4415  0.4621
   80SOPE   O12 7211   6.201   1.895   6.829 -0.1143 -0.8552 -0.2625
   80SOPE   O11 7212   6.181   1.649   6.742  0.2929 -0.6969 -0.6859
   80SOPE    C1 7213   6.313   1.602   6.769  0.2506  0.4763  0.4990
   80SOPE    HA 7214   6.294   1.519   6.840 -1.0685  0.5495  0.2620
   80SOPE    HB 7215   6.377   1.678   6.820  1.1633 -0.0518  0.1661
   80SOPE    C2 7216   6.382   1.557   6.631  0.1952  0.9429 -0.2658
   80SOPE    HS 7217   6.490   1.574   6.647  0.1283  0.6729  0.5242
   80SOPE   O21 7218   6.330   1.637   6.521  0.3873  0.1840 -0.0280
   80SOPE   C21 7219   6.372   1.760   6.531 -0.0094 -0.4630 -0.3340
   80SOPE   O22 7220   6.460   1.804   6.604 -0.2078 -0.1512 -0.1753
   80SOPE   C22 7221   6.317   1.831   6.412  0.7252 -1.3370 -0.4720
   80SOPE   H2R 7222   6.312   1.933   6.456  0.4272 -2.0362  1.2209
   80SOPE   H2S 7223   6.212   1.796   6.399  1.0554 -2.7004  0.2470
   80SOPE    C3 7224   6.349   1.410   6.603 -0.4082 -0.0867  0.3774
   80SOPE    HX 7225   6.243   1.398   6.571  0.5988 -1.4473 -2.7574
   80SOPE    HY 7226   6.369   1.356   6.698  3.4498  0.8080  0.2401
   80SOPE   O31 7227   6.430   1.359   6.494 -0.5483 -0.2471 -0.1077
   80SOPE   C31 7228   6.554   1.341   6.529  0.9665  0.3540 -0.1998
   80SOPE   O32 7229   6.598   1.345   6.642 -0.1113 -0.3623 -0.1162
   80SOPE   C32 7230   6.628   1.302   6.402 -0.4899  0.3141  1.1335
   80SOPE   H2X 7231   6.560   1.334   6.319  2.0481  1.6970 -0.5461
   80SOPE   H2Y 7232   6.646   1.192   6.402 -0.2023  0.3110  3.8313
   80SOPE   C23 7233   6.397   1.804   6.288  0.0690 -0.2389 -0.0798
   80SOPE   H3R 7234   6.503   1.806   6.321  0.0217  0.4927  0.0383
   80SOPE   H3S 7235   6.385   1.883   6.211  2.7431  0.0786 -0.2785
   80SOPE   C24 7236   6.374   1.669   6.217 -0.1844 -0.8532 -0.1363
   80SOPE   H4R 7237   6.381   1.589   6.294  1.1039 -0.2230  0.4301
   80SOPE   H4S 7238   6.270   1.642   6.190 -1.7569  1.0535  3.3526
   80SOPE   C25 7239   6.473   1.665   6.099 -0.0148  0.1476  0.1900
   80SOPE   H5R 7240   6.486   1.750   6.028  3.0761 -0.8938 -0.6597
   80SOPE   H5S 7241   6.564   1.665   6.163 -1.4598  1.3095  2.3734
   80SOPE   C26 7242   6.465   1.533   6.023 -0.0279 -0.2045  1.2863
   80SOPE   H6R 7243   6.568   1.501   5.997 -0.4113  0.7323 -1.8106
   80SOPE   H6S 7244   6.432   1.451   6.091 -0.1590 -1.1224  0.1498
   80SOPE   C27 7245   6.377   1.546   5.899  0.1717 -0.2440  0.1660
   80SOPE   H7R 7246   6.278   1.584   5.933  0.9020 -1.1272  3.5981
   80SOPE   H7S 7247   6.412   1.627   5.831 -0.0444 -2.9198 -3.4247
   80SOPE   C28 7248   6.357   1.409   5.822  0.6959 -0.6994  0.7563
   80SOPE   H8R 7249   6.315   1.338   5.896  1.8634 -1.9032  0.2865
   80SOPE   H8S 7250   6.272   1.435   5.756 -1.2354  1.3099  3.7483
   80SOPE   C29 7251   6.475   1.368   5.735 -0.3587  0.6879 -0.5523
   80SOPE   H91 7252   6.513   1.267   5.760 -0.7752  0.6117 -0.2229
   80SOPE  C210 7253   6.527   1.432   5.630  0.5567  0.4257 -0.2741
   80SOPE  H101 7254   6.625   1.392   5.600  1.4644  1.1374  1.5838
   80SOPE  C211 7255   6.494   1.564   5.581  0.2164  0.3880  0.7814
   80SOPE  H11R 7256   6.569   1.643   5.599  0.2046  1.1249 -1.9524
   80SOPE  H11S 7257   6.397   1.597   5.625 -0.6458 -1.0093  0.0169
   80SOPE  C212 7258   6.485   1.567   5.430  1.0039 -0.1472  0.8277
   80SOPE  H12R 7259   6.439   1.657   5.385 -0.1504 -0.7655  0.7371
   80SOPE  H12S 7260   6.408   1.492   5.400  1.5830 -0.0561 -0.9918
   80SOPE  C213 7261   6.618   1.540   5.366 -0.3869 -0.0113 -0.3026
   80SOPE  H13R 7262   6.672   1.444   5.384  1.7529  1.5409  2.4189
   80SOPE  H13S 7263   6.695   1.603   5.415 -0.0163 -1.1164  0.5962
   80SOPE  C214 7264   6.609   1.568   5.218  0.0613 -0.0944 -0.0642
   80SOPE  H14R 7265   6.572   1.671   5.201  1.9004  0.6918  0.4252
   80SOPE  H14S 7266   6.535   1.494   5.179  0.0894  0.0519 -0.3993
   80SOPE  C215 7267   6.751   1.555   5.159  0.4639  0.8424 -0.0744
   80SOPE  H15R 7268   6.780   1.449   5.175 -0.2352  0.9882  2.5351
   80SOPE  H15S 7269   6.829   1.621   5.202  2.2259 -0.7592 -0.6482
   80SOPE  C216 7270   6.742   1.569   5.005 -0.9041 -0.5596  0.5516
   80SOPE  H16R 7271   6.751   1.677   4.982  0.8735 -0.8818 -0.3822
   80SOPE  H16S 7272   6.643   1.532   4.969 -2.1258  2.4357  0.5413
   80SOPE  C217 7273   6.862   1.507   4.927 -0.1833 -0.2268 -0.7566
   80SOPE  H17R 7274   6.885   1.399   4.941  0.4078 -0.1807 -1.3213
   80SOPE  H17S 7275   6.949   1.559   4.974  1.7080 -2.4000 -1.6472
   80SOPE  C218 7276   6.864   1.553   4.776 -0.4163 -0.1794 -0.1320
   80SOPE  H18R 7277   6.854   1.664   4.771 -1.3450 -0.2329  0.4103
   80SOPE  H18S 7278   6.782   1.505   4.719  2.3322 -1.9786 -2.8878
   80SOPE  H18T 7279   6.959   1.527   4.724  1.5875  4.1924  0.9006
   80SOPE   C33 7280   6.764   1.368   6.385 -0.4807  0.3000 -0.9039
   80SOPE   H3X 7281   6.823   1.366   6.479  0.4114 -0.9952 -1.4531
   80SOPE   H3Y 7282   6.747   1.477   6.371 -0.8892  0.2917 -0.4779
   80SOPE   C34 7283   6.849   1.313   6.262 -1.3812 -0.3264  0.1074
   80SOPE   H4X 7284   6.858   1.203   6.272 -0.1392 -0.2331  0.1653
   80SOPE   H4Y 7285   6.954   1.346   6.274 -0.7977 -2.0193 -0.1100
   80SOPE   C35 7286   6.776   1.337   6.129 -0.0042 -0.4614 -0.5070
   80SOPE   H5X 7287   6.757   1.445   6.115 -1.0236 -0.3934  1.1274
   80SOPE   H5Y 7288   6.681   1.281   6.119 -1.5626  1.8111  0.7469
   80SOPE   C36 7289   6.876   1.299   6.016  0.1630 -0.3456 -0.1086
   80SOPE   H6X 7290   6.928   1.202   6.026 -0.8657 -1.3762 -3.4396
   80SOPE   H6Y 7291   6.955   1.374   5.995  0.0232 -0.3362 -0.6202
   80SOPE   C37 7292   6.799   1.285   5.874 -0.1580 -0.1783 -0.3579
   80SOPE   H7X 7293   6.752   1.379   5.838  1.4223  1.3587  1.3385
   80SOPE   H7Y 7294   6.728   1.200   5.883 -1.5218  1.0318  1.0179
   80SOPE   C38 7295   6.907   1.242   5.772 -0.0613  0.3032  0.1139
   80SOPE   H8X 7296   6.944   1.146   5.815 -1.3225 -1.1587 -1.8745
   80SOPE   H8Y 7297   6.991   1.313   5.761  0.2676 -0.2089 -0.7526
   80SOPE   C39 7298   6.857   1.210   5.630 -0.0384  0.2766 -0.5306
   80SOPE   H9X 7299   6.833   1.311   5.592  1.2584  0.9445  0.3942
   80SOPE   H9Y 7300   6.763   1.150   5.636  1.7982 -2.9262 -1.3828
   80SOPE  C310 7301   6.967   1.146   5.546 -0.1587 -0.3440  0.1306
   80SOPE  H10X 7302   7.014   1.064   5.604  0.3209  0.6252  1.1478
   80SOPE  H10Y 7303   7.032   1.234   5.524 -0.8552  0.9141  2.7313
   80SOPE  C311 7304   6.910   1.082   5.423 -0.8930  0.5410  0.2461
   80SOPE  H11X 7305   6.864   1.167   5.367 -2.2816  0.4769  1.2201
   80SOPE  H11Y 7306   6.840   0.997   5.437 -0.2440  0.0770  0.6950
   80SOPE  C312 7307   7.021   1.024   5.329 -0.2122  0.7208  0.9755
   80SOPE  H12X 7308   7.091   0.955   5.380  1.9395  1.3508 -0.9710
   80SOPE  H12Y 7309   7.083   1.111   5.299 -0.0947  0.1321 -0.5886
   80SOPE  C313 7310   6.971   0.950   5.197  0.1989 -0.4935  0.0933
   80SOPE  H13X 7311   6.897   1.015   5.145  0.7010  1.1067  1.3181
   80SOPE  H13Y 7312   6.929   0.849   5.216  0.2045 -0.6110 -0.4963
   80SOPE  C314 7313   7.094   0.908   5.112  0.3377 -0.0283 -0.3469
   80SOPE  H14X 7314   7.056   0.849   5.026 -0.4899  1.0500 -0.7466
   80SOPE  H14Y 7315   7.148   0.838   5.179  0.0342  0.7320  0.7212
   80SOPE  C315 7316   7.182   1.010   5.057 -0.1959  0.0514  0.3637
   80SOPE  H15X 7317   7.254   1.040   5.137  0.3208 -2.1894  0.8103
   80SOPE  H15Y 7318   7.123   1.101   5.034 -0.2762  0.2882  1.4835
   80SOPE  C316 7319   7.267   0.968   4.928 -0.5679 -0.0113 -0.0770
   80SOPE  H16X 7320   7.337   0.883   4.941 -0.5729 -0.1317 -0.8416
   80SOPE  H16Y 7321   7.336   1.050   4.900 -0.6110 -0.9795 -3.3648
   80SOPE  C317 7322   7.199   0.944   4.791 -0.2388  0.7149 -0.5397
   80SOPE  H17X 7323   7.107   0.887   4.813  0.3242  0.2286  0.6763
   80SOPE  H17Y 7324   7.263   0.885   4.721 -0.3354  0.1350 -0.1537
   80SOPE  C318 7325   7.171   1.065   4.704 -0.1971  0.0046 -0.1732
   80SOPE  H18X 7326   7.068   1.060   4.662 -0.0124 -0.6543 -0.5553
   80SOPE  H18Y 7327   7.237   1.096   4.621  0.3265 -1.0096 -0.1561
   80SOPE  H18Z 7328   7.158   1.155   4.768 -0.2861 -1.5821  2.1750
   81SOPE     N 7329   3.283   5.822   6.178  0.2708  0.4029 -0.2765
   81SOPE   HN1 7330   3.357   5.893   6.159 -0.6306  1.7453  0.9588
   81SOPE   HN2 7331   3.237   5.836   6.271 -1.2023  0.4433 -0.9837
   81SOPE   HN3 7332   3.316   5.724   6.167  2.2146  0.7729  1.5769
   81SOPE   C12 7333   3.163   5.865   6.094  0.3701  0.2789  1.0171
   81SOPE  H12A 7334   3.165   5.976   6.089  4.0956  0.5658  3.9766
   81SOPE  H12B 7335   3.066   5.834   6.137  0.0670 -1.7100 -0.9567
   81SOPE   C11 7336   3.167   5.801   5.945 -0.5006  0.4388 -0.5461
   81SOPE  H11A 7337   3.243   5.863   5.892 -1.4462  0.5131 -1.8580
   81SOPE  H11B 7338   3.083   5.819   5.874 -2.2073 -2.9427  0.3894
   81SOPE     P 7339   3.110   5.546   5.960 -0.2881 -0.0124  0.5111
   81SOPE   O13 7340   3.029   5.552   6.080  0.3340  0.4862  0.3068
   81SOPE   O14 7341   3.193   5.423   5.937  1.1677  0.1407 -0.1095
   81SOPE   O12 7342   3.212   5.665   5.948 -0.2142 -0.3539 -0.6851
   81SOPE   O11 7343   3.020   5.588   5.836  1.0487  0.3014 -0.6947
   81SOPE    C1 7344   3.070   5.566   5.708 -0.2361  0.5232 -0.5512
   81SOPE    HA 7345   3.041   5.461   5.685 -0.9233  0.5264  0.2568
   81SOPE    HB 7346   3.179   5.586   5.696  0.9294 -4.7796 -1.2323
   81SOPE    C2 7347   2.997   5.660   5.605 -0.1797 -1.3894 -0.5734
   81SOPE    HS 7348   3.051   5.756   5.609  0.3681 -1.6334 -1.5886
   81SOPE   O21 7349   2.857   5.674   5.651 -0.5807  0.3174  0.0769
   81SOPE   C21 7350   2.814   5.793   5.685 -0.1382 -0.3118  0.3244
   81SOPE   O22 7351   2.883   5.892   5.699  0.0497  0.3865 -0.0610
   81SOPE   C22 7352   2.659   5.785   5.698  0.7724  0.5192 -0.4794
   81SOPE   H2R 7353   2.637   5.856   5.780 -0.5876 -0.3854 -0.0357
   81SOPE   H2S 7354   2.634   5.688   5.745  0.7524  0.6788 -0.1618
   81SOPE    C3 7355   2.996   5.614   5.465 -0.9897 -0.5884  1.0576
   81SOPE    HX 7356   2.949   5.514   5.458 -1.9131 -0.1213  0.3487
   81SOPE    HY 7357   3.098   5.605   5.422 -1.2789 -1.5889  0.5474
   81SOPE   O31 7358   2.914   5.703   5.386 -0.8548  0.3662  0.4754
   81SOPE   C31 7359   2.960   5.835   5.374  0.4580 -0.1412  0.2408
   81SOPE   O32 7360   3.070   5.874   5.408  0.7222  0.4456 -0.6768
   81SOPE   C32 7361   2.860   5.930   5.299  0.0644  0.2053 -0.2745
   81SOPE   H2X 7362   2.767   5.949   5.356  0.0361  0.0813 -0.2774
   81SOPE   H2Y 7363   2.840   5.872   5.206 -0.0693  1.2740 -0.9326
   81SOPE   C23 7364   2.584   5.824   5.567  0.9010  0.4121 -0.1556
   81SOPE   H3R 7365   2.645   5.894   5.507 -1.8494  1.9605 -1.3178
   81SOPE   H3S 7366   2.490   5.877   5.594 -1.0888 -1.8924 -2.0550
   81SOPE   C24 7367   2.543   5.697   5.494 -0.2679  0.0127  0.1868
   81SOPE   H4R 7368   2.641   5.659   5.458 -1.3258 -2.3016 -0.4552
   81SOPE   H4S 7369   2.501   5.635   5.576  0.7162  0.6049  1.1612
   81SOPE   C25 7370   2.436   5.705   5.382 -0.1976 -0.6194  0.4715
   81SOPE   H5R 7371   2.392   5.604   5.372  0.0795 -0.6721 -0.2911
   81SOPE   H5S 7372   2.352   5.774   5.405  0.8763  0.0874  2.5525
   81SOPE   C26 7373   2.486   5.765   5.245 -0.5448 -0.4861  0.3639
   81SOPE   H6R 7374   2.396   5.784   5.183 -0.8245 -0.4895  0.7680
   81SOPE   H6S 7375   2.537   5.864   5.254 -1.4084  0.1784 -1.5069
   81SOPE   C27 7376   2.568   5.669   5.165 -0.4887  0.7385 -0.5487
   81SOPE   H7R 7377   2.671   5.647   5.200 -0.1751 -1.1013 -2.4629
   81SOPE   H7S 7378   2.513   5.573   5.174  1.6891 -0.5589 -0.5745
   81SOPE   C28 7379   2.564   5.708   5.011 -0.6244  0.6041  0.5842
   81SOPE   H8R 7380   2.581   5.609   4.963  1.4561  0.6644  1.1030
   81SOPE   H8S 7381   2.464   5.748   4.981  0.0229  0.9058 -1.3314
   81SOPE   C29 7382   2.655   5.813   4.965 -0.4621  0.4215 -1.1240
   81SOPE   H91 7383   2.652   5.909   5.019 -0.3341 -0.3515  0.2958
   81SOPE  C210 7384   2.745   5.802   4.864  0.3834  0.2621  1.0627
   81SOPE  H101 7385   2.814   5.885   4.842 -0.1920  0.7430  1.0441
   81SOPE  C211 7386   2.764   5.686   4.773 -0.1962  0.3782  0.9372
   81SOPE  H11R 7387   2.702   5.598   4.798 -0.2591  0.4769  1.1319
   81SOPE  H11S 7388   2.869   5.651   4.763 -0.2586  0.7579 -1.9838
   81SOPE  C212 7389   2.724   5.710   4.621 -0.1370 -0.8458 -0.1812
   81SOPE  H12R 7390   2.613   5.707   4.613 -0.0438 -0.4715 -1.8829
   81SOPE  H12S 7391   2.758   5.622   4.562  0.4216  0.1151 -1.3246
   81SOPE  C213 7392   2.784   5.838   4.557  1.1008 -0.0681  0.0473
   81SOPE  H13R 7393   2.887   5.849   4.595  0.6155  1.2954  1.0668
   81SOPE  H13S 7394   2.729   5.923   4.604  0.7538  0.8492 -1.8869
   81SOPE  C214 7395   2.762   5.838   4.406  0.3001 -0.2109  0.0365
   81SOPE  H14R 7396   2.653   5.841   4.388  0.5269 -1.0010 -1.6078
   81SOPE  H14S 7397   2.801   5.748   4.355 -1.2798 -0.0717 -1.4864
   81SOPE  C215 7398   2.829   5.959   4.338  0.3596 -0.0771  0.1425
   81SOPE  H15R 7399   2.793   5.967   4.233  0.4120 -3.4289 -0.2441
   81SOPE  H15S 7400   2.939   5.947   4.328  0.4182  1.6012 -1.9253
   81SOPE  C216 7401   2.799   6.096   4.402 -0.8319  0.1345 -0.2805
   81SOPE  H16R 7402   2.837   6.089   4.506 -1.8532 -0.7858  0.0465
   81SOPE  H16S 7403   2.690   6.116   4.404 -1.0706 -1.1114 -0.0291
   81SOPE  C217 7404   2.864   6.216   4.333  0.1221 -0.1476  0.0858
   81SOPE  H17R 7405   2.811   6.249   4.241  0.9372 -0.0094 -0.3464
   81SOPE  H17S 7406   2.960   6.182   4.287 -1.2280 -1.1634 -2.1738
   81SOPE  C218 7407   2.870   6.337   4.427 -0.0248 -0.2146  0.1908
   81SOPE  H18R 7408   2.918   6.424   4.378  0.1648 -2.0520 -3.1980
   81SOPE  H18S 7409   2.943   6.319   4.509  0.2301  0.6303  0.1588
   81SOPE  H18T 7410   2.769   6.355   4.472  1.1620  1.4909  2.3698
   81SOPE   C33 7411   2.914   6.071   5.256  0.0583 -0.3649 -0.2411
   81SOPE   H3X 7412   2.991   6.110   5.324 -0.2068  1.4011 -0.9077
   81SOPE   H3Y 7413   2.831   6.145   5.262  1.2575  0.9874  0.2071
   81SOPE   C34 7414   2.951   6.066   5.108  0.6306  0.0556 -0.5071
   81SOPE   H4X 7415   2.861   6.039   5.050 -1.3394  0.0230  2.3349
   81SOPE   H4Y 7416   3.037   5.999   5.087  2.3823  2.3633 -1.0956
   81SOPE   C35 7417   2.995   6.198   5.056 -0.1117  0.1210  0.0495
   81SOPE   H5X 7418   3.098   6.226   5.085 -0.9511  0.6300  2.7507
   81SOPE   H5Y 7419   2.924   6.277   5.089 -0.2937  0.4658 -1.0881
   81SOPE   C36 7420   2.988   6.214   4.891 -0.5334  0.2052 -0.6589
   81SOPE   H6X 7421   2.996   6.321   4.862 -1.7996 -0.2042 -2.6757
   81SOPE   H6Y 7422   2.882   6.192   4.865 -0.9211 -0.1153  1.0762
   81SOPE   C37 7423   3.091   6.130   4.820  0.1445 -0.1397  0.0343
   81SOPE   H7X 7424   3.063   6.026   4.847  1.5722 -0.6386 -0.3673
   81SOPE   H7Y 7425   3.194   6.155   4.853 -0.3713  0.8477  0.9975
   81SOPE   C38 7426   3.086   6.141   4.670 -0.5407 -0.2600  0.0471
   81SOPE   H8X 7427   3.106   6.247   4.642  0.0361  0.0179  1.4379
   81SOPE   H8Y 7428   2.988   6.111   4.628 -0.8754  1.1560 -0.2480
   81SOPE   C39 7429   3.196   6.046   4.612 -0.1835 -0.3018  0.2355
   81SOPE   H9X 7430   3.194   6.076   4.505  0.4596  1.1719  0.6069
   81SOPE   H9Y 7431   3.168   5.940   4.630  1.5475 -0.4756  2.2929
   81SOPE  C310 7432   3.340   6.076   4.655  0.3633  0.4519 -0.0790
   81SOPE  H10X 7433   3.349   6.067   4.765 -0.1422  0.7058 -0.0131
   81SOPE  H10Y 7434   3.369   6.178   4.621  1.0740  0.4579  0.5309
   81SOPE  C311 7435   3.426   5.969   4.584 -0.2424  0.5076 -0.3174
   81SOPE  H11X 7436   3.402   5.969   4.475 -0.2323  0.5078 -0.3197
   81SOPE  H11Y 7437   3.416   5.869   4.632  1.4716  1.0301  1.2167
   81SOPE  C312 7438   3.579   5.992   4.605 -0.1083  0.7881 -0.3402
   81SOPE  H12X 7439   3.587   6.013   4.714 -3.1971  0.4241  0.0602
   81SOPE  H12Y 7440   3.608   6.074   4.536  1.2852 -0.6469 -1.5336
   81SOPE  C313 7441   3.660   5.863   4.562 -0.2127 -0.9426 -0.5003
   81SOPE  H13X 7442   3.615   5.831   4.466  0.2820  1.2370 -1.5143
   81SOPE  H13Y 7443   3.640   5.783   4.637  1.8312 -0.5856  0.5014
   81SOPE  C314 7444   3.816   5.884   4.540  0.1781 -0.1563 -0.1579
   81SOPE  H14X 7445   3.841   5.968   4.472  1.9353 -0.7031 -0.2353
   81SOPE  H14Y 7446   3.863   5.795   4.493 -0.9068  0.6973 -3.0363
   81SOPE  C315 7447   3.876   5.910   4.683 -1.0804  0.3812  0.7648
   81SOPE  H15X 7448   3.854   5.826   4.753  0.1050 -2.0645 -1.6452
   81SOPE  H15Y 7449   3.836   6.006   4.723 -0.7725  0.8384 -0.0145
   81SOPE  C316 7450   4.032   5.925   4.682 -0.1268 -0.0009 -0.0715
   81SOPE  H16X 7451   4.058   6.004   4.609  0.4140  1.4880  1.6481
   81SOPE  H16Y 7452   4.086   5.835   4.645 -0.8399  0.0682 -1.3349
   81SOPE  C317 7453   4.085   5.966   4.820 -0.3278  0.2990  0.8149
   81SOPE  H17X 7454   4.061   5.889   4.896  1.6034 -1.0355  0.1521
   81SOPE  H17Y 7455   4.030   6.061   4.839 -0.7940  0.3132 -0.4718
   81SOPE  C318 7456   4.237   5.982   4.816  0.1674 -0.3267 -0.7526
   81SOPE  H18X 7457   4.281   6.025   4.909  0.7270 -3.0681  0.3693
   81SOPE  H18Y 7458   4.276   6.051   4.738 -0.9063  1.3121  0.1236
   81SOPE  H18Z 7459   4.273   5.878   4.797 -0.1466  0.0993 -4.2650
   82SOPE     N 7460   1.058   5.125   6.462  0.2991  0.4217  0.0649
   82SOPE   HN1 7461   0.999   5.171   6.534 -0.0484 -0.6583  0.4868
   82SOPE   HN2 7462   1.108   5.192   6.401  0.6062 -1.7989 -2.2864
   82SOPE   HN3 7463   0.986   5.079   6.402  0.4486 -1.6283  1.3659
   82SOPE   C12 7464   1.157   5.030   6.530 -0.4410 -0.6899 -0.2377
   82SOPE  H12A 7465   1.089   4.970   6.594  0.2757 -1.8939 -0.5642
   82SOPE  H12B 7466   1.224   5.090   6.595 -0.1150 -0.8143 -0.4527
   82SOPE   C11 7467   1.216   4.933   6.433 -0.3368  0.3157 -0.1983
   82SOPE  H11A 7468   1.293   4.879   6.491 -0.6228 -2.1823 -1.9701
   82SOPE  H11B 7469   1.263   4.995   6.354  0.2444  1.6709  1.1718
   82SOPE     P 7470   1.124   4.694   6.367  0.0827  0.1616  0.0103
   82SOPE   O13 7471   0.982   4.652   6.365  0.2792  0.4599  0.0577
   82SOPE   O14 7472   1.210   4.634   6.470  0.0475  0.1652 -0.6555
   82SOPE   O12 7473   1.118   4.856   6.383 -0.2115  0.6342  0.1262
   82SOPE   O11 7474   1.177   4.665   6.233  0.0251 -0.4227  0.4351
   82SOPE    C1 7475   1.237   4.758   6.138  0.4792  0.4197 -0.9026
   82SOPE    HA 7476   1.327   4.724   6.082 -0.0542  0.7223 -1.9887
   82SOPE    HB 7477   1.272   4.851   6.187  0.4213  0.2458 -0.5273
   82SOPE    C2 7478   1.130   4.792   6.034  0.2399 -0.6750  0.0998
   82SOPE    HS 7479   1.043   4.825   6.095  1.8016  0.6651  1.7202
   82SOPE   O21 7480   1.104   4.679   5.951 -0.0313  0.3647 -0.6357
   82SOPE   C21 7481   0.989   4.664   5.893 -0.3056 -0.8681  0.1300
   82SOPE   O22 7482   0.898   4.742   5.899  0.7737  0.7998 -0.1502
   82SOPE   C22 7483   0.983   4.541   5.798 -0.5770  0.4396  0.2227
   82SOPE   H2R 7484   0.876   4.513   5.790 -0.6086  0.5598  0.2228
   82SOPE   H2S 7485   1.041   4.461   5.849  3.3849  0.9071 -3.0154
   82SOPE    C3 7486   1.169   4.929   5.951 -0.3107  0.6521 -0.4612
   82SOPE    HX 7487   1.268   4.889   5.921 -1.1112  0.1498 -2.5926
   82SOPE    HY 7488   1.178   5.006   6.031 -1.5885 -0.6618  1.0148
   82SOPE   O31 7489   1.092   4.963   5.838  0.2128  0.3188 -0.0801
   82SOPE   C31 7490   0.999   5.057   5.847 -0.4760 -0.3157 -0.0295
   82SOPE   O32 7491   0.995   5.140   5.933  0.3576 -0.1329 -0.3749
   82SOPE   C32 7492   0.898   5.053   5.738 -0.8204 -0.3833 -0.6360
   82SOPE   H2X 7493   0.891   5.146   5.679 -1.8925  0.2314  0.4108
   82SOPE   H2Y 7494   0.801   5.044   5.792  0.5803  1.1971  2.3856
   82SOPE   C23 7495   1.041   4.571   5.658  0.3205 -0.3565  0.7093
   82SOPE   H3R 7496   1.151   4.567   5.665  0.1931 -2.2075  3.0604
   82SOPE   H3S 7497   1.007   4.664   5.606 -1.7948 -3.3236 -3.9197
   82SOPE   C24 7498   0.996   4.455   5.564  0.6565 -0.4353 -0.1968
   82SOPE   H4R 7499   1.010   4.359   5.618 -0.5164  0.1601  1.2539
   82SOPE   H4S 7500   0.888   4.459   5.540  0.6162 -0.1078  0.0259
   82SOPE   C25 7501   1.074   4.460   5.435  0.1397 -0.6670 -0.2796
   82SOPE   H5R 7502   1.049   4.546   5.369 -0.2129  0.0725  0.7916
   82SOPE   H5S 7503   1.179   4.479   5.464  0.0930 -0.2804 -0.3625
   82SOPE   C26 7504   1.063   4.322   5.369  0.5457 -0.8349  0.7565
   82SOPE   H6R 7505   1.079   4.249   5.451  0.9016 -0.6586  0.8512
   82SOPE   H6S 7506   0.960   4.311   5.331  1.3107 -1.4459 -1.2715
   82SOPE   C27 7507   1.157   4.306   5.253 -0.3148 -0.1256 -0.0388
   82SOPE   H7R 7508   1.263   4.309   5.286 -0.3871 -1.1156  0.3165
   82SOPE   H7S 7509   1.156   4.203   5.211  0.0616  0.2141 -0.9126
   82SOPE   C28 7510   1.136   4.393   5.129 -0.2278  0.4940 -0.2880
   82SOPE   H8R 7511   1.151   4.503   5.138 -1.0845  0.7824 -1.9499
   82SOPE   H8S 7512   1.210   4.365   5.052 -0.0538  0.0226  0.0438
   82SOPE   C29 7513   0.997   4.370   5.063 -0.6010 -0.0557 -0.3279
   82SOPE   H91 7514   0.919   4.442   5.094  0.0908  0.1751  0.9507
   82SOPE  C210 7515   0.974   4.267   4.980  0.1918 -1.2199  0.5743
   82SOPE  H101 7516   0.868   4.249   4.959 -0.2726 -1.5010  2.9464
   82SOPE  C211 7517   1.072   4.167   4.926  0.2963  0.5077  0.0251
   82SOPE  H11R 7518   1.028   4.071   4.960 -1.9314  1.2857 -0.4743
   82SOPE  H11S 7519   1.170   4.172   4.977  0.4789 -1.4244 -0.0629
   82SOPE  C212 7520   1.079   4.164   4.771  0.5624 -0.8128 -0.0688
   82SOPE  H12R 7521   1.154   4.090   4.738  1.7952  0.1021  0.5883
   82SOPE  H12S 7522   1.109   4.265   4.735 -1.0782 -0.3625 -0.2661
   82SOPE  C213 7523   0.953   4.126   4.698  0.7575 -0.6440 -0.4752
   82SOPE  H13R 7524   0.879   4.209   4.703  0.6464 -0.5019 -3.0924
   82SOPE  H13S 7525   0.907   4.034   4.740  0.7884  0.1576  1.4182
   82SOPE  C214 7526   0.972   4.097   4.548  0.4150  0.7214  0.1323
   82SOPE  H14R 7527   0.877   4.057   4.506  0.3828  1.6784 -0.7498
   82SOPE  H14S 7528   1.054   4.030   4.514 -0.7615 -0.0089 -1.3813
   82SOPE  C215 7529   0.994   4.222   4.457  0.4700  0.2300 -0.2449
   82SOPE  H15R 7530   1.079   4.278   4.501  0.5437 -0.7411  0.9256
   82SOPE  H15S 7531   0.902   4.283   4.467  1.6288  2.0124 -0.0086
   82SOPE  C216 7532   1.039   4.184   4.307  0.0125  0.1586 -0.1888
   82SOPE  H16R 7533   1.093   4.087   4.311 -1.4130 -0.6694 -0.3480
   82SOPE  H16S 7534   1.101   4.273   4.281 -0.4104  1.2200  2.1169
   82SOPE  C217 7535   0.914   4.181   4.224  0.6364 -0.2778  0.4491
   82SOPE  H17R 7536   0.858   4.276   4.235  0.9197  0.2056 -1.6965
   82SOPE  H17S 7537   0.843   4.100   4.250  1.6311 -0.4145  2.9821
   82SOPE  C218 7538   0.945   4.167   4.070 -0.0237 -0.1763 -1.0209
   82SOPE  H18R 7539   0.962   4.058   4.064 -0.7831 -0.3757  0.1392
   82SOPE  H18S 7540   1.033   4.231   4.049  0.3975 -0.8361 -1.2734
   82SOPE  H18T 7541   0.856   4.181   4.005 -1.3899 -0.8680  0.6182
   82SOPE   C33 7542   0.907   4.937   5.633  0.3109  0.0321  0.2620
   82SOPE   H3X 7543   0.842   4.861   5.681  0.0259  1.3860  2.1063
   82SOPE   H3Y 7544   1.008   4.889   5.627  1.1473  1.8407 -1.1258
   82SOPE   C34 7545   0.850   4.980   5.496  0.5617 -0.4668 -0.3847
   82SOPE   H4X 7546   0.894   5.079   5.472 -0.8498  0.3243  0.1172
   82SOPE   H4Y 7547   0.742   5.009   5.500  1.0292  1.3309  1.8078
   82SOPE   C35 7548   0.876   4.893   5.378  0.3087  0.2988 -0.6608
   82SOPE   H5X 7549   0.814   4.801   5.378  2.1893 -1.0590  0.7999
   82SOPE   H5Y 7550   0.983   4.861   5.378  0.3698  0.3791 -2.2566
   82SOPE   C36 7551   0.865   4.966   5.238 -0.3621  0.0589  0.0165
   82SOPE   H6X 7552   0.899   4.892   5.163 -0.6203  0.8266 -0.8681
   82SOPE   H6Y 7553   0.936   5.050   5.224 -0.9917  0.2940 -2.2006
   82SOPE   C37 7554   0.730   5.033   5.211  0.0680 -0.8292  0.8215
   82SOPE   H7X 7555   0.698   5.094   5.298 -3.1578 -1.2462  0.0275
   82SOPE   H7Y 7556   0.657   4.950   5.206 -2.9029  1.6182  0.9060
   82SOPE   C38 7557   0.725   5.117   5.084  0.7040  0.6349 -0.3031
   82SOPE   H8X 7558   0.818   5.178   5.080  0.1795  1.5512  1.0360
   82SOPE   H8Y 7559   0.638   5.185   5.092  0.2751  0.0042  0.5612
   82SOPE   C39 7560   0.713   5.029   4.958  0.3801  0.0071  0.6283
   82SOPE   H9X 7561   0.616   4.975   4.969 -0.1906  1.1778  1.6165
   82SOPE   H9Y 7562   0.794   4.952   4.951  0.2004 -0.2277  1.1018
   82SOPE  C310 7563   0.708   5.098   4.824  0.0906 -0.1989 -0.3662
   82SOPE  H10X 7564   0.800   5.160   4.830 -0.6553  0.8563  0.9117
   82SOPE  H10Y 7565   0.612   5.155   4.819  0.3799  0.3825  0.4035
   82SOPE  C311 7566   0.704   5.005   4.706 -0.2619 -0.4416 -0.0945
   82SOPE  H11X 7567   0.603   4.964   4.683 -0.2523 -0.1143 -0.7598
   82SOPE  H11Y 7568   0.783   4.928   4.721  0.7912  0.7426  0.6576
   82SOPE  C312 7569   0.755   5.082   4.576  0.0946 -0.3943  0.4031
   82SOPE  H12X 7570   0.855   5.121   4.605 -0.4542  2.4347 -1.1074
   82SOPE  H12Y 7571   0.685   5.166   4.559  0.3466 -0.2892 -0.1402
   82SOPE  C313 7572   0.766   4.996   4.451  0.0874  0.0028 -0.1353
   82SOPE  H13X 7573   0.793   4.894   4.482  2.8621  0.0934 -1.9138
   82SOPE  H13Y 7574   0.838   5.040   4.378  0.0629 -0.7640 -0.6259
   82SOPE  C314 7575   0.638   5.015   4.368  0.4717 -0.5458  0.4270
   82SOPE  H14X 7576   0.598   5.118   4.378  1.3874  0.2257 -2.6982
   82SOPE  H14Y 7577   0.568   4.945   4.419 -1.1493 -0.8159 -1.9901
   82SOPE  C315 7578   0.650   4.992   4.216 -0.4615  0.3489 -0.2518
   82SOPE  H15X 7579   0.719   4.907   4.197 -3.1624 -1.8682 -0.8711
   82SOPE  H15Y 7580   0.692   5.088   4.180 -1.3514  0.4694 -1.0137
   82SOPE  C316 7581   0.522   4.960   4.141 -0.1106 -0.0672 -0.7358
   82SOPE  H16X 7582   0.560   4.974   4.038  1.4991  0.6205 -0.1025
   82SOPE  H16Y 7583   0.442   5.037   4.149  2.6696  2.9530  1.0667
   82SOPE  C317 7584   0.460   4.828   4.172 -0.3134 -0.4988  0.0535
   82SOPE  H17X 7585   0.398   4.825   4.264 -0.3151 -0.0076  0.0714
   82SOPE  H17Y 7586   0.531   4.753   4.212 -0.0844  0.7730  2.1541
   82SOPE  C318 7587   0.382   4.780   4.049  0.8285  0.0056  0.1179
   82SOPE  H18X 7588   0.288   4.839   4.049 -0.4363 -1.8853 -0.4428
   82SOPE  H18Y 7589   0.334   4.681   4.069  1.1717  0.0795  1.3599
   82SOPE  H18Z 7590   0.452   4.784   3.963  0.0932  0.5745 -0.4716
   83SOPE     N 7591   5.699   4.451   2.284  0.1350  0.0720  0.2362
   83SOPE   HN1 7592   5.736   4.383   2.354  3.8160  1.2941 -0.2848
   83SOPE   HN2 7593   5.661   4.402   2.201  0.9757 -3.4635  1.7068
   83SOPE   HN3 7594   5.785   4.498   2.250  0.3858 -0.9656 -0.6233
   83SOPE   C12 7595   5.603   4.549   2.338  0.0585 -0.3142  0.2414
   83SOPE  H12A 7596   5.568   4.535   2.442 -0.1732  0.7269  0.3176
   83SOPE  H12B 7597   5.521   4.567   2.265 -0.2153 -1.5840  0.2222
   83SOPE   C11 7598   5.690   4.678   2.345  0.0865 -0.5237  0.4405
   83SOPE  H11A 7599   5.757   4.664   2.433  0.0315 -1.6780  0.3223
   83SOPE  H11B 7600   5.618   4.761   2.360  0.3429 -0.2279  0.0454
   83SOPE     P 7601   5.897   4.783   2.235 -0.3227  0.6039  0.0392
   83SOPE   O13 7602   5.861   4.919   2.290 -0.5876  0.1137  0.3588
   83SOPE   O14 7603   5.972   4.773   2.109 -0.3337 -0.1142  0.1151
   83SOPE   O12 7604   5.759   4.700   2.228 -0.4624 -0.2064 -0.6128
   83SOPE   O11 7605   5.984   4.705   2.337 -0.4072  0.1293  0.2124
   83SOPE    C1 7606   6.105   4.734   2.407 -0.0299 -0.0105  0.4554
   83SOPE    HA 7607   6.158   4.821   2.365  1.2174 -0.4586  1.0501
   83SOPE    HB 7608   6.175   4.649   2.401 -1.0255 -0.7908 -0.5266
   83SOPE    C2 7609   6.080   4.764   2.559  0.1517  0.3686  0.7600
   83SOPE    HS 7610   6.182   4.787   2.597  2.1270 -3.4835 -1.5397
   83SOPE   O21 7611   6.021   4.652   2.630  0.1701  0.3409 -0.7418
   83SOPE   C21 7612   6.108   4.567   2.672 -0.9298 -0.2916 -0.0917
   83SOPE   O22 7613   6.229   4.570   2.658 -0.3685  0.7474 -0.0474
   83SOPE   C22 7614   6.028   4.460   2.756 -0.4967  0.2767  0.1385
   83SOPE   H2R 7615   6.025   4.367   2.695  0.8722  0.9976 -1.0970
   83SOPE   H2S 7616   5.931   4.511   2.778 -0.4883  0.9376 -1.2094
   83SOPE    C3 7617   5.982   4.884   2.586  0.9673  0.7640  0.2730
   83SOPE    HX 7618   5.884   4.859   2.540  2.1912 -0.3933 -1.8677
   83SOPE    HY 7619   6.026   4.973   2.536  0.7354  0.2244 -0.9387
   83SOPE   O31 7620   5.983   4.911   2.729 -0.5369  0.4491  0.5709
   83SOPE   C31 7621   5.870   4.945   2.783  0.5165 -0.8628 -0.3226
   83SOPE   O32 7622   5.771   4.984   2.718 -0.4731 -0.5574 -0.2197
   83SOPE   C32 7623   5.887   4.929   2.934  0.3816  0.9435 -0.0597
   83SOPE   H2X 7624   5.908   4.824   2.962 -0.3849  0.9849  0.6897
   83SOPE   H2Y 7625   5.789   4.952   2.981  1.5435  0.4576  2.7873
   83SOPE   C23 7626   6.091   4.449   2.897 -0.2485 -0.6547 -0.0183
   83SOPE   H3R 7627   6.193   4.411   2.876 -0.1164 -0.0553 -0.5000
   83SOPE   H3S 7628   6.034   4.375   2.957 -0.9305  0.5009  0.8096
   83SOPE   C24 7629   6.103   4.583   2.970 -0.2498 -0.1407  0.1135
   83SOPE   H4R 7630   6.162   4.661   2.917 -0.1132 -0.5026 -0.2646
   83SOPE   H4S 7631   6.004   4.632   2.984 -0.8021 -1.5088  1.1527
   83SOPE   C25 7632   6.173   4.578   3.111  0.3635  0.3395 -0.0284
   83SOPE   H5R 7633   6.263   4.513   3.100  0.1419 -0.0184  0.2416
   83SOPE   H5S 7634   6.210   4.679   3.137 -0.0753  0.1655  1.3177
   83SOPE   C26 7635   6.091   4.532   3.227  0.2640 -0.0033 -0.0483
   83SOPE   H6R 7636   6.140   4.589   3.309  1.4425  2.8337 -2.5197
   83SOPE   H6S 7637   5.983   4.557   3.217  0.2876 -0.4443 -1.6728
   83SOPE   C27 7638   6.100   4.381   3.249  0.0508  0.1884  0.0334
   83SOPE   H7R 7639   6.048   4.333   3.163 -0.0833 -0.0631  0.2529
   83SOPE   H7S 7640   6.208   4.357   3.238  0.2568  1.8432 -2.6217
   83SOPE   C28 7641   6.028   4.350   3.382  0.8962 -0.0755 -0.8049
   83SOPE   H8R 7642   5.948   4.427   3.383 -0.1873 -1.1199 -2.6080
   83SOPE   H8S 7643   5.974   4.254   3.371  1.4316 -0.2856 -1.6645
   83SOPE   C29 7644   6.126   4.348   3.501 -0.0171 -0.2461  0.2267
   83SOPE   H91 7645   6.219   4.293   3.479 -1.1298 -1.5688 -1.4673
   83SOPE  C210 7646   6.119   4.426   3.602 -0.2541 -0.0939  0.3935
   83SOPE  H101 7647   6.193   4.407   3.680 -0.1007 -0.5026  0.1496
   83SOPE  C211 7648   6.011   4.531   3.629  0.2277  0.2476 -0.5262
   83SOPE  H11R 7649   5.909   4.491   3.608  0.3389  0.4242 -1.4194
   83SOPE  H11S 7650   6.033   4.621   3.568  1.9286  1.1836  1.3557
   83SOPE  C212 7651   6.002   4.579   3.774  0.4725  0.5076 -0.3283
   83SOPE  H12R 7652   5.911   4.644   3.779  0.5395  0.5343  0.9267
   83SOPE  H12S 7653   6.092   4.642   3.787  0.9689 -0.0015 -1.2426
   83SOPE  C213 7654   6.001   4.470   3.880  0.4641 -0.2303 -0.1556
   83SOPE  H13R 7655   6.096   4.476   3.938  0.9068 -1.2737 -0.7484
   83SOPE  H13S 7656   6.004   4.364   3.848 -0.2644 -0.8771  1.7914
   83SOPE  C214 7657   5.879   4.488   3.974 -0.0013  0.4009 -0.5251
   83SOPE  H14R 7658   5.804   4.542   3.914  1.6706  2.7576 -0.6601
   83SOPE  H14S 7659   5.907   4.558   4.056  0.4475 -1.4910  1.0156
   83SOPE  C215 7660   5.828   4.357   4.034  0.3770 -0.6437  0.0285
   83SOPE  H15R 7661   5.919   4.309   4.076  0.6543 -0.0129  0.1555
   83SOPE  H15S 7662   5.793   4.282   3.960  0.2961  0.2023 -0.8123
   83SOPE  C216 7663   5.726   4.372   4.141  0.4028  0.3284 -0.0397
   83SOPE  H16R 7664   5.638   4.419   4.093 -0.6168 -0.2857  1.1793
   83SOPE  H16S 7665   5.764   4.432   4.226  0.8551 -1.2828  0.9325
   83SOPE  C217 7666   5.681   4.241   4.209  0.1919  0.3243 -0.9097
   83SOPE  H17R 7667   5.770   4.192   4.255 -0.4744 -0.4800 -0.4359
   83SOPE  H17S 7668   5.642   4.168   4.135 -2.3251 -2.0893  2.4079
   83SOPE  C218 7669   5.581   4.276   4.324  0.2187  0.2769  0.4554
   83SOPE  H18R 7670   5.541   4.188   4.379  3.3318 -2.8984 -1.8867
   83SOPE  H18S 7671   5.494   4.332   4.284  0.1035  0.1644  0.5493
   83SOPE  H18T 7672   5.635   4.330   4.406  2.1407 -0.0297 -0.5441
   83SOPE   C33 7673   5.999   5.024   2.988  0.0155  0.6073 -0.9638
   83SOPE   H3X 7674   5.987   5.114   2.924 -1.0474  0.1991 -1.3612
   83SOPE   H3Y 7675   6.096   4.972   2.969 -1.1082 -0.8775 -3.1498
   83SOPE   C34 7676   5.979   5.060   3.137  1.2919  0.1410  1.0916
   83SOPE   H4X 7677   5.871   5.041   3.158  0.3355  2.2970 -1.3248
   83SOPE   H4Y 7678   5.987   5.168   3.163 -2.3917  0.7051  0.5459
   83SOPE   C35 7679   6.067   4.980   3.230 -0.7140 -0.4273  0.3282
   83SOPE   H5X 7680   6.177   4.995   3.216 -0.7351  0.3464  0.9452
   83SOPE   H5Y 7681   6.046   4.875   3.199 -4.4815  0.1455  0.4902
   83SOPE   C36 7682   6.047   5.004   3.376 -0.7258  0.4021 -0.8264
   83SOPE   H6X 7683   5.939   5.015   3.402 -1.0809 -2.3366 -0.8517
   83SOPE   H6Y 7684   6.093   5.099   3.410 -0.2285 -0.7978  2.0982
   83SOPE   C37 7685   6.106   4.884   3.452  0.2422 -0.6042 -0.8048
   83SOPE   H7X 7686   6.209   4.862   3.417  0.3660 -0.6096 -0.4369
   83SOPE   H7Y 7687   6.039   4.802   3.418 -1.7403  2.0745 -4.0154
   83SOPE   C38 7688   6.082   4.902   3.600 -0.5281 -0.3128  0.1793
   83SOPE   H8X 7689   6.076   4.803   3.650 -1.2794 -0.0848  0.5579
   83SOPE   H8Y 7690   5.983   4.949   3.620 -1.8496 -3.5428  2.0525
   83SOPE   C39 7691   6.196   4.980   3.662 -0.3863  0.0552 -0.3072
   83SOPE   H9X 7692   6.213   5.077   3.611  2.6993 -0.1662  0.1283
   83SOPE   H9Y 7693   6.290   4.926   3.639 -0.0063  0.9151 -0.8248
   83SOPE  C310 7694   6.194   4.986   3.815 -0.2694  0.0691  0.1197
   83SOPE  H10X 7695   6.195   4.881   3.850 -1.4495  0.1499  0.4587
   83SOPE  H10Y 7696   6.106   5.043   3.852  0.9168  1.3469  1.0870
   83SOPE  C311 7697   6.324   5.044   3.872 -0.0119 -0.0199  0.0439
   83SOPE  H11X 7698   6.412   4.992   3.829  1.3507 -0.7482  3.3868
   83SOPE  H11Y 7699   6.336   5.018   3.979  4.2456 -0.3867 -0.3490
   83SOPE  C312 7700   6.333   5.202   3.863 -0.0732 -0.1557  0.5260
   83SOPE  H12X 7701   6.339   5.214   3.753 -2.6360 -1.0730  0.1958
   83SOPE  H12Y 7702   6.430   5.233   3.905 -0.8014  1.7150  0.9193
   83SOPE  C313 7703   6.223   5.290   3.919  0.3572  0.6585 -0.0199
   83SOPE  H13X 7704   6.144   5.290   3.840  0.6834 -0.4414 -0.3657
   83SOPE  H13Y 7705   6.252   5.397   3.910  0.3984  0.5564 -1.4552
   83SOPE  C314 7706   6.178   5.260   4.059  0.5016 -0.2233  0.2513
   83SOPE  H14X 7707   6.124   5.164   4.064  2.1336 -1.2179 -0.4812
   83SOPE  H14Y 7708   6.106   5.342   4.084 -0.0086  0.4936 -3.1685
   83SOPE  C315 7709   6.301   5.261   4.162  0.8417 -0.2211 -0.0562
   83SOPE  H15X 7710   6.331   5.368   4.157 -2.1275  0.6490 -1.3312
   83SOPE  H15Y 7711   6.382   5.199   4.118  0.5771 -1.4105  1.0300
   83SOPE  C316 7712   6.270   5.220   4.305 -0.2343 -0.0506 -0.1409
   83SOPE  H16X 7713   6.221   5.121   4.292  0.4217 -0.2712 -1.0610
   83SOPE  H16Y 7714   6.196   5.285   4.356 -0.2197 -1.0516  1.1868
   83SOPE  C317 7715   6.398   5.204   4.383 -0.1656  0.5275  0.0246
   83SOPE  H17X 7716   6.431   5.307   4.407 -1.9633  0.6450  2.3547
   83SOPE  H17Y 7717   6.471   5.152   4.318 -1.9044 -2.7634  0.4668
   83SOPE  C318 7718   6.374   5.131   4.517 -0.0255  0.8699  0.0506
   83SOPE  H18X 7719   6.281   5.162   4.569 -0.6564  0.4354 -0.8031
   83SOPE  H18Y 7720   6.459   5.151   4.586 -0.7858 -3.0234  2.4367
   83SOPE  H18Z 7721   6.360   5.022   4.499  0.7537  0.9103 -0.8680
   84SOPE     N 7722   4.003   2.113   1.955 -0.3960  0.9919 -0.0446
   84SOPE   HN1 7723   3.913   2.064   1.968  0.6657 -0.5468  2.0532
   84SOPE   HN2 7724   3.998   2.193   1.889 -3.2690  1.1288  0.2239
   84SOPE   HN3 7725   4.073   2.048   1.914 -1.2775 -1.3805  1.9946
   84SOPE   C12 7726   4.049   2.172   2.088  0.9575 -0.2596  0.3257
   84SOPE  H12A 7727   3.961   2.221   2.135  1.0222  1.9916 -1.6522
   84SOPE  H12B 7728   4.122   2.251   2.061 -0.5082  1.3113  0.7734
   84SOPE   C11 7729   4.121   2.071   2.180 -0.5099  0.0617  0.4340
   84SOPE  H11A 7730   4.041   2.005   2.220 -1.9903  1.0149 -0.8257
   84SOPE  H11B 7731   4.162   2.115   2.274  0.7135 -0.3772  0.1235
   84SOPE     P 7732   4.370   2.026   2.117 -0.0408 -0.1541  0.2854
   84SOPE   O13 7733   4.381   2.154   2.049 -0.0741  0.3761  0.6850
   84SOPE   O14 7734   4.458   1.915   2.069  0.6898  0.3185  0.4387
   84SOPE   O12 7735   4.219   1.986   2.118  0.0213  0.4520  0.0365
   84SOPE   O11 7736   4.402   2.050   2.265 -0.9268  0.1809  0.0707
   84SOPE    C1 7737   4.379   1.937   2.358  0.6454 -0.1721  0.5595
   84SOPE    HA 7738   4.462   1.866   2.342  0.1417 -0.7602  0.4985
   84SOPE    HB 7739   4.285   1.881   2.334 -1.2221  1.9031  2.4987
   84SOPE    C2 7740   4.380   1.976   2.499  0.4573 -0.3173 -0.1129
   84SOPE    HS 7741   4.314   2.064   2.510 -0.5230 -0.9516 -0.7977
   84SOPE   O21 7742   4.512   2.003   2.534  0.1414  0.0445 -0.1037
   84SOPE   C21 7743   4.533   2.100   2.614  0.2409  0.1528  0.0797
   84SOPE   O22 7744   4.448   2.187   2.647  0.0982 -1.0115  0.2835
   84SOPE   C22 7745   4.683   2.107   2.645  0.1166 -0.1612  0.3282
   84SOPE   H2R 7746   4.731   2.192   2.594 -1.2780 -0.2716 -1.2542
   84SOPE   H2S 7747   4.738   2.021   2.601 -0.5009 -0.2438 -0.2966
   84SOPE    C3 7748   4.325   1.867   2.596  0.0748 -0.1216  0.3273
   84SOPE    HX 7749   4.396   1.782   2.585 -0.0359 -0.3018  0.9344
   84SOPE    HY 7750   4.228   1.830   2.557 -0.1701 -0.0436  0.8544
   84SOPE   O31 7751   4.314   1.907   2.737  0.0837 -0.0893  0.2086
   84SOPE   C31 7752   4.209   1.979   2.778 -0.3094  0.1211 -0.8209
   84SOPE   O32 7753   4.116   2.006   2.707 -0.0491 -0.6681  0.4557
   84SOPE   C32 7754   4.236   2.023   2.922 -0.0692  0.3378 -0.0370
   84SOPE   H2X 7755   4.307   1.951   2.968  0.1677  1.8943  2.1976
   84SOPE   H2Y 7756   4.141   2.020   2.979 -0.1786  3.1770  0.0986
   84SOPE   C23 7757   4.706   2.118   2.793 -0.7618  0.2636  0.6031
   84SOPE   H3R 7758   4.641   2.193   2.843  0.4855  0.7008  1.6193
   84SOPE   H3S 7759   4.810   2.155   2.802 -0.5632  0.8752 -2.7722
   84SOPE   C24 7760   4.669   1.978   2.858  0.3873 -1.2177 -0.2225
   84SOPE   H4R 7761   4.558   1.965   2.861 -0.0916  1.9890 -0.6433
   84SOPE   H4S 7762   4.717   1.901   2.794  0.5990 -1.9690  0.8074
   84SOPE   C25 7763   4.734   1.966   2.999 -0.0018  0.1998 -0.3671
   84SOPE   H5R 7764   4.844   1.971   2.985 -0.0892 -0.7937 -1.6552
   84SOPE   H5S 7765   4.701   2.060   3.047  0.5364 -1.3550  3.3253
   84SOPE   C26 7766   4.691   1.852   3.100  0.2252 -0.8752 -0.1166
   84SOPE   H6R 7767   4.584   1.861   3.127  0.1375 -0.8561 -0.4638
   84SOPE   H6S 7768   4.699   1.762   3.036  0.2597 -0.0582 -1.3081
   84SOPE   C27 7769   4.787   1.835   3.224  0.9774 -0.5023 -0.1171
   84SOPE   H7R 7770   4.816   1.729   3.233 -0.5478 -0.9042  0.3552
   84SOPE   H7S 7771   4.880   1.893   3.201 -0.3901  0.4097 -4.2016
   84SOPE   C28 7772   4.735   1.900   3.349 -0.5297  0.3125 -0.6967
   84SOPE   H8R 7773   4.815   1.917   3.425  0.9873  1.6245 -2.4988
   84SOPE   H8S 7774   4.692   1.997   3.315 -2.6792 -0.8596 -1.5258
   84SOPE   C29 7775   4.635   1.821   3.432 -0.2746 -0.3773  0.3671
   84SOPE   H91 7776   4.587   1.737   3.380 -1.7625  0.2785  0.6296
   84SOPE  C210 7777   4.600   1.850   3.558  0.8853  0.1304  0.2494
   84SOPE  H101 7778   4.541   1.774   3.611  0.8591  0.0992  0.1768
   84SOPE  C211 7779   4.638   1.966   3.629 -0.5378 -0.8366 -0.4959
   84SOPE  H11R 7780   4.555   2.004   3.692  0.3616 -2.6299  1.9349
   84SOPE  H11S 7781   4.668   2.040   3.551  0.7889 -1.4711 -0.6014
   84SOPE  C212 7782   4.758   1.953   3.729 -0.3965 -0.2012 -0.0865
   84SOPE  H12R 7783   4.779   2.055   3.767  2.0703  0.3502 -2.5735
   84SOPE  H12S 7784   4.852   1.925   3.677 -0.4676 -1.0831  0.2410
   84SOPE  C213 7785   4.713   1.869   3.853 -0.5740  0.2065  0.0494
   84SOPE  H13R 7786   4.684   1.769   3.815 -0.7964 -0.1226  1.0603
   84SOPE  H13S 7787   4.620   1.915   3.893  0.6757  2.2440  0.7822
   84SOPE  C214 7788   4.828   1.857   3.958  0.5468 -0.3875 -0.3918
   84SOPE  H14R 7789   4.843   1.959   3.999  1.5492 -0.8313  0.3884
   84SOPE  H14S 7790   4.922   1.829   3.906 -0.2383 -2.8963 -0.6178
   84SOPE  C215 7791   4.797   1.749   4.066 -0.1126 -0.1848 -0.2201
   84SOPE  H15R 7792   4.893   1.716   4.111 -0.6128  3.0992  3.8165
   84SOPE  H15S 7793   4.744   1.661   4.024 -1.9540  0.5832  0.4246
   84SOPE  C216 7794   4.722   1.812   4.184  0.5442  0.0873  0.7841
   84SOPE  H16R 7795   4.626   1.855   4.148  0.2181 -2.1450 -1.2796
   84SOPE  H16S 7796   4.788   1.892   4.223 -0.7081  1.3899  0.3128
   84SOPE  C217 7797   4.699   1.711   4.293 -0.1730  0.3809 -0.2809
   84SOPE  H17R 7798   4.633   1.631   4.253  1.4995 -0.5647 -1.2370
   84SOPE  H17S 7799   4.633   1.762   4.366 -0.9275  0.0639 -0.7352
   84SOPE  C218 7800   4.817   1.656   4.375 -0.3276  0.5750  0.0266
   84SOPE  H18R 7801   4.864   1.745   4.422 -0.1096  0.9561 -0.9001
   84SOPE  H18S 7802   4.893   1.601   4.315  0.5953 -0.5134  2.0643
   84SOPE  H18T 7803   4.779   1.587   4.454  0.6898  0.5241  0.4985
   84SOPE   C33 7804   4.290   2.160   2.950 -0.7546 -0.4578  0.3897
   84SOPE   H3X 7805   4.217   2.242   2.933  1.9321  2.0902  0.4449
   84SOPE   H3Y 7806   4.379   2.187   2.889 -0.6215 -0.2721  0.6642
   84SOPE   C34 7807   4.318   2.177   3.099  0.1559  0.3600  0.1067
   84SOPE   H4X 7808   4.405   2.116   3.131 -0.5492 -2.4714 -2.9008
   84SOPE   H4Y 7809   4.238   2.132   3.161 -0.4534  0.1464 -0.8276
   84SOPE   C35 7810   4.330   2.322   3.154 -0.0769  0.4400  0.2344
   84SOPE   H5X 7811   4.229   2.362   3.133 -1.3996 -3.1372 -0.9612
   84SOPE   H5Y 7812   4.401   2.372   3.084 -1.1940  1.4978 -0.1698
   84SOPE   C36 7813   4.368   2.330   3.298 -0.1622  0.4246  0.0924
   84SOPE   H6X 7814   4.299   2.272   3.364 -0.8767  1.0944 -0.0607
   84SOPE   H6Y 7815   4.357   2.437   3.325 -0.7574  0.1499  1.0188
   84SOPE   C37 7816   4.518   2.304   3.318 -0.3274 -0.1050 -0.4572
   84SOPE   H7X 7817   4.568   2.381   3.256 -1.0392  1.6387  1.0494
   84SOPE   H7Y 7818   4.542   2.200   3.287  0.6806 -0.3376  1.0359
   84SOPE   C38 7819   4.561   2.324   3.466  0.2710 -0.2640 -0.4325
   84SOPE   H8X 7820   4.670   2.305   3.479 -0.0828 -1.9206  0.4006
   84SOPE   H8Y 7821   4.507   2.239   3.513 -0.1850 -0.2136 -0.8591
   84SOPE   C39 7822   4.528   2.454   3.523  0.0623  0.0251 -0.0918
   84SOPE   H9X 7823   4.420   2.477   3.515 -0.3890 -2.4874 -3.2814
   84SOPE   H9Y 7824   4.572   2.529   3.453 -1.7937  0.7666 -0.5056
   84SOPE  C310 7825   4.581   2.473   3.670 -0.4853 -0.3824 -0.1753
   84SOPE  H10X 7826   4.543   2.568   3.715 -0.0388  0.2482 -1.0861
   84SOPE  H10Y 7827   4.690   2.488   3.659 -0.2387 -1.7384  0.2824
   84SOPE  C311 7828   4.551   2.353   3.766 -0.0489  0.0645 -0.4774
   84SOPE  H11X 7829   4.560   2.254   3.717 -1.5326 -0.0003 -0.6442
   84SOPE  H11Y 7830   4.444   2.359   3.794  0.1362 -1.3934  0.6569
   84SOPE  C312 7831   4.627   2.360   3.899 -0.5033 -0.6818  0.0433
   84SOPE  H12X 7832   4.616   2.462   3.943 -2.0105 -0.7403 -0.1307
   84SOPE  H12Y 7833   4.733   2.332   3.884 -1.0659 -1.8584 -2.1479
   84SOPE  C313 7834   4.573   2.254   3.998 -0.1471  0.4786  1.3256
   84SOPE  H13X 7835   4.621   2.159   3.968  0.5183  0.1139  3.3998
   84SOPE  H13Y 7836   4.467   2.244   3.965 -0.2416  0.8509  1.5098
   84SOPE  C314 7837   4.607   2.289   4.144 -0.3132  0.1653 -0.2451
   84SOPE  H14X 7838   4.598   2.207   4.217 -0.1834  1.7505  1.6325
   84SOPE  H14Y 7839   4.531   2.364   4.175 -0.5201 -0.0802 -0.1600
   84SOPE  C315 7840   4.743   2.360   4.169  0.0062 -0.5166  0.1653
   84SOPE  H15X 7841   4.752   2.440   4.093  2.5696 -0.9814 -0.1278
   84SOPE  H15Y 7842   4.820   2.280   4.161  2.1162  1.5795 -2.1664
   84SOPE  C316 7843   4.749   2.418   4.307 -0.0227 -0.3313 -0.1267
   84SOPE  H16X 7844   4.743   2.335   4.381  0.0329 -0.5605 -0.3749
   84SOPE  H16Y 7845   4.659   2.482   4.318  0.8743  0.7604  1.0441
   84SOPE  C317 7846   4.870   2.514   4.333 -0.1100 -0.3865 -0.2644
   84SOPE  H17X 7847   4.870   2.586   4.248  0.3295  2.0692  1.6833
   84SOPE  H17Y 7848   4.967   2.461   4.336 -0.7772 -1.5895  1.0113
   84SOPE  C318 7849   4.866   2.588   4.469 -0.2553 -0.2121  0.5446
   84SOPE  H18X 7850   4.965   2.623   4.504 -0.1232 -2.3166  2.5007
   84SOPE  H18Y 7851   4.848   2.514   4.550  0.7363 -0.3130  0.6834
   84SOPE  H18Z 7852   4.795   2.673   4.473  0.1620  0.2380 -0.8665
   85SOPE     N 7853   3.561   6.141   2.195 -0.0367  0.4080 -0.2884
   85SOPE   HN1 7854   3.657   6.150   2.234 -0.1136 -1.2457  0.3671
   85SOPE   HN2 7855   3.517   6.074   2.262  1.6536 -0.4174  0.0466
   85SOPE   HN3 7856   3.571   6.094   2.102  1.5184  1.3531 -0.6403
   85SOPE   C12 7857   3.491   6.267   2.163  0.0048  0.3112 -0.0440
   85SOPE  H12A 7858   3.394   6.233   2.119  0.6898 -1.4934 -0.2413
   85SOPE  H12B 7859   3.551   6.329   2.093 -0.9102  0.4600 -0.7216
   85SOPE   C11 7860   3.459   6.359   2.283 -0.3471 -0.1463 -0.6301
   85SOPE  H11A 7861   3.554   6.406   2.315 -1.8903  2.5584  0.2279
   85SOPE  H11B 7862   3.411   6.288   2.354 -0.5179 -2.0005 -2.4935
   85SOPE     P 7863   3.392   6.612   2.299  0.3123 -0.3526 -0.2949
   85SOPE   O13 7864   3.269   6.683   2.261  0.0597  0.1165 -0.6939
   85SOPE   O14 7865   3.528   6.658   2.247 -0.4252 -0.0176  0.2630
   85SOPE   O12 7866   3.372   6.467   2.241  0.0101 -0.3205  0.0319
   85SOPE   O11 7867   3.400   6.582   2.455  0.6431 -0.2689 -0.7649
   85SOPE    C1 7868   3.287   6.532   2.532  0.5638  0.1077  0.4318
   85SOPE    HA 7869   3.295   6.422   2.545  0.2714 -0.1074 -0.9605
   85SOPE    HB 7870   3.190   6.543   2.479  1.3468  0.8579 -0.8977
   85SOPE    C2 7871   3.275   6.600   2.667  0.4447  0.3741 -0.3133
   85SOPE    HS 7872   3.277   6.706   2.635  0.2766  0.7061  0.7620
   85SOPE   O21 7873   3.394   6.567   2.745 -0.0100  0.3367  0.0760
   85SOPE   C21 7874   3.436   6.666   2.822  0.2645 -0.4114  0.1115
   85SOPE   O22 7875   3.381   6.774   2.836  0.8240 -0.3027 -0.0048
   85SOPE   C22 7876   3.563   6.614   2.895 -0.1036  0.4182 -0.9248
   85SOPE   H2R 7877   3.644   6.653   2.829  1.9687  0.4434  1.4722
   85SOPE   H2S 7878   3.573   6.504   2.884 -0.7377  0.0474  1.5755
   85SOPE    C3 7879   3.145   6.562   2.744  0.0527 -0.0875 -0.4693
   85SOPE    HX 7880   3.158   6.453   2.761  0.2166  0.0187  0.1491
   85SOPE    HY 7881   3.060   6.567   2.674 -1.8953 -0.7960  1.7077
   85SOPE   O31 7882   3.145   6.624   2.873  0.9880 -0.4666  0.0265
   85SOPE   C31 7883   3.067   6.741   2.875 -0.2408 -0.0093  0.1169
   85SOPE   O32 7884   3.040   6.802   2.774  0.3838 -0.7282 -0.5364
   85SOPE   C32 7885   3.025   6.767   3.014  0.0529 -0.1556  0.1937
   85SOPE   H2X 7886   3.014   6.876   3.034 -0.9931 -0.2940  0.4029
   85SOPE   H2Y 7887   3.099   6.742   3.093  0.1871  1.0040  0.4471
   85SOPE   C23 7888   3.575   6.672   3.045  0.6862 -0.0964 -0.1573
   85SOPE   H3R 7889   3.592   6.782   3.045  1.8405 -0.2447 -1.1574
   85SOPE   H3S 7890   3.665   6.627   3.092  0.8216 -0.3647 -0.6626
   85SOPE   C24 7891   3.457   6.638   3.137 -0.2953  0.2394 -0.6457
   85SOPE   H4R 7892   3.363   6.691   3.110 -0.0017  0.2853 -1.6362
   85SOPE   H4S 7893   3.446   6.527   3.136  1.1451  0.0541 -2.3329
   85SOPE   C25 7894   3.492   6.687   3.279 -0.2195 -0.0968  0.5939
   85SOPE   H5R 7895   3.575   6.624   3.317  0.5796 -0.1376 -1.1141
   85SOPE   H5S 7896   3.546   6.784   3.272  0.0013 -0.3192 -1.4752
   85SOPE   C26 7897   3.380   6.690   3.380 -0.2492  0.2236 -0.1535
   85SOPE   H6R 7898   3.282   6.722   3.339 -0.9081 -2.0557 -0.5186
   85SOPE   H6S 7899   3.370   6.586   3.417  0.0655  0.6175  1.0768
   85SOPE   C27 7900   3.418   6.763   3.513  0.6982 -0.2619 -0.3009
   85SOPE   H7R 7901   3.500   6.708   3.564  1.2734 -1.2823 -2.2254
   85SOPE   H7S 7902   3.469   6.857   3.482  1.0572 -0.3073  0.1301
   85SOPE   C28 7903   3.296   6.781   3.602  0.0094 -0.2621 -0.3199
   85SOPE   H8R 7904   3.211   6.811   3.537  1.0488  4.4057  0.0640
   85SOPE   H8S 7905   3.259   6.693   3.658 -1.6471  1.4877  1.5358
   85SOPE   C29 7906   3.304   6.901   3.693 -0.4122  0.1040  0.8625
   85SOPE   H91 7907   3.296   6.995   3.636  0.9236  0.6676  1.5409
   85SOPE  C210 7908   3.320   6.910   3.824  0.0930 -0.5526  0.9942
   85SOPE  H101 7909   3.329   7.010   3.869 -0.7876  0.1925 -0.4169
   85SOPE  C211 7910   3.315   6.787   3.916  0.5719 -0.4230 -0.8573
   85SOPE  H11R 7911   3.414   6.736   3.913 -0.1110 -1.9177  0.3486
   85SOPE  H11S 7912   3.243   6.708   3.884 -1.2401  0.7782  0.1029
   85SOPE  C212 7913   3.251   6.833   4.051  0.0190 -0.3665  0.1978
   85SOPE  H12R 7914   3.149   6.874   4.036  0.7424  2.1165  1.4385
   85SOPE  H12S 7915   3.305   6.922   4.089 -1.5677 -0.0386  1.8552
   85SOPE  C213 7916   3.240   6.714   4.150  0.1105 -0.2993  0.8530
   85SOPE  H13R 7917   3.173   6.642   4.098  1.1375 -0.1535 -0.7484
   85SOPE  H13S 7918   3.180   6.728   4.243 -2.5849 -1.3243 -0.6291
   85SOPE  C214 7919   3.371   6.637   4.169  0.0923  0.0749  0.0114
   85SOPE  H14R 7920   3.452   6.710   4.192  0.6721 -0.3892 -0.5168
   85SOPE  H14S 7921   3.393   6.592   4.070 -0.2360  2.1513 -1.0683
   85SOPE  C215 7922   3.356   6.525   4.274  0.2875 -0.1920  0.0872
   85SOPE  H15R 7923   3.274   6.456   4.245 -0.8641  0.8782  0.6682
   85SOPE  H15S 7924   3.317   6.569   4.368 -1.1007  0.6391 -0.8425
   85SOPE  C216 7925   3.490   6.457   4.293 -0.6226 -0.4054 -0.2903
   85SOPE  H16R 7926   3.555   6.515   4.363 -0.1261  0.8954 -1.7818
   85SOPE  H16S 7927   3.538   6.433   4.196  0.7577 -0.3631  0.3624
   85SOPE  C217 7928   3.469   6.313   4.351 -0.3103  0.0727  0.0648
   85SOPE  H17R 7929   3.388   6.321   4.426 -0.4393  1.3950 -0.1741
   85SOPE  H17S 7930   3.565   6.277   4.394  0.0327  0.9286  0.0586
   85SOPE  C218 7931   3.423   6.209   4.247 -0.0005 -0.1191  0.5964
   85SOPE  H18R 7932   3.328   6.241   4.198 -0.8688 -1.1768  1.5263
   85SOPE  H18S 7933   3.408   6.108   4.291  2.4954 -1.1256 -0.6870
   85SOPE  H18T 7934   3.506   6.202   4.174 -0.7257 -2.9756 -0.0918
   85SOPE   C33 7935   2.904   6.674   3.046  0.0585 -0.0322  0.1555
   85SOPE   H3X 7936   2.924   6.565   3.040 -0.9573 -0.1527 -2.2854
   85SOPE   H3Y 7937   2.820   6.698   2.977  0.0643  1.2718  0.5614
   85SOPE   C34 7938   2.848   6.689   3.186  0.0031 -0.2373  0.1542
   85SOPE   H4X 7939   2.807   6.792   3.199  0.4276 -0.0807  0.2758
   85SOPE   H4Y 7940   2.933   6.665   3.254 -1.2268 -2.3809  1.0366
   85SOPE   C35 7941   2.731   6.595   3.214 -0.0468  0.5248  0.2474
   85SOPE   H5X 7942   2.755   6.488   3.196 -0.1651  0.7527 -1.5057
   85SOPE   H5Y 7943   2.647   6.621   3.146  1.6462  2.6575 -1.1728
   85SOPE   C36 7944   2.676   6.598   3.357 -0.6672 -0.7750 -0.8739
   85SOPE   H6X 7945   2.634   6.697   3.385 -1.4492 -1.2305 -0.3874
   85SOPE   H6Y 7946   2.765   6.579   3.421 -1.4398  1.0043  0.8197
   85SOPE   C37 7947   2.575   6.490   3.388 -0.5296  0.0437  0.8182
   85SOPE   H7X 7948   2.611   6.387   3.363 -2.1359 -0.6939  1.4287
   85SOPE   H7Y 7949   2.490   6.503   3.318 -1.2107 -2.2768  1.1077
   85SOPE   C38 7950   2.529   6.487   3.539 -0.1580 -1.3167 -0.0219
   85SOPE   H8X 7951   2.435   6.428   3.553 -0.1458 -0.8096  2.8549
   85SOPE   H8Y 7952   2.511   6.591   3.572 -1.4637 -1.1807 -1.0725
   85SOPE   C39 7953   2.628   6.431   3.639  0.4912 -0.0386 -1.5742
   85SOPE   H9X 7954   2.713   6.496   3.667 -1.3027  1.9468 -0.4608
   85SOPE   H9Y 7955   2.672   6.340   3.592 -0.8100 -1.2923 -0.4596
   85SOPE  C310 7956   2.564   6.400   3.773  0.5123 -0.4866 -0.6644
   85SOPE  H10X 7957   2.491   6.317   3.755  0.3342 -0.3452 -0.5983
   85SOPE  H10Y 7958   2.504   6.485   3.812 -1.4580 -1.6162 -1.0617
   85SOPE  C311 7959   2.666   6.356   3.884  0.2027  0.0501  0.1396
   85SOPE  H11X 7960   2.741   6.437   3.895 -1.3847  1.6937 -0.4910
   85SOPE  H11Y 7961   2.716   6.262   3.855  0.3992  0.2130 -0.0556
   85SOPE  C312 7962   2.602   6.331   4.024  0.0310  0.4165 -0.3034
   85SOPE  H12X 7963   2.692   6.303   4.082 -0.5976  0.4358  0.7064
   85SOPE  H12Y 7964   2.531   6.246   4.011 -0.2809  0.5750  0.3295
   85SOPE  C313 7965   2.545   6.456   4.087  0.0189  0.6866 -0.2487
   85SOPE  H13X 7966   2.440   6.473   4.055 -0.3885  0.1912  0.7751
   85SOPE  H13Y 7967   2.599   6.543   4.043 -0.3276  1.0352 -0.0041
   85SOPE  C314 7968   2.531   6.443   4.234  0.2906  0.2663 -0.3551
   85SOPE  H14X 7969   2.626   6.469   4.285  0.9277 -1.3832 -0.6423
   85SOPE  H14Y 7970   2.500   6.342   4.267 -0.0308  0.6512  0.5742
   85SOPE  C315 7971   2.423   6.540   4.291 -0.3553  0.3034  0.0870
   85SOPE  H15X 7972   2.329   6.494   4.255 -0.1224  0.9461 -1.4176
   85SOPE  H15Y 7973   2.434   6.645   4.257 -1.7780  0.6319  0.5529
   85SOPE  C316 7974   2.430   6.553   4.442 -0.4911  0.4288  0.0546
   85SOPE  H16X 7975   2.507   6.621   4.485 -1.2902  0.4099  1.5790
   85SOPE  H16Y 7976   2.453   6.449   4.473  0.8778  1.0372  1.2316
   85SOPE  C317 7977   2.294   6.597   4.491  0.2109 -0.0505  0.1911
   85SOPE  H17X 7978   2.234   6.512   4.452  0.6259  0.5898 -2.0189
   85SOPE  H17Y 7979   2.259   6.678   4.422 -0.1561 -0.8119 -0.5385
   85SOPE  C318 7980   2.257   6.635   4.626 -0.1613  0.1782 -0.1437
   85SOPE  H18X 7981   2.247   6.544   4.690  1.2422  0.8269  1.0430
   85SOPE  H18Y 7982   2.152   6.673   4.634 -1.1207 -2.2091 -0.5269
   85SOPE  H18Z 7983   2.334   6.703   4.668  1.7610 -0.7914 -1.9539
   86SOPE     N 7984   2.192   1.792   2.118 -0.3387 -0.2802 -0.3458
   86SOPE   HN1 7985   2.214   1.720   2.046 -1.8980 -1.7038  0.5515
   86SOPE   HN2 7986   2.268   1.775   2.187 -0.3774 -1.3010 -0.5447
   86SOPE   HN3 7987   2.098   1.752   2.134 -0.3960  0.5719  1.8694
   86SOPE   C12 7988   2.195   1.933   2.056 -0.1457  0.5292  0.1917
   86SOPE  H12A 7989   2.151   1.918   1.955 -0.7325  0.4392  0.4552
   86SOPE  H12B 7990   2.298   1.967   2.034  0.4496  0.1107  2.1477
   86SOPE   C11 7991   2.124   2.036   2.145 -0.4340  0.0513 -0.6221
   86SOPE  H11A 7992   2.115   2.137   2.098 -0.9259  0.6451  0.7063
   86SOPE  H11B 7993   2.172   2.039   2.245 -0.1990 -0.1581 -0.7256
   86SOPE     P 7994   1.865   2.064   2.111 -0.2261  0.1641  0.0726
   86SOPE   O13 7995   1.759   1.968   2.127 -0.1556  0.5995 -0.1001
   86SOPE   O14 7996   1.897   2.133   1.982  0.5675  0.5255  0.2578
   86SOPE   O12 7997   1.988   1.992   2.168  0.0433  0.6037 -0.5572
   86SOPE   O11 7998   1.855   2.183   2.221  0.1735 -0.3321 -0.4728
   86SOPE    C1 7999   1.899   2.163   2.355 -0.0289  0.0591 -0.4225
   86SOPE    HA 8000   1.936   2.061   2.380  1.8472  0.5734 -0.9934
   86SOPE    HB 8001   1.812   2.181   2.423 -0.7540 -1.8093 -0.7881
   86SOPE    C2 8002   2.022   2.261   2.393  0.0810 -0.0491 -0.1183
   86SOPE    HS 8003   2.112   2.201   2.368 -0.2459 -1.3917  1.7259
   86SOPE   O21 8004   2.028   2.281   2.539  0.5505 -0.0589  0.3119
   86SOPE   C21 8005   2.148   2.314   2.579 -0.1890 -0.5612  0.0771
   86SOPE   O22 8006   2.242   2.345   2.509 -0.0308  0.3134 -0.3459
   86SOPE   C22 8007   2.156   2.314   2.728  0.0846 -0.0400 -0.1814
   86SOPE   H2R 8008   2.175   2.207   2.749  3.3699  0.5849  0.6209
   86SOPE   H2S 8009   2.057   2.341   2.770 -0.7465 -3.3878  0.3100
   86SOPE    C3 8010   2.013   2.407   2.320 -0.1728  0.4781 -1.0843
   86SOPE    HX 8011   2.040   2.388   2.214 -1.9160 -2.9271 -1.0541
   86SOPE    HY 8012   2.091   2.470   2.366 -0.9381  2.7451 -2.7022
   86SOPE   O31 8013   1.879   2.451   2.347  0.0571  0.3052 -0.3742
   86SOPE   C31 8014   1.866   2.557   2.422  0.1876 -0.0421 -0.3700
   86SOPE   O32 8015   1.948   2.645   2.447 -0.2501  0.3653 -0.0341
   86SOPE   C32 8016   1.724   2.566   2.461  0.2922  0.1595  0.2052
   86SOPE   H2X 8017   1.659   2.529   2.379 -2.4185  3.3800  0.6859
   86SOPE   H2Y 8018   1.694   2.669   2.489 -0.3909  0.2884 -0.9702
   86SOPE   C23 8019   2.280   2.393   2.786 -0.0975  0.1204 -0.0004
   86SOPE   H3R 8020   2.269   2.501   2.761  0.6573  0.1008 -0.4365
   86SOPE   H3S 8021   2.371   2.370   2.727 -0.2218  0.1062 -0.1861
   86SOPE   C24 8022   2.299   2.371   2.937  0.3670 -0.0436 -0.2623
   86SOPE   H4R 8023   2.207   2.414   2.982  0.4516  0.7552 -0.8331
   86SOPE   H4S 8024   2.291   2.263   2.960  0.3375 -0.4257 -1.9419
   86SOPE   C25 8025   2.424   2.438   2.997  0.7216  0.0414  0.0004
   86SOPE   H5R 8026   2.510   2.409   2.932  0.9225 -1.5629  0.9290
   86SOPE   H5S 8027   2.409   2.548   2.999 -2.0477 -0.2753  1.2357
   86SOPE   C26 8028   2.449   2.381   3.140  0.2208 -0.8093 -0.0433
   86SOPE   H6R 8029   2.440   2.271   3.147  0.4822 -0.8175  0.1784
   86SOPE   H6S 8030   2.556   2.405   3.157  0.5138 -1.1435 -1.3237
   86SOPE   C27 8031   2.358   2.447   3.252  0.0808  0.0937 -0.3728
   86SOPE   H7R 8032   2.254   2.413   3.231 -0.4103  0.6468  1.0180
   86SOPE   H7S 8033   2.388   2.406   3.351 -0.3906  2.2075  0.6992
   86SOPE   C28 8034   2.353   2.593   3.258 -0.0381 -0.3932  0.8641
   86SOPE   H8R 8035   2.458   2.629   3.263  0.1598 -0.8334  0.0145
   86SOPE   H8S 8036   2.327   2.648   3.165  3.8320 -1.1220 -0.8171
   86SOPE   C29 8037   2.282   2.636   3.384  0.5685 -0.2886  0.0894
   86SOPE   H91 8038   2.173   2.649   3.373  0.2965 -2.4749 -0.2158
   86SOPE  C210 8039   2.338   2.660   3.502  0.5120 -0.7284  0.6021
   86SOPE  H101 8040   2.272   2.705   3.577 -0.0433  1.4384 -1.0878
   86SOPE  C211 8041   2.482   2.626   3.536 -0.0441 -0.0481  1.3209
   86SOPE  H11R 8042   2.536   2.720   3.561  0.6387 -0.0396 -0.0661
   86SOPE  H11S 8043   2.543   2.591   3.450 -2.8874  3.2411 -2.4411
   86SOPE  C212 8044   2.488   2.530   3.651  0.4622  1.0791  0.6920
   86SOPE  H12R 8045   2.588   2.486   3.630  1.0121  2.8241 -0.7304
   86SOPE  H12S 8046   2.405   2.458   3.639  2.3874 -1.1937  0.1261
   86SOPE  C213 8047   2.471   2.598   3.789 -0.0244  0.7019 -0.7211
   86SOPE  H13R 8048   2.374   2.650   3.800 -1.3437 -1.6697 -0.4882
   86SOPE  H13S 8049   2.553   2.671   3.803 -0.0680  0.2225  2.8237
   86SOPE  C214 8050   2.473   2.498   3.912  0.5554 -1.0430 -0.1466
   86SOPE  H14R 8051   2.577   2.460   3.927  1.1540  0.8446  0.8654
   86SOPE  H14S 8052   2.414   2.414   3.870 -0.8006  0.2294 -0.8968
   86SOPE  C215 8053   2.424   2.557   4.048  0.0031  0.5959  0.3228
   86SOPE  H15R 8054   2.321   2.596   4.039  0.0673  0.2955 -2.5415
   86SOPE  H15S 8055   2.481   2.648   4.077 -0.2312  0.8151  0.1010
   86SOPE  C216 8056   2.449   2.449   4.160 -0.2704  0.0601 -0.4459
   86SOPE  H16R 8057   2.456   2.347   4.116 -0.5055 -0.2160  0.1427
   86SOPE  H16S 8058   2.353   2.446   4.217  0.8247  1.2637  1.5925
   86SOPE  C217 8059   2.577   2.472   4.241 -0.3930  0.4000  0.2482
   86SOPE  H17R 8060   2.564   2.564   4.301  0.6518  0.7749 -0.0687
   86SOPE  H17S 8061   2.662   2.491   4.171  0.6634 -0.3334  1.2985
   86SOPE  C218 8062   2.609   2.342   4.321  0.3951 -0.3853  0.8339
   86SOPE  H18R 8063   2.706   2.333   4.374  2.0704  0.4221 -1.9168
   86SOPE  H18S 8064   2.591   2.254   4.255  2.0536  0.2007 -0.4589
   86SOPE  H18T 8065   2.530   2.330   4.399  2.3792 -1.4268  2.7778
   86SOPE   C33 8066   1.691   2.478   2.579  0.0113  0.3981  0.2866
   86SOPE   H3X 8067   1.696   2.372   2.546 -0.5899  0.4614 -0.0103
   86SOPE   H3Y 8068   1.583   2.493   2.597 -1.1434 -1.9690 -3.3972
   86SOPE   C34 8069   1.786   2.493   2.701 -0.2253  0.0493  0.0617
   86SOPE   H4X 8070   1.787   2.603   2.713 -0.2681  0.3177 -1.9927
   86SOPE   H4Y 8071   1.888   2.460   2.671 -0.8342 -2.2522  0.3372
   86SOPE   C35 8072   1.737   2.413   2.826 -0.2342 -0.5854 -0.1435
   86SOPE   H5X 8073   1.733   2.303   2.812 -0.7847 -0.4020 -1.6328
   86SOPE   H5Y 8074   1.635   2.452   2.849  0.8683  1.4990  1.6150
   86SOPE   C36 8075   1.831   2.435   2.949  0.5506  0.1258 -0.0129
   86SOPE   H6X 8076   1.868   2.538   2.931 -0.5489  0.2105 -2.1524
   86SOPE   H6Y 8077   1.914   2.361   2.947  0.2694 -0.3250  2.4032
   86SOPE   C37 8078   1.771   2.450   3.086 -0.0040 -0.4954 -0.4463
   86SOPE   H7X 8079   1.742   2.353   3.133 -1.4507  0.0190 -0.2122
   86SOPE   H7Y 8080   1.682   2.516   3.083 -0.3246 -0.9505 -3.2203
   86SOPE   C38 8081   1.884   2.516   3.174  0.7680  0.2025 -0.5505
   86SOPE   H8X 8082   1.906   2.614   3.125  3.9668 -1.9047 -3.8866
   86SOPE   H8Y 8083   1.977   2.456   3.164  1.1749  0.8177 -0.5134
   86SOPE   C39 8084   1.860   2.540   3.324  0.3120 -0.2326  0.0150
   86SOPE   H9X 8085   1.763   2.593   3.334 -0.5812 -1.6706 -0.6516
   86SOPE   H9Y 8086   1.950   2.601   3.347  0.4898  0.1277 -1.5299
   86SOPE  C310 8087   1.858   2.412   3.404 -0.2001  0.1062 -0.5303
   86SOPE  H10X 8088   1.941   2.341   3.382 -0.9054 -1.1049  0.5545
   86SOPE  H10Y 8089   1.763   2.361   3.378 -1.3349  0.7063  2.1355
   86SOPE  C311 8090   1.857   2.455   3.554 -0.4088  0.0130  0.2107
   86SOPE  H11X 8091   1.762   2.504   3.585 -0.5909 -0.0711 -0.2102
   86SOPE  H11Y 8092   1.942   2.527   3.548 -0.5659  0.0985 -1.4690
   86SOPE  C312 8093   1.873   2.331   3.645 -0.5109 -0.0278 -0.3575
   86SOPE  H12X 8094   1.977   2.297   3.626 -0.3485  0.5357 -0.4962
   86SOPE  H12Y 8095   1.801   2.253   3.614  0.5634 -0.7615 -1.0893
   86SOPE  C313 8096   1.857   2.356   3.797  0.5470 -0.0995  0.1341
   86SOPE  H13X 8097   1.751   2.338   3.826 -0.3385 -0.5245 -2.9341
   86SOPE  H13Y 8098   1.880   2.462   3.820  1.6564 -0.0741 -0.9655
   86SOPE  C314 8099   1.954   2.268   3.876 -0.1452  0.3615  0.6088
   86SOPE  H14X 8100   2.059   2.280   3.843 -1.0773  0.0182 -2.7943
   86SOPE  H14Y 8101   1.918   2.163   3.868 -2.0056  0.9028  1.3696
   86SOPE  C315 8102   1.965   2.309   4.020  0.5382  0.4221  0.5782
   86SOPE  H15X 8103   2.028   2.236   4.074 -0.8979 -1.5658 -0.2971
   86SOPE  H15Y 8104   1.866   2.289   4.068 -0.2370  2.0575 -0.2253
   86SOPE  C316 8105   2.015   2.448   4.066  0.5830  0.3426  0.8985
   86SOPE  H16X 8106   1.944   2.522   4.021  1.4366  0.9341  0.4946
   86SOPE  H16Y 8107   2.114   2.463   4.017  0.1488  0.5550  0.0559
   86SOPE  C317 8108   2.035   2.465   4.217 -0.2025 -0.0315  0.8480
   86SOPE  H17X 8109   2.110   2.388   4.245  0.5525  0.9273  1.5223
   86SOPE  H17Y 8110   1.940   2.443   4.270 -0.2100  1.4727  1.4976
   86SOPE  C318 8111   2.098   2.587   4.267 -0.3834 -0.5848  0.3996
   86SOPE  H18X 8112   2.014   2.655   4.291  1.2732  1.7017  0.0406
   86SOPE  H18Y 8113   2.157   2.637   4.187 -0.3989 -0.0560  0.7135
   86SOPE  H18Z 8114   2.168   2.561   4.350 -0.9997 -2.5219  0.3569
   87SOPE     N 8115   3.458   3.534   2.445  0.2562 -0.0066 -0.4177
   87SOPE   HN1 8116   3.409   3.614   2.491  1.0703  0.6340 -0.6389
   87SOPE   HN2 8117   3.558   3.563   2.441  1.1904 -2.7713  0.7846
   87SOPE   HN3 8118   3.424   3.530   2.347  0.0680 -0.7524 -0.3261
   87SOPE   C12 8119   3.460   3.402   2.520  0.6009 -0.0001 -0.2227
   87SOPE  H12A 8120   3.357   3.374   2.553  1.2910 -1.8130  0.5565
   87SOPE  H12B 8121   3.521   3.417   2.611  0.8379 -0.4268 -0.3069
   87SOPE   C11 8122   3.526   3.291   2.447 -0.5409  0.6716  0.1633
   87SOPE  H11A 8123   3.465   3.249   2.364  1.4248  0.3795 -1.2310
   87SOPE  H11B 8124   3.525   3.206   2.518  0.2532 -0.8442 -1.5484
   87SOPE     P 8125   3.740   3.224   2.317  0.4649  0.0714 -0.1322
   87SOPE   O13 8126   3.820   3.305   2.218 -0.6622 -0.4293 -0.5285
   87SOPE   O14 8127   3.649   3.113   2.266  0.0664  0.1044  0.9320
   87SOPE   O12 8128   3.652   3.321   2.396 -0.1833  0.6148 -0.4064
   87SOPE   O11 8129   3.843   3.165   2.423  0.6224 -0.3211 -0.0721
   87SOPE    C1 8130   3.862   3.233   2.544  0.3107 -0.0729 -0.1812
   87SOPE    HA 8131   3.818   3.335   2.548  3.7621  1.6705 -1.6875
   87SOPE    HB 8132   3.969   3.257   2.564  0.0308  1.3987 -0.3022
   87SOPE    C2 8133   3.821   3.151   2.671 -0.2583 -0.5458 -0.5362
   87SOPE    HS 8134   3.710   3.147   2.662 -0.2460 -1.3918 -0.4075
   87SOPE   O21 8135   3.861   3.213   2.789  0.0913 -0.6403 -0.3927
   87SOPE   C21 8136   3.787   3.321   2.831 -0.6054 -0.3586  0.4815
   87SOPE   O22 8137   3.689   3.368   2.776 -0.2077  0.3969  0.0304
   87SOPE   C22 8138   3.855   3.394   2.953  0.2904  0.5247 -0.1929
   87SOPE   H2R 8139   3.965   3.385   2.947  0.2365 -0.8041  0.4288
   87SOPE   H2S 8140   3.837   3.339   3.048  0.7099  0.9701  0.1434
   87SOPE    C3 8141   3.871   3.010   2.672  0.1607 -0.2725 -0.1139
   87SOPE    HX 8142   3.976   3.018   2.708  0.4738 -1.8729 -0.5779
   87SOPE    HY 8143   3.873   2.974   2.567 -1.9224 -1.1047  0.0857
   87SOPE   O31 8144   3.796   2.923   2.759 -0.1163 -0.0226  0.3356
   87SOPE   C31 8145   3.694   2.856   2.706  0.0257  0.2212  0.3912
   87SOPE   O32 8146   3.647   2.877   2.595  0.0976 -0.1568  0.0698
   87SOPE   C32 8147   3.639   2.748   2.803 -0.1787 -0.5906 -0.2941
   87SOPE   H2X 8148   3.703   2.759   2.893 -0.8551 -1.5057  0.3162
   87SOPE   H2Y 8149   3.650   2.644   2.766  0.6281 -0.4681 -0.4125
   87SOPE   C23 8150   3.824   3.543   2.969  0.2245 -0.0965  0.0958
   87SOPE   H3R 8151   3.714   3.551   2.955  0.1524  2.4628  1.5304
   87SOPE   H3S 8152   3.872   3.603   2.888  0.1986 -1.8394 -1.2919
   87SOPE   C24 8153   3.877   3.598   3.097 -0.2529 -0.6410  0.2705
   87SOPE   H4R 8154   3.855   3.532   3.184 -1.0595  0.9466  1.3280
   87SOPE   H4S 8155   3.986   3.599   3.077 -0.5447 -1.2665 -1.6096
   87SOPE   C25 8156   3.828   3.738   3.140  0.1757  0.3521 -0.1277
   87SOPE   H5R 8157   3.759   3.772   3.059 -0.8541 -0.5275  0.3538
   87SOPE   H5S 8158   3.766   3.734   3.233  0.9423  2.5700  0.5475
   87SOPE   C26 8159   3.949   3.832   3.159 -0.0327 -0.3748  0.1816
   87SOPE   H6R 8160   4.019   3.824   3.073  0.5625 -0.2802  0.6515
   87SOPE   H6S 8161   3.930   3.941   3.163 -0.9454 -0.5497  0.6414
   87SOPE   C27 8162   4.041   3.802   3.276 -0.4894  0.0767 -0.8838
   87SOPE   H7R 8163   4.092   3.705   3.253 -0.2217 -0.5003  1.8145
   87SOPE   H7S 8164   4.109   3.889   3.287 -1.1724  0.3334  1.9788
   87SOPE   C28 8165   3.964   3.794   3.409 -0.5056  0.0195 -1.0593
   87SOPE   H8R 8166   3.915   3.893   3.416 -2.2591 -0.6845 -2.4558
   87SOPE   H8S 8167   3.865   3.742   3.411 -1.8437  2.3996  0.6872
   87SOPE   C29 8168   4.051   3.750   3.523  0.3601 -1.2175  0.3138
   87SOPE   H91 8169   4.098   3.651   3.511 -0.4948 -1.3729 -2.4778
   87SOPE  C210 8170   4.081   3.828   3.622 -0.2702 -0.2899 -0.6667
   87SOPE  H101 8171   4.161   3.800   3.693 -1.3718  0.1830  0.8234
   87SOPE  C211 8172   4.022   3.959   3.656  0.8424 -0.6135 -0.5429
   87SOPE  H11R 8173   4.024   4.033   3.574 -0.0891 -0.6929 -0.6426
   87SOPE  H11S 8174   4.083   4.000   3.740 -1.1552  1.4162 -0.0027
   87SOPE  C212 8175   3.878   3.950   3.703  0.1964 -0.0103 -0.8522
   87SOPE  H12R 8176   3.811   3.919   3.620  0.1891  0.8718 -1.1818
   87SOPE  H12S 8177   3.849   4.054   3.728  1.7946  1.3515 -4.0243
   87SOPE  C213 8178   3.869   3.855   3.826  0.7626  0.0713 -0.1112
   87SOPE  H13R 8179   3.955   3.865   3.896 -0.3802 -0.0379  1.3663
   87SOPE  H13S 8180   3.863   3.746   3.803  1.9651 -0.3887  1.5136
   87SOPE  C214 8181   3.748   3.895   3.913  0.0429  1.0274 -0.3827
   87SOPE  H14R 8182   3.658   3.908   3.849 -0.1002  0.1358 -0.3752
   87SOPE  H14S 8183   3.782   3.989   3.963  0.8834 -0.2964  1.6452
   87SOPE  C215 8184   3.705   3.798   4.029 -0.4163 -0.6038 -0.4058
   87SOPE  H15R 8185   3.793   3.744   4.069 -0.1327 -0.9098 -1.4073
   87SOPE  H15S 8186   3.637   3.727   3.977 -1.1368 -1.1597  1.2378
   87SOPE  C216 8187   3.629   3.855   4.141  0.5547  0.1789  0.1512
   87SOPE  H16R 8188   3.546   3.919   4.105  0.9691  0.6687  0.0548
   87SOPE  H16S 8189   3.704   3.925   4.185  0.2171  0.6246  0.0211
   87SOPE  C217 8190   3.573   3.753   4.245 -0.1560  0.2677 -0.6308
   87SOPE  H17R 8191   3.655   3.692   4.287  0.8953 -0.6951 -3.7671
   87SOPE  H17S 8192   3.514   3.676   4.190 -0.0184  0.5668 -1.2041
   87SOPE  C218 8193   3.495   3.819   4.353  0.0126  0.0280  0.0829
   87SOPE  H18R 8194   3.410   3.878   4.311 -1.1948 -0.2971  1.9906
   87SOPE  H18S 8195   3.556   3.893   4.409  0.7807 -1.2308  0.9519
   87SOPE  H18T 8196   3.449   3.742   4.418 -0.0259  1.4748  1.8328
   87SOPE   C33 8197   3.482   2.762   2.832 -0.4561 -0.2871  0.3839
   87SOPE   H3X 8198   3.452   2.757   2.725 -1.0340  0.3793  0.5099
   87SOPE   H3Y 8199   3.466   2.867   2.865  2.3478  0.7087 -1.0673
   87SOPE   C34 8200   3.416   2.658   2.918  0.1047 -0.2680 -0.0741
   87SOPE   H4X 8201   3.445   2.673   3.024 -1.4263 -0.4641  0.4003
   87SOPE   H4Y 8202   3.452   2.561   2.877  0.5976  0.5078 -1.5474
   87SOPE   C35 8203   3.258   2.668   2.914 -0.0344  0.0774  0.2677
   87SOPE   H5X 8204   3.213   2.588   2.976  2.2565 -1.2800  0.2615
   87SOPE   H5Y 8205   3.230   2.657   2.807  2.3499  0.4642 -0.4494
   87SOPE   C36 8206   3.207   2.801   2.982 -0.2980  0.5711 -0.2733
   87SOPE   H6X 8207   3.098   2.783   2.997 -0.3369  1.1259  0.1507
   87SOPE   H6Y 8208   3.241   2.887   2.921  1.0522  0.3030  0.0691
   87SOPE   C37 8209   3.266   2.823   3.119 -0.2553  0.2846  0.4152
   87SOPE   H7X 8210   3.370   2.858   3.103 -0.8172  0.9819 -2.3071
   87SOPE   H7Y 8211   3.278   2.731   3.179 -0.3272 -0.7639 -1.1188
   87SOPE   C38 8212   3.207   2.934   3.209  0.2765  0.1135 -0.5993
   87SOPE   H8X 8213   3.125   2.886   3.267 -0.3741  0.7431 -0.9898
   87SOPE   H8Y 8214   3.157   3.011   3.147 -1.1874 -0.0871  0.2718
   87SOPE   C39 8215   3.291   2.999   3.324  0.5371  0.0019 -0.2428
   87SOPE   H9X 8216   3.217   3.043   3.394 -0.4352 -0.1631 -1.1430
   87SOPE   H9Y 8217   3.361   3.079   3.292  1.3781 -0.8057 -0.4683
   87SOPE  C310 8218   3.378   2.911   3.414 -0.4967 -0.8454  0.6479
   87SOPE  H10X 8219   3.446   2.864   3.339  0.0468 -1.1144  1.3049
   87SOPE  H10Y 8220   3.314   2.834   3.463 -0.8334 -1.8797 -1.2949
   87SOPE  C311 8221   3.471   2.968   3.519  0.1006  0.6094  0.7463
   87SOPE  H11X 8222   3.555   3.015   3.465 -0.7613 -0.1748 -1.3951
   87SOPE  H11Y 8223   3.516   2.887   3.580  0.0092 -0.4575 -0.5594
   87SOPE  C312 8224   3.418   3.077   3.611  0.3895 -0.4637 -0.0085
   87SOPE  H12X 8225   3.390   3.162   3.545  0.2286  1.7812  2.7806
   87SOPE  H12Y 8226   3.497   3.112   3.681 -0.4713  1.1096  0.2376
   87SOPE  C313 8227   3.292   3.037   3.688  0.0505 -0.3513  0.2113
   87SOPE  H13X 8228   3.270   2.929   3.674  0.4091 -0.3130 -0.7567
   87SOPE  H13Y 8229   3.206   3.085   3.636 -0.4721 -0.3265  1.0830
   87SOPE  C314 8230   3.300   3.065   3.833 -0.4878 -0.2402  0.1574
   87SOPE  H14X 8231   3.302   3.174   3.856 -0.0960 -0.2786  0.3171
   87SOPE  H14Y 8232   3.393   3.017   3.870 -1.4914 -2.3455  0.1028
   87SOPE  C315 8233   3.183   3.008   3.903  1.5256 -0.4231 -0.1472
   87SOPE  H15X 8234   3.179   2.898   3.888  3.5354 -0.6484  0.5946
   87SOPE  H15Y 8235   3.084   3.042   3.868  1.0452 -1.8818 -0.2823
   87SOPE  C316 8236   3.188   3.023   4.054 -0.3111  0.2808 -0.1123
   87SOPE  H16X 8237   3.094   2.981   4.095  1.4486 -2.5774  1.3523
   87SOPE  H16Y 8238   3.199   3.129   4.085 -1.2516  0.7525 -1.3047
   87SOPE  C317 8239   3.295   2.939   4.125  0.7452 -0.4817  0.4125
   87SOPE  H17X 8240   3.395   2.973   4.089  0.5623 -2.1991 -1.9944
   87SOPE  H17Y 8241   3.281   2.832   4.100  0.3008 -0.1306 -0.9376
   87SOPE  C318 8242   3.277   2.929   4.275  0.0986 -0.6780  0.5049
   87SOPE  H18X 8243   3.333   2.838   4.306  0.8682 -0.6103 -0.6550
   87SOPE  H18Y 8244   3.169   2.923   4.304 -0.0952  1.8782  0.6235
   87SOPE  H18Z 8245   3.315   3.019   4.329 -0.3747  1.1785 -2.0946
   88SOPE     N 8246   4.792   1.463   2.232 -0.3550  0.2715 -0.1156
   88SOPE   HN1 8247   4.811   1.540   2.164 -0.5661 -0.5636 -1.1600
   88SOPE   HN2 8248   4.853   1.489   2.312  1.3643  1.5659 -1.7542
   88SOPE   HN3 8249   4.823   1.371   2.196  0.9020  0.2637  0.9201
   88SOPE   C12 8250   4.647   1.466   2.268 -0.6846 -0.4879  0.2652
   88SOPE  H12A 8251   4.621   1.574   2.269 -0.0289 -0.2859 -1.3727
   88SOPE  H12B 8252   4.628   1.439   2.374  0.8343 -1.0760  0.4171
   88SOPE   C11 8253   4.559   1.409   2.167  0.0183  0.8680  0.4970
   88SOPE  H11A 8254   4.567   1.450   2.064  0.9610 -1.7292 -0.5564
   88SOPE  H11B 8255   4.457   1.431   2.204 -0.4068  2.3021 -1.3804
   88SOPE     P 8256   4.547   1.165   2.066  0.1456  0.2695  0.2609
   88SOPE   O13 8257   4.664   1.078   2.040 -0.5237 -0.2711  0.4459
   88SOPE   O14 8258   4.495   1.237   1.948  0.0328  0.7220  0.0705
   88SOPE   O12 8259   4.595   1.269   2.165 -0.0165  0.6521  0.0684
   88SOPE   O11 8260   4.440   1.073   2.140  0.1265 -0.2153  0.2008
   88SOPE    C1 8261   4.345   1.117   2.246 -0.4351  0.3637  0.2842
   88SOPE    HA 8262   4.241   1.102   2.211  0.4187 -0.2968 -2.1371
   88SOPE    HB 8263   4.360   1.225   2.266 -0.8500  0.4878 -0.0619
   88SOPE    C2 8264   4.366   1.034   2.381  0.6535  0.0141 -0.1395
   88SOPE    HS 8265   4.286   1.063   2.452  2.3916  1.6478  1.2724
   88SOPE   O21 8266   4.494   1.056   2.440  0.2489  0.1422  0.4599
   88SOPE   C21 8267   4.520   1.173   2.480 -0.9109  0.2782  0.3685
   88SOPE   O22 8268   4.442   1.265   2.508  0.6008  0.3861  0.4006
   88SOPE   C22 8269   4.677   1.182   2.493 -0.4994 -0.1283 -0.5553
   88SOPE   H2R 8270   4.727   1.214   2.399  1.3977 -3.4044 -0.8197
   88SOPE   H2S 8271   4.702   1.075   2.506 -1.0411 -0.1323  0.5502
   88SOPE    C3 8272   4.342   0.885   2.359  0.1552  0.1201  0.0055
   88SOPE    HX 8273   4.436   0.837   2.323  0.9645 -0.5158  2.6943
   88SOPE    HY 8274   4.269   0.875   2.276  0.0226  0.8852  0.0219
   88SOPE   O31 8275   4.282   0.830   2.472  0.0891  0.2625  0.2734
   88SOPE   C31 8276   4.351   0.725   2.520  0.1288 -0.6727 -0.3579
   88SOPE   O32 8277   4.443   0.672   2.465 -0.7967 -0.3510 -0.0236
   88SOPE   C32 8278   4.296   0.687   2.652 -0.7015 -0.6987  0.2178
   88SOPE   H2X 8279   4.359   0.605   2.692  1.6461  1.0029  0.1935
   88SOPE   H2Y 8280   4.189   0.659   2.646 -1.5253  2.0146  0.8365
   88SOPE   C23 8281   4.709   1.275   2.616  0.1403  0.2044  0.1992
   88SOPE   H3R 8282   4.659   1.373   2.596 -1.5476 -0.6629 -0.0439
   88SOPE   H3S 8283   4.819   1.293   2.616  0.3890 -1.1962 -0.9305
   88SOPE   C24 8284   4.670   1.224   2.751 -0.4228  0.2239 -0.2290
   88SOPE   H4R 8285   4.564   1.192   2.736 -0.9746  1.9801 -0.3361
   88SOPE   H4S 8286   4.724   1.132   2.780 -2.0545 -0.1645  1.8129
   88SOPE   C25 8287   4.680   1.320   2.870  0.2108 -0.6313  0.7245
   88SOPE   H5R 8288   4.784   1.356   2.885  0.1952  0.5555 -1.5214
   88SOPE   H5S 8289   4.630   1.415   2.838  2.6190 -0.3095 -2.6968
   88SOPE   C26 8290   4.631   1.254   2.999  0.3952  1.0153  0.0644
   88SOPE   H6R 8291   4.536   1.204   2.972  0.6854  0.8524 -0.6853
   88SOPE   H6S 8292   4.701   1.170   3.022  1.4013  1.7306 -0.3457
   88SOPE   C27 8293   4.624   1.341   3.124 -0.0695  0.3376 -0.6996
   88SOPE   H7R 8294   4.723   1.369   3.165 -0.3222  0.0873  0.1129
   88SOPE   H7S 8295   4.571   1.436   3.102  0.3549  1.2389  1.7934
   88SOPE   C28 8296   4.556   1.273   3.240 -0.2046  0.3469  0.1287
   88SOPE   H8R 8297   4.603   1.172   3.243 -0.8322  0.0259 -0.4753
   88SOPE   H8S 8298   4.597   1.333   3.324 -0.5694  0.6643  0.0835
   88SOPE   C29 8299   4.408   1.269   3.230  0.4491 -0.3287  0.0349
   88SOPE   H91 8300   4.358   1.234   3.138 -2.1228 -1.2113  1.6439
   88SOPE  C210 8301   4.334   1.311   3.338  0.1764 -0.7159 -0.3642
   88SOPE  H101 8302   4.225   1.309   3.325  0.2234 -1.6663 -0.7075
   88SOPE  C211 8303   4.380   1.390   3.456 -0.3227  0.7571 -0.3068
   88SOPE  H11R 8304   4.466   1.456   3.430 -0.3008  0.9755  0.3029
   88SOPE  H11S 8305   4.414   1.316   3.532 -0.3098  1.6147  0.5439
   88SOPE  C212 8306   4.268   1.465   3.533  0.4761 -0.5138 -0.4271
   88SOPE  H12R 8307   4.194   1.388   3.562  0.9139 -0.7727  0.0009
   88SOPE  H12S 8308   4.211   1.538   3.472  0.1446 -0.5467 -0.1588
   88SOPE  C213 8309   4.318   1.539   3.662  0.0719 -0.1315  0.1582
   88SOPE  H13R 8310   4.383   1.617   3.619  0.3555 -1.4352 -1.8689
   88SOPE  H13S 8311   4.390   1.466   3.705  3.5302  1.5247 -2.3711
   88SOPE  C214 8312   4.202   1.584   3.760 -0.4186 -0.3159  0.3009
   88SOPE  H14R 8313   4.169   1.490   3.809 -0.4386  0.1824  1.2614
   88SOPE  H14S 8314   4.117   1.625   3.701  1.6545  1.2139 -1.8075
   88SOPE  C215 8315   4.245   1.685   3.868  0.4755  0.4244 -0.3543
   88SOPE  H15R 8316   4.324   1.644   3.934 -0.8460  0.2062  1.1862
   88SOPE  H15S 8317   4.163   1.689   3.943 -0.1501  1.6958 -1.0666
   88SOPE  C216 8318   4.293   1.819   3.826  0.0394  0.4837 -0.6258
   88SOPE  H16R 8319   4.369   1.814   3.746  2.0049 -0.3437  1.1770
   88SOPE  H16S 8320   4.362   1.868   3.899  1.2189 -0.2872 -1.1920
   88SOPE  C217 8321   4.182   1.925   3.798  0.1840  0.1746 -0.0912
   88SOPE  H17R 8322   4.110   1.935   3.882 -0.0879  1.4372 -0.4462
   88SOPE  H17S 8323   4.126   1.903   3.704 -0.2663 -0.5837  0.3484
   88SOPE  C218 8324   4.237   2.071   3.787  0.0506 -0.4529  0.5354
   88SOPE  H18R 8325   4.333   2.079   3.731  0.0807  0.2629  0.6800
   88SOPE  H18S 8326   4.249   2.124   3.883  3.0482  1.7075 -0.8981
   88SOPE  H18T 8327   4.159   2.129   3.733 -2.2598 -2.4871  1.4861
   88SOPE   C33 8328   4.315   0.815   2.745  0.6824  0.1385 -1.0136
   88SOPE   H3X 8329   4.270   0.911   2.713  1.4863  0.9985  0.3000
   88SOPE   H3Y 8330   4.423   0.840   2.759  0.8649 -1.3370  0.5359
   88SOPE   C34 8331   4.269   0.778   2.889 -0.3798  0.5893  0.1067
   88SOPE   H4X 8332   4.308   0.676   2.908 -1.3993  0.1464 -0.1208
   88SOPE   H4Y 8333   4.159   0.767   2.895 -0.2789 -1.2222 -0.6404
   88SOPE   C35 8334   4.321   0.872   2.997  0.6098  0.5518 -0.4479
   88SOPE   H5X 8335   4.265   0.967   2.992 -0.6819 -0.1699 -0.2819
   88SOPE   H5Y 8336   4.426   0.898   2.972  1.2710 -1.1713  0.3424
   88SOPE   C36 8337   4.317   0.818   3.136 -0.1971  0.2970 -0.3341
   88SOPE   H6X 8338   4.368   0.719   3.139  0.6473  0.7159 -0.7970
   88SOPE   H6Y 8339   4.210   0.795   3.159 -0.3005  0.6417 -0.4735
   88SOPE   C37 8340   4.369   0.913   3.241  0.3930 -0.1371 -0.3146
   88SOPE   H7X 8341   4.321   1.010   3.216 -0.7334 -1.0105 -1.7413
   88SOPE   H7Y 8342   4.479   0.924   3.237  0.3849  0.5935  1.1470
   88SOPE   C38 8343   4.353   0.869   3.386  0.5076 -0.4102 -0.1664
   88SOPE   H8X 8344   4.412   0.777   3.406  0.2158 -0.6898 -0.5735
   88SOPE   H8Y 8345   4.250   0.827   3.398 -1.5697  3.9878 -0.7916
   88SOPE   C39 8346   4.388   0.977   3.492 -0.1171 -0.0183  0.1934
   88SOPE   H9X 8347   4.323   1.065   3.474 -2.0821 -1.4997 -0.3487
   88SOPE   H9Y 8348   4.493   1.009   3.482 -0.7267  2.6627  1.6369
   88SOPE  C310 8349   4.357   0.922   3.629 -0.3310 -1.1096  0.6159
   88SOPE  H10X 8350   4.425   0.842   3.667  1.3765 -0.5008 -1.0321
   88SOPE  H10Y 8351   4.255   0.878   3.622 -2.8331  4.1580 -0.3335
   88SOPE  C311 8352   4.339   1.039   3.737 -0.6377  0.7513  0.1164
   88SOPE  H11X 8353   4.327   1.138   3.687 -0.5485  0.8775  0.3403
   88SOPE  H11Y 8354   4.434   1.042   3.795 -0.1388  1.2743 -0.7074
   88SOPE  C312 8355   4.213   1.016   3.824 -0.4065  0.5265 -0.0848
   88SOPE  H12X 8356   4.240   0.930   3.889  0.3269  1.3618  0.7499
   88SOPE  H12Y 8357   4.140   0.981   3.748  0.3116  2.5901 -1.8274
   88SOPE  C313 8358   4.152   1.139   3.892 -0.4980  0.2773 -0.0694
   88SOPE  H13X 8359   4.062   1.100   3.943  0.6392 -2.6377 -0.0928
   88SOPE  H13Y 8360   4.136   1.221   3.819  0.2068  1.6123  1.2104
   88SOPE  C314 8361   4.258   1.194   3.988  0.5321  0.1263  0.3233
   88SOPE  H14X 8362   4.352   1.222   3.935 -0.1327 -1.1822 -1.6251
   88SOPE  H14Y 8363   4.274   1.111   4.061 -0.0363  1.4351  1.9944
   88SOPE  C315 8364   4.206   1.306   4.068  0.1526 -0.3626 -0.0946
   88SOPE  H15X 8365   4.121   1.274   4.131  0.4258 -1.1687 -0.1247
   88SOPE  H15Y 8366   4.172   1.379   3.990  1.5693 -0.6004 -0.9885
   88SOPE  C316 8367   4.298   1.389   4.162 -0.3429 -0.2650  0.0133
   88SOPE  H16X 8368   4.373   1.429   4.090 -0.1286 -1.7757 -0.6420
   88SOPE  H16Y 8369   4.359   1.320   4.224 -0.1828  0.8134  1.0931
   88SOPE  C317 8370   4.220   1.496   4.245  0.3530 -0.5371  0.2404
   88SOPE  H17X 8371   4.159   1.435   4.316  2.1721 -3.7980 -0.7942
   88SOPE  H17Y 8372   4.149   1.548   4.177  0.1326 -0.4854  0.5045
   88SOPE  C318 8373   4.306   1.598   4.323 -0.2005 -0.5380  0.3981
   88SOPE  H18X 8374   4.350   1.675   4.256 -2.1096  1.0402  0.8548
   88SOPE  H18Y 8375   4.392   1.552   4.376 -0.3278 -1.1159  0.1160
   88SOPE  H18Z 8376   4.253   1.656   4.401 -0.7212 -0.0715 -0.2878
   89SAPC     N 8377   1.750   0.146   6.942  0.0665  0.0807  0.4044
   89SAPC   C12 8378   1.835   0.158   6.820 -0.1537  0.0116  0.3718
   89SAPC  H12A 8379   1.934   0.124   6.846 -1.1058 -1.4525  2.2884
   89SAPC  H12B 8380   1.856   0.259   6.788 -1.1718  0.1391  0.0709
   89SAPC   C13 8381   1.777   0.253   7.036 -0.7624 -0.1581  0.6443
   89SAPC  H13A 8382   1.701   0.253   7.112 -0.1607 -0.1220  1.2641
   89SAPC  H13B 8383   1.876   0.254   7.081 -0.2655 -2.6384 -0.2225
   89SAPC  H13C 8384   1.773   0.342   6.976  1.5661  0.0790  0.7196
   89SAPC   C14 8385   1.598   0.156   6.913 -0.2900 -0.1635 -0.5069
   89SAPC  H14A 8386   1.535   0.128   6.996  1.3362  3.1605  2.0707
   89SAPC  H14B 8387   1.575   0.255   6.877 -0.8214  0.7388  2.1554
   89SAPC  H14C 8388   1.584   0.078   6.839 -1.3425 -0.3202 -0.1457
   89SAPC   C15 8389   1.767   0.013   7.009  0.2391 -0.2497 -0.0333
   89SAPC  H15A 8390   1.695   0.010   7.089  0.1791  0.1333 -0.0670
   89SAPC  H15B 8391   1.735  -0.065   6.941 -1.6389 -1.2416  1.8816
   89SAPC  H15C 8392   1.868  -0.011   7.039  0.1780  0.5215  0.8317
   89SAPC   C11 8393   1.783   0.081   6.692 -0.1137 -0.0475 -0.1849
   89SAPC  H11A 8394   1.844   0.114   6.606 -1.2382  1.6801 -0.3850
   89SAPC  H11B 8395   1.678   0.111   6.669  0.4978  2.3825 -0.0613
   89SAPC     P 8396   1.930  -0.138   6.700  0.3279  0.0074 -0.1816
   89SAPC   O13 8397   2.034  -0.032   6.712  0.0790 -0.0889  0.5594
   89SAPC   O14 8398   1.939  -0.250   6.796 -0.1671 -0.9369  0.2297
   89SAPC   O12 8399   1.794  -0.063   6.711 -0.0451 -0.5192  0.2135
   89SAPC   O11 8400   1.923  -0.193   6.552  0.1077  0.3096 -0.0022
   89SAPC    C1 8401   1.823  -0.146   6.459 -0.6901  0.3175 -0.5242
   89SAPC    HA 8402   1.722  -0.187   6.480 -1.4019  1.6119 -1.2971
   89SAPC    HB 8403   1.812  -0.035   6.460  0.9335  0.5279 -1.5472
   89SAPC    C2 8404   1.864  -0.171   6.315 -0.4677 -0.6932 -0.1278
   89SAPC    HS 8405   1.861  -0.281   6.309  0.3189 -0.8739  1.9410
   89SAPC   O21 8406   1.997  -0.112   6.293  0.5668  0.3806 -0.1364
   89SAPC   C21 8407   2.095  -0.202   6.266 -0.4505 -0.3825  0.2480
   89SAPC   O22 8408   2.085  -0.321   6.239 -0.6881 -0.1953 -0.1079
   89SAPC   C22 8409   2.235  -0.137   6.276  0.4010 -0.0218  0.0120
   89SAPC   H2R 8410   2.218  -0.028   6.261 -3.5055 -0.3371  1.0516
   89SAPC   H2S 8411   2.271  -0.150   6.381 -1.3762  1.0476  0.7937
   89SAPC    C3 8412   1.763  -0.106   6.212 -0.6079 -0.2895 -0.3102
   89SAPC    HX 8413   1.785   0.002   6.201 -1.5948  0.2365  2.2269
   89SAPC    HY 8414   1.663  -0.126   6.255 -0.3145  1.1194  1.0994
   89SAPC   O31 8415   1.768  -0.180   6.092 -0.0565 -0.2837  0.0971
   89SAPC   C31 8416   1.864  -0.142   6.013  0.0252 -0.0151 -0.3992
   89SAPC   O32 8417   1.941  -0.047   6.025 -0.6360  0.0926 -0.0799
   89SAPC   C32 8418   1.863  -0.239   5.897  0.3517 -0.3841 -0.9892
   89SAPC   H2X 8419   1.759  -0.253   5.860  0.2263 -1.0945 -0.3985
   89SAPC   H2Y 8420   1.903  -0.330   5.946 -0.6071 -1.2223 -1.7012
   89SAPC   C23 8421   2.331  -0.214   6.186 -0.2976 -0.6559 -0.1153
   89SAPC   H3R 8422   2.330  -0.322   6.212 -2.4141 -0.5253  0.5498
   89SAPC   H3S 8423   2.422  -0.163   6.225 -1.7565  0.3195  2.2735
   89SAPC   C24 8424   2.315  -0.183   6.039 -0.3217 -0.3103  0.4184
   89SAPC   H4R 8425   2.313  -0.073   6.022  0.6961 -0.5114 -1.2379
   89SAPC   H4S 8426   2.226  -0.229   5.992  0.2845 -0.1182 -0.9746
   89SAPC   C25 8427   2.442  -0.231   5.967  0.1322  0.6176 -0.5691
   89SAPC   H5R 8428   2.492  -0.302   6.035 -1.6655 -0.4689 -0.3127
   89SAPC   C26 8429   2.487  -0.198   5.842 -0.3357  0.4344  0.6477
   89SAPC   H6R 8430   2.582  -0.237   5.803 -0.0035  1.5926  0.2325
   89SAPC   C27 8431   2.411  -0.107   5.744 -0.0344  0.2795 -0.2982
   89SAPC   H7R 8432   2.366  -0.024   5.804 -0.2041 -0.5181  0.7006
   89SAPC   H7S 8433   2.316  -0.155   5.712 -0.7935 -0.5512  2.8426
   89SAPC   C28 8434   2.500  -0.053   5.634 -0.4409 -0.1537 -0.1762
   89SAPC   H8R 8435   2.541   0.048   5.647  0.9937 -0.7671  0.1803
   89SAPC   C29 8436   2.531  -0.132   5.528  0.1049 -0.7718  0.1042
   89SAPC   H9R 8437   2.598  -0.086   5.454 -0.8300  0.5279  0.0176
   89SAPC  C210 8438   2.488  -0.274   5.496 -0.3544 -0.0938 -0.0004
   89SAPC  H10R 8439   2.408  -0.302   5.567  0.7472  0.6905  1.6274
   89SAPC  H10S 8440   2.573  -0.342   5.521 -0.7584 -1.5522 -2.3711
   89SAPC  C211 8441   2.445  -0.287   5.348 -0.6677  0.0576 -0.0351
   89SAPC  H11R 8442   2.386  -0.201   5.312  1.0716  1.4876  0.3409
   89SAPC  C212 8443   2.449  -0.405   5.282  0.3999 -0.4797  0.0516
   89SAPC  H12R 8444   2.422  -0.391   5.177 -2.5479  3.7208  1.1171
   89SAPC  C213 8445   2.524  -0.533   5.322  0.4211  0.1165 -0.5458
   89SAPC  H13R 8446   2.529  -0.542   5.433 -1.1008  2.9634 -0.1387
   89SAPC  H13S 8447   2.626  -0.515   5.284  0.0266  0.4492 -1.4797
   89SAPC  C214 8448   2.470  -0.663   5.263  0.3450 -0.2516 -0.3580
   89SAPC  H14R 8449   2.535  -0.698   5.181  0.1490 -0.6735 -0.3333
   89SAPC  C215 8450   2.360  -0.732   5.302 -0.4709 -0.0480 -0.1540
   89SAPC  H15R 8451   2.335  -0.825   5.249  2.0038 -1.6072  1.2324
   89SAPC  C216 8452   2.266  -0.695   5.413 -0.4238 -0.4607  0.4385
   89SAPC  H16R 8453   2.160  -0.696   5.378 -0.1283  0.2811 -0.5342
   89SAPC  H16S 8454   2.288  -0.592   5.448  2.7269 -0.6907 -0.5330
   89SAPC  C217 8455   2.295  -0.771   5.544  0.1876  1.0833  0.2307
   89SAPC  H17R 8456   2.404  -0.768   5.567  0.1556  1.6317  0.3162
   89SAPC  H17S 8457   2.263  -0.872   5.511 -1.0591  1.6368 -0.3329
   89SAPC  C218 8458   2.202  -0.739   5.664  0.3077 -0.0006  0.1096
   89SAPC  H18R 8459   2.191  -0.830   5.727  0.6974 -0.8816 -1.0727
   89SAPC  H18S 8460   2.099  -0.730   5.623  0.3054  2.6005  0.5060
   89SAPC  C219 8461   2.241  -0.614   5.745  0.2000 -0.4865 -0.6051
   89SAPC  H19R 8462   2.170  -0.607   5.830 -0.1828 -1.3118 -0.8505
   89SAPC  H19S 8463   2.233  -0.526   5.679 -1.3486 -0.4894 -0.4509
   89SAPC  C220 8464   2.375  -0.628   5.819  0.1237 -0.1855 -0.8557
   89SAPC  H20R 8465   2.398  -0.533   5.873 -2.3057 -0.4774  0.8422
   89SAPC  H20S 8466   2.454  -0.660   5.748  0.0105 -0.2010 -0.9752
   89SAPC  H20T 8467   2.367  -0.710   5.893 -0.0014  0.6128  0.0435
   89SAPC   C33 8468   1.954  -0.196   5.780 -0.2089 -0.6739  0.2725
   89SAPC   H3X 8469   2.033  -0.129   5.819 -1.3542  0.2666  1.0629
   89SAPC   H3Y 8470   1.897  -0.130   5.711 -1.4606 -0.4536  1.4828
   89SAPC   C34 8471   2.017  -0.319   5.717  0.4571 -0.2858  0.9929
   89SAPC   H4X 8472   1.951  -0.401   5.682  0.0424  1.0828 -1.7960
   89SAPC   H4Y 8473   2.093  -0.351   5.790  3.0389  0.2421 -1.2816
   89SAPC   C35 8474   2.091  -0.268   5.585 -0.0419  0.4364  0.1669
   89SAPC   H5X 8475   2.174  -0.337   5.562  0.2751  0.8503  0.0601
   89SAPC   H5Y 8476   2.146  -0.171   5.588 -2.1224  1.7190 -0.8352
   89SAPC   C36 8477   1.982  -0.245   5.477 -0.1335 -0.7443 -1.2182
   89SAPC   H6X 8478   1.909  -0.164   5.501  0.3572 -0.2085 -1.5027
   89SAPC   H6Y 8479   1.930  -0.343   5.472 -0.8816 -0.6018  1.8479
   89SAPC   C37 8480   2.045  -0.209   5.337 -0.3381 -0.4112  0.0359
   89SAPC   H7X 8481   2.110  -0.296   5.312  0.8471  0.0863  1.2760
   89SAPC   H7Y 8482   2.107  -0.117   5.344 -0.0268 -0.7237  1.5450
   89SAPC   C38 8483   1.947  -0.183   5.221 -0.2869  0.5880  0.1542
   89SAPC   H8X 8484   1.900  -0.083   5.233  0.4758  1.3427 -2.5286
   89SAPC   H8Y 8485   1.865  -0.258   5.230 -1.3335  1.8071  1.1567
   89SAPC   C39 8486   2.017  -0.188   5.088 -0.4346  0.1415  1.0307
   89SAPC   H9X 8487   2.098  -0.112   5.087 -0.5754  0.3306 -0.8841
   89SAPC   H9Y 8488   1.941  -0.173   5.009 -0.7838 -1.6838  0.9859
   89SAPC  C310 8489   2.106  -0.312   5.060  0.0448  0.3186  0.0797
   89SAPC  H10X 8490   2.197  -0.318   5.125  1.1201 -1.5300 -1.4834
   89SAPC  H10Y 8491   2.147  -0.298   4.958  1.9119  0.2543  0.7690
   89SAPC  C311 8492   2.024  -0.439   5.059 -0.0087  0.1045 -0.0054
   89SAPC  H11X 8493   1.939  -0.408   4.994 -0.2305 -2.4077 -1.0143
   89SAPC  H11Y 8494   1.991  -0.450   5.165 -1.5438 -1.3639 -0.5864
   89SAPC  C312 8495   2.089  -0.567   5.011  0.1610 -0.2440  0.3925
   89SAPC  H12X 8496   2.043  -0.659   5.051 -0.0293  1.0280  3.3903
   89SAPC  H12Y 8497   2.190  -0.568   5.057  1.2782 -2.0451 -1.8508
   89SAPC  C313 8498   2.086  -0.574   4.861 -0.1209 -0.1244  0.4385
   89SAPC  H13X 8499   2.150  -0.655   4.819  1.2655  2.2622 -2.4238
   89SAPC  H13Y 8500   2.149  -0.488   4.830 -1.5872  0.9700  0.4041
   89SAPC  C314 8501   1.952  -0.571   4.789 -1.0058 -0.4811  0.0346
   89SAPC  H14X 8502   1.922  -0.465   4.808  2.1513  0.0948  2.7431
   89SAPC  H14Y 8503   1.874  -0.640   4.828 -0.5312 -0.9758  0.1198
   89SAPC  C315 8504   1.963  -0.597   4.640 -0.3156  0.0131  0.4192
   89SAPC  H15X 8505   2.007  -0.699   4.638 -0.0506 -0.0154  3.2461
   89SAPC  H15Y 8506   2.030  -0.521   4.596  0.4031 -1.1294 -0.5330
   89SAPC  C316 8507   1.831  -0.591   4.552  0.2749  0.4236  0.2267
   89SAPC  H16X 8508   1.773  -0.498   4.566  1.1267  1.1775 -1.0949
   89SAPC  H16Y 8509   1.764  -0.671   4.590  0.7575  0.3541  0.9680
   89SAPC  C317 8510   1.870  -0.627   4.409 -0.0477 -0.0511  0.2114
   89SAPC  H17X 8511   1.946  -0.707   4.404 -0.5296 -0.5037  0.0616
   89SAPC  H17Y 8512   1.916  -0.537   4.362 -0.5637 -0.1105 -0.4291
   89SAPC  C318 8513   1.753  -0.681   4.326 -0.5239 -0.0439  0.5189
   89SAPC  H18X 8514   1.706  -0.767   4.379  0.5601 -0.9375  0.0840
   89SAPC  H18Y 8515   1.788  -0.716   4.226 -0.8299  1.2844 -0.0778
   89SAPC  H18Z 8516   1.673  -0.604   4.322 -0.6754 -0.2293 -0.2177
   90SAPC     N 8517   0.760   2.815   6.577  0.3944 -0.1474  0.0339
   90SAPC   C12 8518   0.636   2.766   6.658  0.1180 -0.5275  0.0972
   90SAPC  H12A 8519   0.666   2.734   6.757 -0.3820 -0.0704  0.4015
   90SAPC  H12B 8520   0.583   2.687   6.607 -0.0238 -0.6229  0.3881
   90SAPC   C13 8521   0.862   2.706   6.583  0.2860 -0.0483 -0.1698
   90SAPC  H13A 8522   0.930   2.720   6.666 -0.4301  2.0811  0.1121
   90SAPC  H13B 8523   0.820   2.607   6.595  2.5433 -1.1909 -0.9862
   90SAPC  H13C 8524   0.925   2.714   6.496  1.4029 -1.2181  0.4869
   90SAPC   C14 8525   0.726   2.834   6.431  0.2172  0.1729  0.0966
   90SAPC  H14A 8526   0.816   2.872   6.384  1.7472 -0.8480  2.0391
   90SAPC  H14B 8527   0.698   2.744   6.379  0.5894  0.5349 -0.7650
   90SAPC  H14C 8528   0.637   2.894   6.419 -0.8170 -1.5896 -1.5943
   90SAPC   C15 8529   0.833   2.936   6.631 -0.0119 -0.6217 -0.2024
   90SAPC  H15A 8530   0.912   2.965   6.564  0.0048  1.5926  0.6817
   90SAPC  H15B 8531   0.767   3.021   6.643 -1.7613 -1.8730 -0.4475
   90SAPC  H15C 8532   0.875   2.909   6.727  1.1558  1.6360 -0.0291
   90SAPC   C11 8533   0.522   2.871   6.667  0.1675 -0.0166  0.2881
   90SAPC  H11A 8534   0.498   2.908   6.565  0.4985 -1.2007 -0.2438
   90SAPC  H11B 8535   0.573   2.950   6.726 -2.0601  0.1351  2.1535
   90SAPC     P 8536   0.313   2.718   6.667 -0.1738 -0.1083 -0.2375
   90SAPC   O13 8537   0.378   2.594   6.623 -0.0699 -0.0530  0.1052
   90SAPC   O14 8538   0.195   2.696   6.752  0.1925 -0.4500  0.1705
   90SAPC   O12 8539   0.414   2.813   6.741  0.3389 -0.3832  0.0391
   90SAPC   O11 8540   0.276   2.791   6.532  0.2088 -0.0618  0.2434
   90SAPC    C1 8541   0.208   2.914   6.551  0.4505 -0.0539 -0.2877
   90SAPC    HA 8542   0.110   2.899   6.600  0.0701  2.7820  0.0269
   90SAPC    HB 8543   0.254   2.983   6.625 -0.4069 -0.7296  0.9128
   90SAPC    C2 8544   0.191   2.999   6.418 -0.5983 -0.8017 -0.4533
   90SAPC    HS 8545   0.098   3.057   6.437  0.8150  0.4157  3.8925
   90SAPC   O21 8546   0.188   2.912   6.304  0.0610  0.2025 -0.8144
   90SAPC   C21 8547   0.090   2.826   6.304  0.1846  0.3747 -0.5582
   90SAPC   O22 8548  -0.011   2.835   6.374  0.7239  0.3970 -0.3498
   90SAPC   C22 8549   0.115   2.744   6.172  0.3621  0.3405  0.0059
   90SAPC   H2R 8550   0.154   2.808   6.090  0.7676 -0.3669 -0.3705
   90SAPC   H2S 8551   0.181   2.658   6.200  0.6482  0.6829  0.3920
   90SAPC    C3 8552   0.297   3.106   6.402 -0.5949  0.2528  1.1306
   90SAPC    HX 8553   0.386   3.083   6.464  0.9980  2.5812 -0.1602
   90SAPC    HY 8554   0.258   3.204   6.436 -0.2050  0.6939  0.3275
   90SAPC   O31 8555   0.336   3.133   6.262  0.6479 -0.1930 -0.2556
   90SAPC   C31 8556   0.431   3.052   6.221 -0.2786 -0.3046  0.2912
   90SAPC   O32 8557   0.490   2.967   6.284 -0.1354  0.0230  0.2642
   90SAPC   C32 8558   0.470   3.079   6.073 -0.2342 -0.4598  0.2768
   90SAPC   H2X 8559   0.495   3.187   6.065 -3.0503  0.3605  1.2444
   90SAPC   H2Y 8560   0.377   3.050   6.019 -0.7442  0.0764  0.8406
   90SAPC   C23 8561  -0.014   2.668   6.120  0.1018  0.9298 -0.3390
   90SAPC   H3R 8562  -0.087   2.743   6.084  0.9466  1.3527 -1.2139
   90SAPC   H3S 8563  -0.044   2.602   6.205  1.7194  0.4753 -0.0834
   90SAPC   C24 8564   0.024   2.584   6.000  0.1602 -0.2538  0.7843
   90SAPC   H4R 8565   0.106   2.513   6.024  0.6943  0.3118  0.6778
   90SAPC   H4S 8566   0.083   2.636   5.921 -1.2448  1.5378  0.8403
   90SAPC   C25 8567  -0.095   2.503   5.940  0.0965 -0.0524 -0.0580
   90SAPC   H5R 8568  -0.156   2.455   6.018 -2.2293 -0.2956 -1.8951
   90SAPC   C26 8569  -0.145   2.511   5.817 -0.0833 -0.2571  0.1038
   90SAPC   H6R 8570  -0.225   2.440   5.792  0.8171 -1.6170  1.0159
   90SAPC   C27 8571  -0.095   2.579   5.695  0.7028  0.9844 -0.3988
   90SAPC   H7R 8572  -0.006   2.644   5.711  1.4458 -0.4335  1.6317
   90SAPC   H7S 8573  -0.181   2.643   5.665 -1.0230 -0.3201  1.5308
   90SAPC   C28 8574  -0.057   2.473   5.593 -0.7059 -0.4199  0.1275
   90SAPC   H8R 8575   0.025   2.413   5.636  0.3413  0.0214 -1.1866
   90SAPC   C29 8576  -0.107   2.442   5.473  0.2084 -0.2687  0.1983
   90SAPC   H9R 8577  -0.060   2.364   5.411  0.1611  0.3993 -0.6923
   90SAPC  C210 8578  -0.222   2.514   5.406  0.3134 -0.6810  0.3323
   90SAPC  H10R 8579  -0.285   2.572   5.477 -1.9787 -2.0006 -0.5027
   90SAPC  H10S 8580  -0.292   2.432   5.381  2.2797 -3.1876  2.4918
   90SAPC  C211 8581  -0.194   2.611   5.291  0.2367  1.4720  0.3858
   90SAPC  H11R 8582  -0.181   2.715   5.323 -0.8475  0.8398  3.1494
   90SAPC  C212 8583  -0.149   2.573   5.167  0.0821 -0.2357 -0.6377
   90SAPC  H12R 8584  -0.109   2.650   5.099 -1.1891  0.5925 -0.4722
   90SAPC  C213 8585  -0.148   2.426   5.121  0.1284  1.0535  0.0903
   90SAPC  H13R 8586  -0.249   2.400   5.082 -1.3229  2.5224  2.5937
   90SAPC  H13S 8587  -0.135   2.377   5.220  2.1871  0.4577 -0.4299
   90SAPC  C214 8588  -0.027   2.389   5.038  0.1245  0.2304 -1.2664
   90SAPC  H14R 8589   0.063   2.382   5.100  0.1357 -0.6592 -1.3788
   90SAPC  C215 8590  -0.017   2.384   4.905 -0.2926  0.3201  0.0860
   90SAPC  H15R 8591   0.077   2.352   4.859  1.7947  1.1583  3.3682
   90SAPC  C216 8592  -0.140   2.403   4.811 -0.1667 -0.4907  0.0291
   90SAPC  H16R 8593  -0.156   2.513   4.803  0.5607 -0.3993 -0.2535
   90SAPC  H16S 8594  -0.241   2.365   4.840 -1.6301  4.1797  1.9971
   90SAPC  C217 8595  -0.115   2.329   4.678  0.0327  0.0899  0.3402
   90SAPC  H17R 8596  -0.205   2.357   4.619  0.0137 -1.5871 -0.4804
   90SAPC  H17S 8597  -0.092   2.221   4.677  0.8883  0.2599 -1.5442
   90SAPC  C218 8598   0.006   2.388   4.602 -0.0024 -0.5632 -0.2444
   90SAPC  H18R 8599   0.097   2.335   4.638  0.8858 -0.5868 -2.4069
   90SAPC  H18S 8600   0.016   2.495   4.630  1.8064 -0.9895  0.9288
   90SAPC  C219 8601  -0.012   2.373   4.448 -0.5728 -0.2813 -0.4610
   90SAPC  H19R 8602  -0.119   2.393   4.427 -0.6137 -1.0570 -1.0087
   90SAPC  H19S 8603   0.017   2.272   4.413  2.9183  1.5180 -3.5750
   90SAPC  C220 8604   0.074   2.473   4.370 -0.0158  0.3053 -0.6701
   90SAPC  H20R 8605   0.176   2.451   4.407 -0.5409  0.4949  0.9804
   90SAPC  H20S 8606   0.040   2.577   4.389 -0.7939 -0.5118  3.5793
   90SAPC  H20T 8607   0.081   2.447   4.263 -1.5890 -3.6173 -0.0105
   90SAPC   C33 8608   0.596   2.994   6.030  0.6464  0.0218 -0.2617
   90SAPC   H3X 8609   0.588   2.888   6.063 -2.2427  0.4782  0.7126
   90SAPC   H3Y 8610   0.682   3.046   6.078  0.2660  0.4760 -0.0692
   90SAPC   C34 8611   0.630   2.983   5.877 -0.2337  0.6776  0.1746
   90SAPC   H4X 8612   0.642   3.087   5.838  1.8781 -0.0910 -1.4253
   90SAPC   H4Y 8613   0.549   2.925   5.828 -1.5757  1.0522  1.8683
   90SAPC   C35 8614   0.757   2.904   5.849 -0.3042  0.2694  0.1741
   90SAPC   H5X 8615   0.753   2.795   5.867 -1.8915  0.5133  1.4750
   90SAPC   H5Y 8616   0.824   2.941   5.930 -0.3885 -0.0927  0.4130
   90SAPC   C36 8617   0.821   2.941   5.715  0.3055  0.1917  1.1503
   90SAPC   H6X 8618   0.901   2.866   5.694  1.3529  1.2331  1.2884
   90SAPC   H6Y 8619   0.864   3.043   5.723 -1.2314  0.7880  2.3311
   90SAPC   C37 8620   0.719   2.937   5.601 -0.2764  0.4666 -0.0006
   90SAPC   H7X 8621   0.634   3.008   5.612  1.0408  2.0941  0.0942
   90SAPC   H7Y 8622   0.685   2.832   5.589 -0.7581  0.4110  1.6512
   90SAPC   C38 8623   0.778   2.976   5.469  0.2567 -1.0132  0.5455
   90SAPC   H8X 8624   0.830   2.892   5.419 -1.8581 -2.0630 -0.0140
   90SAPC   H8Y 8625   0.847   3.061   5.490 -0.6647  0.2761 -1.2861
   90SAPC   C39 8626   0.670   3.034   5.368  0.0586  0.2466 -0.3052
   90SAPC   H9X 8627   0.637   3.126   5.422 -0.6221 -1.5841  2.5874
   90SAPC   H9Y 8628   0.582   2.967   5.352  0.9462 -1.0198  0.0198
   90SAPC  C310 8629   0.735   3.064   5.238 -0.4426  0.2143  0.5337
   90SAPC  H10X 8630   0.787   2.970   5.207 -1.7591 -0.4903  0.4000
   90SAPC  H10Y 8631   0.822   3.133   5.240 -0.0060 -0.3245  0.5333
   90SAPC  C311 8632   0.637   3.121   5.128 -0.1970  0.6817 -0.8416
   90SAPC  H11X 8633   0.584   3.209   5.171  2.0103  0.6880  2.2131
   90SAPC  H11Y 8634   0.563   3.045   5.094 -0.1602 -0.2483  1.0096
   90SAPC  C312 8635   0.717   3.160   5.005  0.1499 -0.0276  0.2978
   90SAPC  H12X 8636   0.776   3.077   4.962  0.7579  0.8211 -0.5440
   90SAPC  H12Y 8637   0.804   3.225   5.028  2.3360 -1.6137 -2.7873
   90SAPC  C313 8638   0.627   3.217   4.890 -0.5462  0.4422  0.4268
   90SAPC  H13X 8639   0.556   3.295   4.926 -0.7222  1.2028 -1.4742
   90SAPC  H13Y 8640   0.568   3.135   4.845 -1.1831 -0.7626  3.2279
   90SAPC  C314 8641   0.724   3.277   4.784  0.4637 -0.0096  0.2664
   90SAPC  H14X 8642   0.777   3.197   4.729 -2.5938 -1.6558 -0.5409
   90SAPC  H14Y 8643   0.793   3.330   4.853  0.4461  1.2318 -0.6365
   90SAPC  C315 8644   0.657   3.384   4.699  0.2096 -0.0072  0.0147
   90SAPC  H15X 8645   0.734   3.425   4.631  0.6481  1.3915  1.3015
   90SAPC  H15Y 8646   0.615   3.465   4.763 -2.6815 -0.2471 -1.4272
   90SAPC  C316 8647   0.546   3.319   4.602  0.2495  0.7158  0.2064
   90SAPC  H16X 8648   0.477   3.396   4.561  1.7954  0.8130 -2.4296
   90SAPC  H16Y 8649   0.482   3.253   4.664 -0.6142  4.1284  3.3129
   90SAPC  C317 8650   0.603   3.240   4.484 -0.0858 -0.0037 -0.2571
   90SAPC  H17X 8651   0.539   3.152   4.462 -0.3951  0.0748  0.3000
   90SAPC  H17Y 8652   0.692   3.181   4.516 -0.8515 -0.7145  0.6368
   90SAPC  C318 8653   0.648   3.324   4.361  0.3021 -0.3307  0.8706
   90SAPC  H18X 8654   0.669   3.254   4.277  0.8324  0.4180  0.3760
   90SAPC  H18Y 8655   0.749   3.360   4.388  0.8724 -0.1170 -1.3491
   90SAPC  H18Z 8656   0.572   3.403   4.344  2.9749  1.6886 -3.0431
   91SAPC     N 8657   0.683   4.832   6.707 -0.7367  0.0629 -0.7767
   91SAPC   C12 8658   0.582   4.734   6.678  0.4621  0.8398 -0.2683
   91SAPC  H12A 8659   0.586   4.656   6.753  0.3537  0.5546 -0.5562
   91SAPC  H12B 8660   0.615   4.679   6.591  1.5903  1.0621  0.0009
   91SAPC   C13 8661   0.667   4.861   6.849  0.1329 -0.4527 -0.7820
   91SAPC  H13A 8662   0.566   4.889   6.879 -0.7256 -0.4596 -3.4161
   91SAPC  H13B 8663   0.700   4.788   6.922  0.3377  0.0255 -0.3894
   91SAPC  H13C 8664   0.728   4.945   6.881 -2.6281  0.0938  4.2116
   91SAPC   C14 8665   0.820   4.768   6.692 -1.0504  0.2180  0.3652
   91SAPC  H14A 8666   0.895   4.840   6.723 -0.3733 -0.1101 -0.4706
   91SAPC  H14B 8667   0.824   4.681   6.756  0.2068  0.1052  0.1615
   91SAPC  H14C 8668   0.844   4.738   6.592  0.0313 -0.7072  0.8791
   91SAPC   C15 8669   0.679   4.956   6.619  0.3951  0.5481  0.4659
   91SAPC  H15A 8670   0.748   5.028   6.659  3.3994 -0.6917 -2.0758
   91SAPC  H15B 8671   0.704   4.921   6.520 -0.7496  3.3085 -0.9203
   91SAPC  H15C 8672   0.578   4.995   6.621 -0.6757 -1.9545  3.3483
   91SAPC   C11 8673   0.447   4.795   6.655 -0.3119 -0.0011 -0.7133
   91SAPC  H11A 8674   0.419   4.880   6.719 -3.8543 -1.1342 -0.5100
   91SAPC  H11B 8675   0.374   4.712   6.671 -0.5409 -0.1885 -2.4617
   91SAPC     P 8676   0.337   4.914   6.444  0.0880 -0.8000 -0.0991
   91SAPC   O13 8677   0.307   5.025   6.529  0.3979  0.4362  0.1381
   91SAPC   O14 8678   0.365   4.944   6.305  0.4355 -0.4942 -0.1707
   91SAPC   O12 8679   0.454   4.829   6.515 -0.2220  0.3744  0.6662
   91SAPC   O11 8680   0.219   4.813   6.451  0.4345  0.2467 -0.8204
   91SAPC    C1 8681   0.163   4.753   6.332  0.4070 -0.4063  0.1015
   91SAPC    HA 8682   0.052   4.743   6.333  0.0501  2.4225 -1.7119
   91SAPC    HB 8683   0.185   4.810   6.239 -1.5860 -0.3935 -0.4103
   91SAPC    C2 8684   0.232   4.621   6.294  0.1130 -0.3940  0.0088
   91SAPC    HS 8685   0.340   4.626   6.272 -0.3691  0.2503 -2.5909
   91SAPC   O21 8686   0.159   4.561   6.181  0.1517  0.6542 -0.1566
   91SAPC   C21 8687   0.217   4.597   6.066  0.0506  0.0605 -0.2869
   91SAPC   O22 8688   0.289   4.697   6.049  0.0648 -0.3870 -0.0408
   91SAPC   C22 8689   0.181   4.499   5.953 -0.7189  0.0702 -0.0428
   91SAPC   H2R 8690   0.245   4.531   5.868 -1.3508 -0.4139 -0.7160
   91SAPC   H2S 8691   0.222   4.398   5.972 -0.5779 -0.1528 -1.4352
   91SAPC    C3 8692   0.216   4.524   6.411  1.1366 -0.0904  0.4871
   91SAPC    HX 8693   0.124   4.462   6.404  1.9078 -1.2420  0.2576
   91SAPC    HY 8694   0.213   4.578   6.508  0.4731 -2.2561  1.7533
   91SAPC   O31 8695   0.324   4.431   6.404  0.0486  0.7580  0.1189
   91SAPC   C31 8696   0.322   4.326   6.324 -0.2800 -0.6969  0.9955
   91SAPC   O32 8697   0.234   4.293   6.251  0.1153  0.6680 -0.2138
   91SAPC   C32 8698   0.467   4.272   6.313  0.3655  0.2270 -0.0576
   91SAPC   H2X 8699   0.449   4.167   6.282 -0.7613 -0.0474  1.3944
   91SAPC   H2Y 8700   0.512   4.277   6.415  1.2491  2.0271 -0.5058
   91SAPC   C23 8701   0.033   4.501   5.909  0.4358 -0.0611 -0.0782
   91SAPC   H3R 8702  -0.036   4.507   5.995 -2.3629  1.1457 -2.2331
   91SAPC   H3S 8703   0.007   4.403   5.864 -0.6644 -0.9144  2.2779
   91SAPC   C24 8704   0.011   4.617   5.809 -0.8140 -0.0392  0.7252
   91SAPC   H4R 8705   0.059   4.715   5.833  0.5591 -0.2311 -1.0862
   91SAPC   H4S 8706  -0.098   4.629   5.828 -0.7360  0.0606  1.1222
   91SAPC   C25 8707   0.041   4.584   5.660 -0.4268 -0.1834 -0.2254
   91SAPC   H5R 8708   0.144   4.555   5.634 -0.1215 -0.6750  1.4622
   91SAPC   C26 8709  -0.052   4.582   5.563  0.7035 -0.2846  0.5101
   91SAPC   H6R 8710  -0.028   4.558   5.458 -2.7250  0.0415 -0.4624
   91SAPC   C27 8711  -0.199   4.613   5.577  0.5367  0.1994 -0.7120
   91SAPC   H7R 8712  -0.224   4.606   5.685 -0.9725  3.5941 -0.7115
   91SAPC   H7S 8713  -0.259   4.538   5.522  1.2460 -0.8350 -0.1187
   91SAPC   C28 8714  -0.216   4.748   5.518 -0.2936  0.2534 -0.3972
   91SAPC   H8R 8715  -0.229   4.824   5.597 -3.3599 -0.2155 -0.3446
   91SAPC   C29 8716  -0.241   4.781   5.394  0.6983  0.7866 -0.1952
   91SAPC   H9R 8717  -0.269   4.887   5.376 -0.5473  0.2413 -1.7682
   91SAPC  C210 8718  -0.240   4.691   5.275  0.1093  0.9495 -0.2742
   91SAPC  H10R 8719  -0.307   4.719   5.191  0.1853  2.0459  0.0099
   91SAPC  H10S 8720  -0.265   4.589   5.312 -0.8395  1.1456 -0.3599
   91SAPC  C211 8721  -0.098   4.693   5.221  0.2040 -0.5161  0.4738
   91SAPC  H11R 8722  -0.020   4.686   5.299  3.1281  0.1446 -2.1887
   91SAPC  C212 8723  -0.064   4.713   5.093  0.8313  0.5256  0.2417
   91SAPC  H12R 8724   0.042   4.718   5.063  1.2071  0.5937  1.4900
   91SAPC  C213 8725  -0.160   4.730   4.976 -0.1313 -0.1368 -0.4177
   91SAPC  H13R 8726  -0.251   4.669   4.995 -0.9375  1.2153  0.2553
   91SAPC  H13S 8727  -0.108   4.685   4.889  1.0634 -0.6096  0.5039
   91SAPC  C214 8728  -0.191   4.877   4.965  0.0994  0.1809  0.0320
   91SAPC  H14R 8729  -0.263   4.918   5.037 -0.2196 -1.6349  0.7878
   91SAPC  C215 8730  -0.142   4.964   4.874 -0.9499 -0.4321 -0.0402
   91SAPC  H15R 8731  -0.184   5.066   4.880  2.0398  1.0354 -1.7980
   91SAPC  C216 8732  -0.052   4.924   4.759  0.4110 -0.1020 -0.9595
   91SAPC  H16R 8733  -0.082   4.988   4.674  1.6361  1.8011 -0.0129
   91SAPC  H16S 8734  -0.069   4.819   4.725 -0.1497 -1.2485  2.3988
   91SAPC  C217 8735   0.097   4.944   4.789  0.0178 -0.0693 -0.0879
   91SAPC  H17R 8736   0.127   4.863   4.859  1.1633  0.2761 -0.1516
   91SAPC  H17S 8737   0.111   5.038   4.845 -1.7267 -0.8198  1.7087
   91SAPC  C218 8738   0.196   4.954   4.666  0.3439  0.2061 -0.7214
   91SAPC  H18R 8739   0.181   5.056   4.625 -0.9072  0.0061 -0.8183
   91SAPC  H18S 8740   0.146   4.898   4.584  0.8185  1.8489 -2.1917
   91SAPC  C219 8741   0.339   4.921   4.692 -0.8338 -0.1831  0.5634
   91SAPC  H19R 8742   0.379   4.988   4.771  2.5083 -0.3331 -0.8397
   91SAPC  H19S 8743   0.395   4.929   4.596  0.1837 -2.0994  0.9643
   91SAPC  C220 8744   0.358   4.782   4.736  0.1885 -0.3130  0.5815
   91SAPC  H20R 8745   0.460   4.767   4.778  0.6861 -0.2104 -0.5582
   91SAPC  H20S 8746   0.341   4.710   4.654  0.1931 -0.3731  0.6329
   91SAPC  H20T 8747   0.284   4.752   4.813 -0.6204 -2.6451 -1.0099
   91SAPC   C33 8748   0.560   4.340   6.210  0.1180  0.1768 -0.2420
   91SAPC   H3X 8749   0.664   4.329   6.247 -0.7249  1.4038  2.7986
   91SAPC   H3Y 8750   0.539   4.449   6.212 -1.5692 -0.1277  0.5834
   91SAPC   C34 8751   0.530   4.296   6.065  0.0748  0.2129  0.4764
   91SAPC   H4X 8752   0.429   4.321   6.028  0.7588  0.7431 -1.1329
   91SAPC   H4Y 8753   0.542   4.186   6.055  2.4067  0.3641  0.9195
   91SAPC   C35 8754   0.616   4.364   5.955 -0.4677 -0.0206 -0.2479
   91SAPC   H5X 8755   0.723   4.335   5.964  0.2928  2.8955  1.5150
   91SAPC   H5Y 8756   0.600   4.474   5.952  0.7360  0.1650 -0.4253
   91SAPC   C36 8757   0.566   4.329   5.815 -0.5077 -0.3613  0.0852
   91SAPC   H6X 8758   0.599   4.406   5.742 -0.0298 -0.0855  0.5809
   91SAPC   H6Y 8759   0.456   4.322   5.801 -0.3519 -1.6976 -0.5747
   91SAPC   C37 8760   0.623   4.191   5.765  0.1933  0.0387  0.3092
   91SAPC   H7X 8761   0.587   4.113   5.836 -0.9020  0.0635 -0.1936
   91SAPC   H7Y 8762   0.733   4.197   5.778  0.1621  2.7128 -0.1690
   91SAPC   C38 8763   0.591   4.153   5.617  0.0372  0.0656  0.7128
   91SAPC   H8X 8764   0.480   4.148   5.604  0.2111 -1.5236 -0.5642
   91SAPC   H8Y 8765   0.637   4.054   5.595 -0.6013  0.2953 -2.0786
   91SAPC   C39 8766   0.645   4.245   5.505 -0.3077 -0.1831 -0.0628
   91SAPC   H9X 8767   0.756   4.242   5.508 -0.2040  0.3888 -2.0920
   91SAPC   H9Y 8768   0.627   4.354   5.523 -1.4506 -0.1903 -0.9840
   91SAPC  C310 8769   0.598   4.197   5.372  0.2232  0.4305 -0.0888
   91SAPC  H10X 8770   0.489   4.183   5.383  0.0084  0.6379 -1.7429
   91SAPC  H10Y 8771   0.648   4.102   5.343  0.2604 -0.1449  1.7496
   91SAPC  C311 8772   0.626   4.312   5.269  0.3459  0.5997 -0.2501
   91SAPC  H11X 8773   0.730   4.347   5.284  0.3492 -0.2646  2.3273
   91SAPC  H11Y 8774   0.560   4.399   5.290  0.9864  0.5868  2.0701
   91SAPC  C312 8775   0.608   4.251   5.122 -0.1982 -0.0892 -0.4401
   91SAPC  H12X 8776   0.521   4.183   5.116 -0.8674  0.6120  0.8302
   91SAPC  H12Y 8777   0.703   4.194   5.107  0.5943  1.3761 -1.2127
   91SAPC  C313 8778   0.604   4.353   5.010 -0.7749  0.5996 -0.8867
   91SAPC  H13X 8779   0.693   4.418   5.019 -0.6786  0.2009  2.5136
   91SAPC  H13Y 8780   0.507   4.407   5.013 -0.5715  0.9536 -0.6274
   91SAPC  C314 8781   0.605   4.284   4.871 -0.0910  0.1636  0.4789
   91SAPC  H14X 8782   0.521   4.212   4.861  1.4905 -1.4333 -3.1440
   91SAPC  H14Y 8783   0.685   4.210   4.851 -0.5843 -0.5110  0.9685
   91SAPC  C315 8784   0.590   4.395   4.761  0.3702 -0.5210 -0.1569
   91SAPC  H15X 8785   0.511   4.471   4.780  1.1401  0.2049  0.2218
   91SAPC  H15Y 8786   0.558   4.342   4.668 -0.4285  0.6652 -0.5748
   91SAPC  C316 8787   0.727   4.463   4.734 -0.6650 -0.7247  0.0194
   91SAPC  H16X 8788   0.794   4.387   4.688  0.0622 -0.2789  0.3283
   91SAPC  H16Y 8789   0.754   4.494   4.838 -0.9426 -0.8481  0.1301
   91SAPC  C317 8790   0.717   4.586   4.649 -0.2847 -0.3782  0.3308
   91SAPC  H17X 8791   0.814   4.641   4.651 -0.4389 -0.0689 -0.5527
   91SAPC  H17Y 8792   0.649   4.664   4.691  1.1955  0.8734  0.5137
   91SAPC  C318 8793   0.662   4.553   4.517  0.0954 -0.3101  0.4560
   91SAPC  H18X 8794   0.653   4.639   4.448 -1.3185 -1.0465 -0.3371
   91SAPC  H18Y 8795   0.564   4.503   4.532 -0.9128  1.4912  0.1496
   91SAPC  H18Z 8796   0.740   4.485   4.476  1.3506  1.3040  0.0944
   92SAPC     N 8797   3.627   1.072   7.148  0.2374  0.2977  0.4514
   92SAPC   C12 8798   3.728   1.134   7.045  0.7158 -0.2548 -0.2518
   92SAPC  H12A 8799   3.675   1.160   6.955  1.5097  1.9160 -0.1359
   92SAPC  H12B 8800   3.815   1.076   7.017  0.9525  0.2310 -0.5385
   92SAPC   C13 8801   3.704   1.050   7.273 -0.2458 -0.3373  0.5440
   92SAPC  H13A 8802   3.736   1.144   7.316  2.2500 -1.3478  1.1036
   92SAPC  H13B 8803   3.643   0.996   7.344  0.6008  1.5033  2.8053
   92SAPC  H13C 8804   3.790   0.989   7.251 -0.3666 -0.3344  0.0380
   92SAPC   C14 8805   3.506   1.155   7.165  0.0508 -0.3604 -0.8635
   92SAPC  H14A 8806   3.533   1.249   7.211 -3.0321  0.2781 -0.1410
   92SAPC  H14B 8807   3.458   1.167   7.068  1.1361 -1.0289 -1.5005
   92SAPC  H14C 8808   3.438   1.108   7.235 -0.5722  0.6235 -0.7874
   92SAPC   C15 8809   3.579   0.940   7.097  0.3351 -0.3101  0.1399
   92SAPC  H15A 8810   3.504   0.892   7.158  0.8363 -2.0454 -0.5661
   92SAPC  H15B 8811   3.528   0.950   7.002 -0.0478 -2.7201  0.0302
   92SAPC  H15C 8812   3.664   0.877   7.077  0.4415 -0.9318  2.2768
   92SAPC   C11 8813   3.786   1.267   7.086  0.0510  0.0470 -0.1570
   92SAPC  H11A 8814   3.877   1.295   7.029  1.9755  1.5950  3.3671
   92SAPC  H11B 8815   3.814   1.271   7.193  1.7700  0.1297 -0.5787
   92SAPC     P 8816   3.662   1.435   6.930  0.3084 -0.0571  0.0616
   92SAPC   O13 8817   3.527   1.501   6.913  0.8577  0.1220  0.1126
   92SAPC   O14 8818   3.777   1.526   6.904 -0.0506 -0.5603 -0.3387
   92SAPC   O12 8819   3.683   1.372   7.072 -0.5972  0.2574  0.0947
   92SAPC   O11 8820   3.675   1.315   6.828  0.4077  0.4699 -0.1327
   92SAPC    C1 8821   3.781   1.285   6.747 -1.1532  0.5209  0.2304
   92SAPC    HA 8822   3.875   1.296   6.805  0.0118  0.0569 -1.4916
   92SAPC    HB 8823   3.778   1.180   6.713 -1.2205 -0.6820  3.5718
   92SAPC    C2 8824   3.774   1.366   6.614  0.4776  0.4888 -0.1516
   92SAPC    HS 8825   3.772   1.471   6.652  1.3520  0.6280 -0.4645
   92SAPC   O21 8826   3.649   1.317   6.553  0.2760  0.9067  0.1378
   92SAPC   C21 8827   3.575   1.411   6.500 -0.4142  0.4079 -0.0912
   92SAPC   O22 8828   3.584   1.527   6.522 -0.0149 -0.2055 -0.0658
   92SAPC   C22 8829   3.477   1.341   6.404 -0.4680 -0.5863  0.6363
   92SAPC   H2R 8830   3.394   1.289   6.458 -0.1352  0.2971  2.0420
   92SAPC   H2S 8831   3.444   1.417   6.330  2.8075 -0.5684 -1.0058
   92SAPC    C3 8832   3.902   1.342   6.531  0.6537  0.6832 -0.1798
   92SAPC    HX 8833   3.911   1.233   6.511  0.9023  0.1552  2.4351
   92SAPC    HY 8834   3.990   1.376   6.589  0.3145  0.3042  0.5698
   92SAPC   O31 8835   3.877   1.414   6.406  0.1131 -0.5075  0.0467
   92SAPC   C31 8836   3.969   1.417   6.313  0.6487  0.3080  0.7860
   92SAPC   O32 8837   4.073   1.354   6.318 -0.0113 -0.0777 -0.2232
   92SAPC   C32 8838   3.914   1.507   6.195  0.8305 -0.5801 -0.1084
   92SAPC   H2X 8839   3.998   1.574   6.165  0.4041 -0.0439 -0.1204
   92SAPC   H2Y 8840   3.839   1.582   6.227  1.5442  0.9786 -1.8959
   92SAPC   C23 8841   3.533   1.237   6.309 -0.7160  0.3934 -0.0957
   92SAPC   H3R 8842   3.613   1.178   6.357 -1.5086  0.1304  0.9297
   92SAPC   H3S 8843   3.574   1.298   6.225  0.5965  2.0708  1.6983
   92SAPC   C24 8844   3.433   1.140   6.260  0.2893 -0.0617  0.1103
   92SAPC   H4R 8845   3.392   1.079   6.343  0.9708 -0.2371  0.3273
   92SAPC   H4S 8846   3.476   1.059   6.197 -0.2253  0.0816 -0.4298
   92SAPC   C25 8847   3.313   1.194   6.190 -0.0587  0.6162 -0.4260
   92SAPC   H5R 8848   3.233   1.240   6.248 -1.6295 -0.0188 -1.9925
   92SAPC   C26 8849   3.300   1.229   6.058  0.4586  0.0544 -0.4356
   92SAPC   H6R 8850   3.214   1.293   6.035 -0.4369 -0.9719 -0.0148
   92SAPC   C27 8851   3.406   1.206   5.952 -0.6911  0.1401  0.4163
   92SAPC   H7R 8852   3.507   1.232   5.993  1.2004 -1.2856 -2.9748
   92SAPC   H7S 8853   3.385   1.276   5.869 -0.9242  0.1111  0.4512
   92SAPC   C28 8854   3.400   1.068   5.895 -0.0523 -0.0576  0.2086
   92SAPC   H8R 8855   3.316   1.011   5.935 -0.1448 -1.1533 -1.4545
   92SAPC   C29 8856   3.468   1.024   5.786  1.0018 -0.4958  0.6437
   92SAPC   H9R 8857   3.449   0.921   5.751  1.5738 -0.1208 -0.8549
   92SAPC  C210 8858   3.570   1.109   5.710 -0.2963 -0.1669 -0.1624
   92SAPC  H10R 8859   3.650   1.049   5.662 -1.8924  0.0462 -3.3321
   92SAPC  H10S 8860   3.621   1.185   5.774 -1.5638  2.0530 -1.6347
   92SAPC  C211 8861   3.503   1.179   5.598  1.1014  0.4174 -0.2393
   92SAPC  H11R 8862   3.487   1.285   5.624  0.8114  0.6341 -1.2696
   92SAPC  C212 8863   3.479   1.136   5.478 -0.1469 -0.1895  0.2329
   92SAPC  H12R 8864   3.451   1.216   5.409  0.6107  0.4892  0.7042
   92SAPC  C213 8865   3.516   1.001   5.414  0.2748 -0.2252 -0.0011
   92SAPC  H13R 8866   3.515   0.928   5.499 -0.0235 -1.2330 -0.8462
   92SAPC  H13S 8867   3.622   1.009   5.381 -0.4297  0.2965 -2.3233
   92SAPC  C214 8868   3.435   0.957   5.295  0.0032 -0.4925  0.0161
   92SAPC  H14R 8869   3.326   0.940   5.297 -0.0228 -0.2482  2.2163
   92SAPC  C215 8870   3.485   0.952   5.168 -0.2623 -0.2346 -0.4636
   92SAPC  H15R 8871   3.416   0.926   5.086 -0.0517 -0.7761 -0.4707
   92SAPC  C216 8872   3.623   0.982   5.115 -0.7248 -0.8082 -0.1546
   92SAPC  H16R 8873   3.700   0.963   5.192 -0.1162  0.5140 -0.4082
   92SAPC  H16S 8874   3.634   1.088   5.082 -0.7909 -0.0081  2.2505
   92SAPC  C217 8875   3.638   0.900   4.982  0.8579 -0.2161 -0.7440
   92SAPC  H17R 8876   3.562   0.939   4.911 -1.6235 -2.9100  0.2685
   92SAPC  H17S 8877   3.607   0.795   4.997 -2.0438  0.5006 -1.1645
   92SAPC  C218 8878   3.783   0.909   4.925  0.8887 -0.4174 -0.4701
   92SAPC  H18R 8879   3.847   0.845   4.990 -0.1181 -0.7974  0.1687
   92SAPC  H18S 8880   3.808   1.017   4.933 -1.0276 -0.0112  0.4925
   92SAPC  C219 8881   3.797   0.869   4.781 -0.0484 -0.5784 -0.8943
   92SAPC  H19R 8882   3.765   0.947   4.709  1.9514  0.7518 -0.4352
   92SAPC  H19S 8883   3.750   0.771   4.759 -1.5152 -0.5459  1.6427
   92SAPC  C220 8884   3.946   0.849   4.754  0.4539  0.0471  0.0023
   92SAPC  H20R 8885   3.971   0.790   4.663  0.5584 -1.8312  1.1796
   92SAPC  H20S 8886   3.998   0.784   4.829 -0.9426 -1.8568 -0.5976
   92SAPC  H20T 8887   3.996   0.948   4.747  0.2346  0.0663 -1.4279
   92SAPC   C33 8888   3.862   1.429   6.068 -0.6748 -0.1938  0.2448
   92SAPC   H3X 8889   3.758   1.397   6.087 -0.3319 -0.7622  1.2583
   92SAPC   H3Y 8890   3.930   1.343   6.048  2.0413  1.8543  0.0480
   92SAPC   C34 8891   3.866   1.515   5.940  0.4413 -0.2351 -0.8219
   92SAPC   H4X 8892   3.971   1.524   5.906  0.8066 -3.8004 -1.0282
   92SAPC   H4Y 8893   3.822   1.615   5.961  0.0478 -0.6531  0.4980
   92SAPC   C35 8894   3.783   1.456   5.822 -0.3472  0.7800  0.4191
   92SAPC   H5X 8895   3.674   1.452   5.844 -1.3417 -0.6131 -3.7298
   92SAPC   H5Y 8896   3.828   1.355   5.809  0.5394  1.0907  1.0268
   92SAPC   C36 8897   3.803   1.533   5.689  0.2835  0.1548 -0.1827
   92SAPC   H6X 8898   3.912   1.555   5.693  0.4258 -0.7114  2.3409
   92SAPC   H6Y 8899   3.761   1.636   5.690  1.4737  0.7137  2.3814
   92SAPC   C37 8900   3.763   1.460   5.568 -0.0687 -0.3789 -0.3314
   92SAPC   H7X 8901   3.652   1.454   5.573 -0.1611 -1.1453 -2.3621
   92SAPC   H7Y 8902   3.800   1.356   5.562  0.2816 -0.2108 -1.2288
   92SAPC   C38 8903   3.799   1.534   5.443 -0.0114 -0.5319  0.4739
   92SAPC   H8X 8904   3.906   1.560   5.429 -0.0936  0.2762  1.2494
   92SAPC   H8Y 8905   3.757   1.637   5.444 -1.2595 -0.9865 -1.0796
   92SAPC   C39 8906   3.749   1.468   5.311 -0.3331  0.1732  0.3212
   92SAPC   H9X 8907   3.763   1.358   5.305 -1.7048  0.0627 -1.7967
   92SAPC   H9Y 8908   3.821   1.508   5.236 -1.8254  1.1852 -0.6208
   92SAPC  C310 8909   3.613   1.514   5.258  0.3307  0.1381 -0.4053
   92SAPC  H10X 8910   3.611   1.625   5.264  0.1026  0.0536  4.2620
   92SAPC  H10Y 8911   3.539   1.474   5.330  1.0220 -1.0693 -0.3353
   92SAPC  C311 8912   3.565   1.471   5.116 -0.4217  0.3300 -1.0343
   92SAPC  H11X 8913   3.568   1.360   5.109 -1.5752  0.2269 -0.2381
   92SAPC  H11Y 8914   3.621   1.513   5.029 -1.2474 -0.3555 -1.9247
   92SAPC  C312 8915   3.416   1.519   5.092 -0.2183 -0.0927 -0.1576
   92SAPC  H12X 8916   3.407   1.627   5.112  2.4541  0.0410  0.6710
   92SAPC  H12Y 8917   3.347   1.463   5.160 -0.0618  0.2587  0.2936
   92SAPC  C313 8918   3.365   1.510   4.949 -0.7085  1.0119  0.9658
   92SAPC  H13X 8919   3.256   1.525   4.931 -0.7427 -0.3400 -0.1190
   92SAPC  H13Y 8920   3.391   1.412   4.904  0.7272  1.5032  0.6790
   92SAPC  C314 8921   3.437   1.614   4.855  0.4695  0.2467 -0.1929
   92SAPC  H14X 8922   3.546   1.594   4.861  0.3822  0.1714  1.9897
   92SAPC  H14Y 8923   3.433   1.715   4.902  2.2733  1.1917 -1.9271
   92SAPC  C315 8924   3.378   1.620   4.716  0.5087  1.0415  0.2979
   92SAPC  H15X 8925   3.268   1.632   4.705  0.8390  1.9116 -3.0530
   92SAPC  H15Y 8926   3.387   1.524   4.660 -2.8895  2.0957 -2.4371
   92SAPC  C316 8927   3.446   1.734   4.632 -0.3235  0.2652  0.4034
   92SAPC  H16X 8928   3.517   1.691   4.557 -2.0614 -1.1225 -0.5318
   92SAPC  H16Y 8929   3.510   1.796   4.699 -0.1035 -1.0122  1.4113
   92SAPC  C317 8930   3.350   1.828   4.554  0.1024 -0.4309 -0.7694
   92SAPC  H17X 8931   3.419   1.913   4.534 -0.1060 -0.2935 -0.9120
   92SAPC  H17Y 8932   3.281   1.886   4.620  0.0474  2.5822 -3.2645
   92SAPC  C318 8933   3.287   1.774   4.427 -0.4869  0.4459  0.3046
   92SAPC  H18X 8934   3.226   1.681   4.439  0.2535  0.1449  1.9347
   92SAPC  H18Y 8935   3.364   1.747   4.351 -0.6929 -1.6132  0.7600
   92SAPC  H18Z 8936   3.214   1.844   4.381 -1.2879 -0.1410  0.6499
   93SAPC     N 8937   5.550   4.581   6.752  0.0649  0.5282  0.7175
   93SAPC   C12 8938   5.692   4.594   6.702  0.8160  0.1964  0.0792
   93SAPC  H12A 8939   5.715   4.510   6.639  0.1931  0.7781 -0.9587
   93SAPC  H12B 8940   5.765   4.600   6.782  1.3216  0.4942 -0.3980
   93SAPC   C13 8941   5.443   4.599   6.650 -0.0251  0.2693  0.0955
   93SAPC  H13A 8942   5.344   4.579   6.689  0.0717 -1.8779 -0.6086
   93SAPC  H13B 8943   5.438   4.699   6.612 -0.0950  0.4668  0.6133
   93SAPC  H13C 8944   5.451   4.530   6.567 -0.2610  0.7252 -0.3109
   93SAPC   C14 8945   5.536   4.443   6.810  0.0367  0.3894  0.2800
   93SAPC  H14A 8946   5.533   4.373   6.728  0.5352  0.3484  0.2955
   93SAPC  H14B 8947   5.620   4.429   6.876  1.1384  1.4271 -0.8280
   93SAPC  H14C 8948   5.441   4.446   6.860  0.5059  0.3581  1.1910
   93SAPC   C15 8949   5.531   4.679   6.868  1.1275  0.3105  0.4743
   93SAPC  H15A 8950   5.437   4.647   6.911  1.3999 -2.2758 -0.6339
   93SAPC  H15B 8951   5.611   4.666   6.938  0.9785 -0.8882  0.4446
   93SAPC  H15C 8952   5.531   4.776   6.821  2.8062 -0.2997 -0.8924
   93SAPC   C11 8953   5.719   4.716   6.619  0.1330 -0.3851 -0.0316
   93SAPC  H11A 8954   5.655   4.716   6.529  0.2739 -1.0825 -0.1389
   93SAPC  H11B 8955   5.822   4.725   6.577  0.0440  1.0052 -0.0052
   93SAPC     P 8956   5.794   4.918   6.776  0.2937 -0.1617  0.3930
   93SAPC   O13 8957   5.723   5.040   6.821  0.0172 -0.6809 -0.1572
   93SAPC   O14 8958   5.849   4.841   6.887 -0.3556  0.0869 -0.4501
   93SAPC   O12 8959   5.693   4.838   6.689  0.1700 -0.5880  0.4013
   93SAPC   O11 8960   5.894   4.954   6.664  0.8946  0.9708  0.3594
   93SAPC    C1 8961   5.922   5.093   6.625  0.6866  0.5900  0.1487
   93SAPC    HA 8962   5.911   5.163   6.711 -0.6767 -1.5195  1.7915
   93SAPC    HB 8963   6.027   5.107   6.591  0.6298  1.3971  0.2753
   93SAPC    C2 8964   5.829   5.142   6.505  0.8110 -0.0192 -0.7506
   93SAPC    HS 8965   5.725   5.138   6.544  1.6268  1.4382  1.7681
   93SAPC   O21 8966   5.841   5.043   6.404  0.4707  0.1785 -0.0860
   93SAPC   C21 8967   5.738   5.030   6.316 -0.2375  0.0146  0.2447
   93SAPC   O22 8968   5.633   5.095   6.321 -0.6178 -0.9166 -0.0453
   93SAPC   C22 8969   5.758   4.902   6.230 -0.5736 -0.1544  0.5290
   93SAPC   H2R 8970   5.867   4.878   6.235 -0.7436 -1.2724 -0.6297
   93SAPC   H2S 8971   5.710   4.819   6.286 -1.4859 -0.6662 -0.9826
   93SAPC    C3 8972   5.854   5.289   6.456  0.0098  0.0227  0.2667
   93SAPC    HX 8973   5.863   5.349   6.549 -0.1772  1.4113 -0.5843
   93SAPC    HY 8974   5.769   5.318   6.391 -1.1602 -0.6809  1.4300
   93SAPC   O31 8975   5.982   5.299   6.382 -0.0920  0.1843 -0.1021
   93SAPC   C31 8976   5.972   5.348   6.258 -0.2955  0.6955  0.4315
   93SAPC   O32 8977   5.870   5.384   6.206  0.4770  0.0037  0.4636
   93SAPC   C32 8978   6.122   5.364   6.221  0.0670 -0.2313  0.2848
   93SAPC   H2X 8979   6.161   5.260   6.228  0.8364 -0.2399 -2.6322
   93SAPC   H2Y 8980   6.164   5.428   6.302 -0.9490 -1.9659  2.2757
   93SAPC   C23 8981   5.700   4.904   6.086  0.0768 -0.5016 -0.4179
   93SAPC   H3R 8982   5.593   4.933   6.097 -0.5132 -2.5442 -0.3256
   93SAPC   H3S 8983   5.708   4.802   6.042 -1.7139 -0.5217 -0.7852
   93SAPC   C24 8984   5.766   5.002   5.988 -0.7700 -0.0143 -0.5406
   93SAPC   H4R 8985   5.745   5.102   6.032  1.2507  0.4728 -0.5604
   93SAPC   H4S 8986   5.712   4.991   5.892  0.1512 -0.3806 -1.0345
   93SAPC   C25 8987   5.916   4.980   5.968 -0.0112 -1.0714 -0.6677
   93SAPC   H5R 8988   5.968   5.032   6.050  0.5003  0.6081 -1.9939
   93SAPC   C26 8989   5.988   4.939   5.868 -0.1491 -0.0864  0.1464
   93SAPC   H6R 8990   6.096   4.951   5.879 -0.0970  0.5413 -0.9262
   93SAPC   C27 8991   5.926   4.887   5.733  0.0234 -0.3443 -0.1948
   93SAPC   H7R 8992   5.818   4.864   5.744  0.2097 -0.0279  4.1899
   93SAPC   H7S 8993   5.961   4.782   5.738 -2.0433 -1.0786 -0.1761
   93SAPC   C28 8994   5.979   4.954   5.603  0.3147 -0.1413 -0.4618
   93SAPC   H8R 8995   6.078   5.000   5.589  0.5912 -1.1109 -1.9542
   93SAPC   C29 8996   5.919   4.923   5.485  0.5551 -1.1151  0.5610
   93SAPC   H9R 8997   5.953   4.975   5.394 -0.8120  1.4930  1.4276
   93SAPC  C210 8998   5.798   4.836   5.462  0.8146 -0.7065  0.5677
   93SAPC  H10R 8999   5.779   4.780   5.557  1.4835 -1.1785  0.4306
   93SAPC  H10S 9000   5.818   4.758   5.386  1.5096 -1.1224  1.1579
   93SAPC  C211 9001   5.667   4.905   5.441  0.2980 -0.5969  0.0732
   93SAPC  H11R 9002   5.603   4.915   5.530  0.1245 -2.9716  0.2717
   93SAPC  C212 9003   5.616   4.940   5.322 -0.3809 -0.4376  0.5069
   93SAPC  H12R 9004   5.519   4.991   5.323 -0.2208 -0.0516  3.0696
   93SAPC  C213 9005   5.680   4.922   5.187  0.2774 -0.0972  0.5472
   93SAPC  H13R 9006   5.791   4.930   5.186  0.2575  0.2143 -0.7433
   93SAPC  H13S 9007   5.655   4.999   5.111 -1.7668 -1.4347 -0.2323
   93SAPC  C214 9008   5.644   4.790   5.122  0.2054  0.9667 -0.4097
   93SAPC  H14R 9009   5.614   4.718   5.200 -0.5409  0.0028 -1.5388
   93SAPC  C215 9010   5.654   4.755   4.992  0.1682 -0.5748 -0.4205
   93SAPC  H15R 9011   5.621   4.655   4.961 -0.0330 -0.7499  0.3377
   93SAPC  C216 9012   5.689   4.851   4.880 -0.1451  0.3072 -0.1613
   93SAPC  H16R 9013   5.686   4.954   4.920  1.2359 -0.5826  2.5233
   93SAPC  H16S 9014   5.614   4.850   4.798 -1.4746  1.5351  0.9677
   93SAPC  C217 9015   5.835   4.839   4.824 -0.4478  0.1251  0.3826
   93SAPC  H17R 9016   5.903   4.865   4.908  1.1321 -2.4034  0.0052
   93SAPC  H17S 9017   5.843   4.910   4.739 -1.0070 -1.6307 -1.2071
   93SAPC  C218 9018   5.859   4.697   4.766  0.1109 -0.3719  0.0971
   93SAPC  H18R 9019   5.794   4.682   4.677 -0.5910 -0.8802  0.6802
   93SAPC  H18S 9020   5.826   4.629   4.847 -1.3770  1.2915  0.9593
   93SAPC  C219 9021   6.001   4.671   4.713 -0.0757  0.3997 -0.0351
   93SAPC  H19R 9022   6.012   4.565   4.684 -2.8013 -0.2253  0.9327
   93SAPC  H19S 9023   6.072   4.691   4.796  0.1928 -1.0876  0.1161
   93SAPC  C220 9024   6.026   4.751   4.585 -0.3262 -0.6502 -0.3899
   93SAPC  H20R 9025   6.039   4.859   4.602 -1.9434 -0.4013 -0.5804
   93SAPC  H20S 9026   5.948   4.740   4.506  0.5056 -1.4279 -1.1363
   93SAPC  H20T 9027   6.122   4.713   4.543  0.6413  0.5763  0.6577
   93SAPC   C33 9028   6.154   5.418   6.082  0.1801  0.2014 -0.0486
   93SAPC   H3X 9029   6.254   5.460   6.059 -0.6882  2.9831  0.7784
   93SAPC   H3Y 9030   6.085   5.501   6.052  1.5419  0.0724 -4.2098
   93SAPC   C34 9031   6.125   5.316   5.971 -0.2017 -0.0729 -0.1156
   93SAPC   H4X 9032   6.016   5.296   5.980  0.2118 -2.4892  0.1601
   93SAPC   H4Y 9033   6.182   5.223   5.989  0.2243  0.6563  2.8201
   93SAPC   C35 9034   6.138   5.372   5.829  0.0391 -0.4417 -0.6163
   93SAPC   H5X 9035   6.241   5.391   5.793 -0.6676 -1.1924 -3.2551
   93SAPC   H5Y 9036   6.077   5.465   5.819 -1.4570 -1.2551  0.5347
   93SAPC   C36 9037   6.078   5.272   5.728 -0.3296 -0.3524  0.1055
   93SAPC   H6X 9038   5.969   5.263   5.744 -0.2163  0.6208  1.5180
   93SAPC   H6Y 9039   6.116   5.170   5.750 -3.1564 -1.5807 -0.2712
   93SAPC   C37 9040   6.110   5.315   5.582 -1.0223  0.4167  0.3975
   93SAPC   H7X 9041   6.221   5.313   5.583 -0.9407  2.4484  1.1789
   93SAPC   H7Y 9042   6.088   5.424   5.576  1.5252  0.9670 -0.3761
   93SAPC   C38 9043   6.064   5.240   5.465  0.0917  0.5698  0.2823
   93SAPC   H8X 9044   5.959   5.206   5.470  0.0408  0.2850 -1.7680
   93SAPC   H8Y 9045   6.142   5.161   5.454  1.0369  1.3393  1.1856
   93SAPC   C39 9046   6.056   5.333   5.337 -0.4738  0.4594 -0.8000
   93SAPC   H9X 9047   6.149   5.391   5.321 -1.3611  2.3463  0.4728
   93SAPC   H9Y 9048   5.980   5.411   5.356  0.4038  0.9471  0.8712
   93SAPC  C310 9049   6.019   5.262   5.206  0.0763 -0.4114 -0.4515
   93SAPC  H10X 9050   5.933   5.192   5.206  1.9845 -2.9001 -0.8072
   93SAPC  H10Y 9051   6.111   5.205   5.184 -0.3758 -0.9145 -1.0755
   93SAPC  C311 9052   6.003   5.363   5.091 -0.6142 -0.1048 -0.2584
   93SAPC  H11X 9053   6.101   5.391   5.047  0.2399 -2.6176 -0.1477
   93SAPC  H11Y 9054   5.963   5.458   5.132  0.5755 -0.4963  1.9998
   93SAPC  C312 9055   5.929   5.309   4.969 -0.7538  0.0831  0.8381
   93SAPC  H12X 9056   5.823   5.279   4.985 -0.2389 -1.9135  0.7464
   93SAPC  H12Y 9057   5.980   5.211   4.955  0.6721  0.9635 -0.2989
   93SAPC  C313 9058   5.963   5.386   4.840  0.1977 -0.5285  0.0517
   93SAPC  H13X 9059   6.072   5.394   4.826 -0.0010  0.0886 -1.3324
   93SAPC  H13Y 9060   5.916   5.486   4.858  0.1314 -0.5406 -0.0573
   93SAPC  C314 9061   5.907   5.326   4.712 -0.5649  0.1256  0.1576
   93SAPC  H14X 9062   5.808   5.281   4.735  1.2023 -3.7620  1.0660
   93SAPC  H14Y 9063   5.974   5.240   4.689 -0.2253  0.5461 -0.4534
   93SAPC  C315 9064   5.906   5.429   4.595 -0.7060 -0.3921  0.2993
   93SAPC  H15X 9065   6.010   5.468   4.590 -0.8770  0.3197  1.7012
   93SAPC  H15Y 9066   5.848   5.519   4.625 -3.3014 -1.5359 -1.0536
   93SAPC  C316 9067   5.863   5.363   4.463  0.2718  0.2752  0.1798
   93SAPC  H16X 9068   5.757   5.332   4.468 -0.2752  1.8210 -1.0890
   93SAPC  H16Y 9069   5.935   5.280   4.445  0.4488 -0.0023  2.0016
   93SAPC  C317 9070   5.863   5.467   4.349  0.5773 -0.2100 -0.3330
   93SAPC  H17X 9071   5.842   5.419   4.251 -1.0488  0.1495 -0.1860
   93SAPC  H17Y 9072   5.965   5.509   4.334  0.6193 -1.0079 -2.5929
   93SAPC  C318 9073   5.762   5.585   4.359  0.5199  0.4475  0.0833
   93SAPC  H18X 9074   5.656   5.560   4.384  0.2865  1.0431 -0.2991
   93SAPC  H18Y 9075   5.774   5.640   4.264 -0.8697  0.4025 -0.1411
   93SAPC  H18Z 9076   5.799   5.659   4.433 -1.2156  3.3892 -1.7771
   94SAPC     N 9077   4.787   3.540   6.444  0.0569  0.3442  0.7786
   94SAPC   C12 9078   4.902   3.485   6.362  0.2643 -0.4761  0.4372
   94SAPC  H12A 9079   4.926   3.390   6.406 -0.9423 -0.2909  1.5506
   94SAPC  H12B 9080   4.988   3.546   6.387 -0.2225 -0.3954  2.0256
   94SAPC   C13 9081   4.768   3.684   6.420  0.1596  0.1081 -0.1475
   94SAPC  H13A 9082   4.734   3.721   6.325 -0.4164  2.1993  0.8286
   94SAPC  H13B 9083   4.702   3.720   6.497 -0.4489 -2.2713  0.5358
   94SAPC  H13C 9084   4.866   3.730   6.422  0.2130  0.0202 -0.5052
   94SAPC   C14 9085   4.668   3.452   6.427 -1.3430  0.5803  0.0262
   94SAPC  H14A 9086   4.708   3.355   6.451 -0.8383  0.2195 -2.0331
   94SAPC  H14B 9087   4.587   3.477   6.495  0.3922  0.8167  2.1103
   94SAPC  H14C 9088   4.627   3.449   6.327  1.0094 -0.0522 -0.9813
   94SAPC   C15 9089   4.834   3.538   6.582  0.3060  0.2714  0.0325
   94SAPC  H15A 9090   4.863   3.440   6.617 -1.3132  0.3366  1.6824
   94SAPC  H15B 9091   4.923   3.599   6.581  1.0543 -0.7971  0.0313
   94SAPC  H15C 9092   4.758   3.574   6.650  0.0328  0.2117 -0.2409
   94SAPC   C11 9093   4.896   3.465   6.205  0.2127 -0.0095  0.1727
   94SAPC  H11A 9094   4.851   3.366   6.186 -4.0507  1.6072  0.8155
   94SAPC  H11B 9095   5.002   3.466   6.172  0.5066  1.4281  1.0456
   94SAPC     P 9096   4.869   3.693   6.091  0.0934  0.5763 -0.0109
   94SAPC   O13 9097   4.751   3.776   6.099  0.1168 -0.0830 -0.5098
   94SAPC   O14 9098   4.994   3.737   6.165  0.8133  0.7938 -0.0232
   94SAPC   O12 9099   4.816   3.555   6.137 -0.8869  0.1328 -0.0607
   94SAPC   O11 9100   4.897   3.669   5.938 -0.1420  0.6154 -0.0639
   94SAPC    C1 9101   4.810   3.587   5.855 -0.3691  0.0487  0.2006
   94SAPC    HA 9102   4.862   3.580   5.756 -2.5228 -0.2559 -0.9646
   94SAPC    HB 9103   4.820   3.481   5.889 -0.4531  0.1733  0.6177
   94SAPC    C2 9104   4.678   3.642   5.801  0.5088  0.2712  0.1681
   94SAPC    HS 9105   4.606   3.661   5.884  0.2535  1.8796 -0.3907
   94SAPC   O21 9106   4.622   3.561   5.692 -0.1033  0.2033  0.2101
   94SAPC   C21 9107   4.583   3.441   5.721 -0.4637 -0.3044  0.1238
   94SAPC   O22 9108   4.612   3.379   5.822 -0.6007  0.6551  0.1217
   94SAPC   C22 9109   4.496   3.386   5.604  0.2768 -0.0410  0.2492
   94SAPC   H2R 9110   4.392   3.361   5.636 -0.2359 -1.5107 -2.2810
   94SAPC   H2S 9111   4.486   3.463   5.525  2.0536 -0.8599 -0.8407
   94SAPC    C3 9112   4.701   3.780   5.733  0.0259 -0.1262 -0.2682
   94SAPC    HX 9113   4.771   3.760   5.650  2.0885 -1.4673  1.6840
   94SAPC    HY 9114   4.758   3.853   5.794  0.6781  0.4690 -1.5533
   94SAPC   O31 9115   4.581   3.835   5.681  0.3509  0.5914 -0.3804
   94SAPC   C31 9116   4.491   3.884   5.772 -0.5156  0.0408  0.6324
   94SAPC   O32 9117   4.512   3.874   5.887 -0.2509  0.4049 -0.9769
   94SAPC   C32 9118   4.358   3.928   5.705  0.1076  0.3564  0.6605
   94SAPC   H2X 9119   4.279   3.866   5.753  1.4182 -1.3079  0.7272
   94SAPC   H2Y 9120   4.356   3.898   5.598 -2.6419  0.4936  0.5949
   94SAPC   C23 9121   4.565   3.264   5.544  0.3466  0.5846  0.0597
   94SAPC   H3R 9122   4.485   3.213   5.486 -0.0870  0.7976  0.4663
   94SAPC   H3S 9123   4.600   3.188   5.618  2.8400 -0.7288 -2.2720
   94SAPC   C24 9124   4.694   3.293   5.460  0.1304  0.2574  0.0848
   94SAPC   H4R 9125   4.750   3.197   5.455  1.1007  0.8224 -0.0818
   94SAPC   H4S 9126   4.772   3.358   5.504  0.5503  0.8476 -1.4732
   94SAPC   C25 9127   4.661   3.351   5.330  0.3364 -0.0642 -0.3250
   94SAPC   H5R 9128   4.638   3.459   5.336 -0.6237 -0.3245  1.7013
   94SAPC   C26 9129   4.642   3.287   5.209  0.1366 -0.5316  0.4841
   94SAPC   H6R 9130   4.609   3.345   5.122  2.5812  0.9731  0.4746
   94SAPC   C27 9131   4.657   3.143   5.177  0.3454  0.7601 -0.0000
   94SAPC   H7R 9132   4.688   3.085   5.267  3.2111 -0.0712 -1.3927
   94SAPC   H7S 9133   4.748   3.121   5.116  1.3554  1.2692  1.2647
   94SAPC   C28 9134   4.533   3.079   5.111 -0.4696 -0.5523  0.2287
   94SAPC   H8R 9135   4.450   3.042   5.173 -0.3239 -1.8303 -0.2991
   94SAPC   C29 9136   4.514   3.046   4.982  0.8116 -0.8903 -0.3744
   94SAPC   H9R 9137   4.418   3.000   4.954  0.0697 -0.0368  0.6845
   94SAPC  C210 9138   4.594   3.101   4.866  0.7183 -0.5000  0.3329
   94SAPC  H10R 9139   4.600   3.035   4.778  2.5845 -0.7606  0.6111
   94SAPC  H10S 9140   4.698   3.119   4.900  1.0496 -2.0349  0.2019
   94SAPC  C211 9141   4.532   3.229   4.808  0.5870 -0.2013  0.0773
   94SAPC  H11R 9142   4.423   3.238   4.807  0.6016  0.3642  1.3086
   94SAPC  C212 9143   4.610   3.335   4.768  0.2732  0.2237  0.6196
   94SAPC  H12R 9144   4.560   3.418   4.717 -0.6341  0.0163  1.1554
   94SAPC  C213 9145   4.763   3.343   4.752  0.0548  0.6609  0.2105
   94SAPC  H13R 9146   4.790   3.420   4.676 -1.0994  0.3951 -0.4948
   94SAPC  H13S 9147   4.801   3.252   4.701  0.9622  0.6983  0.7936
   94SAPC  C214 9148   4.841   3.370   4.881  0.0782  0.8230  0.5576
   94SAPC  H14R 9149   4.899   3.289   4.927  3.7450  2.9043  0.0223
   94SAPC  C215 9150   4.845   3.487   4.947  0.1911 -0.0897 -0.0039
   94SAPC  H15R 9151   4.904   3.503   5.039 -1.3030  0.8017  0.8525
   94SAPC  C216 9152   4.784   3.617   4.896  0.1105  0.5164  0.7431
   94SAPC  H16R 9153   4.739   3.609   4.795 -1.3457  0.7740  1.3448
   94SAPC  H16S 9154   4.860   3.698   4.893  0.1138  0.5707  1.7863
   94SAPC  C217 9155   4.659   3.658   4.983  0.4466 -0.0816 -0.2232
   94SAPC  H17R 9156   4.604   3.563   5.000 -0.7539  0.5672 -0.3631
   94SAPC  H17S 9157   4.606   3.726   4.913  1.5914  0.8153 -0.2464
   94SAPC  C218 9158   4.703   3.726   5.113  0.1538 -0.3452 -0.2044
   94SAPC  H18R 9159   4.754   3.824   5.100 -3.2925  1.5976 -0.2155
   94SAPC  H18S 9160   4.784   3.660   5.153  0.5023  1.8599  3.1267
   94SAPC  C219 9161   4.590   3.739   5.204  0.5237  0.4759 -0.1597
   94SAPC  H19R 9162   4.518   3.656   5.184  0.8653  0.1937 -0.2267
   94SAPC  H19S 9163   4.532   3.833   5.193 -1.9848 -0.6517  2.1039
   94SAPC  C220 9164   4.638   3.727   5.347 -0.0091  0.5705  0.8380
   94SAPC  H20R 9165   4.559   3.707   5.423 -0.4568  0.8263  0.4432
   94SAPC  H20S 9166   4.686   3.823   5.376 -3.5131  2.5092  0.8907
   94SAPC  H20T 9167   4.714   3.648   5.360  1.1943  1.2592 -1.5099
   94SAPC   C33 9168   4.329   4.078   5.714  0.1958  0.2342  0.3241
   94SAPC   H3X 9169   4.339   4.120   5.816  0.4051  2.0697 -0.4186
   94SAPC   H3Y 9170   4.219   4.086   5.700  0.3274  4.1026  0.4194
   94SAPC   C34 9171   4.395   4.167   5.605 -0.0245 -0.1165  0.0147
   94SAPC   H4X 9172   4.502   4.136   5.607 -0.5764 -2.2769 -0.5005
   94SAPC   H4Y 9173   4.391   4.276   5.625  0.0207  0.3732 -2.3443
   94SAPC   C35 9174   4.346   4.140   5.465  0.1638 -0.1689  0.1928
   94SAPC   H5X 9175   4.241   4.177   5.475  1.1411  2.4524  1.9218
   94SAPC   H5Y 9176   4.367   4.035   5.436  0.3931 -0.0451 -0.0917
   94SAPC   C36 9177   4.408   4.226   5.346  0.0336  0.7269 -0.1197
   94SAPC   H6X 9178   4.476   4.294   5.402  2.0184 -0.0261 -1.4998
   94SAPC   H6Y 9179   4.325   4.281   5.297 -0.7869 -1.0016 -0.7639
   94SAPC   C37 9180   4.482   4.147   5.239  0.5107  0.2008  0.0098
   94SAPC   H7X 9181   4.553   4.071   5.279 -0.0253 -1.0885 -1.4134
   94SAPC   H7Y 9182   4.549   4.222   5.191 -0.2822  2.2619  1.9245
   94SAPC   C38 9183   4.410   4.083   5.124  0.7437 -0.3249 -0.1975
   94SAPC   H8X 9184   4.343   4.004   5.164  1.4915 -1.2786 -0.7835
   94SAPC   H8Y 9185   4.481   4.028   5.059  0.7717  1.1045 -1.4417
   94SAPC   C39 9186   4.341   4.188   5.037  0.0860 -0.1770  0.6662
   94SAPC   H9X 9187   4.417   4.268   5.026 -0.5328  0.2135 -1.0565
   94SAPC   H9Y 9188   4.251   4.216   5.096 -0.2830 -4.1227  2.3309
   94SAPC  C310 9189   4.299   4.140   4.897 -0.3123  0.0233 -0.4008
   94SAPC  H10X 9190   4.205   4.083   4.911 -1.1624  1.7852  1.6189
   94SAPC  H10Y 9191   4.383   4.087   4.848 -0.5752  0.2536 -1.1124
   94SAPC  C311 9192   4.260   4.255   4.806  0.0357 -0.2016 -0.3234
   94SAPC  H11X 9193   4.333   4.338   4.793  0.3697 -0.8068 -2.7615
   94SAPC  H11Y 9194   4.170   4.302   4.849  0.7195  1.9817 -1.1769
   94SAPC  C312 9195   4.230   4.208   4.660 -0.2509 -0.4803  0.5664
   94SAPC  H12X 9196   4.155   4.286   4.632 -0.3912 -1.0183 -0.6093
   94SAPC  H12Y 9197   4.178   4.110   4.657 -0.7434 -0.2403  1.0270
   94SAPC  C313 9198   4.357   4.200   4.572  0.8332  0.1416 -0.0835
   94SAPC  H13X 9199   4.425   4.131   4.627 -0.6666 -0.3019  1.2721
   94SAPC  H13Y 9200   4.416   4.295   4.568  1.1768 -0.1000 -1.2813
   94SAPC  C314 9201   4.330   4.166   4.427  0.3808  0.1895  0.1879
   94SAPC  H14X 9202   4.304   4.059   4.413  1.3695  0.2627 -2.9449
   94SAPC  H14Y 9203   4.427   4.161   4.372 -0.5283 -0.9863 -1.3756
   94SAPC  C315 9204   4.220   4.248   4.358 -0.2792  0.0372  0.3442
   94SAPC  H15X 9205   4.258   4.351   4.341  0.1171 -0.2863 -0.8417
   94SAPC  H15Y 9206   4.131   4.251   4.424 -0.0866 -1.1021  0.6790
   94SAPC  C316 9207   4.186   4.183   4.222  0.2718 -0.8276 -1.0564
   94SAPC  H16X 9208   4.134   4.086   4.239 -2.5440  0.9066  1.3430
   94SAPC  H16Y 9209   4.274   4.142   4.169  0.8090 -1.1040  0.0277
   94SAPC  C317 9210   4.077   4.256   4.145  0.3411 -0.7247  0.4336
   94SAPC  H17X 9211   4.109   4.359   4.118 -0.9045 -0.4096  0.0775
   94SAPC  H17Y 9212   3.984   4.276   4.203  0.5350 -2.3089  1.3481
   94SAPC  C318 9213   4.030   4.177   4.019 -0.0289  0.6581  0.4807
   94SAPC  H18X 9214   4.115   4.142   3.956 -0.6302  0.4994 -0.2645
   94SAPC  H18Y 9215   3.955   4.225   3.952  0.7361 -0.6119 -1.3768
   94SAPC  H18Z 9216   3.988   4.083   4.061 -2.4433  1.6675  0.4630
   95SAPC     N 9217   6.877   0.328   2.175  0.1291 -0.3826 -0.0420
   95SAPC   C12 9218   6.762   0.427   2.202 -0.4624  0.2772 -0.5801
   95SAPC  H12A 9219   6.820   0.516   2.223  0.0552 -0.0425 -0.6386
   95SAPC  H12B 9220   6.714   0.389   2.291 -0.0456 -1.2192 -0.9749
   95SAPC   C13 9221   6.815   0.201   2.116 -1.1091 -0.4292 -0.5004
   95SAPC  H13A 9222   6.723   0.225   2.066 -1.2467  2.8937  1.0497
   95SAPC  H13B 9223   6.887   0.154   2.051 -0.3253 -0.8454  0.6218
   95SAPC  H13C 9224   6.793   0.128   2.193 -0.1482 -1.5820 -1.2791
   95SAPC   C14 9225   6.950   0.395   2.061  0.1164 -0.4309  0.6060
   95SAPC  H14A 9226   6.883   0.411   1.977 -1.0302 -3.1783  0.9017
   95SAPC  H14B 9227   6.988   0.489   2.097  2.8051 -0.2293 -2.3509
   95SAPC  H14C 9228   7.037   0.341   2.027 -0.1018 -0.7310  0.5224
   95SAPC   C15 9229   6.981   0.304   2.283 -0.3331  0.3518 -0.0919
   95SAPC  H15A 9230   7.019   0.397   2.322  0.5792 -1.5234  3.9887
   95SAPC  H15B 9231   6.948   0.261   2.376  1.4473 -0.9094  0.0051
   95SAPC  H15C 9232   7.060   0.237   2.255 -0.9117  0.1819 -1.3953
   95SAPC   C11 9233   6.660   0.456   2.094 -0.0642 -0.0031  0.1529
   95SAPC  H11A 9234   6.697   0.494   1.997  0.1391  3.4138  1.4302
   95SAPC  H11B 9235   6.598   0.541   2.129 -1.1711 -1.2594  1.3912
   95SAPC     P 9236   6.477   0.267   2.166  0.2828 -0.4808  0.1006
   95SAPC   O13 9237   6.343   0.311   2.130  0.3477 -0.5033  0.3666
   95SAPC   O14 9238   6.504   0.120   2.157 -0.6773 -0.3469 -0.0598
   95SAPC   O12 9239   6.581   0.344   2.069  0.2363 -0.1752  0.4497
   95SAPC   O11 9240   6.530   0.320   2.308  0.2100 -0.5359 -0.0703
   95SAPC    C1 9241   6.469   0.269   2.425 -0.1142  0.0536  0.1656
   95SAPC    HA 9242   6.369   0.317   2.428  0.1970  0.7510 -0.4034
   95SAPC    HB 9243   6.472   0.158   2.425  1.8704  0.0097 -2.7059
   95SAPC    C2 9244   6.549   0.316   2.550 -0.1949 -0.0112 -0.1249
   95SAPC    HS 9245   6.506   0.281   2.646  1.7913  2.1286  1.6434
   95SAPC   O21 9246   6.568   0.456   2.550 -0.1804  0.4183  0.1244
   95SAPC   C21 9247   6.461   0.529   2.584 -0.2309 -0.4281  0.1096
   95SAPC   O22 9248   6.351   0.491   2.613 -0.7394 -0.0776  0.2265
   95SAPC   C22 9249   6.508   0.670   2.571  0.3182  0.4129 -0.0088
   95SAPC   H2R 9250   6.553   0.691   2.472  1.0711  0.9903  0.4507
   95SAPC   H2S 9251   6.415   0.730   2.574 -0.6282 -1.0258  2.4158
   95SAPC    C3 9252   6.691   0.259   2.550  0.6467  0.5111  0.6212
   95SAPC    HX 9253   6.745   0.296   2.460  0.9276 -0.8270  0.2176
   95SAPC    HY 9254   6.686   0.150   2.529 -0.9866  0.4903  0.9806
   95SAPC   O31 9255   6.771   0.284   2.669  0.6351 -0.3077 -0.0571
   95SAPC   C31 9256   6.868   0.372   2.661 -0.0941  0.0706 -0.0882
   95SAPC   O32 9257   6.910   0.429   2.562 -0.3110 -0.4535 -0.0172
   95SAPC   C32 9258   6.934   0.384   2.800 -0.0790 -0.7775 -0.3509
   95SAPC   H2X 9259   6.876   0.314   2.864  0.4305  0.3900  1.4476
   95SAPC   H2Y 9260   6.907   0.484   2.840 -0.9444 -1.1484  0.0061
   95SAPC   C23 9261   6.623   0.715   2.670 -0.2547  0.0602  0.0390
   95SAPC   H3R 9262   6.657   0.817   2.641  0.5973 -0.3437 -0.4166
   95SAPC   H3S 9263   6.700   0.636   2.665 -0.1799 -0.0294  2.0735
   95SAPC   C24 9264   6.567   0.703   2.812 -0.1327  0.0240  0.5780
   95SAPC   H4R 9265   6.486   0.629   2.826 -1.5902  1.5014  0.3322
   95SAPC   H4S 9266   6.514   0.800   2.827 -0.6046 -0.4236  2.0376
   95SAPC   C25 9267   6.676   0.670   2.910 -0.2404 -0.0362 -0.0201
   95SAPC   H5R 9268   6.763   0.737   2.899  0.0346 -0.0288  1.9479
   95SAPC   C26 9269   6.658   0.591   3.014  0.0266  0.1535  0.1672
   95SAPC   H6R 9270   6.744   0.582   3.083  0.8146 -0.9320 -0.9044
   95SAPC   C27 9271   6.545   0.500   3.041  0.2612 -0.1155 -1.1453
   95SAPC   H7R 9272   6.452   0.558   3.028 -0.9386 -1.4534  0.8679
   95SAPC   H7S 9273   6.554   0.457   3.144  1.5705 -0.0500 -1.2210
   95SAPC   C28 9274   6.530   0.378   2.941  0.1608  0.2303  0.7400
   95SAPC   H8R 9275   6.595   0.381   2.852 -1.2255  1.2937 -0.2774
   95SAPC   C29 9276   6.466   0.263   2.957 -0.0834 -0.5203  0.4617
   95SAPC   H9R 9277   6.474   0.183   2.882 -0.9343 -0.7419  0.5923
   95SAPC  C210 9278   6.384   0.226   3.075  0.2091  0.0451 -0.6229
   95SAPC  H10R 9279   6.448   0.235   3.164  0.3553 -0.0795 -0.7154
   95SAPC  H10S 9280   6.335   0.126   3.074 -0.9092  0.5323  1.3198
   95SAPC  C211 9281   6.271   0.328   3.102  0.5885 -0.6736  0.1108
   95SAPC  H11R 9282   6.232   0.375   3.010  0.5308 -2.8941 -1.0522
   95SAPC  C212 9283   6.208   0.355   3.220 -0.2407  0.6942 -0.0923
   95SAPC  H12R 9284   6.119   0.419   3.224 -0.8518 -0.1845  3.0010
   95SAPC  C213 9285   6.253   0.301   3.354  0.2878 -0.2333  1.0548
   95SAPC  H13R 9286   6.317   0.211   3.344  2.7442  1.3472  1.6183
   95SAPC  H13S 9287   6.163   0.271   3.412 -0.4960 -0.1124 -0.0798
   95SAPC  C214 9288   6.334   0.392   3.436  0.8749  0.0259  0.2938
   95SAPC  H14R 9289   6.357   0.487   3.384 -3.4712 -0.1978 -2.5567
   95SAPC  C215 9290   6.368   0.378   3.563 -0.4920  0.0221 -0.7625
   95SAPC  H15R 9291   6.438   0.445   3.614  0.6947 -1.2923 -0.6231
   95SAPC  C216 9292   6.311   0.275   3.656  0.5269  0.5339 -0.1720
   95SAPC  H16R 9293   6.380   0.244   3.737 -0.2883 -2.8269 -0.6039
   95SAPC  H16S 9294   6.312   0.175   3.608  1.9501  0.0535  0.7837
   95SAPC  C217 9295   6.177   0.310   3.718  0.7391  0.7965 -0.1139
   95SAPC  H17R 9296   6.107   0.350   3.642  0.5837 -0.3865 -0.6169
   95SAPC  H17S 9297   6.198   0.396   3.785 -1.1424  2.0954 -1.0933
   95SAPC  C218 9298   6.131   0.194   3.810  0.3088  0.7505  0.1247
   95SAPC  H18R 9299   6.177   0.186   3.911 -0.4665  0.0156  0.4313
   95SAPC  H18S 9300   6.146   0.100   3.753 -0.4046  0.5143  0.3127
   95SAPC  C219 9301   5.974   0.192   3.819 -0.5517  0.0693  0.3758
   95SAPC  H19R 9302   5.929   0.198   3.717 -0.4926 -2.2196  0.1570
   95SAPC  H19S 9303   5.939   0.284   3.872  1.5610  1.0060  0.2305
   95SAPC  C220 9304   5.918   0.066   3.891  0.0858 -0.2193  0.0234
   95SAPC  H20R 9305   5.971   0.055   3.988  2.0898  0.6577 -0.9151
   95SAPC  H20S 9306   5.954  -0.020   3.831  0.1490 -1.8780  2.3011
   95SAPC  H20T 9307   5.808   0.059   3.901  0.1089 -0.3870  0.1625
   95SAPC   C33 9308   7.083   0.373   2.809 -0.3325  0.6563  0.3690
   95SAPC   H3X 9309   7.130   0.453   2.748 -2.9300  0.2450 -2.4076
   95SAPC   H3Y 9310   7.111   0.275   2.763 -1.9059 -0.0198  0.8018
   95SAPC   C34 9311   7.136   0.385   2.953 -0.8327 -0.3568  0.0896
   95SAPC   H4X 9312   7.102   0.308   3.026  0.8451 -1.1814  0.0616
   95SAPC   H4Y 9313   7.101   0.484   2.990  0.4207  0.1940 -0.1516
   95SAPC   C35 9314   7.290   0.386   2.965 -0.4720 -0.2681 -0.1715
   95SAPC   H5X 9315   7.321   0.477   2.909 -1.0379  1.3964  2.0556
   95SAPC   H5Y 9316   7.321   0.295   2.911  0.6251 -0.7466  1.2034
   95SAPC   C36 9317   7.345   0.391   3.108 -0.0683  0.4355  0.0817
   95SAPC   H6X 9318   7.314   0.302   3.166  0.7805 -0.6344 -1.0397
   95SAPC   H6Y 9319   7.307   0.478   3.165 -1.1312 -0.1768  0.3358
   95SAPC   C37 9320   7.503   0.380   3.117  0.7039  0.4079  0.2395
   95SAPC   H7X 9321   7.536   0.458   3.045  0.7193 -0.9214 -1.2430
   95SAPC   H7Y 9322   7.526   0.278   3.079  0.9052  0.9554 -1.1772
   95SAPC   C38 9323   7.545   0.388   3.258  0.1157  0.4250  0.2550
   95SAPC   H8X 9324   7.544   0.284   3.297 -1.9439 -0.6719 -2.3740
   95SAPC   H8Y 9325   7.486   0.455   3.325  0.8513 -0.3532  1.7291
   95SAPC   C39 9326   7.688   0.446   3.262  0.3501  0.1505  0.2649
   95SAPC   H9X 9327   7.675   0.548   3.220  0.3657  0.1187  0.1824
   95SAPC   H9Y 9328   7.760   0.388   3.202 -0.6694  0.0363 -0.8865
   95SAPC  C310 9329   7.742   0.468   3.409  0.0883  0.2552 -0.4130
   95SAPC  H10X 9330   7.650   0.485   3.469 -1.5856 -0.6849 -2.5427
   95SAPC  H10Y 9331   7.799   0.563   3.400  0.6267  0.0506  0.7378
   95SAPC  C311 9332   7.820   0.348   3.462  0.2840 -0.1373 -0.5619
   95SAPC  H11X 9333   7.888   0.314   3.381  0.0934  0.6386 -1.0540
   95SAPC  H11Y 9334   7.742   0.271   3.484  0.9104 -0.2631  1.3901
   95SAPC  C312 9335   7.898   0.351   3.602 -0.1425 -0.1918 -0.1638
   95SAPC  H12X 9336   7.988   0.416   3.598  1.0581 -1.6663  1.1983
   95SAPC  H12Y 9337   7.929   0.246   3.620 -1.7287 -0.5161  0.8625
   95SAPC  C313 9338   7.799   0.393   3.714 -0.4825  0.1791  0.0250
   95SAPC  H13X 9339   7.715   0.320   3.718 -0.3345 -0.1923 -2.1170
   95SAPC  H13Y 9340   7.752   0.489   3.686 -1.0504 -0.2286 -0.4606
   95SAPC  C314 9341   7.875   0.412   3.848 -0.0902  0.0466  0.2642
   95SAPC  H14X 9342   7.956   0.482   3.822 -0.7003  1.4365  1.9352
   95SAPC  H14Y 9343   7.900   0.311   3.888  0.2988  0.3986  0.9428
   95SAPC  C315 9344   7.796   0.471   3.966  0.1963  0.4189 -0.4289
   95SAPC  H15X 9345   7.702   0.412   3.979 -0.0989  0.3012 -2.6577
   95SAPC  H15Y 9346   7.772   0.571   3.924  0.4885  0.6402 -0.0631
   95SAPC  C316 9347   7.873   0.490   4.102 -1.0859  0.0712 -0.1729
   95SAPC  H16X 9348   7.881   0.397   4.162 -0.9670 -0.3562 -0.8393
   95SAPC  H16Y 9349   7.823   0.564   4.168  0.0844  2.0010 -1.3419
   95SAPC  C317 9350   8.017   0.541   4.082  0.0510 -0.3736 -0.0758
   95SAPC  H17X 9351   8.007   0.638   4.030 -1.6894 -0.8562 -0.6907
   95SAPC  H17Y 9352   8.063   0.462   4.019 -0.6354  0.5211 -1.7341
   95SAPC  C318 9353   8.091   0.566   4.210 -0.6319  0.4225  0.3894
   95SAPC  H18X 9354   8.192   0.603   4.183 -0.4513 -1.2546 -1.5565
   95SAPC  H18Y 9355   8.108   0.469   4.262  1.4506  0.1704 -0.6535
   95SAPC  H18Z 9356   8.038   0.635   4.279  1.6064  2.8123 -0.1223
   96SAPC     N 9357   2.019   3.726   1.506 -0.1032  0.2288 -0.7050
   96SAPC   C12 9358   1.907   3.739   1.606  0.4398  0.2016 -0.0710
   96SAPC  H12A 9359   1.830   3.803   1.564  0.2761 -0.4190 -0.7341
   96SAPC  H12B 9360   1.934   3.786   1.699  0.7891  1.7850 -0.9364
   96SAPC   C13 9361   1.962   3.686   1.379 -0.2953 -0.6010  0.3807
   96SAPC  H13A 9362   1.923   3.585   1.381 -0.5110 -0.5261  2.2733
   96SAPC  H13B 9363   1.890   3.759   1.349 -0.2020 -0.5909  0.1812
   96SAPC  H13C 9364   2.038   3.695   1.302 -0.6030 -0.8743  0.0451
   96SAPC   C14 9365   2.068   3.867   1.486 -0.2828  0.1116  0.6055
   96SAPC  H14A 9366   1.986   3.932   1.462 -0.5400  0.0177  1.2294
   96SAPC  H14B 9367   2.105   3.901   1.581 -2.6626  1.4376  1.1326
   96SAPC  H14C 9368   2.144   3.881   1.409 -3.4012 -0.6938 -2.9234
   96SAPC   C15 9369   2.128   3.631   1.541 -0.6814  0.1641  0.2414
   96SAPC  H15A 9370   2.085   3.539   1.578  2.3422 -1.0392  1.1178
   96SAPC  H15B 9371   2.190   3.603   1.457  0.2649  0.2901  0.8762
   96SAPC  H15C 9372   2.185   3.665   1.626 -1.7984  0.9062  0.7133
   96SAPC   C11 9373   1.825   3.621   1.643 -0.4850 -0.2750  0.5996
   96SAPC  H11A 9374   1.791   3.582   1.545  0.6845 -0.2286  0.1556
   96SAPC  H11B 9375   1.741   3.661   1.704  0.9929  3.8474  0.2688
   96SAPC     P 9376   1.830   3.394   1.772 -0.0103 -0.1927  0.3669
   96SAPC   O13 9377   1.732   3.342   1.671 -0.3637  0.3697  0.5276
   96SAPC   O14 9378   1.936   3.304   1.829  0.0564 -0.4718  0.0071
   96SAPC   O12 9379   1.900   3.520   1.701 -0.5562  0.9924  0.0779
   96SAPC   O11 9380   1.749   3.467   1.883 -0.1960  0.0528 -0.1853
   96SAPC    C1 9381   1.817   3.557   1.979  0.1213  1.0309 -0.3685
   96SAPC    HA 9382   1.916   3.509   1.995  0.0941 -0.7840 -4.4422
   96SAPC    HB 9383   1.836   3.658   1.938  0.7380  0.9039 -0.4175
   96SAPC    C2 9384   1.732   3.562   2.109  0.0947 -0.1400 -0.0952
   96SAPC    HS 9385   1.650   3.633   2.089  0.9306  0.1539 -2.9537
   96SAPC   O21 9386   1.827   3.601   2.216  0.5047 -0.1155  0.3126
   96SAPC   C21 9387   1.770   3.685   2.304  0.3196 -0.4847  0.1377
   96SAPC   O22 9388   1.658   3.737   2.289  0.3050 -0.1003  0.0929
   96SAPC   C22 9389   1.859   3.698   2.432 -0.3264 -0.0913 -0.0640
   96SAPC   H2R 9390   1.854   3.601   2.488  2.9206 -0.0182  0.5722
   96SAPC   H2S 9391   1.962   3.708   2.391 -0.1082 -0.5286  0.3634
   96SAPC    C3 9392   1.664   3.430   2.146  0.0219  0.0477  0.3533
   96SAPC    HX 9393   1.745   3.354   2.154  0.2998  0.5155  3.0418
   96SAPC    HY 9394   1.591   3.391   2.071 -0.3731 -4.2485  2.6201
   96SAPC   O31 9395   1.601   3.432   2.275  0.6782 -0.3123  0.2757
   96SAPC   C31 9396   1.477   3.496   2.279 -0.8167  0.3037 -0.3763
   96SAPC   O32 9397   1.420   3.538   2.180  0.5752 -0.7429 -0.0624
   96SAPC   C32 9398   1.442   3.536   2.419  0.5688  0.1689 -0.0080
   96SAPC   H2X 9399   1.541   3.550   2.467  2.2781 -1.8250 -2.6338
   96SAPC   H2Y 9400   1.383   3.459   2.472  1.2535 -1.1381 -1.0503
   96SAPC   C23 9401   1.826   3.819   2.534 -0.1172 -0.0700  0.4104
   96SAPC   H3R 9402   1.731   3.804   2.590 -0.2179  2.4691  1.0790
   96SAPC   H3S 9403   1.810   3.913   2.477 -1.5978  0.1863  1.2039
   96SAPC   C24 9404   1.929   3.829   2.645 -0.2587 -0.0586  0.0209
   96SAPC   H4R 9405   1.997   3.741   2.644  1.9220  1.5185  0.7422
   96SAPC   H4S 9406   1.874   3.829   2.741  1.0780  2.6322  0.8961
   96SAPC   C25 9407   2.018   3.946   2.636  0.2439 -0.9133  0.3247
   96SAPC   H5R 9408   2.039   3.973   2.532 -0.9889  0.2672  0.3568
   96SAPC   C26 9409   2.026   4.042   2.731 -0.3396  0.7757  0.5493
   96SAPC   H6R 9410   2.084   4.130   2.699  1.9900 -0.3206  1.5482
   96SAPC   C27 9411   1.970   4.045   2.868  0.0237 -0.7552  0.7456
   96SAPC   H7R 9412   2.038   3.986   2.934  1.1953 -0.5013 -0.2056
   96SAPC   H7S 9413   1.871   3.996   2.861 -0.2352 -0.1218 -0.3194
   96SAPC   C28 9414   1.964   4.178   2.937 -0.0527 -1.2950  0.3214
   96SAPC   H8R 9415   1.963   4.268   2.872 -2.0413  0.0987  2.1402
   96SAPC   C29 9416   1.935   4.202   3.066 -0.2569  0.1910 -0.7712
   96SAPC   H9R 9417   1.934   4.304   3.108  0.3530 -0.1287  0.0538
   96SAPC  C210 9418   1.919   4.098   3.180  0.5461 -0.6353 -0.3960
   96SAPC  H10R 9419   1.897   3.995   3.145 -3.0761  0.4659 -1.7716
   96SAPC  H10S 9420   1.837   4.125   3.250  1.7902 -0.5453  1.0873
   96SAPC  C211 9421   2.053   4.098   3.254  0.2661  1.1441 -0.1841
   96SAPC  H11R 9422   2.140   4.069   3.192 -1.0395 -0.7169 -1.2789
   96SAPC  C212 9423   2.087   4.133   3.384  0.0803  0.0547  0.7726
   96SAPC  H12R 9424   2.194   4.142   3.406  0.0519  1.0310  0.5709
   96SAPC  C213 9425   1.995   4.154   3.501 -0.2905 -0.0214 -0.0884
   96SAPC  H13R 9426   1.950   4.254   3.486  2.3596  1.1713 -0.6918
   96SAPC  H13S 9427   2.060   4.170   3.590 -1.6935 -0.6921  1.1086
   96SAPC  C214 9428   1.891   4.048   3.538 -0.1754  0.3961 -0.0664
   96SAPC  H14R 9429   1.854   4.003   3.445 -0.3234  1.2647 -0.4393
   96SAPC  C215 9430   1.850   4.010   3.662 -0.3891  0.8205  0.4239
   96SAPC  H15R 9431   1.776   3.929   3.668  1.4730 -0.9453  1.0528
   96SAPC  C216 9432   1.897   4.055   3.799  0.2174 -0.5617 -0.0295
   96SAPC  H16R 9433   1.808   4.078   3.860  1.2166 -1.4091  1.8537
   96SAPC  H16S 9434   1.959   4.147   3.793  1.3756 -1.2055  1.3345
   96SAPC  C217 9435   1.989   3.954   3.883 -0.5936  0.0816  0.0936
   96SAPC  H17R 9436   2.094   3.977   3.856 -1.0298  2.6756  0.2949
   96SAPC  H17S 9437   1.962   3.849   3.862 -0.5392  0.1297 -0.2201
   96SAPC  C218 9438   1.974   3.965   4.037 -0.3900 -0.0257 -0.0431
   96SAPC  H18R 9439   1.979   4.071   4.069  5.8916  0.1925 -0.3879
   96SAPC  H18S 9440   2.070   3.925   4.078 -0.7934  1.3523  2.4416
   96SAPC  C219 9441   1.862   3.875   4.087 -0.7097  0.8545  0.8775
   96SAPC  H19R 9442   1.895   3.770   4.071 -0.8966  0.7139  1.3905
   96SAPC  H19S 9443   1.768   3.887   4.029 -0.5255 -0.9976  0.1234
   96SAPC  C220 9444   1.830   3.909   4.230  0.4199 -0.4915  0.0521
   96SAPC  H20R 9445   1.907   3.877   4.303 -2.7263 -1.8287  3.0197
   96SAPC  H20S 9446   1.732   3.866   4.260  0.3226 -0.2623  0.0591
   96SAPC  H20T 9447   1.825   4.020   4.235  2.2028 -0.3559 -0.5014
   96SAPC   C33 9448   1.368   3.672   2.423  0.3857  0.5721 -0.0496
   96SAPC   H3X 9449   1.263   3.664   2.387  1.0098 -0.4871 -1.7401
   96SAPC   H3Y 9450   1.419   3.750   2.362 -3.8684  1.6049 -2.7797
   96SAPC   C34 9451   1.369   3.732   2.572 -0.1301  0.2470  0.5715
   96SAPC   H4X 9452   1.285   3.803   2.585 -1.2225 -1.1013  1.1634
   96SAPC   H4Y 9453   1.465   3.786   2.587 -1.0118  2.0966 -0.1056
   96SAPC   C35 9454   1.347   3.645   2.689  0.0340 -0.0767 -0.0890
   96SAPC   H5X 9455   1.424   3.564   2.684  2.2511  1.8795  0.6001
   96SAPC   H5Y 9456   1.241   3.612   2.677  0.1338  0.0514 -1.4664
   96SAPC   C36 9457   1.356   3.713   2.825  0.5068 -0.2239  0.3784
   96SAPC   H6X 9458   1.301   3.809   2.829  4.0254  1.9583  1.1518
   96SAPC   H6Y 9459   1.464   3.727   2.847  1.0910 -0.1143 -2.2489
   96SAPC   C37 9460   1.303   3.617   2.935 -0.3682  0.1043 -0.5478
   96SAPC   H7X 9461   1.363   3.524   2.926  0.2979  0.2436  1.8453
   96SAPC   H7Y 9462   1.195   3.594   2.919 -0.3652 -1.8344  1.6616
   96SAPC   C38 9463   1.322   3.673   3.079 -0.2160 -0.6592 -0.3782
   96SAPC   H8X 9464   1.263   3.767   3.083  0.0561 -0.5110  0.2914
   96SAPC   H8Y 9465   1.428   3.694   3.106 -0.4333 -1.0951  0.9026
   96SAPC   C39 9466   1.267   3.578   3.187  0.4679 -0.2167  0.1448
   96SAPC   H9X 9467   1.338   3.492   3.178  0.9659  0.3326 -1.4882
   96SAPC   H9Y 9468   1.165   3.545   3.157  0.0135 -1.1793  2.5522
   96SAPC  C310 9469   1.258   3.635   3.327  0.1851 -0.7462 -0.5298
   96SAPC  H10X 9470   1.163   3.691   3.338  1.3749  1.4697 -1.0189
   96SAPC  H10Y 9471   1.335   3.714   3.332  0.2562 -0.8732  0.9210
   96SAPC  C311 9472   1.279   3.531   3.438  1.3756  0.4695 -0.0789
   96SAPC  H11X 9473   1.388   3.511   3.438  1.3752  0.4647  0.0930
   96SAPC  H11Y 9474   1.226   3.436   3.411  0.8784  1.1987 -1.8240
   96SAPC  C312 9475   1.229   3.575   3.571 -0.2779 -0.2833 -0.7665
   96SAPC  H12X 9476   1.122   3.548   3.585 -0.2557 -0.6808 -1.3575
   96SAPC  H12Y 9477   1.241   3.685   3.583  3.3635 -0.5381 -1.1419
   96SAPC  C313 9478   1.303   3.511   3.688  0.0947 -0.3753 -0.1093
   96SAPC  H13X 9479   1.399   3.565   3.708  0.6967 -1.2153 -0.7028
   96SAPC  H13Y 9480   1.332   3.406   3.668 -1.0645 -1.2521  2.3779
   96SAPC  C314 9481   1.235   3.509   3.824 -0.5766 -0.4079 -0.3758
   96SAPC  H14X 9482   1.147   3.443   3.808 -0.0754 -0.9643 -0.8898
   96SAPC  H14Y 9483   1.200   3.609   3.858  2.3154  0.9896 -1.1783
   96SAPC  C315 9484   1.321   3.445   3.934 -0.6061  0.2349 -0.1891
   96SAPC  H15X 9485   1.254   3.428   4.021 -1.5106 -0.9866 -1.0915
   96SAPC  H15Y 9486   1.405   3.511   3.967  0.5810 -0.5402 -1.5373
   96SAPC  C316 9487   1.378   3.309   3.890  0.0984  0.7219  0.2701
   96SAPC  H16X 9488   1.468   3.312   3.825 -1.3750  0.1313 -1.9296
   96SAPC  H16Y 9489   1.308   3.253   3.824  0.5834  0.0585  0.3141
   96SAPC  C317 9490   1.414   3.215   4.005 -0.7017 -0.8858  0.2812
   96SAPC  H17X 9491   1.324   3.198   4.068 -2.3878  0.9331 -1.4817
   96SAPC  H17Y 9492   1.485   3.260   4.078  1.1592 -5.0331  1.3079
   96SAPC  C318 9493   1.469   3.080   3.964  0.5176 -0.1686  0.1003
   96SAPC  H18X 9494   1.503   3.036   4.060  3.5454  2.8238  0.5739
   96SAPC  H18Y 9495   1.550   3.099   3.890 -0.6137  2.1392 -0.6572
   96SAPC  H18Z 9496   1.386   3.024   3.916 -1.8921  1.2837  2.3190
   97SAPC     N 9497   0.550   0.753   2.425  0.4476  0.3836  0.2573
   97SAPC   C12 9498   0.426   0.681   2.374 -0.1141  0.7129  0.0060
   97SAPC  H12A 9499   0.340   0.738   2.404 -2.4699 -3.1570  1.2725
   97SAPC  H12B 9500   0.404   0.591   2.429  0.0856  0.8449  0.3059
   97SAPC   C13 9501   0.540   0.794   2.571  0.4629 -0.9690  0.1801
   97SAPC  H13A 9502   0.619   0.865   2.593  1.7536 -2.6653  1.2985
   97SAPC  H13B 9503   0.445   0.844   2.586  0.3968 -0.9866 -0.1857
   97SAPC  H13C 9504   0.542   0.711   2.640 -0.4369 -0.0757  1.3239
   97SAPC   C14 9505   0.671   0.661   2.406 -0.5866 -0.3701  0.2520
   97SAPC  H14A 9506   0.759   0.715   2.437 -0.7645  0.3445 -0.4267
   97SAPC  H14B 9507   0.655   0.575   2.469  1.1205 -1.5605 -0.8520
   97SAPC  H14C 9508   0.683   0.646   2.300 -3.5432  1.4067 -0.4741
   97SAPC   C15 9509   0.584   0.884   2.351  0.1280  0.6221  0.3000
   97SAPC  H15A 9510   0.685   0.906   2.382 -0.3598  1.9324  1.0422
   97SAPC  H15B 9511   0.594   0.875   2.244  4.0186  1.7060  0.4432
   97SAPC  H15C 9512   0.521   0.967   2.379  2.4151  2.5657  0.0288
   97SAPC   C11 9513   0.421   0.652   2.225 -0.1635 -0.1515 -0.7053
   97SAPC  H11A 9514   0.349   0.573   2.195  0.2957 -0.1867 -1.7553
   97SAPC  H11B 9515   0.515   0.600   2.199  0.5095  0.3243  0.6718
   97SAPC     P 9516   0.232   0.815   2.137 -0.2835  0.2528 -0.3827
   97SAPC   O13 9517   0.235   0.934   2.043  0.1452 -0.0018 -0.0023
   97SAPC   O14 9518   0.157   0.690   2.099  1.3032 -0.2571  1.0518
   97SAPC   O12 9519   0.384   0.769   2.154  0.4190 -0.5244  0.0957
   97SAPC   O11 9520   0.192   0.856   2.282 -0.2948  0.6834  0.3448
   97SAPC    C1 9521   0.230   0.982   2.341  0.0132 -0.3079  0.7276
   97SAPC    HA 9522   0.329   0.981   2.390  0.6787  0.1566 -0.5553
   97SAPC    HB 9523   0.231   1.065   2.267 -0.3899  0.8236  1.9496
   97SAPC    C2 9524   0.122   1.038   2.438 -0.5368  0.4739 -0.3890
   97SAPC    HS 9525   0.158   1.137   2.470 -0.2377  0.1661  0.2356
   97SAPC   O21 9526   0.102   0.960   2.551  0.2564  0.1267 -0.7920
   97SAPC   C21 9527   0.200   0.958   2.643  0.0217  0.1683  0.0328
   97SAPC   O22 9528   0.309   1.009   2.624  0.2475  0.1100 -0.8003
   97SAPC   C22 9529   0.163   0.871   2.762  0.4118  0.1272  0.3106
   97SAPC   H2R 9530   0.078   0.805   2.731  0.2199 -0.2875  1.6611
   97SAPC   H2S 9531   0.257   0.813   2.776  1.6182  1.2980 -2.1874
   97SAPC    C3 9532  -0.012   1.053   2.372 -0.0396  0.2004  0.3188
   97SAPC    HX 9533  -0.069   0.958   2.380 -1.1904  0.8376 -0.0049
   97SAPC    HY 9534   0.008   1.069   2.264  2.4664  2.6386  1.0167
   97SAPC   O31 9535  -0.088   1.160   2.423 -0.5463  0.2489 -0.0146
   97SAPC   C31 9536  -0.189   1.205   2.353 -0.4362 -0.2517  0.0022
   97SAPC   O32 9537  -0.242   1.154   2.257  0.0515 -0.1904 -0.6148
   97SAPC   C32 9538  -0.241   1.334   2.420  0.0057  0.3295  0.0087
   97SAPC   H2X 9539  -0.246   1.415   2.343 -0.6759  1.8286  1.5610
   97SAPC   H2Y 9540  -0.172   1.367   2.501  1.6941 -0.7460 -0.9394
   97SAPC   C23 9541   0.131   0.957   2.891 -0.4200  0.1437  0.6165
   97SAPC   H3R 9542   0.052   0.912   2.954  0.3845  0.2861  1.7540
   97SAPC   H3S 9543   0.067   1.037   2.850  1.5039  0.4014 -2.1992
   97SAPC   C24 9544   0.255   1.013   2.967 -0.0941  0.3848 -0.3915
   97SAPC   H4R 9545   0.210   1.076   3.046 -2.5614  0.9629 -2.1150
   97SAPC   H4S 9546   0.320   1.071   2.897  0.7623  1.2393  1.0707
   97SAPC   C25 9547   0.337   0.905   3.026  0.7125  0.1889  0.0009
   97SAPC   H5R 9548   0.424   0.883   2.962  0.2015 -0.3596 -0.5119
   97SAPC   C26 9549   0.324   0.829   3.135 -0.0071 -0.1275  0.3496
   97SAPC   H6R 9550   0.396   0.750   3.161 -0.9727 -1.5196 -0.9453
   97SAPC   C27 9551   0.217   0.853   3.237 -0.4131 -0.3647 -0.2786
   97SAPC   H7R 9552   0.148   0.766   3.232 -1.0595  0.1253  0.0226
   97SAPC   H7S 9553   0.144   0.934   3.220 -0.1517  0.8272  3.3234
   97SAPC   C28 9554   0.278   0.862   3.375 -0.4803  0.1649 -0.0135
   97SAPC   H8R 9555   0.294   0.966   3.410  0.6316 -0.2819  0.8824
   97SAPC   C29 9556   0.313   0.762   3.456 -0.1585  0.5441  0.4235
   97SAPC   H9R 9557   0.334   0.776   3.563 -3.9503 -0.9269  1.5108
   97SAPC  C210 9558   0.301   0.619   3.421 -0.1221  0.0119  0.0206
   97SAPC  H10R 9559   0.403   0.577   3.408  1.0459  1.5816  3.2383
   97SAPC  H10S 9560   0.238   0.603   3.330 -1.4978 -4.3173  1.4511
   97SAPC  C211 9561   0.232   0.538   3.534  0.1201 -0.8471  0.7615
   97SAPC  H11R 9562   0.127   0.568   3.549  0.2119 -0.2219  0.2024
   97SAPC  C212 9563   0.282   0.447   3.617 -0.8941 -0.1461 -0.1673
   97SAPC  H12R 9564   0.215   0.407   3.694 -2.2077  0.9346 -0.7103
   97SAPC  C213 9565   0.423   0.395   3.607 -0.0804 -0.1132 -0.1249
   97SAPC  H13R 9566   0.501   0.473   3.590  1.3526 -1.2392  0.9846
   97SAPC  H13S 9567   0.434   0.339   3.511 -0.9419  0.3931 -0.5295
   97SAPC  C214 9568   0.445   0.296   3.715 -0.5685 -0.4827  0.6104
   97SAPC  H14R 9569   0.440   0.193   3.678  2.5905 -0.4203 -0.3055
   97SAPC  C215 9570   0.486   0.326   3.845 -0.1060  0.6788 -0.5028
   97SAPC  H15R 9571   0.485   0.238   3.911 -0.2453  0.6890 -0.4908
   97SAPC  C216 9572   0.490   0.465   3.907 -0.5621  0.2620  0.3411
   97SAPC  H16R 9573   0.520   0.540   3.831 -3.5631  1.8761  0.5874
   97SAPC  H16S 9574   0.569   0.459   3.985  0.2868  0.6496 -0.4709
   97SAPC  C217 9575   0.363   0.504   3.979 -0.0445  0.4407 -0.3595
   97SAPC  H17R 9576   0.335   0.427   4.054 -1.4991  0.6238 -0.6718
   97SAPC  H17S 9577   0.281   0.514   3.905  0.1798 -2.0187 -1.0095
   97SAPC  C218 9578   0.384   0.642   4.037  0.1547  0.5622  0.2221
   97SAPC  H18R 9579   0.451   0.703   3.972 -1.0477  4.3262  2.2614
   97SAPC  H18S 9580   0.433   0.618   4.134 -1.8933 -0.3329  1.0725
   97SAPC  C219 9581   0.260   0.728   4.058  0.5200 -0.2871  0.0899
   97SAPC  H19R 9582   0.200   0.727   3.964  0.1617  0.5192  0.2967
   97SAPC  H19S 9583   0.301   0.830   4.077  0.4601 -0.1373 -0.5569
   97SAPC  C220 9584   0.177   0.679   4.180  0.1488 -0.1043 -0.1241
   97SAPC  H20R 9585   0.077   0.727   4.186  0.7182  1.5635 -2.5407
   97SAPC  H20S 9586   0.237   0.697   4.272 -0.9032 -1.5875  0.9069
   97SAPC  H20T 9587   0.163   0.569   4.178  0.9251 -0.1995 -0.6105
   97SAPC   C33 9588  -0.393   1.311   2.463 -0.0277  0.2755 -0.2965
   97SAPC   H3X 9589  -0.448   1.302   2.367 -0.9335 -2.3699  0.3780
   97SAPC   H3Y 9590  -0.428   1.407   2.506  0.2225  0.2196  0.0384
   97SAPC   C34 9591  -0.427   1.196   2.569 -0.1593 -0.0130  0.4748
   97SAPC   H4X 9592  -0.449   1.097   2.524 -0.9686  1.0900 -1.6650
   97SAPC   H4Y 9593  -0.512   1.235   2.630 -0.0518  1.4839 -0.2787
   97SAPC   C35 9594  -0.317   1.175   2.677 -0.0576  0.2825  0.2704
   97SAPC   H5X 9595  -0.273   1.275   2.701  0.9719 -0.2414  0.6075
   97SAPC   H5Y 9596  -0.234   1.114   2.636  0.6645  1.2393  0.2826
   97SAPC   C36 9597  -0.379   1.116   2.810  0.2793  0.7286  0.2966
   97SAPC   H6X 9598  -0.420   1.018   2.781  1.4641  0.7998 -1.8211
   97SAPC   H6Y 9599  -0.455   1.184   2.854  3.2955  2.0969  4.0345
   97SAPC   C37 9600  -0.279   1.082   2.922 -0.4837 -0.2468  0.6060
   97SAPC   H7X 9601  -0.217   0.999   2.882  0.6556 -0.2128  2.1905
   97SAPC   H7Y 9602  -0.334   1.056   3.015 -0.5917  0.6494  0.8058
   97SAPC   C38 9603  -0.183   1.199   2.962  0.2368 -0.3815  0.8891
   97SAPC   H8X 9604  -0.246   1.290   2.960 -1.2173 -1.3478  0.8595
   97SAPC   H8Y 9605  -0.108   1.206   2.881 -0.4795 -0.2975  0.2303
   97SAPC   C39 9606  -0.125   1.182   3.097 -0.0123  0.4389 -0.2461
   97SAPC   H9X 9607  -0.094   1.076   3.116  1.4592  1.0792  1.1373
   97SAPC   H9Y 9608  -0.204   1.199   3.173  0.4837 -0.4305  0.4916
   97SAPC  C310 9609   0.003   1.270   3.103 -0.4672 -0.6205  0.2075
   97SAPC  H10X 9610  -0.019   1.370   3.060  0.6923 -1.2865 -2.0689
   97SAPC  H10Y 9611   0.086   1.230   3.041 -0.8804 -0.5061 -0.4176
   97SAPC  C311 9612   0.053   1.271   3.247  0.1858 -0.2250  0.3577
   97SAPC  H11X 9613   0.085   1.165   3.252  1.0435 -0.1555 -2.2976
   97SAPC  H11Y 9614  -0.029   1.290   3.319  1.1959  0.9393  1.2389
   97SAPC  C312 9615   0.165   1.365   3.267 -0.6460 -0.3370 -0.1431
   97SAPC  H12X 9616   0.153   1.472   3.241 -1.9160 -0.5851 -0.6510
   97SAPC  H12Y 9617   0.245   1.330   3.199  0.9007  2.2361  0.2411
   97SAPC  C313 9618   0.230   1.353   3.405  0.6506  0.5084 -0.4355
   97SAPC  H13X 9619   0.340   1.360   3.394  0.3949  1.3361 -3.2678
   97SAPC  H13Y 9620   0.199   1.257   3.452  2.0468 -0.8592 -2.1402
   97SAPC  C314 9621   0.190   1.473   3.487  0.9006  0.1717  0.7156
   97SAPC  H14X 9622   0.086   1.451   3.518 -0.5390 -0.0091 -3.6161
   97SAPC  H14Y 9623   0.175   1.568   3.431  0.4991 -0.6163 -0.5384
   97SAPC  C315 9624   0.274   1.487   3.615 -0.1699  0.0738  0.2631
   97SAPC  H15X 9625   0.368   1.539   3.588 -0.0845 -0.7527 -1.0751
   97SAPC  H15Y 9626   0.312   1.396   3.666  0.9666  0.9200  0.9816
   97SAPC  C316 9627   0.191   1.568   3.717  0.7470 -0.5766  0.2232
   97SAPC  H16X 9628   0.092   1.519   3.731 -0.5263  1.3106 -1.5420
   97SAPC  H16Y 9629   0.161   1.668   3.680 -1.4175 -0.2832  2.5187
   97SAPC  C317 9630   0.267   1.585   3.846  0.2244  0.0587 -0.4848
   97SAPC  H17X 9631   0.364   1.631   3.817  0.4948 -1.1684 -1.6063
   97SAPC  H17Y 9632   0.279   1.481   3.884  1.5131  0.1335 -0.6566
   97SAPC  C318 9633   0.200   1.676   3.945  0.5826  0.2090 -0.4527
   97SAPC  H18X 9634   0.252   1.688   4.043 -0.3971  0.2921  0.0661
   97SAPC  H18Y 9635   0.105   1.631   3.980  0.3181  0.1742 -1.2112
   97SAPC  H18Z 9636   0.182   1.779   3.907  0.8261  0.7436  0.8325
   98SAPC     N 9637   3.182   1.969   1.795 -0.3906  0.2033  0.4877
   98SAPC   C12 9638   3.312   1.895   1.824  0.0483  0.4547  0.4353
   98SAPC  H12A 9639   3.391   1.967   1.811 -1.2468  1.7688 -0.6329
   98SAPC  H12B 9640   3.338   1.825   1.746  0.8677  1.2205  0.0064
   98SAPC   C13 9641   3.059   1.882   1.829 -0.4193 -0.1222  0.9732
   98SAPC  H13A 9642   2.966   1.931   1.805 -0.5902 -0.8513  0.0729
   98SAPC  H13B 9643   3.048   1.786   1.779  2.0648 -0.2672  0.5783
   98SAPC  H13C 9644   3.058   1.860   1.935 -0.6356  0.2455  1.0488
   98SAPC   C14 9645   3.180   2.092   1.882  0.6053  0.4509  0.6966
   98SAPC  H14A 9646   3.176   2.062   1.986 -1.9253 -0.7606  0.3377
   98SAPC  H14B 9647   3.274   2.143   1.871  0.1854  1.6051  2.1538
   98SAPC  H14C 9648   3.090   2.149   1.864 -1.5025 -2.5526  1.0045
   98SAPC   C15 9649   3.177   2.007   1.650 -0.3939  0.3103 -0.4197
   98SAPC  H15A 9650   3.237   2.091   1.619 -0.4121 -0.1583 -1.7585
   98SAPC  H15B 9651   3.199   1.926   1.582 -3.4581  1.0710 -2.5470
   98SAPC  H15C 9652   3.076   2.033   1.622 -1.0359 -1.7431 -0.1461
   98SAPC   C11 9653   3.324   1.836   1.966  0.3392 -0.1807 -0.5203
   98SAPC  H11A 9654   3.425   1.790   1.973  0.4609  0.2338  0.6333
   98SAPC  H11B 9655   3.259   1.747   1.952 -1.4148  1.0275 -0.3702
   98SAPC     P 9656   3.415   1.970   2.172  0.0068  0.0105 -0.4035
   98SAPC   O13 9657   3.544   1.932   2.119  0.6087  0.2735 -0.5351
   98SAPC   O14 9658   3.410   2.118   2.199  0.4162  0.0546  0.5504
   98SAPC   O12 9659   3.292   1.917   2.082 -0.6386 -0.6556  0.4144
   98SAPC   O11 9660   3.377   1.884   2.297 -0.4510 -0.0735 -0.4416
   98SAPC    C1 9661   3.275   1.929   2.387 -0.3414 -0.2194 -0.3409
   98SAPC    HA 9662   3.193   1.983   2.334  1.5483  1.7698 -1.4140
   98SAPC    HB 9663   3.228   1.840   2.433  3.4875 -1.1031  2.3177
   98SAPC    C2 9664   3.326   2.020   2.499  0.3537  0.3908  0.8558
   98SAPC    HS 9665   3.378   2.103   2.447  0.8585 -1.2352 -1.3670
   98SAPC   O21 9666   3.409   1.946   2.587 -0.1350  0.6810  0.3681
   98SAPC   C21 9667   3.540   1.961   2.560 -0.4269  0.3745  0.2892
   98SAPC   O22 9668   3.587   2.043   2.478 -1.8514  0.0720 -0.5672
   98SAPC   C22 9669   3.617   1.865   2.642  0.3602 -0.5629 -0.0939
   98SAPC   H2R 9670   3.594   1.758   2.623 -3.0702  0.2605 -1.2460
   98SAPC   H2S 9671   3.727   1.880   2.630  0.3424 -0.7593 -0.5249
   98SAPC    C3 9672   3.207   2.065   2.584  0.0524  0.3436  0.0040
   98SAPC    HX 9673   3.165   1.971   2.625  3.1838  0.0247  2.9404
   98SAPC    HY 9674   3.137   2.116   2.515 -1.4195 -0.5429  0.7785
   98SAPC   O31 9675   3.258   2.156   2.678 -0.1279  0.0534  0.0415
   98SAPC   C31 9676   3.235   2.121   2.806 -0.6095 -0.0249 -0.2370
   98SAPC   O32 9677   3.153   2.045   2.844  0.0004  0.1981 -0.1705
   98SAPC   C32 9678   3.309   2.214   2.900  0.5174  0.5580  0.6398
   98SAPC   H2X 9679   3.264   2.315   2.889 -4.1407 -1.3444 -0.1793
   98SAPC   H2Y 9680   3.411   2.214   2.857  0.1562 -1.4873 -0.3454
   98SAPC   C23 9681   3.602   1.886   2.798 -0.0957  0.0184  0.2599
   98SAPC   H3R 9682   3.633   1.796   2.855 -1.3533  0.2538  1.3416
   98SAPC   H3S 9683   3.493   1.898   2.816  0.2620  0.8819  2.0895
   98SAPC   C24 9684   3.676   1.999   2.861  0.1476  0.5114 -0.4459
   98SAPC   H4R 9685   3.643   2.096   2.817  0.8425  1.1796  0.4575
   98SAPC   H4S 9686   3.784   1.998   2.834  0.4542  1.6329  0.6407
   98SAPC   C25 9687   3.653   2.016   3.007  0.2058  1.0069 -0.2107
   98SAPC   H5R 9688   3.545   2.013   3.029  0.2830 -0.5455  0.0379
   98SAPC   C26 9689   3.736   2.030   3.107 -0.1321  0.5026  0.6486
   98SAPC   H6R 9690   3.689   2.027   3.206 -0.6023 -1.0250  0.4206
   98SAPC   C27 9691   3.890   2.032   3.100 -0.0450 -0.2608 -0.7122
   98SAPC   H7R 9692   3.912   2.009   2.994 -0.6639 -1.9550 -0.4919
   98SAPC   H7S 9693   3.941   1.947   3.151 -2.0979 -0.5480  1.0086
   98SAPC   C28 9694   3.950   2.163   3.142 -0.4994 -0.1815 -0.1074
   98SAPC   H8R 9695   3.953   2.239   3.062  1.0883  0.0903  0.1690
   98SAPC   C29 9696   4.000   2.189   3.268  0.8802  0.4981 -0.2622
   98SAPC   H9R 9697   4.047   2.287   3.284  1.0298  0.5699 -1.0923
   98SAPC  C210 9698   4.001   2.099   3.394  0.0205  0.4300 -0.5688
   98SAPC  H10R 9699   3.950   2.004   3.369  0.9724 -0.9657  2.3185
   98SAPC  H10S 9700   3.946   2.157   3.470  1.3120  1.7643 -0.6005
   98SAPC  C211 9701   4.135   2.070   3.451 -0.8235 -0.2646 -0.0327
   98SAPC  H11R 9702   4.188   2.154   3.499  0.9202 -1.3979  0.1308
   98SAPC  C212 9703   4.211   1.959   3.438 -0.3974 -0.6976  0.0295
   98SAPC  H12R 9704   4.313   1.963   3.479  0.1667  1.0253 -1.4480
   98SAPC  C213 9705   4.179   1.828   3.375 -0.0642  0.2141  0.2474
   98SAPC  H13R 9706   4.075   1.833   3.335  0.3440  2.5436 -0.6821
   98SAPC  H13S 9707   4.167   1.756   3.458  0.3553  0.6198  0.6628
   98SAPC  C214 9708   4.278   1.788   3.265 -0.1640  0.7534  0.1494
   98SAPC  H14R 9709   4.383   1.814   3.285 -0.1288 -0.3922  1.6335
   98SAPC  C215 9710   4.248   1.729   3.149 -1.1976  0.5263  0.1542
   98SAPC  H15R 9711   4.322   1.717   3.069 -0.3520  0.0829  0.9841
   98SAPC  C216 9712   4.114   1.689   3.099  0.4317  0.3818  0.3771
   98SAPC  H16R 9713   4.094   1.729   2.997  1.2391 -1.1232 -0.3924
   98SAPC  H16S 9714   4.035   1.734   3.163  1.6439 -0.0212  2.2601
   98SAPC  C217 9715   4.086   1.537   3.090  0.0667  0.5648  0.1021
   98SAPC  H17R 9716   3.977   1.531   3.070  0.0097 -1.7776  0.7661
   98SAPC  H17S 9717   4.095   1.480   3.185 -0.8247 -0.3522 -0.3399
   98SAPC  C218 9718   4.165   1.467   2.975 -0.1403 -0.4423  0.3671
   98SAPC  H18R 9719   4.274   1.464   2.994 -0.1080  0.4925  0.3579
   98SAPC  H18S 9720   4.158   1.525   2.881  3.6826 -0.2111  0.0795
   98SAPC  C219 9721   4.131   1.317   2.935 -0.5251  0.5840  0.0080
   98SAPC  H19R 9722   4.043   1.314   2.868  0.8205 -1.6954 -1.8100
   98SAPC  H19S 9723   4.114   1.261   3.029 -2.2427 -1.0434 -1.2041
   98SAPC  C220 9724   4.244   1.249   2.858 -0.6693  0.1463  0.6524
   98SAPC  H20R 9725   4.336   1.257   2.920  1.1896  1.1147 -2.0792
   98SAPC  H20S 9726   4.272   1.302   2.765  1.1883 -0.9372  0.5371
   98SAPC  H20T 9727   4.227   1.141   2.836  3.1878 -0.6970  1.1613
   98SAPC   C33 9728   3.294   2.172   3.043  0.0858 -0.5761 -0.0987
   98SAPC   H3X 9729   3.313   2.066   3.069  3.2394  0.5690  3.1273
   98SAPC   H3Y 9730   3.189   2.195   3.070  0.2291 -1.7744  1.6301
   98SAPC   C34 9731   3.381   2.263   3.135  0.4792 -0.3003 -0.6065
   98SAPC   H4X 9732   3.349   2.368   3.121  0.3622 -0.2846 -0.2467
   98SAPC   H4Y 9733   3.484   2.234   3.108 -0.2482 -1.3484 -2.4521
   98SAPC   C35 9734   3.355   2.243   3.284 -0.8351  0.0207  0.0018
   98SAPC   H5X 9735   3.385   2.141   3.316 -0.8524 -0.0132 -0.0873
   98SAPC   H5Y 9736   3.247   2.255   3.306 -1.1820  0.7408 -1.8600
   98SAPC   C36 9737   3.426   2.344   3.377 -0.0871  0.2274 -0.3566
   98SAPC   H6X 9738   3.418   2.445   3.330  0.3035  1.1250  1.3995
   98SAPC   H6Y 9739   3.534   2.318   3.370 -0.3276 -0.6783 -0.7206
   98SAPC   C37 9740   3.355   2.361   3.511  0.4363  0.3850  0.2622
   98SAPC   H7X 9741   3.347   2.264   3.563 -0.2175  0.7770  0.9105
   98SAPC   H7Y 9742   3.254   2.406   3.505  0.2970 -0.0573 -1.0088
   98SAPC   C38 9743   3.429   2.467   3.599 -0.1156  0.5578 -0.4707
   98SAPC   H8X 9744   3.441   2.568   3.554 -1.3104  0.0947 -1.9199
   98SAPC   H8Y 9745   3.535   2.433   3.602 -0.9492 -2.3145 -0.6770
   98SAPC   C39 9746   3.372   2.463   3.741 -0.9889  0.0354 -0.4063
   98SAPC   H9X 9747   3.381   2.360   3.781 -1.3698 -0.3687 -1.3548
   98SAPC   H9Y 9748   3.265   2.493   3.747 -0.9778  0.1789 -0.8953
   98SAPC  C310 9749   3.443   2.548   3.845 -0.0060 -0.1038  0.5387
   98SAPC  H10X 9750   3.441   2.655   3.816 -1.5690 -0.3296 -0.2923
   98SAPC  H10Y 9751   3.550   2.516   3.848 -0.2862 -1.0089  2.4996
   98SAPC  C311 9752   3.399   2.541   3.994  0.6109 -0.3608 -0.0645
   98SAPC  H11X 9753   3.361   2.438   4.015 -1.6117  0.3873 -0.1872
   98SAPC  H11Y 9754   3.317   2.609   4.023  0.0162 -0.3701 -1.6255
   98SAPC  C312 9755   3.518   2.580   4.089 -0.0410  0.1480 -0.0363
   98SAPC  H12X 9756   3.545   2.682   4.056 -2.2684  0.1610 -2.2037
   98SAPC  H12Y 9757   3.601   2.510   4.067  1.6167  1.7525  0.9079
   98SAPC  C313 9758   3.478   2.572   4.236 -0.1181 -0.4541 -0.9757
   98SAPC  H13X 9759   3.385   2.631   4.249  0.5520  0.9518 -2.2834
   98SAPC  H13Y 9760   3.553   2.627   4.297 -0.0761 -1.9279  0.3628
   98SAPC  C314 9761   3.451   2.433   4.299 -0.2141  0.9133  0.1048
   98SAPC  H14X 9762   3.543   2.370   4.295  0.1189  1.2672  1.4975
   98SAPC  H14Y 9763   3.379   2.386   4.230 -0.5396 -0.8204  1.5390
   98SAPC  C315 9764   3.410   2.432   4.449 -0.4885 -0.1422  0.3579
   98SAPC  H15X 9765   3.358   2.530   4.446 -0.8411 -0.3485 -2.0733
   98SAPC  H15Y 9766   3.501   2.424   4.512 -0.3128 -1.9306 -0.0665
   98SAPC  C316 9767   3.322   2.316   4.488 -0.0306 -0.3826 -0.1831
   98SAPC  H16X 9768   3.261   2.296   4.397  2.4261 -0.2988 -1.9479
   98SAPC  H16Y 9769   3.250   2.344   4.568  1.8206  0.9342  1.0999
   98SAPC  C317 9770   3.403   2.201   4.544  0.2028 -0.5487 -0.7124
   98SAPC  H17X 9771   3.336   2.113   4.539  0.4793 -0.7804 -0.3751
   98SAPC  H17Y 9772   3.440   2.226   4.645 -1.1786  1.6592 -0.7028
   98SAPC  C318 9773   3.534   2.153   4.467 -0.2756 -0.7639 -0.0958
   98SAPC  H18X 9774   3.600   2.240   4.442  0.4855 -1.1752  0.4417
   98SAPC  H18Y 9775   3.509   2.092   4.378 -0.6892 -3.3373  1.6884
   98SAPC  H18Z 9776   3.591   2.082   4.531  2.3719  1.5262  0.3502
   99SAPC     N 9777   1.070   5.708   2.403 -0.2150  0.8730 -0.4677
   99SAPC   C12 9778   1.198   5.697   2.318 -0.3252  0.4958 -0.0290
   99SAPC  H12A 9779   1.265   5.619   2.351  1.1888  1.0844 -1.5238
   99SAPC  H12B 9780   1.256   5.788   2.325 -2.5238  2.1208 -1.6561
   99SAPC   C13 9781   1.011   5.575   2.417 -0.3794  0.2325 -0.1416
   99SAPC  H13A 9782   1.015   5.521   2.323  1.1234  1.5115 -0.8570
   99SAPC  H13B 9783   1.068   5.525   2.494 -1.2929  1.1989  1.2013
   99SAPC  H13C 9784   0.906   5.577   2.443 -0.7277  0.5114 -1.4836
   99SAPC   C14 9785   1.108   5.757   2.534 -1.1286  0.3116  0.1141
   99SAPC  H14A 9786   1.026   5.780   2.600 -1.7482  0.1885 -0.6051
   99SAPC  H14B 9787   1.174   5.689   2.587 -0.8649 -0.5828 -1.3188
   99SAPC  H14C 9788   1.164   5.849   2.526  2.3066 -1.5664  0.3908
   99SAPC   C15 9789   0.968   5.799   2.348  0.4202 -0.4154  0.4091
   99SAPC  H15A 9790   1.007   5.898   2.368  2.4809 -1.7767  3.9539
   99SAPC  H15B 9791   0.949   5.789   2.242  0.5397  2.2449  0.0610
   99SAPC  H15C 9792   0.874   5.798   2.402  0.1994  0.3362  0.0581
   99SAPC   C11 9793   1.181   5.666   2.162 -0.6686  0.2637 -0.0328
   99SAPC  H11A 9794   1.286   5.667   2.125 -0.4942  2.0558  0.4076
   99SAPC  H11B 9795   1.121   5.750   2.122 -0.3419  1.2973  1.5610
   99SAPC     P 9796   1.177   5.392   2.173  0.0360 -0.6103 -0.3198
   99SAPC   O13 9797   1.060   5.305   2.212  0.3589 -0.1953 -0.3916
   99SAPC   O14 9798   1.258   5.355   2.054  0.2668 -0.4251  0.0651
   99SAPC   O12 9799   1.121   5.540   2.143 -0.0148 -0.5924 -0.3135
   99SAPC   O11 9800   1.274   5.414   2.296 -0.0628 -0.7489  0.6672
   99SAPC    C1 9801   1.275   5.334   2.412 -0.3034 -0.0741  0.4784
   99SAPC    HA 9802   1.284   5.399   2.501 -0.6384  1.8213 -0.7924
   99SAPC    HB 9803   1.182   5.274   2.423 -0.8510  0.7449  0.4734
   99SAPC    C2 9804   1.389   5.226   2.411  0.4299 -0.0740  0.0436
   99SAPC    HS 9805   1.400   5.207   2.302  1.4021 -0.8727  0.2670
   99SAPC   O21 9806   1.345   5.105   2.475  0.3257  0.0467 -0.4787
   99SAPC   C21 9807   1.427   4.995   2.448  0.0799 -0.2747 -0.0859
   99SAPC   O22 9808   1.518   5.000   2.369 -0.4482 -0.1711  0.6869
   99SAPC   C22 9809   1.386   4.889   2.552  0.0271 -0.3584  0.1961
   99SAPC   H2R 9810   1.398   4.945   2.647  0.2116 -0.2752  0.1234
   99SAPC   H2S 9811   1.276   4.874   2.540  0.2528 -1.1133 -1.1398
   99SAPC    C3 9812   1.526   5.281   2.471 -0.4349 -0.7212 -0.1014
   99SAPC    HX 9813   1.564   5.350   2.393  3.0660 -3.5707 -1.1822
   99SAPC    HY 9814   1.613   5.215   2.489  1.2034  1.3434 -0.0496
   99SAPC   O31 9815   1.498   5.345   2.596 -0.5992 -0.3009 -0.4329
   99SAPC   C31 9816   1.498   5.255   2.698  0.4948  0.5941  0.0665
   99SAPC   O32 9817   1.558   5.146   2.699  0.6547  0.3304  0.1797
   99SAPC   C32 9818   1.438   5.318   2.821  0.2014 -0.0439  0.1206
   99SAPC   H2X 9819   1.342   5.368   2.795  1.0036  1.8022  0.5163
   99SAPC   H2Y 9820   1.512   5.391   2.861  1.1492 -0.4899 -0.7704
   99SAPC   C23 9821   1.456   4.749   2.557  0.4683 -0.5841 -0.7621
   99SAPC   H3R 9822   1.566   4.762   2.565  0.4338 -0.7413  0.0473
   99SAPC   H3S 9823   1.434   4.701   2.459  0.5588  1.6652 -1.9451
   99SAPC   C24 9824   1.409   4.663   2.675 -0.0009  0.3951 -0.0285
   99SAPC   H4R 9825   1.438   4.717   2.767 -0.6576  1.0741 -0.2058
   99SAPC   H4S 9826   1.470   4.571   2.686 -1.3269 -0.3666  1.1971
   99SAPC   C25 9827   1.260   4.630   2.673  0.1918  0.0427  0.2471
   99SAPC   H5R 9828   1.216   4.587   2.582 -1.0675 -1.5465  1.5355
   99SAPC   C26 9829   1.176   4.649   2.781  0.2526 -0.6884 -0.6774
   99SAPC   H6R 9830   1.071   4.618   2.767 -0.1938  0.4787 -0.0256
   99SAPC   C27 9831   1.203   4.715   2.920  0.1471  0.2781  0.2619
   99SAPC   H7R 9832   1.102   4.739   2.958 -0.5879 -0.9730 -0.8100
   99SAPC   H7S 9833   1.254   4.813   2.905  0.9690 -0.2380 -0.3894
   99SAPC   C28 9834   1.281   4.613   3.011  0.4683 -0.5914 -0.6044
   99SAPC   H8R 9835   1.361   4.559   2.958  2.5356  2.3811 -0.7418
   99SAPC   C29 9836   1.263   4.622   3.146  0.2955 -0.5195  0.5951
   99SAPC   H9R 9837   1.323   4.560   3.214  0.4766  0.3087  1.2113
   99SAPC  C210 9838   1.166   4.710   3.218 -0.0354  0.6930  0.3526
   99SAPC  H10R 9839   1.078   4.644   3.238  2.7480 -2.8000  2.4513
   99SAPC  H10S 9840   1.109   4.783   3.157 -0.6029 -0.8624 -1.0604
   99SAPC  C211 9841   1.229   4.769   3.339 -0.2942  0.3819 -0.5135
   99SAPC  H11R 9842   1.263   4.874   3.334 -2.6501  1.2982  1.1409
   99SAPC  C212 9843   1.243   4.713   3.462 -0.1652 -0.2562  0.4005
   99SAPC  H12R 9844   1.299   4.772   3.536  1.5508 -0.8340 -0.3606
   99SAPC  C213 9845   1.191   4.577   3.508  0.7139  0.5840 -0.6781
   99SAPC  H13R 9846   1.129   4.520   3.435  1.6538 -0.3756 -0.7499
   99SAPC  H13S 9847   1.117   4.601   3.588  1.0587 -0.7548  0.0844
   99SAPC  C214 9848   1.291   4.481   3.565 -0.3553  0.4869  0.8734
   99SAPC  H14R 9849   1.364   4.458   3.486  0.1521  0.5840  1.3106
   99SAPC  C215 9850   1.295   4.412   3.681  0.8032 -0.1231  0.1158
   99SAPC  H15R 9851   1.386   4.357   3.709  1.6299 -0.0767 -2.2311
   99SAPC  C216 9852   1.188   4.419   3.784 -0.1048  0.4163 -0.1380
   99SAPC  H16R 9853   1.166   4.316   3.819  0.0180 -0.7325 -3.1657
   99SAPC  H16S 9854   1.089   4.455   3.750 -0.2766 -1.7854 -2.2038
   99SAPC  C217 9855   1.233   4.515   3.899  0.2096  0.8435  0.2029
   99SAPC  H17R 9856   1.247   4.615   3.854 -0.6513  0.6942 -0.4156
   99SAPC  H17S 9857   1.330   4.486   3.946 -0.9145 -2.7609  0.5908
   99SAPC  C218 9858   1.125   4.528   4.010 -0.8161  0.1675 -0.3317
   99SAPC  H18R 9859   1.141   4.444   4.081  0.3955  1.0440  0.4557
   99SAPC  H18S 9860   1.022   4.527   3.969 -1.4962  1.4990  1.2737
   99SAPC  C219 9861   1.134   4.657   4.087  0.4799 -0.0418 -0.2146
   99SAPC  H19R 9862   1.152   4.733   4.008 -1.8178  0.7697 -0.0212
   99SAPC  H19S 9863   1.217   4.656   4.161  0.9361 -0.4090 -0.7176
   99SAPC  C220 9864   1.006   4.703   4.160 -0.8602 -0.2607  0.9058
   99SAPC  H20R 9865   1.006   4.646   4.256 -1.1292 -0.3061  0.8799
   99SAPC  H20S 9866   0.915   4.691   4.098  0.4089 -0.5979 -0.9717
   99SAPC  H20T 9867   1.011   4.813   4.177  1.5239 -0.1437 -0.0719
   99SAPC   C33 9868   1.403   5.211   2.935  0.4945 -0.8949 -0.2866
   99SAPC   H3X 9869   1.352   5.122   2.892 -0.5348 -1.1346  1.3543
   99SAPC   H3Y 9870   1.326   5.250   3.005  2.2449  0.2466  1.0786
   99SAPC   C34 9871   1.521   5.174   3.021 -0.4311  0.1348 -0.2319
   99SAPC   H4X 9872   1.561   5.265   3.071  0.1012 -0.1530 -0.1282
   99SAPC   H4Y 9873   1.600   5.121   2.964  1.7811  1.6625  1.2476
   99SAPC   C35 9874   1.493   5.065   3.136 -0.1176  0.2587  0.2198
   99SAPC   H5X 9875   1.495   4.965   3.089 -1.6106  0.5250 -0.4697
   99SAPC   H5Y 9876   1.389   5.065   3.175 -0.2387  0.4536 -0.0978
   99SAPC   C36 9877   1.596   5.080   3.244  0.0589 -0.7667  0.3401
   99SAPC   H6X 9878   1.696   5.105   3.202 -0.4348  3.2821  1.1706
   99SAPC   H6Y 9879   1.606   4.984   3.299  1.0736 -0.1125  1.3487
   99SAPC   C37 9880   1.573   5.187   3.360  0.8636  0.5455 -0.0949
   99SAPC   H7X 9881   1.471   5.164   3.398 -0.1005  1.4370 -2.0006
   99SAPC   H7Y 9882   1.563   5.294   3.332 -1.8162  0.8095  1.4863
   99SAPC   C38 9883   1.670   5.169   3.466  0.4149 -0.3610 -0.2125
   99SAPC   H8X 9884   1.752   5.241   3.441  0.6047  0.0817  1.5400
   99SAPC   H8Y 9885   1.704   5.064   3.476  0.4791 -0.3162  0.0344
   99SAPC   C39 9886   1.622   5.230   3.602 -0.3318 -0.2257  0.1166
   99SAPC   H9X 9887   1.540   5.164   3.639 -0.5483  1.1400  2.2505
   99SAPC   H9Y 9888   1.571   5.329   3.596  0.0375 -0.0846 -0.8306
   99SAPC  C310 9889   1.737   5.228   3.704 -0.1749 -0.6384 -0.0706
   99SAPC  H10X 9890   1.814   5.292   3.655 -0.0596  0.3608  1.3594
   99SAPC  H10Y 9891   1.779   5.126   3.717 -0.7541 -0.7553  1.0342
   99SAPC  C311 9892   1.710   5.298   3.836  0.1812 -0.5548 -0.2359
   99SAPC  H11X 9893   1.696   5.408   3.822  3.0208  0.1873  1.8490
   99SAPC  H11Y 9894   1.796   5.287   3.905  0.4208 -0.7689 -0.5656
   99SAPC  C312 9895   1.587   5.234   3.904 -0.0106 -0.2124  0.4899
   99SAPC  H12X 9896   1.598   5.125   3.889  0.1406 -0.3430  1.4900
   99SAPC  H12Y 9897   1.500   5.275   3.848 -2.4929 -0.6915  3.6955
   99SAPC  C313 9898   1.552   5.272   4.053 -0.4887  0.3024  0.4423
   99SAPC  H13X 9899   1.450   5.235   4.073  0.3423 -1.3328  1.9646
   99SAPC  H13Y 9900   1.558   5.381   4.076  1.3635 -0.0866  2.0582
   99SAPC  C314 9901   1.644   5.189   4.151 -0.2552 -0.5669  1.0526
   99SAPC  H14X 9902   1.749   5.216   4.125 -1.5363  1.9789 -2.3084
   99SAPC  H14Y 9903   1.640   5.084   4.117  1.7344 -0.0874 -0.9619
   99SAPC  C315 9904   1.606   5.197   4.299  0.6493  0.1230  0.0034
   99SAPC  H15X 9905   1.647   5.291   4.342  1.0547 -1.0181  2.2434
   99SAPC  H15Y 9906   1.658   5.122   4.362  0.0675  0.5368  1.0110
   99SAPC  C316 9907   1.460   5.182   4.327 -0.5660 -0.5760  0.5439
   99SAPC  H16X 9908   1.407   5.262   4.271  2.6137  1.1894 -0.1751
   99SAPC  H16Y 9909   1.442   5.205   4.434 -0.1032  1.9647  0.1188
   99SAPC  C317 9910   1.408   5.037   4.298  0.9388 -0.6267 -0.0901
   99SAPC  H17X 9911   1.485   4.967   4.337  0.8021 -1.0776 -0.6274
   99SAPC  H17Y 9912   1.415   5.027   4.188  1.1425  0.8585 -0.2421
   99SAPC  C318 9913   1.272   5.008   4.350 -0.0525 -0.3772 -0.4682
   99SAPC  H18X 9914   1.259   4.903   4.384  0.7458  0.2339  1.9454
   99SAPC  H18Y 9915   1.203   5.020   4.264  0.3227  2.5971 -0.4525
   99SAPC  H18Z 9916   1.251   5.079   4.433  1.4641  0.1270 -0.4867
  100SAPC     N 9917   6.526   6.603   1.719  0.5346 -0.0862 -0.6934
  100SAPC   C12 9918   6.569   6.498   1.816 -0.8786  0.2081 -0.2829
  100SAPC  H12A 9919   6.515   6.513   1.909 -1.6862 -2.2670 -0.2807
  100SAPC  H12B 9920   6.668   6.518   1.855 -1.9747  1.8605  1.8488
  100SAPC   C13 9921   6.386   6.567   1.671  1.1608 -0.1517 -0.2854
  100SAPC  H13A 9922   6.392   6.469   1.625 -0.9742 -1.2123  1.5148
  100SAPC  H13B 9923   6.307   6.554   1.744 -1.5391 -2.0758 -3.2322
  100SAPC  H13C 9924   6.347   6.633   1.594 -0.5744  1.5594  1.8945
  100SAPC   C14 9925   6.518   6.743   1.781 -0.2364  0.1815  0.3774
  100SAPC  H14A 9926   6.448   6.734   1.863 -1.0812  1.1452 -0.2032
  100SAPC  H14B 9927   6.608   6.791   1.816  0.4238 -0.5407 -0.3055
  100SAPC  H14C 9928   6.479   6.808   1.704 -0.8290 -0.7046 -0.0879
  100SAPC   C15 9929   6.626   6.613   1.601 -0.1650  0.5724 -0.0115
  100SAPC  H15A 9930   6.728   6.623   1.635 -0.2827  2.9799 -0.2166
  100SAPC  H15B 9931   6.625   6.522   1.542 -1.7561 -0.7253  1.8744
  100SAPC  H15C 9932   6.602   6.700   1.542  0.7395  0.1871 -0.9795
  100SAPC   C11 9933   6.564   6.343   1.765  0.0169  0.5146  0.9849
  100SAPC  H11A 9934   6.635   6.283   1.826  0.9427  1.2840  0.6926
  100SAPC  H11B 9935   6.599   6.352   1.660  0.6889  1.7441  1.2985
  100SAPC     P 9936   6.355   6.221   1.875  0.1689 -0.4782  0.1292
  100SAPC   O13 9937   6.219   6.201   1.829  0.2311 -0.1148  0.7923
  100SAPC   O14 9938   6.426   6.101   1.929 -0.7386 -0.1618  0.0369
  100SAPC   O12 9939   6.439   6.286   1.753  0.9544 -0.1454  0.1251
  100SAPC   O11 9940   6.371   6.342   1.985  0.7544  0.2756 -0.5220
  100SAPC    C1 9941   6.279   6.452   1.997  0.0908  0.0981  0.5447
  100SAPC    HA 9942   6.337   6.545   1.981  0.5055 -0.5069 -1.8270
  100SAPC    HB 9943   6.206   6.456   1.913  1.1209 -1.7696 -0.5301
  100SAPC    C2 9944   6.213   6.478   2.136  0.1554  0.8007  0.3580
  100SAPC    HS 9945   6.173   6.581   2.124  0.4365  0.7926 -0.7689
  100SAPC   O21 9946   6.306   6.472   2.249 -0.3224  0.6954 -0.8705
  100SAPC   C21 9947   6.428   6.525   2.254 -0.2590  0.2501  0.4681
  100SAPC   O22 9948   6.471   6.605   2.171  0.3770 -0.0292 -0.9921
  100SAPC   C22 9949   6.492   6.456   2.377  0.0593 -0.5057 -0.2692
  100SAPC   H2R 9950   6.537   6.358   2.351 -1.1425 -1.6580  1.7410
  100SAPC   H2S 9951   6.579   6.524   2.393 -0.4821  0.0241  0.4803
  100SAPC    C3 9952   6.086   6.379   2.138  0.2488  0.1925 -0.4827
  100SAPC    HX 9953   6.121   6.273   2.134 -0.8005 -0.2070  0.1861
  100SAPC    HY 9954   6.024   6.406   2.049  3.1232  2.0734 -2.0488
  100SAPC   O31 9955   6.008   6.388   2.262  0.3216  0.1364  0.5105
  100SAPC   C31 9956   5.950   6.503   2.281  0.6162 -0.1704  0.9627
  100SAPC   O32 9957   5.932   6.583   2.187 -0.8984 -0.0661  0.5298
  100SAPC   C32 9958   5.913   6.539   2.423  0.0377 -0.0715 -0.2495
  100SAPC   H2X 9959   5.802   6.538   2.428  0.0300  1.0286  0.1051
  100SAPC   H2Y 9960   5.949   6.643   2.438 -1.2271  0.2527  0.6656
  100SAPC   C23 9961   6.397   6.443   2.503  0.1371 -0.6013 -0.6548
  100SAPC   H3R 9962   6.308   6.384   2.472  1.5639 -3.6629  0.6103
  100SAPC   H3S 9963   6.357   6.543   2.527  3.3476  0.7205 -0.3214
  100SAPC   C24 9964   6.478   6.390   2.629  0.9179  0.0566 -0.6346
  100SAPC   H4R 9965   6.412   6.397   2.718 -0.4252 -0.7966 -1.5311
  100SAPC   H4S 9966   6.556   6.465   2.656  0.9282 -0.4924  0.9385
  100SAPC   C25 9967   6.531   6.245   2.620  0.1672 -0.4542  0.1570
  100SAPC   H5R 9968   6.607   6.233   2.541  1.6902  0.6219  1.4016
  100SAPC   C26 9969   6.507   6.150   2.714  0.0805  0.6871 -0.4699
  100SAPC   H6R 9970   6.546   6.049   2.697  1.3411  1.4538 -2.6300
  100SAPC   C27 9971   6.410   6.151   2.832  0.2194  0.6185 -0.0783
  100SAPC   H7R 9972   6.341   6.065   2.818  0.6722  0.1041  0.7768
  100SAPC   H7S 9973   6.351   6.245   2.839 -0.5392  0.1453  0.0068
  100SAPC   C28 9974   6.488   6.119   2.954  0.6869  0.0288  0.1934
  100SAPC   H8R 9975   6.518   6.204   3.017 -0.9981  2.3684 -1.9437
  100SAPC   C29 9976   6.542   6.002   2.992 -0.3656  0.7695 -0.0357
  100SAPC   H9R 9977   6.612   5.999   3.077  0.2936  1.2525 -0.5510
  100SAPC  C210 9978   6.520   5.863   2.929  0.5202  0.3147 -0.1140
  100SAPC  H10R 9979   6.484   5.868   2.824  1.1236 -0.8013 -0.3855
  100SAPC  H10S 9980   6.443   5.802   2.980  1.7491  0.1453  1.6132
  100SAPC  C211 9981   6.641   5.781   2.917 -0.0111  0.6511  0.1337
  100SAPC  H11R 9982   6.681   5.775   2.815 -0.6268 -0.3085 -0.0635
  100SAPC  C212 9983   6.695   5.695   3.010 -0.0440  0.0275  0.2354
  100SAPC  H12R 9984   6.790   5.646   2.981 -1.4388 -1.5837 -1.8615
  100SAPC  C213 9985   6.668   5.691   3.155  0.2947  0.0159 -0.3819
  100SAPC  H13R 9986   6.612   5.604   3.198  0.6098  0.7494  1.6592
  100SAPC  H13S 9987   6.590   5.764   3.186 -1.1233 -1.4936 -0.2283
  100SAPC  C214 9988   6.791   5.730   3.230  0.3914 -0.3337 -0.2038
  100SAPC  H14R 9989   6.862   5.789   3.170 -0.2158  1.7885  1.0147
  100SAPC  C215 9990   6.837   5.687   3.350  0.3137  0.4044 -0.2567
  100SAPC  H15R 9991   6.941   5.704   3.381  0.8685 -2.3559 -0.3362
  100SAPC  C216 9992   6.751   5.604   3.446  0.1703 -0.7316  0.1652
  100SAPC  H16R 9993   6.793   5.511   3.491 -1.3531 -1.3688  0.3472
  100SAPC  H16S 9994   6.659   5.570   3.393 -0.0812 -0.8742  0.6821
  100SAPC  C217 9995   6.702   5.680   3.570 -0.2446 -0.2037  0.0330
  100SAPC  H17R 9996   6.633   5.608   3.620  1.7227 -1.5442  0.9347
  100SAPC  H17S 9997   6.646   5.772   3.545 -0.7225 -0.0562  1.5406
  100SAPC  C218 9998   6.801   5.708   3.680 -0.9420 -0.1016 -0.3578
  100SAPC  H18R 9999   6.887   5.760   3.632 -0.0331 -1.4230 -0.1936
  100SAPC  H18S10000   6.847   5.611   3.708 -0.2409  0.5047  0.6913
  100SAPC  C21910001   6.740   5.778   3.802  0.0424  0.5778 -0.7540
  100SAPC  H19R10002   6.653   5.733   3.855  1.8708 -0.5058  1.5125
  100SAPC  H19S10003   6.693   5.867   3.756 -0.3878 -0.0409 -1.5337
  100SAPC  C22010004   6.855   5.824   3.895  0.3727  0.9604 -0.9737
  100SAPC  H20R10005   6.907   5.739   3.945 -1.1671  0.4229 -0.2458
  100SAPC  H20S10006   6.823   5.882   3.984  0.7022 -1.4660  0.8462
  100SAPC  H20T10007   6.928   5.879   3.831 -1.3592  3.3107 -1.0500
  100SAPC   C3310008   5.971   6.446   2.535  0.4541 -1.6721  0.2723
  100SAPC   H3X10009   6.028   6.356   2.502 -0.5258 -0.9770 -3.8903
  100SAPC   H3Y10010   5.885   6.401   2.590  0.1159  1.0384  2.1688
  100SAPC   C3410011   6.048   6.531   2.642  0.1929  0.4187 -0.5341
  100SAPC   H4X10012   5.985   6.618   2.669 -0.0651  0.3638 -0.9490
  100SAPC   H4Y10013   6.132   6.574   2.584  0.0905  2.1195  0.5352
  100SAPC   C3510014   6.102   6.460   2.772 -0.2038  0.9616  0.2833
  100SAPC   H5X10015   6.159   6.534   2.831 -0.1816 -0.2860  1.9009
  100SAPC   H5Y10016   6.172   6.375   2.753  0.1635  1.4126 -0.3995
  100SAPC   C3610017   5.994   6.406   2.879  0.3457 -0.1722  0.6200
  100SAPC   H6X10018   5.959   6.303   2.856 -1.1460  0.6453 -0.9563
  100SAPC   H6Y10019   5.906   6.471   2.862 -0.5854 -1.3927  0.6250
  100SAPC   C3710020   6.050   6.391   3.021  0.5823 -0.4485 -0.2790
  100SAPC   H7X10021   6.092   6.492   3.041 -1.8402  1.0982 -2.3630
  100SAPC   H7Y10022   6.138   6.323   3.017 -0.1274 -1.7589  3.1669
  100SAPC   C3810023   5.957   6.349   3.137  0.4836  0.4080 -0.1927
  100SAPC   H8X10024   5.923   6.243   3.134  0.4669  0.3109  1.8536
  100SAPC   H8Y10025   5.875   6.424   3.142  1.1868  1.1365  0.7795
  100SAPC   C3910026   6.023   6.370   3.273 -0.3664  0.4245 -0.5220
  100SAPC   H9X10027   6.065   6.473   3.279 -1.1512  0.7349 -0.1502
  100SAPC   H9Y10028   6.111   6.303   3.271 -0.2752  0.3612  1.8752
  100SAPC  C31010029   5.945   6.327   3.393  0.6377 -0.0603 -0.1674
  100SAPC  H10X10030   5.932   6.219   3.371  0.2512 -0.1937  0.6653
  100SAPC  H10Y10031   5.845   6.376   3.398  0.1956 -0.7453 -1.5976
  100SAPC  C31110032   6.026   6.344   3.523 -0.2569  0.3878  0.2247
  100SAPC  H11X10033   6.128   6.301   3.512 -0.4374  0.2145 -0.8804
  100SAPC  H11Y10034   5.975   6.304   3.613  0.5041  1.1593  1.0215
  100SAPC  C31210035   6.037   6.497   3.557  0.4068 -0.2017 -0.7137
  100SAPC  H12X10036   5.941   6.548   3.536  0.3153  0.6232  1.5026
  100SAPC  H12Y10037   6.110   6.551   3.493  0.5589  1.9530  1.1471
  100SAPC  C31310038   6.069   6.522   3.709 -0.0250 -0.4094 -0.0592
  100SAPC  H13X10039   6.129   6.613   3.730 -0.1056 -0.4780  0.4863
  100SAPC  H13Y10040   6.128   6.443   3.759  0.7688 -0.5102 -1.1222
  100SAPC  C31410041   5.936   6.534   3.783 -0.0168 -0.2373 -0.3861
  100SAPC  H14X10042   5.871   6.455   3.742  0.1462  0.7095 -2.6198
  100SAPC  H14Y10043   5.896   6.632   3.749 -1.0261  0.5186  2.6334
  100SAPC  C31510044   5.946   6.525   3.938  0.6887 -0.2993  0.3864
  100SAPC  H15X10045   6.036   6.585   3.966 -0.8856  0.7723  3.7431
  100SAPC  H15Y10046   5.970   6.421   3.969  0.6957 -0.1211  0.9923
  100SAPC  C31610047   5.817   6.566   4.020  0.0980 -0.1668 -0.1793
  100SAPC  H16X10048   5.735   6.503   3.978 -0.3300 -0.7491  1.4579
  100SAPC  H16Y10049   5.809   6.677   4.015 -2.9435 -0.2814  0.3752
  100SAPC  C31710050   5.809   6.549   4.171  0.2457 -0.6583 -0.6934
  100SAPC  H17X10051   5.723   6.606   4.212 -0.2729 -0.7913 -1.5619
  100SAPC  H17Y10052   5.896   6.598   4.219 -1.1101 -0.4457  1.7532
  100SAPC  C31810053   5.793   6.402   4.219 -0.4833  1.2877  0.3886
  100SAPC  H18X10054   5.697   6.354   4.193 -0.0731  0.6652 -0.0018
  100SAPC  H18Y10055   5.801   6.413   4.329 -0.2446 -0.8931  0.6321
  100SAPC  H18Z10056   5.864   6.331   4.171 -3.8399 -0.4277 -2.4822
  101OSM      N10057   3.010   5.973   6.874 -0.1366  0.2118  0.4843
  101OSM    C1510058   3.017   5.971   7.027  0.0893  0.2562 -0.4057
  101OSM   H15A10059   3.118   5.949   7.058 -0.5703  1.2387  2.7295
  101OSM   H15B10060   2.952   5.892   7.063  1.7954 -0.4373  1.3380
  101OSM   H15C10061   2.988   6.065   7.070 -1.5007 -0.1066 -0.5944
  101OSM    C1410062   3.046   5.834   6.824 -0.0600  0.4694  0.3440
  101OSM   H14A10063   3.146   5.804   6.853 -0.6781 -0.9644  1.0743
  101OSM   H14B10064   3.034   5.833   6.717  1.8600  3.7985 -0.0444
  101OSM   H14C10065   2.975   5.761   6.861  1.4025 -1.6894 -0.8807
  101OSM    C1310066   2.869   6.004   6.835 -0.8236  0.2130 -0.0480
  101OSM   H13A10067   2.806   5.947   6.902  0.1185  0.6126  1.2195
  101OSM   H13B10068   2.852   5.986   6.730 -0.6953 -0.3095  0.0190
  101OSM   H13C10069   2.837   6.105   6.857 -1.8554 -0.1186  0.0061
  101OSM    C1210070   3.094   6.083   6.818  0.4746 -0.7226  0.3564
  101OSM   H12A10071   3.194   6.052   6.843  0.3017 -0.9901  0.7389
  101OSM   H12B10072   3.086   6.172   6.880  2.1941  0.1703 -0.6435
  101OSM    C1110073   3.087   6.125   6.666 -0.1644  0.5191 -0.2399
  101OSM   H11A10074   3.167   6.198   6.641  0.9386 -0.3875  0.5565
  101OSM   H11B10075   2.994   6.176   6.633  0.0598  0.9260 -0.2418
  101OSM      P10076   3.054   5.973   6.453  0.5569 -0.5027 -0.1389
  101OSM    O1310077   3.141   5.875   6.389 -0.0662  0.4687  0.3847
  101OSM    O1410078   2.913   5.942   6.469 -0.1162  0.2617  0.1674
  101OSM    O1110079   3.073   6.115   6.381  0.1124  0.1922  0.1181
  101OSM    O1210080   3.125   6.013   6.587 -0.8651 -0.0461 -0.1762
  101OSM    C1S10081   3.201   6.164   6.343 -0.1837 -0.1722 -0.6181
  101OSM    H1S10082   3.277   6.086   6.321  0.4288  0.2367  0.0070
  101OSM    H1T10083   3.241   6.222   6.429  0.0287  0.3586 -1.0766
  101OSM     NF10084   3.322   6.277   6.153 -0.2818 -0.0381  0.4370
  101OSM    HNF10085   3.347   6.372   6.141  0.7707 -0.3009  0.4340
  101OSM    C2S10086   3.197   6.256   6.220 -0.0627 -0.5545 -0.2268
  101OSM    H2S10087   3.135   6.193   6.153 -0.2846  0.0179 -0.5664
  101OSM    C3S10088   3.107   6.387   6.240 -0.0326  0.2863  0.1228
  101OSM    H3S10089   3.145   6.458   6.317 -1.3572  0.9510  0.1834
  101OSM     O310090   2.984   6.346   6.286  0.7363  0.1835  0.2576
  101OSM    HO310091   2.984   6.250   6.280 -1.2028  0.2252 -1.3939
  101OSM    C4S10092   3.094   6.466   6.111  0.0614  0.3267 -0.1879
  101OSM    H4S10093   3.017   6.423   6.045  0.6465 -0.0759 -0.6220
  101OSM    C5S10094   3.155   6.586   6.081 -0.4945  0.7323 -0.6129
  101OSM    H5S10095   3.221   6.631   6.157 -1.8113  0.4581  0.7401
  101OSM    C6S10096   3.135   6.670   5.959  0.1706  0.9542 -0.3303
  101OSM    H6S10097   3.236   6.714   5.944  1.4929 -1.2035  1.6183
  101OSM    H6T10098   3.066   6.753   5.983 -2.5554  0.2000 -4.5192
  101OSM    C7S10099   3.082   6.594   5.828  0.1581 -0.3099 -0.5297
  101OSM    H7S10100   3.144   6.523   5.769  1.2477  1.4322 -1.5548
  101OSM    H7T10101   3.057   6.677   5.758 -1.3925 -0.5387 -0.2997
  101OSM    C8S10102   2.944   6.521   5.837  0.1203  0.5333  0.5600
  101OSM    H8S10103   2.893   6.560   5.927 -0.2594 -0.5722  0.8346
  101OSM    H8T10104   2.971   6.414   5.854 -1.0762  0.1079 -0.0826
  101OSM    C9S10105   2.863   6.542   5.708  0.2200 -0.3418  0.2977
  101OSM    H9S10106   2.831   6.648   5.704  0.4485 -0.3114 -1.5948
  101OSM    H9T10107   2.773   6.477   5.702 -0.8261  0.9401  1.4916
  101OSM   C10S10108   2.943   6.529   5.581  0.0401 -0.0080  0.8830
  101OSM   H10S10109   2.998   6.433   5.591  0.8949  0.4122  0.3312
  101OSM   H10T10110   3.014   6.615   5.574 -0.8275  0.5668 -2.2405
  101OSM   C11S10111   2.856   6.523   5.448  0.1549 -0.6573 -0.0984
  101OSM   H11S10112   2.822   6.627   5.430 -1.7908 -1.0204  1.1719
  101OSM   H11T10113   2.783   6.442   5.469 -0.0083 -0.1686  1.3730
  101OSM   C12S10114   2.938   6.479   5.325  0.8722 -0.4171 -0.3075
  101OSM   H12S10115   2.870   6.480   5.238 -0.5027  1.3657  0.7228
  101OSM   H12T10116   2.971   6.373   5.336  0.1389 -0.5985  0.1851
  101OSM   C13S10117   3.065   6.557   5.294 -0.5163 -0.2391 -0.2102
  101OSM   H13S10118   3.140   6.546   5.375 -1.2100  0.0646  0.4972
  101OSM   H13T10119   3.039   6.664   5.312  1.7807  0.2730  0.4130
  101OSM   C14S10120   3.136   6.545   5.151  0.2246 -0.0392 -0.5307
  101OSM   H14S10121   3.153   6.436   5.144  0.8793  0.1164 -1.7773
  101OSM   H14T10122   3.239   6.588   5.149  0.4780 -0.5613  0.6255
  101OSM   C15S10123   3.051   6.592   5.035 -0.2597 -0.4011  0.4048
  101OSM   H15S10124   3.009   6.695   5.035  0.1441 -0.2030  2.3482
  101OSM   H15T10125   2.961   6.526   5.032 -1.7204  1.4471 -3.6804
  101OSM   C16S10126   3.143   6.571   4.921 -0.1859  0.0912  0.9600
  101OSM   H16S10127   3.204   6.478   4.930  0.3935  0.3856  0.2577
  101OSM   H16T10128   3.204   6.663   4.932 -1.5775  1.2877 -0.8410
  101OSM   C17S10129   3.083   6.574   4.771  0.0264  0.3291  0.0550
  101OSM   H17S10130   3.074   6.683   4.751  2.9785  0.5730 -0.4667
  101OSM   H17T10131   2.987   6.519   4.760 -1.3272  2.7819 -1.2056
  101OSM   C18S10132   3.190   6.525   4.671  0.0076 -0.3720 -0.4581
  101OSM   H18S10133   3.158   6.520   4.565  1.1240 -0.1248 -0.8172
  101OSM   H18T10134   3.211   6.421   4.703  0.5810  0.1823  1.0549
  101OSM   H18U10135   3.291   6.571   4.677 -0.0397 -0.3590  0.3668
  101OSM    C1F10136   3.412   6.191   6.104  0.0694  1.1250 -0.1261
  101OSM     OF10137   3.402   6.069   6.116 -0.8181 -0.6192 -0.1434
  101OSM    C2F10138   3.527   6.254   6.044 -0.1460  0.1748  1.0451
  101OSM    H2F10139   3.588   6.170   6.004 -1.2102 -0.2080  0.1948
  101OSM    H2G10140   3.585   6.309   6.122  1.8952 -0.0953 -0.2151
  101OSM    C3F10141   3.497   6.337   5.921 -0.0143  0.3550 -0.0069
  101OSM    H3F10142   3.592   6.386   5.894  1.0371 -0.6749  1.6588
  101OSM    H3G10143   3.420   6.409   5.956 -0.0943  0.4692 -0.4125
  101OSM    C4F10144   3.444   6.250   5.803 -0.5895 -0.5006  0.2456
  101OSM    H4F10145   3.346   6.202   5.823  0.2504 -2.8700 -0.8755
  101OSM    H4G10146   3.511   6.162   5.789  1.0950  0.5573  1.2941
  101OSM    C5F10147   3.429   6.330   5.673  0.4323  0.2367 -0.5780
  101OSM    H5F10148   3.528   6.365   5.635  0.3864  0.1920 -0.7354
  101OSM    H5G10149   3.376   6.423   5.703  1.6422  1.0354 -0.8171
  101OSM    C6F10150   3.350   6.248   5.568 -0.0579  0.3938 -0.1308
  101OSM    H6F10151   3.250   6.222   5.609 -0.3821  3.1375  0.9983
  101OSM    H6G10152   3.411   6.158   5.543  2.2474  2.2263 -1.5352
  101OSM    C7F10153   3.328   6.323   5.439  0.5475 -0.1756 -0.9721
  101OSM    H7F10154   3.306   6.431   5.454 -0.7732 -0.3186 -1.6895
  101OSM    H7G10155   3.246   6.277   5.379  0.3408 -0.5291 -0.4266
  101OSM    C8F10156   3.447   6.329   5.343  0.3566 -0.1653 -0.1240
  101OSM    H8F10157   3.548   6.349   5.384 -0.3861  1.4557  1.0572
  101OSM    H8G10158   3.427   6.420   5.281  0.1405  0.3749  0.7190
  101OSM    C9F10159   3.463   6.207   5.253  0.5907 -0.6776  0.2114
  101OSM    H9F10160   3.464   6.112   5.308 -0.8929 -0.5003  0.5691
  101OSM   C10F10161   3.448   6.213   5.117 -0.4733  0.2009  0.8729
  101OSM   H10F10162   3.449   6.115   5.066 -1.9415  0.7595 -0.2911
  101OSM   C11F10163   3.419   6.341   5.029  1.1023 -0.1706 -0.0735
  101OSM   H11F10164   3.379   6.422   5.094  0.1835 -0.0798 -0.7335
  101OSM   H11G10165   3.356   6.317   4.941 -1.2105  0.8028  1.2268
  101OSM   C12F10166   3.548   6.408   4.982 -0.3310  0.5856  0.0612
  101OSM   H12F10167   3.617   6.437   5.065 -1.9281 -0.8487  1.9572
  101OSM   H12G10168   3.511   6.497   4.926 -1.8109  0.7065  1.1790
  101OSM   C13F10169   3.620   6.317   4.888  0.3658  0.3683 -0.1880
  101OSM   H13F10170   3.536   6.278   4.826 -0.9468  1.1296  1.0520
  101OSM   H13G10171   3.664   6.233   4.945 -1.3523 -0.1539  0.4276
  101OSM   C14F10172   3.725   6.393   4.806 -0.2277 -0.2652 -0.0606
  101OSM   H14F10173   3.799   6.430   4.881  1.5035 -3.0793 -0.2070
  101OSM   H14G10174   3.686   6.472   4.739  2.1220 -0.1279 -1.3813
  101OSM   C15F10175   3.808   6.291   4.724  0.8791 -0.6352  0.1112
  101OSM   H15F10176   3.736   6.239   4.657  1.6651  0.3589 -1.5626
  101OSM   H15G10177   3.864   6.220   4.789 -0.9779 -0.0660  2.4927
  101OSM   C16F10178   3.900   6.362   4.625 -0.4779  0.7868  0.7014
  101OSM   H16F10179   3.848   6.432   4.557 -1.1520 -0.8068 -0.4689
  101OSM   H16G10180   3.946   6.290   4.555  1.8640  0.5955  2.3080
  101OSM   C17F10181   4.010   6.442   4.691  0.1469  0.1756 -0.0374
  101OSM   H17F10182   3.962   6.499   4.774 -2.2768 -1.2563 -0.3376
  101OSM   H17G10183   4.036   6.524   4.622 -1.0737  0.5265 -0.1012
  101OSM   C18F10184   4.125   6.350   4.743  0.3106  0.9665  0.5095
  101OSM   H18F10185   4.212   6.401   4.790  1.0014  0.0525  0.2567
  101OSM   H18G10186   4.176   6.300   4.658  0.8620 -0.1665  1.4802
  101OSM   H18H10187   4.085   6.277   4.816  1.7620 -0.4504 -0.0587
  102OSM      N10188   2.143   6.374   6.640 -0.0843 -0.1364 -0.2372
  102OSM    C1510189   2.251   6.281   6.582 -0.8494  0.0444 -0.8176
  102OSM   H15A10190   2.220   6.179   6.569  0.5032 -0.0880 -3.6300
  102OSM   H15B10191   2.336   6.279   6.649 -1.8680 -1.8044  0.5172
  102OSM   H15C10192   2.300   6.326   6.497  0.0951  1.4904  0.4210
  102OSM    C1410193   2.222   6.493   6.679  0.4752  0.0375 -0.8102
  102OSM   H14A10194   2.170   6.557   6.748  0.0146 -0.1316 -0.9924
  102OSM   H14B10195   2.252   6.538   6.585 -0.4847  2.2518 -0.1082
  102OSM   H14C10196   2.315   6.469   6.728 -1.1098 -1.1741  1.8320
  102OSM    C1310197   2.044   6.417   6.535 -0.0155 -0.4775 -0.3088
  102OSM   H13A10198   1.969   6.485   6.571  1.4738  0.8672  0.3531
  102OSM   H13B10199   1.992   6.331   6.495 -3.0155  0.6134  0.9642
  102OSM   H13C10200   2.088   6.473   6.454 -1.6928 -3.7330 -3.8139
  102OSM    C1210201   2.068   6.294   6.741 -0.2030  0.4205  0.0361
  102OSM   H12A10202   2.003   6.355   6.803 -0.4548 -0.0719  0.2622
  102OSM   H12B10203   2.138   6.246   6.807 -0.7920 -0.7340 -0.1583
  102OSM    C1110204   1.988   6.167   6.694  0.0037  0.0505 -0.2985
  102OSM   H11A10205   1.902   6.197   6.631  0.2044  0.7075 -0.2687
  102OSM   H11B10206   1.951   6.120   6.788  0.3493 -0.1210 -0.2448
  102OSM      P10207   1.988   5.930   6.583 -0.0626 -0.5849 -0.2061
  102OSM    O1310208   2.095   5.855   6.508  0.1497  0.3316  0.1923
  102OSM    O1410209   1.927   5.870   6.703  0.3333 -0.4054  0.8965
  102OSM    O1110210   1.875   5.980   6.482  0.1336 -0.0752 -0.4388
  102OSM    O1210211   2.061   6.065   6.625 -0.1236 -0.2574  1.4216
  102OSM    C1S10212   1.912   6.029   6.351  0.1067  0.6087  0.3127
  102OSM    H1S10213   1.958   5.946   6.291 -0.0854  0.3844  0.4749
  102OSM    H1T10214   1.991   6.107   6.350  0.2692  0.5128  2.4159
  102OSM     NF10215   1.821   6.135   6.149  0.1941  0.5348  0.6786
  102OSM    HNF10216   1.863   6.225   6.144 -1.1281  1.1232 -0.2517
  102OSM    C2S10217   1.789   6.082   6.282 -0.2432 -0.1473  0.4247
  102OSM    H2S10218   1.711   6.006   6.260 -0.1335  0.0288 -0.6126
  102OSM    C3S10219   1.720   6.187   6.383 -0.2251  0.1750 -0.2985
  102OSM    H3S10220   1.802   6.250   6.424  0.7254 -0.6077 -0.9271
  102OSM     O310221   1.645   6.127   6.495 -0.0461 -1.2228 -0.3438
  102OSM    HO310222   1.691   6.044   6.515 -0.4456 -1.3903 -0.1181
  102OSM    C4S10223   1.617   6.260   6.306 -0.3786 -0.5612 -0.0640
  102OSM    H4S10224   1.555   6.201   6.236  0.0918  2.3612 -3.1626
  102OSM    C5S10225   1.620   6.397   6.288 -0.1560  0.3045 -0.3617
  102OSM    H5S10226   1.707   6.442   6.339  0.3144 -1.0628  0.0863
  102OSM    C6S10227   1.535   6.472   6.188 -0.0121 -0.1114  0.4789
  102OSM    H6S10228   1.590   6.554   6.138 -1.3176 -0.4732 -1.6783
  102OSM    H6T10229   1.442   6.513   6.234  0.1476  0.3705  0.3769
  102OSM    C7S10230   1.489   6.383   6.067  0.0564  0.0691 -0.5534
  102OSM    H7S10231   1.413   6.310   6.103 -0.4134  0.6680 -0.3279
  102OSM    H7T10232   1.581   6.336   6.026  1.7775  0.6034  2.4116
  102OSM    C8S10233   1.420   6.461   5.957 -0.1132 -0.1579 -0.0513
  102OSM    H8S10234   1.486   6.541   5.917 -0.1368  0.5471  1.2698
  102OSM    H8T10235   1.339   6.520   6.006 -0.0110 -0.1197  0.0751
  102OSM    C9S10236   1.357   6.372   5.849 -0.6314 -1.0540 -0.2172
  102OSM    H9S10237   1.300   6.294   5.903  2.2388 -2.2952  1.2352
  102OSM    H9T10238   1.442   6.324   5.796  1.5944  0.4583  1.7625
  102OSM   C10S10239   1.269   6.455   5.752  0.4557  0.7104 -0.6163
  102OSM   H10S10240   1.341   6.529   5.710  1.5306  0.8317  1.3135
  102OSM   H10T10241   1.188   6.503   5.811 -0.4508 -0.4120 -0.9279
  102OSM   C11S10242   1.220   6.366   5.633  0.5705  0.1805 -0.1964
  102OSM   H11S10243   1.130   6.310   5.667  0.6872 -0.1547 -0.4390
  102OSM   H11T10244   1.302   6.294   5.614  0.7143  0.5799 -1.1213
  102OSM   C12S10245   1.188   6.444   5.504 -0.1448  0.0380 -0.1613
  102OSM   H12S10246   1.278   6.502   5.472  1.4737 -2.5856 -0.7218
  102OSM   H12T10247   1.107   6.517   5.523  0.4859  0.6807  0.1217
  102OSM   C13S10248   1.157   6.353   5.384  0.8174 -0.0670 -0.2820
  102OSM   H13S10249   1.078   6.286   5.424  1.8149 -1.1193 -0.0140
  102OSM   H13T10250   1.248   6.293   5.361  0.1560 -1.1817 -0.0672
  102OSM   C14S10251   1.103   6.426   5.261 -0.0615 -0.8069  0.3301
  102OSM   H14S10252   1.182   6.498   5.235 -1.6411  0.8165 -0.1742
  102OSM   H14T10253   1.015   6.491   5.282  0.3941 -0.5520  1.5404
  102OSM   C15S10254   1.074   6.330   5.147  0.0886 -0.4991  0.1666
  102OSM   H15S10255   0.990   6.262   5.175  1.0253 -2.2456 -1.0632
  102OSM   H15T10256   1.169   6.276   5.130  1.5695  2.2129 -0.7863
  102OSM   C16S10257   1.037   6.404   5.008 -0.4496 -0.3705  0.2101
  102OSM   H16S10258   1.111   6.485   4.990  1.4149 -2.5296 -2.8300
  102OSM   H16T10259   0.937   6.449   5.028 -0.1489 -0.1740  1.3399
  102OSM   C17S10260   1.024   6.305   4.893 -0.1479  0.2093  0.1632
  102OSM   H17S10261   0.940   6.347   4.833  0.2232  0.8598  0.0938
  102OSM   H17T10262   0.980   6.208   4.926 -0.9621  1.1675  2.0459
  102OSM   C18S10263   1.154   6.269   4.816 -0.1207  0.1284 -0.4030
  102OSM   H18S10264   1.217   6.209   4.885 -2.0377  0.0327  1.3677
  102OSM   H18T10265   1.200   6.365   4.785  0.5152 -0.4124 -1.1883
  102OSM   H18U10266   1.130   6.216   4.721  0.2156  1.8573 -1.4950
  102OSM    C1F10267   1.852   6.048   6.055  0.4769 -0.1740 -0.0548
  102OSM     OF10268   1.854   5.928   6.088  0.2243 -0.3228  0.2012
  102OSM    C2F10269   1.899   6.100   5.921  0.1702  1.1215 -0.1405
  102OSM    H2F10270   2.000   6.063   5.894 -0.4083 -0.5690 -0.0747
  102OSM    H2G10271   1.911   6.211   5.923  0.6168  1.0758 -0.2554
  102OSM    C3F10272   1.785   6.077   5.823 -0.2948  0.3086  0.8949
  102OSM    H3F10273   1.684   6.096   5.863 -0.2024  0.3570  1.1079
  102OSM    H3G10274   1.786   5.973   5.785  0.0434  0.9020 -0.8409
  102OSM    C4F10275   1.795   6.168   5.698  0.3713  0.1818  0.2044
  102OSM    H4F10276   1.898   6.162   5.656 -0.6020  0.1799 -2.3961
  102OSM    H4G10277   1.778   6.268   5.742 -0.9044 -1.1168  2.8884
  102OSM    C5F10278   1.689   6.131   5.595 -0.1809  0.0127 -0.0009
  102OSM    H5F10279   1.592   6.140   5.649 -0.7449  1.4008 -1.2125
  102OSM    H5G10280   1.695   6.023   5.571 -2.9232 -0.6809  1.9144
  102OSM    C6F10281   1.699   6.216   5.467  1.3048 -0.6579  0.5613
  102OSM    H6F10282   1.781   6.177   5.404 -0.2042 -0.8893 -1.3698
  102OSM    H6G10283   1.717   6.323   5.489 -0.4868  0.1586 -1.5285
  102OSM    C7F10284   1.565   6.224   5.379 -0.1908 -0.2959 -0.1485
  102OSM    H7F10285   1.474   6.232   5.443 -0.4657  0.7875 -0.6447
  102OSM    H7G10286   1.551   6.126   5.329 -1.9916 -0.7972  1.1953
  102OSM    C8F10287   1.576   6.317   5.248 -0.4785  0.9568 -0.5107
  102OSM    H8F10288   1.613   6.407   5.302  2.8606 -2.0312  2.6744
  102OSM    H8G10289   1.482   6.342   5.193 -0.9457 -1.7618 -1.1122
  102OSM    C9F10290   1.684   6.258   5.161  0.5614 -0.0379 -0.7421
  102OSM    H9F10291   1.782   6.261   5.211  0.0561 -0.5146  0.3280
  102OSM   C10F10292   1.666   6.223   5.035 -0.9097 -0.2057 -1.3585
  102OSM   H10F10293   1.758   6.188   4.985  1.1538  1.0274  1.2893
  102OSM   C11F10294   1.541   6.212   4.958  0.4159 -0.4234  0.4026
  102OSM   H11F10295   1.531   6.279   4.870  0.0288  1.2027  1.6525
  102OSM   H11G10296   1.453   6.227   5.024  0.0987 -0.8572  0.0815
  102OSM   C12F10297   1.520   6.071   4.894 -0.4896  0.2692  0.0257
  102OSM   H12F10298   1.413   6.067   4.863 -1.2517 -0.0780  2.5120
  102OSM   H12G10299   1.534   5.998   4.977 -2.5631 -0.8029 -0.4980
  102OSM   C13F10300   1.616   6.031   4.781  0.0381  0.7282 -0.4469
  102OSM   H13F10301   1.720   6.049   4.818  0.0909 -1.7948  0.8837
  102OSM   H13G10302   1.602   6.092   4.690  0.1246  1.1514 -0.1773
  102OSM   C14F10303   1.616   5.878   4.741 -0.0990  0.7321 -0.8405
  102OSM   H14F10304   1.509   5.850   4.730 -0.7801  2.4340  0.8569
  102OSM   H14G10305   1.662   5.824   4.827  0.1239  2.2172  0.0117
  102OSM   C15F10306   1.705   5.838   4.616 -0.2658 -0.1943 -0.2575
  102OSM   H15F10307   1.695   5.900   4.525 -1.3120 -1.2794 -0.8965
  102OSM   H15G10308   1.671   5.735   4.592  0.1717 -0.3007 -0.4433
  102OSM   C16F10309   1.855   5.828   4.653  0.3680  0.2271 -1.0394
  102OSM   H16F10310   1.860   5.744   4.725 -2.7517 -0.9913 -2.0774
  102OSM   H16G10311   1.887   5.916   4.714  1.0999 -1.3342  0.9475
  102OSM   C17F10312   1.949   5.792   4.537 -0.3931 -0.4651 -0.1140
  102OSM   H17F10313   1.956   5.881   4.471  1.5206 -0.7332 -0.3140
  102OSM   H17G10314   1.903   5.711   4.475 -2.1645  0.5967 -0.2760
  102OSM   C18F10315   2.093   5.753   4.577  0.3491  0.8146 -0.0414
  102OSM   H18F10316   2.134   5.828   4.647 -0.5730  1.8239 -0.5446
  102OSM   H18G10317   2.153   5.759   4.483  1.1812 -0.7024  0.3574
  102OSM   H18H10318   2.096   5.650   4.619 -2.4571  0.4902 -0.4314
  103OSM      N10319   1.602   2.464   6.346 -0.0407  0.2378  0.3241
  103OSM    C1510320   1.636   2.328   6.294  0.8796 -0.3478 -0.7179
  103OSM   H15A10321   1.551   2.265   6.272 -0.5918  0.0816  3.0435
  103OSM   H15B10322   1.685   2.269   6.370 -0.5525 -0.1975  0.3522
  103OSM   H15C10323   1.693   2.341   6.203  1.4161  1.1089 -0.1943
  103OSM    C1410324   1.719   2.523   6.397 -0.1852  0.2103  0.4812
  103OSM   H14A10325   1.789   2.523   6.315 -0.7660 -1.2497 -0.0480
  103OSM   H14B10326   1.757   2.468   6.482  0.8613 -0.3537 -0.3204
  103OSM   H14C10327   1.689   2.621   6.430 -0.5551  0.4035 -0.4190
  103OSM    C1310328   1.549   2.551   6.234 -0.1066  0.2483  0.1363
  103OSM   H13A10329   1.620   2.551   6.153  0.8635 -1.5296  0.9108
  103OSM   H13B10330   1.548   2.649   6.280 -2.0391 -0.3719  1.5303
  103OSM   H13C10331   1.450   2.524   6.201 -1.0455  1.0573  2.1228
  103OSM    C1210332   1.496   2.462   6.454 -0.0986  0.0285  0.0371
  103OSM   H12A10333   1.399   2.439   6.412  1.1342 -4.0447 -1.0511
  103OSM   H12B10334   1.477   2.560   6.494  0.0424  0.9532 -2.0514
  103OSM    C1110335   1.509   2.363   6.572 -0.0752 -0.2114 -0.3606
  103OSM   H11A10336   1.595   2.368   6.642 -0.8958 -1.2734  0.7604
  103OSM   H11B10337   1.521   2.261   6.531  1.3382  0.9289 -3.0760
  103OSM      P10338   1.280   2.266   6.663 -0.0633 -0.3204  0.1158
  103OSM    O1310339   1.340   2.133   6.690 -0.0637 -0.1198  0.1600
  103OSM    O1410340   1.179   2.308   6.764 -0.8916  0.0947  0.2714
  103OSM    O1110341   1.206   2.262   6.524 -1.0253 -0.3515 -0.3307
  103OSM    O1210342   1.391   2.375   6.652 -0.4005  0.0459  0.0683
  103OSM    C1S10343   1.125   2.365   6.473 -0.1232 -0.3404  0.1127
  103OSM    H1S10344   1.177   2.463   6.466 -0.7627  0.0058  0.0899
  103OSM    H1T10345   1.038   2.386   6.538 -0.4965  2.3092 -1.0916
  103OSM     NF10346   1.017   2.438   6.264 -0.3134  0.1990 -0.6380
  103OSM    HNF10347   0.921   2.456   6.284 -0.0910 -0.8795  1.6888
  103OSM    C2S10348   1.080   2.322   6.332 -0.1472 -0.0569  0.3306
  103OSM    H2S10349   1.166   2.289   6.269 -0.9872  0.0441 -0.8999
  103OSM    C3S10350   0.989   2.198   6.332  0.2128  0.4077 -0.5226
  103OSM    H3S10351   0.889   2.222   6.373  0.0502  2.1250 -1.8043
  103OSM     O310352   1.034   2.095   6.420  0.1451  0.4905  0.1967
  103OSM    HO310353   1.102   2.127   6.480  0.1656 -1.1656  1.1237
  103OSM    C4S10354   0.968   2.137   6.200 -0.0798  0.2906  0.8119
  103OSM    H4S10355   1.050   2.078   6.157  0.0999 -0.1522  1.7489
  103OSM    C5S10356   0.849   2.144   6.130  0.1999 -0.2552  0.0120
  103OSM    H5S10357   0.764   2.206   6.162 -0.6248 -0.0035 -2.5039
  103OSM    C6S10358   0.821   2.075   5.997  0.5007 -0.1453  0.5488
  103OSM    H6S10359   0.733   2.008   6.008 -0.3114  0.4792 -1.5922
  103OSM    H6T10360   0.906   2.024   5.947  0.7123  1.0086 -0.3080
  103OSM    C7S10361   0.773   2.174   5.879 -0.1646  0.4881 -0.1615
  103OSM    H7S10362   0.855   2.246   5.858  0.6672 -1.0056 -2.3669
  103OSM    H7T10363   0.675   2.219   5.903 -0.5798  0.9102 -2.4406
  103OSM    C8S10364   0.743   2.086   5.750  0.1352  0.3942  0.3045
  103OSM    H8S10365   0.653   2.022   5.763  1.6932 -1.6524  1.6941
  103OSM    H8T10366   0.825   2.021   5.712 -1.0542 -1.2746  0.4874
  103OSM    C9S10367   0.703   2.174   5.631  0.1819 -0.2142  0.0428
  103OSM    H9S10368   0.793   2.234   5.606  0.1437  0.3733  1.2571
  103OSM    H9T10369   0.630   2.249   5.667 -0.4460  0.0077 -1.5831
  103OSM   C10S10370   0.649   2.096   5.511 -0.0921  0.1230 -0.6209
  103OSM   H10S10371   0.572   2.018   5.532 -1.6505  1.4561 -1.2276
  103OSM   H10T10372   0.738   2.055   5.458  1.1925  1.9781  0.0123
  103OSM   C11S10373   0.585   2.200   5.423  0.6723 -0.2455 -0.1277
  103OSM   H11S10374   0.642   2.294   5.441  2.2137 -1.5675  2.5337
  103OSM   H11T10375   0.489   2.224   5.474  1.1470 -1.8055  1.5851
  103OSM   C12S10376   0.589   2.164   5.273 -0.3048  0.0026 -0.1991
  103OSM   H12S10377   0.532   2.069   5.264 -0.8807  0.3528 -0.2379
  103OSM   H12T10378   0.695   2.147   5.243 -0.9126 -0.2147 -2.3262
  103OSM   C13S10379   0.517   2.271   5.196 -0.2062 -0.0777  0.4512
  103OSM   H13S10380   0.560   2.367   5.232 -3.0151  0.6345  2.3116
  103OSM   H13T10381   0.406   2.272   5.198 -0.2614  0.0655 -1.4818
  103OSM   C14S10382   0.557   2.265   5.046  0.5766  0.5702  0.4618
  103OSM   H14S10383   0.517   2.168   5.009  0.8363  1.5329 -2.5824
  103OSM   H14T10384   0.667   2.267   5.032  0.2065 -0.2316 -3.9238
  103OSM   C15S10385   0.484   2.367   4.959 -0.1994  0.2998 -0.3588
  103OSM   H15S10386   0.524   2.469   4.978 -0.0032  0.4830 -1.7139
  103OSM   H15T10387   0.376   2.365   4.986 -0.4986  2.8250 -1.0893
  103OSM   C16S10388   0.502   2.342   4.812 -0.2741  0.1206  0.5723
  103OSM   H16S10389   0.468   2.241   4.782  0.9606  0.2546 -1.5214
  103OSM   H16T10390   0.607   2.334   4.778  0.1081  0.3699  1.6447
  103OSM   C17S10391   0.437   2.445   4.719  0.3553 -0.2782  0.1289
  103OSM   H17S10392   0.497   2.539   4.719  0.9429 -0.6498  0.1755
  103OSM   H17T10393   0.337   2.468   4.762  0.6049  0.9551  0.0944
  103OSM   C18S10394   0.412   2.401   4.574  0.3085 -0.0131 -0.4452
  103OSM   H18S10395   0.374   2.489   4.518  1.5279  1.3140  0.7271
  103OSM   H18T10396   0.341   2.316   4.580 -0.5849  0.5427 -2.5403
  103OSM   H18U10397   0.510   2.365   4.537  0.3669 -2.5548  1.8831
  103OSM    C1F10398   1.087   2.537   6.226 -0.7914  0.3327 -0.5632
  103OSM     OF10399   1.209   2.545   6.247 -0.3238  0.0474  0.5306
  103OSM    C2F10400   1.006   2.640   6.152 -0.0987 -0.2338 -0.6421
  103OSM    H2F10401   1.057   2.739   6.159 -3.3271  1.6630 -2.1265
  103OSM    H2G10402   0.916   2.657   6.214  0.4997  1.8379 -0.2579
  103OSM    C3F10403   0.971   2.584   6.015 -0.4619 -0.2866 -0.9198
  103OSM    H3F10404   0.905   2.659   5.967 -0.4038  0.0745 -0.4449
  103OSM    H3G10405   0.916   2.488   6.014  0.4350 -0.8660  1.0444
  103OSM    C4F10406   1.094   2.569   5.922 -0.2504  0.6813 -0.0649
  103OSM    H4F10407   1.180   2.510   5.960 -0.1336  0.6900 -0.3138
  103OSM    H4G10408   1.134   2.671   5.902  1.3749  0.4492  1.7221
  103OSM    C5F10409   1.051   2.498   5.796 -0.2605  0.1212  0.2546
  103OSM    H5F10410   0.991   2.406   5.812 -1.5338  0.8281 -0.3109
  103OSM    H5G10411   1.140   2.459   5.742  0.1937  1.1916  0.2041
  103OSM    C6F10412   0.977   2.586   5.702 -0.2128  0.0156 -0.1561
  103OSM    H6F10413   1.023   2.686   5.692  1.2659 -0.5455  0.6375
  103OSM    H6G10414   0.879   2.617   5.746 -0.0690  0.4689 -0.1495
  103OSM    C7F10415   0.965   2.512   5.573 -0.1799 -0.0719  0.7201
  103OSM    H7F10416   0.906   2.419   5.591 -0.6641  0.2472  0.8017
  103OSM    H7G10417   1.059   2.467   5.536 -0.7733 -1.6658  1.0713
  103OSM    C8F10418   0.887   2.590   5.466 -0.0905  0.0000 -0.0594
  103OSM    H8F10419   0.944   2.683   5.444  0.9399 -0.6109 -0.0653
  103OSM    H8G10420   0.788   2.613   5.509  1.0495  0.6281  2.4430
  103OSM    C9F10421   0.871   2.515   5.337  0.2376  0.4242 -0.4101
  103OSM    H9F10422   0.861   2.406   5.345  0.5198  0.3900 -0.5251
  103OSM   C10F10423   0.859   2.569   5.215  0.6383  0.2450  0.0353
  103OSM   H10F10424   0.855   2.497   5.132  2.7560 -0.0171  0.1000
  103OSM   C11F10425   0.870   2.716   5.183 -0.6474  0.1612 -0.2496
  103OSM   H11F10426   0.970   2.745   5.220 -0.7703 -0.4030  0.5582
  103OSM   H11G10427   0.803   2.775   5.249  0.6602  2.6138 -0.9741
  103OSM   C12F10428   0.850   2.758   5.037  0.5747  0.3644 -0.1811
  103OSM   H12F10429   0.928   2.707   4.976 -0.0136  0.2870 -0.8773
  103OSM   H12G10430   0.864   2.867   5.025 -0.0340  0.3190 -1.3716
  103OSM   C13F10431   0.710   2.722   4.979  0.1730  0.4432 -0.2095
  103OSM   H13F10432   0.639   2.774   5.047 -0.2324  0.8820 -0.9597
  103OSM   H13G10433   0.690   2.613   4.988  1.1349  0.3513  1.2194
  103OSM   C14F10434   0.688   2.787   4.835  0.4410  0.5072 -0.2968
  103OSM   H14F10435   0.724   2.892   4.831 -1.2916  1.3169  2.4602
  103OSM   H14G10436   0.579   2.791   4.812 -0.3338  1.4325  3.0212
  103OSM   C15F10437   0.753   2.695   4.726 -0.6700 -0.0167  0.4356
  103OSM   H15F10438   0.721   2.589   4.737  0.6658 -0.5349 -0.4105
  103OSM   H15G10439   0.864   2.706   4.731 -0.8791  1.6721  2.6369
  103OSM   C16F10440   0.708   2.738   4.579 -0.4441 -0.3128 -0.4540
  103OSM   H16F10441   0.598   2.743   4.592 -0.2596 -0.7890  1.5812
  103OSM   H16G10442   0.729   2.656   4.506 -0.0132 -0.5248 -0.0946
  103OSM   C17F10443   0.775   2.866   4.535  0.1599  0.3988 -0.2316
  103OSM   H17F10444   0.884   2.848   4.523  0.8203  3.2209  0.7251
  103OSM   H17G10445   0.754   2.937   4.618 -2.4259 -0.0870 -0.3853
  103OSM   C18F10446   0.718   2.929   4.403 -0.1008 -0.0153  0.1478
  103OSM   H18F10447   0.613   2.964   4.415 -0.2913 -0.0620 -1.1852
  103OSM   H18G10448   0.722   2.859   4.317 -0.1385  2.4609 -2.0202
  103OSM   H18H10449   0.782   3.015   4.372  0.4604  0.3815  2.2366
  104OSM      N10450   3.093   0.842   6.633  0.2041  1.0196 -0.7430
  104OSM    C1510451   3.159   0.956   6.559  1.1265  0.0908  0.0173
  104OSM   H15A10452   3.235   1.004   6.618 -0.5461  2.0973  0.6700
  104OSM   H15B10453   3.081   1.029   6.542  0.3685  0.6085  4.5251
  104OSM   H15C10454   3.200   0.915   6.468 -1.8876 -0.0595 -1.4107
  104OSM    C1410455   3.196   0.760   6.707  0.1611 -1.1981 -0.0980
  104OSM   H14A10456   3.245   0.693   6.639  1.2121 -0.4176 -0.1236
  104OSM   H14B10457   3.151   0.697   6.783  3.2816 -0.7143  2.3360
  104OSM   H14C10458   3.265   0.817   6.767 -1.1379  0.4719 -0.1035
  104OSM    C1310459   2.989   0.893   6.728  0.2786 -0.6159 -0.0299
  104OSM   H13A10460   2.925   0.967   6.684 -0.0452 -0.9386 -0.1038
  104OSM   H13B10461   3.034   0.942   6.813 -0.9646  0.6658 -0.0889
  104OSM   H13C10462   2.930   0.809   6.764  0.5895 -1.1271 -0.6895
  104OSM    C1210463   3.016   0.762   6.527  0.6073  0.6025  0.0135
  104OSM   H12A10464   3.082   0.748   6.443 -1.7612 -0.9153 -1.7429
  104OSM   H12B10465   2.937   0.826   6.491 -0.3557 -0.9131 -0.6858
  104OSM    C1110466   2.941   0.630   6.564 -0.2540  0.3600  0.3375
  104OSM   H11A10467   3.024   0.561   6.590  0.1265 -0.1119 -1.9213
  104OSM   H11B10468   2.909   0.577   6.472 -0.4156 -0.9323  1.1124
  104OSM      P10469   2.698   0.682   6.653 -0.4847  0.0800 -0.2623
  104OSM    O1310470   2.610   0.585   6.721  0.6836  0.1704 -0.0391
  104OSM    O1410471   2.697   0.818   6.701 -0.0801  0.3839  0.0680
  104OSM    O1110472   2.673   0.681   6.497  0.0782 -0.1243 -0.2605
  104OSM    O1210473   2.848   0.629   6.669  0.3639 -0.2096  0.1786
  104OSM    C1S10474   2.634   0.558   6.441 -0.1201 -0.1568 -0.1757
  104OSM    H1S10475   2.538   0.522   6.482 -1.1654  1.2725 -1.2752
  104OSM    H1T10476   2.714   0.480   6.446  0.0111 -0.2254 -2.2962
  104OSM     NF10477   2.570   0.435   6.240 -0.0608 -0.0949 -0.5852
  104OSM    HNF10478   2.633   0.361   6.217  0.4023 -0.0142  0.3583
  104OSM    C2S10479   2.613   0.569   6.281 -0.7013 -0.2546 -0.1713
  104OSM    H2S10480   2.532   0.640   6.254  0.2972  0.6629 -0.8114
  104OSM    C3S10481   2.754   0.622   6.218  0.1563 -0.3116 -0.6809
  104OSM    H3S10482   2.835   0.557   6.258 -0.1542  0.0826  0.6210
  104OSM     O310483   2.790   0.752   6.270  0.3325 -0.3315  0.7667
  104OSM    HO310484   2.728   0.771   6.340  0.8356  0.5554  0.9913
  104OSM    C4S10485   2.749   0.620   6.071 -0.1077  0.1271  0.2755
  104OSM    H4S10486   2.755   0.516   6.034 -1.5111  0.1404 -0.0493
  104OSM    C5S10487   2.740   0.725   5.979 -0.0191 -0.3466 -0.7379
  104OSM    H5S10488   2.728   0.827   6.020 -2.1668 -0.3690 -1.1809
  104OSM    C6S10489   2.742   0.723   5.828 -0.2166  0.0235  0.2991
  104OSM    H6S10490   2.823   0.778   5.776  0.5609 -1.3956 -0.0379
  104OSM    H6T10491   2.650   0.777   5.797 -1.1855 -2.2134 -0.9466
  104OSM    C7S10492   2.743   0.584   5.765 -0.1726 -0.1106  0.0039
  104OSM    H7S10493   2.692   0.507   5.827 -1.0592  0.3631 -0.1127
  104OSM    H7T10494   2.849   0.565   5.741 -0.1709  0.0331 -0.1047
  104OSM    C8S10495   2.670   0.571   5.619 -0.4246 -0.1308  0.1082
  104OSM    H8S10496   2.563   0.598   5.634 -0.8631 -0.4775 -2.1399
  104OSM    H8T10497   2.667   0.463   5.597  0.7657 -0.2915  0.6545
  104OSM    C9S10498   2.734   0.665   5.513  0.6423  0.3237  0.7004
  104OSM    H9S10499   2.833   0.619   5.495  2.5937  3.7433  1.9729
  104OSM    H9T10500   2.757   0.764   5.558  1.6561  0.5920 -0.3670
  104OSM   C10S10501   2.655   0.662   5.377  0.0059  0.1819 -0.0379
  104OSM   H10S10502   2.583   0.746   5.375  0.9975  1.2988  3.5445
  104OSM   H10T10503   2.606   0.563   5.370 -0.1460  0.2608 -0.0764
  104OSM   C11S10504   2.759   0.677   5.266  0.5615 -1.0418  0.5282
  104OSM   H11S10505   2.852   0.623   5.294  1.7006  0.5041 -0.1143
  104OSM   H11T10506   2.779   0.785   5.252  1.3970 -1.2637 -0.0308
  104OSM   C12S10507   2.714   0.624   5.129 -0.6448 -0.9108  0.5031
  104OSM   H12S10508   2.621   0.675   5.096  0.7987  0.5179 -1.5940
  104OSM   H12T10509   2.704   0.514   5.147 -0.3226 -0.9537  0.4255
  104OSM   C13S10510   2.825   0.626   5.010  0.4334  0.4897  0.3782
  104OSM   H13S10511   2.792   0.560   4.927  0.2531 -0.3820  1.1212
  104OSM   H13T10512   2.913   0.578   5.057 -0.7843 -0.7569  1.5087
  104OSM   C14S10513   2.860   0.766   4.959 -0.2879  0.2628 -0.8240
  104OSM   H14S10514   2.895   0.838   5.036 -2.5539  0.6035 -0.0405
  104OSM   H14T10515   2.761   0.795   4.918 -1.5289 -1.8099  0.5590
  104OSM   C15S10516   2.972   0.760   4.847  0.6651 -0.3861  0.2100
  104OSM   H15S10517   2.931   0.696   4.766 -2.8194  1.0918  0.6349
  104OSM   H15T10518   3.059   0.707   4.891 -1.1323 -2.2676  1.7047
  104OSM   C16S10519   3.006   0.893   4.791 -0.1099 -0.1053 -0.0831
  104OSM   H16S10520   3.090   0.880   4.720  1.5502  0.4519  1.6766
  104OSM   H16T10521   3.040   0.960   4.873 -0.8243  1.3641 -0.9394
  104OSM   C17S10522   2.885   0.956   4.720  0.0046  0.1687  1.1486
  104OSM   H17S10523   2.810   0.973   4.801 -3.8199 -2.4659 -1.4487
  104OSM   H17T10524   2.845   0.878   4.651  1.4852 -0.1139  0.5756
  104OSM   C18S10525   2.924   1.084   4.647 -0.5512 -0.3840 -0.6092
  104OSM   H18S10526   2.849   1.135   4.583  0.9801  1.3047 -1.1556
  104OSM   H18T10527   3.008   1.053   4.581  0.4758  0.3398  0.3112
  104OSM   H18U10528   2.963   1.162   4.716  0.5317 -0.8708 -0.6519
  104OSM    C1F10529   2.443   0.399   6.248  0.2318  0.2130  0.0169
  104OSM     OF10530   2.359   0.479   6.288  0.0661  0.4517  0.3005
  104OSM    C2F10531   2.414   0.255   6.219 -0.3036  0.8638 -0.5604
  104OSM    H2F10532   2.374   0.205   6.310 -1.3769 -2.5544 -2.7338
  104OSM    H2G10533   2.500   0.196   6.182 -1.8439 -2.8199  1.1770
  104OSM    C3F10534   2.299   0.230   6.120 -1.0248 -0.5040  0.3368
  104OSM    H3F10535   2.204   0.253   6.173 -2.8888 -3.6574 -1.3229
  104OSM    H3G10536   2.295   0.120   6.106 -2.0274 -0.4779  0.2821
  104OSM    C4F10537   2.303   0.305   5.984 -0.2246 -0.0279 -0.4302
  104OSM    H4F10538   2.286   0.414   5.991  0.3712  0.0119  0.7836
  104OSM    H4G10539   2.222   0.258   5.924 -0.0029 -0.5654 -0.3160
  104OSM    C5F10540   2.437   0.271   5.914  0.5735 -0.0824  0.2541
  104OSM    H5F10541   2.447   0.161   5.917 -2.8529 -0.4632  1.6331
  104OSM    H5G10542   2.526   0.302   5.973  1.9325 -4.0150  0.5215
  104OSM    C6F10543   2.455   0.323   5.771 -0.2694  0.0077  0.5478
  104OSM    H6F10544   2.548   0.282   5.727  0.8876  2.0330  0.9339
  104OSM    H6G10545   2.469   0.434   5.770 -0.2875  0.0301 -1.8093
  104OSM    C7F10546   2.338   0.283   5.680 -0.2341 -0.6749 -0.4766
  104OSM    H7F10547   2.240   0.322   5.716 -0.4532 -1.3629 -0.3035
  104OSM    H7G10548   2.315   0.174   5.684 -1.8794 -0.3471  2.9350
  104OSM    C8F10549   2.349   0.349   5.543 -0.0487  0.2775 -0.1821
  104OSM    H8F10550   2.365   0.457   5.563 -2.4507  0.4911  0.9012
  104OSM    H8G10551   2.258   0.338   5.479 -0.2686 -1.3502  0.3734
  104OSM    C9F10552   2.468   0.309   5.461  0.0766 -0.2224 -0.4049
  104OSM    H9F10553   2.563   0.344   5.504  0.8396 -0.2775 -1.9608
  104OSM   C10F10554   2.470   0.227   5.349 -0.5261 -0.3389  0.4660
  104OSM   H10F10555   2.567   0.213   5.301 -1.0037  1.5329 -1.1653
  104OSM   C11F10556   2.351   0.178   5.277  0.2535 -0.4618 -0.4363
  104OSM   H11F10557   2.261   0.238   5.303 -0.6560 -0.5520 -3.1312
  104OSM   H11G10558   2.314   0.077   5.305 -2.0382  0.4678  0.0615
  104OSM   C12F10559   2.374   0.183   5.120  0.3954  0.6471 -0.7768
  104OSM   H12F10560   2.406   0.283   5.083  0.7096  0.4825 -0.9520
  104OSM   H12G10561   2.267   0.172   5.090  0.7232 -1.7134 -1.2463
  104OSM   C13F10562   2.460   0.075   5.048 -0.3623 -0.1864 -1.2609
  104OSM   H13F10563   2.554   0.069   5.108 -0.5205  1.9905 -0.7032
  104OSM   H13G10564   2.480   0.119   4.948  2.2142 -0.5311 -0.9662
  104OSM   C14F10565   2.394  -0.065   5.022  0.4822  0.1323  0.1258
  104OSM   H14F10566   2.290  -0.054   4.984  0.3294 -1.8764 -0.1115
  104OSM   H14G10567   2.389  -0.113   5.122  0.9442  1.0166  0.5851
  104OSM   C15F10568   2.477  -0.157   4.926  0.0916 -0.0487 -0.2286
  104OSM   H15F10569   2.475  -0.123   4.820  3.7067  2.9427  0.4577
  104OSM   H15G10570   2.427  -0.256   4.925  0.1991 -0.1365 -2.3419
  104OSM   C16F10571   2.622  -0.189   4.970 -0.5452  0.0750 -0.3063
  104OSM   H16F10572   2.630  -0.227   5.074  1.8986  1.9774  0.2704
  104OSM   H16G10573   2.667  -0.088   4.967  1.7358 -0.8701  0.3760
  104OSM   C17F10574   2.695  -0.287   4.875  0.2032 -0.0293 -0.1081
  104OSM   H17F10575   2.634  -0.372   4.839  0.2647 -1.1199  2.1768
  104OSM   H17G10576   2.771  -0.337   4.939  0.1395 -1.2994 -1.0097
  104OSM   C18F10577   2.757  -0.216   4.754 -0.1588  0.2156  0.0749
  104OSM   H18F10578   2.790  -0.297   4.686  2.1535 -0.3320  1.7342
  104OSM   H18G10579   2.848  -0.158   4.781 -1.6176  2.5216  0.3457
  104OSM   H18H10580   2.674  -0.164   4.701  0.5257  2.0225  0.7095
  105OSM      N10581   3.664   0.228   6.926 -0.4996 -0.4242  0.1043
  105OSM    C1510582   3.692   0.370   6.957  0.5351 -0.5863 -0.2002
  105OSM   H15A10583   3.646   0.395   7.051 -0.1095  0.7191 -0.8389
  105OSM   H15B10584   3.657   0.436   6.880  2.7667  0.2091 -0.6033
  105OSM   H15C10585   3.798   0.384   6.967  0.8795 -1.4284 -2.1070
  105OSM    C1410586   3.686   0.152   7.052 -0.0870  0.0427 -0.9232
  105OSM   H14A10587   3.679   0.046   7.033  1.3093 -0.4327  0.9213
  105OSM   H14B10588   3.621   0.184   7.132  0.4525  1.1134 -0.8928
  105OSM   H14C10589   3.782   0.182   7.091  0.1252 -0.6482 -0.9085
  105OSM    C1310590   3.518   0.213   6.888  0.3524  0.3675  0.7663
  105OSM   H13A10591   3.481   0.114   6.867 -1.3695  0.6279  2.3459
  105OSM   H13B10592   3.497   0.260   6.792 -1.2245 -2.2835 -0.2952
  105OSM   H13C10593   3.456   0.255   6.966 -0.5274 -0.8989  0.7842
  105OSM    C1210594   3.758   0.171   6.822 -0.5168 -0.0115 -0.8134
  105OSM   H12A10595   3.861   0.167   6.853  0.1683  2.2201 -2.5474
  105OSM   H12B10596   3.761   0.239   6.738  0.6384  0.9782  0.0010
  105OSM    C1110597   3.720   0.025   6.767 -0.3165 -0.5963 -0.1646
  105OSM   H11A10598   3.685  -0.025   6.860 -0.8953  0.1105  0.0002
  105OSM   H11B10599   3.807  -0.019   6.713  1.1424  0.9464  0.8631
  105OSM      P10600   3.607   0.081   6.534 -0.2567  0.2240  0.2582
  105OSM    O1310601   3.601  -0.040   6.453  0.4835 -0.5791  0.4609
  105OSM    O1410602   3.498   0.181   6.512 -0.2456  0.0103  0.2420
  105OSM    O1110603   3.750   0.145   6.528  0.5397 -0.2459 -0.6819
  105OSM    O1210604   3.600   0.032   6.680 -0.0251 -0.5092  0.1147
  105OSM    C1S10605   3.816   0.199   6.411 -0.1632 -0.1399 -0.4509
  105OSM    H1S10606   3.749   0.178   6.324 -2.4168 -1.5168  1.4735
  105OSM    H1T10607   3.907   0.137   6.399  0.0606  0.0685  0.1173
  105OSM     NF10608   3.900   0.390   6.281 -0.0164  0.2357 -0.1890
  105OSM    HNF10609   3.997   0.400   6.259  0.3618 -1.1905  0.6394
  105OSM    C2S10610   3.862   0.349   6.416  0.7636 -0.5320  0.1690
  105OSM    H2S10611   3.769   0.407   6.437  1.8010  1.1158  0.3710
  105OSM    C3S10612   3.966   0.379   6.519  0.3463  0.2555  0.2953
  105OSM    H3S10613   4.056   0.317   6.498  0.7447 -0.3554  3.3290
  105OSM     O310614   3.921   0.345   6.658 -0.2996  0.2457 -0.1860
  105OSM    HO310615   3.852   0.281   6.642 -0.7981  0.0815  2.2171
  105OSM    C4S10616   3.997   0.524   6.516 -0.4246 -0.7126 -0.1699
  105OSM    H4S10617   4.082   0.555   6.455  1.2069  0.1900  2.4051
  105OSM    C5S10618   3.913   0.631   6.555 -0.1091  0.2262 -0.4859
  105OSM    H5S10619   3.809   0.626   6.590  0.0906  3.4861  0.9884
  105OSM    C6S10620   3.953   0.772   6.540  0.5022  0.5378  0.2314
  105OSM    H6S10621   4.055   0.791   6.501  0.3373 -0.3145 -0.6485
  105OSM    H6T10622   3.953   0.840   6.628  2.4281  3.5264 -1.8749
  105OSM    C7S10623   3.859   0.840   6.436 -0.7101  1.2312  0.4580
  105OSM    H7S10624   3.881   0.947   6.414 -1.9269  1.3764 -0.1724
  105OSM    H7T10625   3.764   0.848   6.492 -0.1535 -1.0191  1.8391
  105OSM    C8S10626   3.834   0.780   6.298  0.3067  0.1923 -0.0268
  105OSM    H8S10627   3.791   0.677   6.303 -0.1454  0.3587 -0.3940
  105OSM    H8T10628   3.936   0.768   6.255  0.4446  1.4245 -0.0734
  105OSM    C9S10629   3.771   0.854   6.186  0.1231  0.2156 -0.0221
  105OSM    H9S10630   3.832   0.937   6.145  0.4856 -0.1405 -0.2109
  105OSM    H9T10631   3.678   0.899   6.227  0.3040 -0.6764  1.4122
  105OSM   C10S10632   3.754   0.755   6.070  0.0639  0.2121 -0.4877
  105OSM   H10S10633   3.697   0.664   6.096  2.1625 -0.9622  0.2934
  105OSM   H10T10634   3.858   0.734   6.036  0.2935 -0.4490  0.5542
  105OSM   C11S10635   3.674   0.824   5.956 -0.1046  0.1516 -0.4812
  105OSM   H11S10636   3.713   0.923   5.923 -0.1189  0.0201 -0.8971
  105OSM   H11T10637   3.571   0.840   5.993 -0.1976 -0.5143 -0.4457
  105OSM   C12S10638   3.661   0.734   5.838 -0.3558  0.3070  0.2164
  105OSM   H12S10639   3.576   0.773   5.777  1.3880  2.9246 -0.6705
  105OSM   H12T10640   3.627   0.632   5.867 -0.1243 -0.2506 -1.3593
  105OSM   C13S10641   3.787   0.732   5.753 -0.4042  0.0562  0.1412
  105OSM   H13S10642   3.870   0.679   5.804 -0.2617 -1.3302 -1.4158
  105OSM   H13T10643   3.818   0.834   5.720 -0.3055 -0.2921 -0.9023
  105OSM   C14S10644   3.758   0.662   5.618  0.3327  0.5401  0.9297
  105OSM   H14S10645   3.652   0.682   5.591  0.0867  1.3237  2.3598
  105OSM   H14T10646   3.772   0.552   5.624 -0.5572  0.3264 -0.4330
  105OSM   C15S10647   3.848   0.694   5.498  0.0412 -0.0322  0.4575
  105OSM   H15S10648   3.953   0.673   5.528  1.0059  1.8176 -1.3071
  105OSM   H15T10649   3.843   0.804   5.481 -0.8515  0.1505  1.7596
  105OSM   C16S10650   3.803   0.635   5.362  0.2262  0.0766 -0.0537
  105OSM   H16S10651   3.694   0.618   5.359  0.6770 -3.3843 -0.5239
  105OSM   H16T10652   3.851   0.535   5.359  0.6035  0.2854 -2.1578
  105OSM   C17S10653   3.861   0.701   5.234 -0.0451 -0.4585  0.2342
  105OSM   H17S10654   3.824   0.806   5.239 -1.4367 -0.9721  2.0767
  105OSM   H17T10655   3.822   0.653   5.142  0.7361  2.6918 -1.8974
  105OSM   C18S10656   4.012   0.696   5.219 -0.3297 -0.1854  0.4005
  105OSM   H18S10657   4.061   0.597   5.221  0.6480  0.2107 -1.3396
  105OSM   H18T10658   4.062   0.758   5.296 -0.6633 -0.4479  0.8315
  105OSM   H18U10659   4.039   0.736   5.119  2.8739 -1.0830  0.7934
  105OSM    C1F10660   3.820   0.407   6.177  0.0205  0.3018  0.4231
  105OSM     OF10661   3.700   0.419   6.186  0.3010  0.5189 -0.1106
  105OSM    C2F10662   3.887   0.419   6.044 -0.2347  0.1674 -0.9392
  105OSM    H2F10663   3.992   0.384   6.057 -0.2575  0.5611  0.4477
  105OSM    H2G10664   3.894   0.524   6.009  1.7150  0.2705 -0.3377
  105OSM    C3F10665   3.811   0.320   5.950  0.6110 -0.5138  0.1963
  105OSM    H3F10666   3.704   0.350   5.949  0.4525 -0.9350  1.8429
  105OSM    H3G10667   3.812   0.221   6.001  0.2276 -2.1205 -2.7239
  105OSM    C4F10668   3.872   0.300   5.812  0.3681 -1.2651  0.7091
  105OSM    H4F10669   3.952   0.224   5.823  0.6258 -1.1080 -0.0410
  105OSM    H4G10670   3.925   0.394   5.785 -0.6253 -0.7393  0.5484
  105OSM    C5F10671   3.781   0.257   5.696  0.4395  0.2752  0.5960
  105OSM    H5F10672   3.714   0.345   5.688  0.3590  0.3057  1.4898
  105OSM    H5G10673   3.711   0.174   5.718  1.0744  0.0278  1.7403
  105OSM    C6F10674   3.861   0.230   5.571 -0.1882 -0.5235  0.4557
  105OSM    H6F10675   3.924   0.139   5.574  1.0574  0.1472 -2.2483
  105OSM    H6G10676   3.928   0.319   5.562  1.6017 -1.6552  1.8526
  105OSM    C7F10677   3.773   0.234   5.446  0.1504  0.0324 -0.2118
  105OSM    H7F10678   3.721   0.332   5.448 -0.5849 -0.3742  0.6892
  105OSM    H7G10679   3.686   0.166   5.440 -1.6366  2.2906 -1.4812
  105OSM    C8F10680   3.854   0.207   5.316 -0.3520 -0.3836  0.2049
  105OSM    H8F10681   3.898   0.108   5.340 -0.0694 -0.3262 -0.0674
  105OSM    H8G10682   3.941   0.276   5.309  0.1886 -0.6772  2.8555
  105OSM    C9F10683   3.776   0.204   5.190 -1.1154 -0.9821 -0.2646
  105OSM    H9F10684   3.683   0.146   5.201 -2.0938 -0.2948 -3.5771
  105OSM   C10F10685   3.797   0.256   5.064 -1.2339 -0.6799 -0.2203
  105OSM   H10F10686   3.726   0.234   4.983 -0.7429  1.1818 -1.2126
  105OSM   C11F10687   3.924   0.321   5.020  0.4181 -0.3055 -0.0693
  105OSM   H11F10688   3.997   0.241   4.996  0.0182 -0.1396 -2.0090
  105OSM   H11G10689   3.969   0.385   5.098  2.0694  0.7110 -1.7768
  105OSM   C12F10690   3.907   0.424   4.903 -0.7969 -0.6045  0.0091
  105OSM   H12F10691   3.983   0.504   4.915 -1.3450  0.0148 -0.5982
  105OSM   H12G10692   3.812   0.481   4.908 -0.8739 -0.4095 -2.5254
  105OSM   C13F10693   3.914   0.359   4.767  0.3068  0.3439  0.3648
  105OSM   H13F10694   3.835   0.281   4.769 -1.7685  2.2239 -1.4777
  105OSM   H13G10695   4.016   0.328   4.736  0.4893  2.5903 -1.6556
  105OSM   C14F10696   3.866   0.461   4.657  0.1295 -0.5032 -0.1791
  105OSM   H14F10697   3.952   0.528   4.636 -2.1018  3.1248  1.0946
  105OSM   H14G10698   3.788   0.528   4.701  1.2654  0.0807  1.0077
  105OSM   C15F10699   3.820   0.399   4.525 -0.2720  0.2948 -0.5647
  105OSM   H15F10700   3.730   0.338   4.547 -1.8772  2.7743  0.0760
  105OSM   H15G10701   3.898   0.323   4.498 -0.1767  0.5376 -0.9837
  105OSM   C16F10702   3.810   0.505   4.422 -0.1350 -0.2517 -0.6122
  105OSM   H16F10703   3.759   0.592   4.470 -1.0007 -0.2488 -1.4988
  105OSM   H16G10704   3.731   0.481   4.347  0.9699  0.1141 -1.9307
  105OSM   C17F10705   3.944   0.541   4.359  0.0927  1.0063  0.4093
  105OSM   H17F10706   4.015   0.555   4.444 -1.3270  0.0735  1.8230
  105OSM   H17G10707   3.920   0.644   4.327  1.7262  1.3628  0.2346
  105OSM   C18F10708   4.001   0.441   4.253  0.6198  0.5023  0.2602
  105OSM   H18F10709   4.093   0.489   4.213 -0.1357  0.7274 -1.3246
  105OSM   H18G10710   3.926   0.423   4.172  0.5718  0.8754  0.2172
  105OSM   H18H10711   4.019   0.343   4.301  1.0456  1.8556  3.0197
  106OSM      N10712   2.416   5.244   6.479  0.1625  0.1868 -0.9277
  106OSM    C1510713   2.515   5.343   6.443  0.7065 -0.2856 -0.7458
  106OSM   H15A10714   2.597   5.326   6.511 -0.2225 -0.5645  0.3217
  106OSM   H15B10715   2.481   5.445   6.451  0.7152 -0.3927  1.2464
  106OSM   H15C10716   2.549   5.331   6.341 -1.3478 -0.1940 -1.4762
  106OSM    C1410717   2.471   5.105   6.475  0.2518 -0.1672  0.5450
  106OSM   H14A10718   2.515   5.090   6.377 -0.8471  1.6550 -0.2690
  106OSM   H14B10719   2.392   5.037   6.504 -0.7864  0.9880  0.4664
  106OSM   H14C10720   2.556   5.092   6.540  1.2461  0.3769 -0.6072
  106OSM    C1310721   2.381   5.269   6.622 -0.2992  0.6615 -0.2567
  106OSM   H13A10722   2.342   5.369   6.632 -1.6753  0.2620 -1.3061
  106OSM   H13B10723   2.472   5.265   6.680 -0.1477  1.3907 -0.4293
  106OSM   H13C10724   2.319   5.194   6.667  1.9816 -0.0582  1.9395
  106OSM    C1210725   2.296   5.255   6.384  0.3046 -0.1647 -0.7244
  106OSM   H12A10726   2.216   5.187   6.411 -0.4089  1.0560  0.3773
  106OSM   H12B10727   2.324   5.233   6.282  2.0100  4.8317 -1.6074
  106OSM    C1110728   2.220   5.390   6.381  0.8392 -0.1261 -0.2105
  106OSM   H11A10729   2.159   5.390   6.287  0.5421  1.9211 -0.0627
  106OSM   H11B10730   2.285   5.478   6.363 -0.6188  0.9943 -0.1963
  106OSM      P10731   2.000   5.387   6.529 -0.2919  0.1756 -0.1887
  106OSM    O1310732   1.980   5.239   6.527 -0.3863 -0.4039  0.0836
  106OSM    O1410733   1.968   5.443   6.662  0.0111 -0.0666  0.2308
  106OSM    O1110734   1.918   5.454   6.416  0.4672  0.1663 -0.2060
  106OSM    O1210735   2.154   5.413   6.505 -0.2923  0.0228 -0.1477
  106OSM    C1S10736   1.966   5.583   6.364  0.2397  1.0528  0.4733
  106OSM    H1S10737   2.076   5.589   6.358  0.2051  1.7543  0.3827
  106OSM    H1T10738   1.923   5.664   6.428  0.1730  1.2487  0.1857
  106OSM     NF10739   1.997   5.704   6.147  0.9079  0.1280 -0.1664
  106OSM    HNF10740   1.946   5.787   6.125 -0.7028 -1.2641 -2.0679
  106OSM    C2S10741   1.918   5.601   6.211 -0.3401  0.0282 -0.2065
  106OSM    H2S10742   1.952   5.510   6.158  2.6065  1.1812 -0.5157
  106OSM    C3S10743   1.761   5.622   6.208  0.3560  0.5469  0.2066
  106OSM    H3S10744   1.744   5.715   6.267  0.5768  1.1134 -0.5979
  106OSM     O310745   1.681   5.524   6.272 -0.2012  0.1562  0.1964
  106OSM    HO310746   1.746   5.486   6.332 -0.7866  1.5917  1.8164
  106OSM    C4S10747   1.706   5.656   6.067 -0.2620 -0.1843  0.1855
  106OSM    H4S10748   1.695   5.765   6.060  1.1047  0.2443  3.0969
  106OSM    C5S10749   1.660   5.573   5.968 -0.0935  0.4697  0.3783
  106OSM    H5S10750   1.657   5.464   5.973 -2.5528  0.5186  0.8969
  106OSM    C6S10751   1.612   5.628   5.839  1.0266  0.0285  0.6388
  106OSM    H6S10752   1.634   5.736   5.823 -0.0058  0.1767  0.1350
  106OSM    H6T10753   1.501   5.620   5.833  0.7931  0.9148  2.7881
  106OSM    C7S10754   1.658   5.554   5.715 -0.5279  0.6352  0.1727
  106OSM    H7S10755   1.624   5.450   5.738 -2.0816  1.0079 -0.3377
  106OSM    H7T10756   1.767   5.556   5.693 -0.5854 -3.5545 -1.3940
  106OSM    C8S10757   1.586   5.601   5.589  0.5893  0.3183  0.4141
  106OSM    H8S10758   1.625   5.702   5.566  0.8751 -0.2089 -1.5502
  106OSM    H8T10759   1.475   5.603   5.597  0.0150  1.6261 -4.6270
  106OSM    C9S10760   1.614   5.516   5.462  0.1502 -0.1840  0.6750
  106OSM    H9S10761   1.560   5.419   5.473 -0.4931  0.2823  1.8663
  106OSM    H9T10762   1.722   5.495   5.452  0.3138  1.1032 -0.5067
  106OSM   C10S10763   1.562   5.584   5.344 -0.5949  0.3422 -1.1096
  106OSM   H10S10764   1.609   5.685   5.341 -0.0042  0.1524  0.7648
  106OSM   H10T10765   1.453   5.603   5.345 -0.5685  0.7465 -2.7252
  106OSM   C11S10766   1.588   5.499   5.224  0.3889  0.1801  0.1713
  106OSM   H11S10767   1.547   5.396   5.221 -2.1925  1.1443 -2.4514
  106OSM   H11T10768   1.694   5.465   5.220  0.4103  0.0232  1.7424
  106OSM   C12S10769   1.539   5.562   5.091 -0.4152  0.8902  0.4564
  106OSM   H12S10770   1.556   5.672   5.097  1.5039  0.6911 -0.5555
  106OSM   H12T10771   1.431   5.539   5.084 -0.4420  0.3500  2.2223
  106OSM   C13S10772   1.613   5.515   4.964  0.1634 -0.1591 -0.5941
  106OSM   H13S10773   1.716   5.491   4.997  0.5510  2.2594  0.1436
  106OSM   H13T10774   1.602   5.597   4.889 -1.4040 -0.3799 -0.6415
  106OSM   C14S10775   1.543   5.397   4.892 -0.5520 -0.0355  0.0582
  106OSM   H14S10776   1.444   5.434   4.860 -1.6569 -1.0771  2.0428
  106OSM   H14T10777   1.527   5.326   4.977 -1.5757  1.5677  1.2573
  106OSM   C15S10778   1.623   5.336   4.778 -0.0602 -0.0335 -0.2624
  106OSM   H15S10779   1.710   5.284   4.822  0.0839  0.5031  0.0895
  106OSM   H15T10780   1.673   5.415   4.717  0.8380  0.4709  1.0897
  106OSM   C16S10781   1.557   5.232   4.692 -0.4606  0.7958  0.3596
  106OSM   H16S10782   1.607   5.220   4.593  1.8287 -0.2746  1.5548
  106OSM   H16T10783   1.454   5.260   4.664 -0.9396 -1.4300 -0.3153
  106OSM   C17S10784   1.568   5.088   4.750  0.0532  0.5243  0.4149
  106OSM   H17S10785   1.516   5.077   4.847 -0.7701 -4.2580 -0.3124
  106OSM   H17T10786   1.674   5.060   4.770 -0.7106 -1.7742  1.6004
  106OSM   C18S10787   1.516   4.985   4.644  0.3469  0.0603  0.1368
  106OSM   H18S10788   1.584   4.975   4.557  0.1746 -1.8618  0.1806
  106OSM   H18T10789   1.411   5.013   4.621  0.2753  0.4931  0.9577
  106OSM   H18U10790   1.521   4.884   4.690  0.9470 -0.5355 -1.1996
  106OSM    C1F10791   2.127   5.693   6.110 -0.6880  0.3511  0.6430
  106OSM     OF10792   2.192   5.589   6.132 -0.1988  0.4974 -0.2341
  106OSM    C2F10793   2.183   5.807   6.039 -0.0833  0.3912  0.4414
  106OSM    H2F10794   2.271   5.855   6.086  0.7108  0.1140 -0.7095
  106OSM    H2G10795   2.097   5.878   6.040 -1.9208 -1.6785 -0.7614
  106OSM    C3F10796   2.222   5.769   5.891  0.2178  0.3051 -0.1154
  106OSM    H3F10797   2.310   5.701   5.894 -0.6970 -0.9051  0.6801
  106OSM    H3G10798   2.265   5.861   5.847  1.6319 -1.5178 -2.7819
  106OSM    C4F10799   2.121   5.686   5.807 -0.0396  0.6434  0.3426
  106OSM    H4F10800   2.043   5.756   5.769  0.9886  1.0129 -1.1936
  106OSM    H4G10801   2.064   5.610   5.864 -0.9314  0.1548 -1.1426
  106OSM    C5F10802   2.192   5.629   5.681  0.0645  0.7071  0.0265
  106OSM    H5F10803   2.259   5.549   5.719 -0.2425 -1.0087 -2.8067
  106OSM    H5G10804   2.261   5.702   5.634  2.9444  0.6564  3.7106
  106OSM    C6F10805   2.092   5.559   5.587 -0.3147 -0.2131  0.2165
  106OSM    H6F10806   2.024   5.498   5.651  1.3328 -1.0733  1.2296
  106OSM    H6G10807   2.144   5.493   5.515 -1.2961  0.1351 -0.8283
  106OSM    C7F10808   2.006   5.655   5.508  0.9765 -0.6478 -0.3788
  106OSM    H7F10809   1.931   5.684   5.584  2.4461 -2.2040  1.7640
  106OSM    H7G10810   1.966   5.596   5.423 -0.5926 -0.8133  0.4554
  106OSM    C8F10811   2.067   5.787   5.447  0.1331  0.6571 -0.6221
  106OSM    H8F10812   2.154   5.756   5.384  0.9643  1.2426  0.2024
  106OSM    H8G10813   2.110   5.850   5.528 -1.2363  0.5037  0.2495
  106OSM    C9F10814   1.975   5.885   5.372  0.5051 -0.6378  0.8077
  106OSM    H9F10815   1.943   5.969   5.435 -1.1227 -1.2637  0.8634
  106OSM   C10F10816   1.936   5.872   5.240 -0.6849 -0.4169 -0.1610
  106OSM   H10F10817   1.861   5.945   5.206  0.1612 -0.3998 -2.1014
  106OSM   C11F10818   1.968   5.769   5.136 -0.6165 -0.1501  0.1674
  106OSM   H11F10819   1.889   5.695   5.110  0.2760 -0.8719 -0.5984
  106OSM   H11G10820   2.051   5.707   5.175 -1.1336 -0.4121  0.8616
  106OSM   C12F10821   2.019   5.853   5.013  0.0395 -0.2018  0.3804
  106OSM   H12F10822   1.933   5.916   4.980  1.1450  0.5376 -1.1823
  106OSM   H12G10823   2.046   5.780   4.933  0.0879  1.2390 -0.9597
  106OSM   C13F10824   2.148   5.934   5.039  0.2513 -0.2915 -0.2363
  106OSM   H13F10825   2.214   5.882   5.112 -1.4926 -0.5597  1.1950
  106OSM   H13G10826   2.126   6.033   5.084 -0.0905 -1.2475  1.8266
  106OSM   C14F10827   2.223   5.962   4.912 -0.4099 -0.6463 -0.1202
  106OSM   H14F10828   2.167   6.025   4.840  0.4509  3.4658  2.4721
  106OSM   H14G10829   2.260   5.868   4.866 -0.3278 -2.6998  3.7122
  106OSM   C15F10830   2.352   6.049   4.958 -0.3445 -0.2969  0.2382
  106OSM   H15F10831   2.412   5.996   5.034 -1.2252  0.0227  1.1929
  106OSM   H15G10832   2.322   6.150   4.995 -0.6885  0.5526 -2.1643
  106OSM   C16F10833   2.434   6.073   4.832  0.3214 -0.8236  0.1468
  106OSM   H16F10834   2.366   6.108   4.752 -1.9392  1.0381  2.6936
  106OSM   H16G10835   2.494   5.982   4.808  0.3423 -1.2352  1.6400
  106OSM   C17F10836   2.531   6.197   4.842 -0.1607 -1.1145  0.5210
  106OSM   H17F10837   2.614   6.176   4.913 -1.4528  0.9886  2.7926
  106OSM   H17G10838   2.485   6.288   4.886  1.9740 -0.2111  1.0176
  106OSM   C18F10839   2.591   6.234   4.709  0.5268 -0.0211  0.0719
  106OSM   H18F10840   2.627   6.339   4.714 -1.8010  0.7693  2.8225
  106OSM   H18G10841   2.502   6.228   4.642  0.4402 -0.6726  0.2315
  106OSM   H18H10842   2.675   6.169   4.674 -0.7990 -0.8466 -1.7615
  107OSM      N10843   1.418   2.976   6.963 -0.1851 -0.0373  0.0464
  107OSM    C1510844   1.383   2.848   7.025 -0.0396 -0.0285 -0.6446
  107OSM   H15A10845   1.283   2.823   6.994  0.4055 -1.0357 -1.3235
  107OSM   H15B10846   1.399   2.856   7.131  5.7391  3.3579 -1.3069
  107OSM   H15C10847   1.444   2.765   6.992 -1.0361 -1.2805  0.5475
  107OSM    C1410848   1.317   3.072   7.013  0.1916 -0.1532 -0.4855
  107OSM   H14A10849   1.329   3.170   6.970  0.2322  0.6464  1.2726
  107OSM   H14B10850   1.322   3.079   7.120  1.5174  1.2166 -0.6173
  107OSM   H14C10851   1.216   3.044   6.987 -0.1066 -0.3264  0.7899
  107OSM    C1310852   1.561   3.009   7.001  0.5539  0.5619  0.1300
  107OSM   H13A10853   1.636   2.945   6.958  0.4861 -0.3980  1.3862
  107OSM   H13B10854   1.577   3.001   7.108 -1.0466 -2.1362  0.2660
  107OSM   H13C10855   1.588   3.111   6.975 -1.1557  0.9880 -0.1253
  107OSM    C1210856   1.403   2.960   6.809  0.0066 -0.1391 -0.2828
  107OSM   H12A10857   1.296   2.944   6.802 -0.9950  1.4764  5.6531
  107OSM   H12B10858   1.457   2.875   6.771  1.3349  0.9049 -0.7770
  107OSM    C1110859   1.445   3.077   6.720 -0.1371  0.1563  0.1610
  107OSM   H11A10860   1.456   3.049   6.613  0.7582 -2.8460  0.9281
  107OSM   H11B10861   1.546   3.112   6.750  0.0584 -0.3634  0.1194
  107OSM      P10862   1.205   3.186   6.665 -0.2444 -0.3616  0.0894
  107OSM    O1310863   1.135   3.061   6.694 -0.7381 -0.2915 -0.0714
  107OSM    O1410864   1.137   3.316   6.701  0.2784  0.0548  0.0004
  107OSM    O1110865   1.242   3.185   6.510 -0.6592  0.2092 -0.1905
  107OSM    O1210866   1.346   3.178   6.733 -0.3320  0.2874  0.6399
  107OSM    C1S10867   1.327   3.266   6.435  0.1514 -0.4803 -0.8840
  107OSM    H1S10868   1.422   3.280   6.492 -0.9630  3.0499  0.3523
  107OSM    H1T10869   1.274   3.361   6.414  0.6181  0.2222  0.9374
  107OSM     NF10870   1.448   3.285   6.222 -0.2381 -0.1712 -0.3097
  107OSM    HNF10871   1.415   3.332   6.140  2.5131  2.1402 -0.2629
  107OSM    C2S10872   1.352   3.204   6.292 -0.1192  0.2307 -0.4810
  107OSM    H2S10873   1.399   3.105   6.307  0.4713  0.7390  1.4343
  107OSM    C3S10874   1.217   3.194   6.221  0.0213  0.1213  0.6118
  107OSM    H3S10875   1.178   3.297   6.222 -1.8180 -0.5364  0.1596
  107OSM     O310876   1.115   3.117   6.301 -0.0829 -0.0145  0.1026
  107OSM    HO310877   1.154   3.122   6.388  0.0310 -1.1913  0.1429
  107OSM    C4S10878   1.220   3.147   6.077 -0.2852  0.1758 -0.3251
  107OSM    H4S10879   1.233   3.228   6.004  1.6188 -2.0708 -2.6772
  107OSM    C5S10880   1.219   3.020   6.036  0.1849 -0.2617  0.2720
  107OSM    H5S10881   1.213   2.934   6.105  1.0627 -1.3401 -0.9490
  107OSM    C6S10882   1.210   2.970   5.894 -0.8274  1.1072  0.0622
  107OSM    H6S10883   1.118   2.911   5.870 -0.2420  0.6322 -1.0585
  107OSM    H6T10884   1.299   2.909   5.870 -0.1170  1.5848  1.3983
  107OSM    C7S10885   1.212   3.065   5.778 -0.5727  0.2447  0.3254
  107OSM    H7S10886   1.294   3.139   5.767  0.1213 -0.4181  0.9229
  107OSM    H7T10887   1.117   3.121   5.768 -1.4317 -0.8298  1.9555
  107OSM    C8S10888   1.219   2.980   5.648  0.1845  0.6089  0.5313
  107OSM    H8S10889   1.143   2.899   5.656  2.0035 -1.1395  1.0759
  107OSM    H8T10890   1.321   2.935   5.651  0.2944  0.5614 -1.8428
  107OSM    C9S10891   1.205   3.064   5.522  0.7143  0.3446 -0.6822
  107OSM    H9S10892   1.284   3.142   5.531 -0.7458  2.0074 -1.6051
  107OSM    H9T10893   1.100   3.100   5.522  0.4534 -0.3852  0.3227
  107OSM   C10S10894   1.224   2.994   5.385  0.6000 -0.1590  0.0996
  107OSM   H10S10895   1.152   2.911   5.401  1.5503 -1.1583 -0.6777
  107OSM   H10T10896   1.326   2.951   5.386  1.1178  0.8937 -2.0380
  107OSM   C11S10897   1.185   3.093   5.277  0.2335 -0.1682 -0.8344
  107OSM   H11S10898   1.251   3.180   5.296  0.2985 -0.3909  0.0049
  107OSM   H11T10899   1.077   3.115   5.294  0.3891  1.9085 -2.2685
  107OSM   C12S10900   1.196   3.044   5.136 -0.0436 -0.1767 -0.5888
  107OSM   H12S10901   1.114   2.971   5.123  0.0448 -0.5143  0.6025
  107OSM   H12T10902   1.283   2.988   5.096 -0.8795 -0.4494 -2.0975
  107OSM   C13S10903   1.154   3.152   5.028 -0.4984  0.2769 -0.4236
  107OSM   H13S10904   1.240   3.211   4.989 -1.5704  1.6322 -0.8145
  107OSM   H13T10905   1.071   3.216   5.066 -1.6225 -0.4027 -1.6414
  107OSM   C14S10906   1.109   3.078   4.901  0.0129  0.5214 -0.0276
  107OSM   H14S10907   1.007   3.038   4.919 -0.3869  1.4235 -0.2105
  107OSM   H14T10908   1.176   2.991   4.883  1.4005  1.3637  0.9069
  107OSM   C15S10909   1.110   3.156   4.772  0.4926  0.0176 -0.0171
  107OSM   H15S10910   1.217   3.184   4.755  0.7347 -0.2946  0.9265
  107OSM   H15T10911   1.035   3.237   4.774  0.5337  0.0621 -0.2149
  107OSM   C16S10912   1.067   3.070   4.649 -0.6329 -0.5114  0.1227
  107OSM   H16S10913   0.957   3.064   4.641 -0.6339  0.9494 -1.8347
  107OSM   H16T10914   1.124   2.975   4.652  2.3960  1.1557 -0.3327
  107OSM   C17S10915   1.112   3.147   4.517  0.4119 -0.3494  0.4022
  107OSM   H17S10916   1.084   3.076   4.437 -0.8889  2.2092 -1.5606
  107OSM   H17T10917   1.222   3.164   4.512  0.4598 -0.2692  1.3836
  107OSM   C18S10918   1.029   3.286   4.497 -0.2899 -0.3119 -0.1098
  107OSM   H18S10919   0.919   3.267   4.493  0.0487 -2.5058 -0.2961
  107OSM   H18T10920   1.062   3.316   4.395  0.9179 -0.8708  0.1052
  107OSM   H18U10921   1.048   3.368   4.569 -1.8321 -0.9789  1.1188
  107OSM    C1F10922   1.577   3.294   6.255  0.3932  0.0951  0.1888
  107OSM     OF10923   1.620   3.226   6.348 -0.7815 -0.7135  0.2286
  107OSM    C2F10924   1.669   3.372   6.164 -0.5801  0.1052 -0.8180
  107OSM    H2F10925   1.608   3.446   6.107 -1.0639  0.5132  0.1970
  107OSM    H2G10926   1.712   3.304   6.087  0.8594  0.4963 -0.3939
  107OSM    C3F10927   1.786   3.437   6.253 -0.0179  0.2016  0.2306
  107OSM    H3F10928   1.831   3.350   6.306 -1.3450  1.0868  2.9773
  107OSM    H3G10929   1.736   3.514   6.315 -2.2136 -0.6399 -0.3869
  107OSM    C4F10930   1.905   3.501   6.178  0.2952 -0.7742  0.2461
  107OSM    H4F10931   1.982   3.541   6.246  1.2597 -0.5564 -0.9430
  107OSM    H4G10932   1.869   3.594   6.130  3.0217 -0.9958 -2.4954
  107OSM    C5F10933   1.992   3.416   6.079  0.2660  0.5048 -0.4230
  107OSM    H5F10934   1.918   3.358   6.019  0.4322 -0.3418  0.1779
  107OSM    H5G10935   2.045   3.340   6.139  0.6931  1.3826  0.3340
  107OSM    C6F10936   2.083   3.496   5.983 -0.2949 -0.3169 -0.0600
  107OSM    H6F10937   2.177   3.518   6.039 -0.7405 -1.4743  1.2159
  107OSM    H6G10938   2.023   3.587   5.961  0.0008 -0.6771 -2.6697
  107OSM    C7F10939   2.119   3.421   5.850 -0.3711  0.2561 -0.4728
  107OSM    H7F10940   2.027   3.406   5.790  1.0779 -1.8616 -2.3337
  107OSM    H7G10941   2.172   3.324   5.859  1.2028  0.9594 -1.6812
  107OSM    C8F10942   2.198   3.510   5.755 -0.5580 -0.3430  0.2429
  107OSM    H8F10943   2.126   3.591   5.727  1.1738  1.3974  0.6333
  107OSM    H8G10944   2.217   3.452   5.662  0.2086 -2.8594  1.8583
  107OSM    C9F10945   2.320   3.578   5.810  1.1652 -0.2042  0.1846
  107OSM    H9F10946   2.313   3.645   5.897 -0.1475  1.3146 -1.0356
  107OSM   C10F10947   2.443   3.566   5.759  0.6561 -0.2076 -0.5202
  107OSM   H10F10948   2.521   3.638   5.789 -0.8667  0.9910  0.7580
  107OSM   C11F10949   2.485   3.489   5.640 -0.3193 -0.0798 -0.1085
  107OSM   H11F10950   2.414   3.410   5.609  1.9255 -0.9356 -3.7230
  107OSM   H11G10951   2.578   3.436   5.669 -0.7632 -0.5783  0.4294
  107OSM   C12F10952   2.523   3.579   5.521 -0.4236 -0.6228 -0.1814
  107OSM   H12F10953   2.603   3.655   5.534 -0.6049 -0.0906 -1.9608
  107OSM   H12G10954   2.434   3.638   5.489  1.1860  2.4218  0.6069
  107OSM   C13F10955   2.565   3.503   5.397  0.1213  0.4568 -0.3179
  107OSM   H13F10956   2.474   3.456   5.352 -0.2128 -0.6806  1.4745
  107OSM   H13G10957   2.634   3.421   5.425  0.4552 -0.3743 -3.1659
  107OSM   C14F10958   2.637   3.596   5.301 -0.8192 -0.0718  0.3138
  107OSM   H14F10959   2.727   3.632   5.356 -1.2688  0.1477  0.9195
  107OSM   H14G10960   2.585   3.692   5.281 -0.5242  0.3655  1.5450
  107OSM   C15F10961   2.685   3.531   5.169 -0.5745  0.1693 -0.5358
  107OSM   H15F10962   2.595   3.484   5.124  0.0328 -1.4284 -0.1479
  107OSM   H15G10963   2.744   3.439   5.191 -0.9560  0.4994  2.0925
  107OSM   C16F10964   2.759   3.621   5.070  0.1465  0.1352 -0.3142
  107OSM   H16F10965   2.863   3.614   5.111  0.1286 -0.4106 -0.3505
  107OSM   H16G10966   2.723   3.725   5.084  0.0283 -0.1445  1.8561
  107OSM   C17F10967   2.761   3.578   4.920  0.3074  0.1338  0.2203
  107OSM   H17F10968   2.657   3.561   4.886 -0.1996  1.8089  0.8591
  107OSM   H17G10969   2.817   3.483   4.909 -0.2179 -0.0232 -1.3798
  107OSM   C18F10970   2.820   3.682   4.820 -0.6312 -0.2321 -0.0192
  107OSM   H18F10971   2.793   3.657   4.716 -0.6601 -1.4299  0.2598
  107OSM   H18G10972   2.931   3.679   4.828 -0.6577 -1.2050  0.1608
  107OSM   H18H10973   2.790   3.787   4.840 -0.5098 -0.4589  1.4831
  108OSM      N10974   5.038   2.430   6.579  0.4815  0.2211  0.2360
  108OSM    C1510975   5.023   2.303   6.648  0.2011 -0.3865  0.2574
  108OSM   H15A10976   4.943   2.243   6.608 -0.4088  0.1759  0.6208
  108OSM   H15B10977   5.001   2.309   6.754 -0.4146  0.9968  0.0785
  108OSM   H15C10978   5.114   2.244   6.644 -0.5710 -1.6022 -4.1426
  108OSM    C1410979   5.124   2.523   6.656  0.7755  0.0431  1.0122
  108OSM   H14A10980   5.132   2.612   6.596 -0.5705 -0.9628 -0.7751
  108OSM   H14B10981   5.221   2.478   6.668  0.1289 -1.3414  1.3517
  108OSM   H14C10982   5.076   2.539   6.751  1.4000  1.5650  1.0988
  108OSM    C1310983   5.102   2.406   6.450 -0.0507 -0.1914 -0.8479
  108OSM   H13A10984   5.198   2.357   6.453 -0.5894 -1.2426 -0.0061
  108OSM   H13B10985   5.135   2.501   6.411  3.1107 -1.4158 -1.3726
  108OSM   H13C10986   5.040   2.362   6.373  1.2031  0.7152 -2.4124
  108OSM    C1210987   4.901   2.494   6.566  0.0970 -0.5082  0.5923
  108OSM   H12A10988   4.861   2.521   6.662  0.3094  2.5840 -0.0715
  108OSM   H12B10989   4.827   2.430   6.521 -1.6489  1.8625 -0.1307
  108OSM    C1110990   4.889   2.631   6.484  0.5871  0.8755 -0.4094
  108OSM   H11A10991   4.779   2.647   6.487  0.1587 -1.4905 -1.1513
  108OSM   H11B10992   4.911   2.613   6.377 -0.8317  1.5852 -0.8419
  108OSM      P10993   4.901   2.862   6.614  0.5392 -0.0075 -0.1679
  108OSM    O1310994   4.837   2.810   6.735 -0.4489  0.1727  0.0461
  108OSM    O1410995   5.011   2.959   6.627  0.5315 -0.4264  0.0618
  108OSM    O1110996   4.781   2.909   6.523 -0.1612 -0.3447 -0.4153
  108OSM    O1210997   4.961   2.737   6.540  0.3878 -0.6648  0.7286
  108OSM    C1S10998   4.783   2.974   6.397 -0.4957  0.1379 -0.1428
  108OSM    H1S10999   4.886   2.997   6.363 -1.3317 -2.0014 -4.7927
  108OSM    H1T11000   4.733   3.073   6.396  0.1961  0.4905 -0.7520
  108OSM     NF11001   4.729   2.988   6.162  0.1191  0.1710  0.2804
  108OSM    HNF11002   4.665   3.063   6.176  0.4742  0.4859  0.2288
  108OSM    C2S11003   4.725   2.897   6.270 -0.8404  0.6414  0.0897
  108OSM    H2S11004   4.780   2.803   6.248 -1.3273  0.5785 -0.9711
  108OSM    C3S11005   4.580   2.859   6.315  0.0213  0.1579  0.7413
  108OSM    H3S11006   4.531   2.954   6.345  0.7496  0.4618  0.9924
  108OSM     O311007   4.571   2.769   6.421  0.3942  0.4864 -0.2508
  108OSM    HO311008   4.655   2.771   6.467 -0.1108 -1.6111  0.9108
  108OSM    C4S11009   4.506   2.810   6.194  0.0849  0.2829  0.2687
  108OSM    H4S11010   4.457   2.897   6.148 -1.4951 -0.4623  0.4928
  108OSM    C5S11011   4.494   2.684   6.146  0.5582  1.1564 -0.1251
  108OSM    H5S11012   4.557   2.600   6.179 -0.0490  0.4596 -0.6982
  108OSM    C6S11013   4.404   2.652   6.033  0.0877  0.1035  0.0340
  108OSM    H6S11014   4.455   2.658   5.934  0.9655 -1.1902  0.3825
  108OSM    H6T11015   4.313   2.716   6.029 -0.1558 -0.2754 -0.8145
  108OSM    C7S11016   4.352   2.508   6.031  0.0658  0.2910 -0.9764
  108OSM    H7S11017   4.298   2.484   6.125  0.3152 -3.2707 -1.5979
  108OSM    H7T11018   4.434   2.435   6.051 -0.4192 -0.0126 -0.0401
  108OSM    C8S11019   4.254   2.450   5.921 -0.2283 -0.2079 -0.2615
  108OSM    H8S11020   4.248   2.537   5.852  3.3321  1.5728  1.4165
  108OSM    H8T11021   4.154   2.448   5.968 -0.4523  3.3437 -0.2956
  108OSM    C9S11022   4.269   2.310   5.855 -0.6488  0.4851 -0.6635
  108OSM    H9S11023   4.233   2.231   5.924 -0.3857 -0.0983 -1.1912
  108OSM    H9T11024   4.376   2.288   5.840 -0.4223  0.2878  1.0761
  108OSM   C10S11025   4.171   2.291   5.732 -0.9267  0.3286  0.0288
  108OSM   H10S11026   4.065   2.307   5.759 -1.0580  2.3103 -1.3930
  108OSM   H10T11027   4.183   2.184   5.705 -2.3037  0.2826 -0.4465
  108OSM   C11S11028   4.223   2.380   5.621  0.0376 -0.1890  0.3492
  108OSM   H11S11029   4.334   2.378   5.613  0.0809  1.9200 -0.2999
  108OSM   H11T11030   4.195   2.486   5.637  2.9482  0.9914 -1.4715
  108OSM   C12S11031   4.172   2.353   5.480  0.4760  0.4839 -0.1686
  108OSM   H12S11032   4.159   2.243   5.468 -1.5540  0.5565  0.9169
  108OSM   H12T11033   4.249   2.387   5.407  1.3288 -3.0143 -1.0816
  108OSM   C13S11034   4.027   2.400   5.455 -0.1220  1.0003  0.5125
  108OSM   H13S11035   4.032   2.510   5.442  1.3960  1.0090  1.0329
  108OSM   H13T11036   3.954   2.380   5.537  0.6040 -0.8127  0.7735
  108OSM   C14S11037   3.962   2.353   5.319 -0.7906 -0.3208  0.1722
  108OSM   H14S11038   3.898   2.262   5.327  1.9822 -2.2713  1.6012
  108OSM   H14T11039   4.042   2.314   5.252  1.4416  0.2736  2.3743
  108OSM   C15S11040   3.876   2.459   5.246  0.4322 -0.6277 -0.0678
  108OSM   H15S11041   3.943   2.545   5.226  1.4787 -1.2440  0.6874
  108OSM   H15T11042   3.799   2.486   5.321 -0.2943  0.3874 -1.1478
  108OSM   C16S11043   3.844   2.398   5.109 -0.2867  0.5091  0.1547
  108OSM   H16S11044   3.779   2.309   5.126  1.1360 -0.7510 -0.7837
  108OSM   H16T11045   3.933   2.350   5.062 -0.5072 -0.0156  0.2645
  108OSM   C17S11046   3.774   2.494   5.019  0.1808  0.0024 -0.1812
  108OSM   H17S11047   3.766   2.451   4.917 -0.1125 -0.8151  0.1736
  108OSM   H17T11048   3.840   2.582   5.006  0.5125 -0.4564 -1.8870
  108OSM   C18S11049   3.640   2.544   5.072  1.0513  0.5867  0.5305
  108OSM   H18S11050   3.569   2.459   5.059  3.2723 -0.9958 -2.6953
  108OSM   H18T11051   3.589   2.622   5.012  1.3713  0.5991  0.2699
  108OSM   H18U11052   3.643   2.591   5.172 -0.7860  1.8449  0.0315
  108OSM    C1F11053   4.849   3.004   6.097  0.2979 -0.3448 -0.4546
  108OSM     OF11054   4.943   2.924   6.108  0.0177  0.3222  0.4386
  108OSM    C2F11055   4.862   3.133   6.016  0.6377 -0.5357 -0.5284
  108OSM    H2F11056   4.941   3.197   6.062  0.7766 -1.1681  0.1286
  108OSM    H2G11057   4.774   3.199   6.029  1.3463  0.0628  1.8593
  108OSM    C3F11058   4.900   3.111   5.873  0.0283  0.4149 -0.4512
  108OSM    H3F11059   4.820   3.056   5.819  0.1231 -2.1782  1.8651
  108OSM    H3G11060   4.986   3.041   5.879 -1.2074 -1.1146  0.0217
  108OSM    C4F11061   4.944   3.246   5.810 -0.0163  0.9810  0.8608
  108OSM    H4F11062   5.005   3.306   5.881  1.8580  0.9759 -0.6873
  108OSM    H4G11063   4.851   3.302   5.788  0.1242  0.8425 -0.1213
  108OSM    C5F11064   5.020   3.216   5.688  0.3611  0.0871 -0.1524
  108OSM    H5F11065   5.015   3.313   5.634  1.6965  0.5851  0.5831
  108OSM    H5G11066   4.962   3.140   5.631 -2.4089  0.2839  2.1283
  108OSM    C6F11067   5.165   3.180   5.701  0.0610 -0.1947  0.3506
  108OSM    H6F11068   5.181   3.088   5.761 -1.3940  0.8331  2.4580
  108OSM    H6G11069   5.220   3.267   5.743  0.8445  1.2240 -3.1934
  108OSM    C7F11070   5.222   3.154   5.555 -0.6673 -0.0184 -0.3162
  108OSM    H7F11071   5.188   3.236   5.487  1.8051  1.4854  0.1632
  108OSM    H7G11072   5.168   3.059   5.531 -0.2159 -0.0374 -1.3055
  108OSM    C8F11073   5.371   3.170   5.552 -0.1178  0.2533 -0.5941
  108OSM    H8F11074   5.411   3.239   5.630  0.5855  0.9050 -1.4989
  108OSM    H8G11075   5.412   3.222   5.462 -0.3820 -0.3906 -1.0915
  108OSM    C9F11076   5.442   3.042   5.576  0.4495  0.1501  0.0674
  108OSM    H9F11077   5.430   3.010   5.681  2.7836  0.7460  0.5594
  108OSM   C10F11078   5.499   2.952   5.493 -0.2224 -0.0723 -0.0182
  108OSM   H10F11079   5.548   2.863   5.535  2.2313  1.3022  0.2487
  108OSM   C11F11080   5.504   2.971   5.339  0.2929 -0.0847 -0.4660
  108OSM   H11F11081   5.473   3.075   5.313 -1.5551  0.6762  3.8827
  108OSM   H11G11082   5.446   2.894   5.285 -0.7393  0.8047 -0.6596
  108OSM   C12F11083   5.647   2.940   5.302 -0.0792 -0.6996  0.4282
  108OSM   H12F11084   5.694   2.844   5.332  0.2363 -1.5468 -2.4416
  108OSM   H12G11085   5.705   3.028   5.335  0.0502  0.8348 -3.3998
  108OSM   C13F11086   5.700   2.960   5.161  0.2414  0.6557  0.2902
  108OSM   H13F11087   5.811   2.955   5.159  0.2120 -3.2243  0.3760
  108OSM   H13G11088   5.655   3.055   5.126 -1.8535 -0.3999 -0.0708
  108OSM   C14F11089   5.668   2.839   5.070 -0.5972  0.3710 -0.2913
  108OSM   H14F11090   5.560   2.815   5.085 -0.3399  0.3374  1.8527
  108OSM   H14G11091   5.724   2.757   5.119 -1.9076 -1.0154 -1.0575
  108OSM   C15F11092   5.700   2.849   4.920 -0.1422  0.3538 -0.2145
  108OSM   H15F11093   5.805   2.883   4.909 -0.2785  0.5587 -0.9129
  108OSM   H15G11094   5.631   2.922   4.873  1.2381  2.3826  0.7794
  108OSM   C16F11095   5.687   2.716   4.843  0.1100  0.2658  0.3617
  108OSM   H16F11096   5.584   2.676   4.857  0.3193 -1.6894 -2.6735
  108OSM   H16G11097   5.766   2.643   4.871  0.0350  0.1654  0.3119
  108OSM   C17F11098   5.693   2.750   4.690  0.0662  0.1509 -0.2187
  108OSM   H17F11099   5.788   2.805   4.678  0.3355 -0.2858 -0.1231
  108OSM   H17G11100   5.611   2.820   4.665  1.1589  1.3877 -0.3969
  108OSM   C18F11101   5.673   2.629   4.600 -0.2355  0.7885  0.8916
  108OSM   H18F11102   5.665   2.655   4.492  2.7161 -2.3037 -0.2466
  108OSM   H18G11103   5.576   2.583   4.624 -0.3289  1.6430  2.2697
  108OSM   H18H11104   5.758   2.558   4.609 -0.3678  0.3514 -1.0014
  109OSM      N11105   1.155   1.584   6.748 -0.0842 -0.3968 -0.4693
  109OSM    C1511106   1.279   1.572   6.836 -0.3647  0.1065 -0.9381
  109OSM   H15A11107   1.274   1.476   6.885  1.5947  1.0060  1.2193
  109OSM   H15B11108   1.275   1.637   6.922  1.6801 -1.2973  0.3035
  109OSM   H15C11109   1.374   1.589   6.786 -0.8519  1.3050 -1.5037
  109OSM    C1411110   1.033   1.592   6.837  0.6362 -0.9338 -0.1567
  109OSM   H14A11111   1.013   1.495   6.880 -0.5080 -0.2962  0.8103
  109OSM   H14B11112   0.941   1.618   6.787 -0.1596  2.3977  2.6112
  109OSM   H14C11113   1.046   1.669   6.912  0.4507  0.1249 -1.1765
  109OSM    C1311114   1.159   1.715   6.671  0.5332  0.0747 -0.1582
  109OSM   H13A11115   1.263   1.734   6.648  0.0468  2.0397 -0.9892
  109OSM   H13B11116   1.139   1.793   6.743  0.9946 -1.5130  1.7374
  109OSM   H13C11117   1.103   1.726   6.579  0.6941 -2.7567 -0.6583
  109OSM    C1211118   1.156   1.471   6.650  0.0122  1.0051  0.2278
  109OSM   H12A11119   1.194   1.383   6.700  0.5822  1.7479  1.1394
  109OSM   H12B11120   1.235   1.495   6.581 -0.1643  0.1298 -0.3042
  109OSM    C1111121   1.023   1.424   6.585 -0.4999 -0.0297 -0.1625
  109OSM   H11A11122   1.052   1.360   6.498  1.6293 -0.0909  0.5349
  109OSM   H11B11123   0.968   1.518   6.568  0.6713  1.1649  2.2053
  109OSM      P11124   0.990   1.216   6.752 -0.1309  0.3767 -0.2192
  109OSM    O1311125   1.064   1.254   6.875 -0.1419 -0.0047  0.3887
  109OSM    O1411126   0.868   1.135   6.770  0.3884 -0.0344  0.5300
  109OSM    O1111127   1.082   1.143   6.651  0.1403  0.0712 -0.2226
  109OSM    O1211128   0.947   1.348   6.676  0.6517  0.0995 -0.0918
  109OSM    C1S11129   1.013   1.070   6.547  0.1276  0.5486  0.0339
  109OSM    H1S11130   0.927   1.119   6.497 -0.4657 -0.4800  0.0200
  109OSM    H1T11131   0.979   0.973   6.589  0.9381  0.4583  0.5081
  109OSM     NF11132   1.038   0.976   6.305 -0.2194 -0.2038 -0.2349
  109OSM    HNF11133   1.030   0.878   6.290 -1.9420 -0.4623  1.9809
  109OSM    C2S11134   1.106   1.024   6.431  0.3172 -0.5421 -0.0298
  109OSM    H2S11135   1.151   1.120   6.397  0.0798 -0.5608 -0.4005
  109OSM    C3S11136   1.217   0.928   6.480 -0.2556 -0.0414 -0.6104
  109OSM    H3S11137   1.175   0.828   6.502 -0.1312  0.2309  0.9443
  109OSM     O311138   1.279   0.960   6.606  0.5684 -0.2370 -0.2545
  109OSM    HO311139   1.214   1.017   6.647 -0.2677 -1.6607  0.4779
  109OSM    C4S11140   1.330   0.907   6.377  0.7106  0.3387 -0.1538
  109OSM    H4S11141   1.310   0.849   6.286 -1.5295  0.7057  0.0400
  109OSM    C5S11142   1.451   0.973   6.382 -0.2155  0.0614 -0.2074
  109OSM    H5S11143   1.471   1.048   6.459  1.0764 -0.2641 -0.2144
  109OSM    C6S11144   1.542   0.952   6.264  0.3211 -0.4719  0.1620
  109OSM    H6S11145   1.638   0.911   6.302  1.4868  1.1623 -0.8982
  109OSM    H6T11146   1.573   1.052   6.227  0.0810 -0.3119  0.3910
  109OSM    C7S11147   1.517   0.875   6.136  0.2154 -0.4414 -0.1550
  109OSM    H7S11148   1.432   0.924   6.083 -0.5010 -0.4742  0.9391
  109OSM    H7T11149   1.470   0.776   6.154 -1.2947  0.1555 -0.6868
  109OSM    C8S11150   1.632   0.851   6.049  0.5187 -0.1863  0.6138
  109OSM    H8S11151   1.704   0.786   6.104  3.2229  1.8745 -0.2887
  109OSM    H8T11152   1.679   0.950   6.031 -1.8517  0.7142 -1.0976
  109OSM    C9S11153   1.594   0.783   5.915 -0.8359  0.2789  0.5402
  109OSM    H9S11154   1.532   0.862   5.868 -0.3381 -0.9937 -2.4438
  109OSM    H9T11155   1.550   0.683   5.936 -1.6149 -0.2039 -2.8190
  109OSM   C10S11156   1.722   0.755   5.832  0.2170  0.4076 -0.9580
  109OSM   H10S11157   1.784   0.698   5.905  0.2094  1.4970 -0.0655
  109OSM   H10T11158   1.761   0.855   5.806  1.8420  0.2878  0.7838
  109OSM   C11S11159   1.722   0.675   5.703  0.3956 -0.4874  1.2320
  109OSM   H11S11160   1.667   0.579   5.701 -1.5964  0.5905 -1.0654
  109OSM   H11T11161   1.829   0.659   5.677 -0.1985 -1.8199 -0.5135
  109OSM   C12S11162   1.665   0.751   5.586 -0.0949 -0.3308 -0.2056
  109OSM   H12S11163   1.738   0.829   5.556  0.5473 -0.6523  0.4934
  109OSM   H12T11164   1.569   0.806   5.601 -0.2224  0.1869 -2.4834
  109OSM   C13S11165   1.659   0.669   5.456 -0.0808  0.1290  0.0934
  109OSM   H13S11166   1.759   0.625   5.438 -0.2279 -1.0451  1.8674
  109OSM   H13T11167   1.624   0.742   5.380 -1.4633  1.0899  1.5824
  109OSM   C14S11168   1.555   0.557   5.450 -0.2824  0.1574 -0.0372
  109OSM   H14S11169   1.461   0.603   5.488 -1.3438 -0.1099 -2.1590
  109OSM   H14T11170   1.571   0.477   5.525 -2.2473  0.2183  0.5149
  109OSM   C15S11171   1.553   0.491   5.310 -0.2197 -0.3506 -0.3388
  109OSM   H15S11172   1.478   0.410   5.296 -1.1837  0.2163  1.3787
  109OSM   H15T11173   1.649   0.434   5.307  1.1688  1.8808 -0.6522
  109OSM   C16S11174   1.541   0.585   5.195  0.1869  0.0469 -0.0013
  109OSM   H16S11175   1.622   0.659   5.174 -0.9379  1.1384 -0.6702
  109OSM   H16T11176   1.447   0.642   5.212  0.3122  0.3971 -0.4483
  109OSM   C17S11177   1.525   0.508   5.063 -0.6470 -0.3974  0.1240
  109OSM   H17S11178   1.446   0.429   5.063  1.0628 -2.1932 -0.2712
  109OSM   H17T11179   1.625   0.467   5.038 -1.5881 -0.9162 -3.3530
  109OSM   C18S11180   1.478   0.593   4.940 -0.0763  0.7696 -0.7279
  109OSM   H18S11181   1.557   0.667   4.914  0.2243  1.1856  1.2078
  109OSM   H18T11182   1.383   0.639   4.974 -0.6525  0.1546 -1.4668
  109OSM   H18U11183   1.453   0.531   4.852 -1.7204  0.8574 -0.3491
  109OSM    C1F11184   0.962   1.055   6.235  0.0196 -0.5884  0.9074
  109OSM     OF11185   0.950   1.179   6.260 -0.4046  0.0233 -0.4844
  109OSM    C2F11186   0.882   0.998   6.128 -0.1027 -0.4299  0.6216
  109OSM    H2F11187   0.842   1.080   6.064 -1.2347  0.2397  2.1275
  109OSM    H2G11188   0.796   0.946   6.176 -1.4956  0.5924 -0.6904
  109OSM    C3F11189   0.962   0.889   6.053  0.3938 -0.3720  0.0417
  109OSM    H3F11190   0.891   0.856   5.974  0.9605  1.5629 -1.3598
  109OSM    H3G11191   0.972   0.801   6.120 -1.1705 -1.2451 -0.8309
  109OSM    C4F11192   1.090   0.939   5.987 -0.4626  0.0829  0.2716
  109OSM    H4F11193   1.165   0.987   6.054  1.4998 -0.9375 -1.0705
  109OSM    H4G11194   1.061   1.015   5.912  1.1788  1.0966  0.6171
  109OSM    C5F11195   1.168   0.830   5.895 -0.2649 -0.2875  0.0954
  109OSM    H5F11196   1.217   0.762   5.968 -0.5623 -1.4075 -0.7340
  109OSM    H5G11197   1.250   0.887   5.845  0.3725  0.0361  1.4550
  109OSM    C6F11198   1.085   0.757   5.785 -0.0251 -0.1346 -0.4625
  109OSM    H6F11199   1.033   0.847   5.746 -1.6184 -1.0236 -0.4648
  109OSM    H6G11200   1.023   0.678   5.832  2.0493 -1.0204  0.9465
  109OSM    C7F11201   1.175   0.698   5.680 -0.6362  0.4628  0.0994
  109OSM    H7F11202   1.270   0.756   5.675  1.2931 -2.2076  2.6245
  109OSM    H7G11203   1.119   0.705   5.584  0.6379 -2.0949 -0.9459
  109OSM    C8F11204   1.209   0.551   5.710  0.4355  0.5668  0.2561
  109OSM    H8F11205   1.238   0.548   5.817  3.4586 -1.9941 -0.4693
  109OSM    H8G11206   1.300   0.522   5.653  0.5050 -1.1485  1.1720
  109OSM    C9F11207   1.104   0.446   5.685  0.4396  0.2044 -0.1177
  109OSM    H9F11208   1.042   0.421   5.773 -0.8851  0.0806 -1.0634
  109OSM   C10F11209   1.087   0.377   5.568  0.0916  0.5258 -0.8454
  109OSM   H10F11210   0.994   0.318   5.563 -0.0497  0.2686  2.2785
  109OSM   C11F11211   1.163   0.381   5.444  0.7032  0.1041  0.5228
  109OSM   H11F11212   1.190   0.277   5.415  0.6675 -0.2694  1.8073
  109OSM   H11G11213   1.249   0.451   5.448 -0.1347  1.2454 -0.6556
  109OSM   C12F11214   1.075   0.406   5.325  0.6411 -0.4188  0.6379
  109OSM   H12F11215   1.027   0.505   5.341  2.7552  0.6564  0.6974
  109OSM   H12G11216   1.013   0.315   5.312  0.2464 -0.0307 -0.2898
  109OSM   C13F11217   1.154   0.420   5.195 -0.1647  0.6128  0.2893
  109OSM   H13F11218   1.211   0.327   5.173  1.0805  1.6893 -1.3311
  109OSM   H13G11219   1.222   0.509   5.197  0.2454  0.2953  1.9216
  109OSM   C14F11220   1.058   0.426   5.073 -0.2569  0.1554  0.4702
  109OSM   H14F11221   0.979   0.348   5.079 -1.1059  0.9866  0.1885
  109OSM   H14G11222   1.107   0.428   4.973 -0.4676  2.2220  0.3835
  109OSM   C15F11223   0.974   0.552   5.062  0.6697 -0.7437 -0.0742
  109OSM   H15F11224   1.036   0.639   5.092 -1.3731 -0.0439  2.5017
  109OSM   H15G11225   0.908   0.548   5.151  0.9560  1.5302  0.2945
  109OSM   C16F11226   0.891   0.568   4.936  0.4967  0.7820  0.2708
  109OSM   H16F11227   0.827   0.478   4.922  0.8138  0.1844  2.3316
  109OSM   H16G11228   0.967   0.566   4.855  1.2326 -2.8578  0.8715
  109OSM   C17F11229   0.810   0.702   4.927 -0.5082  0.4563  0.2325
  109OSM   H17F11230   0.862   0.790   4.969  0.6731 -0.8463  1.6059
  109OSM   H17G11231   0.714   0.695   4.983 -0.8811  0.1717 -0.4312
  109OSM   C18F11232   0.760   0.729   4.784  0.6418  0.2734  0.5069
  109OSM   H18F11233   0.702   0.824   4.787 -1.8265 -1.0050 -1.7928
  109OSM   H18G11234   0.689   0.654   4.742  1.8869 -0.3989 -0.4530
  109OSM   H18H11235   0.850   0.731   4.720  1.3638  1.4995  1.5263
  110OSM      N11236   3.626   2.413   7.115 -0.2977  1.0422 -0.2543
  110OSM    C1511237   3.766   2.367   7.127  0.6567 -0.2322 -0.3518
  110OSM   H15A11238   3.778   2.267   7.165  0.8149  0.2654  0.9401
  110OSM   H15B11239   3.823   2.428   7.195  0.0433  0.2039 -0.2212
  110OSM   H15C11240   3.818   2.377   7.032  1.5323  2.2096  0.2958
  110OSM    C1411241   3.556   2.392   7.245  0.2164 -0.0345  0.5969
  110OSM   H14A11242   3.456   2.432   7.248 -0.2056 -1.0331  0.2962
  110OSM   H14B11243   3.602   2.444   7.328  1.5785  0.6436 -0.5544
  110OSM   H14C11244   3.549   2.286   7.267  0.0995 -0.1505  0.0181
  110OSM    C1311245   3.617   2.562   7.079  0.0590 -0.4147 -0.1788
  110OSM   H13A11246   3.519   2.606   7.093  0.6246  1.4820 -1.8028
  110OSM   H13B11247   3.653   2.567   6.978  1.5008 -0.8604  0.2872
  110OSM   H13C11248   3.682   2.625   7.139 -0.0126 -0.2700 -0.2514
  110OSM    C1211249   3.548   2.343   7.006  0.2738  0.3964 -0.1704
  110OSM   H12A11250   3.446   2.378   6.998  0.6007  2.3560  2.6351
  110OSM   H12B11251   3.548   2.238   7.033  1.0556  0.8995  1.9911
  110OSM    C1111252   3.603   2.343   6.860  0.4969  0.3602  0.3231
  110OSM   H11A11253   3.539   2.277   6.798 -1.0925  2.8485 -0.8340
  110OSM   H11B11254   3.695   2.285   6.882 -0.7537 -1.3261  1.4553
  110OSM      P11255   3.680   2.460   6.659 -0.3071 -0.3982 -0.2057
  110OSM    O1311256   3.688   2.596   6.602  0.4363  0.0897 -0.0794
  110OSM    O1411257   3.810   2.387   6.667 -0.1210 -0.4057 -0.7756
  110OSM    O1111258   3.572   2.371   6.586 -0.1698 -0.1755 -0.4774
  110OSM    O1211259   3.615   2.473   6.803  0.3190  0.5716 -0.1621
  110OSM    C1S11260   3.474   2.438   6.500 -0.1355  0.4585  0.4958
  110OSM    H1S11261   3.460   2.547   6.515 -2.0344  0.1297  1.4271
  110OSM    H1T11262   3.374   2.390   6.511 -0.1973  0.4882  0.0975
  110OSM     NF11263   3.392   2.493   6.272  0.0520  0.1183  0.3910
  110OSM    HNF11264   3.336   2.436   6.212  0.4454  2.1517 -2.1007
  110OSM    C2S11265   3.504   2.426   6.349 -0.1201 -0.7562 -0.0814
  110OSM    H2S11266   3.595   2.480   6.314 -2.2010  1.9394 -1.7421
  110OSM    C3S11267   3.525   2.279   6.302 -0.8298  0.0116  0.0036
  110OSM    H3S11268   3.427   2.229   6.319 -0.5414 -0.1724  1.2581
  110OSM     O311269   3.624   2.200   6.376  0.0206 -0.0096  0.0299
  110OSM    HO311270   3.646   2.260   6.448 -2.6709 -2.5204  3.2972
  110OSM    C4S11271   3.550   2.276   6.150  0.5645 -0.0647 -0.0285
  110OSM    H4S11272   3.461   2.265   6.087  0.7020 -0.5973 -0.1316
  110OSM    C5S11273   3.672   2.283   6.092  0.1779 -0.4380 -0.4713
  110OSM    H5S11274   3.758   2.286   6.160  0.6971  2.4400 -1.1150
  110OSM    C6S11275   3.694   2.267   5.943 -0.0057 -0.0013  0.0096
  110OSM    H6S11276   3.737   2.167   5.924  2.5470  0.4428  2.7947
  110OSM    H6T11277   3.779   2.330   5.909 -0.2801 -0.0423 -0.7752
  110OSM    C7S11278   3.577   2.299   5.839 -0.2209 -0.7961  1.2407
  110OSM    H7S11279   3.523   2.387   5.879  0.9024  1.6432 -2.1746
  110OSM    H7T11280   3.501   2.219   5.852 -0.1406 -0.9360  0.8726
  110OSM    C8S11281   3.620   2.309   5.694 -0.4503 -0.7154  0.1314
  110OSM    H8S11282   3.678   2.219   5.662  0.4258  0.0448 -0.5007
  110OSM    H8T11283   3.691   2.394   5.683 -0.7577 -0.5109 -0.3258
  110OSM    C9S11284   3.493   2.330   5.603  0.0349  0.9053  0.0345
  110OSM    H9S11285   3.415   2.395   5.649 -3.4331 -3.4774  0.9544
  110OSM    H9T11286   3.441   2.233   5.595  2.2004 -0.3790  0.6071
  110OSM   C10S11287   3.532   2.367   5.460 -0.2853  0.2880  0.1104
  110OSM   H10S11288   3.602   2.287   5.429 -1.1221  0.0639 -1.2942
  110OSM   H10T11289   3.593   2.460   5.469  1.7967 -1.1619  2.0772
  110OSM   C11S11290   3.416   2.386   5.364  0.2704 -0.1435 -0.1182
  110OSM   H11S11291   3.360   2.292   5.349  1.6391 -1.0459  0.1770
  110OSM   H11T11292   3.463   2.412   5.267  0.7271 -0.6680 -0.0436
  110OSM   C12S11293   3.316   2.493   5.413 -0.0667 -0.4777  0.4232
  110OSM   H12S11294   3.383   2.580   5.428  0.8030 -1.0932  0.2016
  110OSM   H12T11295   3.265   2.463   5.508  1.2617 -0.8006  1.0588
  110OSM   C13S11296   3.202   2.539   5.314 -0.0476  0.2664 -0.2096
  110OSM   H13S11297   3.240   2.575   5.215 -2.5755  0.0035 -1.3680
  110OSM   H13T11298   3.167   2.636   5.355 -0.9044  0.8044 -2.0823
  110OSM   C14S11299   3.093   2.438   5.279 -0.1442 -0.7655 -0.0149
  110OSM   H14S11300   3.060   2.399   5.377 -0.3318  0.3920  0.3980
  110OSM   H14T11301   3.127   2.356   5.213 -0.7081 -1.1688  0.1919
  110OSM   C15S11302   2.972   2.496   5.200 -0.3572 -0.4444  0.9971
  110OSM   H15S11303   3.007   2.523   5.098  0.7197  0.6191  1.6260
  110OSM   H15T11304   2.932   2.585   5.252 -0.8178 -1.6771  2.8896
  110OSM   C16S11305   2.857   2.405   5.184 -0.8519  0.4694  0.1005
  110OSM   H16S11306   2.811   2.390   5.284 -1.2724 -0.1042 -0.1675
  110OSM   H16T11307   2.884   2.301   5.154 -0.9078  0.2882  0.6725
  110OSM   C17S11308   2.749   2.464   5.086  0.6261 -0.0598  0.2555
  110OSM   H17S11309   2.778   2.459   4.979 -1.1802  0.7479 -0.3067
  110OSM   H17T11310   2.732   2.570   5.113 -1.8104 -0.3267 -0.0412
  110OSM   C18S11311   2.616   2.393   5.100  0.2604 -0.5323  0.0013
  110OSM   H18S11312   2.618   2.283   5.091 -2.1651 -0.6648  0.5082
  110OSM   H18T11313   2.542   2.438   5.030  0.3177  0.7377  0.7145
  110OSM   H18U11314   2.576   2.429   5.198 -2.1674 -0.8799 -0.7970
  110OSM    C1F11315   3.369   2.619   6.267  1.3439  0.2741 -0.3208
  110OSM     OF11316   3.434   2.709   6.321  0.2387 -0.1794 -0.2452
  110OSM    C2F11317   3.239   2.651   6.197  0.1591 -0.6224  0.0395
  110OSM    H2F11318   3.169   2.716   6.254  0.4270  0.3769 -0.7368
  110OSM    H2G11319   3.186   2.554   6.188  0.9071 -1.0131 -0.1824
  110OSM    C3F11320   3.268   2.722   6.060  0.3519  0.3676  0.6502
  110OSM    H3F11321   3.319   2.816   6.089 -0.8201  1.1051  0.4050
  110OSM    H3G11322   3.173   2.756   6.013  1.3077  0.2058 -1.5441
  110OSM    C4F11323   3.363   2.648   5.964  0.1430 -0.0251 -0.4577
  110OSM    H4F11324   3.300   2.565   5.925  0.0391 -0.8699  1.3827
  110OSM    H4G11325   3.443   2.596   6.020 -1.5445 -1.6121  0.6289
  110OSM    C5F11326   3.422   2.730   5.853  0.0967  0.2196 -0.4542
  110OSM    H5F11327   3.444   2.658   5.771 -2.5396  1.0267 -1.9913
  110OSM    H5G11328   3.512   2.769   5.904  0.3445 -0.7210 -0.1588
  110OSM    C6F11329   3.336   2.845   5.800 -0.3441 -0.0266 -0.0310
  110OSM    H6F11330   3.301   2.903   5.888 -1.1885 -2.1086  1.0624
  110OSM    H6G11331   3.241   2.801   5.762 -1.2869 -0.1423  2.2862
  110OSM    C7F11332   3.407   2.936   5.697  0.0455  0.1864 -0.3780
  110OSM    H7F11333   3.451   2.887   5.607  2.8610  2.0160 -0.1427
  110OSM    H7G11334   3.490   2.984   5.754  0.1099 -0.5809  0.1827
  110OSM    C8F11335   3.310   3.047   5.645  0.5760  0.1383 -0.4839
  110OSM    H8F11336   3.265   3.095   5.735  0.2600 -0.6033 -0.2389
  110OSM    H8G11337   3.222   3.003   5.594 -1.4399  0.8940  2.0925
  110OSM    C9F11338   3.378   3.151   5.556  0.3123 -0.0182 -0.4164
  110OSM    H9F11339   3.418   3.235   5.614  1.3676 -0.4189 -0.5449
  110OSM   C10F11340   3.394   3.140   5.425 -0.4852 -0.6265 -0.3737
  110OSM   H10F11341   3.461   3.211   5.376 -0.2100  1.5484  2.8400
  110OSM   C11F11342   3.332   3.032   5.338  0.2187 -0.2674 -0.3214
  110OSM   H11F11343   3.224   3.055   5.328 -0.3086 -2.1255  0.7176
  110OSM   H11G11344   3.340   2.929   5.380  1.6942  0.9447  2.6935
  110OSM   C12F11345   3.395   3.016   5.196  0.3361  0.6272 -0.6462
  110OSM   H12F11346   3.505   2.997   5.200  0.1203 -0.6156  1.7744
  110OSM   H12G11347   3.372   3.113   5.148 -0.8045  2.5162  3.2500
  110OSM   C13F11348   3.339   2.892   5.126  0.5047  0.0788  0.5129
  110OSM   H13F11349   3.228   2.895   5.125  0.5164  1.6411 -1.4226
  110OSM   H13G11350   3.355   2.792   5.172 -0.7674 -0.6701 -0.5995
  110OSM   C14F11351   3.404   2.887   4.987 -0.4542  0.1302 -0.1386
  110OSM   H14F11352   3.512   2.864   4.996 -1.0057 -2.0806  1.5346
  110OSM   H14G11353   3.388   2.987   4.940 -2.1062 -0.4408 -0.8528
  110OSM   C15F11354   3.335   2.786   4.898 -0.1270  0.3701  0.1159
  110OSM   H15F11355   3.227   2.797   4.921  0.3175 -0.7006  3.1699
  110OSM   H15G11356   3.363   2.683   4.928 -1.4284 -0.3925 -1.1538
  110OSM   C16F11357   3.345   2.815   4.748 -0.2807 -0.9550  0.6321
  110OSM   H16F11358   3.301   2.914   4.721 -1.5320 -0.8946  2.6676
  110OSM   H16G11359   3.283   2.737   4.698 -2.7314  2.3815 -2.0227
  110OSM   C17F11360   3.495   2.810   4.705  0.7846 -0.2348 -0.5321
  110OSM   H17F11361   3.526   2.704   4.707  2.9957  0.3363 -1.8310
  110OSM   H17G11362   3.545   2.874   4.781 -0.9160 -0.4889  0.8803
  110OSM   C18F11363   3.517   2.853   4.562 -0.0433 -0.1012 -0.0843
  110OSM   H18F11364   3.478   2.956   4.557  0.7031  0.2645  1.0629
  110OSM   H18G11365   3.473   2.784   4.488  1.0945  0.2790 -1.1505
  110OSM   H18H11366   3.628   2.852   4.550  0.1804 -4.1308  0.8495
  111OSM      N11367   5.412   1.022   6.841 -1.2787  0.7848  0.2095
  111OSM    C1511368   5.410   1.137   6.931 -0.4084 -0.6759 -0.0465
  111OSM   H15A11369   5.510   1.176   6.942 -0.1712 -1.0178 -0.9026
  111OSM   H15B11370   5.389   1.089   7.025  0.8576 -1.4939 -0.1578
  111OSM   H15C11371   5.339   1.215   6.909  0.9092  0.6935  0.3447
  111OSM    C1411372   5.464   1.062   6.706  0.6802  1.0266  0.1530
  111OSM   H14A11373   5.564   1.104   6.707  1.1985  0.0366 -2.5318
  111OSM   H14B11374   5.403   1.128   6.646 -0.0342 -0.8262 -1.2824
  111OSM   H14C11375   5.468   0.979   6.637 -0.2005  0.2979  0.9495
  111OSM    C1311376   5.504   0.922   6.893 -0.4121  0.5848  0.1312
  111OSM   H13A11377   5.522   0.845   6.819  2.6792 -1.0728  2.3758
  111OSM   H13B11378   5.465   0.876   6.983  1.1211  1.2377  1.1657
  111OSM   H13C11379   5.600   0.961   6.923 -0.6755  0.5505  1.0390
  111OSM    C1211380   5.266   0.970   6.835 -0.7644 -0.3290  0.2179
  111OSM   H12A11381   5.236   0.953   6.938 -0.4940 -0.3375  0.2971
  111OSM   H12B11382   5.265   0.878   6.780  2.3386 -1.7984  2.3046
  111OSM    C1111383   5.172   1.071   6.768  0.1178  0.1618  0.2784
  111OSM   H11A11384   5.165   1.166   6.825  1.0201  0.4329 -0.0484
  111OSM   H11B11385   5.067   1.034   6.775 -0.9504  2.0663 -3.1937
  111OSM      P11386   5.159   0.979   6.520 -0.3924 -0.0467 -0.5583
  111OSM    O1311387   5.284   0.950   6.450  0.0748  0.2795  0.6936
  111OSM    O1411388   5.091   0.862   6.580 -0.1803 -0.6357 -0.4168
  111OSM    O1111389   5.059   1.055   6.427  0.8468  0.5704 -0.0260
  111OSM    O1211390   5.195   1.091   6.630 -0.2505  0.1824 -0.3290
  111OSM    C1S11391   5.100   1.181   6.376 -0.6560  0.3895  0.1885
  111OSM    H1S11392   5.210   1.194   6.378 -0.8340  2.2729 -0.3258
  111OSM    H1T11393   5.064   1.258   6.448 -1.0051  0.2956  0.1187
  111OSM     NF11394   5.103   1.320   6.163 -0.5901 -0.9893  0.0483
  111OSM    HNF11395   5.047   1.403   6.163 -1.2839 -1.4493 -0.1387
  111OSM    C2S11396   5.049   1.202   6.226 -0.2328 -0.0378  0.0030
  111OSM    H2S11397   5.079   1.109   6.175 -1.7131 -0.0484 -0.9151
  111OSM    C3S11398   4.899   1.204   6.231 -0.1611  0.3969  0.5454
  111OSM    H3S11399   4.891   1.295   6.294  2.4075  0.8832  0.2863
  111OSM     O311400   4.832   1.099   6.297 -0.0690 -0.1615 -0.3813
  111OSM    HO311401   4.899   1.075   6.362 -0.6307 -0.3576  0.1374
  111OSM    C4S11402   4.842   1.223   6.093  0.2436 -0.4692 -0.5287
  111OSM    H4S11403   4.864   1.324   6.054  1.5151 -1.4307 -2.4715
  111OSM    C5S11404   4.777   1.145   6.006  0.2670 -0.2438  0.8282
  111OSM    H5S11405   4.770   1.037   6.024  1.1908 -0.6392 -0.9824
  111OSM    C6S11406   4.721   1.182   5.869 -0.1120  0.3317  0.1428
  111OSM    H6S11407   4.610   1.182   5.872 -0.2803  1.7586 -2.5279
  111OSM    H6T11408   4.758   1.105   5.798 -0.3063 -1.0708  1.4883
  111OSM    C7S11409   4.773   1.314   5.811 -0.1560 -0.0153  0.2860
  111OSM    H7S11410   4.882   1.330   5.826 -0.2544 -1.4283  3.2072
  111OSM    H7T11411   4.723   1.401   5.858 -0.6541 -0.6039  0.8590
  111OSM    C8S11412   4.735   1.335   5.659  0.5628  0.4570 -0.3997
  111OSM    H8S11413   4.626   1.353   5.652  0.5486  0.6968  0.3236
  111OSM    H8T11414   4.763   1.245   5.600 -3.5445 -1.2020 -0.1539
  111OSM    C9S11415   4.814   1.454   5.596 -0.2704 -0.4010  0.2075
  111OSM    H9S11416   4.924   1.436   5.595 -0.0022  1.1016 -1.0475
  111OSM    H9T11417   4.789   1.547   5.651  0.0521 -0.2909  0.1720
  111OSM   C10S11418   4.764   1.478   5.461 -0.2063 -0.4821  0.7825
  111OSM   H10S11419   4.654   1.496   5.461 -0.2415 -0.6547 -0.1713
  111OSM   H10T11420   4.786   1.386   5.404 -1.5337 -2.5852  3.4475
  111OSM   C11S11421   4.828   1.603   5.379  0.4349  0.7490 -0.6560
  111OSM   H11S11422   4.932   1.598   5.417  0.4680 -0.6610 -0.8705
  111OSM   H11T11423   4.786   1.702   5.407 -2.3308 -0.7263  0.9296
  111OSM   C12S11424   4.826   1.588   5.229  0.0244 -0.4329  0.4632
  111OSM   H12S11425   4.844   1.483   5.196  2.8405 -0.5849  2.2009
  111OSM   H12T11426   4.907   1.653   5.188 -1.9881  2.7542  1.1854
  111OSM   C13S11427   4.694   1.639   5.159 -0.0031 -0.1683 -0.9611
  111OSM   H13S11428   4.653   1.735   5.197 -1.6924 -1.2826  0.1563
  111OSM   H13T11429   4.615   1.562   5.167  0.7376 -0.8390  0.1426
  111OSM   C14S11430   4.714   1.653   5.012 -0.5504 -0.9706  0.4682
  111OSM   H14S11431   4.759   1.555   4.983  1.6692  0.7833 -2.6125
  111OSM   H14T11432   4.795   1.725   4.988 -1.3584 -0.0406  0.4656
  111OSM   C15S11433   4.585   1.663   4.927 -0.4774  0.7553  0.2429
  111OSM   H15S11434   4.545   1.762   4.959  2.4442  1.6065  1.6295
  111OSM   H15T11435   4.513   1.586   4.962 -1.8037  1.7331 -0.2372
  111OSM   C16S11436   4.608   1.652   4.772  0.2956  0.2917 -0.4037
  111OSM   H16S11437   4.656   1.554   4.749  1.3100  0.7387 -0.2769
  111OSM   H16T11438   4.678   1.737   4.755  0.3449  0.3770  0.1935
  111OSM   C17S11439   4.486   1.661   4.688 -0.5275  0.4072  0.2980
  111OSM   H17S11440   4.419   1.575   4.706 -0.5361  0.7381  2.1035
  111OSM   H17T11441   4.518   1.650   4.582  1.0209 -0.1596  0.7927
  111OSM   C18S11442   4.399   1.785   4.722  0.6532 -0.2518 -0.1298
  111OSM   H18S11443   4.313   1.793   4.653  0.5061  0.3176  0.1062
  111OSM   H18T11444   4.464   1.876   4.717  1.6127 -0.6359  3.0862
  111OSM   H18U11445   4.354   1.784   4.824  0.6003  0.6682 -0.1355
  111OSM    C1F11446   5.230   1.325   6.122 -0.3472  0.6790 -0.1306
  111OSM     OF11447   5.299   1.224   6.124 -0.3799  0.5849  0.1797
  111OSM    C2F11448   5.284   1.461   6.101 -0.3420 -0.1820 -0.1130
  111OSM    H2F11449   5.343   1.486   6.191 -1.8560 -1.1316  1.1860
  111OSM    H2G11450   5.200   1.533   6.107 -1.6676 -1.7141  0.2163
  111OSM    C3F11451   5.368   1.474   5.971  0.2669  0.2412  0.1595
  111OSM    H3F11452   5.445   1.394   5.981  1.2588  1.2856  1.1035
  111OSM    H3G11453   5.423   1.570   5.957  1.1239 -0.4243 -1.3267
  111OSM    C4F11454   5.292   1.452   5.845  0.3485  0.6775 -0.0777
  111OSM    H4F11455   5.181   1.457   5.851  0.3061 -0.5786  0.6265
  111OSM    H4G11456   5.309   1.345   5.820  0.2773  0.6229  0.1097
  111OSM    C5F11457   5.342   1.538   5.731  0.3711 -0.0100 -0.0072
  111OSM    H5F11458   5.453   1.530   5.725  0.3096 -0.3966 -0.8169
  111OSM    H5G11459   5.313   1.639   5.766  4.0431  0.6215  1.6292
  111OSM    C6F11460   5.280   1.490   5.600 -0.3107  0.0171  0.1912
  111OSM    H6F11461   5.175   1.463   5.622  0.0185  0.2070  2.1998
  111OSM    H6G11462   5.335   1.402   5.560  1.7661  1.1510  0.3831
  111OSM    C7F11463   5.281   1.596   5.491 -0.4039  0.4223  0.0410
  111OSM    H7F11464   5.387   1.626   5.476  0.4399 -2.5661 -0.4802
  111OSM    H7G11465   5.230   1.690   5.520 -2.5568  0.4834 -3.4591
  111OSM    C8F11466   5.215   1.548   5.363  0.1137 -0.1340 -0.7190
  111OSM    H8F11467   5.105   1.535   5.369  0.2770 -1.5720 -0.5149
  111OSM    H8G11468   5.260   1.447   5.350 -2.0126 -1.2668  0.2926
  111OSM    C9F11469   5.254   1.635   5.247 -0.3876  0.2470 -0.5234
  111OSM    H9F11470   5.207   1.734   5.239  0.1102  0.7537  1.9759
  111OSM   C10F11471   5.344   1.606   5.147  0.3388 -0.1895 -0.1452
  111OSM   H10F11472   5.374   1.687   5.078 -0.2777  0.5970  0.4941
  111OSM   C11F11473   5.434   1.484   5.137  0.3209 -0.2430  0.1938
  111OSM   H11F11474   5.423   1.406   5.216 -0.5617  0.2781  0.6053
  111OSM   H11G11475   5.538   1.525   5.144  0.0041  0.5220  0.5799
  111OSM   C12F11476   5.432   1.411   5.003  0.3466  0.6997  0.4002
  111OSM   H12F11477   5.331   1.366   4.990 -0.1281  1.6624  0.6664
  111OSM   H12G11478   5.507   1.329   4.993 -0.3607  0.2648 -2.2008
  111OSM   C13F11479   5.484   1.509   4.894 -0.5177  0.2301  0.1907
  111OSM   H13F11480   5.573   1.569   4.923 -0.6852  0.3957  0.3603
  111OSM   H13G11481   5.397   1.576   4.879 -0.5216  0.3412  0.6791
  111OSM   C14F11482   5.516   1.451   4.759 -0.3580 -1.0826  0.9980
  111OSM   H14F11483   5.437   1.390   4.710  0.0838 -2.7869  2.2895
  111OSM   H14G11484   5.606   1.385   4.759  0.8075  0.4648  1.0614
  111OSM   C15F11485   5.529   1.567   4.658  0.4090 -0.5062 -0.1376
  111OSM   H15F11486   5.439   1.630   4.676  0.2625 -0.1904 -1.8208
  111OSM   H15G11487   5.521   1.519   4.558  2.1418  0.1330 -0.6069
  111OSM   C16F11488   5.663   1.651   4.660  0.5023 -0.4649 -0.2615
  111OSM   H16F11489   5.740   1.571   4.654  1.1041 -0.0205  1.2269
  111OSM   H16G11490   5.679   1.699   4.759 -0.5178 -2.4119  0.9104
  111OSM   C17F11491   5.663   1.762   4.551 -0.4815  0.1095 -0.0673
  111OSM   H17F11492   5.645   1.715   4.453  0.3981  0.4905 -0.4220
  111OSM   H17G11493   5.764   1.808   4.542 -1.6359  2.7002 -0.7783
  111OSM   C18F11494   5.556   1.873   4.566  0.3885 -0.2373 -0.3762
  111OSM   H18F11495   5.455   1.828   4.555  1.1366 -2.3778  0.8807
  111OSM   H18G11496   5.560   1.949   4.484  2.0657 -2.1415 -2.1884
  111OSM   H18H11497   5.553   1.913   4.669  1.5932 -1.8285  0.3092
  112OSM      N11498   1.846   5.153   6.934  0.3092  0.1507  0.1285
  112OSM    C1511499   1.988   5.106   6.944 -0.5026 -0.0249  0.5358
  112OSM   H15A11500   2.065   5.182   6.948  2.5474 -2.8996  1.6415
  112OSM   H15B11501   2.012   5.040   6.862  0.8951 -0.7118  1.4344
  112OSM   H15C11502   1.998   5.050   7.036 -1.5560 -0.1724  0.5657
  112OSM    C1411503   1.754   5.036   6.954 -0.4731 -0.9081  0.0360
  112OSM   H14A11504   1.653   5.071   6.945 -0.0297  1.0908  1.7805
  112OSM   H14B11505   1.759   4.984   7.049 -1.6286  0.0839  0.6632
  112OSM   H14C11506   1.774   4.959   6.881  0.0918 -0.5657 -0.1753
  112OSM    C1311507   1.821   5.253   7.034 -0.5666  0.2878 -0.5720
  112OSM   H13A11508   1.721   5.292   7.027 -0.7012  0.0165 -0.1981
  112OSM   H13B11509   1.883   5.341   7.026  0.6345 -0.4505  0.1369
  112OSM   H13C11510   1.829   5.207   7.132 -0.2266  1.5025 -0.0137
  112OSM    C1211511   1.827   5.212   6.798 -0.7258  0.4782  0.3847
  112OSM   H12A11512   1.841   5.134   6.724  1.4201 -1.8118  3.0104
  112OSM   H12B11513   1.907   5.279   6.772  1.2027 -0.6443  3.0202
  112OSM    C1111514   1.692   5.279   6.768 -0.1113  0.0857  0.1162
  112OSM   H11A11515   1.701   5.308   6.662 -1.3156  1.3284  0.3193
  112OSM   H11B11516   1.693   5.373   6.828  0.5936 -0.0428  0.3186
  112OSM      P11517   1.438   5.244   6.831  0.2333 -0.3662 -0.0049
  112OSM    O1311518   1.350   5.132   6.825  0.5197  0.2366  0.0322
  112OSM    O1411519   1.434   5.313   6.962 -0.5041  0.6235  0.2915
  112OSM    O1111520   1.408   5.354   6.719 -0.5566  0.2886 -0.3306
  112OSM    O1211521   1.579   5.192   6.790 -0.3197  0.1794  0.1535
  112OSM    C1S11522   1.413   5.330   6.578 -0.2562  0.1393 -0.0286
  112OSM    H1S11523   1.333   5.257   6.554 -0.7842 -0.5924  3.4279
  112OSM    H1T11524   1.512   5.284   6.554 -0.8978 -1.3857  0.1388
  112OSM     NF11525   1.398   5.421   6.346  0.3050 -0.0347  0.2473
  112OSM    HNF11526   1.477   5.457   6.298  0.8878 -1.9894 -0.3660
  112OSM    C2S11527   1.380   5.454   6.485  0.5885  0.1329 -0.3109
  112OSM    H2S11528   1.269   5.465   6.490  0.7442  1.0751  1.7334
  112OSM    C3S11529   1.435   5.588   6.527  0.3275  0.1186 -0.0197
  112OSM    H3S11530   1.544   5.570   6.532  0.2628 -0.0064  1.3542
  112OSM     O311531   1.401   5.620   6.661  0.4592  0.4952 -0.3179
  112OSM    HO311532   1.386   5.537   6.706 -0.0966  1.6785  1.7737
  112OSM    C4S11533   1.389   5.695   6.429 -0.1737  0.7110  0.4125
  112OSM    H4S11534   1.292   5.687   6.379  0.7646  1.0042 -1.5344
  112OSM    C5S11535   1.455   5.800   6.380 -0.5029  0.8856  0.2909
  112OSM    H5S11536   1.556   5.818   6.420 -1.8503  1.4748  3.7156
  112OSM    C6S11537   1.413   5.894   6.270  0.6990  0.2509 -0.4659
  112OSM    H6S11538   1.497   5.914   6.200  0.8382  3.3645  0.4219
  112OSM    H6T11539   1.392   5.997   6.305 -1.6450  0.2206 -1.5819
  112OSM    C7S11540   1.282   5.851   6.189 -0.2125 -0.4033 -0.1874
  112OSM    H7S11541   1.197   5.848   6.260 -0.9502 -2.0505 -1.0722
  112OSM    H7T11542   1.303   5.749   6.149 -1.3438 -0.4318 -0.7560
  112OSM    C8S11543   1.250   5.945   6.068 -0.2102  0.5322 -0.0795
  112OSM    H8S11544   1.230   6.046   6.107  0.5612 -0.0379  1.8950
  112OSM    H8T11545   1.160   5.892   6.028  0.4455 -2.3544  1.9666
  112OSM    C9S11546   1.357   5.933   5.960  0.6303  0.6704  0.8986
  112OSM    H9S11547   1.384   5.829   5.931 -0.9479  0.0069  1.7192
  112OSM    H9T11548   1.440   6.005   5.977 -0.6430  2.5609 -0.4860
  112OSM   C10S11549   1.295   5.988   5.825 -0.6189 -0.3180  0.1405
  112OSM   H10S11550   1.297   6.099   5.823 -1.0366 -0.3168 -0.3376
  112OSM   H10T11551   1.192   5.947   5.822  0.1233 -2.4357  1.2962
  112OSM   C11S11552   1.353   5.930   5.695 -0.5510 -0.8374 -0.5780
  112OSM   H11S11553   1.378   5.822   5.686 -0.8525 -0.9952  0.4259
  112OSM   H11T11554   1.452   5.979   5.684  0.6959 -2.5239  2.3016
  112OSM   C12S11555   1.261   5.942   5.580  0.4385  0.2577  0.0043
  112OSM   H12S11556   1.238   6.049   5.564  1.7930  0.5164 -0.3121
  112OSM   H12T11557   1.166   5.891   5.609  2.1233 -1.8384  2.2753
  112OSM   C13S11558   1.314   5.870   5.452  0.0273 -0.4479 -0.2955
  112OSM   H13S11559   1.326   5.760   5.452 -1.1361 -0.5997  1.5402
  112OSM   H13T11560   1.414   5.915   5.433 -0.2185  0.6349  0.8691
  112OSM   C14S11561   1.222   5.894   5.331  0.0813  0.0063 -0.2447
  112OSM   H14S11562   1.204   6.003   5.322  1.6571  0.2633 -0.4915
  112OSM   H14T11563   1.124   5.849   5.361 -0.2185  0.8191  0.0228
  112OSM   C15S11564   1.268   5.842   5.198  0.3836  0.1593  1.0649
  112OSM   H15S11565   1.265   5.731   5.209 -2.2275  0.3024  2.9018
  112OSM   H15T11566   1.369   5.884   5.184 -0.1555  1.1373 -0.0401
  112OSM   C16S11567   1.184   5.880   5.081 -0.3230 -0.0717 -0.3493
  112OSM   H16S11568   1.197   5.984   5.043  0.7268 -0.2950 -0.6415
  112OSM   H16T11569   1.079   5.864   5.114  0.5541  0.9450  3.4141
  112OSM   C17S11570   1.210   5.793   4.958  0.0617  0.1486  0.1201
  112OSM   H17S11571   1.183   5.693   4.998 -1.8555 -0.2756 -2.0139
  112OSM   H17T11572   1.315   5.791   4.924  0.0853 -2.0815  0.1814
  112OSM   C18S11573   1.115   5.819   4.840 -0.4827 -0.7103 -0.5648
  112OSM   H18S11574   1.006   5.816   4.864 -0.6593  0.7204 -1.1036
  112OSM   H18T11575   1.145   5.745   4.763  0.6158 -0.3887 -0.4533
  112OSM   H18U11576   1.135   5.915   4.789 -1.1166  0.1356  0.7202
  112OSM    C1F11577   1.332   5.319   6.284 -0.0789  0.4033  0.3741
  112OSM     OF11578   1.230   5.265   6.324  0.2882  0.6778  0.1758
  112OSM    C2F11579   1.394   5.277   6.154  0.1842  0.1073  0.3670
  112OSM    H2F11580   1.405   5.167   6.147  0.6091  0.2631 -3.3458
  112OSM    H2G11581   1.491   5.328   6.136  0.2160  0.0816  0.4669
  112OSM    C3F11582   1.295   5.314   6.036 -0.8938  0.3389  0.2524
  112OSM    H3F11583   1.274   5.423   6.032 -0.6920  0.3505 -0.6077
  112OSM    H3G11584   1.199   5.261   6.051 -0.6373  0.0905  1.0799
  112OSM    C4F11585   1.340   5.263   5.894  0.1700 -0.0435 -0.2122
  112OSM    H4F11586   1.325   5.153   5.897 -0.2133  0.0275  1.3171
  112OSM    H4G11587   1.449   5.281   5.881  0.8370 -1.4691  2.6164
  112OSM    C5F11588   1.251   5.330   5.787 -0.0065 -0.1599 -0.0537
  112OSM    H5F11589   1.230   5.438   5.803  0.2730 -0.0638 -0.3375
  112OSM    H5G11590   1.145   5.296   5.783 -0.8192  2.2594 -2.5505
  112OSM    C6F11591   1.312   5.308   5.650 -0.7287 -0.4596 -0.8858
  112OSM    H6F11592   1.347   5.207   5.621  0.1035 -0.2003 -0.8039
  112OSM    H6G11593   1.403   5.372   5.650 -1.3617  0.4725 -0.5256
  112OSM    C7F11594   1.223   5.358   5.533  0.2306  0.0527 -0.6872
  112OSM    H7F11595   1.234   5.468   5.526  1.9497  0.0672  1.3162
  112OSM    H7G11596   1.119   5.331   5.561 -0.0571 -1.4003 -2.8552
  112OSM    C8F11597   1.255   5.297   5.392 -0.2569  0.6052 -1.2718
  112OSM    H8F11598   1.286   5.192   5.410  0.9224  1.2580  0.8906
  112OSM    H8G11599   1.347   5.345   5.352  0.5428  0.4269  0.2649
  112OSM    C9F11600   1.128   5.296   5.311 -0.0191 -0.6431 -0.3025
  112OSM    H9F11601   1.033   5.269   5.359 -0.0985  2.2806  1.4222
  112OSM   C10F11602   1.126   5.295   5.174 -0.1505 -0.2365 -0.3235
  112OSM   H10F11603   1.029   5.292   5.122  0.7660 -1.4032 -2.0281
  112OSM   C11F11604   1.238   5.316   5.073 -0.3056  0.4250 -0.3832
  112OSM   H11F11605   1.340   5.310   5.115 -1.0038  0.8336  1.4840
  112OSM   H11G11606   1.241   5.416   5.027  0.3569  0.5548 -0.0642
  112OSM   C12F11607   1.249   5.208   4.967  0.9959  0.7819 -1.2626
  112OSM   H12F11608   1.249   5.108   5.016 -1.6150  1.2189 -0.2064
  112OSM   H12G11609   1.347   5.217   4.915  1.6251  0.5858 -0.1483
  112OSM   C13F11610   1.134   5.213   4.866  0.1179  0.3971  0.4358
  112OSM   H13F11611   1.129   5.313   4.819  1.4523  0.0697 -0.4471
  112OSM   H13G11612   1.042   5.201   4.929  0.7198 -0.9041  1.1214
  112OSM   C14F11613   1.139   5.104   4.758  0.7527 -0.7291  0.1397
  112OSM   H14F11614   1.230   5.127   4.698  0.1204  2.8342  0.3604
  112OSM   H14G11615   1.054   5.118   4.688 -0.3008 -1.9894  1.1110
  112OSM   C15F11616   1.141   4.962   4.803  0.1171  0.0422 -0.0302
  112OSM   H15F11617   1.067   4.942   4.883 -0.3078 -0.4595 -0.5393
  112OSM   H15G11618   1.240   4.946   4.850  0.4726  0.5977 -0.5751
  112OSM   C16F11619   1.131   4.861   4.680  0.4586  0.2347 -0.4797
  112OSM   H16F11620   1.196   4.894   4.596 -1.5601  1.0044 -1.8188
  112OSM   H16G11621   1.029   4.883   4.643 -0.1545  0.9972  1.5328
  112OSM   C17F11622   1.158   4.712   4.720 -0.2279  0.0116  0.4109
  112OSM   H17F11623   1.109   4.685   4.816 -2.0350  2.1076  0.1768
  112OSM   H17G11624   1.268   4.703   4.723 -0.1203  0.8655 -0.4165
  112OSM   C18F11625   1.110   4.619   4.611 -0.0416  0.0861  0.4974
  112OSM   H18F11626   1.147   4.651   4.511 -0.1868  0.4992  0.5729
  112OSM   H18G11627   1.002   4.631   4.587  0.1329 -1.8427 -1.5858
  112OSM   H18H11628   1.135   4.515   4.639  0.2274  0.1899  0.6484
  113OSM      N11629   6.121   5.982   6.653  0.3203 -0.6512  0.8101
  113OSM    C1511630   6.200   6.069   6.735 -0.3076  0.3727  0.3808
  113OSM   H15A11631   6.307   6.068   6.716  0.5313  1.4586  4.1833
  113OSM   H15B11632   6.185   6.046   6.839 -1.1362  3.8133  1.1651
  113OSM   H15C11633   6.162   6.170   6.735 -1.8898 -0.2004  0.0543
  113OSM    C1411634   6.155   6.019   6.509 -0.5456  0.5190 -0.2050
  113OSM   H14A11635   6.129   5.941   6.438  2.3392 -0.9389  0.2048
  113OSM   H14B11636   6.262   6.026   6.493 -0.2529  0.3668  1.5256
  113OSM   H14C11637   6.097   6.104   6.476  0.3522  0.9310 -0.7766
  113OSM    C1311638   6.154   5.843   6.660  0.3291 -0.1007 -0.3221
  113OSM   H13A11639   6.175   5.818   6.763  1.1024  0.2117 -0.3993
  113OSM   H13B11640   6.240   5.815   6.602 -0.9010 -2.9229 -0.9440
  113OSM   H13C11641   6.075   5.784   6.616  1.2452 -2.0584  0.5590
  113OSM    C1211642   5.974   6.022   6.687  0.9075  1.0601 -0.2425
  113OSM   H12A11643   5.968   6.123   6.725 -0.2170  1.5122 -1.5138
  113OSM   H12B11644   5.938   5.960   6.768  1.3092  2.9067  1.4328
  113OSM    C1111645   5.853   5.991   6.587 -0.1660 -0.0294  0.3983
  113OSM   H11A11646   5.758   5.976   6.642  0.7974  1.8811  2.7419
  113OSM   H11B11647   5.872   5.897   6.530 -1.5616 -0.3758  0.4892
  113OSM      P11648   5.783   6.228   6.551 -0.4755  0.2154 -0.2785
  113OSM    O1311649   5.660   6.201   6.625 -0.0642 -0.1797 -0.4432
  113OSM    O1411650   5.888   6.312   6.614  0.0803  0.1704 -0.0370
  113OSM    O1111651   5.738   6.305   6.426 -0.0259  0.5634  0.6776
  113OSM    O1211652   5.848   6.099   6.496  0.2942  0.0746  0.4559
  113OSM    C1S11653   5.831   6.326   6.317  0.2536  0.1998 -0.1081
  113OSM    H1S11654   5.914   6.252   6.322  0.9824  0.8654 -1.7807
  113OSM    H1T11655   5.880   6.424   6.327  0.5300 -0.1647  3.0776
  113OSM     NF11656   5.843   6.318   6.073  0.5865  0.2334  0.3876
  113OSM    HNF11657   5.809   6.387   6.009 -2.8893 -2.1879 -0.6215
  113OSM    C2S11658   5.761   6.290   6.187  0.0235 -0.0802 -0.1360
  113OSM    H2S11659   5.747   6.179   6.189 -2.4196  0.1697  0.0587
  113OSM    C3S11660   5.612   6.345   6.178  0.3775  0.1681  0.1309
  113OSM    H3S11661   5.623   6.456   6.175 -0.9573  0.3071 -0.3873
  113OSM     O311662   5.527   6.313   6.291 -0.4973 -0.1014 -0.0610
  113OSM    HO311663   5.587   6.325   6.365  0.1605 -0.8515 -0.4574
  113OSM    C4S11664   5.556   6.304   6.044 -0.0254 -0.1078  0.1576
  113OSM    H4S11665   5.600   6.355   5.957 -0.2604 -0.2762 -0.0598
  113OSM    C5S11666   5.443   6.226   6.025 -0.3921 -0.4895 -0.2020
  113OSM    H5S11667   5.390   6.191   6.115  1.6479 -0.8238  0.9435
  113OSM    C6S11668   5.372   6.207   5.897  0.0418  0.3911  0.9851
  113OSM    H6S11669   5.268   6.243   5.910  0.1303  1.4562 -0.8805
  113OSM    H6T11670   5.360   6.098   5.877  0.0674  0.3304  1.3043
  113OSM    C7S11671   5.430   6.276   5.770 -0.0923 -0.5562  0.3524
  113OSM    H7S11672   5.529   6.229   5.749  0.9086  1.2358  0.7688
  113OSM    H7T11673   5.449   6.384   5.791 -1.3667 -0.2768  0.1194
  113OSM    C8S11674   5.336   6.277   5.640 -0.0920  0.2747 -0.1257
  113OSM    H8S11675   5.236   6.323   5.658  0.5577  1.7096 -0.0554
  113OSM    H8T11676   5.314   6.174   5.605 -0.4209  1.1221 -2.5708
  113OSM    C9S11677   5.400   6.350   5.521  0.1885  0.6290 -0.4761
  113OSM    H9S11678   5.486   6.290   5.483  0.5436  0.6338  0.3175
  113OSM    H9T11679   5.434   6.454   5.540 -1.1889  1.2219 -1.0908
  113OSM   C10S11680   5.299   6.359   5.406  0.4711  0.6796  0.1550
  113OSM   H10S11681   5.220   6.437   5.415 -0.7588 -0.5635  0.6262
  113OSM   H10T11682   5.252   6.259   5.394  0.7228  0.3404  1.7625
  113OSM   C11S11683   5.369   6.391   5.271  0.1628  0.3260  0.7412
  113OSM   H11S11684   5.445   6.310   5.261 -2.3826 -1.9420 -2.2879
  113OSM   H11T11685   5.413   6.493   5.274 -1.9149  1.3144 -0.2268
  113OSM   C12S11686   5.275   6.376   5.157  0.5270  0.2616  0.7983
  113OSM   H12S11687   5.189   6.445   5.175  0.7412  1.7396 -2.8734
  113OSM   H12T11688   5.241   6.270   5.157  2.6887 -0.4772  0.2345
  113OSM   C13S11689   5.340   6.388   5.024  0.5772 -0.7178 -0.4660
  113OSM   H13S11690   5.390   6.485   5.005  2.0998 -1.7328 -1.9156
  113OSM   H13T11691   5.262   6.371   4.946  1.6001 -0.4351 -1.5684
  113OSM   C14S11692   5.458   6.292   5.002 -0.9043  0.0182 -0.5945
  113OSM   H14S11693   5.421   6.191   5.028 -1.7274  0.5688  0.4707
  113OSM   H14T11694   5.546   6.315   5.066 -1.6832  1.7730 -0.0875
  113OSM   C15S11695   5.506   6.290   4.851 -0.0156 -1.3511  0.3919
  113OSM   H15S11696   5.414   6.269   4.791 -0.4409 -1.0827  0.9442
  113OSM   H15T11697   5.586   6.215   4.832  1.3231  0.1415 -0.0867
  113OSM   C16S11698   5.553   6.427   4.800 -0.3229  0.6590  0.0579
  113OSM   H16S11699   5.639   6.448   4.866 -0.9151  0.3465  0.9408
  113OSM   H16T11700   5.480   6.509   4.782 -0.3008  0.7347  0.3238
  113OSM   C17S11701   5.621   6.411   4.662 -0.0057  0.1401 -0.0564
  113OSM   H17S11702   5.708   6.346   4.687 -2.0021 -2.4776  0.5283
  113OSM   H17T11703   5.652   6.509   4.621 -2.9143  1.0155 -0.3236
  113OSM   C18S11704   5.546   6.339   4.551  0.2864  0.9458 -0.1370
  113OSM   H18S11705   5.439   6.372   4.548 -0.2794 -0.7937 -0.2280
  113OSM   H18T11706   5.554   6.232   4.579 -0.7050  0.7089 -0.7117
  113OSM   H18U11707   5.585   6.350   4.448 -2.6423  1.3298 -1.3119
  113OSM    C1F11708   5.945   6.247   6.040  0.3246  0.1539  0.4757
  113OSM     OF11709   5.968   6.142   6.097 -0.1674  0.3106 -0.1461
  113OSM    C2F11710   6.029   6.297   5.931 -0.5920  0.2521 -0.2241
  113OSM    H2F11711   6.133   6.312   5.968 -1.1108  1.7880  0.7061
  113OSM    H2G11712   5.999   6.402   5.908  0.2365  0.5268 -0.0963
  113OSM    C3F11713   6.047   6.201   5.806 -0.0288 -0.4142 -0.1903
  113OSM    H3F11714   5.950   6.207   5.754  0.6564  2.4284 -1.3226
  113OSM    H3G11715   6.058   6.099   5.849 -2.2024 -0.1109  1.1984
  113OSM    C4F11716   6.145   6.250   5.703 -1.0032  0.0740 -0.6746
  113OSM    H4F11717   6.245   6.264   5.748  0.1254 -3.4263 -1.8341
  113OSM    H4G11718   6.118   6.354   5.673 -0.2173  0.2504 -0.7927
  113OSM    C5F11719   6.166   6.154   5.592 -0.4442  0.0349 -0.1174
  113OSM    H5F11720   6.063   6.146   5.550 -1.0849 -0.9188  1.5668
  113OSM    H5G11721   6.202   6.054   5.624  4.7184  2.0589  1.5079
  113OSM    C6F11722   6.259   6.229   5.491  0.3437 -0.2114  0.2724
  113OSM    H6F11723   6.351   6.258   5.546 -1.3581  0.6407  2.8736
  113OSM    H6G11724   6.211   6.327   5.466 -1.4825 -1.2272 -0.4317
  113OSM    C7F11725   6.287   6.149   5.359  0.0674  0.3170 -0.1315
  113OSM    H7F11726   6.195   6.095   5.329 -1.4812  3.4298 -1.4371
  113OSM    H7G11727   6.364   6.070   5.370 -1.4587 -1.0163  1.5473
  113OSM    C8F11728   6.321   6.246   5.238 -0.7914 -0.2030 -0.4567
  113OSM    H8F11729   6.410   6.305   5.268 -0.5905 -1.0634  0.7504
  113OSM    H8G11730   6.238   6.320   5.244  1.6139  2.5496  1.6497
  113OSM    C9F11731   6.347   6.189   5.098 -0.4486  0.1693 -0.1881
  113OSM    H9F11732   6.421   6.108   5.094 -0.8487 -0.1709 -0.9027
  113OSM   C10F11733   6.285   6.236   4.986  0.3903  1.0072  0.1139
  113OSM   H10F11734   6.307   6.195   4.886  0.6640  3.4128 -0.8635
  113OSM   C11F11735   6.173   6.336   4.972 -0.4989 -0.2789 -0.5145
  113OSM   H11F11736   6.196   6.398   4.883 -1.0188  1.5573  0.5710
  113OSM   H11G11737   6.168   6.399   5.063 -0.6246 -1.5185  0.3754
  113OSM   C12F11738   6.034   6.280   4.951 -0.5723 -0.4885 -0.2919
  113OSM   H12F11739   6.034   6.205   4.870  1.7958  0.4109 -1.2280
  113OSM   H12G11740   5.963   6.360   4.920 -1.7380 -1.7722 -1.0687
  113OSM   C13F11741   5.972   6.229   5.078  0.1137 -0.6112  0.1697
  113OSM   H13F11742   5.981   6.303   5.161 -1.1440 -0.7158  0.4200
  113OSM   H13G11743   6.026   6.142   5.120 -0.5502 -1.2116 -0.2208
  113OSM   C14F11744   5.819   6.192   5.067  0.1459 -0.0298 -0.0231
  113OSM   H14F11745   5.820   6.143   4.967  0.1684 -1.0114  0.4500
  113OSM   H14G11746   5.756   6.284   5.062  1.1220  0.8309  2.1750
  113OSM   C15F11747   5.775   6.086   5.170  0.0761 -0.2088 -0.0374
  113OSM   H15F11748   5.836   5.994   5.158  0.9193  0.2741  0.4430
  113OSM   H15G11749   5.669   6.059   5.152  0.1726 -1.1508  0.7175
  113OSM   C16F11750   5.785   6.127   5.319 -0.1991  0.7367 -0.4773
  113OSM   H16F11751   5.745   6.231   5.319 -1.3112  0.3294  0.5359
  113OSM   H16G11752   5.890   6.127   5.354 -0.0518  0.9803 -0.9131
  113OSM   C17F11753   5.702   6.043   5.414 -0.1928  0.5950  0.0246
  113OSM   H17F11754   5.722   5.936   5.393 -2.2339  0.3055 -0.6858
  113OSM   H17G11755   5.598   6.075   5.394 -0.9779 -1.5390  0.3944
  113OSM   C18F11756   5.733   6.091   5.557  0.0763  0.1561 -0.4004
  113OSM   H18F11757   5.722   6.200   5.571 -1.5876  0.1782 -1.5786
  113OSM   H18G11758   5.833   6.050   5.581  0.0707 -0.5396 -1.5020
  113OSM   H18H11759   5.659   6.041   5.624 -0.1419 -0.2695 -0.9496
  114OSM      N11760   3.811   5.892   6.313  0.6189  0.3326  0.4078
  114OSM    C1511761   3.693   5.973   6.371 -0.8358 -0.4548  0.2951
  114OSM   H15A11762   3.605   5.972   6.308 -0.2991  0.1800 -0.4881
  114OSM   H15B11763   3.718   6.078   6.373 -2.3799  0.0727 -2.5945
  114OSM   H15C11764   3.665   5.927   6.465 -1.2527  1.6580  1.2440
  114OSM    C1411765   3.846   5.940   6.180  0.0137 -0.8760 -0.2549
  114OSM   H14A11766   3.934   5.891   6.140  0.1327 -0.8407 -0.0399
  114OSM   H14B11767   3.865   6.047   6.180 -0.1037 -0.8559 -0.5522
  114OSM   H14C11768   3.763   5.936   6.112 -0.5907 -2.6476  0.5349
  114OSM    C1311769   3.931   5.922   6.394  0.7889  0.0932 -0.4028
  114OSM   H13A11770   3.951   6.028   6.395  1.7263  0.0507 -3.3356
  114OSM   H13B11771   4.018   5.871   6.356  1.2036  0.3513  0.1954
  114OSM   H13C11772   3.930   5.871   6.489  3.4741  0.4749 -0.0999
  114OSM    C1211773   3.778   5.741   6.302  0.1066 -0.6264 -0.8315
  114OSM   H12A11774   3.865   5.690   6.262  0.5154 -1.2718  0.7984
  114OSM   H12B11775   3.696   5.722   6.234 -0.0036  0.9497 -1.1606
  114OSM    C1111776   3.742   5.677   6.441  0.1270 -0.2085  0.3459
  114OSM   H11A11777   3.648   5.731   6.466  0.4760  0.1696  0.8688
  114OSM   H11B11778   3.808   5.697   6.528 -1.7308 -0.7180  1.9608
  114OSM      P11779   3.830   5.436   6.430 -0.5122 -0.1507  0.5534
  114OSM    O1311780   3.937   5.484   6.512  0.0636 -0.0474  0.7796
  114OSM    O1411781   3.754   5.316   6.476 -0.1345 -0.6253  0.3805
  114OSM    O1111782   3.879   5.424   6.276  0.1038 -0.1395  0.3147
  114OSM    O1211783   3.715   5.542   6.404  0.4820  0.3163 -0.0793
  114OSM    C1S11784   3.783   5.365   6.189 -0.0912  0.3258 -0.0724
  114OSM    H1S11785   3.694   5.432   6.182  0.2409  0.6514 -1.4785
  114OSM    H1T11786   3.764   5.260   6.222  0.3160  0.2864  0.0335
  114OSM     NF11787   3.737   5.337   5.948  0.0895  0.1078  0.1656
  114OSM    HNF11788   3.734   5.249   5.901  2.4296 -0.8878  1.7190
  114OSM    C2S11789   3.843   5.349   6.048  0.1642 -0.4949  1.1498
  114OSM    H2S11790   3.897   5.442   6.021 -2.2707  0.6815 -0.0816
  114OSM    C3S11791   3.947   5.239   6.046 -0.2996 -0.2358 -0.2378
  114OSM    H3S11792   3.918   5.147   6.102  2.3946  0.4756  2.6467
  114OSM     O311793   4.061   5.281   6.124 -0.0831  0.4416  0.1945
  114OSM    HO311794   4.029   5.361   6.165 -1.1299 -0.9152  2.2202
  114OSM    C4S11795   3.982   5.208   5.902  0.2258  0.0721  0.3710
  114OSM    H4S11796   3.915   5.137   5.852 -0.0138  0.9672 -0.6017
  114OSM    C5S11797   4.091   5.248   5.832  0.2341 -0.1330  0.5583
  114OSM    H5S11798   4.162   5.309   5.890 -1.0282  0.1088  1.8981
  114OSM    C6S11799   4.114   5.211   5.682  0.5457 -0.3862 -0.5464
  114OSM    H6S11800   4.207   5.150   5.679  1.7306  1.3334 -0.5291
  114OSM    H6T11801   4.143   5.306   5.632  0.2049 -1.2112 -2.4259
  114OSM    C7S11802   3.999   5.156   5.602 -0.1408  0.6547  0.5316
  114OSM    H7S11803   3.916   5.229   5.587 -0.0978  0.4348 -0.9850
  114OSM    H7T11804   3.956   5.071   5.659 -0.9075 -1.0744 -2.3877
  114OSM    C8S11805   4.053   5.101   5.471  0.6512 -1.1017  0.3664
  114OSM    H8S11806   4.135   5.035   5.507 -0.4037 -1.3742  2.4373
  114OSM    H8T11807   4.088   5.190   5.415 -0.8663 -0.4679  0.4014
  114OSM    C9S11808   3.943   5.022   5.390 -0.0003  0.0336  0.2292
  114OSM    H9S11809   3.855   5.089   5.382 -0.1961 -0.4476 -2.5949
  114OSM    H9T11810   3.916   4.929   5.443 -0.5390 -0.2662 -0.5509
  114OSM   C10S11811   3.984   4.980   5.252  0.2957 -0.2596  0.4058
  114OSM   H10S11812   4.056   4.896   5.250 -1.4218 -1.7937 -0.6175
  114OSM   H10T11813   4.010   5.069   5.190  0.9924 -0.0811  0.9530
  114OSM   C11S11814   3.864   4.929   5.172 -0.2667  0.1226 -0.4460
  114OSM   H11S11815   3.780   5.001   5.187 -1.0094 -0.4497 -1.6549
  114OSM   H11T11816   3.835   4.837   5.228 -0.9085  2.3583  3.2176
  114OSM   C12S11817   3.876   4.898   5.025 -0.2129  0.1537 -0.5816
  114OSM   H12S11818   3.780   4.867   4.979 -2.8900  1.2914  3.6714
  114OSM   H12T11819   3.946   4.811   5.025 -2.0285 -1.3674 -0.1630
  114OSM   C13S11820   3.915   5.023   4.941 -0.3487  0.6966  0.1191
  114OSM   H13S11821   4.001   5.078   4.985 -0.5607  2.5293 -1.6314
  114OSM   H13T11822   3.832   5.096   4.946  0.1111  1.1679  1.2517
  114OSM   C14S11823   3.958   4.985   4.798 -0.1114  0.7756  0.0436
  114OSM   H14S11824   3.876   4.946   4.733  0.1138  1.9586 -0.9872
  114OSM   H14T11825   4.032   4.903   4.805  0.0120  0.9129  0.3624
  114OSM   C15S11826   4.026   5.104   4.729 -0.7640 -0.1418 -0.4121
  114OSM   H15S11827   4.098   5.148   4.801 -1.0463  0.2226 -0.3517
  114OSM   H15T11828   3.957   5.177   4.681 -0.8405 -2.1188 -3.6540
  114OSM   C16S11829   4.114   5.056   4.611  0.8754 -0.3953  0.1442
  114OSM   H16S11830   4.191   4.978   4.629 -0.1773 -1.6949 -0.8096
  114OSM   H16T11831   4.163   5.146   4.569  0.0508  0.4662  0.9593
  114OSM   C17S11832   4.019   5.018   4.495 -0.3567 -0.4105  0.1568
  114OSM   H17S11833   3.923   5.071   4.510 -0.2458 -0.2666  0.3620
  114OSM   H17T11834   4.000   4.910   4.512 -1.0876 -0.3865 -0.4431
  114OSM   C18S11835   4.082   5.050   4.359  0.0354  0.2860  0.6568
  114OSM   H18S11836   4.109   5.158   4.358  0.7963  0.1072 -0.2406
  114OSM   H18T11837   4.010   5.023   4.279 -1.8224  3.9111  0.8924
  114OSM   H18U11838   4.173   4.990   4.338 -1.7858 -2.8014  1.0674
  114OSM    C1F11839   3.645   5.433   5.916 -0.1310 -0.7086 -0.2913
  114OSM     OF11840   3.602   5.513   5.998  0.1195 -0.7294 -0.7547
  114OSM    C2F11841   3.610   5.430   5.770 -0.0048 -0.3952 -0.1249
  114OSM    H2F11842   3.631   5.326   5.736 -0.9448  0.1771 -2.6661
  114OSM    H2G11843   3.689   5.492   5.722 -0.9549  1.6846  0.8689
  114OSM    C3F11844   3.470   5.484   5.733  0.8646  0.3025  0.4724
  114OSM    H3F11845   3.466   5.586   5.776  0.2503  0.7046 -0.5060
  114OSM    H3G11846   3.395   5.426   5.791  1.5403  0.3814  1.4469
  114OSM    C4F11847   3.441   5.486   5.581 -1.2760  0.3746 -0.1570
  114OSM    H4F11848   3.331   5.489   5.564 -1.1259  1.7765 -1.0684
  114OSM    H4G11849   3.480   5.397   5.528  2.0375 -0.1205  2.7231
  114OSM    C5F11850   3.504   5.603   5.510  0.0056  0.0626  0.8829
  114OSM    H5F11851   3.614   5.614   5.518  0.1764 -0.0268 -1.0170
  114OSM    H5G11852   3.457   5.673   5.582 -0.3047 -0.7458  1.4855
  114OSM    C6F11853   3.456   5.641   5.366  0.9138  0.3041 -0.8085
  114OSM    H6F11854   3.345   5.640   5.377  0.6745 -0.0754 -2.7802
  114OSM    H6G11855   3.496   5.566   5.294  0.0676 -0.7793 -0.1838
  114OSM    C7F11856   3.474   5.791   5.326  0.9127  0.4487  0.8300
  114OSM    H7F11857   3.580   5.825   5.324  1.3507 -0.8619  0.3916
  114OSM    H7G11858   3.424   5.851   5.405  1.1608  0.8847  0.6543
  114OSM    C8F11859   3.399   5.818   5.197 -0.0693 -0.0365 -0.2702
  114OSM    H8F11860   3.411   5.929   5.193 -1.1512  0.2129  1.8357
  114OSM    H8G11861   3.291   5.794   5.209 -0.3862  0.3753 -2.0015
  114OSM    C9F11862   3.462   5.755   5.077 -0.7063  0.0042 -0.4945
  114OSM    H9F11863   3.572   5.759   5.073 -0.6663 -1.3509 -1.2374
  114OSM   C10F11864   3.396   5.690   4.979  0.0846 -0.0199 -0.3970
  114OSM   H10F11865   3.458   5.635   4.906 -0.2532  0.7707 -1.3053
  114OSM   C11F11866   3.246   5.676   4.954 -0.1078  0.3754  0.6875
  114OSM   H11F11867   3.185   5.738   5.022 -3.6637 -0.5055 -1.4102
  114OSM   H11G11868   3.225   5.569   4.977  1.0593 -0.1735 -0.6385
  114OSM   C12F11869   3.187   5.702   4.809  0.3550 -0.5229  0.4024
  114OSM   H12F11870   3.184   5.810   4.786 -1.2547 -0.8429 -1.0292
  114OSM   H12G11871   3.084   5.662   4.798  0.3426 -0.5279  0.5330
  114OSM   C13F11872   3.279   5.649   4.694 -0.0381 -0.4345  0.1647
  114OSM   H13F11873   3.280   5.538   4.699  0.3247 -0.5415 -1.5749
  114OSM   H13G11874   3.385   5.679   4.705  0.4205 -1.2909 -1.6107
  114OSM   C14F11875   3.234   5.675   4.548 -0.3768 -0.3618 -0.5854
  114OSM   H14F11876   3.305   5.619   4.484 -2.1397 -2.5391 -0.7795
  114OSM   H14G11877   3.238   5.783   4.522  1.5165  0.3086  1.9910
  114OSM   C15F11878   3.095   5.624   4.522 -0.4094  0.8937 -0.4251
  114OSM   H15F11879   3.061   5.639   4.417 -1.6545 -0.0104 -0.1698
  114OSM   H15G11880   3.031   5.683   4.592 -3.1812  1.0475 -2.8862
  114OSM   C16F11881   3.070   5.475   4.555  0.0937 -0.3565 -0.0809
  114OSM   H16F11882   2.959   5.469   4.545  0.1855 -0.5660 -1.0858
  114OSM   H16G11883   3.099   5.449   4.659 -0.5900 -2.0511 -0.2872
  114OSM   C17F11884   3.122   5.375   4.450 -0.3151 -0.2157  0.3954
  114OSM   H17F11885   3.175   5.298   4.510 -1.9414 -1.0767  0.7819
  114OSM   H17G11886   3.196   5.421   4.381 -2.4142 -1.2246 -2.7310
  114OSM   C18F11887   3.021   5.290   4.372  0.1803 -0.2683  0.4463
  114OSM   H18F11888   3.063   5.215   4.301  1.1029  0.3951  0.2715
  114OSM   H18G11889   2.974   5.366   4.305  0.8900  0.7288  1.0460
  114OSM   H18H11890   2.936   5.253   4.433  0.3182  0.9639  1.4284
  115OSM      N11891   5.367   5.284   7.032  0.7013 -1.0547  0.0421
  115OSM    C1511892   5.420   5.145   7.024  0.4764  0.1752 -0.4601
  115OSM   H15A11893   5.514   5.150   6.969  0.2217 -0.0430 -0.9196
  115OSM   H15B11894   5.348   5.074   6.987  0.9487 -1.8917  2.2475
  115OSM   H15C11895   5.442   5.105   7.122  1.2262 -2.1963 -1.4986
  115OSM    C1411896   5.252   5.290   7.138 -0.3421  0.2120  0.2570
  115OSM   H14A11897   5.194   5.202   7.117  0.5482 -0.1663 -0.7271
  115OSM   H14B11898   5.196   5.381   7.120 -3.2190 -1.5864 -0.4713
  115OSM   H14C11899   5.292   5.286   7.238  0.8938 -0.1189 -0.2249
  115OSM    C1311900   5.481   5.361   7.078 -0.0186  0.5649  0.1924
  115OSM   H13A11901   5.456   5.466   7.069  1.0624  0.8647  0.4335
  115OSM   H13B11902   5.575   5.342   7.028  1.4354  2.1571  2.1250
  115OSM   H13C11903   5.502   5.347   7.183  1.7566 -0.2689 -0.2356
  115OSM    C1211904   5.316   5.317   6.892 -0.3478  0.6778  0.8679
  115OSM   H12A11905   5.231   5.253   6.876  0.7293 -0.4101 -0.7459
  115OSM   H12B11906   5.388   5.282   6.819 -2.3120 -1.9842  0.0915
  115OSM    C1111907   5.289   5.460   6.854  0.9153 -0.3487  0.2587
  115OSM   H11A11908   5.226   5.511   6.930 -0.5185  0.5871 -1.4883
  115OSM   H11B11909   5.222   5.458   6.766 -0.7394  0.0139  1.4678
  115OSM      P11910   5.402   5.688   6.818  0.0071  0.0213  0.1701
  115OSM    O1311911   5.278   5.749   6.880 -0.2104  0.1108  0.0902
  115OSM    O1411912   5.538   5.741   6.852  0.5213  0.1798 -0.0643
  115OSM    O1111913   5.392   5.712   6.656 -0.2967  0.6978  0.2048
  115OSM    O1211914   5.407   5.527   6.836  0.0281  0.3179 -0.3938
  115OSM    C1S11915   5.401   5.605   6.565  0.0820 -0.6540 -0.1192
  115OSM    H1S11916   5.302   5.555   6.553  0.3650 -2.0599  2.6300
  115OSM    H1T11917   5.470   5.525   6.599  1.7731  0.5747 -0.5262
  115OSM     NF11918   5.403   5.581   6.313 -0.1033 -0.0844 -0.2076
  115OSM    HNF11919   5.463   5.515   6.267 -1.1047 -0.6585 -0.7140
  115OSM    C2S11920   5.456   5.653   6.427 -0.0140  0.6730  0.4122
  115OSM    H2S11921   5.427   5.760   6.422  0.2769  0.7537  0.3851
  115OSM    C3S11922   5.610   5.652   6.433 -0.3854  0.2283 -0.1556
  115OSM    H3S11923   5.648   5.550   6.455  0.7118  0.7004  0.2143
  115OSM     O311924   5.659   5.716   6.546 -0.0595 -0.0196  0.8568
  115OSM    HO311925   5.590   5.694   6.609 -2.9915 -2.7831 -2.8261
  115OSM    C4S11926   5.662   5.702   6.300  0.0529  1.1474 -0.1824
  115OSM    H4S11927   5.708   5.620   6.244 -1.8108  0.9169 -1.4720
  115OSM    C5S11928   5.659   5.821   6.246 -0.7292 -0.9037  0.5579
  115OSM    H5S11929   5.610   5.902   6.303 -0.3544 -0.1363 -0.1840
  115OSM    C6S11930   5.720   5.875   6.121 -0.8999  0.0237 -0.1686
  115OSM    H6S11931   5.802   5.805   6.095 -0.9104  0.4824 -1.5420
  115OSM    H6T11932   5.782   5.962   6.150 -0.2907 -0.5623  0.3045
  115OSM    C7S11933   5.617   5.907   6.013 -0.1797  1.0170  0.0895
  115OSM    H7S11934   5.665   5.966   5.932 -0.5484 -1.6044 -2.1900
  115OSM    H7T11935   5.534   5.970   6.053 -1.5767 -0.1382 -0.8440
  115OSM    C8S11936   5.570   5.777   5.954 -0.3888  0.3492  0.3008
  115OSM    H8S11937   5.525   5.713   6.033  0.0118  1.3809  1.3956
  115OSM    H8T11938   5.660   5.731   5.909  0.1470  1.7362 -0.1189
  115OSM    C9S11939   5.462   5.784   5.847 -0.2065 -0.6968 -1.0333
  115OSM    H9S11940   5.375   5.830   5.899  1.7091  1.6395  0.3255
  115OSM    H9T11941   5.441   5.679   5.816 -1.4276 -0.6579 -0.4273
  115OSM   C10S11942   5.490   5.865   5.714  0.3737  0.4846  0.4280
  115OSM   H10S11943   5.587   5.833   5.672 -0.8652  0.1108 -2.3708
  115OSM   H10T11944   5.503   5.971   5.747 -2.3956  0.8813  0.4697
  115OSM   C11S11945   5.375   5.842   5.616  0.4488 -0.4027 -0.0839
  115OSM   H11S11946   5.286   5.881   5.670 -1.4765 -3.3126 -0.9367
  115OSM   H11T11947   5.364   5.732   5.604 -0.1999 -0.5435  1.5471
  115OSM   C12S11948   5.392   5.904   5.486  0.4144 -0.3631  0.0460
  115OSM   H12S11949   5.475   5.851   5.435  2.1493  0.1829  2.1488
  115OSM   H12T11950   5.420   6.011   5.493  1.4007 -0.5375 -1.0139
  115OSM   C13S11951   5.266   5.883   5.403 -0.4291 -0.0910  0.1757
  115OSM   H13S11952   5.180   5.919   5.465 -0.5293 -2.5400  1.6032
  115OSM   H13T11953   5.254   5.776   5.375  0.0547  0.2681 -1.4551
  115OSM   C14S11954   5.275   5.951   5.271 -0.1109 -0.4281 -0.3066
  115OSM   H14S11955   5.344   5.902   5.199  0.3588 -0.8454  0.4176
  115OSM   H14T11956   5.302   6.059   5.274 -1.7490  0.0456 -1.2487
  115OSM   C15S11957   5.134   5.953   5.209 -0.1437  0.1913  0.3487
  115OSM   H15S11958   5.055   6.015   5.256 -0.9091 -0.3633 -0.1746
  115OSM   H15T11959   5.094   5.849   5.207 -1.5731  0.5554  3.8491
  115OSM   C16S11960   5.137   5.984   5.056 -0.2820  0.7721  0.3367
  115OSM   H16S11961   5.228   5.936   5.015 -0.4494  0.1147  0.7324
  115OSM   H16T11962   5.130   6.092   5.027  0.3572  0.3785 -1.4007
  115OSM   C17S11963   5.023   5.923   4.973 -0.4837 -0.1185  0.2248
  115OSM   H17S11964   4.930   5.964   5.018  0.4258 -0.0374  2.1679
  115OSM   H17T11965   5.020   5.814   4.993  0.3362  0.0947  1.6583
  115OSM   C18S11966   5.016   5.955   4.821  0.2052 -0.4644 -0.0019
  115OSM   H18S11967   4.917   5.926   4.782  0.6109 -0.3250 -1.1942
  115OSM   H18T11968   5.093   5.911   4.754  0.1754 -0.5219  0.0014
  115OSM   H18U11969   5.034   6.065   4.814  1.9224 -0.7089  0.1913
  115OSM    C1F11970   5.275   5.586   6.270  0.4211 -0.4966 -0.3692
  115OSM     OF11971   5.185   5.653   6.321 -0.3036  0.3388 -1.0783
  115OSM    C2F11972   5.234   5.497   6.156 -0.7095  0.3111 -0.3158
  115OSM    H2F11973   5.316   5.422   6.156 -0.6136  0.4012 -1.5785
  115OSM    H2G11974   5.248   5.554   6.062  1.7246  0.9662  0.3502
  115OSM    C3F11975   5.095   5.434   6.165 -0.1318  0.6565 -0.2251
  115OSM    H3F11976   5.024   5.519   6.175 -0.1072  0.7601 -0.8659
  115OSM    H3G11977   5.083   5.374   6.257 -0.9879 -1.1276 -1.4479
  115OSM    C4F11978   5.055   5.357   6.042 -0.4466 -0.1667  0.3727
  115OSM    H4F11979   4.964   5.297   6.061 -1.2153  0.8544 -0.0254
  115OSM    H4G11980   5.144   5.293   6.022  0.8089  1.8748 -0.9930
  115OSM    C5F11981   5.021   5.449   5.926 -0.0254 -0.0785 -0.1068
  115OSM    H5F11982   5.109   5.507   5.891  1.0090 -1.4464  0.1374
  115OSM    H5G11983   4.944   5.520   5.963 -0.7663 -0.7003 -0.4387
  115OSM    C6F11984   4.969   5.392   5.797  0.4574 -0.4212  0.1454
  115OSM    H6F11985   4.872   5.337   5.806  0.7495 -1.0077 -0.1789
  115OSM    H6G11986   5.044   5.315   5.769  1.2303  0.3508  0.0596
  115OSM    C7F11987   4.959   5.500   5.684  0.0804 -0.5342  0.4827
  115OSM    H7F11988   5.065   5.520   5.654 -0.3720 -0.0881 -0.9143
  115OSM    H7G11989   4.929   5.599   5.723  3.9099  1.0297 -0.0482
  115OSM    C8F11990   4.873   5.465   5.563  0.0755 -0.0682  0.4102
  115OSM    H8F11991   4.863   5.557   5.503 -1.3720 -0.9629 -0.8019
  115OSM    H8G11992   4.772   5.431   5.594  0.0073 -0.1392  0.1187
  115OSM    C9F11993   4.939   5.352   5.478 -0.0052  0.3652  0.2103
  115OSM    H9F11994   4.967   5.261   5.533  0.3103 -0.0547 -0.6226
  115OSM   C10F11995   4.972   5.364   5.346 -0.3450  0.6977 -0.1141
  115OSM   H10F11996   4.995   5.277   5.284 -0.6484  0.1850  0.4889
  115OSM   C11F11997   4.964   5.484   5.258 -0.9326 -0.6033 -0.1435
  115OSM   H11F11998   5.062   5.500   5.208 -1.0252 -0.6542 -0.3419
  115OSM   H11G11999   4.955   5.582   5.308 -1.3197 -1.5404  1.7073
  115OSM   C12F12000   4.857   5.486   5.147  0.6401 -0.1137 -0.1561
  115OSM   H12F12001   4.861   5.584   5.096 -0.5441  0.2765  0.4540
  115OSM   H12G12002   4.756   5.480   5.193  0.8246 -0.6242  0.1987
  115OSM   C13F12003   4.874   5.379   5.047  0.1917 -0.3010  0.0907
  115OSM   H13F12004   4.806   5.387   4.960  2.6540  1.8467 -1.7913
  115OSM   H13G12005   4.843   5.282   5.092 -0.7173 -0.1471 -0.1907
  115OSM   C14F12006   5.006   5.358   4.996 -0.2738 -0.5965  0.3475
  115OSM   H14F12007   5.007   5.272   4.926 -1.1286  0.6297 -1.2208
  115OSM   H14G12008   5.073   5.324   5.078 -1.0955  1.4011  1.9482
  115OSM   C15F12009   5.075   5.483   4.932  1.4579 -0.4821  0.6837
  115OSM   H15F12010   5.179   5.472   4.895  0.8450 -1.2600 -0.8935
  115OSM   H15G12011   5.080   5.564   5.008  0.2430 -1.7608  2.1685
  115OSM   C16F12012   4.989   5.542   4.819 -0.0990  0.2536 -0.4487
  115OSM   H16F12013   5.046   5.632   4.785  2.7507 -1.3341 -0.2044
  115OSM   H16G12014   4.889   5.572   4.856  0.7296  2.0252  0.4755
  115OSM   C17F12015   4.961   5.443   4.710 -0.2362  0.7880  0.3227
  115OSM   H17F12016   4.938   5.343   4.754  0.1829  0.1000 -0.9535
  115OSM   H17G12017   5.054   5.430   4.651 -0.4010 -0.9491  0.4000
  115OSM   C18F12018   4.844   5.470   4.609 -1.0716  0.0037 -0.5189
  115OSM   H18F12019   4.832   5.386   4.537  1.0289  0.5882 -1.6231
  115OSM   H18G12020   4.877   5.561   4.554 -0.4266 -0.0982 -0.3055
  115OSM   H18H12021   4.746   5.484   4.660 -0.3460 -0.1217  0.9590
  116OSM      N12022   6.331   6.565   6.495 -0.3183  0.4488  0.6668
  116OSM    C1512023   6.276   6.640   6.615 -0.9350  0.8905  0.1056
  116OSM   H15A12024   6.332   6.602   6.699  1.5914  0.6234 -1.5561
  116OSM   H15B12025   6.170   6.624   6.626 -0.5445 -0.0219  3.4339
  116OSM   H15C12026   6.302   6.744   6.599  0.2090  0.3815 -1.6560
  116OSM    C1412027   6.306   6.417   6.511  0.4842  0.0210 -0.3640
  116OSM   H14A12028   6.206   6.398   6.545  0.9344 -3.5643 -0.6853
  116OSM   H14B12029   6.367   6.382   6.593  0.0716  1.6298  0.6823
  116OSM   H14C12030   6.328   6.357   6.424  0.7802 -1.5856  0.7800
  116OSM    C1312031   6.248   6.612   6.379 -0.0445 -0.0882 -0.0051
  116OSM   H13A12032   6.230   6.718   6.383 -1.8304 -0.3581  0.1759
  116OSM   H13B12033   6.152   6.562   6.389  0.1658 -0.0896  2.7016
  116OSM   H13C12034   6.298   6.597   6.285  0.4040 -0.3302  0.2682
  116OSM    C1212035   6.484   6.591   6.488  0.1585 -0.1657 -0.1399
  116OSM   H12A12036   6.536   6.552   6.575  0.3207 -0.0543 -0.1868
  116OSM   H12B12037   6.501   6.697   6.493  1.3614 -0.3605  0.2624
  116OSM    C1112038   6.555   6.537   6.359 -0.0651 -0.0493 -0.0601
  116OSM   H11A12039   6.653   6.589   6.364  0.7377 -1.6193  1.5331
  116OSM   H11B12040   6.508   6.578   6.267  0.9696  0.2222 -0.4860
  116OSM      P12041   6.685   6.305   6.405 -0.1164  0.0125  0.1672
  116OSM    O1312042   6.798   6.396   6.427  0.0163  0.2782 -0.0161
  116OSM    O1412043   6.645   6.217   6.520  0.2858 -0.6554  0.3905
  116OSM    O1112044   6.717   6.212   6.286  0.2819  0.0869 -0.0952
  116OSM    O1212045   6.561   6.392   6.360  0.6582  0.2876  0.3347
  116OSM    C1S12046   6.612   6.116   6.241  0.6893 -0.0277  0.1114
  116OSM    H1S12047   6.520   6.172   6.212 -0.6752 -1.8006  0.8452
  116OSM    H1T12048   6.580   6.042   6.317 -1.6806  1.7209  0.9484
  116OSM     NF12049   6.534   5.935   6.076 -0.1447  0.3623 -0.1499
  116OSM    HNF12050   6.564   5.842   6.058 -0.9301 -0.1290  0.9880
  116OSM    C2S12051   6.639   6.034   6.108  0.0257 -0.6795  0.6183
  116OSM    H2S12052   6.633   6.108   6.025  1.6923 -1.2658 -0.0449
  116OSM    C3S12053   6.792   5.995   6.104  0.1559  0.3377 -0.3225
  116OSM    H3S12054   6.807   5.923   6.187  0.6104  1.0664  0.2381
  116OSM     O312055   6.877   6.104   6.116  0.2112 -0.5950  0.2451
  116OSM    HO312056   6.834   6.155   6.185  0.7425  1.9899 -1.2110
  116OSM    C4S12057   6.822   5.921   5.971  0.6480 -0.3091  0.1772
  116OSM    H4S12058   6.765   5.826   5.973 -0.7632  0.4820  2.5886
  116OSM    C5S12059   6.876   5.973   5.858 -0.6645 -0.5214  0.0855
  116OSM    H5S12060   6.924   6.072   5.869 -0.0920 -0.9331  1.6044
  116OSM    C6S12061   6.892   5.905   5.723  0.4012 -0.4704 -0.2247
  116OSM    H6S12062   6.817   5.950   5.654  1.6847 -0.8441 -1.9305
  116OSM    H6T12063   6.874   5.797   5.740  1.8716 -0.8000 -0.6044
  116OSM    C7S12064   7.034   5.929   5.658 -0.8384 -0.1706 -0.7849
  116OSM    H7S12065   7.112   5.905   5.733 -1.0983  1.4680  0.0350
  116OSM    H7T12066   7.057   6.036   5.638 -2.8204  0.0269 -2.3154
  116OSM    C8S12067   7.058   5.854   5.517  0.3566 -0.6973  0.5258
  116OSM    H8S12068   7.004   5.757   5.512  1.2055 -1.1591  0.1928
  116OSM    H8T12069   7.166   5.826   5.517  0.4001 -0.5945  1.8662
  116OSM    C9S12070   7.021   5.927   5.387 -0.3604 -0.4417  0.1935
  116OSM    H9S12071   7.078   6.020   5.367 -0.0596 -1.1212 -2.5336
  116OSM    H9T12072   6.918   5.967   5.392  0.6060  2.1887  0.5573
  116OSM   C10S12073   7.044   5.827   5.267 -0.0460 -0.1888 -0.3494
  116OSM   H10S12074   6.971   5.747   5.290 -3.5480  2.1273 -2.5042
  116OSM   H10T12075   7.144   5.779   5.273 -0.4323 -0.9505  0.2199
  116OSM   C11S12076   7.024   5.901   5.131 -0.0290  0.0936 -0.3057
  116OSM   H11S12077   7.096   5.985   5.119  0.0108  0.0613 -0.2964
  116OSM   H11T12078   6.924   5.944   5.149 -0.3295 -1.2052  1.4807
  116OSM   C12S12079   7.039   5.806   5.014  0.2412  0.3794  0.5843
  116OSM   H12S12080   6.954   5.735   5.017  0.1356  0.4091 -1.1629
  116OSM   H12T12081   7.136   5.752   5.018 -0.1271 -0.7263 -2.7190
  116OSM   C13S12082   7.027   5.872   4.879 -0.0885  0.0424  0.3511
  116OSM   H13S12083   7.106   5.949   4.889 -0.8425  0.5650  3.4645
  116OSM   H13T12084   6.926   5.918   4.869 -0.2913 -0.6927 -1.3366
  116OSM   C14S12085   7.041   5.781   4.751  0.0921  0.2758  0.1656
  116OSM   H14S12086   7.118   5.708   4.785 -1.9349 -1.2540  1.7394
  116OSM   H14T12087   7.083   5.849   4.673 -0.0129 -0.4991 -0.5762
  116OSM   C15S12088   6.911   5.716   4.704 -0.4950  0.9770  0.4639
  116OSM   H15S12089   6.846   5.690   4.790  1.5568 -1.5349  1.3732
  116OSM   H15T12090   6.937   5.611   4.677 -2.0048  0.5623  0.5506
  116OSM   C16S12091   6.844   5.778   4.579 -1.1357 -0.7425  0.6707
  116OSM   H16S12092   6.924   5.806   4.507 -2.9577  3.6813  0.0470
  116OSM   H16T12093   6.791   5.871   4.608  1.3536  1.0325 -0.0873
  116OSM   C17S12094   6.736   5.686   4.516  0.3079 -0.1465  0.2796
  116OSM   H17S12095   6.656   5.671   4.591  0.7221  1.7008  1.1632
  116OSM   H17T12096   6.788   5.590   4.497  1.1197  0.0588  1.3497
  116OSM   C18S12097   6.682   5.754   4.384  0.1318 -0.0308 -0.1964
  116OSM   H18S12098   6.607   5.685   4.341  2.0576 -1.6539 -1.0915
  116OSM   H18T12099   6.775   5.771   4.327  0.4201  2.3298  0.8402
  116OSM   H18U12100   6.626   5.849   4.402 -1.4544 -0.4848 -2.3383
  116OSM    C1F12101   6.404   5.960   6.062 -0.3441  0.4533  0.0654
  116OSM     OF12102   6.356   6.077   6.054 -0.0176  0.9234  0.4589
  116OSM    C2F12103   6.321   5.839   6.049 -0.2659  0.5207 -0.0243
  116OSM    H2F12104   6.289   5.794   6.146 -0.5923  0.8324  0.0139
  116OSM    H2G12105   6.385   5.761   6.004 -1.8120 -1.2521  0.6879
  116OSM    C3F12106   6.198   5.882   5.966 -0.6129  0.3381  0.0607
  116OSM    H3F12107   6.228   5.915   5.865  2.0563  0.5386  0.8428
  116OSM    H3G12108   6.144   5.966   6.015 -1.0165 -0.7274  1.5403
  116OSM    C4F12109   6.115   5.760   5.948  0.5210  0.5120  0.2042
  116OSM    H4F12110   6.080   5.727   6.049  0.8436 -1.0475 -0.1680
  116OSM    H4G12111   6.182   5.686   5.899  1.0774  1.8118 -1.0629
  116OSM    C5F12112   5.994   5.780   5.861 -0.2408 -0.4322 -0.0750
  116OSM    H5F12113   5.937   5.864   5.905 -1.7525 -0.1937 -2.2847
  116OSM    H5G12114   5.928   5.691   5.876 -1.4278  0.4263 -0.0316
  116OSM    C6F12115   6.024   5.812   5.711 -0.4078  0.5108  0.4969
  116OSM    H6F12116   6.103   5.890   5.704  1.8545 -1.7129 -0.2364
  116OSM    H6G12117   5.931   5.865   5.680 -0.1033  0.2941 -0.8550
  116OSM    C7F12118   6.045   5.694   5.623  0.4602  0.5527  0.0417
  116OSM    H7F12119   5.961   5.622   5.632  1.9026 -1.3269 -0.6653
  116OSM    H7G12120   6.135   5.636   5.653 -0.6686 -1.1032  0.3995
  116OSM    C8F12121   6.056   5.733   5.474  0.1122  0.4222  0.2957
  116OSM    H8F12122   6.076   5.842   5.467  4.1592 -0.0744  1.4670
  116OSM    H8G12123   5.953   5.716   5.437  0.7309 -2.5269 -0.3051
  116OSM    C9F12124   6.149   5.654   5.385  0.0770 -0.0686  0.4049
  116OSM    H9F12125   6.207   5.576   5.436 -0.2582  0.0571  0.9896
  116OSM   C10F12126   6.176   5.682   5.258  0.1241 -0.0137  0.1064
  116OSM   H10F12127   6.241   5.622   5.192 -0.5501 -1.1987  0.4880
  116OSM   C11F12128   6.111   5.796   5.179  0.9956 -0.4533  0.7767
  116OSM   H11F12129   6.167   5.892   5.181  0.8875 -0.3014 -1.3955
  116OSM   H11G12130   6.008   5.808   5.217  0.7572 -2.0265  0.7032
  116OSM   C12F12131   6.083   5.757   5.025  0.1577 -0.7580 -0.4513
  116OSM   H12F12132   6.010   5.674   5.011 -0.8045  0.1862 -1.1889
  116OSM   H12G12133   6.180   5.726   4.981 -0.9468  0.0773 -3.7740
  116OSM   C13F12134   6.040   5.885   4.937 -0.0330  0.1316  0.5186
  116OSM   H13F12135   6.128   5.952   4.922  0.1885  0.1515  1.8332
  116OSM   H13G12136   5.965   5.955   4.978 -1.6081  0.6341 -2.8790
  116OSM   C14F12137   5.984   5.825   4.802 -0.0880  0.0503 -0.1130
  116OSM   H14F12138   5.908   5.750   4.832 -1.6214  1.1451 -1.1109
  116OSM   H14G12139   6.068   5.779   4.745  0.6085 -0.9985  1.6787
  116OSM   C15F12140   5.925   5.945   4.719  0.1130 -0.4070 -0.0593
  116OSM   H15F12141   6.012   6.015   4.722  0.7261 -1.1149 -0.8682
  116OSM   H15G12142   5.837   6.000   4.760 -1.0274 -0.0995 -2.6928
  116OSM   C16F12143   5.881   5.905   4.573 -0.0870  0.0656 -0.4931
  116OSM   H16F12144   5.786   5.850   4.582  0.3644 -0.5906  0.5426
  116OSM   H16G12145   5.955   5.832   4.534 -0.6491  0.2934 -2.0250
  116OSM   C17F12146   5.889   6.013   4.470 -0.2669 -0.2290 -0.3122
  116OSM   H17F12147   5.844   5.976   4.376 -0.8601  0.0597 -0.1488
  116OSM   H17G12148   5.996   6.038   4.450  0.4042 -1.5766  1.3429
  116OSM   C18F12149   5.810   6.137   4.502 -0.6452 -0.4581 -0.0303
  116OSM   H18F12150   5.878   6.202   4.562  0.0659 -2.0529  0.9615
  116OSM   H18G12151   5.712   6.099   4.539 -1.5804  2.4321  0.7132
  116OSM   H18H12152   5.784   6.186   4.406  0.2749  0.0377 -0.0389
  117OSM      N12153   4.599   1.040   6.657  0.2733 -0.1077 -0.2087
  117OSM    C1512154   4.504   1.150   6.642  0.0291 -0.3714  0.7782
  117OSM   H15A12155   4.537   1.236   6.587 -1.4408  0.7270  1.5363
  117OSM   H15B12156   4.493   1.198   6.738 -0.2198 -0.4602  0.7956
  117OSM   H15C12157   4.404   1.123   6.611 -1.1725  1.5123  2.7554
  117OSM    C1412158   4.539   0.934   6.745  0.3401 -0.2797  1.5021
  117OSM   H14A12159   4.613   0.859   6.767  1.8948  0.9517  0.7178
  117OSM   H14B12160   4.455   0.882   6.702  0.4201  1.0751 -0.4566
  117OSM   H14C12161   4.492   0.962   6.838 -1.9016 -2.2349  1.0559
  117OSM    C1312162   4.631   0.981   6.522  0.0307  0.5645 -0.0587
  117OSM   H13A12163   4.538   0.947   6.479  0.1523 -2.2041  1.6516
  117OSM   H13B12164   4.705   0.904   6.534 -0.4937 -0.0754 -0.8332
  117OSM   H13C12165   4.677   1.056   6.458 -1.6948  0.8700 -1.0187
  117OSM    C1212166   4.730   1.085   6.715  0.2578  0.8255  0.5520
  117OSM   H12A12167   4.807   1.010   6.713  1.7859  2.2822  1.4704
  117OSM   H12B12168   4.710   1.115   6.817  0.3694  1.3669  0.4215
  117OSM    C1112169   4.789   1.209   6.649  0.2304  0.5650  0.1691
  117OSM   H11A12170   4.770   1.209   6.539  1.7958 -0.9104 -0.1323
  117OSM   H11B12171   4.899   1.206   6.662  0.3148 -2.4243 -0.5930
  117OSM      P12172   4.764   1.470   6.679  0.5923  0.4465  0.1250
  117OSM    O1312173   4.667   1.565   6.731 -0.3566  0.1097 -0.2961
  117OSM    O1412174   4.908   1.488   6.709 -0.0703 -0.2614 -0.7244
  117OSM    O1112175   4.739   1.463   6.525 -0.4329  0.0889  0.1174
  117OSM    O1212176   4.730   1.321   6.721 -0.3393 -0.0562 -0.2974
  117OSM    C1S12177   4.755   1.572   6.439 -0.2255 -0.3773  0.0455
  117OSM    H1S12178   4.863   1.584   6.413 -0.3122 -1.3855 -0.8769
  117OSM    H1T12179   4.711   1.663   6.486  0.6004 -0.4793  1.0530
  117OSM     NF12180   4.724   1.646   6.191  0.2790  0.5835 -0.5944
  117OSM    HNF12181   4.656   1.712   6.163 -1.5156 -0.9763 -0.1101
  117OSM    C2S12182   4.680   1.557   6.301  0.1626 -0.3471 -0.6282
  117OSM    H2S12183   4.705   1.457   6.259  1.2612 -0.2545 -0.2284
  117OSM    C3S12184   4.525   1.553   6.329 -0.2856  0.4061 -0.3966
  117OSM    H3S12185   4.500   1.655   6.364  0.9236  0.4935  0.2873
  117OSM     O312186   4.487   1.453   6.429  0.8465 -0.3466 -1.0089
  117OSM    HO312187   4.564   1.413   6.469 -0.2359 -0.7639  0.7459
  117OSM    C4S12188   4.444   1.527   6.197 -0.4352  0.2833 -0.6339
  117OSM    H4S12189   4.438   1.620   6.140  0.2225 -0.3223 -1.7244
  117OSM    C5S12190   4.399   1.410   6.146  0.4215 -0.1029 -0.3455
  117OSM    H5S12191   4.420   1.318   6.203 -1.2016  0.5117  1.3363
  117OSM    C6S12192   4.328   1.405   6.011 -0.5042  0.0802  0.1032
  117OSM    H6S12193   4.220   1.391   6.034 -0.1995 -1.6569  0.6341
  117OSM    H6T12194   4.352   1.315   5.951 -0.7213  0.3753 -0.4281
  117OSM    C7S12195   4.350   1.509   5.903 -0.6834  0.4229 -0.5317
  117OSM    H7S12196   4.459   1.528   5.908 -0.6533 -0.0821  2.2328
  117OSM    H7T12197   4.298   1.602   5.936 -0.4498 -0.0818  1.3273
  117OSM    C8S12198   4.294   1.447   5.776 -0.2767  0.0455 -0.1068
  117OSM    H8S12199   4.187   1.424   5.793 -0.6798  1.3221 -0.8258
  117OSM    H8T12200   4.357   1.359   5.747  0.3572  0.1700  0.8424
  117OSM    C9S12201   4.283   1.541   5.659  0.3349 -0.3162 -0.3050
  117OSM    H9S12202   4.385   1.558   5.620  0.8867 -3.6153 -0.5521
  117OSM    H9T12203   4.222   1.631   5.684  1.3547  0.1029  0.7628
  117OSM   C10S12204   4.206   1.476   5.540 -0.6038 -0.6769  0.1978
  117OSM   H10S12205   4.098   1.496   5.558 -0.6161  0.3293 -0.8764
  117OSM   H10T12206   4.232   1.368   5.536 -0.7737 -0.7471  0.8441
  117OSM   C11S12207   4.260   1.551   5.412  0.1096 -0.2797  0.0982
  117OSM   H11S12208   4.220   1.510   5.316 -0.8516 -0.5548  0.6040
  117OSM   H11T12209   4.370   1.549   5.399  0.0692  0.1923 -0.3947
  117OSM   C12S12210   4.210   1.705   5.418 -0.5567  1.0936 -0.3464
  117OSM   H12S12211   4.250   1.749   5.511  1.3238 -1.1647 -0.0070
  117OSM   H12T12212   4.100   1.693   5.426 -0.5305  1.3018  0.4259
  117OSM   C13S12213   4.252   1.801   5.308 -0.1749  0.5419  0.0127
  117OSM   H13S12214   4.361   1.817   5.300  0.1393 -1.2687  0.1676
  117OSM   H13T12215   4.207   1.902   5.322  0.7946  1.5010 -2.9603
  117OSM   C14S12216   4.207   1.755   5.164 -0.1566 -0.5975 -0.1123
  117OSM   H14S12217   4.238   1.653   5.134  0.3747 -0.5917  0.4169
  117OSM   H14T12218   4.248   1.826   5.089  2.9579 -1.9893  0.1468
  117OSM   C15S12219   4.055   1.759   5.146  0.7118  0.0745  0.0557
  117OSM   H15S12220   4.000   1.831   5.210  0.2846 -0.0411 -0.1775
  117OSM   H15T12221   4.018   1.658   5.173  0.4669  0.2130  0.2332
  117OSM   C16S12222   4.007   1.788   5.002  0.2539  0.1487  0.5969
  117OSM   H16S12223   4.062   1.725   4.928 -1.5273  0.3456 -0.9507
  117OSM   H16T12224   4.039   1.887   4.961 -1.4286  0.9197  1.0819
  117OSM   C17S12225   3.857   1.767   4.979  0.2520  0.7238 -0.2275
  117OSM   H17S12226   3.792   1.839   5.033 -0.5951 -1.1930  1.4617
  117OSM   H17T12227   3.845   1.662   5.014  0.7816  0.2215 -1.4708
  117OSM   C18S12228   3.809   1.770   4.835 -0.3781 -0.3364 -0.1000
  117OSM   H18S12229   3.811   1.872   4.790  0.4371 -0.8330 -1.2445
  117OSM   H18T12230   3.704   1.735   4.828 -0.2282 -0.6190 -1.0909
  117OSM   H18U12231   3.861   1.698   4.768 -0.6128 -0.3261 -0.2942
  117OSM    C1F12232   4.851   1.654   6.145  0.6715 -0.4041  0.0255
  117OSM     OF12233   4.942   1.572   6.179  0.3150  0.4179 -0.0189
  117OSM    C2F12234   4.885   1.759   6.039  0.0828  0.3847 -0.5606
  117OSM    H2F12235   4.892   1.857   6.091 -0.2758 -0.6213  1.4725
  117OSM    H2G12236   4.801   1.763   5.967 -1.0578 -0.9496  0.6416
  117OSM    C3F12237   5.025   1.735   5.973 -0.4061  0.3586 -0.3257
  117OSM    H3F12238   5.021   1.637   5.921  0.9763 -0.0638  0.3311
  117OSM    H3G12239   5.104   1.738   6.051 -0.9054 -0.1185  0.2018
  117OSM    C4F12240   5.050   1.845   5.876 -0.6817 -0.9041  0.8367
  117OSM    H4F12241   5.159   1.841   5.851 -1.2900 -1.2182 -2.1173
  117OSM    H4G12242   5.033   1.948   5.913  0.0405  0.3361 -2.0337
  117OSM    C5F12243   4.978   1.831   5.745 -0.5049 -0.1687 -0.2707
  117OSM    H5F12244   4.869   1.812   5.757 -0.5676  0.3703  0.0706
  117OSM    H5G12245   5.009   1.736   5.697 -2.7056 -1.9802  1.6308
  117OSM    C6F12246   5.000   1.945   5.646 -0.8375  0.3039 -0.1623
  117OSM    H6F12247   5.110   1.954   5.637 -0.3132 -2.3391  2.1587
  117OSM    H6G12248   4.968   2.046   5.681 -1.9559  0.4090 -1.4255
  117OSM    C7F12249   4.938   1.940   5.504  0.4262 -0.3738 -0.7781
  117OSM    H7F12250   4.901   2.041   5.475 -1.7007  0.1473  3.0473
  117OSM    H7G12251   4.845   1.880   5.512  0.7698 -0.6204  2.2468
  117OSM    C8F12252   5.028   1.874   5.398  0.1223 -0.1842  0.6451
  117OSM    H8F12253   4.973   1.849   5.306  1.7757  0.4744 -0.5798
  117OSM    H8G12254   5.074   1.781   5.439 -0.3337  0.6673  3.3257
  117OSM    C9F12255   5.142   1.976   5.361  0.0044  0.1116 -0.8650
  117OSM    H9F12256   5.223   1.993   5.434 -0.6399 -1.8952  0.4084
  117OSM   C10F12257   5.163   2.034   5.245 -0.3899  0.4133 -0.5106
  117OSM   H10F12258   5.246   2.105   5.236 -1.5416  1.9070  0.1183
  117OSM   C11F12259   5.076   2.026   5.118 -0.2201 -0.1896 -0.2350
  117OSM   H11F12260   5.001   1.945   5.125  0.2265 -0.6211 -0.4156
  117OSM   H11G12261   5.133   2.004   5.025  0.5620 -0.2841  0.2577
  117OSM   C12F12262   4.994   2.152   5.095  0.1513  0.1126 -0.5808
  117OSM   H12F12263   5.061   2.234   5.128  0.5860 -0.3795 -0.2244
  117OSM   H12G12264   4.910   2.160   5.168 -0.6854 -2.1100 -1.2125
  117OSM   C13F12265   4.949   2.177   4.958  0.7219 -0.0313 -0.1454
  117OSM   H13F12266   5.031   2.178   4.883 -0.1285 -0.1851 -1.1049
  117OSM   H13G12267   4.886   2.269   4.958 -0.0886 -0.5730  0.2500
  117OSM   C14F12268   4.852   2.069   4.910  0.0843  0.0881  0.6552
  117OSM   H14F12269   4.776   2.059   4.990 -2.5801 -0.4698 -1.7882
  117OSM   H14G12270   4.906   1.971   4.909  0.2985  0.1990 -0.9420
  117OSM   C15F12271   4.785   2.095   4.775 -0.4285  0.1162  0.4417
  117OSM   H15F12272   4.745   2.199   4.780 -1.6234 -0.3381  0.4838
  117OSM   H15G12273   4.695   2.030   4.772  1.2026 -2.1979 -0.9530
  117OSM   C16F12274   4.875   2.064   4.655 -0.4831  0.3569 -0.5694
  117OSM   H16F12275   4.894   1.955   4.654  1.7648  0.7067 -1.4235
  117OSM   H16G12276   4.979   2.100   4.670  0.9295 -2.9270 -1.5501
  117OSM   C17F12277   4.822   2.100   4.518  0.0726  0.6391 -0.4344
  117OSM   H17F12278   4.795   2.207   4.533  2.0267  1.0351  0.5374
  117OSM   H17G12279   4.726   2.054   4.487  0.9469 -1.7216  0.1312
  117OSM   C18F12280   4.922   2.081   4.407 -0.5548  0.4957  0.3025
  117OSM   H18F12281   4.948   1.974   4.396 -0.1830  0.6381 -0.2521
  117OSM   H18G12282   5.019   2.130   4.433 -0.2024 -0.1216  0.1659
  117OSM   H18H12283   4.876   2.120   4.314 -1.5815 -1.2831  0.0375
  118OSM      N12284   5.429   6.551   6.579 -0.5974 -0.5581 -0.7911
  118OSM    C1512285   5.572   6.588   6.573 -0.3217 -0.7347 -0.0453
  118OSM   H15A12286   5.643   6.517   6.613 -2.2305 -3.2787 -0.8790
  118OSM   H15B12287   5.576   6.687   6.616 -1.9314 -0.8452  0.4259
  118OSM   H15C12288   5.593   6.595   6.467 -0.9733 -0.8174 -0.1856
  118OSM    C1412289   5.414   6.412   6.546  0.5054 -0.6579  0.0544
  118OSM   H14A12290   5.412   6.395   6.440  1.0346  0.8373 -0.2140
  118OSM   H14B12291   5.322   6.368   6.583  0.1244  2.3606  3.2080
  118OSM   H14C12292   5.484   6.347   6.597 -0.6166 -1.6784  0.3294
  118OSM    C1312293   5.400   6.557   6.729 -0.2244 -0.2444 -0.2586
  118OSM   H13A12294   5.479   6.505   6.781 -0.0765  1.8812  1.8347
  118OSM   H13B12295   5.302   6.517   6.748 -1.5111  1.9193 -1.9218
  118OSM   H13C12296   5.404   6.658   6.768  0.1800 -0.5219  0.4406
  118OSM    C1212297   5.338   6.631   6.497 -0.3103 -0.7805 -0.1776
  118OSM   H12A12298   5.246   6.578   6.479 -0.3625 -1.3959  1.7351
  118OSM   H12B12299   5.374   6.641   6.395 -1.6957 -0.4087 -0.6551
  118OSM    C1112300   5.308   6.772   6.557  0.6557  0.0962  0.1695
  118OSM   H11A12301   5.249   6.758   6.650 -0.1317  0.3805 -0.2880
  118OSM   H11B12302   5.241   6.825   6.487  0.7752 -0.0862 -0.0873
  118OSM      P12303   5.445   6.940   6.701 -0.0352 -0.3392  0.1151
  118OSM    O1312304   5.380   6.882   6.818 -0.0800 -0.1924  0.2848
  118OSM    O1412305   5.588   6.969   6.702 -0.5136 -0.7451 -0.1101
  118OSM    O1112306   5.366   7.065   6.658 -0.1907  0.0542 -0.6085
  118OSM    O1212307   5.430   6.846   6.577  0.0267  0.1058  0.2368
  118OSM    C1S12308   5.402   7.142   6.541  0.1240 -0.4399  0.5443
  118OSM    H1S12309   5.510   7.147   6.518  0.4699 -0.1214  2.1401
  118OSM    H1T12310   5.373   7.248   6.556 -1.0439 -0.3641 -1.7475
  118OSM     NF12311   5.376   7.189   6.301 -0.2407  0.4834  0.1760
  118OSM    HNF12312   5.320   7.257   6.255 -1.8393 -0.2211  1.0165
  118OSM    C2S12313   5.323   7.106   6.407 -0.1497 -0.3113  0.2131
  118OSM    H2S12314   5.340   7.002   6.374  0.2941 -0.0682 -0.3450
  118OSM    C3S12315   5.170   7.139   6.444  0.0856 -0.6039  0.0890
  118OSM    H3S12316   5.156   7.249   6.455 -1.8111 -0.8975  0.9963
  118OSM     O312317   5.117   7.079   6.566 -0.2008 -0.7731 -0.2342
  118OSM    HO312318   5.200   7.036   6.587  0.9687  0.1843 -2.6135
  118OSM    C4S12319   5.082   7.094   6.326 -0.1109  0.1597 -0.1904
  118OSM    H4S12320   5.080   6.986   6.302 -2.2960  0.2207 -0.4594
  118OSM    C5S12321   4.992   7.176   6.266  0.4677  0.2699  0.1983
  118OSM    H5S12322   4.977   7.277   6.307 -1.2855  0.7533 -1.4556
  118OSM    C6S12323   4.908   7.128   6.148 -0.3647  0.7928  0.0102
  118OSM    H6S12324   4.895   7.019   6.160 -0.9035  0.6661 -1.4755
  118OSM    H6T12325   4.976   7.145   6.061  2.1340 -2.8465  1.0464
  118OSM    C7S12326   4.771   7.197   6.134  0.5671 -0.4295  0.0108
  118OSM    H7S12327   4.792   7.306   6.137 -3.7925  0.5750  0.3312
  118OSM    H7T12328   4.714   7.163   6.223  0.0550 -0.3616 -0.2848
  118OSM    C8S12329   4.694   7.175   6.002 -0.2445  0.2578  1.1321
  118OSM    H8S12330   4.584   7.192   6.005 -0.1418  1.2246  0.1001
  118OSM    H8T12331   4.697   7.068   5.971  0.1870  0.7657 -0.7016
  118OSM    C9S12332   4.756   7.263   5.891 -0.0623  0.0408 -0.1438
  118OSM    H9S12333   4.865   7.248   5.885 -0.0556 -0.1837  0.4476
  118OSM    H9T12334   4.738   7.368   5.923 -0.9523 -0.0536 -0.3055
  118OSM   C10S12335   4.693   7.235   5.747 -0.7359  0.4411  0.0694
  118OSM   H10S12336   4.588   7.270   5.741 -1.1038 -0.7322 -0.4940
  118OSM   H10T12337   4.699   7.129   5.717  0.8740 -0.0209  1.7936
  118OSM   C11S12338   4.760   7.329   5.642  0.0228 -0.2824  0.0538
  118OSM   H11S12339   4.824   7.410   5.683  0.8481 -0.0934 -1.5344
  118OSM   H11T12340   4.680   7.369   5.575 -1.0333 -1.6174  0.4735
  118OSM   C12S12341   4.855   7.239   5.558 -0.4006 -0.0426 -0.2343
  118OSM   H12S12342   4.802   7.145   5.531  0.6119 -0.3139 -1.3410
  118OSM   H12T12343   4.933   7.206   5.630 -0.5181  0.5054  0.1521
  118OSM   C13S12344   4.918   7.299   5.435 -0.5271  0.2000  0.0486
  118OSM   H13S12345   5.002   7.231   5.409  0.1115  0.5093  1.2598
  118OSM   H13T12346   4.960   7.400   5.453 -1.5563  0.2459  2.6464
  118OSM   C14S12347   4.808   7.316   5.332 -0.0305  0.7515  0.8779
  118OSM   H14S12348   4.724   7.377   5.370  0.1737  1.1389  0.7199
  118OSM   H14T12349   4.779   7.211   5.311 -0.1340  0.7851  0.8538
  118OSM   C15S12350   4.869   7.387   5.209 -0.2886 -0.3911 -0.0002
  118OSM   H15S12351   4.980   7.373   5.204 -0.1062  1.2627 -1.6889
  118OSM   H15T12352   4.849   7.495   5.197 -1.0303 -0.4730  0.4908
  118OSM   C16S12353   4.799   7.334   5.078  0.1819 -0.0055 -0.2480
  118OSM   H16S12354   4.689   7.345   5.083  0.1560 -0.1442 -0.5466
  118OSM   H16T12355   4.823   7.227   5.063 -1.3217 -0.4655  0.4760
  118OSM   C17S12356   4.856   7.412   4.957 -0.6128 -0.0129  0.6838
  118OSM   H17S12357   4.967   7.409   4.951 -0.5230  0.3320  1.9488
  118OSM   H17T12358   4.831   7.520   4.967  0.2876  0.0966  1.9178
  118OSM   C18S12359   4.792   7.348   4.837 -0.2457 -0.2864 -0.3803
  118OSM   H18S12360   4.682   7.361   4.852 -0.0114  0.9987  0.3066
  118OSM   H18T12361   4.823   7.242   4.821  0.4576 -0.0874 -0.3514
  118OSM   H18U12362   4.812   7.409   4.746  0.0404 -0.1961 -0.2541
  118OSM    C1F12363   5.484   7.155   6.235 -1.1145 -0.7795 -0.2560
  118OSM     OF12364   5.565   7.081   6.286 -0.2803 -0.3055  0.2756
  118OSM    C2F12365   5.500   7.224   6.109 -0.0606  0.5883 -0.1186
  118OSM    H2F12366   5.539   7.324   6.136  1.3404  0.2602 -0.8432
  118OSM    H2G12367   5.396   7.228   6.069  0.2549  0.4022 -0.9855
  118OSM    C3F12368   5.597   7.147   6.018 -0.1411  0.4600 -0.0006
  118OSM    H3F12369   5.565   7.042   6.002 -0.9525  0.5785  0.7544
  118OSM    H3G12370   5.697   7.147   6.068 -0.1210  0.7056 -0.0356
  118OSM    C4F12371   5.610   7.201   5.875 -0.0037 -0.1244  0.4258
  118OSM    H4F12372   5.635   7.309   5.885  2.6003 -0.6448  0.1280
  118OSM    H4G12373   5.516   7.191   5.816  0.6558  1.6377 -1.0116
  118OSM    C5F12374   5.707   7.127   5.785 -0.6083  0.1232  1.0414
  118OSM    H5F12375   5.684   7.018   5.788 -2.2686  0.3937 -0.4831
  118OSM    H5G12376   5.813   7.129   5.820 -0.5149 -2.3471  1.0878
  118OSM    C6F12377   5.707   7.161   5.640  0.1929 -0.0538  0.8413
  118OSM    H6F12378   5.711   7.271   5.624  2.5732  0.0512  1.7694
  118OSM    H6G12379   5.609   7.129   5.599  0.3970 -2.5303  2.1100
  118OSM    C7F12380   5.821   7.108   5.559  0.2247  0.2566 -0.2583
  118OSM    H7F12381   5.851   7.008   5.595  4.5042  0.9808 -1.2317
  118OSM    H7G12382   5.914   7.168   5.571  0.3694  0.1128 -0.6272
  118OSM    C8F12383   5.795   7.105   5.404 -0.3413  0.0095  0.0287
  118OSM    H8F12384   5.688   7.078   5.389  0.3539 -2.5312 -0.8822
  118OSM    H8G12385   5.861   7.025   5.364 -1.2461 -0.5462 -0.3995
  118OSM    C9F12386   5.816   7.235   5.330 -0.3804 -0.0421  1.1594
  118OSM    H9F12387   5.903   7.289   5.368  1.2873 -1.2546 -0.7382
  118OSM   C10F12388   5.756   7.293   5.221 -0.2411  0.1337 -0.7469
  118OSM   H10F12389   5.803   7.376   5.165  2.9946 -2.6495 -2.5867
  118OSM   C11F12390   5.637   7.227   5.155  0.5390  0.6766  0.1902
  118OSM   H11F12391   5.553   7.300   5.158  0.0148  0.0893 -0.0889
  118OSM   H11G12392   5.597   7.135   5.201 -0.6573  1.6734  1.2233
  118OSM   C12F12393   5.647   7.194   5.011 -0.5020  0.4722  0.7078
  118OSM   H12F12394   5.560   7.130   4.985 -0.1126 -1.1075  2.9568
  118OSM   H12G12395   5.733   7.129   4.984 -1.5480 -1.0959  0.9963
  118OSM   C13F12396   5.660   7.313   4.915  0.0436 -0.9479 -0.4117
  118OSM   H13F12397   5.744   7.382   4.941  0.2602 -1.2070 -0.4196
  118OSM   H13G12398   5.568   7.371   4.937 -0.3907 -1.8720  0.2813
  118OSM   C14F12399   5.670   7.285   4.774 -0.1378 -0.0013  0.3827
  118OSM   H14F12400   5.581   7.225   4.745  0.7729 -0.4677 -1.6706
  118OSM   H14G12401   5.754   7.220   4.740  0.2782  1.0458 -0.6584
  118OSM   C15F12402   5.687   7.408   4.681  1.0178 -0.4673 -0.3576
  118OSM   H15F12403   5.779   7.458   4.719  1.0537  0.2414 -1.3598
  118OSM   H15G12404   5.597   7.471   4.697  0.5129 -1.2997  0.1252
  118OSM   C16F12405   5.703   7.371   4.537 -0.5710  0.4816 -0.4338
  118OSM   H16F12406   5.783   7.294   4.530 -0.3359  0.7786 -1.0919
  118OSM   H16G12407   5.742   7.458   4.479  1.8407 -0.1217  0.1803
  118OSM   C17F12408   5.577   7.321   4.478 -0.1989  0.0386 -0.1512
  118OSM   H17F12409   5.500   7.391   4.515 -0.2819 -0.0349 -0.1848
  118OSM   H17G12410   5.564   7.219   4.519 -3.7043  0.6811  0.6991
  118OSM   C18F12411   5.579   7.310   4.330 -0.0624 -0.1982  0.4100
  118OSM   H18F12412   5.476   7.295   4.292  0.2699 -0.9395 -0.1957
  118OSM   H18G12413   5.652   7.235   4.294  0.4242 -0.0778  1.1080
  118OSM   H18H12414   5.612   7.408   4.289  0.9638 -0.1081  1.3730
  119OSM      N12415   0.984   5.631   7.012  0.5166  0.1479  0.5235
  119OSM    C1512416   0.917   5.496   7.050  0.0898 -0.1870 -0.2454
  119OSM   H15A12417   0.886   5.490   7.153  1.0011 -5.3359 -0.0385
  119OSM   H15B12418   0.991   5.419   7.036  0.6716  0.4549 -0.7294
  119OSM   H15C12419   0.837   5.465   6.985  1.1234  2.6632 -3.2089
  119OSM    C1412420   0.893   5.742   7.043  0.3444  0.2253  0.1163
  119OSM   H14A12421   0.871   5.741   7.149  1.6279  1.7679  0.4307
  119OSM   H14B12422   0.800   5.730   6.990 -0.1887  0.1747  1.0277
  119OSM   H14C12423   0.934   5.841   7.027  0.6790  0.2500  1.0642
  119OSM    C1312424   1.103   5.637   7.099 -0.0067  0.0004 -1.4800
  119OSM   H13A12425   1.094   5.615   7.204  3.0332 -1.1733 -1.3629
  119OSM   H13B12426   1.158   5.730   7.094  0.5307 -0.1128  1.0330
  119OSM   H13C12427   1.171   5.570   7.050  1.6821  0.5424  0.0152
  119OSM    C1212428   1.025   5.619   6.868  0.6046 -0.0991 -1.2623
  119OSM   H12A12429   1.089   5.704   6.848 -0.0544  0.2641 -1.9027
  119OSM   H12B12430   0.939   5.636   6.805  0.7035  2.5346 -0.8201
  119OSM    C1112431   1.104   5.490   6.820 -0.5642  0.3664 -0.3170
  119OSM   H11A12432   1.189   5.466   6.888 -2.8243 -1.2576  2.1663
  119OSM   H11B12433   1.147   5.519   6.722  0.6482  1.1977  0.4344
  119OSM      P12434   0.897   5.379   6.709  0.0598  0.1067  0.0811
  119OSM    O1312435   0.908   5.254   6.635  0.5837 -0.0398  0.7800
  119OSM    O1412436   0.775   5.403   6.784  0.2250  0.4561 -0.5136
  119OSM    O1112437   0.922   5.512   6.619  0.1868  0.0098 -0.1499
  119OSM    O1212438   1.023   5.369   6.803 -0.1599  0.1621  0.2080
  119OSM    C1S12439   0.811   5.572   6.547  0.2505 -0.5999 -0.6456
  119OSM    H1S12440   0.809   5.680   6.572  2.0109 -0.8105  0.6241
  119OSM    H1T12441   0.709   5.539   6.575  0.2871 -0.6694 -0.5949
  119OSM     NF12442   0.768   5.439   6.346  0.6053  0.6207  0.5540
  119OSM    HNF12443   0.838   5.376   6.313  0.0991 -2.2864  4.3363
  119OSM    C2S12444   0.821   5.563   6.395 -0.1662 -0.1659  0.0185
  119OSM    H2S12445   0.763   5.646   6.350 -0.9677 -0.5731  0.2823
  119OSM    C3S12446   0.968   5.600   6.350 -0.8868  0.3521 -0.8266
  119OSM    H3S12447   1.027   5.506   6.365  0.0945  0.8941 -1.1689
  119OSM     O312448   1.044   5.684   6.436 -0.0517  0.1703 -0.4106
  119OSM    HO312449   0.997   5.691   6.520  1.3703  4.9574  0.2848
  119OSM    C4S12450   0.971   5.643   6.207 -0.5573 -0.2520 -0.2639
  119OSM    H4S12451   0.937   5.747   6.193  0.4430 -0.0485 -1.3482
  119OSM    C5S12452   1.026   5.593   6.095  0.3936 -0.5403  0.3230
  119OSM    H5S12453   1.091   5.504   6.102 -0.4454 -1.0801  1.5798
  119OSM    C6S12454   1.028   5.642   5.957  0.3729  0.5125 -0.5878
  119OSM    H6S12455   1.129   5.640   5.910  0.0612 -3.2476 -1.4397
  119OSM    H6T12456   0.981   5.742   5.956 -1.1782 -0.1859 -0.4584
  119OSM    C7S12457   0.940   5.571   5.851  0.1738  0.4226  0.4181
  119OSM    H7S12458   0.833   5.589   5.876 -0.6502  1.9962 -3.4330
  119OSM    H7T12459   0.960   5.462   5.850  2.1100  0.7175 -1.7427
  119OSM    C8S12460   0.973   5.631   5.718  0.2418  0.1172 -0.3282
  119OSM    H8S12461   1.077   5.629   5.679  0.1068 -0.3662 -0.6585
  119OSM    H8T12462   0.944   5.738   5.722  0.4063  0.1366  0.8883
  119OSM    C9S12463   0.889   5.555   5.615  0.2420 -0.6339  0.3047
  119OSM    H9S12464   0.783   5.587   5.626  0.6462  1.3974 -0.9653
  119OSM    H9T12465   0.906   5.447   5.631  1.0693 -0.2959  1.8134
  119OSM   C10S12466   0.930   5.594   5.475 -0.0278  0.2062 -0.1225
  119OSM   H10S12467   1.031   5.550   5.458 -0.2670 -0.0526 -0.8963
  119OSM   H10T12468   0.922   5.703   5.455 -0.4661 -0.2832 -3.1001
  119OSM   C11S12469   0.847   5.522   5.367  0.2568 -0.0271  0.3142
  119OSM   H11S12470   0.742   5.541   5.396  0.0304  1.1959 -1.1760
  119OSM   H11T12471   0.862   5.412   5.376  1.3166 -0.0622 -1.3278
  119OSM   C12S12472   0.881   5.570   5.223 -1.1558  0.0129  0.1668
  119OSM   H12S12473   0.984   5.534   5.205 -0.6324  1.1322  0.8285
  119OSM   H12T12474   0.901   5.679   5.214  0.6566 -0.2833  0.3135
  119OSM   C13S12475   0.787   5.531   5.115 -0.5560 -0.0558  0.2148
  119OSM   H13S12476   0.679   5.555   5.127 -0.6503  0.3448 -1.3014
  119OSM   H13T12477   0.782   5.420   5.108 -0.0009  0.0013 -1.2919
  119OSM   C14S12478   0.845   5.580   4.987  0.1570 -0.1773  0.3921
  119OSM   H14S12479   0.955   5.564   4.989  0.1202 -0.3527  1.1132
  119OSM   H14T12480   0.819   5.687   4.980 -1.1589 -0.5099 -0.0354
  119OSM   C15S12481   0.787   5.509   4.861 -0.0167  0.3401  0.1680
  119OSM   H15S12482   0.676   5.507   4.869 -0.0006 -1.1392  0.3433
  119OSM   H15T12483   0.829   5.406   4.860  0.2313  0.3055 -4.1464
  119OSM   C16S12484   0.834   5.568   4.724 -0.0935 -0.2638 -0.6827
  119OSM   H16S12485   0.942   5.541   4.718  0.2527  1.0571 -0.7418
  119OSM   H16T12486   0.836   5.679   4.728  1.4854 -0.3074  0.8544
  119OSM   C17S12487   0.755   5.515   4.608  0.2348  0.4611 -0.1806
  119OSM   H17S12488   0.647   5.532   4.629  0.4679  1.7548  0.1077
  119OSM   H17T12489   0.751   5.404   4.609 -3.2190  0.4533 -0.4786
  119OSM   C18S12490   0.797   5.572   4.480  0.2343 -0.3525  0.2785
  119OSM   H18S12491   0.885   5.515   4.442  1.7703  1.4878  0.9270
  119OSM   H18T12492   0.825   5.679   4.473 -3.3720  0.6112 -1.6399
  119OSM   H18U12493   0.719   5.563   4.401  1.6696 -1.3113 -1.1018
  119OSM    C1F12494   0.640   5.408   6.350  0.4088  0.1164 -0.4772
  119OSM     OF12495   0.562   5.493   6.381 -0.1221  0.1803  0.0251
  119OSM    C2F12496   0.590   5.276   6.298 -0.4618 -0.1458 -1.2291
  119OSM    H2F12497   0.568   5.219   6.390  1.8597  1.6855  0.5863
  119OSM    H2G12498   0.668   5.217   6.245 -0.7310 -1.4095 -0.2784
  119OSM    C3F12499   0.467   5.286   6.215 -0.1092  0.2842 -0.0120
  119OSM    H3F12500   0.380   5.325   6.272 -2.0289  0.1292 -2.6549
  119OSM    H3G12501   0.438   5.182   6.189 -2.3442  0.8123  0.1641
  119OSM    C4F12502   0.484   5.366   6.084 -0.1703 -0.2996 -0.0889
  119OSM    H4F12503   0.474   5.476   6.094  1.0036 -0.0720 -1.1941
  119OSM    H4G12504   0.402   5.343   6.013 -0.9139  1.3024  0.1911
  119OSM    C5F12505   0.612   5.338   5.995 -0.1869 -0.6050  0.1510
  119OSM    H5F12506   0.617   5.227   5.993 -2.9283 -0.8222 -2.4535
  119OSM    H5G12507   0.699   5.380   6.050 -0.2872  1.1472 -0.9671
  119OSM    C6F12508   0.589   5.403   5.855  0.8058  0.3643 -0.3561
  119OSM    H6F12509   0.691   5.431   5.821  1.0722  0.3625  0.4174
  119OSM    H6G12510   0.524   5.492   5.869  1.0044  0.1991  2.1262
  119OSM    C7F12511   0.525   5.311   5.761 -0.9084 -0.8406  0.7878
  119OSM    H7F12512   0.419   5.292   5.786 -1.5391  1.5989  0.2303
  119OSM    H7G12513   0.577   5.213   5.770  0.1722 -0.4178 -0.4642
  119OSM    C8F12514   0.553   5.358   5.615 -0.2411  0.6354  0.6431
  119OSM    H8F12515   0.523   5.271   5.553  0.8735 -1.4483  2.8959
  119OSM    H8G12516   0.663   5.374   5.610 -0.1197 -0.0899  0.9712
  119OSM    C9F12517   0.480   5.483   5.577 -0.2129 -0.1838  0.0441
  119OSM    H9F12518   0.464   5.566   5.648  0.2873  1.2173 -1.4140
  119OSM   C10F12519   0.432   5.514   5.451 -0.9153 -0.0114  0.6936
  119OSM   H10F12520   0.410   5.620   5.430  0.8304 -0.0125 -1.4979
  119OSM   C11F12521   0.454   5.424   5.328  0.1626 -0.0481  0.4944
  119OSM   H11F12522   0.416   5.319   5.333  0.4288 -0.2672 -1.2706
  119OSM   H11G12523   0.562   5.418   5.300 -0.0027  0.1947 -0.2294
  119OSM   C12F12524   0.400   5.488   5.197 -0.5770 -0.2164  0.8084
  119OSM   H12F12525   0.452   5.586   5.191 -2.9361  1.0092 -2.2536
  119OSM   H12G12526   0.291   5.509   5.207 -0.8547 -0.7465 -0.8158
  119OSM   C13F12527   0.421   5.405   5.073 -0.1847 -0.3031  0.1717
  119OSM   H13F12528   0.340   5.331   5.087 -0.0520 -0.7648 -1.3867
  119OSM   H13G12529   0.526   5.367   5.074  0.8122  2.1935  0.8156
  119OSM   C14F12530   0.391   5.484   4.947 -0.1407 -0.6530  0.2341
  119OSM   H14F12531   0.463   5.569   4.946 -0.1673 -0.6227  0.6302
  119OSM   H14G12532   0.290   5.528   4.958  0.7268  1.7104 -0.5647
  119OSM   C15F12533   0.405   5.394   4.828  0.0421  0.3653 -0.1215
  119OSM   H15F12534   0.341   5.303   4.834 -0.7645  0.9805  1.3516
  119OSM   H15G12535   0.504   5.344   4.832 -0.0374  0.2469  0.8322
  119OSM   C16F12536   0.370   5.459   4.686  0.0346 -0.1427 -0.5672
  119OSM   H16F12537   0.427   5.552   4.667 -0.5738  0.7625  1.6665
  119OSM   H16G12538   0.261   5.457   4.665 -0.2746 -1.5463  0.8969
  119OSM   C17F12539   0.423   5.365   4.568  0.7223  0.0268  0.2087
  119OSM   H17F12540   0.374   5.265   4.568  1.1813 -0.2509  2.3510
  119OSM   H17G12541   0.531   5.351   4.588  0.9930  0.4228 -0.9305
  119OSM   C18F12542   0.402   5.429   4.420  0.7308 -0.7779 -0.1877
  119OSM   H18F12543   0.441   5.353   4.348 -1.2727 -0.9163 -1.2073
  119OSM   H18G12544   0.458   5.524   4.410  0.8556 -0.8353 -0.0378
  119OSM   H18H12545   0.297   5.466   4.418  1.4093  1.2253 -0.2496
  120OSM      N12546   2.855   2.228   6.887 -0.0594 -0.3548 -0.3728
  120OSM    C1512547   2.952   2.128   6.911 -0.1929 -0.7851 -0.4655
  120OSM   H15A12548   3.031   2.141   6.838 -1.1255  1.0287 -1.2213
  120OSM   H15B12549   2.910   2.034   6.880 -2.0432  0.3568 -1.6039
  120OSM   H15C12550   2.986   2.117   7.013  2.0136 -1.8062 -1.2387
  120OSM    C1412551   2.734   2.222   6.971  0.5435 -0.1421  0.2077
  120OSM   H14A12552   2.746   2.221   7.078 -2.4810 -0.6031  0.6524
  120OSM   H14B12553   2.686   2.125   6.975 -0.2237  0.2363  0.5016
  120OSM   H14C12554   2.647   2.281   6.944  0.3804 -0.3497  0.2744
  120OSM    C1312555   2.915   2.365   6.903  0.2972  0.2833  0.2814
  120OSM   H13A12556   2.833   2.435   6.912 -1.4892 -1.8170  1.0501
  120OSM   H13B12557   2.975   2.377   6.814 -0.5872 -3.2064 -0.9301
  120OSM   H13C12558   2.981   2.372   6.988  2.4313 -0.4992 -1.2141
  120OSM    C1212559   2.805   2.224   6.746  0.2728 -0.6229  0.7155
  120OSM   H12A12560   2.728   2.299   6.734 -0.7682 -1.3597  2.4689
  120OSM   H12B12561   2.760   2.129   6.726 -0.5185  0.0394 -0.8137
  120OSM    C1112562   2.894   2.242   6.622  0.7464 -0.3987 -0.1165
  120OSM   H11A12563   2.832   2.209   6.535  0.7824 -0.8719  0.0311
  120OSM   H11B12564   2.982   2.175   6.631  0.3586 -1.2080 -1.8559
  120OSM      P12565   3.081   2.413   6.553 -0.4693  0.1980  0.0572
  120OSM    O1312566   3.076   2.537   6.474  0.0831 -0.3054 -0.3546
  120OSM    O1412567   3.179   2.408   6.663  0.2577 -0.0982 -0.2947
  120OSM    O1112568   3.122   2.292   6.463 -0.7546  0.2208  0.8941
  120OSM    O1212569   2.938   2.377   6.613 -0.5045  0.3362 -0.3978
  120OSM    C1S12570   3.059   2.293   6.331 -0.4935  0.1546 -0.7585
  120OSM    H1S12571   3.092   2.382   6.274 -1.8596  1.1026 -0.1223
  120OSM    H1T12572   2.948   2.287   6.321 -0.5661 -1.8531  0.7311
  120OSM     NF12573   3.050   2.188   6.116  0.3162 -0.1318  0.1075
  120OSM    HNF12574   2.987   2.130   6.065  1.4059 -0.8444 -0.4712
  120OSM    C2S12575   3.084   2.164   6.254 -0.5380  0.3341  0.0116
  120OSM    H2S12576   3.193   2.145   6.260 -0.8056 -0.8850  2.3552
  120OSM    C3S12577   3.005   2.048   6.334  0.3076  0.4358  0.5948
  120OSM    H3S12578   2.904   2.086   6.359  1.0588  1.9598  1.4997
  120OSM     O312579   3.063   2.019   6.466 -0.2634  0.2060  0.5625
  120OSM    HO312580   3.126   2.090   6.481  3.4272 -2.5765 -0.2361
  120OSM    C4S12581   3.003   1.921   6.247 -0.2247 -1.4415 -0.3171
  120OSM    H4S12582   3.098   1.870   6.264 -0.9583 -1.7549  3.7404
  120OSM    C5S12583   2.905   1.864   6.176  0.1682 -0.4662 -0.2009
  120OSM    H5S12584   2.805   1.909   6.171  1.2981  2.2681 -0.0643
  120OSM    C6S12585   2.936   1.728   6.118 -0.0507 -0.1145 -0.2361
  120OSM    H6S12586   2.858   1.659   6.154  0.3470  1.0408  3.2636
  120OSM    H6T12587   3.028   1.676   6.152 -0.4586 -0.2952  0.6144
  120OSM    C7S12588   2.951   1.728   5.963  0.0135  0.1261 -0.1777
  120OSM    H7S12589   3.009   1.635   5.944  1.4566  0.7220  1.1507
  120OSM    H7T12590   3.005   1.812   5.915  0.2925  1.5632  2.4740
  120OSM    C8S12591   2.822   1.707   5.882 -0.0888 -0.6869 -0.1167
  120OSM    H8S12592   2.750   1.791   5.874 -0.6412 -1.3188 -2.5798
  120OSM    H8T12593   2.765   1.625   5.932  0.3930 -1.3701 -0.6746
  120OSM    C9S12594   2.850   1.661   5.730  0.5153  0.1798 -0.0586
  120OSM    H9S12595   2.909   1.568   5.738 -1.6848 -1.3659 -0.8740
  120OSM    H9T12596   2.906   1.735   5.669  1.1667 -0.3009 -0.0453
  120OSM   C10S12597   2.720   1.634   5.666 -0.2953 -0.6309 -0.1453
  120OSM   H10S12598   2.647   1.718   5.658 -1.8605 -1.9596 -0.3346
  120OSM   H10T12599   2.667   1.549   5.714 -0.3484 -0.6807 -0.2920
  120OSM   C11S12600   2.724   1.585   5.516 -0.1993 -0.2701 -0.0649
  120OSM   H11S12601   2.776   1.487   5.512 -1.1380 -0.8692  1.4276
  120OSM   H11T12602   2.783   1.665   5.467  0.6142 -0.8843 -0.1157
  120OSM   C12S12603   2.579   1.584   5.448  0.3445 -0.3174  0.2034
  120OSM   H12S12604   2.526   1.677   5.478 -1.3425 -0.1067 -3.0375
  120OSM   H12T12605   2.516   1.503   5.490 -2.2390  1.8918  0.8241
  120OSM   C13S12606   2.581   1.586   5.297  0.2207  0.0209  0.9719
  120OSM   H13S12607   2.637   1.504   5.247  0.1088  0.2354  0.4871
  120OSM   H13T12608   2.630   1.681   5.266  0.6761 -0.8363 -1.1797
  120OSM   C14S12609   2.440   1.602   5.247 -0.2769 -0.2804  0.8600
  120OSM   H14S12610   2.399   1.704   5.264 -0.3407  0.1439 -1.4256
  120OSM   H14T12611   2.371   1.528   5.293  0.1684 -0.4338  1.2967
  120OSM   C15S12612   2.440   1.584   5.100  0.8843 -0.2008 -0.5356
  120OSM   H15S12613   2.502   1.494   5.083  1.0035  0.1508 -2.1104
  120OSM   H15T12614   2.495   1.672   5.061 -1.6408  0.5621 -2.7645
  120OSM   C16S12615   2.302   1.578   5.039 -0.3104  0.2594 -0.2310
  120OSM   H16S12616   2.220   1.575   5.114 -3.0450 -0.9040 -3.0418
  120OSM   H16T12617   2.297   1.480   4.986  0.2500 -0.7960  1.5902
  120OSM   C17S12618   2.278   1.703   4.943 -0.5345 -0.4129 -0.2374
  120OSM   H17S12619   2.355   1.690   4.864 -0.1736  1.6963 -0.2957
  120OSM   H17T12620   2.298   1.795   5.001  1.7746  0.8630 -2.8229
  120OSM   C18S12621   2.132   1.698   4.891  0.6957 -0.2130  0.5678
  120OSM   H18S12622   2.108   1.592   4.870  0.0231  0.0643 -0.1078
  120OSM   H18T12623   2.108   1.742   4.792  0.5695 -2.2181 -0.3421
  120OSM   H18U12624   2.071   1.741   4.973 -0.1772 -1.9681  0.8899
  120OSM    C1F12625   3.113   2.281   6.038 -0.2378  0.3959 -0.4699
  120OSM     OF12626   3.211   2.335   6.077 -0.6966 -0.3808 -0.1638
  120OSM    C2F12627   3.057   2.306   5.906 -0.0331 -0.8897 -0.2132
  120OSM    H2F12628   3.029   2.413   5.896  2.0376 -0.1530  1.2707
  120OSM    H2G12629   2.963   2.251   5.884 -0.2110 -0.4753 -0.5094
  120OSM    C3F12630   3.146   2.270   5.782 -0.3850 -0.6607 -0.2572
  120OSM    H3F12631   3.199   2.174   5.799 -0.4906 -0.7143 -0.2275
  120OSM    H3G12632   3.226   2.346   5.769  0.4731 -1.2247  1.4180
  120OSM    C4F12633   3.076   2.268   5.642  0.4827 -0.0958  0.1587
  120OSM    H4F12634   3.149   2.234   5.565 -1.5095  0.0024 -1.9075
  120OSM    H4G12635   3.055   2.376   5.627 -2.1517 -0.1365  2.6168
  120OSM    C5F12636   2.950   2.184   5.623  0.0041  0.1489  0.5827
  120OSM    H5F12637   2.869   2.229   5.684 -0.6045 -3.2087  2.5179
  120OSM    H5G12638   2.979   2.085   5.665  3.6718  0.6382 -0.4230
  120OSM    C6F12639   2.922   2.170   5.477  0.9512  0.3565  0.3184
  120OSM    H6F12640   3.019   2.137   5.434  0.3506 -3.7496  1.7375
  120OSM    H6G12641   2.885   2.269   5.443 -1.6055 -0.2459  1.1722
  120OSM    C7F12642   2.806   2.074   5.446  0.0670  0.2887 -0.3333
  120OSM    H7F12643   2.743   2.108   5.530  1.9264 -0.2189  1.3649
  120OSM    H7G12644   2.846   1.973   5.473 -0.0661  0.8150  2.0601
  120OSM    C8F12645   2.731   2.088   5.318  0.2858  0.0571 -0.6875
  120OSM    H8F12646   2.700   2.195   5.324 -2.2931 -0.6305 -0.3919
  120OSM    H8G12647   2.637   2.028   5.327 -0.6537  1.6568  0.7622
  120OSM    C9F12648   2.813   2.043   5.207  0.0855  0.9738 -0.1897
  120OSM    H9F12649   2.923   2.047   5.219  0.7203 -0.6171 -4.0810
  120OSM   C10F12650   2.777   1.992   5.092 -0.3532 -0.2922 -0.4748
  120OSM   H10F12651   2.859   1.964   5.024  1.9360  0.4802  1.8584
  120OSM   C11F12652   2.635   1.988   5.040  0.3786 -0.5515  0.4735
  120OSM   H11F12653   2.571   2.049   5.107  0.5833  1.2630 -0.9290
  120OSM   H11G12654   2.597   1.883   5.043 -1.3727  0.0665  2.2252
  120OSM   C12F12655   2.608   2.045   4.897  0.3947 -0.2519  0.2629
  120OSM   H12F12656   2.675   1.993   4.826  0.6663 -0.3234  0.5683
  120OSM   H12G12657   2.652   2.147   4.903  1.4056 -0.6320 -0.4846
  120OSM   C13F12658   2.461   2.050   4.848  0.1140 -0.3546  0.1687
  120OSM   H13F12659   2.402   2.112   4.919  1.3005 -0.7150  1.5184
  120OSM   H13G12660   2.413   1.951   4.864 -1.4420  0.7047  2.7354
  120OSM   C14F12661   2.433   2.111   4.711 -0.3466  0.4457 -0.4367
  120OSM   H14F12662   2.494   2.068   4.629  0.7422  0.1529  0.4978
  120OSM   H14G12663   2.461   2.219   4.714 -0.1200  0.3640  0.7421
  120OSM   C15F12664   2.285   2.105   4.664  0.3424 -0.3812 -0.3556
  120OSM   H15F12665   2.274   2.179   4.582 -1.6329  0.0256  0.2167
  120OSM   H15G12666   2.219   2.129   4.750  0.4444 -3.2723  0.6532
  120OSM   C16F12667   2.245   1.967   4.620 -0.1446 -0.2558  0.7714
  120OSM   H16F12668   2.135   1.961   4.604 -0.3907  2.4038  1.0413
  120OSM   H16G12669   2.262   1.896   4.704 -1.3541  0.3023  1.5086
  120OSM   C17F12670   2.306   1.920   4.483  0.2434 -0.3085  0.0530
  120OSM   H17F12671   2.415   1.938   4.486 -0.0191  1.3100  1.0504
  120OSM   H17G12672   2.261   1.981   4.401  0.1630  0.2118  0.4831
  120OSM   C18F12673   2.274   1.775   4.447 -0.3250  0.7302 -0.0315
  120OSM   H18F12674   2.165   1.758   4.440 -0.3078 -0.1723  1.4136
  120OSM   H18G12675   2.316   1.709   4.527 -2.1973 -1.2999 -0.6199
  120OSM   H18H12676   2.322   1.755   4.349  0.4928 -1.1214  0.6839
  121OSM      N12677   3.854   3.102   6.595 -0.9012 -0.2219 -0.6967
  121OSM    C1512678   3.954   3.050   6.691 -0.6141  0.7300 -0.5900
  121OSM   H15A12679   4.044   3.109   6.686 -0.2195  0.0781 -1.5345
  121OSM   H15B12680   3.963   2.942   6.689 -3.3245  0.4018 -0.0677
  121OSM   H15C12681   3.931   3.052   6.797  2.1589 -0.6555  0.1272
  121OSM    C1412682   3.722   3.025   6.621 -0.4134  0.3567  0.0449
  121OSM   H14A12683   3.639   3.055   6.559 -0.7277 -1.8988 -0.7192
  121OSM   H14B12684   3.708   3.034   6.727  1.2445 -1.4464  0.4689
  121OSM   H14C12685   3.739   2.920   6.600  2.2774  0.4642  1.2407
  121OSM    C1312686   3.839   3.248   6.629  0.6168  0.5706 -0.4319
  121OSM   H13A12687   3.759   3.284   6.565  0.4812  0.4939 -0.3044
  121OSM   H13B12688   3.934   3.296   6.613  2.0645 -0.9181  2.8700
  121OSM   H13C12689   3.823   3.267   6.734  3.9239  2.4491 -0.1441
  121OSM    C1212690   3.889   3.069   6.454  0.3274 -0.1454 -0.4244
  121OSM   H12A12691   3.811   3.097   6.385 -0.9760  0.3563  1.1904
  121OSM   H12B12692   3.887   2.961   6.451  1.9603 -0.1870 -2.0929
  121OSM    C1112693   4.022   3.122   6.392  0.0358 -0.6271 -0.0730
  121OSM   H11A12694   4.022   3.081   6.289  0.2891 -0.4662 -0.1379
  121OSM   H11B12695   4.101   3.064   6.446 -2.2216 -4.0839 -0.1550
  121OSM      P12696   4.181   3.319   6.401 -0.1247 -0.0367  0.6385
  121OSM    O1312697   4.179   3.462   6.441  0.0794  0.2793  0.1909
  121OSM    O1412698   4.254   3.233   6.494 -0.1148  0.0899  0.2607
  121OSM    O1112699   4.239   3.299   6.259  0.0438 -0.1835 -0.1843
  121OSM    O1212700   4.032   3.262   6.396  0.3524 -0.4068  0.2799
  121OSM    C1S12701   4.158   3.354   6.150  0.5257  0.5319  0.6101
  121OSM    H1S12702   4.171   3.463   6.133 -0.2340  0.4384 -0.6510
  121OSM    H1T12703   4.049   3.336   6.157  0.2114  2.5710  1.8972
  121OSM     NF12704   4.143   3.384   5.905  0.0456 -0.5606  0.6222
  121OSM    HNF12705   4.057   3.356   5.862  0.1963 -0.1559  0.0410
  121OSM    C2S12706   4.211   3.301   6.004  0.5365  0.3622  0.4122
  121OSM    H2S12707   4.320   3.323   6.002  0.1709  2.5297  1.2872
  121OSM    C3S12708   4.195   3.153   5.996  0.4668 -0.1484  0.2069
  121OSM    H3S12709   4.088   3.141   5.968  0.5739 -0.2227 -0.1753
  121OSM     O312710   4.228   3.074   6.112  0.3207  0.8732 -0.1690
  121OSM    HO312711   4.240   3.145   6.175 -0.0064  1.9635 -1.3130
  121OSM    C4S12712   4.250   3.095   5.863 -0.7353 -0.4402  0.9805
  121OSM    H4S12713   4.166   3.073   5.797 -0.5500 -0.5771  0.7869
  121OSM    C5S12714   4.372   3.040   5.836 -0.1513  0.0086 -0.1934
  121OSM    H5S12715   4.453   3.033   5.910 -0.7713  0.9385  0.5970
  121OSM    C6S12716   4.389   2.957   5.709 -0.1561  0.5143  0.0360
  121OSM    H6S12717   4.457   2.876   5.742 -1.6225 -0.7107  0.1762
  121OSM    H6T12718   4.455   3.014   5.641  0.0350 -0.1483 -0.3425
  121OSM    C7S12719   4.273   2.894   5.620  0.7656  0.4871  0.5578
  121OSM    H7S12720   4.195   2.966   5.585  1.8795  1.5455  0.1993
  121OSM    H7T12721   4.219   2.822   5.685  1.0057 -0.3027 -0.0954
  121OSM    C8S12722   4.328   2.812   5.503 -0.0172 -0.1704 -0.3675
  121OSM    H8S12723   4.396   2.734   5.544  0.1762  0.1511 -0.0704
  121OSM    H8T12724   4.390   2.878   5.440 -1.2805  2.1373  0.6776
  121OSM    C9S12725   4.205   2.759   5.429  0.7714 -0.0566 -0.0721
  121OSM    H9S12726   4.139   2.841   5.392  0.5451  0.3979  1.2708
  121OSM    H9T12727   4.145   2.703   5.504 -0.2836  1.3391  0.1609
  121OSM   C10S12728   4.229   2.673   5.302  0.4766 -0.1373 -0.2384
  121OSM   H10S12729   4.136   2.621   5.271 -1.0428  0.8145  2.3596
  121OSM   H10T12730   4.307   2.603   5.338  1.7762  0.8063 -1.1241
  121OSM   C11S12731   4.287   2.747   5.183  0.7055 -0.5862  0.2440
  121OSM   H11S12732   4.389   2.790   5.190 -0.1442  1.3807  1.6497
  121OSM   H11T12733   4.222   2.836   5.171 -0.8311 -1.5944  0.7717
  121OSM   C12S12734   4.273   2.666   5.056  0.3638 -0.1999  0.4013
  121OSM   H12S12735   4.168   2.629   5.056  0.1262  0.3945 -1.3572
  121OSM   H12T12736   4.339   2.578   5.044 -1.7505 -1.6613 -1.6046
  121OSM   C13S12737   4.264   2.753   4.922 -0.6257 -0.5702  0.0049
  121OSM   H13S12738   4.368   2.792   4.910 -0.1729 -1.7589 -0.1104
  121OSM   H13T12739   4.188   2.833   4.938  1.1126  1.4511 -1.2740
  121OSM   C14S12740   4.220   2.668   4.806 -0.1457  0.1768 -0.0870
  121OSM   H14S12741   4.282   2.575   4.801  1.8278  1.3917  0.5054
  121OSM   H14T12742   4.243   2.713   4.707 -0.1062  1.2462  0.4013
  121OSM   C15S12743   4.062   2.658   4.803 -0.4633  0.2803  0.2646
  121OSM   H15S12744   4.021   2.761   4.805  1.1520  0.9461  1.9819
  121OSM   H15T12745   4.025   2.596   4.888 -0.8260 -1.1184 -0.8814
  121OSM   C16S12746   4.030   2.580   4.673  0.1775  0.6787  0.1772
  121OSM   H16S12747   4.063   2.474   4.678  0.1907  0.7268  3.2514
  121OSM   H16T12748   4.080   2.635   4.592 -2.2010  1.3370 -0.9346
  121OSM   C17S12749   3.878   2.600   4.638  0.4107  0.7412  0.5868
  121OSM   H17S12750   3.868   2.709   4.657  0.9420  0.7873  0.6180
  121OSM   H17T12751   3.813   2.532   4.698  1.6320 -1.4558 -0.4416
  121OSM   C18S12752   3.863   2.576   4.488  0.0283 -0.7758 -0.4645
  121OSM   H18S12753   3.899   2.478   4.452 -3.2248 -2.5857  0.8536
  121OSM   H18T12754   3.927   2.656   4.443 -0.2679 -0.9015 -1.1300
  121OSM   H18U12755   3.756   2.590   4.464 -0.1626 -0.9059  0.2919
  121OSM    C1F12756   4.194   3.507   5.879 -0.0576 -0.6725 -0.6064
  121OSM     OF12757   4.293   3.547   5.941  0.3136 -0.5596 -0.0264
  121OSM    C2F12758   4.129   3.591   5.772  0.4693 -0.4365  0.3012
  121OSM    H2F12759   4.109   3.693   5.813 -1.1924 -0.8475  0.5952
  121OSM    H2G12760   4.025   3.555   5.759 -0.5182  2.1293  0.4442
  121OSM    C3F12761   4.196   3.595   5.635  0.1179 -0.5531  0.2180
  121OSM    H3F12762   4.227   3.492   5.606  1.9306 -0.5763  1.9649
  121OSM    H3G12763   4.286   3.658   5.655 -0.4607  0.5925 -0.6709
  121OSM    C4F12764   4.113   3.674   5.530  0.4503  0.2582  0.1218
  121OSM    H4F12765   4.062   3.756   5.586  0.0522 -2.2323  3.7182
  121OSM    H4G12766   4.025   3.609   5.510 -0.1152  0.5716  1.4643
  121OSM    C5F12767   4.193   3.730   5.416 -0.2326 -0.3885 -0.7135
  121OSM    H5F12768   4.265   3.652   5.381 -0.3106 -1.0217  0.4824
  121OSM    H5G12769   4.255   3.815   5.453 -0.1048 -0.4502 -0.7827
  121OSM    C6F12770   4.112   3.766   5.290  0.5125 -0.7599 -0.3137
  121OSM    H6F12771   4.045   3.681   5.265  0.5770 -1.0125  0.3602
  121OSM    H6G12772   4.196   3.780   5.219  2.1682 -1.7653  1.3583
  121OSM    C7F12773   4.037   3.905   5.299 -1.1859 -0.2061 -0.3412
  121OSM    H7F12774   4.118   3.973   5.334 -1.6232 -0.2974  0.8931
  121OSM    H7G12775   3.951   3.905   5.369 -0.3590 -0.5056  0.6924
  121OSM    C8F12776   3.991   3.940   5.158 -0.2640 -0.1198 -0.1064
  121OSM    H8F12777   4.080   3.936   5.093  0.0604  0.8115  0.2667
  121OSM    H8G12778   3.960   4.047   5.158 -2.2138 -0.5992 -2.3161
  121OSM    C9F12779   3.880   3.859   5.110  0.2269  0.2849  0.2526
  121OSM    H9F12780   3.863   3.762   5.160  1.4845  0.4867  1.1050
  121OSM   C10F12781   3.788   3.900   5.023  0.4218 -0.1738 -0.5326
  121OSM   H10F12782   3.701   3.842   4.988 -2.4524  2.3654  1.8161
  121OSM   C11F12783   3.800   4.030   4.943 -0.5541 -0.0711 -0.6640
  121OSM   H11F12784   3.872   4.105   4.981 -1.2315 -0.0465  0.6227
  121OSM   H11G12785   3.702   4.083   4.937  0.7244  2.4204 -0.8492
  121OSM   C12F12786   3.831   3.985   4.801  0.2446  0.0574  0.1490
  121OSM   H12F12787   3.764   3.904   4.766  1.1677  0.1163 -1.9144
  121OSM   H12G12788   3.936   3.948   4.796  1.0555  2.2976 -1.0431
  121OSM   C13F12789   3.828   4.096   4.693 -0.0044  0.2100 -0.3408
  121OSM   H13F12790   3.924   4.153   4.693  0.4543 -0.5382  0.1186
  121OSM   H13G12791   3.745   4.165   4.718  0.3345  0.8930 -1.0612
  121OSM   C14F12792   3.805   4.035   4.549  0.7272  0.0339 -0.2075
  121OSM   H14F12793   3.713   3.975   4.564  0.7032  0.4869  1.7572
  121OSM   H14G12794   3.886   3.972   4.506  0.7041 -0.4963  0.5133
  121OSM   C15F12795   3.793   4.146   4.442  0.3862 -0.4691 -0.9988
  121OSM   H15F12796   3.807   4.101   4.342 -0.0987  1.1304 -1.8254
  121OSM   H15G12797   3.879   4.216   4.446 -0.0437  0.1716 -2.4704
  121OSM   C16F12798   3.666   4.221   4.450  0.6209 -0.4143  0.4264
  121OSM   H16F12799   3.650   4.283   4.541  1.5118  1.8854 -0.9042
  121OSM   H16G12800   3.584   4.146   4.453  0.5679 -0.3300  1.8308
  121OSM   C17F12801   3.659   4.307   4.320 -0.1617  0.6959 -0.7666
  121OSM   H17F12802   3.763   4.343   4.301  1.1367 -2.9132 -1.4067
  121OSM   H17G12803   3.590   4.390   4.346 -2.9643 -1.8016  0.3863
  121OSM   C18F12804   3.612   4.236   4.192  0.3492  0.0587  0.1049
  121OSM   H18F12805   3.505   4.214   4.213  1.3541 -1.7550  4.3514
  121OSM   H18G12806   3.664   4.139   4.175 -2.4913 -1.2991 -1.5066
  121OSM   H18H12807   3.617   4.313   4.113  1.4490  2.1253  2.0526
  122OSM      N12808   4.386   0.219   6.856  0.2818  0.4162 -0.2979
  122OSM    C1512809   4.331   0.201   6.992  0.0163 -0.2518 -0.5491
  122OSM   H15A12810   4.414   0.176   7.057 -0.8603 -0.4704  0.5258
  122OSM   H15B12811   4.254   0.126   7.006 -0.2106  0.2740  1.4074
  122OSM   H15C12812   4.293   0.297   7.025 -1.0264 -1.0008  0.5447
  122OSM    C1412813   4.499   0.315   6.863 -0.0362 -0.0874 -0.2700
  122OSM   H14A12814   4.554   0.323   6.771 -2.0085  0.6030 -1.4548
  122OSM   H14B12815   4.563   0.285   6.945 -1.5537 -1.6492  0.3999
  122OSM   H14C12816   4.463   0.416   6.883  0.5870  0.0732  0.0683
  122OSM    C1312817   4.436   0.085   6.821 -0.5305  0.4313 -0.4637
  122OSM   H13A12818   4.505   0.055   6.898 -0.0575  0.1023 -1.0023
  122OSM   H13B12819   4.489   0.087   6.726 -0.1574 -1.3927 -0.3303
  122OSM   H13C12820   4.366   0.003   6.823  1.0286 -0.9324  0.2989
  122OSM    C1212821   4.285   0.276   6.761 -0.0386  0.1633 -0.3594
  122OSM   H12A12822   4.233   0.364   6.795 -1.8125 -0.8693 -0.2522
  122OSM   H12B12823   4.214   0.197   6.743  0.8639 -0.6169 -0.6188
  122OSM    C1112824   4.329   0.316   6.617  0.2038 -0.0498  0.4827
  122OSM   H11A12825   4.232   0.336   6.566  0.1613  0.0113  0.5863
  122OSM   H11B12826   4.378   0.226   6.575  1.4308 -0.2000  2.1322
  122OSM      P12827   4.376   0.569   6.660  0.0575 -0.3145  0.1314
  122OSM    O1312828   4.282   0.548   6.769 -0.1988 -0.4386 -0.8448
  122OSM    O1412829   4.499   0.635   6.706  0.2629 -0.1643  0.0926
  122OSM    O1112830   4.311   0.634   6.533 -0.0696 -0.0405  0.3593
  122OSM    O1212831   4.426   0.425   6.612  0.5369  0.1100  0.0421
  122OSM    C1S12832   4.340   0.602   6.405 -0.5224 -0.4069 -0.1477
  122OSM    H1S12833   4.313   0.497   6.380  3.2351 -1.1121 -1.8830
  122OSM    H1T12834   4.450   0.614   6.400 -0.4686 -0.2238  1.1821
  122OSM     NF12835   4.295   0.660   6.159  0.3121  0.0738  0.3686
  122OSM    HNF12836   4.334   0.722   6.091 -1.5124 -1.0743 -1.8924
  122OSM    C2S12837   4.283   0.704   6.298  0.0197 -0.2456 -0.3774
  122OSM    H2S12838   4.174   0.704   6.319 -0.4415  1.2285 -2.4131
  122OSM    C3S12839   4.321   0.853   6.335 -0.5826  0.8137 -0.1275
  122OSM    H3S12840   4.432   0.859   6.323 -0.5792  1.5034  0.2205
  122OSM     O312841   4.311   0.883   6.470  0.9475 -0.3817 -0.1679
  122OSM    HO312842   4.318   0.794   6.506  1.6457 -1.6222 -3.0519
  122OSM    C4S12843   4.261   0.961   6.253  0.2278 -0.5357 -0.0723
  122OSM    H4S12844   4.335   1.012   6.190  1.4807 -0.5095  1.3695
  122OSM    C5S12845   4.132   0.991   6.247  0.1706 -0.1155  0.7803
  122OSM    H5S12846   4.056   0.929   6.295 -0.0153 -0.4651  0.0539
  122OSM    C6S12847   4.073   1.094   6.156  0.5862  0.4861  0.6210
  122OSM    H6S12848   4.132   1.187   6.143 -1.6431  1.7220 -1.3901
  122OSM    H6T12849   3.969   1.122   6.181  0.7848  1.9533 -0.1264
  122OSM    C7S12850   4.069   1.029   6.012  0.9104 -0.4691  0.4024
  122OSM    H7S12851   3.992   0.949   6.019 -0.3713  0.6158 -0.6603
  122OSM    H7T12852   4.167   0.989   5.979 -0.1784 -0.9848 -2.4956
  122OSM    C8S12853   4.027   1.131   5.906 -0.0861 -0.1382  0.6345
  122OSM    H8S12854   4.093   1.220   5.899 -0.6921  0.2796 -0.0581
  122OSM    H8T12855   3.920   1.155   5.927  0.3659  2.8856 -0.0901
  122OSM    C9S12856   4.041   1.075   5.760 -0.7010  0.6056 -0.2112
  122OSM    H9S12857   3.971   0.989   5.745  1.7884 -1.2368 -2.1469
  122OSM    H9T12858   4.142   1.034   5.739  0.0226  2.3455 -0.2373
  122OSM   C10S12859   4.009   1.173   5.649  0.1266 -0.2293 -0.0643
  122OSM   H10S12860   4.066   1.268   5.655 -1.7935  1.2068 -2.4651
  122OSM   H10T12861   3.898   1.184   5.642  0.1676 -0.9227 -2.9566
  122OSM   C11S12862   4.038   1.118   5.507  0.3005  0.0648 -1.0152
  122OSM   H11S12863   4.005   1.012   5.504 -1.8219  0.6805 -2.1645
  122OSM   H11T12864   4.146   1.127   5.484  0.7153 -0.3999  0.6260
  122OSM   C12S12865   3.985   1.195   5.385  0.4780 -0.0860  0.4074
  122OSM   H12S12866   4.037   1.292   5.377 -1.5189  0.9529 -0.6360
  122OSM   H12T12867   3.881   1.231   5.401  1.4770  2.7285  1.0369
  122OSM   C13S12868   3.996   1.129   5.243  0.2464 -0.1900 -0.5785
  122OSM   H13S12869   3.919   1.049   5.234  0.3168 -0.5006  1.2611
  122OSM   H13T12870   4.093   1.076   5.234 -0.4725 -1.4618 -1.1764
  122OSM   C14S12871   3.975   1.235   5.132 -0.1844  0.0832  0.5230
  122OSM   H14S12872   3.882   1.296   5.141  0.5475  1.4831 -1.0856
  122OSM   H14T12873   3.956   1.164   5.048  0.9075 -1.4234  1.5064
  122OSM   C15S12874   4.090   1.327   5.114  0.1855 -0.0806 -0.1938
  122OSM   H15S12875   4.187   1.283   5.146  0.4395  2.2883  2.7435
  122OSM   H15T12876   4.067   1.410   5.184  1.8861  0.4211 -0.1748
  122OSM   C16S12877   4.091   1.387   4.971 -0.8159 -0.3514 -0.2552
  122OSM   H16S12878   4.185   1.444   4.953 -0.4009 -0.7158  0.7111
  122OSM   H16T12879   4.012   1.465   4.959  1.8825  2.7762  0.8253
  122OSM   C17S12880   4.073   1.294   4.852 -0.0380 -0.4907  0.5723
  122OSM   H17S12881   4.066   1.355   4.760  1.5909 -1.6804 -0.4035
  122OSM   H17T12882   3.980   1.237   4.868 -0.1322 -0.4115  0.2962
  122OSM   C18S12883   4.187   1.188   4.825  0.0539 -0.5451  0.2763
  122OSM   H18S12884   4.283   1.237   4.795  0.0889 -1.9414 -2.1812
  122OSM   H18T12885   4.158   1.117   4.745  0.2221 -2.2156  1.6226
  122OSM   H18U12886   4.202   1.131   4.919 -1.2947  1.2888  1.6754
  122OSM    C1F12887   4.250   0.546   6.113  0.4547 -0.3081 -0.7107
  122OSM     OF12888   4.163   0.501   6.183 -0.1313  0.3750 -0.1449
  122OSM    C2F12889   4.303   0.485   5.987  0.3141  0.1417  0.4074
  122OSM    H2F12890   4.412   0.505   5.984  0.7403 -1.8496  1.5789
  122OSM    H2G12891   4.242   0.528   5.904 -0.6394 -0.1446  0.9529
  122OSM    C3F12892   4.280   0.326   5.990 -0.4877  0.6248  0.0604
  122OSM    H3F12893   4.174   0.299   6.012 -0.3963  1.5531  1.8613
  122OSM    H3G12894   4.336   0.287   6.078 -0.7598 -0.8116 -0.3692
  122OSM    C4F12895   4.331   0.249   5.865  0.6480 -0.1504  0.5241
  122OSM    H4F12896   4.306   0.143   5.886  0.9704  0.0672  2.1543
  122OSM    H4G12897   4.437   0.270   5.842  0.6653 -0.3366  0.4374
  122OSM    C5F12898   4.263   0.287   5.727  0.2306  0.1971  0.8273
  122OSM    H5F12899   4.284   0.396   5.714 -0.6386  0.6668  2.8106
  122OSM    H5G12900   4.156   0.259   5.744  1.0430 -1.2729  4.5661
  122OSM    C6F12901   4.299   0.192   5.614 -0.1590  0.2089  0.3353
  122OSM    H6F12902   4.278   0.087   5.641  0.0856 -0.6873 -2.6237
  122OSM    H6G12903   4.408   0.198   5.592  0.2320  1.2617  2.3545
  122OSM    C7F12904   4.209   0.218   5.488 -0.3761 -0.4694  0.0041
  122OSM    H7F12905   4.101   0.203   5.511 -1.0928  0.9017 -2.1965
  122OSM    H7G12906   4.249   0.143   5.417  2.0108 -0.5439  1.3383
  122OSM    C8F12907   4.220   0.362   5.418  0.5608 -0.1875 -0.0984
  122OSM    H8F12908   4.186   0.430   5.499  1.5973  0.3587 -0.1049
  122OSM    H8G12909   4.158   0.360   5.326  0.2682 -0.8650  0.1111
  122OSM    C9F12910   4.364   0.399   5.383  0.0756 -0.3248 -0.1877
  122OSM    H9F12911   4.426   0.424   5.470  0.1743  0.5608 -0.5031
  122OSM   C10F12912   4.417   0.394   5.259  0.5292  0.0450  0.2905
  122OSM   H10F12913   4.524   0.403   5.237  1.1791  0.4034  3.1602
  122OSM   C11F12914   4.347   0.364   5.131  0.2419  0.2295  0.2838
  122OSM   H11F12915   4.239   0.355   5.156 -0.0017  0.8532 -0.4951
  122OSM   H11G12916   4.383   0.273   5.078  1.8759  0.0957  1.5572
  122OSM   C12F12917   4.364   0.482   5.036 -0.5926  0.4418  0.4688
  122OSM   H12F12918   4.470   0.517   5.030 -0.5755  0.1906 -0.8018
  122OSM   H12G12919   4.309   0.564   5.089 -0.6799  1.4054 -1.0560
  122OSM   C13F12920   4.316   0.463   4.892 -0.1160  0.1126 -0.3704
  122OSM   H13F12921   4.209   0.431   4.885 -0.3973  0.2959  2.3141
  122OSM   H13G12922   4.375   0.378   4.851  2.0934  2.2674 -1.9193
  122OSM   C14F12923   4.339   0.583   4.806 -0.1859 -0.2667 -0.9941
  122OSM   H14F12924   4.435   0.636   4.824 -0.2828 -0.4863  0.2136
  122OSM   H14G12925   4.270   0.662   4.843 -1.3698 -2.0891  0.9063
  122OSM   C15F12926   4.331   0.557   4.659  0.4675 -0.0234 -0.2047
  122OSM   H15F12927   4.226   0.527   4.639  0.6975  0.2252 -1.9528
  122OSM   H15G12928   4.396   0.470   4.632  1.3650  1.0414 -1.6300
  122OSM   C16F12929   4.366   0.684   4.576 -0.1383  0.2525 -0.6156
  122OSM   H16F12930   4.473   0.711   4.589  0.3684 -1.8501  0.0886
  122OSM   H16G12931   4.306   0.769   4.614  0.1650 -0.0667  0.6344
  122OSM   C17F12932   4.354   0.673   4.426 -0.4411 -0.9288 -0.3243
  122OSM   H17F12933   4.246   0.653   4.410 -0.6170  0.3679 -0.9019
  122OSM   H17G12934   4.418   0.594   4.381  0.3928 -0.8090  0.6128
  122OSM   C18F12935   4.387   0.795   4.346 -0.3777 -0.2184  0.1069
  122OSM   H18F12936   4.334   0.888   4.375  0.1017  1.3788 -3.5039
  122OSM   H18G12937   4.360   0.777   4.240 -3.1624  0.1806  0.6904
  122OSM   H18H12938   4.497   0.812   4.350 -0.1526 -1.5466 -0.0631
  123OSM      N12939   0.710   3.880   1.784 -0.2200 -0.4642 -0.5068
  123OSM    C1512940   0.565   3.898   1.748 -0.3410  0.0782 -0.2416
  123OSM   H15A12941   0.531   3.998   1.770  0.7429  0.0047  2.1155
  123OSM   H15B12942   0.508   3.832   1.812 -1.1784  0.9352 -0.0897
  123OSM   H15C12943   0.554   3.873   1.644 -0.6961 -1.0553  0.0471
  123OSM    C1412944   0.747   3.740   1.768  0.2048  0.0466  0.0810
  123OSM   H14A12945   0.851   3.726   1.796  0.4781 -0.8714 -1.2911
  123OSM   H14B12946   0.734   3.711   1.665 -1.4950 -1.4822  0.6749
  123OSM   H14C12947   0.677   3.680   1.823 -0.9390  1.6266  0.4231
  123OSM    C1312948   0.788   3.971   1.697 -0.7030 -0.5432 -0.3754
  123OSM   H13A12949   0.783   3.943   1.593 -0.4662  0.0860 -0.5630
  123OSM   H13B12950   0.894   3.974   1.718 -0.9280  0.2615  0.7871
  123OSM   H13C12951   0.756   4.074   1.701  1.6921  0.2387  0.9046
  123OSM    C1212952   0.731   3.927   1.928  0.1484  0.1443  0.0681
  123OSM   H12A12953   0.828   3.973   1.932 -1.1498  3.1253 -0.2512
  123OSM   H12B12954   0.739   3.844   1.996 -0.8499 -1.8186 -2.0837
  123OSM    C1112955   0.639   4.044   1.976  0.0553 -0.1522 -0.1240
  123OSM   H11A12956   0.659   4.057   2.084 -1.1854 -0.0433  0.1118
  123OSM   H11B12957   0.534   4.007   1.979 -0.2237  0.5849 -0.6419
  123OSM      P12958   0.529   4.253   1.871 -0.1874  0.3808  0.4812
  123OSM    O1312959   0.573   4.358   1.772  0.2031 -0.3827  0.1443
  123OSM    O1412960   0.408   4.173   1.838 -0.1515  0.4837  0.1305
  123OSM    O1112961   0.513   4.327   2.009  0.3551  0.8602  0.5518
  123OSM    O1212962   0.654   4.155   1.883 -0.1288  0.3868 -0.2183
  123OSM    C1S12963   0.402   4.300   2.093  0.4193 -0.5750  0.1325
  123OSM    H1S12964   0.365   4.196   2.084  1.2727 -0.7649 -1.5317
  123OSM    H1T12965   0.312   4.359   2.067 -0.6441 -1.4541  1.6595
  123OSM     NF12966   0.339   4.303   2.332  0.1591  0.3269 -0.3493
  123OSM    HNF12967   0.261   4.362   2.350  0.4525  1.5333 -2.6957
  123OSM    C2S12968   0.438   4.351   2.230  0.1331  0.2993  0.0068
  123OSM    H2S12969   0.532   4.301   2.262  0.8089  0.4007 -1.7098
  123OSM    C3S12970   0.466   4.502   2.223 -0.2356 -0.3345  0.4495
  123OSM    H3S12971   0.378   4.559   2.187 -0.3204  0.4047  1.7661
  123OSM     O312972   0.576   4.543   2.137  0.1603  0.1397  0.2192
  123OSM    HO312973   0.596   4.459   2.094  3.0986  0.6297  0.4626
  123OSM    C4S12974   0.493   4.554   2.359  0.3386 -0.2492  0.1180
  123OSM    H4S12975   0.600   4.571   2.375  0.5627 -0.8099 -0.7169
  123OSM    C5S12976   0.408   4.609   2.451 -0.8283  0.4344  0.6301
  123OSM    H5S12977   0.300   4.613   2.428 -0.7413  2.4789  0.3311
  123OSM    C6S12978   0.456   4.665   2.582  0.1230 -0.3545 -0.5199
  123OSM    H6S12979   0.441   4.775   2.585  0.3711 -0.3315  0.7904
  123OSM    H6T12980   0.562   4.647   2.609  0.1987  1.0753  0.2557
  123OSM    C7S12981   0.375   4.609   2.702 -0.6059 -0.7229  0.9601
  123OSM    H7S12982   0.271   4.647   2.693 -0.9205 -1.2975  1.9311
  123OSM    H7T12983   0.418   4.662   2.790 -0.6578 -0.7855  1.0243
  123OSM    C8S12984   0.384   4.460   2.731 -0.0953  0.2737 -0.4005
  123OSM    H8S12985   0.490   4.433   2.750  0.0455  0.8649 -0.3299
  123OSM    H8T12986   0.338   4.412   2.642 -1.6246  1.5564 -0.3497
  123OSM    C9S12987   0.306   4.408   2.854 -0.1444 -0.2448 -0.2639
  123OSM    H9S12988   0.317   4.298   2.860  1.8349 -0.1167 -1.0893
  123OSM    H9T12989   0.201   4.444   2.840  0.9137  1.9864 -3.6224
  123OSM   C10S12990   0.366   4.454   2.990  0.8545  0.0671  0.9775
  123OSM   H10S12991   0.285   4.517   3.033 -0.1058 -0.7133  0.3728
  123OSM   H10T12992   0.452   4.523   2.977 -0.8280  1.9219 -1.2688
  123OSM   C11S12993   0.405   4.346   3.084 -0.2145 -0.2749 -0.3491
  123OSM   H11S12994   0.503   4.314   3.044  1.0440  1.7895  0.8918
  123OSM   H11T12995   0.336   4.259   3.083  1.7666 -1.8982 -0.8831
  123OSM   C12S12996   0.423   4.390   3.229 -1.0103  0.4539 -0.0904
  123OSM   H12S12997   0.337   4.457   3.248 -1.6469 -0.3127 -0.1986
  123OSM   H12T12998   0.518   4.446   3.234  0.0159 -0.8864 -2.5781
  123OSM   C13S12999   0.421   4.262   3.314  0.4390  0.4358 -0.1878
  123OSM   H13S13000   0.484   4.186   3.264  2.9454  1.5772  1.0722
  123OSM   H13T13001   0.312   4.242   3.322  0.2758  1.4002  0.1819
  123OSM   C14S13002   0.473   4.295   3.452  0.3852 -0.1867 -0.4150
  123OSM   H14S13003   0.426   4.388   3.490 -1.3779 -0.6081 -1.4150
  123OSM   H14T13004   0.583   4.289   3.445  0.2543 -2.1926 -1.6978
  123OSM   C15S13005   0.436   4.178   3.555  0.0547  0.1906 -0.8802
  123OSM   H15S13006   0.327   4.191   3.576  0.8239  2.5273  2.5599
  123OSM   H15T13007   0.497   4.202   3.645 -0.1769 -0.2400 -0.6030
  123OSM   C16S13008   0.457   4.033   3.511 -0.5523  0.4925  0.1929
  123OSM   H16S13009   0.546   4.035   3.445  0.0766 -1.2120  0.9372
  123OSM   H16T13010   0.366   4.005   3.453 -0.0000 -0.9010 -0.0467
  123OSM   C17S13011   0.484   3.943   3.632 -0.5770 -0.3409  0.1877
  123OSM   H17S13012   0.557   3.990   3.701 -0.3735 -0.0152 -0.2414
  123OSM   H17T13013   0.535   3.851   3.596  1.7682 -0.2793  2.9664
  123OSM   C18S13014   0.367   3.902   3.706 -0.9051  0.2433  0.3515
  123OSM   H18S13015   0.392   3.871   3.810  3.4270 -1.7896 -1.0517
  123OSM   H18T13016   0.313   3.813   3.666  1.1475 -0.7970 -0.3018
  123OSM   H18U13017   0.289   3.981   3.708 -0.6227  0.5040  1.4587
  123OSM    C1F13018   0.327   4.172   2.360 -0.6130 -0.1184 -1.2674
  123OSM     OF13019   0.397   4.095   2.305 -0.1117 -0.3343  0.0468
  123OSM    C2F13020   0.219   4.127   2.452 -0.2749  0.6366  0.0057
  123OSM    H2F13021   0.140   4.077   2.393  0.9554  1.0341 -2.0839
  123OSM    H2G13022   0.165   4.209   2.504 -1.9012 -1.1146  1.2035
  123OSM    C3F13023   0.278   4.034   2.558 -0.8840  0.2596  0.2166
  123OSM    H3F13024   0.332   4.093   2.634 -2.0010 -1.3686  2.3895
  123OSM    H3G13025   0.355   3.963   2.522 -1.0576 -0.5137  1.3328
  123OSM    C4F13026   0.186   3.955   2.649 -0.3954  0.1718  0.0628
  123OSM    H4F13027   0.166   3.856   2.603 -0.1993  0.7823 -1.4015
  123OSM    H4G13028   0.087   4.005   2.660  0.7878  2.1557  2.7889
  123OSM    C5F13029   0.241   3.933   2.796  0.2522 -0.6185 -0.3806
  123OSM    H5F13030   0.252   4.028   2.852 -1.3979 -0.2779 -0.5811
  123OSM    H5G13031   0.345   3.898   2.778 -0.0923 -0.7272 -2.4595
  123OSM    C6F13032   0.168   3.830   2.891  0.1664 -0.2114 -0.1454
  123OSM    H6F13033   0.136   3.749   2.822  0.4275  0.4355 -1.0339
  123OSM    H6G13034   0.079   3.876   2.939 -0.5644 -2.6940  1.0516
  123OSM    C7F13035   0.262   3.798   3.000 -0.1350 -0.3920 -0.0357
  123OSM    H7F13036   0.288   3.897   3.042  1.1761 -0.5486 -0.4444
  123OSM    H7G13037   0.348   3.737   2.965  1.0237  0.5005  1.1886
  123OSM    C8F13038   0.187   3.718   3.103  0.2064  0.4618 -0.6095
  123OSM    H8F13039   0.141   3.630   3.052 -2.3267 -0.4897  2.9671
  123OSM    H8G13040   0.103   3.784   3.132  0.2239 -0.4646  1.8366
  123OSM    C9F13041   0.271   3.683   3.226  0.2176 -0.3704 -0.6052
  123OSM    H9F13042   0.361   3.621   3.214 -1.0707 -2.9215  1.7904
  123OSM   C10F13043   0.241   3.710   3.354 -0.6815 -0.2559  0.2890
  123OSM   H10F13044   0.317   3.668   3.422 -0.1780 -1.0342 -0.7371
  123OSM   C11F13045   0.110   3.753   3.410 -0.5050  0.0269 -0.0419
  123OSM   H11F13046   0.024   3.746   3.341 -0.6109  0.2963  0.0612
  123OSM   H11G13047   0.118   3.854   3.455 -0.8940  0.4525 -0.9067
  123OSM   C12F13048   0.074   3.655   3.539  0.3156 -0.4976 -0.5431
  123OSM   H12F13049   0.152   3.665   3.618 -1.6885  0.6739  1.4011
  123OSM   H12G13050   0.052   3.550   3.510  0.9875 -0.6929 -0.3641
  123OSM   C13F13051  -0.062   3.707   3.603 -0.5914  0.4860 -0.3802
  123OSM   H13F13052  -0.146   3.701   3.531 -0.1254 -0.4242 -0.8661
  123OSM   H13G13053  -0.044   3.816   3.618 -1.9561  0.4654  1.9479
  123OSM   C14F13054  -0.092   3.641   3.737 -0.6557  0.4349  0.6584
  123OSM   H14F13055   0.000   3.648   3.798 -1.6372 -1.2083  2.4468
  123OSM   H14G13056  -0.105   3.532   3.720 -1.4477  0.5823  0.2529
  123OSM   C15F13057  -0.192   3.703   3.828 -0.1449 -0.3452  0.0504
  123OSM   H15F13058  -0.300   3.690   3.807 -0.3462 -2.2791  1.9047
  123OSM   H15G13059  -0.182   3.813   3.822 -1.9703 -0.1093  0.8262
  123OSM   C16F13060  -0.173   3.658   3.970  0.5410 -0.1966  0.0760
  123OSM   H16F13061  -0.209   3.745   4.030 -0.9150 -0.8627  0.2058
  123OSM   H16G13062  -0.067   3.631   3.989  1.3129 -0.0713 -3.4611
  123OSM   C17F13063  -0.259   3.540   4.006  0.3246  1.2595 -0.5484
  123OSM   H17F13064  -0.230   3.451   3.946 -0.1466  2.0108 -1.9312
  123OSM   H17G13065  -0.365   3.557   3.979 -0.2180 -0.9812 -0.0457
  123OSM   C18F13066  -0.255   3.513   4.152 -0.7045 -0.2749 -0.4073
  123OSM   H18F13067  -0.152   3.492   4.186 -1.5085 -0.9498  1.7664
  123OSM   H18G13068  -0.308   3.418   4.176 -0.0252 -0.4377  0.4833
  123OSM   H18H13069  -0.314   3.592   4.203 -3.2845  1.1921 -5.1284
  124OSM      N13070   0.847   4.578   1.495  0.3461  0.0426  0.0453
  124OSM    C1513071   0.919   4.445   1.506 -0.0134  0.5274 -0.2087
  124OSM   H15A13072   0.951   4.434   1.404  0.1324  0.7410 -0.1861
  124OSM   H15B13073   0.865   4.358   1.540 -0.2593  1.1097  0.9612
  124OSM   H15C13074   1.008   4.455   1.566 -0.6226  1.5343  0.5669
  124OSM    C1413075   0.938   4.681   1.436  0.2581  0.1290 -0.0215
  124OSM   H14A13076   0.969   4.640   1.341 -1.9953 -0.6774 -0.4667
  124OSM   H14B13077   1.018   4.694   1.507 -0.8897 -0.6028  1.4445
  124OSM   H14C13078   0.893   4.776   1.414  1.6000  0.9434  0.6351
  124OSM    C1313079   0.730   4.558   1.400  0.3316  0.0015  0.2311
  124OSM   H13A13080   0.667   4.478   1.435  2.2207 -0.9053  1.6911
  124OSM   H13B13081   0.759   4.534   1.299  1.3242 -1.5854  0.8719
  124OSM   H13C13082   0.662   4.643   1.397  0.5104  0.1163 -1.6491
  124OSM    C1213083   0.792   4.611   1.636 -0.1648 -0.2738  0.1474
  124OSM   H12A13084   0.871   4.636   1.705 -1.2854 -1.2460  1.8514
  124OSM   H12B13085   0.739   4.523   1.669  0.4748 -1.1621 -1.1202
  124OSM    C1113086   0.691   4.727   1.650  0.2935 -0.0104  0.0096
  124OSM   H11A13087   0.638   4.721   1.747  1.0681  2.2906  0.6503
  124OSM   H11B13088   0.600   4.711   1.589 -1.5113  2.1564  1.9472
  124OSM      P13089   0.835   4.930   1.730 -0.1471 -0.1578 -0.0312
  124OSM    O1313090   0.967   4.972   1.679 -0.1442  0.2810  0.1270
  124OSM    O1413091   0.751   5.040   1.782 -0.4273 -0.0117  0.0463
  124OSM    O1113092   0.852   4.827   1.848 -0.5490 -0.2768 -0.1154
  124OSM    O1213093   0.756   4.852   1.614  0.2607 -0.5570 -0.7566
  124OSM    C1S13094   0.862   4.870   1.986 -0.1976  0.0923  0.2441
  124OSM    H1S13095   0.785   4.946   2.013  1.7250  2.2140  0.0366
  124OSM    H1T13096   0.958   4.921   2.011  1.1839 -2.3689  0.2504
  124OSM     NF13097   0.890   4.793   2.227 -0.0010 -0.3607 -0.2258
  124OSM    HNF13098   0.967   4.749   2.272 -0.9864 -0.4352  1.4525
  124OSM    C2S13099   0.865   4.751   2.084 -0.0333  0.3042 -0.9690
  124OSM    H2S13100   0.769   4.698   2.073  0.8841 -1.5914 -0.2179
  124OSM    C3S13101   0.972   4.645   2.048 -0.4850 -0.2245  0.1352
  124OSM    H3S13102   1.073   4.681   2.076  0.4490 -1.9129 -0.8934
  124OSM     O313103   0.981   4.606   1.906  0.0554  0.7379  0.5468
  124OSM    HO313104   0.937   4.673   1.853  2.0102  1.0971 -0.7201
  124OSM    C4S13105   0.954   4.526   2.139  0.4035  0.1109  0.2994
  124OSM    H4S13106   0.979   4.544   2.244 -2.3477  0.0028  1.0412
  124OSM    C5S13107   0.882   4.416   2.112 -0.5178  0.6747 -0.0254
  124OSM    H5S13108   0.823   4.406   2.020 -2.3569 -2.6676  1.3171
  124OSM    C6S13109   0.853   4.308   2.215 -0.1273 -0.1792  0.3498
  124OSM    H6S13110   0.905   4.213   2.188 -0.1689 -0.3711  0.9303
  124OSM    H6T13111   0.749   4.272   2.200 -1.0600  2.6920 -0.7044
  124OSM    C7S13112   0.885   4.345   2.363 -0.4089 -0.5958 -0.2723
  124OSM    H7S13113   0.831   4.435   2.398 -0.1521 -0.6330  0.2280
  124OSM    H7T13114   0.992   4.356   2.389 -0.8186  1.7708  0.6188
  124OSM    C8S13115   0.837   4.231   2.462  0.0242 -0.0407 -0.0218
  124OSM    H8S13116   0.858   4.128   2.425  0.3339 -0.0307  0.1167
  124OSM    H8T13117   0.726   4.234   2.468 -0.0028 -1.1093  0.2470
  124OSM    C9S13118   0.896   4.251   2.605  0.2997  0.0614 -0.4117
  124OSM    H9S13119   1.006   4.268   2.601  0.5352 -1.1510  0.4795
  124OSM    H9T13120   0.892   4.151   2.653  2.4770  0.0609 -0.1449
  124OSM   C10S13121   0.825   4.349   2.696  0.2965 -0.6090  0.5680
  124OSM   H10S13122   0.721   4.311   2.693  0.2747 -0.7656 -3.5895
  124OSM   H10T13123   0.823   4.449   2.648 -0.0709 -0.1075  1.5971
  124OSM   C11S13124   0.873   4.372   2.833 -0.4502  0.3184 -0.5683
  124OSM   H11S13125   0.976   4.414   2.836 -0.6527  0.9508 -1.8258
  124OSM   H11T13126   0.880   4.276   2.890  4.6685 -0.2510 -1.6397
  124OSM   C12S13127   0.779   4.464   2.915 -0.1800 -0.6939 -0.8691
  124OSM   H12S13128   0.673   4.433   2.903 -1.1190  1.4752  1.0346
  124OSM   H12T13129   0.789   4.565   2.868  1.1651 -0.9430 -1.1545
  124OSM   C13S13130   0.815   4.478   3.064 -0.0764  0.7812  0.9191
  124OSM   H13S13131   0.737   4.530   3.124 -0.2624  0.7529  0.7006
  124OSM   H13T13132   0.916   4.524   3.054  0.4981 -0.9924 -3.6716
  124OSM   C14S13133   0.830   4.343   3.142  0.4918 -0.1001 -0.1333
  124OSM   H14S13134   0.917   4.280   3.116  0.5842  0.0805 -0.2596
  124OSM   H14T13135   0.734   4.292   3.120 -0.1387  0.7516  0.5520
  124OSM   C15S13136   0.841   4.356   3.291 -0.3334  0.2092 -0.0593
  124OSM   H15S13137   0.752   4.412   3.326  0.5285  1.6786 -0.1553
  124OSM   H15T13138   0.940   4.398   3.321 -0.8752  0.4332  1.4771
  124OSM   C16S13139   0.841   4.214   3.357 -0.3761  0.1530  0.2063
  124OSM   H16S13140   0.903   4.134   3.311 -2.6328 -1.4014 -0.2721
  124OSM   H16T13141   0.736   4.184   3.340  0.4256 -2.0433 -1.4192
  124OSM   C17S13142   0.873   4.223   3.508 -1.1251 -0.6924  0.0102
  124OSM   H17S13143   0.807   4.290   3.568 -1.6688 -3.1330  2.3528
  124OSM   H17T13144   0.978   4.258   3.523 -1.0802 -0.6084 -0.4931
  124OSM   C18S13145   0.849   4.089   3.576  0.3639 -0.5814  0.5297
  124OSM   H18S13146   0.900   4.076   3.674  0.6529 -2.2023  0.1963
  124OSM   H18T13147   0.883   4.012   3.503  0.9536  0.3903 -0.2348
  124OSM   H18U13148   0.742   4.066   3.592  0.1708 -1.2332 -1.4715
  124OSM    C1F13149   0.806   4.870   2.301 -0.5647  0.4013 -0.1782
  124OSM     OF13150   0.702   4.916   2.253 -0.3998  0.2573 -0.5865
  124OSM    C2F13151   0.850   4.907   2.444  0.8063  0.1888 -0.6169
  124OSM    H2F13152   0.941   4.846   2.461  1.0904  0.6818 -0.3486
  124OSM    H2G13153   0.762   4.886   2.507  1.6094 -0.4946  0.3057
  124OSM    C3F13154   0.880   5.057   2.449  0.2274 -0.9114  0.2241
  124OSM    H3F13155   0.790   5.107   2.410 -0.9330 -1.8703  1.5741
  124OSM    H3G13156   0.969   5.088   2.390  1.2535 -1.1100  1.5960
  124OSM    C4F13157   0.901   5.117   2.590  0.4000  0.6383  0.1352
  124OSM    H4F13158   0.820   5.079   2.656 -0.3040  0.9888 -0.5110
  124OSM    H4G13159   0.891   5.228   2.585 -2.0237  0.4896  0.3372
  124OSM    C5F13160   1.030   5.090   2.666 -0.2669 -0.1042  0.2319
  124OSM    H5F13161   1.115   5.156   2.639 -0.9424  0.8517  0.3697
  124OSM    H5G13162   1.068   4.990   2.637  1.5473  0.4857  0.5021
  124OSM    C6F13163   1.020   5.098   2.822  0.6218  0.4738  1.0563
  124OSM    H6F13164   1.125   5.099   2.857  0.3577  2.4444  1.9484
  124OSM    H6G13165   0.973   5.003   2.856  0.7544  0.3727  0.9558
  124OSM    C7F13166   0.962   5.226   2.879 -0.2601 -0.1314  0.4064
  124OSM    H7F13167   0.854   5.202   2.866 -0.5497  0.0714  2.1769
  124OSM    H7G13168   0.991   5.306   2.807 -0.5296 -0.1033  0.3271
  124OSM    C8F13169   1.007   5.256   3.021 -0.5628 -0.4031 -0.4086
  124OSM    H8F13170   1.104   5.309   3.006 -2.1485  3.1725  0.8876
  124OSM    H8G13171   1.037   5.161   3.069 -0.5837  0.2515  0.9292
  124OSM    C9F13172   0.905   5.331   3.102  0.2513 -0.2181 -0.6211
  124OSM    H9F13173   0.887   5.428   3.054  0.3313 -0.7423 -1.7622
  124OSM   C10F13174   0.831   5.293   3.212  0.6015  0.3775 -0.2989
  124OSM   H10F13175   0.766   5.370   3.256  0.2240  0.6993 -1.3963
  124OSM   C11F13176   0.838   5.162   3.278  0.1769  0.6634 -0.2288
  124OSM   H11F13177   0.880   5.089   3.206  0.5895  2.3245 -1.7421
  124OSM   H11G13178   0.736   5.125   3.303 -0.4292  0.7803 -2.3276
  124OSM   C12F13179   0.924   5.149   3.406 -0.8628  0.3859  0.5769
  124OSM   H12F13180   0.886   5.059   3.460  2.4353 -1.3697  0.2115
  124OSM   H12G13181   0.916   5.239   3.471 -2.0582  1.5401 -1.0732
  124OSM   C13F13182   1.075   5.112   3.388 -0.0961  0.2526  0.3079
  124OSM   H13F13183   1.130   5.202   3.356 -0.2189 -0.1167 -1.0030
  124OSM   H13G13184   1.075   5.040   3.303  2.0285  1.1796 -0.5479
  124OSM   C14F13185   1.138   5.061   3.513 -0.2812 -0.1414 -0.9115
  124OSM   H14F13186   1.238   5.025   3.481 -0.1473  0.2043 -0.8859
  124OSM   H14G13187   1.083   4.976   3.559  2.2577 -1.3932  0.0297
  124OSM   C15F13188   1.184   5.170   3.614  0.2575  0.2911 -0.1156
  124OSM   H15F13189   1.092   5.231   3.629  1.4641  2.0018  0.7393
  124OSM   H15G13190   1.261   5.232   3.563  0.6437 -1.1861 -1.3919
  124OSM   C16F13191   1.241   5.113   3.749  0.1201  0.6313 -0.0082
  124OSM   H16F13192   1.294   5.193   3.806  0.7814 -1.5552  2.6786
  124OSM   H16G13193   1.314   5.033   3.725 -0.6304  0.0539 -0.3776
  124OSM   C17F13194   1.131   5.062   3.833  0.3812 -0.6194 -0.6192
  124OSM   H17F13195   1.077   4.972   3.797 -0.5752 -0.7074  0.9436
  124OSM   H17G13196   1.052   5.140   3.837  1.7266  0.7498  0.0719
  124OSM   C18F13197   1.190   5.020   3.964  0.0446 -0.4158  0.3253
  124OSM   H18F13198   1.269   4.943   3.955  2.3085  1.5101  2.2288
  124OSM   H18G13199   1.100   4.996   4.025  0.3949  1.0388  1.4786
  124OSM   H18H13200   1.228   5.107   4.021 -3.8852  2.3526 -0.8206
  125OSM      N13201   1.438   2.032   2.047  0.0164  0.0759 -0.7299
  125OSM    C1513202   1.440   1.893   2.099 -0.0734  0.3846  0.4682
  125OSM   H15A13203   1.394   1.825   2.029  0.1577  0.1299  0.5630
  125OSM   H15B13204   1.392   1.878   2.194 -0.0222 -0.9352  0.3006
  125OSM   H15C13205   1.542   1.863   2.117 -1.3458 -3.2290  2.5968
  125OSM    C1413206   1.488   2.126   2.156 -0.2675  0.4647  0.2751
  125OSM   H14A13207   1.568   2.079   2.211 -0.3788 -0.8656 -0.6665
  125OSM   H14B13208   1.398   2.150   2.211 -0.1196  0.7589  0.3877
  125OSM   H14C13209   1.532   2.212   2.108  3.1928 -0.6651  1.0991
  125OSM    C1313210   1.538   2.036   1.941  0.1950 -0.4408  0.5476
  125OSM   H13A13211   1.634   1.997   1.974 -0.3044 -2.3212 -0.1242
  125OSM   H13B13212   1.560   2.134   1.901  0.3324 -0.5412  0.3769
  125OSM   H13C13213   1.520   1.966   1.861 -1.3191  1.4737 -0.8953
  125OSM    C1213214   1.308   2.066   1.998  0.4307 -0.1485  0.4097
  125OSM   H12A13215   1.264   1.985   1.942 -0.2939  0.0030  0.7461
  125OSM   H12B13216   1.321   2.143   1.923  1.8206  0.7089  1.4741
  125OSM    C1113217   1.199   2.101   2.103  0.3960 -0.6786 -0.2305
  125OSM   H11A13218   1.108   2.123   2.042 -0.2149 -0.6959  0.6597
  125OSM   H11B13219   1.220   2.196   2.158 -0.1451  0.7199 -2.3021
  125OSM      P13220   1.096   1.865   2.169 -0.0316  0.3391 -0.3421
  125OSM    O1313221   1.051   1.874   2.029 -0.5828  0.3570 -0.2851
  125OSM    O1413222   1.165   1.750   2.227 -0.1823 -0.6759  0.1723
  125OSM    O1113223   0.972   1.894   2.267 -0.4735 -0.1991  0.0128
  125OSM    O1213224   1.182   1.996   2.199  0.0021 -0.1502  0.4282
  125OSM    C1S13225   0.974   1.914   2.406 -0.3317 -0.3847  0.0405
  125OSM    H1S13226   1.077   1.928   2.446 -0.4487  1.7401 -0.2634
  125OSM    H1T13227   0.926   1.830   2.459 -2.4594  0.8809  0.2303
  125OSM     NF13228   0.908   2.056   2.597 -0.3268 -0.4139  0.5945
  125OSM    HNF13229   0.824   2.035   2.645  0.3329 -2.6563  0.8506
  125OSM    C2S13230   0.903   2.040   2.450 -0.1398 -0.3576  0.6816
  125OSM    H2S13231   0.950   2.134   2.414  1.5214 -0.6966  1.8245
  125OSM    C3S13232   0.763   2.036   2.393  0.7655  0.0315 -0.3934
  125OSM    H3S13233   0.708   1.947   2.430  1.0832  0.5405  1.4232
  125OSM     O313234   0.764   2.044   2.255  0.6658  0.2182  0.4786
  125OSM    HO313235   0.847   2.001   2.232  2.0168  0.6378  4.0264
  125OSM    C4S13236   0.691   2.165   2.445 -0.4522  0.9409 -0.1844
  125OSM    H4S13237   0.743   2.257   2.417 -0.6045  0.2350 -3.0313
  125OSM    C5S13238   0.589   2.157   2.531 -0.6342 -0.2197 -1.2228
  125OSM    H5S13239   0.548   2.060   2.560 -0.6988  0.2010  0.1851
  125OSM    C6S13240   0.519   2.287   2.571 -1.1362  0.2285  0.4064
  125OSM    H6S13241   0.413   2.286   2.538 -0.7355 -1.0867 -0.9578
  125OSM    H6T13242   0.568   2.372   2.520 -0.0038  0.4332  1.7899
  125OSM    C7S13243   0.518   2.330   2.717 -0.3875 -0.4537 -0.2137
  125OSM    H7S13244   0.478   2.253   2.787 -3.4971 -0.1108 -1.4431
  125OSM    H7T13245   0.459   2.424   2.724  0.6350  0.2389 -0.7861
  125OSM    C8S13246   0.660   2.365   2.773 -0.2573  0.5751 -0.5964
  125OSM    H8S13247   0.687   2.445   2.701 -1.1101  2.1531  0.7639
  125OSM    H8T13248   0.720   2.272   2.770 -0.3528  0.4848  0.1757
  125OSM    C9S13249   0.664   2.431   2.914 -0.0962 -0.4429  0.4039
  125OSM    H9S13250   0.599   2.521   2.919  0.5868  0.1206 -0.4789
  125OSM    H9T13251   0.769   2.461   2.936 -0.7402  0.8175  1.8900
  125OSM   C10S13252   0.620   2.341   3.023  0.3964  0.5903 -0.6768
  125OSM   H10S13253   0.525   2.292   2.994  1.1701  0.3881 -3.1527
  125OSM   H10T13254   0.613   2.399   3.117  1.4395  0.7068 -0.6585
  125OSM   C11S13255   0.712   2.222   3.039 -0.6281  0.2618 -0.7432
  125OSM   H11S13256   0.816   2.252   3.061  0.3479 -2.7757 -0.6652
  125OSM   H11T13257   0.712   2.159   2.947 -2.4656 -0.2803 -0.4173
  125OSM   C12S13258   0.665   2.126   3.150  0.0219 -0.7861  0.1248
  125OSM   H12S13259   0.733   2.038   3.146 -0.3469 -1.1907  1.8512
  125OSM   H12T13260   0.559   2.095   3.140 -0.5942  0.4085  2.2401
  125OSM   C13S13261   0.690   2.181   3.288 -0.2102  0.1976 -0.2741
  125OSM   H13S13262   0.622   2.267   3.305  0.8678  1.3457 -1.4357
  125OSM   H13T13263   0.794   2.221   3.294 -0.4141  0.5939  0.8291
  125OSM   C14S13264   0.666   2.085   3.402  0.1909  0.7456  0.2617
  125OSM   H14S13265   0.737   1.999   3.403  1.3873  1.7150  0.1989
  125OSM   H14T13266   0.566   2.039   3.385  0.3675  0.7686 -0.9459
  125OSM   C15S13267   0.661   2.133   3.548 -1.0301  0.2406  0.1895
  125OSM   H15S13268   0.642   2.042   3.608 -0.0173  1.9767  3.4125
  125OSM   H15T13269   0.573   2.201   3.561  1.0633  2.6941  3.3413
  125OSM   C16S13270   0.790   2.201   3.592 -0.4474  0.6014  0.4090
  125OSM   H16S13271   0.831   2.284   3.531  0.0440 -0.7556 -1.1672
  125OSM   H16T13272   0.875   2.130   3.594 -1.0037 -0.1229 -0.7180
  125OSM   C17S13273   0.769   2.255   3.734  0.2573 -0.5472  0.0887
  125OSM   H17S13274   0.722   2.176   3.795 -1.5946  0.8380  0.5547
  125OSM   H17T13275   0.704   2.345   3.726  1.5381  0.3995  0.0289
  125OSM   C18S13276   0.902   2.296   3.796  0.4946  0.3961  0.2320
  125OSM   H18S13277   0.882   2.330   3.900  1.6533  1.7219  0.0645
  125OSM   H18T13278   0.946   2.384   3.743  1.4848 -0.2953 -0.1246
  125OSM   H18U13279   0.971   2.209   3.800  0.6126  0.4992  0.4972
  125OSM    C1F13280   1.017   2.098   2.658  0.9875 -0.3805 -0.4150
  125OSM     OF13281   1.120   2.116   2.596 -0.5591  0.6209  0.2901
  125OSM    C2F13282   1.004   2.127   2.801 -0.0172 -0.6827 -0.3648
  125OSM    H2F13283   0.897   2.127   2.832 -0.0084 -1.0466 -0.3409
  125OSM    H2G13284   1.045   2.227   2.829 -0.8809 -0.3771 -0.1583
  125OSM    C3F13285   1.090   2.035   2.891 -0.1108 -0.0124  0.0262
  125OSM    H3F13286   1.198   2.041   2.866  0.5632 -0.1400  2.6297
  125OSM    H3G13287   1.065   1.929   2.866  0.6728 -0.3208  0.5062
  125OSM    C4F13288   1.066   2.072   3.036  0.0172 -0.3743  0.1352
  125OSM    H4F13289   0.955   2.073   3.050  0.1557  0.3244  1.3158
  125OSM    H4G13290   1.112   2.170   3.061 -1.6131  0.2981  0.6704
  125OSM    C5F13291   1.132   1.983   3.135  0.0297  0.1451  0.2949
  125OSM    H5F13292   1.242   1.998   3.125 -0.1035  0.7956 -0.2489
  125OSM    H5G13293   1.110   1.875   3.118 -0.1324  0.4902 -2.1076
  125OSM    C6F13294   1.109   2.017   3.288 -0.1392  0.2553  0.1525
  125OSM    H6F13295   0.998   2.018   3.292 -0.2144  1.1950 -1.5882
  125OSM    H6G13296   1.147   2.120   3.307  3.8357 -1.0582  0.2586
  125OSM    C7F13297   1.184   1.921   3.387  0.9093  0.5594 -0.2131
  125OSM    H7F13298   1.293   1.939   3.404  1.3097 -1.7799 -0.0379
  125OSM    H7G13299   1.179   1.823   3.336  1.4818  0.2664  0.2771
  125OSM    C8F13300   1.115   1.916   3.533 -0.2564  0.0499  0.3322
  125OSM    H8F13301   1.132   1.811   3.565  1.1219  0.0070 -0.4966
  125OSM    H8G13302   1.007   1.923   3.509 -0.1670 -1.1088 -0.4548
  125OSM    C9F13303   1.171   2.016   3.632  0.9101 -0.6025  0.6395
  125OSM    H9F13304   1.196   2.113   3.588  3.7944 -0.9473  1.3051
  125OSM   C10F13305   1.188   2.001   3.763 -0.0110 -1.1446  0.6931
  125OSM   H10F13306   1.225   2.088   3.819 -1.9563 -0.3861  0.8820
  125OSM   C11F13307   1.161   1.878   3.848 -0.3478  0.0354  0.0784
  125OSM   H11F13308   1.139   1.788   3.787  1.0004 -0.7066  0.6514
  125OSM   H11G13309   1.076   1.886   3.919  0.6377  0.4312  1.2378
  125OSM   C12F13310   1.292   1.837   3.918  0.6523  0.2958 -0.8719
  125OSM   H12F13311   1.376   1.847   3.846  1.6382 -2.2899 -0.1686
  125OSM   H12G13312   1.275   1.729   3.939 -0.7364  0.4202 -1.2201
  125OSM   C13F13313   1.333   1.915   4.046 -0.2898 -0.2494 -0.2853
  125OSM   H13F13314   1.322   2.024   4.025  0.4830  0.2189  1.5818
  125OSM   H13G13315   1.440   1.897   4.071 -0.4191  0.2904  0.6796
  125OSM   C14F13316   1.249   1.869   4.166 -0.1039  0.6950  0.1171
  125OSM   H14F13317   1.277   1.763   4.184 -0.6201  0.3883 -0.7791
  125OSM   H14G13318   1.140   1.873   4.146 -0.1591 -2.5160 -0.8845
  125OSM   C15F13319   1.283   1.955   4.288 -0.5140  0.5596  0.1033
  125OSM   H15F13320   1.231   2.053   4.285  0.2236  0.9814  0.8453
  125OSM   H15G13321   1.392   1.977   4.294 -0.2408 -0.4251 -0.9627
  125OSM   C16F13322   1.219   1.902   4.419 -0.5476 -0.1345  0.4997
  125OSM   H16F13323   1.258   1.799   4.432  0.5517  0.6203  4.7291
  125OSM   H16G13324   1.110   1.899   4.400 -0.4051 -2.7015 -0.2112
  125OSM   C17F13325   1.266   1.981   4.546  0.2933  0.0601 -0.2460
  125OSM   H17F13326   1.305   2.079   4.512 -0.1376 -0.2654 -1.7898
  125OSM   H17G13327   1.356   1.935   4.592 -0.4457 -1.4961 -0.3063
  125OSM   C18F13328   1.155   1.990   4.642  0.1705  0.4568 -0.2601
  125OSM   H18F13329   1.074   2.036   4.582  1.1632  0.7484 -1.4204
  125OSM   H18G13330   1.179   2.057   4.728 -1.4258  0.8669 -0.1029
  125OSM   H18H13331   1.122   1.893   4.686  0.0968 -0.5091 -2.3400
  126OSM      N13332   0.122   3.391   1.711 -0.7865 -0.2536 -0.4469
  126OSM    C1513333   0.067   3.283   1.628  0.6784 -0.0422  0.6230
  126OSM   H15A13334   0.125   3.192   1.624 -0.0895 -0.5092 -0.4820
  126OSM   H15B13335   0.047   3.313   1.526 -0.8168 -0.4848  0.7511
  126OSM   H15C13336  -0.028   3.246   1.666 -0.3882 -0.5292 -2.2654
  126OSM    C1413337   0.254   3.426   1.651 -0.1174  0.2512 -0.4669
  126OSM   H14A13338   0.302   3.504   1.708  0.8137  0.0949 -1.0325
  126OSM   H14B13339   0.238   3.469   1.554 -1.6526  0.7308 -0.0268
  126OSM   H14C13340   0.307   3.333   1.634 -3.1739 -1.3392 -2.2870
  126OSM    C1313341   0.042   3.512   1.705 -0.1011  0.2172  0.0657
  126OSM   H13A13342   0.033   3.557   1.607 -2.1562  0.8004  0.4832
  126OSM   H13B13343   0.086   3.578   1.778  1.0713 -1.5165  0.9963
  126OSM   H13C13344  -0.063   3.501   1.729 -0.1826 -0.2349 -0.4769
  126OSM    C1213345   0.131   3.330   1.851  0.2263 -0.1018  0.3878
  126OSM   H12A13346   0.186   3.237   1.850  0.1531 -0.1488  0.7443
  126OSM   H12B13347   0.030   3.300   1.873  0.4691 -1.1128  0.1786
  126OSM    C1113348   0.183   3.420   1.972  0.6437  0.0182  0.0814
  126OSM   H11A13349   0.286   3.450   1.942  0.5269 -0.4579 -0.8609
  126OSM   H11B13350   0.193   3.356   2.063  0.0809 -0.0718  0.0821
  126OSM      P13351  -0.041   3.538   2.053 -0.4028 -0.2704 -0.1115
  126OSM    O1313352  -0.116   3.652   1.996 -0.2767  0.1911 -0.3900
  126OSM    O1413353  -0.102   3.406   2.061 -0.4144  0.1430  0.1489
  126OSM    O1113354  -0.011   3.578   2.207 -0.4585  0.1348  0.4946
  126OSM    O1213355   0.099   3.535   1.992 -0.5668  0.5755  0.0188
  126OSM    C1S13356   0.093   3.520   2.281  0.6438  0.2268 -0.4766
  126OSM    H1S13357   0.185   3.579   2.260 -0.4631  2.7815  1.3256
  126OSM    H1T13358   0.101   3.412   2.257  0.2358 -0.2855  1.5705
  126OSM     NF13359   0.199   3.515   2.496  0.8234  0.2412  0.1279
  126OSM    HNF13360   0.204   3.421   2.529 -2.8259 -0.5883 -1.1816
  126OSM    C2S13361   0.066   3.530   2.432 -0.0785  0.8077  0.4893
  126OSM    H2S13362   0.047   3.638   2.450 -0.3649  1.0346 -1.0034
  126OSM    C3S13363  -0.044   3.439   2.475  0.2709 -0.3532 -0.4397
  126OSM    H3S13364  -0.013   3.335   2.450 -2.2446 -1.2219 -0.2225
  126OSM     O313365  -0.164   3.461   2.405 -0.5450 -0.0339  0.2067
  126OSM    HO313366  -0.133   3.516   2.333 -2.3759 -0.1462 -0.7381
  126OSM    C4S13367  -0.068   3.444   2.626 -0.3074  0.3866  0.1584
  126OSM    H4S13368  -0.030   3.357   2.681  1.3529 -0.0934 -1.6157
  126OSM    C5S13369  -0.131   3.544   2.689  0.2132  0.1071  0.2529
  126OSM    H5S13370  -0.175   3.618   2.621 -1.7388 -1.9600 -0.8836
  126OSM    C6S13371  -0.150   3.545   2.844  0.5242  0.1859 -0.1094
  126OSM    H6S13372  -0.259   3.553   2.864  0.0291 -0.1464 -2.4032
  126OSM    H6T13373  -0.115   3.642   2.884 -1.2215  0.6314  0.4024
  126OSM    C7S13374  -0.099   3.422   2.924  0.4101 -1.0996  0.0268
  126OSM    H7S13375   0.012   3.421   2.925  0.4251 -2.6271 -0.5320
  126OSM    H7T13376  -0.141   3.329   2.880  1.4812 -1.5368 -0.1097
  126OSM    C8S13377  -0.148   3.424   3.074 -0.3222  0.0969  0.1434
  126OSM    H8S13378  -0.257   3.409   3.086 -0.9112  2.7358 -1.2550
  126OSM    H8T13379  -0.121   3.523   3.118  0.7022 -0.9744  2.1156
  126OSM    C9S13380  -0.073   3.318   3.150 -0.2950  0.2824 -0.1314
  126OSM    H9S13381   0.032   3.325   3.116 -1.0103  0.5025 -2.4969
  126OSM    H9T13382  -0.103   3.216   3.117  1.6679 -0.5068  0.4157
  126OSM   C10S13383  -0.075   3.330   3.301 -0.3987  0.4871 -0.1087
  126OSM   H10S13384  -0.055   3.434   3.333 -0.5054 -0.0554  1.8060
  126OSM   H10T13385   0.003   3.265   3.346 -0.5589 -0.2012 -0.8061
  126OSM   C11S13386  -0.209   3.265   3.359  0.1205 -0.0548  0.0109
  126OSM   H11S13387  -0.234   3.171   3.305  1.2929 -1.1035  1.2020
  126OSM   H11T13388  -0.293   3.334   3.337 -0.1659 -0.8903 -1.6893
  126OSM   C12S13389  -0.200   3.254   3.510 -0.4029  0.4428  0.3170
  126OSM   H12S13390  -0.176   3.357   3.545  0.8820  0.1838  0.2363
  126OSM   H12T13391  -0.117   3.183   3.529 -1.1799 -0.4298  0.5287
  126OSM   C13S13392  -0.326   3.209   3.594  0.4739  0.1559 -0.2677
  126OSM   H13S13393  -0.355   3.108   3.560 -1.6832  0.3277  0.8794
  126OSM   H13T13394  -0.414   3.272   3.568  0.0977 -1.0716 -2.1227
  126OSM   C14S13395  -0.306   3.218   3.751  0.4784 -0.5128 -0.0626
  126OSM   H14S13396  -0.295   3.325   3.776  0.0317  0.1325 -2.3721
  126OSM   H14T13397  -0.215   3.156   3.768  0.2319 -0.9519 -0.3170
  126OSM   C15S13398  -0.414   3.155   3.839  0.4020 -0.1372  0.5466
  126OSM   H15S13399  -0.444   3.055   3.801 -3.0609  0.9212  0.1032
  126OSM   H15T13400  -0.506   3.217   3.825  1.7245  1.4095 -2.0645
  126OSM   C16S13401  -0.392   3.149   3.993 -0.6386 -0.0616 -0.3347
  126OSM   H16S13402  -0.390   3.259   4.011  0.7057  0.1474 -1.5830
  126OSM   H16T13403  -0.290   3.113   4.017 -0.0188  2.4083  1.1950
  126OSM   C17S13404  -0.499   3.068   4.067 -0.8923  0.0131  0.4153
  126OSM   H17S13405  -0.600   3.104   4.038 -0.0564  2.1008 -0.0695
  126OSM   H17T13406  -0.485   3.082   4.176  2.9420 -2.1940  0.3731
  126OSM   C18S13407  -0.489   2.921   4.049  0.6050  0.1938 -0.4106
  126OSM   H18S13408  -0.391   2.881   4.085  0.3218 -0.6286 -0.5173
  126OSM   H18T13409  -0.488   2.902   3.939 -1.0573  1.1010 -0.6031
  126OSM   H18U13410  -0.580   2.868   4.083 -2.6319  1.0327 -6.4454
  126OSM    C1F13411   0.299   3.603   2.493  0.4855 -0.1952  0.6657
  126OSM     OF13412   0.289   3.699   2.414  0.1476 -0.3212  0.6568
  126OSM    C2F13413   0.419   3.577   2.578  0.1412 -0.5057 -0.2825
  126OSM    H2F13414   0.436   3.659   2.651  2.0845 -2.6679  1.8412
  126OSM    H2G13415   0.504   3.582   2.507 -0.0905 -0.7355 -0.5775
  126OSM    C3F13416   0.415   3.453   2.669 -0.4232 -0.6830  0.6957
  126OSM    H3F13417   0.390   3.368   2.603 -0.0689 -0.8516  0.7752
  126OSM    H3G13418   0.341   3.463   2.752 -0.5492 -2.7284  0.8755
  126OSM    C4F13419   0.554   3.431   2.743  0.2221 -0.4036 -0.3208
  126OSM    H4F13420   0.558   3.508   2.823  3.5312  0.0874 -0.8113
  126OSM    H4G13421   0.624   3.451   2.659  0.4392  3.7988  0.6312
  126OSM    C5F13422   0.576   3.286   2.794 -0.1657 -0.0015  0.6548
  126OSM    H5F13423   0.676   3.247   2.821  0.3843  1.0357  0.1683
  126OSM    H5G13424   0.534   3.226   2.710 -1.4059  1.2729  0.3131
  126OSM    C6F13425   0.496   3.274   2.929  0.2788 -0.5951  0.8582
  126OSM    H6F13426   0.483   3.167   2.957 -0.9388 -0.1600  2.0744
  126OSM    H6G13427   0.391   3.296   2.900  0.6840 -1.1156 -1.1546
  126OSM    C7F13428   0.545   3.336   3.063 -0.2989  0.0178  0.5333
  126OSM    H7F13429   0.579   3.438   3.033  0.3687 -0.5978 -0.8827
  126OSM    H7G13430   0.640   3.281   3.083  1.7734  2.9026 -0.6071
  126OSM    C8F13431   0.455   3.353   3.187 -0.3928  0.4020 -1.1963
  126OSM    H8F13432   0.376   3.423   3.155 -1.5929 -1.3453 -2.1859
  126OSM    H8G13433   0.521   3.396   3.266 -0.3298 -2.2921  0.3744
  126OSM    C9F13434   0.388   3.225   3.229 -0.5897 -0.2028 -0.3530
  126OSM    H9F13435   0.392   3.143   3.156 -0.6200 -1.0221  0.5384
  126OSM   C10F13436   0.327   3.209   3.349 -0.1483 -0.3237 -0.0174
  126OSM   H10F13437   0.292   3.107   3.368 -0.0987 -0.5730 -1.1857
  126OSM   C11F13438   0.306   3.313   3.458  0.3443  0.4252  0.3520
  126OSM   H11F13439   0.197   3.312   3.480  0.4738 -0.4807  1.0398
  126OSM   H11G13440   0.357   3.406   3.427  2.5860 -0.9918 -0.4707
  126OSM   C12F13441   0.389   3.271   3.577 -0.4098 -0.3911 -0.3368
  126OSM   H12F13442   0.496   3.254   3.549 -0.4142  1.1546 -1.3954
  126OSM   H12G13443   0.355   3.173   3.618 -0.9693  0.1640  0.5394
  126OSM   C13F13444   0.370   3.368   3.695 -0.1942 -0.3334 -0.2444
  126OSM   H13F13445   0.345   3.469   3.655  0.4373 -0.2757 -0.4962
  126OSM   H13G13446   0.445   3.372   3.776 -1.3847 -0.4579  0.9065
  126OSM   C14F13447   0.249   3.330   3.781  0.2032  0.4408  0.2655
  126OSM   H14F13448   0.263   3.253   3.860  0.4620  0.7308  0.5011
  126OSM   H14G13449   0.168   3.307   3.708  3.2976 -0.1843 -3.2993
  126OSM   C15F13450   0.197   3.447   3.870 -0.0896  0.4211  0.1316
  126OSM   H15F13451   0.143   3.515   3.801 -3.8673 -1.3021  1.1545
  126OSM   H15G13452   0.281   3.509   3.908 -1.5306  2.4382  0.1592
  126OSM   C16F13453   0.116   3.415   3.994 -0.4966 -0.4491  0.4709
  126OSM   H16F13454   0.023   3.358   3.973 -0.2104 -1.2140  1.2273
  126OSM   H16G13455   0.082   3.505   4.050 -1.2097  0.2442 -0.9999
  126OSM   C17F13456   0.197   3.348   4.110  0.2104  0.5960  0.7762
  126OSM   H17F13457   0.291   3.402   4.138  3.4012 -4.0384  0.1242
  126OSM   H17G13458   0.221   3.249   4.065  0.0014  0.7382  0.3425
  126OSM   C18F13459   0.115   3.331   4.243 -1.0506 -0.0117 -0.1731
  126OSM   H18F13460   0.183   3.288   4.320  1.0544 -1.9310 -2.8826
  126OSM   H18G13461   0.035   3.255   4.229  0.9138 -2.4249  0.8799
  126OSM   H18H13462   0.073   3.428   4.276 -1.5210 -0.3133  0.1144
  127OSM      N13463   6.612   3.991   2.078 -0.6247  0.1822  0.2827
  127OSM    C1513464   6.549   3.951   1.949 -0.3220  0.0718 -0.4651
  127OSM   H15A13465   6.617   3.896   1.886 -0.4222  0.8231 -1.2479
  127OSM   H15B13466   6.519   4.031   1.884 -1.8537  1.2947  1.6200
  127OSM   H15C13467   6.468   3.880   1.964 -0.4188  0.4162  0.7736
  127OSM    C1413468   6.654   3.869   2.156 -0.6820 -0.2812 -0.8030
  127OSM   H14A13469   6.730   3.807   2.109  0.2471 -1.5227  2.1181
  127OSM   H14B13470   6.573   3.805   2.187 -1.9294  2.5028  2.1350
  127OSM   H14C13471   6.692   3.892   2.254 -1.3733 -3.5953  0.3771
  127OSM    C1313472   6.728   4.078   2.035 -0.4265  0.1476  0.6716
  127OSM   H13A13473   6.762   4.042   1.939 -1.2759  0.0731  0.3832
  127OSM   H13B13474   6.807   4.064   2.106 -0.4860 -4.2818  0.1107
  127OSM   H13C13475   6.694   4.181   2.043  0.0530  0.3878 -0.2895
  127OSM    C1213476   6.515   4.069   2.162  0.5671 -0.8883 -0.2532
  127OSM   H12A13477   6.560   4.100   2.256  2.5420  2.5788 -2.1208
  127OSM   H12B13478   6.425   4.011   2.175 -0.7405  0.7730 -1.4953
  127OSM    C1113479   6.459   4.199   2.111 -0.1275  0.8019  0.5872
  127OSM   H11A13480   6.360   4.230   2.150  0.3946 -0.0316  2.6880
  127OSM   H11B13481   6.446   4.194   2.000  0.7749 -1.6496  0.5334
  127OSM      P13482   6.554   4.440   2.072 -0.3677 -0.9566  0.0237
  127OSM    O1313483   6.693   4.487   2.082  0.0797  0.0794  0.4926
  127OSM    O1413484   6.507   4.437   1.931  0.5876  0.9631 -0.7192
  127OSM    O1113485   6.463   4.537   2.156  0.1049  0.2436  0.4534
  127OSM    O1213486   6.549   4.302   2.142 -0.2611 -0.1509  0.1200
  127OSM    C1S13487   6.498   4.561   2.294  0.6456 -0.2629  0.8675
  127OSM    H1S13488   6.512   4.472   2.358  0.6664 -0.5197  0.5124
  127OSM    H1T13489   6.412   4.612   2.344 -0.5284 -0.1443 -1.1250
  127OSM     NF13490   6.607   4.691   2.471 -0.0930 -0.2286 -0.0232
  127OSM    HNF13491   6.555   4.772   2.497  0.6486  0.1270  0.3792
  127OSM    C2S13492   6.613   4.662   2.327  0.9714 -0.8585  0.0270
  127OSM    H2S13493   6.711   4.612   2.313  0.4898 -1.2341 -2.3958
  127OSM    C3S13494   6.606   4.789   2.233 -0.3480  0.7749  0.3143
  127OSM    H3S13495   6.503   4.828   2.239 -0.2143  1.6825 -2.2563
  127OSM     O313496   6.627   4.763   2.096  0.5746  0.2309  0.3924
  127OSM    HO313497   6.663   4.674   2.097 -0.7897 -0.3503 -0.1504
  127OSM    C4S13498   6.705   4.895   2.293 -0.1573  0.3184 -0.9202
  127OSM    H4S13499   6.662   4.934   2.387 -0.5752 -0.5221 -0.7496
  127OSM    C5S13500   6.830   4.936   2.260  0.0502  0.5220  0.4979
  127OSM    H5S13501   6.877   4.887   2.174  2.5591  0.5326  1.7666
  127OSM    C6S13502   6.912   5.041   2.329 -0.4190 -0.7878 -0.1991
  127OSM    H6S13503   6.902   5.137   2.273  0.6133 -0.4670  0.1539
  127OSM    H6T13504   7.020   5.020   2.316 -0.3102  0.0317 -0.6997
  127OSM    C7S13505   6.886   5.064   2.479 -0.6765 -0.0129 -0.1901
  127OSM    H7S13506   6.779   5.083   2.504 -0.4008  0.3961  0.7336
  127OSM    H7T13507   6.945   5.152   2.512  0.2676 -0.2826 -1.1297
  127OSM    C8S13508   6.937   4.945   2.559  0.6017  0.6242  0.0622
  127OSM    H8S13509   7.047   4.958   2.563  0.4044  2.7345 -0.2282
  127OSM    H8T13510   6.918   4.844   2.517  2.6053 -0.1898  1.0352
  127OSM    C9S13511   6.867   4.934   2.699 -0.0340 -0.7986  0.0408
  127OSM    H9S13512   6.763   4.899   2.685  0.0948 -0.6527 -1.4329
  127OSM    H9T13513   6.863   5.034   2.747  0.3941 -0.3412 -0.8367
  127OSM   C10S13514   6.941   4.833   2.790  0.1710  0.7685  0.3316
  127OSM   H10S13515   7.049   4.843   2.764  0.9876 -0.9538  2.6479
  127OSM   H10T13516   6.924   4.730   2.752  0.8457  1.0938 -0.9235
  127OSM   C11S13517   6.911   4.847   2.938  0.1735 -0.3818  0.2866
  127OSM   H11S13518   6.801   4.831   2.935  0.1878 -0.2683 -1.9283
  127OSM   H11T13519   6.929   4.948   2.981 -1.2663  0.6699 -1.4541
  127OSM   C12S13520   6.964   4.735   3.026 -0.1316 -0.1248  0.0802
  127OSM   H12S13521   7.072   4.724   3.006 -0.0269  0.7036  0.1541
  127OSM   H12T13522   6.916   4.638   3.001 -2.4414  0.9856 -0.1026
  127OSM   C13S13523   6.940   4.767   3.174  0.1219  0.3486  0.3698
  127OSM   H13S13524   6.832   4.749   3.192 -0.5210 -0.7604 -3.6467
  127OSM   H13T13525   6.971   4.868   3.207  2.1076 -1.1505  3.6988
  127OSM   C14S13526   7.022   4.678   3.266  0.3800  0.5270  0.7424
  127OSM   H14S13527   7.131   4.674   3.246  0.8105  1.2107  2.6959
  127OSM   H14T13528   6.972   4.580   3.248 -0.1057  1.0693 -1.0348
  127OSM   C15S13529   6.997   4.715   3.417 -0.1300 -0.6954  0.1917
  127OSM   H15S13530   6.891   4.695   3.445 -0.3235 -0.4860 -0.3601
  127OSM   H15T13531   7.013   4.823   3.438 -1.7110 -1.0715  4.1947
  127OSM   C16S13532   7.096   4.635   3.506 -0.0267  0.6641 -0.1449
  127OSM   H16S13533   7.195   4.679   3.480  0.7102 -0.5572  0.5274
  127OSM   H16T13534   7.112   4.529   3.479 -0.1015  0.0153  2.1387
  127OSM   C17S13535   7.071   4.653   3.657  0.1967  0.4865  0.4995
  127OSM   H17S13536   6.968   4.623   3.687  0.2348  0.2710  0.4147
  127OSM   H17T13537   7.053   4.761   3.676  0.5751  0.3394  1.7421
  127OSM   C18S13538   7.187   4.611   3.750  0.2888  0.0011  0.0340
  127OSM   H18S13539   7.162   4.631   3.857  0.4908 -1.4090  0.3642
  127OSM   H18T13540   7.292   4.642   3.729  0.4975  0.4702  1.5974
  127OSM   H18U13541   7.185   4.500   3.746  0.7092 -0.0325  0.6500
  127OSM    C1F13542   6.647   4.599   2.564  0.3859 -0.6896  0.6006
  127OSM     OF13543   6.704   4.497   2.526 -0.5161 -1.0172 -0.5846
  127OSM    C2F13544   6.609   4.634   2.707 -0.1035 -0.1677 -0.2120
  127OSM    H2F13545   6.510   4.586   2.718 -0.5429  0.2597 -1.9881
  127OSM    H2G13546   6.631   4.735   2.746  2.3883 -0.9336  0.5836
  127OSM    C3F13547   6.687   4.533   2.803 -0.4827  0.9590 -0.1727
  127OSM    H3F13548   6.794   4.562   2.809 -0.4397  0.9214 -0.6786
  127OSM    H3G13549   6.681   4.429   2.764  0.3906  0.7654  0.2008
  127OSM    C4F13550   6.628   4.532   2.944  0.2100  0.1757  0.4372
  127OSM    H4F13551   6.525   4.502   2.916 -0.1954  2.8307 -1.2317
  127OSM    H4G13552   6.636   4.636   2.984  2.2602  0.3603 -0.3359
  127OSM    C5F13553   6.703   4.433   3.041 -0.0646 -0.0242  0.4345
  127OSM    H5F13554   6.800   4.485   3.057 -1.1799  2.7802 -1.1901
  127OSM    H5G13555   6.732   4.336   2.995  2.1213  0.1506  1.3291
  127OSM    C6F13556   6.636   4.393   3.172  0.4886 -0.1761 -0.3142
  127OSM    H6F13557   6.721   4.351   3.230  0.2853 -0.5586 -0.2912
  127OSM    H6G13558   6.562   4.311   3.157 -0.7453  0.8183  0.1994
  127OSM    C7F13559   6.571   4.516   3.238 -0.1984  0.0331  0.3318
  127OSM    H7F13560   6.486   4.556   3.180  0.7791  0.7388 -0.6643
  127OSM    H7G13561   6.646   4.598   3.230  0.6045 -0.7474 -0.3930
  127OSM    C8F13562   6.516   4.490   3.382  0.4983 -0.4168 -0.0773
  127OSM    H8F13563   6.436   4.413   3.378 -0.1104  0.1394  0.8534
  127OSM    H8G13564   6.470   4.589   3.405  0.2652 -0.7660  1.0630
  127OSM    C9F13565   6.599   4.447   3.496 -0.7236 -0.4005  0.4598
  127OSM    H9F13566   6.657   4.358   3.468  0.5745  0.3055  0.8107
  127OSM   C10F13567   6.621   4.502   3.614 -0.2390  0.0827 -0.0128
  127OSM   H10F13568   6.685   4.449   3.685 -0.4580 -2.6175 -1.6878
  127OSM   C11F13569   6.541   4.614   3.675 -0.5451  0.0114 -0.4561
  127OSM   H11F13570   6.455   4.639   3.609 -1.8144 -2.0705  0.3264
  127OSM   H11G13571   6.600   4.705   3.698 -0.6990 -0.5262  2.4512
  127OSM   C12F13572   6.488   4.566   3.810  0.2352 -0.3339  0.6636
  127OSM   H12F13573   6.581   4.562   3.870  2.0821  0.0487 -1.9728
  127OSM   H12G13574   6.449   4.462   3.810  2.6889 -1.3739 -1.4294
  127OSM   C13F13575   6.397   4.668   3.880 -0.4362 -0.5297  0.2729
  127OSM   H13F13576   6.310   4.687   3.813  0.4593  1.1008 -0.4933
  127OSM   H13G13577   6.449   4.766   3.891 -0.4174 -0.6344  1.1720
  127OSM   C14F13578   6.361   4.614   4.022 -0.8844  0.1864 -1.0015
  127OSM   H14F13579   6.459   4.613   4.074 -1.7780  1.3016  0.7961
  127OSM   H14G13580   6.316   4.513   4.023 -2.1048  0.6643  2.3996
  127OSM   C15F13581   6.264   4.710   4.083  0.0683  0.6956 -0.5955
  127OSM   H15F13582   6.181   4.729   4.012 -0.1141  1.0115 -0.2992
  127OSM   H15G13583   6.309   4.807   4.114 -4.1695  2.3940  0.9333
  127OSM   C16F13584   6.202   4.646   4.210  0.1480 -0.2544 -0.3312
  127OSM   H16F13585   6.147   4.552   4.183 -1.2435 -0.0034  1.3980
  127OSM   H16G13586   6.133   4.718   4.260 -0.2357  0.2667 -1.5794
  127OSM   C17F13587   6.311   4.612   4.313  0.2019 -0.0420 -0.1805
  127OSM   H17F13588   6.390   4.550   4.265  0.1090 -1.1136  1.0010
  127OSM   H17G13589   6.273   4.560   4.403  1.7181 -1.1207 -0.1219
  127OSM   C18F13590   6.372   4.742   4.371  0.0082  0.4439  0.2984
  127OSM   H18F13591   6.418   4.794   4.284  0.5808 -0.8581 -0.2111
  127OSM   H18G13592   6.445   4.713   4.450 -0.5117 -1.3068  0.1748
  127OSM   H18H13593   6.293   4.810   4.408  0.4162  0.9445  0.2671
  128OSM      N13594   6.153   1.316   2.032 -0.7858 -0.3553  0.5122
  128OSM    C1513595   6.191   1.249   1.906 -0.4572 -0.0775  0.2891
  128OSM   H15A13596   6.252   1.162   1.924  1.2677  0.4463 -2.4483
  128OSM   H15B13597   6.250   1.317   1.846 -1.1895 -0.1638 -0.5531
  128OSM   H15C13598   6.108   1.209   1.849  0.4310 -0.1568 -0.9789
  128OSM    C1413599   6.087   1.447   1.995  0.6070 -0.5709  0.6712
  128OSM   H14A13600   6.018   1.445   1.912 -0.7610 -1.9536  1.7845
  128OSM   H14B13601   6.163   1.520   1.973 -0.5915  0.9530  1.3668
  128OSM   H14C13602   6.034   1.491   2.078 -1.2330  0.1631 -0.8251
  128OSM    C1313603   6.040   1.250   2.108 -0.1042 -0.3020 -0.3005
  128OSM   H13A13604   6.020   1.307   2.197  0.6577 -1.7317  0.8233
  128OSM   H13B13605   6.065   1.150   2.139 -3.0047 -0.5118  1.8133
  128OSM   H13C13606   5.943   1.250   2.059 -0.4701 -1.5465  0.3750
  128OSM    C1213607   6.273   1.335   2.125  0.7048 -0.5082  0.0124
  128OSM   H12A13608   6.311   1.241   2.162 -2.4996 -2.1148 -0.4186
  128OSM   H12B13609   6.245   1.386   2.216  2.2532  0.7984 -0.2035
  128OSM    C1113610   6.389   1.415   2.068  0.1659  0.0734 -0.0298
  128OSM   H11A13611   6.403   1.392   1.960 -1.4627  1.5164 -0.6092
  128OSM   H11B13612   6.474   1.376   2.128 -0.8351  0.8259  1.9664
  128OSM      P13613   6.477   1.650   2.132 -0.1253 -0.4069  0.1614
  128OSM    O1313614   6.612   1.611   2.098 -0.4116  0.5505 -0.5032
  128OSM    O1413615   6.441   1.793   2.104 -0.3284  0.2158  0.1788
  128OSM    O1113616   6.458   1.625   2.279  0.0071  0.5994 -0.0094
  128OSM    O1213617   6.363   1.555   2.076  0.0613 -0.7763  0.6055
  128OSM    C1S13618   6.339   1.667   2.341  0.0014 -0.1477  0.4654
  128OSM    H1S13619   6.258   1.592   2.334 -0.9862  0.9333 -0.0225
  128OSM    H1T13620   6.301   1.761   2.296 -1.1141 -0.3785  0.9006
  128OSM     NF13621   6.267   1.791   2.535  0.4070  0.5696 -0.1735
  128OSM    HNF13622   6.292   1.885   2.558 -1.2020  1.2834 -1.1543
  128OSM    C2S13623   6.364   1.692   2.488  0.3937  0.6850 -0.1850
  128OSM    H2S13624   6.344   1.595   2.539  1.4282  0.9684  0.8001
  128OSM    C3S13625   6.503   1.735   2.530 -1.4211 -0.2294  0.3844
  128OSM    H3S13626   6.531   1.833   2.486 -2.8965  1.3433  2.7004
  128OSM     O313627   6.606   1.641   2.497 -0.3650  0.3623 -0.3393
  128OSM    HO313628   6.574   1.588   2.424 -0.3886  0.0904 -0.1308
  128OSM    C4S13629   6.505   1.761   2.679  0.0241  0.3935 -0.0843
  128OSM    H4S13630   6.465   1.859   2.709  0.3003  0.0759  1.3980
  128OSM    C5S13631   6.544   1.684   2.777  0.0928 -0.0754  0.0347
  128OSM    H5S13632   6.571   1.578   2.763 -0.9591 -0.5197  1.1058
  128OSM    C6S13633   6.540   1.721   2.931  0.0422  1.0999  0.6441
  128OSM    H6S13634   6.507   1.630   2.985 -0.8855  0.5845 -0.7528
  128OSM    H6T13635   6.456   1.791   2.951  0.1817  1.5546 -0.3105
  128OSM    C7S13636   6.673   1.775   2.965 -0.1149  0.6654 -0.5851
  128OSM    H7S13637   6.670   1.875   2.917 -0.3918 -0.0892 -2.1926
  128OSM    H7T13638   6.756   1.718   2.918 -0.5133  1.0611 -1.7906
  128OSM    C8S13639   6.696   1.784   3.122  0.0560  0.2757 -0.1119
  128OSM    H8S13640   6.602   1.818   3.169 -0.0001  0.8034 -0.5882
  128OSM    H8T13641   6.783   1.850   3.147 -0.3462 -0.0492  2.3726
  128OSM    C9S13642   6.734   1.642   3.191 -1.1037 -0.2741  0.3891
  128OSM    H9S13643   6.804   1.580   3.131 -1.5001 -0.8729  0.5434
  128OSM    H9T13644   6.638   1.586   3.184 -1.8444  1.1457 -1.9974
  128OSM   C10S13645   6.780   1.654   3.331 -0.2395  0.8799 -0.0999
  128OSM   H10S13646   6.886   1.687   3.323 -0.5316  2.3132  1.4379
  128OSM   H10T13647   6.773   1.551   3.373 -1.4709  1.2138  0.5395
  128OSM   C11S13648   6.705   1.741   3.430 -0.6089  0.1755  0.4502
  128OSM   H11S13649   6.597   1.716   3.427 -0.4335 -0.5002 -1.9719
  128OSM   H11T13650   6.711   1.847   3.397  1.6236  0.5093  1.7466
  128OSM   C12S13651   6.766   1.737   3.580  0.8176 -0.3450 -0.2946
  128OSM   H12S13652   6.872   1.769   3.573  0.7642 -0.2931 -0.9713
  128OSM   H12T13653   6.766   1.637   3.629  0.5908  0.1751  0.8051
  128OSM   C13S13654   6.697   1.851   3.662 -0.5021 -0.1932 -0.0895
  128OSM   H13S13655   6.591   1.858   3.629 -0.7671 -0.6530  0.6536
  128OSM   H13T13656   6.758   1.944   3.658 -2.7330  1.3486  0.1007
  128OSM   C14S13657   6.683   1.807   3.811 -0.3276 -0.1986 -0.2801
  128OSM   H14S13658   6.655   1.895   3.871 -0.2632 -1.8501  2.3286
  128OSM   H14T13659   6.787   1.782   3.841  0.3842 -2.1122 -3.7237
  128OSM   C15S13660   6.581   1.696   3.827  0.5359 -0.2002  0.5145
  128OSM   H15S13661   6.623   1.597   3.799  1.8582  0.2652  0.7908
  128OSM   H15T13662   6.490   1.714   3.766  0.2374 -3.0997 -0.0302
  128OSM   C16S13663   6.536   1.682   3.974 -0.2938 -0.0802  0.0206
  128OSM   H16S13664   6.468   1.594   3.969 -1.3346  0.6686  0.6222
  128OSM   H16T13665   6.493   1.779   4.008  0.3084  1.1670 -2.5312
  128OSM   C17S13666   6.653   1.648   4.069 -0.7528  0.1914  0.1514
  128OSM   H17S13667   6.739   1.716   4.049 -0.7848  0.4956  1.0123
  128OSM   H17T13668   6.681   1.548   4.030 -0.4324  0.2681  0.1837
  128OSM   C18S13669   6.617   1.641   4.216 -0.2746 -0.3824  0.0214
  128OSM   H18S13670   6.636   1.746   4.248  1.6120 -0.5080 -0.5467
  128OSM   H18T13671   6.681   1.566   4.269  0.8356  0.0888 -0.6294
  128OSM   H18U13672   6.512   1.606   4.226 -0.2911 -0.1097  0.8958
  128OSM    C1F13673   6.133   1.770   2.543  0.2308  0.2265 -0.3517
  128OSM     OF13674   6.071   1.664   2.543  0.2356 -0.1841 -0.2402
  128OSM    C2F13675   6.054   1.898   2.542  0.4616  0.0195  0.4688
  128OSM    H2F13676   5.952   1.869   2.507 -0.7724  1.6181  2.5153
  128OSM    H2G13677   6.092   1.974   2.470 -1.8816 -0.3964 -1.3392
  128OSM    C3F13678   6.040   1.956   2.681  0.5383  0.1513  0.0404
  128OSM    H3F13679   5.972   2.044   2.677  0.4409  0.0269 -2.6184
  128OSM    H3G13680   6.132   2.005   2.719  1.0237  0.1388 -1.1114
  128OSM    C4F13681   5.987   1.860   2.789  0.4804  0.1598 -0.1024
  128OSM    H4F13682   6.048   1.768   2.797 -0.1882 -0.3757 -1.0284
  128OSM    H4G13683   5.890   1.815   2.761  1.7302 -3.5687  0.9795
  128OSM    C5F13684   5.966   1.925   2.927 -0.3032  0.1864 -0.4975
  128OSM    H5F13685   5.925   2.028   2.923  3.0295  1.6767  0.3669
  128OSM    H5G13686   6.066   1.943   2.972 -0.0360 -2.0758 -0.0242
  128OSM    C6F13687   5.878   1.845   3.030 -0.1088 -0.0370  0.1502
  128OSM    H6F13688   5.899   1.886   3.131 -1.0817  3.4616 -0.9487
  128OSM    H6G13689   5.920   1.743   3.017 -1.4556 -0.5588 -0.2776
  128OSM    C7F13690   5.730   1.850   2.980 -0.1197 -0.3122 -0.5262
  128OSM    H7F13691   5.720   1.800   2.881 -0.6321 -1.8041  0.2416
  128OSM    H7G13692   5.709   1.959   2.983  2.7338  0.2993  0.8160
  128OSM    C8F13693   5.634   1.771   3.081 -0.2658  0.0822  0.9924
  128OSM    H8F13694   5.665   1.665   3.090 -1.0373 -0.0934  1.7824
  128OSM    H8G13695   5.533   1.774   3.034  0.1943 -0.1548 -0.0182
  128OSM    C9F13696   5.624   1.825   3.218  0.4118 -0.6028 -0.5535
  128OSM    H9F13697   5.572   1.920   3.233  1.0695 -0.5236  1.5176
  128OSM   C10F13698   5.669   1.747   3.321 -0.2420 -0.8322  0.0897
  128OSM   H10F13699   5.663   1.799   3.418  0.4537 -0.0141 -0.2888
  128OSM   C11F13700   5.728   1.617   3.329 -0.2415  0.1975  0.0893
  128OSM   H11F13701   5.735   1.563   3.232  1.0595 -0.8015  0.7067
  128OSM   H11G13702   5.665   1.553   3.395 -0.8579  2.3842  1.7100
  128OSM   C12F13703   5.867   1.612   3.397  0.3396 -0.9834 -0.1329
  128OSM   H12F13704   5.925   1.700   3.362 -0.7388 -0.7249 -1.3586
  128OSM   H12G13705   5.930   1.525   3.370 -0.3460 -1.2886 -0.7915
  128OSM   C13F13706   5.868   1.619   3.555 -0.5313 -0.3239 -0.1026
  128OSM   H13F13707   5.797   1.537   3.582 -0.1137 -0.5557  0.3016
  128OSM   H13G13708   5.831   1.716   3.594 -1.2200 -0.6606  0.1036
  128OSM   C14F13709   5.998   1.584   3.617  0.0717 -0.0313  0.1170
  128OSM   H14F13710   6.067   1.664   3.580 -1.2415  1.1154  0.0771
  128OSM   H14G13711   6.036   1.489   3.575 -0.4597 -1.0226  1.8117
  128OSM   C15F13712   5.999   1.574   3.775 -0.3357  0.6616  0.6685
  128OSM   H15F13713   5.892   1.568   3.802 -0.3401  0.7102  0.6639
  128OSM   H15G13714   6.038   1.669   3.818  1.3874  0.0423  0.5810
  128OSM   C16F13715   6.088   1.457   3.829 -0.2676 -0.6933 -0.4985
  128OSM   H16F13716   6.194   1.490   3.819 -0.4426  0.8895  1.9143
  128OSM   H16G13717   6.076   1.368   3.764 -2.7094 -0.0101 -1.0523
  128OSM   C17F13718   6.058   1.434   3.973 -0.3714 -0.4172 -0.7264
  128OSM   H17F13719   5.957   1.386   3.975 -0.6055 -0.0341 -2.1536
  128OSM   H17G13720   6.059   1.531   4.027 -0.7204 -1.6655  1.6862
  128OSM   C18F13721   6.152   1.331   4.034 -0.4796  0.3227 -0.8646
  128OSM   H18F13722   6.114   1.305   4.135 -1.2657 -2.2405 -1.7417
  128OSM   H18G13723   6.257   1.367   4.032 -0.9653  2.2145  1.8633
  128OSM   H18H13724   6.145   1.239   3.973  1.8210 -0.8668  0.5042
  129OSM      N13725   0.810   1.598   2.105  1.0199 -0.0268  0.2468
  129OSM    C1513726   0.924   1.589   2.007  0.4453 -0.6055 -0.8855
  129OSM   H15A13727   0.966   1.489   2.012  0.6437 -0.5548 -1.4630
  129OSM   H15B13728   0.998   1.665   2.029 -2.4060  2.0432  0.1425
  129OSM   H15C13729   0.894   1.605   1.905  0.8478  0.7547 -0.8066
  129OSM    C1413730   0.710   1.486   2.078 -0.5807  0.1580  0.0907
  129OSM   H14A13731   0.653   1.507   1.989 -0.4526  0.7185  0.1368
  129OSM   H14B13732   0.634   1.492   2.155 -1.5595  1.3743 -0.9194
  129OSM   H14C13733   0.750   1.386   2.080 -1.1114 -0.0485  1.6620
  129OSM    C1313734   0.869   1.577   2.243  0.1782 -0.4027 -0.0881
  129OSM   H13A13735   0.933   1.489   2.247  1.0329  0.2257  3.4814
  129OSM   H13B13736   0.798   1.555   2.321  1.0543 -1.8215  0.3472
  129OSM   H13C13737   0.925   1.666   2.267 -2.3294  1.1588  0.2688
  129OSM    C1213738   0.745   1.738   2.100 -0.4710  0.2170 -0.0364
  129OSM   H12A13739   0.718   1.759   1.998 -0.3374 -1.7266 -0.5287
  129OSM   H12B13740   0.818   1.814   2.122  0.1801 -0.4893  0.3065
  129OSM    C1113741   0.626   1.769   2.200  1.0929  0.0827  0.1511
  129OSM   H11A13742   0.596   1.876   2.202  1.2111  0.1055  0.6810
  129OSM   H11B13743   0.664   1.745   2.301  4.4678  2.0939 -0.4955
  129OSM      P13744   0.422   1.713   2.058  0.1783  0.0968  0.3542
  129OSM    O1313745   0.497   1.798   1.965  0.4740 -0.2169  0.3218
  129OSM    O1413746   0.369   1.592   2.000 -0.2223 -0.2007 -0.1417
  129OSM    O1113747   0.314   1.791   2.128 -0.1885 -0.9649  0.3241
  129OSM    O1213748   0.512   1.696   2.168 -0.1099 -0.5996 -0.1323
  129OSM    C1S13749   0.224   1.733   2.233  0.0858  0.2886  0.3185
  129OSM    H1S13750   0.203   1.626   2.210 -0.4827  0.4601  0.0159
  129OSM    H1T13751   0.134   1.798   2.235  0.2847  0.6628 -1.4215
  129OSM     NF13752   0.191   1.663   2.465 -1.0334  0.0447 -0.3384
  129OSM    HNF13753   0.105   1.708   2.488  0.6943  2.7226  1.6140
  129OSM    C2S13754   0.279   1.739   2.383 -0.5139 -0.0718  0.6110
  129OSM    H2S13755   0.375   1.683   2.385  0.0738  0.9297  0.9081
  129OSM    C3S13756   0.297   1.887   2.422  0.0330  0.3000  0.9226
  129OSM    H3S13757   0.202   1.941   2.407  0.3014  0.1643 -1.5683
  129OSM     O313758   0.393   1.956   2.338 -0.1635  0.1445 -0.8847
  129OSM    HO313759   0.401   1.905   2.257 -0.5225  1.0950 -1.5243
  129OSM    C4S13760   0.336   1.905   2.565 -0.0287 -0.4301  0.2912
  129OSM    H4S13761   0.441   1.881   2.590 -0.1835 -1.1567  0.2610
  129OSM    C5S13762   0.255   1.968   2.655  0.4428 -0.1496  0.7810
  129OSM    H5S13763   0.156   2.011   2.635  0.7610  0.8350  1.2646
  129OSM    C6S13764   0.295   2.018   2.792 -0.1294 -0.1141  0.0124
  129OSM    H6S13765   0.285   2.129   2.791  2.2633  0.1873  1.5906
  129OSM    H6T13766   0.399   2.004   2.828  0.6017  1.6084 -1.2688
  129OSM    C7S13767   0.211   1.972   2.914 -0.1673 -0.1240 -0.0561
  129OSM    H7S13768   0.213   1.861   2.909  1.0390 -0.1255  0.1246
  129OSM    H7T13769   0.104   1.999   2.907 -0.1570  0.2616  1.1001
  129OSM    C8S13770   0.272   2.019   3.046  0.0636 -0.2402 -0.3862
  129OSM    H8S13771   0.237   2.125   3.053  0.0130 -0.1924 -1.2785
  129OSM    H8T13772   0.382   2.023   3.056  0.0779 -3.1203  2.3240
  129OSM    C9S13773   0.227   1.942   3.174 -0.3707 -0.2127  0.1946
  129OSM    H9S13774   0.243   1.833   3.156  1.1088  0.3320 -2.2399
  129OSM    H9T13775   0.117   1.947   3.162 -0.1867 -0.8304 -2.1312
  129OSM   C10S13776   0.265   1.997   3.309  0.5491 -0.2802  0.2218
  129OSM   H10S13777   0.241   2.105   3.318  0.3172 -0.5132  4.1153
  129OSM   H10T13778   0.372   1.995   3.336  1.2357  0.1852 -2.2229
  129OSM   C11S13779   0.180   1.932   3.414  0.4925 -0.0513 -0.2044
  129OSM   H11S13780   0.209   1.829   3.446 -1.7171 -0.0439  2.1767
  129OSM   H11T13781   0.078   1.913   3.373  1.3362 -1.6716 -1.6838
  129OSM   C12S13782   0.174   2.010   3.549  0.0520  0.4249 -0.1289
  129OSM   H12S13783   0.079   1.979   3.597  0.7426  0.8237  1.5767
  129OSM   H12T13784   0.169   2.121   3.538 -4.1448  0.2428 -1.7105
  129OSM   C13S13785   0.283   1.985   3.654 -0.1882  0.5949  0.1317
  129OSM   H13S13786   0.380   2.016   3.610 -0.7043  0.8923 -0.8354
  129OSM   H13T13787   0.316   1.882   3.680 -0.1060  0.4104 -0.6648
  129OSM   C14S13788   0.252   2.060   3.782  0.5591  0.3330  1.0068
  129OSM   H14S13789   0.161   2.027   3.836 -0.6172  2.2712  0.3103
  129OSM   H14T13790   0.227   2.160   3.741 -2.6783 -0.2327  1.3320
  129OSM   C15S13791   0.369   2.069   3.876 -0.1363  0.2788  0.0768
  129OSM   H15S13792   0.453   2.115   3.820  0.7012  0.4127  1.4012
  129OSM   H15T13793   0.397   1.963   3.896 -2.1073 -0.4421 -0.7599
  129OSM   C16S13794   0.338   2.144   4.004 -0.7456  0.2369 -0.4312
  129OSM   H16S13795   0.261   2.093   4.066 -0.8525  1.0167  0.0965
  129OSM   H16T13796   0.289   2.239   3.973 -1.8151  0.5131  1.8545
  129OSM   C17S13797   0.466   2.168   4.091  0.1433  0.2243  0.4468
  129OSM   H17S13798   0.534   2.226   4.025  0.3899  0.4877  0.9302
  129OSM   H17T13799   0.510   2.070   4.118 -1.4291 -0.1430  1.8212
  129OSM   C18S13800   0.442   2.252   4.215  0.1257  0.9964 -0.2272
  129OSM   H18S13801   0.453   2.187   4.305 -1.8818  1.7568  0.6259
  129OSM   H18T13802   0.336   2.285   4.224 -0.6568 -1.5036  0.5643
  129OSM   H18U13803   0.509   2.339   4.227  0.5444  0.4812  1.4317
  129OSM    C1F13804   0.203   1.533   2.483  0.2690 -0.0018 -0.3602
  129OSM     OF13805   0.281   1.473   2.414  0.2510 -0.1094  0.0968
  129OSM    C2F13806   0.098   1.476   2.577  0.3338  0.1035 -0.3658
  129OSM    H2F13807   0.017   1.432   2.517 -0.3047  0.5798  0.1331
  129OSM    H2G13808   0.042   1.546   2.642  0.3489 -0.9631  0.8555
  129OSM    C3F13809   0.138   1.358   2.668  0.0739  0.4154 -1.1462
  129OSM    H3F13810   0.163   1.273   2.600  1.6146  0.4079 -0.6101
  129OSM    H3G13811   0.054   1.322   2.730  2.0151 -0.0683  1.3519
  129OSM    C4F13812   0.254   1.383   2.767 -0.0835  0.3933  0.0884
  129OSM    H4F13813   0.342   1.407   2.703 -0.0451 -0.0219 -0.0153
  129OSM    H4G13814   0.263   1.282   2.812 -2.8567  0.1896  0.4023
  129OSM    C5F13815   0.224   1.484   2.870  0.0246 -0.4664 -0.1136
  129OSM    H5F13816   0.159   1.446   2.951  0.8690  2.0776  1.9213
  129OSM    H5G13817   0.182   1.577   2.826  1.3719  0.6283  0.8085
  129OSM    C6F13818   0.347   1.534   2.956  0.4862  0.4164  0.3388
  129OSM    H6F13819   0.390   1.443   3.002  0.3053 -0.1000 -0.4882
  129OSM    H6G13820   0.306   1.600   3.035 -2.4375  2.7026 -2.7748
  129OSM    C7F13821   0.461   1.608   2.889 -0.5820 -0.2264  0.5154
  129OSM    H7F13822   0.433   1.696   2.826  1.3519 -0.8165 -1.2893
  129OSM    H7G13823   0.499   1.533   2.817  0.7697  0.5932  0.3544
  129OSM    C8F13824   0.582   1.641   2.976 -1.0608 -0.1035 -0.7661
  129OSM    H8F13825   0.658   1.675   2.901  3.1728  0.7513  3.4190
  129OSM    H8G13826   0.623   1.550   3.025  0.0650 -0.0805 -1.6206
  129OSM    C9F13827   0.557   1.760   3.070  0.6337 -0.8225  0.0558
  129OSM    H9F13828   0.511   1.843   3.014  2.4062  0.4234  0.3563
  129OSM   C10F13829   0.582   1.776   3.202 -0.6040  0.2588  0.1523
  129OSM   H10F13830   0.536   1.862   3.252 -2.3677 -0.3724 -0.3271
  129OSM   C11F13831   0.648   1.673   3.291 -0.1609 -0.3358 -0.6113
  129OSM   H11F13832   0.749   1.712   3.317 -0.2418 -0.8840  0.6098
  129OSM   H11G13833   0.669   1.581   3.233 -0.2422  0.5311 -2.0852
  129OSM   C12F13834   0.576   1.633   3.424  0.3130  0.3868 -0.3490
  129OSM   H12F13835   0.595   1.527   3.449 -0.6783  0.2359 -0.2006
  129OSM   H12G13836   0.468   1.646   3.401  0.5781  2.8144 -0.4713
  129OSM   C13F13837   0.624   1.722   3.533  0.2151  0.5177  0.1438
  129OSM   H13F13838   0.546   1.726   3.612 -0.6018  1.8380 -0.6943
  129OSM   H13G13839   0.657   1.825   3.506  2.9249 -0.5738 -1.1082
  129OSM   C14F13840   0.755   1.655   3.593  0.7252  0.3663  0.5703
  129OSM   H14F13841   0.832   1.642   3.514  1.2588 -2.9989  1.4672
  129OSM   H14G13842   0.726   1.550   3.615 -0.1489 -0.1851 -2.6828
  129OSM   C15F13843   0.814   1.742   3.701  0.1141 -0.2462  0.1192
  129OSM   H15F13844   0.834   1.833   3.640  1.8443 -0.0286  0.9532
  129OSM   H15G13845   0.912   1.704   3.737  1.7853  0.9611 -2.7571
  129OSM   C16F13846   0.718   1.771   3.817  0.0971  0.5456 -0.2434
  129OSM   H16F13847   0.628   1.830   3.790 -0.5680 -0.5037 -0.3791
  129OSM   H16G13848   0.766   1.835   3.894 -0.4978  0.8259 -0.1046
  129OSM   C17F13849   0.676   1.639   3.888 -0.6428  0.0347  0.1076
  129OSM   H17F13850   0.765   1.576   3.909  0.5844  1.8474  0.5788
  129OSM   H17G13851   0.611   1.582   3.818  1.4634 -0.3026 -1.7151
  129OSM   C18F13852   0.594   1.667   4.013 -0.2785  0.3459  0.1527
  129OSM   H18F13853   0.499   1.717   3.981  0.0013 -0.1301 -1.5251
  129OSM   H18G13854   0.642   1.739   4.082 -0.6924  0.5805  0.2029
  129OSM   H18H13855   0.573   1.565   4.052  0.4818 -0.2233 -0.8543
  130OSM      N13856   2.013   4.897   1.810  0.0808  0.1877  0.3055
  130OSM    C1513857   2.131   4.816   1.774 -0.8512 -0.1151 -0.6572
  130OSM   H15A13858   2.130   4.780   1.672 -1.1547 -0.3342 -0.5782
  130OSM   H15B13859   2.119   4.734   1.843  0.5818  0.8846  0.8813
  130OSM   H15C13860   2.222   4.873   1.783 -0.7661 -0.2598 -0.5994
  130OSM    C1413861   1.979   5.010   1.718 -0.5165 -0.3187 -0.1010
  130OSM   H14A13862   1.899   5.074   1.753 -2.1022 -0.4385 -3.1350
  130OSM   H14B13863   1.962   4.969   1.619 -1.4088  0.7460 -0.4070
  130OSM   H14C13864   2.069   5.069   1.710  0.5220 -1.4233  2.3626
  130OSM    C1313865   1.904   4.798   1.825  0.2086 -0.3728  0.5281
  130OSM   H13A13866   1.876   4.748   1.733 -2.3269  1.0890  0.4094
  130OSM   H13B13867   1.822   4.861   1.854  0.9409  0.5826  0.5735
  130OSM   H13C13868   1.916   4.729   1.906 -1.1107  0.0273  1.0863
  130OSM    C1213869   2.045   4.958   1.948 -0.6482  0.3686 -0.1072
  130OSM   H12A13870   2.128   5.027   1.945  0.8554 -1.3966 -0.5482
  130OSM   H12B13871   2.070   4.874   2.011  1.1648  1.4131  0.6527
  130OSM    C1113872   1.930   5.034   2.026 -0.8546  0.0736  0.2180
  130OSM   H11A13873   1.889   5.113   1.960 -0.2718  1.2562  1.2510
  130OSM   H11B13874   1.972   5.092   2.111 -1.0637  0.8734 -0.2224
  130OSM      P13875   1.851   4.841   2.189  0.5525  0.0096  0.0378
  130OSM    O1313876   1.731   4.753   2.210 -0.0162 -0.3496 -0.2736
  130OSM    O1413877   1.984   4.779   2.180  0.7871  0.3206  0.2038
  130OSM    O1113878   1.857   4.952   2.302  0.0437 -0.0636  0.0211
  130OSM    O1213879   1.827   4.939   2.064  0.1017 -0.7123 -0.5175
  130OSM    C1S13880   1.831   4.935   2.444 -0.0835  0.5621 -0.2316
  130OSM    H1S13881   1.735   4.883   2.467  0.4094 -1.4455 -2.4065
  130OSM    H1T13882   1.812   5.036   2.487 -1.7833 -0.1167  0.6974
  130OSM     NF13883   1.905   4.852   2.659  0.1145 -0.0174  0.1339
  130OSM    HNF13884   1.936   4.919   2.726 -0.5744 -0.5280  0.9877
  130OSM    C2S13885   1.948   4.858   2.522  0.6765 -0.4090  0.1801
  130OSM    H2S13886   1.954   4.758   2.474  1.0171  0.0293 -0.7049
  130OSM    C3S13887   2.079   4.942   2.493 -0.5227 -0.2136  0.7558
  130OSM    H3S13888   2.054   5.044   2.529 -1.2661 -0.1973  0.2017
  130OSM     O313889   2.120   4.963   2.356 -0.7538 -0.0840  0.0083
  130OSM    HO313890   2.057   4.908   2.309 -0.7071 -1.3975  1.4155
  130OSM    C4S13891   2.191   4.888   2.575  0.3715  0.3817 -0.4592
  130OSM    H4S13892   2.196   4.945   2.669  0.5875  2.9374 -1.9253
  130OSM    C5S13893   2.286   4.805   2.553  0.1548 -0.2398  0.7908
  130OSM    H5S13894   2.301   4.771   2.449  1.7465  0.2598  0.8343
  130OSM    C6S13895   2.405   4.769   2.647  0.1835  0.1521 -0.1560
  130OSM    H6S13896   2.504   4.785   2.598  1.4860 -1.6290  1.7384
  130OSM    H6T13897   2.410   4.659   2.658 -0.7176  0.1533  0.3516
  130OSM    C7S13898   2.424   4.825   2.789  0.2463  0.4287 -0.1227
  130OSM    H7S13899   2.341   4.790   2.854  0.0232 -0.0701 -0.6560
  130OSM    H7T13900   2.420   4.935   2.778  1.5780  0.3089 -2.7282
  130OSM    C8S13901   2.561   4.768   2.845 -0.0529 -0.2507 -0.2885
  130OSM    H8S13902   2.638   4.788   2.767 -1.0552  1.5849 -0.8712
  130OSM    H8T13903   2.549   4.659   2.863  2.0991 -0.2955  1.2683
  130OSM    C9S13904   2.617   4.840   2.971 -0.6888  0.3282  0.1911
  130OSM    H9S13905   2.573   4.814   3.070 -1.0754  2.8822  0.7821
  130OSM    H9T13906   2.602   4.950   2.974 -0.8885  0.2894  1.3101
  130OSM   C10S13907   2.772   4.819   2.988  1.1264  0.8050  0.1567
  130OSM   H10S13908   2.821   4.842   2.891  0.1078  3.2072  0.1492
  130OSM   H10T13909   2.793   4.712   3.011  1.7617  0.6518 -1.0403
  130OSM   C11S13910   2.837   4.919   3.090 -0.2459 -0.2228  0.0289
  130OSM   H11S13911   2.810   5.024   3.064  4.1550  0.7701 -1.5416
  130OSM   H11T13912   2.947   4.920   3.073 -0.1511 -1.8527  0.3750
  130OSM   C12S13913   2.821   4.896   3.239 -0.0465 -0.3657  0.0148
  130OSM   H12S13914   2.865   4.798   3.267  3.5098  0.9070 -0.6441
  130OSM   H12T13915   2.711   4.898   3.255 -0.2758  2.2914 -1.3177
  130OSM   C13S13916   2.881   5.011   3.319 -0.9023  0.0454 -0.4605
  130OSM   H13S13917   2.819   5.102   3.305 -0.9850 -0.1347 -1.3268
  130OSM   H13T13918   2.984   5.031   3.283 -1.1606 -0.4022 -1.4710
  130OSM   C14S13919   2.885   4.979   3.473 -0.1813  0.0992 -0.0615
  130OSM   H14S13920   2.950   4.892   3.496  0.9403  1.6232  3.1298
  130OSM   H14T13921   2.785   4.947   3.509 -0.9093  0.1750 -1.9141
  130OSM   C15S13922   2.951   5.094   3.559 -0.2699  0.1779 -0.3264
  130OSM   H15S13923   2.903   5.189   3.528 -0.2534  0.4865  0.5458
  130OSM   H15T13924   3.055   5.094   3.520  0.4609  0.5606  1.4814
  130OSM   C16S13925   2.946   5.064   3.711 -1.1424 -1.1920  0.5299
  130OSM   H16S13926   2.989   4.963   3.727  0.4546 -0.2846  2.2883
  130OSM   H16T13927   2.840   5.066   3.746 -1.7035 -0.9810 -1.0847
  130OSM   C17S13928   3.043   5.166   3.782 -1.0734  0.1387 -0.0071
  130OSM   H17S13929   3.010   5.270   3.759 -2.5908 -0.1741  0.6168
  130OSM   H17T13930   3.148   5.145   3.752 -1.1100  0.8550 -0.6762
  130OSM   C18S13931   3.042   5.139   3.932  0.1512 -0.0485  0.1173
  130OSM   H18S13932   2.947   5.160   3.986  1.3501 -2.5330  3.5859
  130OSM   H18T13933   3.115   5.202   3.988 -0.2492  0.4745  0.0663
  130OSM   H18U13934   3.072   5.034   3.950  0.9606 -0.0488 -1.0884
  130OSM    C1F13935   1.820   4.757   2.697 -0.4193  0.6326  0.1546
  130OSM     OF13936   1.793   4.660   2.628  1.0351  0.2206  0.2309
  130OSM    C2F13937   1.764   4.775   2.829  0.3175  0.4616  0.5843
  130OSM    H2F13938   1.662   4.818   2.819 -0.6279 -1.4266  1.7395
  130OSM    H2G13939   1.824   4.848   2.888  1.9445 -1.4574  1.3935
  130OSM    C3F13940   1.766   4.651   2.912 -0.2227 -0.1280 -0.0345
  130OSM    H3F13941   1.863   4.597   2.912  1.3733  2.5871  0.5700
  130OSM    H3G13942   1.680   4.585   2.887  0.0846 -0.1725 -0.9969
  130OSM    C4F13943   1.742   4.670   3.069 -0.6758 -0.0719  0.6170
  130OSM    H4F13944   1.649   4.727   3.089 -0.9113 -0.0373 -0.5495
  130OSM    H4G13945   1.819   4.736   3.114 -0.0996 -0.1559 -0.2264
  130OSM    C5F13946   1.726   4.530   3.132 -0.5358 -0.1272 -0.1470
  130OSM    H5F13947   1.824   4.477   3.134 -0.5901 -0.2447  2.9061
  130OSM    H5G13948   1.647   4.481   3.071 -0.5240  1.6910 -1.7280
  130OSM    C6F13949   1.677   4.554   3.275 -0.0715 -0.9787  0.4355
  130OSM    H6F13950   1.676   4.452   3.320  1.1104 -1.3761 -0.4196
  130OSM    H6G13951   1.576   4.596   3.256 -0.3656 -1.6390  0.5057
  130OSM    C7F13952   1.760   4.645   3.362  0.7519  0.4205  0.5352
  130OSM    H7F13953   1.773   4.751   3.330  2.5786  0.0786  0.0255
  130OSM    H7G13954   1.862   4.601   3.367  0.6374  0.2489  1.6421
  130OSM    C8F13955   1.698   4.637   3.499  0.4456 -0.2616  0.0743
  130OSM    H8F13956   1.697   4.531   3.533 -0.0147  0.6859  3.3710
  130OSM    H8G13957   1.589   4.657   3.484  0.4182 -1.0729 -0.9445
  130OSM    C9F13958   1.764   4.730   3.600 -0.0027  0.2824 -0.7732
  130OSM    H9F13959   1.871   4.745   3.577  0.3995  0.0289  0.8347
  130OSM   C10F13960   1.705   4.802   3.693  0.1020 -0.2135 -0.9000
  130OSM   H10F13961   1.759   4.864   3.766 -1.7532 -0.3333  0.6693
  130OSM   C11F13962   1.559   4.791   3.721  0.0717 -0.4893 -0.7276
  130OSM   H11F13963   1.515   4.700   3.674  3.1525 -2.9235  0.7323
  130OSM   H11G13964   1.510   4.888   3.697  0.3442  0.1797  1.2244
  130OSM   C12F13965   1.524   4.791   3.871 -0.1487 -0.3141 -0.1901
  130OSM   H12F13966   1.417   4.808   3.892 -0.1981 -0.6820 -0.1463
  130OSM   H12G13967   1.574   4.878   3.920 -2.0548  0.4364  0.5165
  130OSM   C13F13968   1.568   4.668   3.956 -0.0955  0.1487  0.0434
  130OSM   H13F13969   1.678   4.662   3.942 -0.1829 -2.1605  0.0581
  130OSM   H13G13970   1.510   4.581   3.919  0.5529 -0.6108  0.7958
  130OSM   C14F13971   1.551   4.695   4.106 -0.5686 -0.2201 -0.2038
  130OSM   H14F13972   1.449   4.723   4.140 -0.7832 -0.2929 -0.7670
  130OSM   H14G13973   1.618   4.783   4.118 -0.5694 -0.4192  1.4548
  130OSM   C15F13974   1.607   4.568   4.181 -0.2083  0.0078 -0.0732
  130OSM   H15F13975   1.717   4.574   4.186 -0.0710 -0.0894 -2.0161
  130OSM   H15G13976   1.584   4.474   4.125 -1.7420  0.0746  0.3920
  130OSM   C16F13977   1.532   4.547   4.315 -0.9551 -0.7144  0.0640
  130OSM   H16F13978   1.562   4.445   4.351  0.1637 -0.7134 -0.8239
  130OSM   H16G13979   1.421   4.551   4.312 -1.0061 -0.7894  1.2201
  130OSM   C17F13980   1.574   4.646   4.428 -0.0016  0.1783  0.0922
  130OSM   H17F13981   1.542   4.746   4.394 -1.9237 -0.5748 -0.4758
  130OSM   H17G13982   1.684   4.648   4.434 -0.0384  0.1927  0.7871
  130OSM   C18F13983   1.508   4.605   4.565 -0.0697 -0.3139  0.1005
  130OSM   H18F13984   1.532   4.502   4.598 -0.1746  0.0398  1.3153
  130OSM   H18G13985   1.397   4.614   4.562 -0.1026  0.7740  2.5366
  130OSM   H18H13986   1.537   4.678   4.643  0.2885  0.3333 -0.6242
  131OSM      N13987   4.890   2.824   2.157 -0.3096 -0.0489 -0.1611
  131OSM    C1513988   4.750   2.845   2.202 -0.0773  0.0549 -0.3404
  131OSM   H15A13989   4.682   2.877   2.124 -0.2284 -2.1278 -1.1671
  131OSM   H15B13990   4.745   2.917   2.282 -0.4934 -2.8300  2.4239
  131OSM   H15C13991   4.709   2.753   2.241  1.1285 -0.3833 -0.0655
  131OSM    C1413992   4.901   2.713   2.054 -0.0921  0.2990  0.3652
  131OSM   H14A13993   4.866   2.618   2.091  1.3067  0.9307  3.7907
  131OSM   H14B13994   5.005   2.688   2.036  1.2182  2.8549  3.2923
  131OSM   H14C13995   4.856   2.741   1.961  1.0324 -1.9048 -0.9184
  131OSM    C1313996   4.933   2.949   2.087 -0.2076  0.3779 -0.7504
  131OSM   H13A13997   4.954   3.020   2.165 -1.7674  0.5677 -0.4665
  131OSM   H13B13998   4.862   2.982   2.013  1.6558 -0.1008 -2.8611
  131OSM   H13C13999   5.032   2.944   2.044  0.6566  2.6722  0.7983
  131OSM    C1214000   4.988   2.785   2.270 -0.1112  0.5333  0.3451
  131OSM   H12A14001   5.080   2.762   2.219 -0.2793  0.8638 -0.1102
  131OSM   H12B14002   4.951   2.689   2.304 -0.2414 -0.0037 -1.2241
  131OSM    C1114003   5.014   2.870   2.394 -0.0453 -0.1049  0.0670
  131OSM   H11A14004   5.067   2.803   2.464 -0.3533 -1.1395 -0.6635
  131OSM   H11B14005   4.918   2.882   2.449 -0.4709 -0.1406 -0.6430
  131OSM      P14006   5.215   3.041   2.386  0.0507 -0.4750  0.2474
  131OSM    O1314007   5.288   2.932   2.317 -0.0560 -0.3680  0.2312
  131OSM    O1414008   5.222   3.182   2.331  0.9567  0.1849 -0.3433
  131OSM    O1114009   5.255   3.035   2.537  0.3068 -0.5000 -0.8373
  131OSM    O1214010   5.056   3.005   2.370 -0.4754  0.2541  0.4943
  131OSM    C1S14011   5.167   3.027   2.650 -0.3205 -0.7154  0.4905
  131OSM    H1S14012   5.112   2.931   2.655 -1.5436 -0.0240  0.8695
  131OSM    H1T14013   5.106   3.120   2.648  0.4678 -0.1885  0.5382
  131OSM     NF14014   5.161   3.037   2.899  0.2202 -0.1008 -0.5398
  131OSM    HNF14015   5.164   3.110   2.966  2.1719 -0.1105 -0.5502
  131OSM    C2S14016   5.247   3.033   2.780 -0.6206 -0.3827 -0.1485
  131OSM    H2S14017   5.302   2.937   2.789 -0.6712 -0.2788  1.7886
  131OSM    C3S14018   5.354   3.148   2.783  0.1990 -0.6206  0.6476
  131OSM    H3S14019   5.303   3.246   2.789  3.9988  1.5084  1.2337
  131OSM     O314020   5.436   3.178   2.666  0.3535  0.6764 -0.0166
  131OSM    HO314021   5.384   3.157   2.588 -0.4959  1.8208  0.2103
  131OSM    C4S14022   5.446   3.131   2.902  0.2633 -0.2784  0.3310
  131OSM    H4S14023   5.414   3.181   2.994 -0.6733  0.8051 -0.5524
  131OSM    C5S14024   5.556   3.058   2.907  0.2081 -0.3632  0.2517
  131OSM    H5S14025   5.592   3.011   2.815 -0.7057 -1.7527  0.5825
  131OSM    C6S14026   5.648   3.047   3.027  0.3712  0.2284  0.0849
  131OSM    H6S14027   5.752   3.074   2.998  0.5564  1.0829  1.4499
  131OSM    H6T14028   5.650   2.937   3.040 -0.4100 -0.2034 -2.7020
  131OSM    C7S14029   5.615   3.118   3.163  0.1502  0.3364 -0.0082
  131OSM    H7S14030   5.507   3.099   3.179  0.0303  0.2161 -0.8694
  131OSM    H7T14031   5.628   3.226   3.139  2.1865 -0.1425 -1.3561
  131OSM    C8S14032   5.712   3.086   3.277 -0.5431  0.0683  0.2066
  131OSM    H8S14033   5.807   3.052   3.230  0.2947 -0.7882  2.3490
  131OSM    H8T14034   5.671   3.004   3.341  0.0579  0.4358  1.0852
  131OSM    C9S14035   5.757   3.206   3.358 -0.1733 -0.2748  0.1904
  131OSM    H9S14036   5.807   3.276   3.288  0.2059 -0.4523  0.2794
  131OSM    H9T14037   5.830   3.178   3.437  0.9274 -3.4381 -1.7362
  131OSM   C10S14038   5.653   3.276   3.441 -0.3227 -0.2014 -0.7010
  131OSM   H10S14039   5.618   3.214   3.526  1.6391 -2.0241 -1.1401
  131OSM   H10T14040   5.566   3.317   3.384 -1.7076  0.4978  1.7593
  131OSM   C11S14041   5.716   3.393   3.524 -0.1961 -0.0125  0.3304
  131OSM   H11S14042   5.776   3.461   3.459 -0.7827  1.3902  1.2136
  131OSM   H11T14043   5.798   3.348   3.584 -1.7859  0.2272  2.8153
  131OSM   C12S14044   5.617   3.480   3.599  0.0987 -0.6997 -1.2230
  131OSM   H12S14045   5.553   3.421   3.668 -0.9330  0.3889 -1.2277
  131OSM   H12T14046   5.549   3.538   3.534  0.3859  3.0091  1.4506
  131OSM   C13S14047   5.695   3.584   3.679  0.5593  0.1948  0.2802
  131OSM   H13S14048   5.745   3.645   3.600 -2.3724  1.6068 -0.6327
  131OSM   H13T14049   5.780   3.557   3.745 -0.6464  0.2694  1.9088
  131OSM   C14S14050   5.598   3.674   3.766  0.4165 -0.0630  0.2853
  131OSM   H14S14051   5.566   3.622   3.859 -3.4922 -0.3164 -1.0250
  131OSM   H14T14052   5.514   3.708   3.702  1.0320  0.8693 -0.0472
  131OSM   C15S14053   5.661   3.813   3.793 -0.2106  0.3316  0.2478
  131OSM   H15S14054   5.703   3.853   3.698 -1.9457  2.8673  0.4617
  131OSM   H15T14055   5.749   3.797   3.860  0.5304 -1.6572 -1.0943
  131OSM   C16S14056   5.561   3.909   3.854  0.2975  0.5486 -0.1565
  131OSM   H16S14057   5.465   3.936   3.805 -0.0279  2.2917  1.3386
  131OSM   H16T14058   5.608   4.008   3.874 -0.8238  0.7510  1.7639
  131OSM   C17S14059   5.514   3.863   3.991 -0.5875  0.0744 -0.3993
  131OSM   H17S14060   5.601   3.846   4.058  0.6903  2.5125 -1.3380
  131OSM   H17T14061   5.456   3.769   3.979  1.1378 -0.8820 -1.5387
  131OSM   C18S14062   5.430   3.969   4.058  0.6215 -0.3686 -0.3895
  131OSM   H18S14063   5.482   4.062   4.088 -1.2305 -0.0585  2.2819
  131OSM   H18T14064   5.393   3.923   4.152 -2.7326 -0.1360 -1.4708
  131OSM   H18U14065   5.345   3.999   3.994  0.4303 -0.2866 -0.1005
  131OSM    C1F14066   5.070   2.941   2.918  0.4184  0.2058  0.7424
  131OSM     OF14067   5.080   2.832   2.860  0.0142  0.1941  0.2269
  131OSM    C2F14068   4.946   2.975   2.994  0.0062  0.7525 -0.2063
  131OSM    H2F14069   4.866   3.007   2.924 -0.1923 -0.1615 -0.4068
  131OSM    H2G14070   4.956   3.061   3.064 -1.0131  0.2864  0.5429
  131OSM    C3F14071   4.902   2.860   3.089 -0.2839  0.0616 -0.5237
  131OSM    H3F14072   4.861   2.784   3.019 -3.1690  1.7016 -0.7461
  131OSM    H3G14073   4.817   2.909   3.141 -0.7808 -0.4456 -0.8552
  131OSM    C4F14074   4.995   2.808   3.195  0.6428  0.4574 -0.0594
  131OSM    H4F14075   5.036   2.898   3.246  0.1928  0.4634  0.2921
  131OSM    H4G14076   5.076   2.741   3.157 -0.5438 -1.8443  1.3150
  131OSM    C5F14077   4.927   2.717   3.306 -0.2371 -0.4805 -0.3524
  131OSM    H5F14078   4.905   2.620   3.257  0.1917 -0.6496 -0.2142
  131OSM    H5G14079   4.828   2.765   3.318 -0.1277  0.9882 -4.0347
  131OSM    C6F14080   5.000   2.699   3.445 -0.1603  0.2890  0.0076
  131OSM    H6F14081   5.020   2.803   3.480  0.1095  0.6100 -1.0443
  131OSM    H6G14082   5.101   2.656   3.431  0.0251 -0.5061  3.0405
  131OSM    C7F14083   4.916   2.620   3.546  0.0363  1.0967  0.0304
  131OSM    H7F14084   4.916   2.511   3.522  1.0831  0.1959  3.5561
  131OSM    H7G14085   4.810   2.650   3.538 -0.4808 -0.6337 -0.1062
  131OSM    C8F14086   4.978   2.642   3.689  0.0997 -0.5886 -0.5517
  131OSM    H8F14087   5.036   2.737   3.691 -1.6398  0.6088 -2.4517
  131OSM    H8G14088   5.062   2.570   3.696  0.9232  0.3711 -0.3748
  131OSM    C9F14089   4.886   2.634   3.808  1.0257 -0.2035 -0.1628
  131OSM    H9F14090   4.795   2.572   3.806  2.0916 -2.0551  2.5116
  131OSM   C10F14091   4.896   2.710   3.920  0.4730  0.0406 -0.0181
  131OSM   H10F14092   4.835   2.677   4.005 -0.4345 -0.5681 -0.8745
  131OSM   C11F14093   4.996   2.818   3.956  0.0431  1.3440 -0.1796
  131OSM   H11F14094   4.956   2.921   3.943  1.5735  2.1118  0.8523
  131OSM   H11G14095   5.086   2.805   3.893 -0.5618  0.3745 -0.8667
  131OSM   C12F14096   5.053   2.816   4.106 -0.0858 -0.6635  0.6042
  131OSM   H12F14097   5.149   2.869   4.120 -0.1636 -0.7187  1.4137
  131OSM   H12G14098   5.080   2.714   4.143  1.4819 -1.2489 -1.9377
  131OSM   C13F14099   4.948   2.867   4.211 -0.4469 -0.3335  0.1013
  131OSM   H13F14100   4.980   2.844   4.315  0.2532  0.9916  0.2067
  131OSM   H13G14101   4.847   2.826   4.194 -0.5920 -0.2742  0.7900
  131OSM   C14F14102   4.941   3.018   4.198 -0.2219  0.0007 -0.5428
  131OSM   H14F14103   4.919   3.062   4.098 -0.1478 -1.4894 -1.2403
  131OSM   H14G14104   5.034   3.072   4.228 -0.0922 -0.7152  0.3750
  131OSM   C15F14105   4.829   3.080   4.287 -0.6458 -0.1373 -0.1994
  131OSM   H15F14106   4.841   3.038   4.389  1.4821 -1.9284 -1.0703
  131OSM   H15G14107   4.726   3.059   4.251 -0.5049  0.7550 -1.1842
  131OSM   C16F14108   4.855   3.234   4.303 -0.2283 -0.3257 -0.8702
  131OSM   H16F14109   4.855   3.281   4.203  1.4509  2.9880  0.5181
  131OSM   H16G14110   4.955   3.254   4.348 -0.5597  0.5336 -0.4907
  131OSM   C17F14111   4.742   3.313   4.378 -0.2159 -0.6234 -0.2342
  131OSM   H17F14112   4.754   3.280   4.483 -0.5678 -1.2682 -0.3959
  131OSM   H17G14113   4.639   3.287   4.347  0.2718 -2.1505 -0.6771
  131OSM   C18F14114   4.753   3.465   4.377  0.0681 -0.1484  0.5229
  131OSM   H18F14115   4.856   3.504   4.388 -0.4236  0.7842  2.2628
  131OSM   H18G14116   4.696   3.512   4.461  1.3915  2.1619  0.2277
  131OSM   H18H14117   4.728   3.498   4.274  1.3620  0.6048  0.4313
  132OSM      N14118   4.103   0.069   1.978 -0.7826  0.1216 -0.1897
  132OSM    C1514119   4.078   0.003   2.112  0.6608 -0.2899  0.0258
  132OSM   H15A14120   4.175  -0.013   2.156  0.5200  2.0679  1.3615
  132OSM   H15B14121   4.044  -0.098   2.094  0.2324 -0.1627  0.0886
  132OSM   H15C14122   4.014   0.056   2.181  0.0828 -1.2959  0.2984
  132OSM    C1414123   4.206  -0.011   1.906  0.0375  0.5827  0.5253
  132OSM   H14A14124   4.185  -0.116   1.912 -0.4326  0.6810  0.6964
  132OSM   H14B14125   4.304  -0.000   1.950 -0.1157 -0.1474  1.0586
  132OSM   H14C14126   4.216   0.021   1.803 -1.6123 -1.2976 -0.2876
  132OSM    C1314127   3.979   0.069   1.896 -0.5231  0.7128  0.0935
  132OSM   H13A14128   3.899   0.106   1.958  0.8066 -0.2957  2.5439
  132OSM   H13B14129   3.954  -0.035   1.882 -0.2917  0.1865  3.0988
  132OSM   H13C14130   3.977   0.121   1.801  0.4667 -0.9533 -0.9008
  132OSM    C1214131   4.160   0.206   1.980  0.2884 -0.1758  0.3990
  132OSM   H12A14132   4.190   0.232   1.880  1.5763 -1.0350  0.5368
  132OSM   H12B14133   4.251   0.202   2.038  0.1403 -0.0680  0.6362
  132OSM    C1114134   4.079   0.320   2.038  0.1658 -0.6080 -1.1708
  132OSM   H11A14135   4.147   0.403   2.067  2.3217 -2.8058  0.6011
  132OSM   H11B14136   4.042   0.276   2.133  0.1776 -1.0089 -1.3509
  132OSM      P14137   3.841   0.430   2.020 -0.0958 -0.2901 -0.2613
  132OSM    O1314138   3.808   0.521   1.907 -0.3771 -0.6680 -0.3364
  132OSM    O1414139   3.737   0.337   2.064 -0.2157 -0.5311 -0.4675
  132OSM    O1114140   3.889   0.508   2.148 -0.2612  0.6551 -0.7106
  132OSM    O1214141   3.967   0.360   1.961 -0.1615  0.0515  0.4190
  132OSM    C1S14142   3.833   0.485   2.282 -0.1810 -1.0490  0.4610
  132OSM    H1S14143   3.902   0.414   2.334  0.8783 -0.8828 -0.6602
  132OSM    H1T14144   3.731   0.441   2.281 -1.3959  1.5129 -1.7930
  132OSM     NF14145   3.798   0.612   2.495 -0.0003 -0.2905 -0.0859
  132OSM    HNF14146   3.713   0.661   2.515  0.0693 -0.1469 -0.1465
  132OSM    C2S14147   3.837   0.623   2.358 -0.0895 -0.3458  0.1248
  132OSM    H2S14148   3.942   0.660   2.362 -1.2909  3.5155 -0.4200
  132OSM    C3S14149   3.767   0.742   2.289 -1.1510  0.0270  0.2026
  132OSM    H3S14150   3.660   0.714   2.292 -1.3662  0.8677  0.4754
  132OSM     O314151   3.804   0.760   2.157  0.0433  0.3047 -0.0363
  132OSM    HO314152   3.840   0.674   2.132  0.7822  0.3430  0.8805
  132OSM    C4S14153   3.794   0.877   2.363 -0.0264  0.2663 -0.9025
  132OSM    H4S14154   3.735   0.891   2.455  0.4182 -0.9769 -0.4141
  132OSM    C5S14155   3.888   0.971   2.345 -0.5675  0.2412 -0.4270
  132OSM    H5S14156   3.964   0.947   2.269 -0.2981 -0.2168 -0.0226
  132OSM    C6S14157   3.894   1.104   2.410 -0.1862  0.0901 -0.8889
  132OSM    H6S14158   3.840   1.182   2.352  1.3076  2.1862  0.3604
  132OSM    H6T14159   4.001   1.136   2.409 -0.5455  1.4469  0.3239
  132OSM    C7S14160   3.841   1.112   2.556  0.6439  0.1983  0.4192
  132OSM    H7S14161   3.733   1.090   2.561  0.5456  0.5898  0.0143
  132OSM    H7T14162   3.842   1.217   2.591  0.8132  0.0796  0.7796
  132OSM    C8S14163   3.906   1.009   2.654  0.4217  0.0668 -0.6772
  132OSM    H8S14164   4.016   1.023   2.657  0.6241 -1.2475  2.5030
  132OSM    H8T14165   3.881   0.904   2.631  0.0919 -0.9513  3.5248
  132OSM    C9S14166   3.853   1.043   2.793  0.0712  0.6931 -0.4517
  132OSM    H9S14167   3.745   1.019   2.808 -0.3466  2.9621  0.5753
  132OSM    H9T14168   3.867   1.152   2.808  1.9258  0.1059  3.4583
  132OSM   C10S14169   3.930   0.976   2.909 -0.1678 -0.4717  0.4649
  132OSM   H10S14170   4.037   1.000   2.894 -0.5930  0.7031 -0.9349
  132OSM   H10T14171   3.923   0.866   2.901  0.2182 -0.4012 -1.1191
  132OSM   C11S14172   3.876   1.012   3.042 -0.1821  0.2732 -0.9154
  132OSM   H11S14173   3.769   0.984   3.055  0.0101  0.0044  0.2061
  132OSM   H11T14174   3.869   1.122   3.052 -2.1480  0.0794  0.7359
  132OSM   C12S14175   3.966   0.961   3.157 -0.1765 -0.2399  0.8563
  132OSM   H12S14176   4.069   1.001   3.148  0.5238 -2.2407 -0.5660
  132OSM   H12T14177   3.973   0.851   3.147  1.7026 -0.0447 -0.4235
  132OSM   C13S14178   3.913   1.011   3.294  0.2986  1.1628  0.6518
  132OSM   H13S14179   3.803   1.014   3.283  0.3349 -1.2608 -1.0510
  132OSM   H13T14180   3.943   1.118   3.298 -0.2960  1.4131 -1.0756
  132OSM   C14S14181   3.964   0.931   3.416  0.1414  0.1186  1.2137
  132OSM   H14S14182   3.941   0.990   3.507  0.9562  0.4432  1.2163
  132OSM   H14T14183   4.074   0.932   3.397  0.2450  1.8793  1.7065
  132OSM   C15S14184   3.900   0.788   3.431 -0.1453 -0.2583 -0.5374
  132OSM   H15S14185   3.895   0.733   3.334  1.6125 -1.3968 -0.0344
  132OSM   H15T14186   3.793   0.809   3.447  0.3137  2.2316 -0.3994
  132OSM   C16S14187   3.960   0.708   3.549 -0.6279 -0.3715  0.1959
  132OSM   H16S14188   4.070   0.712   3.543 -0.5733 -0.3110  1.0349
  132OSM   H16T14189   3.916   0.605   3.545 -1.2450 -0.2005  1.6285
  132OSM   C17S14190   3.922   0.776   3.680 -0.1235  0.4306  0.2538
  132OSM   H17S14191   3.813   0.764   3.693 -0.1275  0.1131 -0.0679
  132OSM   H17T14192   3.941   0.885   3.677  1.4559  0.1511 -1.8635
  132OSM   C18S14193   4.000   0.715   3.794 -0.3964 -0.1331 -0.7472
  132OSM   H18S14194   3.969   0.609   3.801  1.5157 -0.6746  0.2374
  132OSM   H18T14195   3.978   0.763   3.892  1.3799 -0.4138 -0.1793
  132OSM   H18U14196   4.111   0.717   3.785 -0.4176 -1.0882 -1.3028
  132OSM    C1F14197   3.859   0.538   2.591  0.5148  0.4743 -0.5504
  132OSM     OF14198   3.956   0.472   2.569 -0.4124 -0.4655  0.6551
  132OSM    C2F14199   3.802   0.547   2.729  0.4257  0.7847  0.5115
  132OSM    H2F14200   3.699   0.508   2.736  0.6727  0.2312  1.1683
  132OSM    H2G14201   3.811   0.655   2.754  2.3873  0.6308  0.6614
  132OSM    C3F14202   3.883   0.479   2.834 -0.5309  0.2892 -0.5705
  132OSM    H3F14203   3.979   0.533   2.852 -0.1815 -0.2725 -0.7227
  132OSM    H3G14204   3.898   0.378   2.791 -1.1572 -1.1926  2.3956
  132OSM    C4F14205   3.821   0.463   2.972  0.1482 -0.2156 -0.7036
  132OSM    H4F14206   3.872   0.387   3.034 -1.2732 -1.0690 -0.5267
  132OSM    H4G14207   3.715   0.429   2.974 -0.5421  1.5827 -2.7859
  132OSM    C5F14208   3.823   0.580   3.069  0.3915 -0.3985 -0.1040
  132OSM    H5F14209   3.796   0.680   3.028 -2.7501 -1.8182 -1.8738
  132OSM    H5G14210   3.922   0.593   3.116  0.2987 -0.0500 -0.0029
  132OSM    C6F14211   3.733   0.554   3.191 -0.0313 -0.0102  0.6404
  132OSM    H6F14212   3.634   0.507   3.178 -0.2535 -0.3470  3.1216
  132OSM    H6G14213   3.724   0.655   3.235  1.7256  1.3407 -1.8842
  132OSM    C7F14214   3.798   0.464   3.299  0.0363  0.0689  0.2056
  132OSM    H7F14215   3.892   0.519   3.316  1.4153 -2.1604  0.1574
  132OSM    H7G14216   3.830   0.363   3.266  3.3692  0.2004  2.5567
  132OSM    C8F14217   3.717   0.445   3.432  0.1045  0.6117 -0.3168
  132OSM    H8F14218   3.703   0.551   3.463  0.4031  0.1786  1.4243
  132OSM    H8G14219   3.790   0.409   3.508  1.4741 -1.1571 -2.3624
  132OSM    C9F14220   3.595   0.359   3.420  0.7735  0.2758  0.3045
  132OSM    H9F14221   3.608   0.275   3.350  0.6397  0.2530  0.3053
  132OSM   C10F14222   3.484   0.367   3.496 -0.0356  0.3975  0.0028
  132OSM   H10F14223   3.394   0.309   3.472 -0.9259  1.2030  1.2514
  132OSM   C11F14224   3.463   0.481   3.586 -1.1057  0.2407  0.4729
  132OSM   H11F14225   3.488   0.579   3.539  0.2332 -0.1518  0.3318
  132OSM   H11G14226   3.536   0.469   3.668  2.0800  1.4750 -1.9857
  132OSM   C12F14227   3.331   0.500   3.655 -0.3924 -0.1288  0.9601
  132OSM   H12F14228   3.244   0.482   3.588  0.6873 -3.2670  0.2066
  132OSM   H12G14229   3.325   0.606   3.687  1.2714  0.8073 -1.4953
  132OSM   C13F14230   3.309   0.414   3.785  0.2339 -0.9783 -0.5669
  132OSM   H13F14231   3.408   0.425   3.833 -0.0844  2.2385 -0.3957
  132OSM   H13G14232   3.278   0.308   3.777  0.5577 -1.7135  4.6319
  132OSM   C14F14233   3.213   0.476   3.889  0.2313 -1.2071 -0.5436
  132OSM   H14F14234   3.104   0.473   3.865 -0.0821  0.6806  0.4308
  132OSM   H14G14235   3.238   0.584   3.893  1.5938 -1.5527  0.8536
  132OSM   C15F14236   3.223   0.418   4.030 -0.4488 -1.0081 -0.0213
  132OSM   H15F14237   3.327   0.420   4.070  0.4626  1.7800 -2.1433
  132OSM   H15G14238   3.183   0.315   4.030 -0.0259 -1.2348  2.3015
  132OSM   C16F14239   3.140   0.492   4.132 -0.5933 -0.1527  0.6654
  132OSM   H16F14240   3.033   0.462   4.129 -1.5858  2.9486  0.9313
  132OSM   H16G14241   3.149   0.602   4.114 -2.4582 -0.2404 -1.1953
  132OSM   C17F14242   3.184   0.453   4.272 -0.2184 -0.2891 -0.3683
  132OSM   H17F14243   3.293   0.468   4.278  0.3091 -2.1685 -3.1557
  132OSM   H17G14244   3.170   0.344   4.287 -0.3153  0.0670  2.6965
  132OSM   C18F14245   3.106   0.545   4.380 -0.2465  0.3933  0.6569
  132OSM   H18F14246   2.997   0.543   4.361  0.0805 -1.2568 -1.3235
  132OSM   H18G14247   3.142   0.648   4.357  0.0455  0.1632  0.0592
  132OSM   H18H14248   3.136   0.514   4.483  1.1989 -2.6218 -0.5421
  133OSM      N14249   3.428   4.062   1.585 -0.2332 -0.0211 -0.6151
  133OSM    C1514250   3.487   4.195   1.550 -0.0137  0.0045  0.4019
  133OSM   H15A14251   3.431   4.277   1.508  0.1934  0.4392  0.9625
  133OSM   H15B14252   3.567   4.184   1.479 -1.8802 -0.8420 -1.6828
  133OSM   H15C14253   3.527   4.230   1.644  1.3801 -0.6026  0.0501
  133OSM    C1414254   3.357   4.004   1.469  0.0216  0.7791  0.3962
  133OSM   H14A14255   3.310   3.910   1.494 -1.6208  2.0955  2.6627
  133OSM   H14B14256   3.427   3.986   1.389  0.0212 -0.4009  0.6510
  133OSM   H14C14257   3.276   4.065   1.430 -0.6194 -0.5375 -0.4002
  133OSM    C1314258   3.539   3.974   1.629  0.1207  1.2761 -0.4960
  133OSM   H13A14259   3.613   3.951   1.554 -0.8354 -2.9201 -0.4015
  133OSM   H13B14260   3.497   3.884   1.672  0.7672  0.9663 -0.5024
  133OSM   H13C14261   3.587   4.019   1.716  2.4718 -2.1461  0.1949
  133OSM    C1214262   3.331   4.067   1.698 -0.1918 -0.4391 -0.8022
  133OSM   H12A14263   3.297   3.966   1.715  0.8248 -0.7854 -0.7206
  133OSM   H12B14264   3.254   4.135   1.665  0.1337  1.4537  1.9936
  133OSM    C1114265   3.379   4.121   1.840  0.2610  0.2225 -0.3213
  133OSM   H11A14266   3.445   4.040   1.876 -2.6234 -1.3619  1.9089
  133OSM   H11B14267   3.294   4.135   1.911  2.2447  0.3607  2.1761
  133OSM      P14268   3.579   4.283   1.895  0.0114 -0.2386  0.0433
  133OSM    O1314269   3.659   4.161   1.913  0.1822 -0.2155  0.1268
  133OSM    O1414270   3.647   4.387   1.813 -0.1215 -0.5272  0.2465
  133OSM    O1114271   3.537   4.344   2.039  0.1607  0.0928  0.1202
  133OSM    O1214272   3.441   4.245   1.825 -0.1755 -0.8867 -0.4294
  133OSM    C1S14273   3.482   4.256   2.134  0.0990 -0.3240 -0.1444
  133OSM    H1S14274   3.533   4.157   2.135  1.2915  0.2119  3.1687
  133OSM    H1T14275   3.373   4.239   2.116  0.2763  0.5101 -2.3016
  133OSM     NF14276   3.434   4.227   2.385  0.4565  0.3815  0.3803
  133OSM    HNF14277   3.351   4.249   2.436 -1.2576  1.5213 -2.6397
  133OSM    C2S14278   3.480   4.320   2.276 -0.4785  0.6221 -0.2077
  133OSM    H2S14279   3.584   4.350   2.298 -0.0615 -1.3374  0.6931
  133OSM    C3S14280   3.408   4.455   2.278  0.6376  0.6037  0.0883
  133OSM    H3S14281   3.301   4.442   2.250  0.4048 -1.9308  1.8643
  133OSM     O314282   3.476   4.553   2.193 -0.5665 -0.1513 -0.7427
  133OSM    HO314283   3.522   4.492   2.135  1.1197  1.2319 -0.9615
  133OSM    C4S14284   3.409   4.512   2.413 -0.6677  0.2665 -0.9170
  133OSM    H4S14285   3.493   4.479   2.476 -1.3468 -0.3185 -0.3026
  133OSM    C5S14286   3.318   4.593   2.482 -0.8575  0.0952 -0.3340
  133OSM    H5S14287   3.227   4.621   2.428 -0.9305  1.4347  0.4248
  133OSM    C6S14288   3.320   4.649   2.622  0.2551  0.1519  0.1137
  133OSM    H6S14289   3.236   4.613   2.685 -0.0386  1.9720  0.8287
  133OSM    H6T14290   3.300   4.757   2.601  3.1214  0.7968  0.3146
  133OSM    C7S14291   3.456   4.630   2.691  0.6970 -0.1344 -0.1562
  133OSM    H7S14292   3.551   4.672   2.650  0.6284 -1.0988 -1.3442
  133OSM    H7T14293   3.470   4.520   2.696 -0.9099 -0.3542  0.0865
  133OSM    C8S14294   3.453   4.692   2.836 -0.1441 -0.1410 -0.2773
  133OSM    H8S14295   3.354   4.685   2.887 -1.1589 -0.2547 -2.1787
  133OSM    H8T14296   3.473   4.800   2.825  0.6433 -0.3888 -1.4734
  133OSM    C9S14297   3.558   4.632   2.941  0.3810 -0.0606 -0.9691
  133OSM    H9S14298   3.556   4.691   3.036  2.0190  1.3744 -1.7684
  133OSM    H9T14299   3.655   4.642   2.888  1.0258  0.2944  0.2224
  133OSM   C10S14300   3.538   4.494   2.990  0.0726  0.3003  0.6318
  133OSM   H10S14301   3.579   4.425   2.912 -0.6652  0.8683 -0.2745
  133OSM   H10T14302   3.427   4.495   2.999 -0.1344  0.9190 -1.4367
  133OSM   C11S14303   3.595   4.465   3.126 -0.8895  0.2985 -0.6762
  133OSM   H11S14304   3.694   4.513   3.141 -0.9042  0.3308 -0.6834
  133OSM   H11T14305   3.604   4.354   3.132 -0.0996  0.4142  0.7506
  133OSM   C12S14306   3.501   4.511   3.236 -0.4284 -0.2675 -0.1205
  133OSM   H12S14307   3.406   4.453   3.234 -1.2113  0.8688  1.5133
  133OSM   H12T14308   3.464   4.613   3.211  1.3079  0.0403 -1.6166
  133OSM   C13S14309   3.550   4.497   3.379 -0.2028 -0.1886  0.2582
  133OSM   H13S14310   3.468   4.512   3.453  0.5960  0.8873  0.9510
  133OSM   H13T14311   3.622   4.577   3.405  1.9538 -2.3385  1.4102
  133OSM   C14S14312   3.611   4.360   3.404  0.2631 -0.3434 -0.3410
  133OSM   H14S14313   3.717   4.358   3.370  0.2352 -1.3655 -0.4076
  133OSM   H14T14314   3.543   4.289   3.352  1.9373 -0.6398 -2.2537
  133OSM   C15S14315   3.610   4.325   3.554 -0.2958 -0.5422 -0.1591
  133OSM   H15S14316   3.638   4.219   3.573 -0.7494 -0.5679  0.3718
  133OSM   H15T14317   3.504   4.334   3.585 -1.6783 -1.9535 -3.8867
  133OSM   C16S14318   3.710   4.411   3.635  0.2643 -0.4109  0.1951
  133OSM   H16S14319   3.690   4.520   3.635  0.9328 -0.2042 -2.7537
  133OSM   H16T14320   3.805   4.400   3.578  0.6438 -0.2421  0.7869
  133OSM   C17S14321   3.723   4.378   3.785  0.2323 -0.3692 -0.2090
  133OSM   H17S14322   3.771   4.278   3.797  1.1256 -0.2738 -2.3684
  133OSM   H17T14323   3.620   4.384   3.825  0.4166 -0.5321  0.2887
  133OSM   C18S14324   3.828   4.461   3.864  0.8592  0.0304  0.1515
  133OSM   H18S14325   3.930   4.424   3.837  0.8029 -0.4234  0.5673
  133OSM   H18T14326   3.801   4.443   3.970  2.6928  0.7815  0.7987
  133OSM   H18U14327   3.828   4.569   3.837  0.5685  0.2798  1.1191
  133OSM    C1F14328   3.510   4.114   2.404  0.5738 -0.4031 -0.0679
  133OSM     OF14329   3.631   4.118   2.379 -0.2950  0.4970 -0.0574
  133OSM    C2F14330   3.447   3.994   2.450 -0.5780 -0.2090 -0.3375
  133OSM    H2F14331   3.463   3.912   2.376  2.1897  0.4261 -0.5503
  133OSM    H2G14332   3.340   4.004   2.478 -0.0050  1.2485  1.4784
  133OSM    C3F14333   3.516   3.952   2.580 -0.2406  0.2766 -0.5606
  133OSM    H3F14334   3.625   3.940   2.562 -0.0652 -2.3045  1.5628
  133OSM    H3G14335   3.484   3.847   2.597  0.5962  0.0360 -0.4052
  133OSM    C4F14336   3.495   4.031   2.702 -0.0046 -0.4877 -0.0077
  133OSM    H4F14337   3.392   4.008   2.736  0.0792 -0.5355  0.2180
  133OSM    H4G14338   3.499   4.142   2.695  1.6845 -0.0537  4.5308
  133OSM    C5F14339   3.601   3.997   2.812 -0.9599  0.4406 -0.4042
  133OSM    H5F14340   3.699   4.027   2.770  0.4874 -4.0564 -0.7424
  133OSM    H5G14341   3.603   3.888   2.829 -1.4417  0.2569 -1.4343
  133OSM    C6F14342   3.569   4.085   2.943  0.1021 -0.0032  0.0085
  133OSM    H6F14343   3.529   4.186   2.920  3.5274  1.9262  1.8226
  133OSM    H6G14344   3.663   4.084   3.002  0.7665 -0.0793 -1.0231
  133OSM    C7F14345   3.466   4.020   3.031  0.9153 -0.1612  0.3214
  133OSM    H7F14346   3.490   3.912   3.032  0.1408 -0.3774 -1.1053
  133OSM    H7G14347   3.367   4.018   2.981  0.8041 -0.1095  0.5380
  133OSM    C8F14348   3.462   4.070   3.174 -0.2527  0.0415  0.2354
  133OSM    H8F14349   3.463   4.180   3.179 -0.4615 -0.0190  2.2695
  133OSM    H8G14350   3.561   4.044   3.217  0.7141  1.1781 -1.1989
  133OSM    C9F14351   3.343   4.018   3.254 -0.3618 -0.3899 -0.6680
  133OSM    H9F14352   3.249   4.037   3.200 -0.6704  0.6705  0.2153
  133OSM   C10F14353   3.345   3.971   3.382  0.3043 -0.7036 -0.4355
  133OSM   H10F14354   3.256   3.934   3.435 -0.3613  1.2831 -0.0510
  133OSM   C11F14355   3.473   3.960   3.465  0.3134  0.2608 -0.2644
  133OSM   H11F14356   3.513   4.057   3.501  1.2410 -0.5282  0.9218
  133OSM   H11G14357   3.548   3.911   3.398 -1.7391  1.0258 -3.3554
  133OSM   C12F14358   3.452   3.874   3.597  0.3749  0.8223  0.0555
  133OSM   H12F14359   3.551   3.865   3.646 -0.1160  2.1653  1.3722
  133OSM   H12G14360   3.406   3.774   3.579  0.4554  0.8731 -0.4548
  133OSM   C13F14361   3.354   3.944   3.702  0.6320 -0.0296 -0.5964
  133OSM   H13F14362   3.367   3.892   3.799  0.3287  0.5060 -0.2640
  133OSM   H13G14363   3.245   3.932   3.681  0.2364  3.4781 -1.0886
  133OSM   C14F14364   3.386   4.088   3.740 -0.2888  0.3787  0.0662
  133OSM   H14F14365   3.382   4.146   3.645  1.2278 -0.7936 -0.7583
  133OSM   H14G14366   3.492   4.102   3.769  0.2017 -2.0764 -0.2846
  133OSM   C15F14367   3.297   4.147   3.855 -0.2197  0.6538  0.9139
  133OSM   H15F14368   3.323   4.255   3.854  2.4317  0.1231 -2.0964
  133OSM   H15G14369   3.336   4.102   3.949  1.4428  1.1637  0.5111
  133OSM   C16F14370   3.148   4.140   3.830  0.0541 -0.2319  0.3290
  133OSM   H16F14371   3.123   4.045   3.882 -3.4911  1.0877  1.3804
  133OSM   H16G14372   3.127   4.115   3.724  0.9930  1.7971 -0.3964
  133OSM   C17F14373   3.050   4.248   3.887  0.5012 -0.0221 -0.6640
  133OSM   H17F14374   2.949   4.224   3.846  0.5590 -1.0901 -0.2035
  133OSM   H17G14375   3.069   4.353   3.854 -0.7414  0.9824  1.5714
  133OSM   C18F14376   3.028   4.250   4.036  0.1421 -0.0051  0.5173
  133OSM   H18F14377   3.130   4.246   4.079  2.0837  0.3593 -3.5813
  133OSM   H18G14378   2.964   4.162   4.059 -1.5038  0.6016 -1.4021
  133OSM   H18H14379   2.972   4.343   4.062  0.3156  0.0843  0.5763
  134OSM      N14380   2.575   0.670   1.822 -0.6406  0.3754 -0.4464
  134OSM    C1514381   2.529   0.739   1.705  0.4699 -0.4083 -0.1639
  134OSM   H15A14382   2.546   0.845   1.719 -1.3753 -0.3609  2.2715
  134OSM   H15B14383   2.427   0.719   1.677  0.2642 -1.7640  1.4318
  134OSM   H15C14384   2.592   0.715   1.621  0.0448 -0.5652 -0.4409
  134OSM    C1414385   2.527   0.524   1.820  0.6335 -0.1200 -0.7867
  134OSM   H14A14386   2.541   0.484   1.919  1.6925  0.6047 -0.6300
  134OSM   H14B14387   2.571   0.468   1.738 -0.4258  0.7089 -1.9548
  134OSM   H14C14388   2.420   0.529   1.806  0.5586 -0.3558 -0.3127
  134OSM    C1314389   2.724   0.670   1.823  0.4891 -0.1015  0.7179
  134OSM   H13A14390   2.767   0.595   1.759 -1.0904 -1.6825  1.4374
  134OSM   H13B14391   2.764   0.637   1.918 -0.1510 -2.0254  0.3596
  134OSM   H13C14392   2.754   0.772   1.805 -3.5095  1.7925  3.2875
  134OSM    C1214393   2.524   0.728   1.957  0.5942 -0.3681 -0.5079
  134OSM   H12A14394   2.418   0.744   1.945  0.0573  0.2353  3.4656
  134OSM   H12B14395   2.572   0.823   1.976  1.3115 -0.8008 -0.1047
  134OSM    C1114396   2.542   0.651   2.087  0.1479  0.3996 -0.1314
  134OSM   H11A14397   2.469   0.568   2.077 -0.3928  0.7523  0.7442
  134OSM   H11B14398   2.496   0.701   2.175 -0.5704  0.5879 -0.6054
  134OSM      P14399   2.778   0.745   2.165 -0.6799 -0.6038  0.6497
  134OSM    O1314400   2.902   0.762   2.080  0.3161  0.0178 -0.3078
  134OSM    O1414401   2.693   0.866   2.173 -0.0005 -0.1752  0.4048
  134OSM    O1114402   2.818   0.702   2.314 -0.2113  0.1215 -0.5284
  134OSM    O1214403   2.682   0.622   2.109 -0.1963 -0.0020  0.6286
  134OSM    C1S14404   2.702   0.682   2.401 -0.0818  0.3034  0.6777
  134OSM    H1S14405   2.647   0.598   2.354  1.3353  0.4418 -1.4056
  134OSM    H1T14406   2.631   0.767   2.400  0.3276  0.6579  1.1848
  134OSM     NF14407   2.631   0.630   2.641  0.1812 -0.3879  0.3899
  134OSM    HNF14408   2.618   0.703   2.707  0.2826 -0.2253  0.2313
  134OSM    C2S14409   2.742   0.646   2.547 -0.1098 -0.0292  0.5019
  134OSM    H2S14410   2.778   0.541   2.536 -1.9160 -0.4368 -2.7875
  134OSM    C3S14411   2.854   0.725   2.610 -0.7191  0.4279  0.0660
  134OSM    H3S14412   2.814   0.828   2.621  2.7307  1.9787 -0.5665
  134OSM     O314413   2.965   0.749   2.531 -0.3615  0.2559 -0.3075
  134OSM    HO314414   2.948   0.705   2.447 -1.4233  2.5783 -1.4162
  134OSM    C4S14415   2.896   0.671   2.751 -0.0369 -0.6091  0.0970
  134OSM    H4S14416   2.825   0.690   2.833  1.7437  1.1719  1.3103
  134OSM    C5S14417   3.011   0.617   2.791  0.1989  0.4950  0.0039
  134OSM    H5S14418   3.098   0.616   2.724 -0.6033  1.2692 -1.0806
  134OSM    C6S14419   3.043   0.575   2.936 -0.1374  0.1019  0.1859
  134OSM    H6S14420   3.150   0.600   2.950  0.2587 -1.2679 -0.2486
  134OSM    H6T14421   3.037   0.465   2.954 -1.3288  0.0711 -0.3370
  134OSM    C7S14422   2.959   0.647   3.044  0.2413 -0.3991  0.1168
  134OSM    H7S14423   2.857   0.606   3.030  0.3386 -0.1302 -1.5020
  134OSM    H7T14424   2.966   0.754   3.013 -1.5967 -1.3186 -4.0896
  134OSM    C8S14425   3.027   0.622   3.183  0.3320 -0.2801  0.0874
  134OSM    H8S14426   3.125   0.673   3.176 -0.5247  1.4220 -0.0658
  134OSM    H8T14427   3.060   0.517   3.197  2.5563  0.4451  0.5988
  134OSM    C9S14428   2.947   0.672   3.299  0.2464  0.3413 -0.0670
  134OSM    H9S14429   2.868   0.599   3.324  1.1133 -0.8688 -0.7775
  134OSM    H9T14430   2.907   0.773   3.276  0.0994  0.0939 -0.9139
  134OSM   C10S14431   3.035   0.700   3.426 -0.8654  0.6165  0.4536
  134OSM   H10S14432   3.115   0.770   3.393 -0.0755 -0.5656 -0.2144
  134OSM   H10T14433   3.089   0.607   3.454  0.9038  0.7590 -2.1565
  134OSM   C11S14434   2.959   0.760   3.547  1.1136  0.4210  0.5177
  134OSM   H11S14435   2.868   0.707   3.581  1.0299  1.8234  2.6219
  134OSM   H11T14436   2.920   0.856   3.508 -1.1119 -0.5217  0.2895
  134OSM   C12S14437   3.041   0.781   3.671  0.6191 -0.0662  0.1676
  134OSM   H12S14438   3.140   0.829   3.655  0.2019  0.1689 -1.9950
  134OSM   H12T14439   3.071   0.680   3.707  0.9635  0.2596  0.8291
  134OSM   C13S14440   2.976   0.851   3.789  0.3566 -0.4862  0.1012
  134OSM   H13S14441   2.866   0.846   3.774  0.2654  1.1979 -0.0733
  134OSM   H13T14442   3.012   0.956   3.794 -1.8603  0.2671  2.9633
  134OSM   C14S14443   3.006   0.787   3.922 -0.0040  0.2564 -0.4799
  134OSM   H14S14444   3.108   0.745   3.921  0.2277  0.6530  1.4765
  134OSM   H14T14445   2.943   0.695   3.926  0.9135 -0.3930 -0.7764
  134OSM   C15S14446   2.991   0.882   4.044  0.7732 -0.2289  0.4676
  134OSM   H15S14447   3.074   0.956   4.040 -0.3792  1.0667 -0.1556
  134OSM   H15T14448   2.995   0.832   4.144 -1.7400 -0.9337  0.2919
  134OSM   C16S14449   2.859   0.961   4.039  0.1453  0.3714 -0.0705
  134OSM   H16S14450   2.777   0.888   4.022  0.4077  0.3667 -1.4353
  134OSM   H16T14451   2.848   1.036   3.959  0.4079  1.4960  0.9180
  134OSM   C17S14452   2.836   1.035   4.171  0.5424 -0.2571 -0.0627
  134OSM   H17S14453   2.923   1.091   4.211  0.7610 -0.7337  0.1264
  134OSM   H17T14454   2.817   0.960   4.251  0.7037  0.3311  0.5359
  134OSM   C18S14455   2.714   1.129   4.162 -0.5196  0.4955 -0.0698
  134OSM   H18S14456   2.621   1.078   4.126 -0.1208  1.0340 -1.9936
  134OSM   H18T14457   2.735   1.205   4.084 -2.3618 -0.1930 -1.3146
  134OSM   H18U14458   2.693   1.181   4.257 -1.1949  0.8249 -0.3909
  134OSM    C1F14459   2.516   0.560   2.620  0.1234 -0.0980 -0.0579
  134OSM     OF14460   2.509   0.470   2.534  0.3360 -0.1838  0.4611
  134OSM    C2F14461   2.391   0.603   2.699 -0.7880 -0.1403  0.6998
  134OSM    H2F14462   2.310   0.616   2.624 -0.0446 -2.2003 -0.5610
  134OSM    H2G14463   2.413   0.704   2.740  1.2425  0.7625 -2.2760
  134OSM    C3F14464   2.361   0.500   2.807 -0.4668 -0.2957 -0.2657
  134OSM    H3F14465   2.447   0.510   2.877  0.7835 -2.7005 -1.3586
  134OSM    H3G14466   2.368   0.394   2.776 -1.7012 -0.1335 -1.1790
  134OSM    C4F14467   2.231   0.534   2.878  0.0433  0.6194 -0.5077
  134OSM    H4F14468   2.147   0.540   2.804 -0.2917 -2.5331 -0.5319
  134OSM    H4G14469   2.235   0.636   2.921 -2.4588  0.7383 -0.3758
  134OSM    C5F14470   2.191   0.437   2.991 -0.3962  0.3044 -0.3596
  134OSM    H5F14471   2.228   0.333   2.983 -1.0348 -0.1185  1.6649
  134OSM    H5G14472   2.081   0.428   2.997 -0.3940 -0.7262 -1.6403
  134OSM    C6F14473   2.239   0.474   3.134  0.2737  0.0111 -0.1942
  134OSM    H6F14474   2.193   0.569   3.168  1.0111  0.1376  0.4744
  134OSM    H6G14475   2.349   0.485   3.140  0.5979 -2.8531  0.8225
  134OSM    C7F14476   2.207   0.365   3.243 -0.1130  0.5946  0.4941
  134OSM    H7F14477   2.296   0.299   3.254  1.0506  2.3100  1.9971
  134OSM    H7G14478   2.128   0.293   3.213  1.5834 -0.8058 -0.8482
  134OSM    C8F14479   2.174   0.420   3.380  0.1250 -0.8033  0.2544
  134OSM    H8F14480   2.228   0.517   3.385  1.2366 -1.3174 -1.2015
  134OSM    H8G14481   2.215   0.350   3.457  2.0073 -1.4473 -1.2458
  134OSM    C9F14482   2.025   0.453   3.398  0.0290 -0.2232 -0.3864
  134OSM    H9F14483   1.973   0.472   3.302  1.1576  1.4042 -0.7207
  134OSM   C10F14484   1.963   0.451   3.516 -0.1355  0.5969  0.2621
  134OSM   H10F14485   1.856   0.475   3.507  0.0886  1.5748  0.1545
  134OSM   C11F14486   2.038   0.434   3.650  0.5612  0.5114 -0.0981
  134OSM   H11F14487   2.127   0.501   3.645 -1.7083  3.8349  0.5727
  134OSM   H11G14488   2.075   0.329   3.651 -1.1609 -0.1385 -0.6895
  134OSM   C12F14489   1.947   0.467   3.772  0.1325  0.6306  0.0265
  134OSM   H12F14490   1.855   0.408   3.791  0.4339  0.9882  2.9198
  134OSM   H12G14491   1.928   0.576   3.759 -0.6605  1.0439  3.6729
  134OSM   C13F14492   2.022   0.458   3.903 -1.2289 -0.7809 -0.5947
  134OSM   H13F14493   2.112   0.522   3.894 -1.4108 -0.5929 -1.1612
  134OSM   H13G14494   2.054   0.352   3.910  1.5976 -0.3310 -4.2076
  134OSM   C14F14495   1.949   0.500   4.034 -0.2522  0.9053 -0.2783
  134OSM   H14F14496   1.866   0.427   4.037  0.6156 -0.3617 -3.4007
  134OSM   H14G14497   1.897   0.596   4.013 -0.5160  0.3957 -2.0805
  134OSM   C15F14498   2.042   0.505   4.158  0.0131 -0.1688  0.0391
  134OSM   H15F14499   2.104   0.597   4.161  0.3396 -0.3685 -0.6316
  134OSM   H15G14500   2.116   0.424   4.142  0.8778  0.5576  0.2551
  134OSM   C16F14501   1.974   0.477   4.299  0.2249  0.1156 -0.2724
  134OSM   H16F14502   1.925   0.378   4.313  0.9367 -0.2716 -0.4791
  134OSM   H16G14503   1.896   0.553   4.322 -0.3719 -0.8766  1.1438
  134OSM   C17F14504   2.073   0.499   4.410 -0.4876  0.4242 -0.0435
  134OSM   H17F14505   2.096   0.607   4.420 -0.6712  0.6712 -1.9142
  134OSM   H17G14506   2.171   0.452   4.388 -0.8756  0.4658 -2.0486
  134OSM   C18F14507   2.031   0.448   4.549  0.3531 -0.7093  0.2739
  134OSM   H18F14508   2.105   0.495   4.618  0.6297 -0.1715 -0.3672
  134OSM   H18G14509   2.038   0.338   4.544 -1.3714 -0.8083 -3.1440
  134OSM   H18H14510   1.925   0.474   4.568 -0.3742 -0.5420 -3.2853
  135OSM      N14511   3.699   2.688   2.279 -0.4409  0.2955 -0.0983
  135OSM    C1514512   3.559   2.728   2.253 -0.1335 -0.2068 -0.0831
  135OSM   H15A14513   3.524   2.815   2.307  1.8508  0.1358  0.7381
  135OSM   H15B14514   3.496   2.649   2.291 -1.1515 -0.2699 -1.8209
  135OSM   H15C14515   3.533   2.745   2.150  0.6926 -0.9125 -0.4207
  135OSM    C1414516   3.790   2.806   2.254  0.2727 -0.0849 -0.1233
  135OSM   H14A14517   3.891   2.771   2.266  1.2036  2.2711 -0.4174
  135OSM   H14B14518   3.764   2.889   2.318 -0.2256 -0.2831 -0.0674
  135OSM   H14C14519   3.790   2.830   2.148  0.9945  1.4017  0.1795
  135OSM    C1314520   3.716   2.651   2.415 -0.1404 -0.4159 -0.7527
  135OSM   H13A14521   3.674   2.727   2.480  0.7518  0.2775 -0.9621
  135OSM   H13B14522   3.820   2.630   2.436 -0.3001 -1.3026 -0.8013
  135OSM   H13C14523   3.658   2.567   2.449  2.1159 -1.2074  1.4065
  135OSM    C1214524   3.735   2.576   2.176  0.3435 -0.1339  0.0210
  135OSM   H12A14525   3.705   2.607   2.077  0.8055  1.6526  0.4049
  135OSM   H12B14526   3.657   2.504   2.198 -1.2601  1.6040  0.3037
  135OSM    C1114527   3.880   2.506   2.172 -0.2316  0.4674  0.2606
  135OSM   H11A14528   3.898   2.459   2.073 -1.3965 -1.9902  1.1402
  135OSM   H11B14529   3.880   2.429   2.252  0.6313  0.0863 -0.0977
  135OSM      P14530   4.133   2.556   2.185  0.0739  0.7357 -0.0941
  135OSM    O1314531   4.173   2.512   2.046  0.3469  0.2379 -0.3480
  135OSM    O1414532   4.215   2.660   2.252  0.0902 -0.2123  0.5911
  135OSM    O1114533   4.132   2.427   2.280 -0.2392  0.3238 -0.1844
  135OSM    O1214534   3.980   2.603   2.191 -0.2886  0.0996  0.1382
  135OSM    C1S14535   4.227   2.417   2.387  0.1129  0.6335  0.7182
  135OSM    H1S14536   4.306   2.496   2.388  1.8832 -1.0627  0.9056
  135OSM    H1T14537   4.285   2.324   2.369  3.6960  2.8306 -0.3257
  135OSM     NF14538   4.250   2.403   2.622 -0.4458 -0.6491  0.5074
  135OSM    HNF14539   4.305   2.321   2.634 -0.4491 -0.5265  1.3914
  135OSM    C2S14540   4.149   2.404   2.516 -0.3556 -0.2727 -0.0663
  135OSM    H2S14541   4.077   2.488   2.525 -2.2400 -1.8670  0.4971
  135OSM    C3S14542   4.055   2.273   2.525  0.0716 -0.6214  0.5914
  135OSM    H3S14543   4.113   2.180   2.540 -3.8150 -2.9265  3.0493
  135OSM     O314544   3.972   2.244   2.414  0.5146  0.3232 -0.1798
  135OSM    HO314545   3.994   2.312   2.349  0.5540  1.9910  1.4751
  135OSM    C4S14546   3.978   2.276   2.651  0.5727 -0.1320  0.3693
  135OSM    H4S14547   3.999   2.200   2.727 -0.6705 -1.9211 -0.9777
  135OSM    C5S14548   3.866   2.341   2.674  0.0180  0.3491 -0.3756
  135OSM    H5S14549   3.819   2.387   2.586 -2.2894 -0.9020  0.1130
  135OSM    C6S14550   3.784   2.341   2.796  0.3102  0.0647 -0.5760
  135OSM    H6S14551   3.780   2.243   2.848  0.7577  0.8356  0.9689
  135OSM    H6T14552   3.678   2.361   2.768 -0.4066 -1.5183  0.7767
  135OSM    C7S14553   3.843   2.443   2.900  0.0196 -0.4819  0.0354
  135OSM    H7S14554   3.845   2.540   2.847 -1.9421 -0.6985 -0.5152
  135OSM    H7T14555   3.940   2.411   2.944 -0.6540 -1.5100  0.8377
  135OSM    C8S14556   3.755   2.466   3.017  0.2916 -0.1502 -0.0385
  135OSM    H8S14557   3.720   2.373   3.067 -0.5615  0.7565  1.1139
  135OSM    H8T14558   3.664   2.520   2.980 -0.5835 -1.7266 -0.2948
  135OSM    C9S14559   3.819   2.562   3.114 -0.1053 -0.0335 -0.0666
  135OSM    H9S14560   3.811   2.665   3.074  0.6727  0.2869  0.5725
  135OSM    H9T14561   3.927   2.536   3.122  0.2837  1.4154 -0.4631
  135OSM   C10S14562   3.758   2.543   3.258 -0.1113  0.0477 -0.0390
  135OSM   H10S14563   3.760   2.443   3.307 -4.4794 -0.0902  0.2480
  135OSM   H10T14564   3.650   2.558   3.236 -0.6529 -2.8341  0.2232
  135OSM   C11S14565   3.800   2.663   3.352  0.1657  0.7701  0.3315
  135OSM   H11S14566   3.768   2.750   3.292  0.5915  0.6169 -0.1307
  135OSM   H11T14567   3.911   2.666   3.363  0.1615  0.1474  0.5908
  135OSM   C12S14568   3.736   2.673   3.491 -0.3194 -0.3784 -0.6232
  135OSM   H12S14569   3.640   2.617   3.483 -1.0251  0.8021 -0.6219
  135OSM   H12T14570   3.696   2.775   3.511 -1.0859 -0.8613  0.4128
  135OSM   C13S14571   3.818   2.628   3.610 -0.0024 -0.0764 -0.0742
  135OSM   H13S14572   3.750   2.637   3.698  0.6564 -0.9945  0.5512
  135OSM   H13T14573   3.908   2.686   3.640  0.6313 -0.7306 -0.6842
  135OSM   C14S14574   3.877   2.487   3.601  0.0070 -0.6131  0.0861
  135OSM   H14S14575   3.927   2.483   3.502 -2.2680  2.7476 -1.3940
  135OSM   H14T14576   3.795   2.412   3.603 -0.0377 -0.5417  1.6195
  135OSM   C15S14577   3.970   2.445   3.719  0.7898 -0.6208  0.3563
  135OSM   H15S14578   4.026   2.539   3.739  1.1688 -0.5205 -1.0997
  135OSM   H15T14579   4.041   2.373   3.674  1.6561  0.4323 -0.0140
  135OSM   C16S14580   3.883   2.410   3.846 -0.0220  0.4376  0.5003
  135OSM   H16S14581   3.816   2.326   3.819  0.6602 -0.4945  1.6376
  135OSM   H16T14582   3.806   2.487   3.868 -2.2888 -1.5206 -0.1353
  135OSM   C17S14583   3.969   2.392   3.975 -0.0133  0.9021  1.3169
  135OSM   H17S14584   4.026   2.487   3.990  0.8024  0.5474  0.5401
  135OSM   H17T14585   4.040   2.307   3.964  2.9277  3.2207  1.0236
  135OSM   C18S14586   3.902   2.366   4.114 -0.1715 -0.0650  0.6817
  135OSM   H18S14587   3.822   2.290   4.108 -0.9499  0.8419 -1.4642
  135OSM   H18T14588   3.862   2.461   4.157 -0.9760 -0.6162  1.1723
  135OSM   H18U14589   3.977   2.324   4.184  0.3191 -1.2373 -0.5094
  135OSM    C1F14590   4.297   2.520   2.667 -0.0368 -0.3160 -0.0676
  135OSM     OF14591   4.233   2.625   2.640 -0.0527 -0.6771  0.1742
  135OSM    C2F14592   4.418   2.522   2.756 -0.0570  0.7148 -0.3444
  135OSM    H2F14593   4.506   2.504   2.691  0.7286  1.2100  0.5546
  135OSM    H2G14594   4.399   2.431   2.818 -0.0407 -0.1254 -1.5505
  135OSM    C3F14595   4.429   2.646   2.845 -1.0663  0.7355  0.6937
  135OSM    H3F14596   4.438   2.734   2.777  0.5826  0.8312  0.9999
  135OSM    H3G14597   4.528   2.641   2.896  0.1228  0.0366 -1.5406
  135OSM    C4F14598   4.317   2.672   2.946  0.5412  0.2469 -0.0432
  135OSM    H4F14599   4.316   2.594   3.025 -0.4631  3.2038  3.1201
  135OSM    H4G14600   4.220   2.668   2.891  0.2969  0.1319  0.3865
  135OSM    C5F14601   4.328   2.809   3.018 -0.1984  1.1539  0.7681
  135OSM    H5F14602   4.255   2.813   3.102  0.4832 -0.3235  1.4861
  135OSM    H5G14603   4.299   2.893   2.952 -1.2537  1.6425  1.8268
  135OSM    C6F14604   4.464   2.838   3.069 -0.0266 -0.0917  0.5158
  135OSM    H6F14605   4.534   2.874   2.989  1.1711 -0.8158  1.2046
  135OSM    H6G14606   4.503   2.740   3.102 -0.6173 -0.1726  0.9782
  135OSM    C7F14607   4.481   2.934   3.190  0.0981  0.4692 -0.5944
  135OSM    H7F14608   4.398   3.007   3.200  0.6567  0.8796  1.7186
  135OSM    H7G14609   4.568   3.000   3.165  0.5231 -0.1813 -0.8595
  135OSM    C8F14610   4.485   2.864   3.331  0.3315 -0.0620 -0.3252
  135OSM    H8F14611   4.515   2.935   3.411  2.4262 -0.1967 -0.9453
  135OSM    H8G14612   4.561   2.783   3.330  0.7196  0.2896  0.0463
  135OSM    C9F14613   4.348   2.806   3.358  0.3425 -0.2075 -0.0650
  135OSM    H9F14614   4.315   2.727   3.288  1.2936  0.3021 -1.1276
  135OSM   C10F14615   4.272   2.833   3.467 -0.8175  0.6755 -1.0708
  135OSM   H10F14616   4.174   2.784   3.474 -0.7231  0.6624  0.3381
  135OSM   C11F14617   4.312   2.914   3.588  0.1765  0.5715 -0.5699
  135OSM   H11F14618   4.247   3.004   3.586  1.5175  1.5588 -1.6280
  135OSM   H11G14619   4.417   2.949   3.599  0.0704  0.9002 -0.5975
  135OSM   C12F14620   4.282   2.829   3.717 -0.4913  0.7180 -0.6107
  135OSM   H12F14621   4.326   2.728   3.703 -0.5228  0.8482 -1.7096
  135OSM   H12G14622   4.173   2.808   3.721 -0.4423 -0.0254 -2.1732
  135OSM   C13F14623   4.331   2.900   3.841  0.6199 -0.2822 -0.5064
  135OSM   H13F14624   4.264   2.986   3.863  0.2999 -0.9198  1.1305
  135OSM   H13G14625   4.440   2.920   3.843  0.3577  1.3087  2.3932
  135OSM   C14F14626   4.305   2.817   3.967  0.3199  0.0209 -1.2779
  135OSM   H14F14627   4.201   2.780   3.978  0.9887 -2.8869 -3.3980
  135OSM   H14G14628   4.330   2.888   4.048 -1.1701 -0.4245 -0.3908
  135OSM   C15F14629   4.411   2.708   3.986 -0.5210 -0.1613 -0.0948
  135OSM   H15F14630   4.510   2.758   3.980 -0.1171 -0.1760  3.9461
  135OSM   H15G14631   4.384   2.640   3.902 -0.3464 -1.5883  0.9593
  135OSM   C16F14632   4.408   2.641   4.126 -0.5738 -0.0591  0.2162
  135OSM   H16F14633   4.407   2.720   4.204 -0.9567  0.2641 -0.1090
  135OSM   H16G14634   4.508   2.594   4.137 -0.4435 -0.4905 -2.2820
  135OSM   C17F14635   4.291   2.545   4.160 -0.2619 -0.3684  0.4046
  135OSM   H17F14636   4.289   2.461   4.088 -0.4992  0.4019 -0.4963
  135OSM   H17G14637   4.197   2.602   4.146  1.0115  1.5377 -0.8201
  135OSM   C18F14638   4.283   2.505   4.310  0.1323 -0.3121 -0.0091
  135OSM   H18F14639   4.258   2.604   4.354  1.4381  0.3952 -0.7758
  135OSM   H18G14640   4.384   2.468   4.337  0.2516 -0.7211 -0.9542
  135OSM   H18H14641   4.205   2.430   4.333  1.6612 -1.9438  0.0286
  136OSM      N14642   6.484   5.174   1.879 -0.0174 -0.3387 -0.2528
  136OSM    C1514643   6.606   5.249   1.831  0.1584  0.6959  0.2356
  136OSM   H15A14644   6.598   5.270   1.725 -1.9042 -1.9977 -0.2759
  136OSM   H15B14645   6.691   5.182   1.831 -2.2327 -2.7064 -1.7522
  136OSM   H15C14646   6.624   5.340   1.886  2.0248  0.8762 -0.5833
  136OSM    C1414647   6.381   5.276   1.895 -0.5809 -0.0409  0.0913
  136OSM   H14A14648   6.420   5.358   1.954  1.4161 -1.3724  0.7346
  136OSM   H14B14649   6.299   5.240   1.957 -0.5920 -1.0312 -0.4800
  136OSM   H14C14650   6.329   5.308   1.806 -1.7213  0.8784  1.0514
  136OSM    C1314651   6.444   5.077   1.775  0.1252  0.3175 -0.2425
  136OSM   H13A14652   6.526   5.015   1.741  0.4723  0.6281  0.0187
  136OSM   H13B14653   6.400   5.131   1.692 -2.2590  0.0568  0.7807
  136OSM   H13C14654   6.366   5.006   1.797  1.7636 -2.1569 -1.8541
  136OSM    C1214655   6.522   5.100   2.003 -0.4313  0.9566  0.2867
  136OSM   H12A14656   6.621   5.056   1.997 -0.6583  0.5982 -1.6599
  136OSM   H12B14657   6.452   5.019   2.011 -2.1311  2.1741 -1.3415
  136OSM    C1114658   6.511   5.164   2.146 -0.3560 -0.3789  0.4223
  136OSM   H11A14659   6.566   5.259   2.129  2.1282 -1.8657 -0.3048
  136OSM   H11B14660   6.568   5.114   2.227  1.1221  2.6671  1.4041
  136OSM      P14661   6.270   5.076   2.187  0.1410 -0.4975 -0.1651
  136OSM    O1314662   6.154   5.132   2.109 -0.1550  0.3734 -0.1673
  136OSM    O1414663   6.323   4.948   2.136  0.1567  0.5217  0.0123
  136OSM    O1114664   6.243   5.068   2.341 -0.3360  0.2929  0.0005
  136OSM    O1214665   6.378   5.190   2.183 -0.1888  0.7150 -0.4048
  136OSM    C1S14666   6.230   5.178   2.438  0.1112 -0.3884  0.7452
  136OSM    H1S14667   6.124   5.199   2.461  0.2446  0.8793  0.2718
  136OSM    H1T14668   6.275   5.272   2.401 -0.2146 -0.0968  1.0885
  136OSM     NF14669   6.302   5.266   2.659 -0.2071 -0.6389  0.1440
  136OSM    HNF14670   6.390   5.309   2.680 -0.0748 -1.0307  0.4101
  136OSM    C2S14671   6.291   5.144   2.577 -0.5040 -0.1027 -0.4888
  136OSM    H2S14672   6.213   5.078   2.622 -0.3268  1.9758  3.3433
  136OSM    C3S14673   6.426   5.061   2.573 -0.3676 -1.1004 -0.2442
  136OSM    H3S14674   6.512   5.124   2.540  0.8318 -1.4631  1.9797
  136OSM     O314675   6.428   4.945   2.487 -0.2987 -0.5021  0.4717
  136OSM    HO314676   6.346   4.956   2.437 -1.3294 -0.5954  2.0816
  136OSM    C4S14677   6.455   5.011   2.718 -0.7887 -0.4066 -0.3193
  136OSM    H4S14678   6.540   5.052   2.773 -1.4296 -0.4027  0.6915
  136OSM    C5S14679   6.387   4.913   2.774 -0.0916 -0.1029  0.7295
  136OSM    H5S14680   6.301   4.868   2.721 -0.7638 -0.3905  2.0242
  136OSM    C6S14681   6.404   4.863   2.916  0.1914  0.1181 -0.0532
  136OSM    H6S14682   6.447   4.760   2.914 -0.9372 -0.3826  0.4397
  136OSM    H6T14683   6.305   4.861   2.966 -0.2317 -2.3327 -0.8241
  136OSM    C7S14684   6.490   4.952   3.005  0.4088 -0.3521 -0.7870
  136OSM    H7S14685   6.460   5.058   2.995  1.8151  0.1243 -0.1814
  136OSM    H7T14686   6.597   4.939   2.978  0.7254 -0.2660  0.3701
  136OSM    C8S14687   6.478   4.917   3.151 -0.0185 -0.1981 -0.5259
  136OSM    H8S14688   6.453   4.810   3.171  0.4160 -0.0691  0.7595
  136OSM    H8T14689   6.382   4.960   3.188  0.4035  1.6704 -1.4943
  136OSM    C9S14690   6.596   4.956   3.238  0.3142  0.4648  1.5268
  136OSM    H9S14691   6.629   5.057   3.206 -0.7377  0.5088  0.4982
  136OSM    H9T14692   6.681   4.888   3.217  0.1327  0.6159  0.1647
  136OSM   C10S14693   6.579   4.948   3.385  0.6445  0.1093 -0.4211
  136OSM   H10S14694   6.559   4.842   3.411  0.9668  0.1087 -0.1690
  136OSM   H10T14695   6.499   5.018   3.416 -0.0686 -1.0444  0.4207
  136OSM   C11S14696   6.704   4.998   3.450  0.5155 -0.4156 -0.7307
  136OSM   H11S14697   6.715   5.105   3.421 -0.7984 -0.2123 -0.5769
  136OSM   H11T14698   6.789   4.936   3.415  1.0279  0.7142 -1.5464
  136OSM   C12S14699   6.698   4.988   3.601  0.3863 -0.9773  0.0395
  136OSM   H12S14700   6.723   4.886   3.635 -0.3617 -0.6665  1.5967
  136OSM   H12T14701   6.595   5.019   3.630  0.1761  2.3644 -3.4367
  136OSM   C13S14702   6.792   5.089   3.676 -0.1712  0.0345  0.4360
  136OSM   H13S14703   6.774   5.192   3.640 -0.5750  0.5795  2.1156
  136OSM   H13T14704   6.899   5.061   3.665  0.2878  2.5002 -2.5543
  136OSM   C14S14705   6.750   5.096   3.822  0.0030  0.0408 -0.7712
  136OSM   H14S14706   6.641   5.114   3.832  0.2904  2.1960 -1.1325
  136OSM   H14T14707   6.811   5.177   3.869  1.2612 -1.1854 -0.2071
  136OSM   C15S14708   6.774   4.963   3.901 -0.1856 -0.1648 -0.2250
  136OSM   H15S14709   6.883   4.940   3.892 -0.3162 -1.7973  1.7325
  136OSM   H15T14710   6.725   4.880   3.845  0.8252 -0.4624 -0.6894
  136OSM   C16S14711   6.715   4.974   4.044  0.4512 -0.3699  0.0682
  136OSM   H16S14712   6.614   5.019   4.038  0.9528  1.1150  1.7772
  136OSM   H16T14713   6.774   5.040   4.112  1.1388 -1.1663  0.2603
  136OSM   C17S14714   6.698   4.841   4.106 -0.2739  0.1484 -0.4054
  136OSM   H17S14715   6.655   4.771   4.032 -1.5381 -0.3093  0.7171
  136OSM   H17T14716   6.631   4.851   4.194 -0.4553  2.1844 -0.7231
  136OSM   C18S14717   6.824   4.777   4.172 -0.3335 -0.4570  0.3872
  136OSM   H18S14718   6.796   4.673   4.196 -1.8906 -0.1402  0.0096
  136OSM   H18T14719   6.856   4.837   4.260 -0.4546  1.5654 -0.8573
  136OSM   H18U14720   6.900   4.771   4.091  0.8117  0.6053  1.3380
  136OSM    C1F14721   6.194   5.325   2.706  0.6706  0.1906 -0.0925
  136OSM     OF14722   6.077   5.273   2.701  0.2767  0.1753 -0.0648
  136OSM    C2F14723   6.205   5.466   2.751 -0.4781 -0.3536 -0.8724
  136OSM    H2F14724   6.106   5.516   2.755  0.3007  1.4172 -2.2567
  136OSM    H2G14725   6.279   5.511   2.681  1.9257 -1.1794  1.0048
  136OSM    C3F14726   6.270   5.478   2.893  0.4068  0.1619 -0.3719
  136OSM    H3F14727   6.264   5.587   2.913  0.3331  0.7215 -3.0895
  136OSM    H3G14728   6.377   5.450   2.888  0.9979  2.3241 -1.0746
  136OSM    C4F14729   6.186   5.397   2.998 -0.6500 -0.0038  0.1056
  136OSM    H4F14730   6.197   5.289   2.972  0.7487  0.4659 -1.4775
  136OSM    H4G14731   6.080   5.425   2.987 -0.7599 -0.7347 -0.8538
  136OSM    C5F14732   6.225   5.398   3.143 -0.1315 -0.6863  0.0496
  136OSM    H5F14733   6.172   5.318   3.197  0.6079 -1.4521 -0.3446
  136OSM    H5G14734   6.211   5.497   3.192 -0.2572 -1.0383  0.7265
  136OSM    C6F14735   6.372   5.356   3.167 -0.0953 -0.1067 -0.6337
  136OSM    H6F14736   6.444   5.435   3.137  0.5114 -0.7981 -1.0467
  136OSM    H6G14737   6.393   5.268   3.103  1.7353 -0.0644 -0.1488
  136OSM    C7F14738   6.426   5.321   3.315  0.5611 -0.7573 -1.1002
  136OSM    H7F14739   6.534   5.302   3.295  0.7576  1.1865 -2.0649
  136OSM    H7G14740   6.381   5.226   3.351  0.7767 -0.5301 -0.1989
  136OSM    C8F14741   6.406   5.429   3.417  0.3980  0.6599  0.6175
  136OSM    H8F14742   6.427   5.528   3.372  1.0401  0.8534  1.3271
  136OSM    H8G14743   6.470   5.402   3.504  2.1323 -3.4528 -1.6627
  136OSM    C9F14744   6.254   5.435   3.465  0.1981  0.8124 -0.5604
  136OSM    H9F14745   6.184   5.376   3.404 -1.5309  1.1448  1.0210
  136OSM   C10F14746   6.211   5.499   3.573  0.0980 -0.0461 -0.2728
  136OSM   H10F14747   6.102   5.502   3.591 -0.1749 -1.0454 -1.6002
  136OSM   C11F14748   6.295   5.575   3.671  0.4427 -0.3328  0.6830
  136OSM   H11F14749   6.369   5.628   3.607 -0.6742  0.2314 -0.1713
  136OSM   H11G14750   6.358   5.505   3.729  0.5325 -0.8810 -0.0657
  136OSM   C12F14751   6.213   5.663   3.760 -0.6430 -0.4861 -0.6350
  136OSM   H12F14752   6.129   5.616   3.814  0.3033 -1.6540 -0.1316
  136OSM   H12G14753   6.166   5.755   3.720  2.3265  1.1913 -0.6062
  136OSM   C13F14754   6.306   5.720   3.871 -0.6902 -0.4137  0.1127
  136OSM   H13F14755   6.405   5.753   3.832 -0.8774  1.2580  0.9567
  136OSM   H13G14756   6.337   5.637   3.937  2.8257  2.1355  2.0338
  136OSM   C14F14757   6.243   5.845   3.947 -0.0070 -0.0893  0.3002
  136OSM   H14F14758   6.149   5.814   3.996 -0.9901 -1.0258 -2.0391
  136OSM   H14G14759   6.221   5.924   3.872  0.9895 -0.0433  0.0319
  136OSM   C15F14760   6.339   5.913   4.046 -0.0364  0.2828 -0.0057
  136OSM   H15F14761   6.432   5.945   3.994  0.1820  0.6702  0.6064
  136OSM   H15G14762   6.354   5.839   4.128 -1.0648 -0.3415 -0.3714
  136OSM   C16F14763   6.269   6.028   4.119 -0.4824  0.3771 -0.0305
  136OSM   H16F14764   6.336   6.067   4.199  2.1068 -0.9719 -1.4216
  136OSM   H16G14765   6.172   6.010   4.170  0.9058  0.6169  2.8911
  136OSM   C17F14766   6.258   6.152   4.028  0.5011 -0.1260  0.5085
  136OSM   H17F14767   6.199   6.129   3.937  0.0364  1.5064  0.3682
  136OSM   H17G14768   6.362   6.178   3.999  0.3801 -0.1857  0.0139
  136OSM   C18F14769   6.181   6.266   4.093 -0.4819 -0.6029 -0.6966
  136OSM   H18F14770   6.254   6.317   4.160 -0.5678 -0.0677 -1.0077
  136OSM   H18G14771   6.094   6.229   4.152 -0.9445  0.4246 -0.7263
  136OSM   H18H14772   6.153   6.342   4.017 -2.4538 -1.1947 -0.6183
  137OSM      N14773   5.591   4.931   1.952 -0.2297 -0.1319  0.7629
  137OSM    C1514774   5.572   4.786   1.981  0.5745  0.5306  0.0386
  137OSM   H15A14775   5.533   4.743   1.889  1.4163 -1.5676  0.6072
  137OSM   H15B14776   5.485   4.771   2.044  0.6681 -2.3801 -0.3511
  137OSM   H15C14777   5.661   4.733   2.011  0.2942  0.0900  0.1154
  137OSM    C1414778   5.680   4.950   1.841  0.0734  0.4419  0.6369
  137OSM   H14A14779   5.689   5.057   1.826 -1.2972  0.6442  1.0798
  137OSM   H14B14780   5.638   4.919   1.746 -1.6345  1.5095  0.9916
  137OSM   H14C14781   5.782   4.927   1.867 -0.4831 -2.0416  0.9035
  137OSM    C1314782   5.468   5.000   1.900  0.3732 -0.3549 -0.2381
  137OSM   H13A14783   5.429   4.951   1.811 -0.8103 -1.1907  0.7102
  137OSM   H13B14784   5.486   5.104   1.881  2.7498 -0.8844 -1.2808
  137OSM   H13C14785   5.381   4.992   1.964  1.1670 -0.1253  0.8992
  137OSM    C1214786   5.633   5.004   2.081  0.5615 -0.3036 -0.1365
  137OSM   H12A14787   5.710   4.948   2.131 -1.0029 -1.5000  1.0177
  137OSM   H12B14788   5.556   4.999   2.156  0.6300  1.7264  0.1328
  137OSM    C1114789   5.687   5.149   2.080  0.0481 -0.6416 -0.0288
  137OSM   H11A14790   5.778   5.144   2.016  1.6303  0.8800  1.9698
  137OSM   H11B14791   5.710   5.178   2.185  0.0139  1.3503 -0.5260
  137OSM      P14792   5.470   5.287   2.108  0.3339  0.1524  0.1903
  137OSM    O1314793   5.485   5.432   2.153 -0.4987  0.5744  0.2101
  137OSM    O1414794   5.347   5.247   2.025 -0.1874  0.1330  0.3504
  137OSM    O1114795   5.478   5.192   2.232  0.1088  0.1839 -0.5310
  137OSM    O1214796   5.598   5.244   2.024  1.0103  0.0456  0.3745
  137OSM    C1S14797   5.506   5.234   2.368 -0.5550  0.0330  0.8244
  137OSM    H1S14798   5.456   5.328   2.398  3.7989  2.7682  0.4185
  137OSM    H1T14799   5.613   5.263   2.373 -0.3462 -0.8190  1.7339
  137OSM     NF14800   5.555   5.170   2.603  0.2284 -0.1122  0.1428
  137OSM    HNF14801   5.634   5.117   2.631  0.3799  0.9947  1.9619
  137OSM    C2S14802   5.486   5.126   2.483  0.3966  0.6538 -0.6334
  137OSM    H2S14803   5.377   5.130   2.502  0.3263 -2.0778  0.0124
  137OSM    C3S14804   5.508   4.984   2.439 -0.3383  1.1457 -0.0586
  137OSM    H3S14805   5.611   4.971   2.400 -0.8616 -0.8923 -0.9095
  137OSM     O314806   5.425   4.936   2.329 -0.5702  0.0663  0.1361
  137OSM    HO314807   5.408   5.018   2.283  2.1371  0.8680  0.4136
  137OSM    C4S14808   5.486   4.888   2.558  0.0573  0.3056  0.0939
  137OSM    H4S14809   5.583   4.884   2.608  1.5047  1.2313 -2.4392
  137OSM    C5S14810   5.377   4.834   2.613  0.5695  0.3627 -0.0632
  137OSM    H5S14811   5.277   4.846   2.569  0.9567 -0.6577 -1.2806
  137OSM    C6S14812   5.360   4.744   2.734 -0.2092  0.3045 -0.5466
  137OSM    H6S14813   5.282   4.669   2.709 -0.1348  0.0917 -0.1414
  137OSM    H6T14814   5.322   4.798   2.823 -3.0896 -2.0109 -0.2418
  137OSM    C7S14815   5.493   4.669   2.779 -0.6355  0.0763 -0.1724
  137OSM    H7S14816   5.575   4.733   2.818  0.1660 -1.0822  0.0859
  137OSM    H7T14817   5.534   4.624   2.686  2.1872  0.5025  0.7667
  137OSM    C8S14818   5.481   4.569   2.896 -0.1333 -0.3462 -0.1262
  137OSM    H8S14819   5.397   4.502   2.867 -0.6396  0.5626 -0.8240
  137OSM    H8T14820   5.450   4.616   2.991  1.4583 -3.6808  2.2400
  137OSM    C9S14821   5.610   4.484   2.921  0.5998 -0.4577 -0.3024
  137OSM    H9S14822   5.699   4.550   2.927  1.0709 -1.0489 -0.7230
  137OSM    H9T14823   5.632   4.418   2.834  1.1336  0.8030 -1.1638
  137OSM   C10S14824   5.604   4.403   3.048  0.2019 -0.4775 -0.2907
  137OSM   H10S14825   5.537   4.316   3.035 -1.4379  0.3054  2.3472
  137OSM   H10T14826   5.559   4.463   3.129  1.3786 -2.1486  1.7026
  137OSM   C11S14827   5.746   4.342   3.091 -0.0404 -0.5585  0.3986
  137OSM   H11S14828   5.812   4.425   3.122  1.5029 -1.4616 -0.3347
  137OSM   H11T14829   5.781   4.294   2.996  1.1720 -0.1489  0.6283
  137OSM   C12S14830   5.718   4.241   3.200 -0.3002  0.0936  0.6275
  137OSM   H12S14831   5.817   4.198   3.228 -0.5362 -1.0666 -0.2238
  137OSM   H12T14832   5.677   4.148   3.155 -1.8950 -0.3787  2.9193
  137OSM   C13S14833   5.651   4.277   3.332 -0.0070 -0.3556 -0.4168
  137OSM   H13S14834   5.546   4.311   3.320 -0.6126 -1.0003  2.3627
  137OSM   H13T14835   5.712   4.355   3.384 -0.1332 -0.0477 -0.7270
  137OSM   C14S14836   5.652   4.154   3.426  0.4221  0.7802  0.2723
  137OSM   H14S14837   5.628   4.196   3.526 -1.4649  0.8030 -0.1402
  137OSM   H14T14838   5.751   4.106   3.440 -0.5928 -1.1279  1.2930
  137OSM   C15S14839   5.540   4.055   3.380 -0.1212  0.1319 -0.7647
  137OSM   H15S14840   5.585   3.989   3.302 -2.0392 -0.0017 -1.8211
  137OSM   H15T14841   5.467   4.107   3.314 -0.5641  2.6589  1.5631
  137OSM   C16S14842   5.469   3.976   3.489 -0.3376 -0.3478  0.6228
  137OSM   H16S14843   5.439   4.048   3.568 -0.6802 -1.4835  1.5572
  137OSM   H16T14844   5.547   3.915   3.538  0.2045  0.9228  1.3759
  137OSM   C17S14845   5.350   3.893   3.436  0.3231 -0.5588  0.5296
  137OSM   H17S14846   5.286   3.968   3.384  1.1184  0.3521  0.8279
  137OSM   H17T14847   5.293   3.848   3.520 -1.5876  0.1216 -0.3311
  137OSM   C18S14848   5.396   3.783   3.341  0.2098 -0.2567 -0.3461
  137OSM   H18S14849   5.451   3.825   3.254 -1.7030 -0.6731 -1.8416
  137OSM   H18T14850   5.309   3.733   3.293 -0.5035 -0.8151  1.4242
  137OSM   H18U14851   5.456   3.702   3.388 -0.2275 -0.3544  0.0567
  137OSM    C1F14852   5.517   5.280   2.676 -0.1956  0.2006 -0.4203
  137OSM     OF14853   5.404   5.322   2.655 -0.3604 -0.0519 -0.5944
  137OSM    C2F14854   5.617   5.332   2.777 -0.3073  0.2597 -0.0777
  137OSM    H2F14855   5.661   5.427   2.738 -0.2368 -0.1746 -1.1135
  137OSM    H2G14856   5.706   5.265   2.783 -0.2219  0.3927  0.1395
  137OSM    C3F14857   5.550   5.361   2.912  0.9564  0.4286 -0.1481
  137OSM    H3F14858   5.521   5.269   2.967  0.6981  2.0289  2.5944
  137OSM    H3G14859   5.464   5.426   2.884  2.2489  1.5939 -1.6495
  137OSM    C4F14860   5.626   5.443   3.021  0.3819  0.2712 -0.3150
  137OSM    H4F14861   5.564   5.434   3.113  3.6495 -0.5610  2.0084
  137OSM    H4G14862   5.628   5.550   2.991  1.4166  0.7582  1.3713
  137OSM    C5F14863   5.761   5.394   3.048 -0.5706 -0.0250  0.0443
  137OSM    H5F14864   5.826   5.403   2.959 -2.6500  2.1984 -1.3640
  137OSM    H5G14865   5.742   5.285   3.056 -1.5356  0.1672  0.4852
  137OSM    C6F14866   5.823   5.463   3.170  0.2686  0.1511 -0.4055
  137OSM    H6F14867   5.769   5.559   3.183  0.9565  0.8069 -2.1103
  137OSM    H6G14868   5.931   5.490   3.165 -0.2218  2.3030 -0.2866
  137OSM    C7F14869   5.793   5.385   3.301 -0.7170  0.1045 -0.2295
  137OSM    H7F14870   5.816   5.277   3.285  1.4145  0.0376  2.6719
  137OSM    H7G14871   5.683   5.390   3.319 -0.4965  0.4258  1.1106
  137OSM    C8F14872   5.859   5.452   3.419  0.0965  0.6064  0.5457
  137OSM    H8F14873   5.785   5.518   3.470  0.3173  0.4084  1.1309
  137OSM    H8G14874   5.946   5.515   3.389 -0.4125  2.4899  2.7407
  137OSM    C9F14875   5.894   5.339   3.520 -0.0066  0.6080  0.3354
  137OSM    H9F14876   5.990   5.290   3.500  0.2040  1.6800 -1.5031
  137OSM   C10F14877   5.812   5.293   3.612 -0.4742  0.2689 -0.0038
  137OSM   H10F14878   5.856   5.211   3.670  2.5304 -0.6462 -3.1898
  137OSM   C11F14879   5.680   5.336   3.649 -0.2574 -0.7182  0.2230
  137OSM   H11F14880   5.647   5.432   3.604  1.1173  0.6885  2.0510
  137OSM   H11G14881   5.687   5.369   3.755  1.5058 -2.1179  0.5721
  137OSM   C12F14882   5.558   5.246   3.636  0.0420 -0.4201  0.2857
  137OSM   H12F14883   5.466   5.303   3.661 -0.5337 -1.2412  0.0947
  137OSM   H12G14884   5.557   5.169   3.717 -1.4820  0.5644  1.2721
  137OSM   C13F14885   5.548   5.181   3.495  0.0779  0.1403  0.3177
  137OSM   H13F14886   5.647   5.139   3.468 -0.0214 -0.0707  0.2820
  137OSM   H13G14887   5.523   5.262   3.422  0.7444  0.0354 -0.0318
  137OSM   C14F14888   5.444   5.065   3.487  0.2473  0.4172  0.2727
  137OSM   H14F14889   5.381   5.063   3.395 -2.6542 -0.8809  2.1266
  137OSM   H14G14890   5.375   5.083   3.572 -0.0950  4.8624 -0.7325
  137OSM   C15F14891   5.504   4.931   3.526  0.2749 -0.2549  0.2452
  137OSM   H15F14892   5.423   4.856   3.541  0.8881 -1.7680 -3.2051
  137OSM   H15G14893   5.551   4.931   3.627  2.6043  0.5228 -0.7674
  137OSM   C16F14894   5.590   4.881   3.411  0.1654 -0.1740  0.2439
  137OSM   H16F14895   5.672   4.955   3.401  0.6755 -0.4553  2.0368
  137OSM   H16G14896   5.538   4.885   3.312  0.4343 -2.6861 -0.0648
  137OSM   C17F14897   5.641   4.737   3.420  0.4151  0.1953  0.6711
  137OSM   H17F14898   5.550   4.674   3.426  0.1122  0.5262 -0.3184
  137OSM   H17G14899   5.692   4.729   3.518  1.1677  1.5810  0.4230
  137OSM   C18F14900   5.732   4.691   3.310 -0.6509 -0.6578 -0.0049
  137OSM   H18F14901   5.820   4.759   3.302 -0.7298 -0.3522  1.4252
  137OSM   H18G14902   5.671   4.696   3.217  0.4155 -0.2414 -0.7085
  137OSM   H18H14903   5.769   4.586   3.313  1.3963  0.0281  1.6100
  138OSM      N14904   2.112   6.778   1.910 -0.2162 -0.1110 -0.4324
  138OSM    C1514905   2.193   6.753   2.032 -0.5083 -0.7045  0.7273
  138OSM   H15A14906   2.195   6.836   2.101  2.3560 -0.7509  0.8218
  138OSM   H15B14907   2.300   6.757   2.015 -0.6277 -0.6495 -0.0793
  138OSM   H15C14908   2.161   6.666   2.087 -2.6012 -0.3505  0.1600
  138OSM    C1414909   2.157   6.888   1.820 -0.7545  0.4545 -0.0689
  138OSM   H14A14910   2.262   6.879   1.795  0.0220  2.9591  1.8377
  138OSM   H14B14911   2.160   6.979   1.879  1.5488 -1.4506  3.1199
  138OSM   H14C14912   2.104   6.901   1.727 -1.0695  3.4676  0.4182
  138OSM    C1314913   2.107   6.654   1.823  0.1961  0.1071 -0.5946
  138OSM   H13A14914   2.209   6.628   1.800  0.9681  2.0990  0.2888
  138OSM   H13B14915   2.056   6.668   1.729 -1.5210 -0.8493  0.1489
  138OSM   H13C14916   2.065   6.574   1.883 -0.5313  1.3017  0.5696
  138OSM    C1214917   1.971   6.814   1.960 -1.6648  0.1266  0.3331
  138OSM   H12A14918   1.976   6.900   2.025 -2.3163  1.3363 -1.1523
  138OSM   H12B14919   1.946   6.725   2.017  0.0855  0.7319  2.1445
  138OSM    C1114920   1.857   6.839   1.866  0.4267 -0.3011  0.0162
  138OSM   H11A14921   1.762   6.809   1.915  0.4914 -1.1105 -0.3381
  138OSM   H11B14922   1.857   6.781   1.771 -0.7949  2.3777 -1.7314
  138OSM      P14923   1.800   7.102   1.915  0.0711 -0.1777  0.5238
  138OSM    O1314924   1.864   7.224   1.866 -0.0074  0.3726  0.2070
  138OSM    O1414925   1.655   7.101   1.909 -0.6738  0.0377  0.1982
  138OSM    O1114926   1.842   7.065   2.063  0.6592 -0.2444  0.4879
  138OSM    O1214927   1.850   6.979   1.826 -0.1865  0.3361  0.0831
  138OSM    C1S14928   1.932   7.161   2.124  0.2123 -0.5893 -0.2581
  138OSM    H1S14929   1.895   7.265   2.109 -1.6527 -1.5059 -2.6645
  138OSM    H1T14930   2.037   7.154   2.086  0.4538  1.7204 -0.1537
  138OSM     NF14931   2.030   7.240   2.348 -0.1711  0.3676 -0.2431
  138OSM    HNF14932   2.106   7.197   2.396  0.1066 -0.2268 -1.1885
  138OSM    C2S14933   1.937   7.148   2.279  0.3329  0.1659 -0.2942
  138OSM    H2S14934   1.834   7.179   2.309  0.1115 -0.1711 -0.6874
  138OSM    C3S14935   1.948   6.995   2.327  0.1000 -0.1380 -0.0285
  138OSM    H3S14936   2.053   6.959   2.323  0.3211  0.5132 -0.2896
  138OSM     O314937   1.872   6.898   2.250 -0.2463  0.6790  0.1496
  138OSM    HO314938   1.846   6.948   2.172  1.2727  0.0740 -0.7961
  138OSM    C4S14939   1.925   6.986   2.474  0.2568 -0.0050  0.1881
  138OSM    H4S14940   2.020   6.992   2.528  0.1016 -0.3186  0.4959
  138OSM    C5S14941   1.799   6.987   2.535 -0.0256 -0.5671  0.5790
  138OSM    H5S14942   1.705   6.983   2.478 -1.2349 -0.8216  2.5092
  138OSM    C6S14943   1.776   7.005   2.682  0.1215  0.4612 -0.1471
  138OSM    H6S14944   1.737   6.911   2.726  1.1653 -0.0341 -0.2634
  138OSM    H6T14945   1.704   7.088   2.704 -0.2456  0.0310  0.2929
  138OSM    C7S14946   1.903   7.046   2.764  0.1505 -0.1910 -0.2710
  138OSM    H7S14947   1.938   7.143   2.723 -0.1924 -0.7568 -2.0284
  138OSM    H7T14948   1.977   6.965   2.750 -1.0537 -1.3580 -0.0456
  138OSM    C8S14949   1.879   7.074   2.917  0.5619  0.4938 -0.0119
  138OSM    H8S14950   1.981   7.086   2.958  0.4286 -1.4613  1.0226
  138OSM    H8T14951   1.836   6.990   2.976  3.5679  0.1519  1.9107
  138OSM    C9S14952   1.794   7.191   2.939  0.9353  0.1604  0.1339
  138OSM    H9S14953   1.689   7.176   2.908 -0.2158 -0.1197  3.6902
  138OSM    H9T14954   1.831   7.279   2.882 -1.8618  1.5448  0.3078
  138OSM   C10S14955   1.773   7.228   3.083 -0.6246 -0.7978  0.1864
  138OSM   H10S14956   1.872   7.252   3.127 -0.5315 -2.9006  1.2320
  138OSM   H10T14957   1.736   7.140   3.139 -2.7463 -0.1311 -0.0824
  138OSM   C11S14958   1.676   7.348   3.113 -0.1817  0.6616  0.5774
  138OSM   H11S14959   1.581   7.323   3.060  1.1631 -1.6759 -0.9135
  138OSM   H11T14960   1.714   7.441   3.064  1.8619 -0.6858 -0.5318
  138OSM   C12S14961   1.651   7.367   3.265 -0.4074 -0.7415 -0.3711
  138OSM   H12S14962   1.747   7.383   3.319 -0.8544  0.6681  0.0576
  138OSM   H12T14963   1.599   7.275   3.297 -0.2717 -0.6365  0.1751
  138OSM   C13S14964   1.561   7.489   3.302 -0.4318  0.4010  1.0762
  138OSM   H13S14965   1.458   7.450   3.284  0.1485 -1.1426  0.9999
  138OSM   H13T14966   1.583   7.580   3.242 -3.8561  1.0812  0.6490
  138OSM   C14S14967   1.569   7.543   3.451 -0.1636  0.7638 -0.1569
  138OSM   H14S14968   1.492   7.624   3.451 -0.1814  0.9198  3.6928
  138OSM   H14T14969   1.668   7.592   3.456 -0.6796  1.8092  0.2818
  138OSM   C15S14970   1.538   7.438   3.562 -0.0797 -0.1708  0.2018
  138OSM   H15S14971   1.586   7.341   3.537  0.7439  0.2998 -0.0888
  138OSM   H15T14972   1.429   7.418   3.568 -0.1650  0.6517  1.4933
  138OSM   C16S14973   1.582   7.480   3.702  0.2796  0.6895  0.1598
  138OSM   H16S14974   1.550   7.586   3.700 -0.6613  0.4404  0.9951
  138OSM   H16T14975   1.692   7.490   3.709  0.5684  0.8902 -3.1586
  138OSM   C17S14976   1.510   7.395   3.809  0.2865 -0.2354 -0.4765
  138OSM   H17S14977   1.536   7.287   3.808  0.4174 -0.3008  2.3343
  138OSM   H17T14978   1.400   7.393   3.792  0.6159  0.2422 -3.2064
  138OSM   C18S14979   1.535   7.445   3.950 -0.1475 -0.1534  0.3639
  138OSM   H18S14980   1.485   7.542   3.973  1.9078  0.1329  4.4278
  138OSM   H18T14981   1.640   7.468   3.975  0.2171  1.2490 -2.0838
  138OSM   H18U14982   1.500   7.379   4.032 -0.3124  1.7493  1.8947
  138OSM    C1F14983   2.036   7.375   2.343  0.1215  0.9595 -0.3795
  138OSM     OF14984   1.977   7.435   2.251  0.2250  0.0187 -0.0502
  138OSM    C2F14985   2.114   7.433   2.456 -0.2368  0.1958  0.0062
  138OSM    H2F14986   2.212   7.462   2.411 -0.0978 -1.9636 -1.2365
  138OSM    H2G14987   2.145   7.362   2.535 -1.0207 -1.1048 -0.8091
  138OSM    C3F14988   2.047   7.557   2.506  0.6246  0.3821  0.0158
  138OSM    H3F14989   2.009   7.618   2.421  1.0526  1.2684  0.4548
  138OSM    H3G14990   2.117   7.623   2.561  0.4714 -0.6944  1.5615
  138OSM    C4F14991   1.923   7.516   2.590  0.1949 -0.5513 -0.1222
  138OSM    H4F14992   1.945   7.433   2.660 -2.8858 -1.9306 -0.6336
  138OSM    H4G14993   1.844   7.489   2.518 -1.3116  1.0713  0.8437
  138OSM    C5F14994   1.870   7.639   2.678  0.4480 -0.0589  0.1107
  138OSM    H5F14995   1.769   7.605   2.711  0.1661  1.2057  0.6164
  138OSM    H5G14996   1.853   7.734   2.623 -0.8642  1.2208  2.5468
  138OSM    C6F14997   1.965   7.665   2.799  0.1638 -0.4046  0.5089
  138OSM    H6F14998   2.051   7.717   2.751 -1.6650  1.8181 -0.5780
  138OSM    H6G14999   2.004   7.570   2.840  1.6023 -0.8244 -1.6570
  138OSM    C7F15000   1.908   7.744   2.915 -0.1945 -0.2980 -0.1304
  138OSM    H7F15001   1.816   7.713   2.968  0.0872 -0.6593  0.1551
  138OSM    H7G15002   1.869   7.837   2.869  0.5667  0.2567  0.3252
  138OSM    C8F15003   2.012   7.803   3.014  0.2680 -0.2382 -0.3247
  138OSM    H8F15004   1.968   7.888   3.069 -0.0260 -1.6354  1.7246
  138OSM    H8G15005   2.105   7.844   2.968  0.8906  0.1954  1.2511
  138OSM    C9F15006   2.052   7.694   3.113  0.0013 -0.0812  0.0743
  138OSM    H9F15007   2.070   7.598   3.061  1.0855 -0.5126  1.1925
  138OSM   C10F15008   2.048   7.700   3.247 -0.2097 -0.1482 -0.8276
  138OSM   H10F15009   2.081   7.616   3.310 -0.6403 -0.2120 -0.6884
  138OSM   C11F15010   2.015   7.811   3.344 -0.1551 -0.3211 -0.2229
  138OSM   H11F15011   1.971   7.903   3.299  2.6870  1.8496  1.0760
  138OSM   H11G15012   2.113   7.851   3.379 -0.9400  1.6000 -0.0685
  138OSM   C12F15013   1.935   7.752   3.459  0.0975 -0.3932 -0.4504
  138OSM   H12F15014   1.986   7.660   3.498 -0.2520  0.0646  1.1765
  138OSM   H12G15015   1.838   7.720   3.416 -0.0032 -0.8242  0.0827
  138OSM   C13F15016   1.916   7.847   3.581 -0.0451  0.0218 -0.0010
  138OSM   H13F15017   1.862   7.941   3.559 -0.6014  0.5398  3.1035
  138OSM   H13G15018   2.020   7.859   3.619  0.4194  1.0161 -1.5179
  138OSM   C14F15019   1.840   7.782   3.696 -0.2539  1.2694  0.4285
  138OSM   H14F15020   1.916   7.709   3.731 -0.0169  0.5234 -1.5391
  138OSM   H14G15021   1.756   7.723   3.655  1.4725 -1.8222  0.9917
  138OSM   C15F15022   1.797   7.883   3.800  0.2691 -0.1742 -0.0041
  138OSM   H15F15023   1.704   7.935   3.770  0.4186 -0.3037 -0.7019
  138OSM   H15G15024   1.874   7.962   3.792  0.5649 -0.4182  0.3459
  138OSM   C16F15025   1.831   7.846   3.951 -0.0109  0.7623  0.0192
  138OSM   H16F15026   1.939   7.818   3.956 -0.0501  0.7452  0.9535
  138OSM   H16G15027   1.772   7.752   3.962  1.0705 -0.0930 -1.1414
  138OSM   C17F15028   1.788   7.957   4.045 -0.1164  0.0367 -0.7460
  138OSM   H17F15029   1.683   7.994   4.045 -0.3548 -0.4133  2.1176
  138OSM   H17G15030   1.844   8.044   4.005 -0.6482 -0.1990 -2.0554
  138OSM   C18F15031   1.822   7.940   4.193 -0.3243 -0.5565 -1.0294
  138OSM   H18F15032   1.929   7.911   4.202 -0.5576 -0.9251  0.9029
  138OSM   H18G15033   1.752   7.865   4.236  1.1056 -0.8015  1.0036
  138OSM   H18H15034   1.808   8.033   4.251  0.9494 -1.3719  0.6486
  139OSM      N15035   6.375   3.295   2.050 -0.0064 -0.2634  0.6420
  139OSM    C1515036   6.483   3.393   2.116 -0.1618  1.0899 -0.1803
  139OSM   H15A15037   6.538   3.438   2.035 -0.8418  0.1633 -1.1979
  139OSM   H15B15038   6.550   3.345   2.185  0.5477 -0.1528 -1.6585
  139OSM   H15C15039   6.442   3.481   2.162  0.8490  0.3854  2.2101
  139OSM    C1415040   6.290   3.385   1.964  0.0292 -1.0103 -0.3207
  139OSM   H14A15041   6.348   3.438   1.890 -0.0797 -1.5188 -0.7811
  139OSM   H14B15042   6.237   3.465   2.014 -0.8262 -1.0520 -1.1153
  139OSM   H14C15043   6.217   3.332   1.904 -2.2351  1.2876  0.2188
  139OSM    C1315044   6.437   3.191   1.968  0.1748 -0.3769 -0.1915
  139OSM   H13A15045   6.495   3.229   1.885  0.3451 -0.1400  0.0342
  139OSM   H13B15046   6.362   3.123   1.930 -1.3959  2.3984 -2.4146
  139OSM   H13C15047   6.504   3.131   2.028  1.2597 -1.4508 -2.3212
  139OSM    C1215048   6.292   3.230   2.164  0.6350  0.0656  0.2031
  139OSM   H12A15049   6.223   3.162   2.116 -1.3015  2.3985 -0.5374
  139OSM   H12B15050   6.232   3.302   2.218 -0.6161 -1.1463  0.4874
  139OSM    C1115051   6.358   3.153   2.270 -0.2895  0.0801  0.1829
  139OSM   H11A15052   6.287   3.124   2.351 -0.0358 -1.2754 -0.0457
  139OSM   H11B15053   6.444   3.205   2.317  1.9419 -3.3477  0.3164
  139OSM      P15054   6.331   2.899   2.187  0.1032 -0.2700  0.1622
  139OSM    O1315055   6.225   2.935   2.092  0.3505  0.8657 -0.0431
  139OSM    O1415056   6.420   2.790   2.140  0.5905  0.1727  0.2733
  139OSM    O1115057   6.275   2.861   2.325  0.1297 -0.3568  0.8921
  139OSM    O1215058   6.417   3.030   2.216  0.2523  0.3294  0.0809
  139OSM    C1S15059   6.351   2.802   2.433  0.0264  0.4355 -0.7484
  139OSM    H1S15060   6.453   2.846   2.440 -0.4868  1.4019  1.2869
  139OSM    H1T15061   6.379   2.699   2.402 -0.7585  0.5496 -1.9130
  139OSM     NF15062   6.388   2.718   2.662  0.1008  0.4455  0.1607
  139OSM    HNF15063   6.365   2.626   2.690 -2.3883  1.5268  2.1358
  139OSM    C2S15064   6.288   2.787   2.579 -0.4381 -0.3918  1.0915
  139OSM    H2S15065   6.271   2.890   2.615 -1.1349 -0.2263  0.3210
  139OSM    C3S15066   6.148   2.718   2.563 -0.1693  0.7432  0.1468
  139OSM    H3S15067   6.164   2.609   2.548  3.0121  0.9959  1.0010
  139OSM     O315068   6.067   2.763   2.452  0.0625  0.4492  0.1053
  139OSM    HO315069   6.136   2.811   2.406  2.0535 -1.2168  1.1296
  139OSM    C4S15070   6.075   2.717   2.690 -0.1422 -0.8126 -0.3764
  139OSM    H4S15071   6.093   2.625   2.747  0.2723 -2.1650 -2.5470
  139OSM    C5S15072   5.977   2.804   2.722  0.2344 -0.2699 -0.2757
  139OSM    H5S15073   5.941   2.875   2.646  0.5170  1.6254  1.2977
  139OSM    C6S15074   5.883   2.800   2.834 -0.0903  0.3977 -0.4684
  139OSM    H6S15075   5.787   2.770   2.786  0.5422 -2.7849  0.0672
  139OSM    H6T15076   5.874   2.889   2.901  3.3997 -0.5801  1.5500
  139OSM    C7S15077   5.919   2.688   2.934  0.2101  0.4938  0.1488
  139OSM    H7S15078   6.025   2.697   2.965 -1.0339  1.8058  4.7950
  139OSM    H7T15079   5.905   2.591   2.882  0.6218 -0.1487  1.2165
  139OSM    C8S15080   5.837   2.709   3.061 -0.4684  0.0715  0.1637
  139OSM    H8S15081   5.729   2.687   3.046 -0.2685 -0.8498  0.0173
  139OSM    H8T15082   5.840   2.815   3.092  1.0866  0.4962 -1.2969
  139OSM    C9S15083   5.884   2.619   3.175  0.4689  0.3433 -0.0994
  139OSM    H9S15084   5.985   2.647   3.213 -0.0432 -0.5226  2.0524
  139OSM    H9T15085   5.895   2.519   3.129  1.2410  0.7589 -0.8408
  139OSM   C10S15086   5.792   2.620   3.296  0.5926  0.3412  0.3580
  139OSM   H10S15087   5.689   2.599   3.261  1.2611 -1.4174 -0.6740
  139OSM   H10T15088   5.787   2.722   3.340 -0.4486  0.4129  0.0968
  139OSM   C11S15089   5.850   2.521   3.403  0.2452  0.1461  0.2110
  139OSM   H11S15090   5.956   2.546   3.423  0.5733 -0.8637 -0.1890
  139OSM   H11T15091   5.836   2.414   3.377  0.9106  0.2549 -0.6385
  139OSM   C12S15092   5.785   2.555   3.537 -0.0847 -0.4194  0.5514
  139OSM   H12S15093   5.675   2.562   3.522 -0.0046 -2.3120 -1.7354
  139OSM   H12T15094   5.824   2.654   3.567 -1.2408 -0.0563  0.8903
  139OSM   C13S15095   5.832   2.456   3.653 -0.6422 -0.2829 -0.6127
  139OSM   H13S15096   5.941   2.458   3.672 -0.8259 -1.1896  0.6688
  139OSM   H13T15097   5.802   2.352   3.627  0.4456 -0.3110 -1.8691
  139OSM   C14S15098   5.764   2.493   3.787 -0.3117  0.7014  0.3477
  139OSM   H14S15099   5.654   2.488   3.769 -0.2656  1.7199 -0.2722
  139OSM   H14T15100   5.786   2.599   3.808 -1.2964  0.8677  0.5817
  139OSM   C15S15101   5.830   2.413   3.902  0.5039  0.0789 -0.2416
  139OSM   H15S15102   5.941   2.408   3.898  0.5085 -1.2708  0.8815
  139OSM   H15T15103   5.799   2.307   3.890  0.9986 -0.2706  1.2832
  139OSM   C16S15104   5.777   2.466   4.039  0.1386  0.0027  0.8003
  139OSM   H16S15105   5.676   2.422   4.053 -0.6511  1.4553 -0.0844
  139OSM   H16T15106   5.752   2.573   4.024 -2.7108 -0.5271  1.1005
  139OSM   C17S15107   5.874   2.448   4.154 -0.2814 -0.1732  0.2458
  139OSM   H17S15108   5.972   2.486   4.119 -0.8060  2.3440  1.3460
  139OSM   H17T15109   5.887   2.340   4.175  0.9358  0.1923  1.4265
  139OSM   C18S15110   5.828   2.522   4.281 -1.0043 -0.2534 -0.4028
  139OSM   H18S15111   5.809   2.629   4.260 -1.3130  0.0535  1.2888
  139OSM   H18T15112   5.897   2.501   4.366 -0.3762 -1.0200 -1.0877
  139OSM   H18U15113   5.730   2.485   4.319  0.6616 -1.1922  3.4294
  139OSM    C1F15114   6.507   2.768   2.708 -0.0438  1.4136  0.9532
  139OSM     OF15115   6.542   2.875   2.661 -0.1094  0.1228  0.4932
  139OSM    C2F15116   6.606   2.676   2.783  0.6482  0.7137  0.1410
  139OSM    H2F15117   6.691   2.656   2.714 -0.0409 -2.7408  0.1056
  139OSM    H2G15118   6.551   2.581   2.795  0.8627  0.4848 -0.6315
  139OSM    C3F15119   6.661   2.731   2.915 -0.4522  0.6920  0.6504
  139OSM    H3F15120   6.721   2.822   2.897  0.4452  0.4806  2.3726
  139OSM    H3G15121   6.738   2.661   2.955 -0.7999 -0.5425 -0.7431
  139OSM    C4F15122   6.560   2.741   3.029  0.2261  0.1049  0.4355
  139OSM    H4F15123   6.478   2.670   3.008  0.1134  0.6926 -1.2259
  139OSM    H4G15124   6.511   2.840   3.038 -0.1544 -0.1126  0.7604
  139OSM    C5F15125   6.619   2.722   3.167 -0.2330 -0.0256 -0.1930
  139OSM    H5F15126   6.708   2.787   3.181  0.7648 -1.2899 -0.5167
  139OSM    H5G15127   6.656   2.619   3.182 -2.3459 -0.4614  2.8193
  139OSM    C6F15128   6.516   2.738   3.280 -0.0264  0.1387  0.1260
  139OSM    H6F15129   6.427   2.675   3.260 -0.6222  1.1826 -0.5825
  139OSM    H6G15130   6.498   2.847   3.273  2.8369  0.6002 -2.2410
  139OSM    C7F15131   6.591   2.692   3.408 -0.7418 -0.0639  0.2908
  139OSM    H7F15132   6.672   2.766   3.424 -0.4227 -0.0156 -1.3652
  139OSM    H7G15133   6.632   2.589   3.396  2.3670  1.1236 -0.3354
  139OSM    C8F15134   6.507   2.694   3.531  0.2157 -0.5835 -0.1280
  139OSM    H8F15135   6.457   2.792   3.517 -0.6972 -0.7888  1.4433
  139OSM    H8G15136   6.576   2.699   3.618  0.1356  2.9560 -0.1225
  139OSM    C9F15137   6.405   2.586   3.529  0.1418  0.4672  0.1116
  139OSM    H9F15138   6.387   2.540   3.431  1.3542 -1.6742  0.8182
  139OSM   C10F15139   6.330   2.546   3.632  0.2252  0.7660 -0.3635
  139OSM   H10F15140   6.263   2.460   3.620  0.8092  0.3101 -0.4042
  139OSM   C11F15141   6.344   2.581   3.781 -0.1118 -0.8214  0.3761
  139OSM   H11F15142   6.272   2.665   3.785 -1.3426 -1.7005 -1.6420
  139OSM   H11G15143   6.445   2.625   3.794 -0.2502  0.0921 -1.3716
  139OSM   C12F15144   6.311   2.465   3.867 -0.1762 -0.0879 -0.2119
  139OSM   H12F15145   6.395   2.393   3.863  0.6107  0.7546  0.5409
  139OSM   H12G15146   6.215   2.419   3.837  0.3025  0.1155 -2.1949
  139OSM   C13F15147   6.296   2.508   4.016  0.1976  0.1956  0.2630
  139OSM   H13F15148   6.213   2.582   4.020  1.1782  1.5607 -2.0639
  139OSM   H13G15149   6.385   2.572   4.037  1.1931 -2.1092  3.9609
  139OSM   C14F15150   6.288   2.394   4.107 -0.0692  0.7158  0.2713
  139OSM   H14F15151   6.377   2.329   4.095  1.1812  2.5072 -0.8405
  139OSM   H14G15152   6.204   2.330   4.074 -0.7304  1.2264  0.9405
  139OSM   C15F15153   6.266   2.433   4.253 -0.1397 -0.4968  0.0631
  139OSM   H15F15154   6.166   2.481   4.252  0.0200 -0.1613 -0.9651
  139OSM   H15G15155   6.341   2.506   4.290  0.9741 -2.3447  1.6414
  139OSM   C16F15156   6.269   2.314   4.354  0.2155  0.2617  0.4313
  139OSM   H16F15157   6.178   2.252   4.335 -0.8343  1.1930  2.1354
  139OSM   H16G15158   6.248   2.361   4.453  0.3269  0.3858  0.3956
  139OSM   C17F15159   6.385   2.222   4.368  0.4137  0.1619 -0.5079
  139OSM   H17F15160   6.483   2.271   4.386 -0.6020  1.5075  1.8141
  139OSM   H17G15161   6.385   2.160   4.276  0.4127 -0.3859 -0.1384
  139OSM   C18F15162   6.366   2.122   4.489  0.8273 -0.3801 -0.2456
  139OSM   H18F15163   6.283   2.054   4.463  2.2162 -1.2213 -2.8409
  139OSM   H18G15164   6.354   2.185   4.580  0.7691 -1.0706  0.2318
  139OSM   H18H15165   6.457   2.060   4.503  1.1568  0.0619 -0.3689
  140OSM      N15166   2.851   1.130   2.355  0.1482 -1.0704 -0.4804
  140OSM    C1515167   2.916   1.008   2.392 -0.1829  0.1377  0.0886
  140OSM   H15A15168   2.900   0.987   2.497  0.4199  0.2504  0.2042
  140OSM   H15B15169   3.023   1.010   2.377  0.0577 -1.3580  1.3241
  140OSM   H15C15170   2.886   0.921   2.335  1.2790 -0.0217 -0.4761
  140OSM    C1415171   2.714   1.134   2.415 -0.2678 -0.1561 -0.0231
  140OSM   H14A15172   2.660   1.225   2.394 -0.5611 -0.0465  1.1329
  140OSM   H14B15173   2.720   1.132   2.523 -1.5954 -1.1394  0.0568
  140OSM   H14C15174   2.659   1.044   2.389  1.4556 -0.8126 -1.6219
  140OSM    C1315175   2.925   1.241   2.418 -0.1168 -0.1740  0.1234
  140OSM   H13A15176   2.867   1.331   2.408 -0.4311 -0.0519  2.5238
  140OSM   H13B15177   3.019   1.264   2.368  0.0263  3.2677  1.7424
  140OSM   H13C15178   2.943   1.238   2.524  0.2237 -2.1566  0.0619
  140OSM    C1215179   2.840   1.158   2.206 -0.3588 -0.8286 -0.1552
  140OSM   H12A15180   2.775   1.084   2.163 -1.4618  0.2428 -0.3940
  140OSM   H12B15181   2.939   1.139   2.166 -0.1949  0.2395 -0.3045
  140OSM    C1115182   2.808   1.301   2.155  0.4866  0.4676 -1.0327
  140OSM   H11A15183   2.804   1.314   2.045  0.2866 -0.2181 -1.1088
  140OSM   H11B15184   2.900   1.360   2.177  0.4053  0.0078  0.6927
  140OSM      P15185   2.685   1.497   2.266  0.3927  0.2256 -0.2983
  140OSM    O1315186   2.741   1.577   2.158 -0.2307  0.0206  0.4924
  140OSM    O1415187   2.550   1.529   2.293 -0.1155 -0.1372 -0.1369
  140OSM    O1115188   2.778   1.500   2.402  0.6800  0.0802 -0.4441
  140OSM    O1215189   2.692   1.346   2.233 -0.4798 -0.1095 -0.2935
  140OSM    C1S15190   2.719   1.538   2.523  0.1192 -0.8177 -0.2838
  140OSM    H1S15191   2.647   1.461   2.556 -0.3948  0.4732  1.8432
  140OSM    H1T15192   2.656   1.628   2.509 -0.0632 -1.1694 -1.9169
  140OSM     NF15193   2.736   1.564   2.765  0.0146 -0.5086 -0.0433
  140OSM    HNF15194   2.727   1.654   2.808 -1.8068 -0.6487 -0.0530
  140OSM    C2S15195   2.811   1.558   2.642  0.5774 -0.4992 -0.2268
  140OSM    H2S15196   2.876   1.469   2.654  1.9896  0.3634 -1.1800
  140OSM    C3S15197   2.895   1.687   2.621 -0.5321  0.4453 -0.3598
  140OSM    H3S15198   2.836   1.774   2.657 -1.5461 -1.5772  3.3407
  140OSM     O315199   2.943   1.713   2.487  0.5551  0.3240  0.5020
  140OSM    HO315200   2.905   1.651   2.424 -0.8339  2.1943 -0.5835
  140OSM    C4S15201   3.009   1.687   2.719 -0.3071  0.1385  0.4342
  140OSM    H4S15202   2.996   1.772   2.787 -2.2383  2.0198 -2.0799
  140OSM    C5S15203   3.128   1.619   2.700  0.2102  0.6433  1.0071
  140OSM    H5S15204   3.147   1.575   2.601 -0.7268  4.1623 -0.9357
  140OSM    C6S15205   3.249   1.629   2.790 -0.3884  0.6132 -0.4840
  140OSM    H6S15206   3.328   1.679   2.731 -2.1046  3.6541 -0.4017
  140OSM    H6T15207   3.289   1.532   2.828 -3.2276 -0.1775  0.8556
  140OSM    C7S15208   3.229   1.704   2.917 -0.2285  0.2922  0.8479
  140OSM    H7S15209   3.144   1.649   2.962 -1.5541  0.5430 -1.2195
  140OSM    H7T15210   3.199   1.810   2.901  3.0009  1.4374  1.5636
  140OSM    C8S15211   3.344   1.698   3.014 -0.6389 -0.3669 -0.8433
  140OSM    H8S15212   3.425   1.764   2.975  1.1709 -0.1033  2.9457
  140OSM    H8T15213   3.374   1.591   3.022 -0.6860 -0.3765 -0.7938
  140OSM    C9S15214   3.325   1.747   3.158  0.5611  0.2969 -0.7125
  140OSM    H9S15215   3.247   1.686   3.210  0.2778  2.5815  1.7589
  140OSM    H9T15216   3.290   1.852   3.171  1.2259  0.2194  2.7281
  140OSM   C10S15217   3.456   1.731   3.240  0.3162  0.0562 -0.2575
  140OSM   H10S15218   3.543   1.756   3.176  0.1132 -0.7017 -0.8420
  140OSM   H10T15219   3.478   1.627   3.271  2.9966  0.7676  0.4102
  140OSM   C11S15220   3.455   1.813   3.371  0.2161  0.9844 -0.2005
  140OSM   H11S15221   3.360   1.797   3.427  0.8434  0.4219  0.7529
  140OSM   H11T15222   3.472   1.922   3.368  0.3618  1.0680  1.8203
  140OSM   C12S15223   3.565   1.762   3.467 -0.1649  0.3383  0.3218
  140OSM   H12S15224   3.655   1.771   3.402 -1.1199  1.1642 -0.9546
  140OSM   H12T15225   3.537   1.655   3.480 -2.0208  0.8161  0.5368
  140OSM   C13S15226   3.572   1.834   3.603 -1.0040 -0.0967 -0.2851
  140OSM   H13S15227   3.640   1.775   3.668  0.2864  0.7846 -0.8079
  140OSM   H13T15228   3.471   1.834   3.649 -1.1071  1.7869 -0.4314
  140OSM   C14S15229   3.616   1.976   3.589  0.5253 -0.2319 -0.0072
  140OSM   H14S15230   3.539   2.042   3.545  0.4560 -0.0171  0.4284
  140OSM   H14T15231   3.711   1.975   3.530  1.3094  0.2807  1.1981
  140OSM   C15S15232   3.666   2.055   3.719  0.4569  0.0530 -0.1739
  140OSM   H15S15233   3.715   2.153   3.702 -0.2057  0.3999 -0.1237
  140OSM   H15T15234   3.737   1.992   3.776  0.1300  0.5146  0.7634
  140OSM   C16S15235   3.549   2.067   3.820 -0.2106  0.2480  0.2920
  140OSM   H16S15236   3.519   1.960   3.831 -1.9767  0.6849  0.0654
  140OSM   H16T15237   3.465   2.124   3.774 -0.3895  0.2883  0.6561
  140OSM   C17S15238   3.593   2.131   3.953 -0.2256  0.2413  0.6760
  140OSM   H17S15239   3.617   2.240   3.949  0.1194  0.1860  1.1312
  140OSM   H17T15240   3.688   2.077   3.975  0.9308  0.3164 -3.3392
  140OSM   C18S15241   3.495   2.119   4.063 -0.0625  0.1807  0.0422
  140OSM   H18S15242   3.517   2.180   4.154  0.9506 -2.3193  1.5911
  140OSM   H18T15243   3.490   2.014   4.097  0.5530 -0.6918 -2.3928
  140OSM   H18U15244   3.398   2.149   4.018  2.0353  1.9060 -3.8388
  140OSM    C1F15245   2.663   1.463   2.815 -0.5819 -0.5419 -0.3203
  140OSM     OF15246   2.688   1.350   2.782 -0.1984 -0.0482  0.1945
  140OSM    C2F15247   2.552   1.502   2.902 -0.1326 -0.0298 -0.6713
  140OSM    H2F15248   2.472   1.535   2.832 -0.6449  1.4047  0.5253
  140OSM    H2G15249   2.586   1.593   2.957 -1.8039  1.3150 -1.7877
  140OSM    C3F15250   2.484   1.391   2.983 -0.6796 -0.3845  0.0818
  140OSM    H3F15251   2.495   1.296   2.927 -0.3574  0.2262 -0.9221
  140OSM    H3G15252   2.375   1.403   3.001 -1.3111 -2.2333 -2.0976
  140OSM    C4F15253   2.556   1.373   3.120 -0.0696  0.3351  0.5206
  140OSM    H4F15254   2.666   1.389   3.118 -0.0358  0.8673  3.2704
  140OSM    H4G15255   2.530   1.270   3.154 -1.3888  0.8404  1.1060
  140OSM    C5F15256   2.509   1.476   3.229 -1.2281  0.3111  0.4613
  140OSM    H5F15257   2.406   1.462   3.268 -1.2900 -0.9036 -0.0791
  140OSM    H5G15258   2.512   1.576   3.182  0.6201  0.8620  1.6765
  140OSM    C6F15259   2.610   1.488   3.337 -0.8084 -0.4384 -0.1427
  140OSM    H6F15260   2.711   1.518   3.302  0.0641 -0.5458  2.0830
  140OSM    H6G15261   2.628   1.394   3.393 -0.0897 -0.7057 -0.8077
  140OSM    C7F15262   2.559   1.585   3.443  0.0173 -0.1390 -0.0116
  140OSM    H7F15263   2.462   1.550   3.483  0.0459 -1.5931 -1.1268
  140OSM    H7G15264   2.538   1.683   3.395  1.6824 -0.4813 -1.5799
  140OSM    C8F15265   2.663   1.590   3.557  0.2765 -0.2517 -0.1940
  140OSM    H8F15266   2.760   1.624   3.515  0.1225  1.4953  0.7775
  140OSM    H8G15267   2.673   1.491   3.605 -1.7997 -0.7929 -0.7553
  140OSM    C9F15268   2.645   1.705   3.656 -1.0627  0.3423 -0.0436
  140OSM    H9F15269   2.674   1.807   3.625  2.1510 -0.0310  1.3212
  140OSM   C10F15270   2.604   1.698   3.780  0.4065  0.9820 -0.3169
  140OSM   H10F15271   2.598   1.789   3.841 -1.3428 -0.1622  1.3207
  140OSM   C11F15272   2.593   1.572   3.863  0.8144 -0.1777  0.7944
  140OSM   H11F15273   2.600   1.484   3.795  1.4111  1.2470 -1.0830
  140OSM   H11G15274   2.489   1.565   3.900 -0.0148  1.4028 -1.0318
  140OSM   C12F15275   2.689   1.570   3.983  0.0001  0.6339 -0.1260
  140OSM   H12F15276   2.669   1.473   4.033  2.8779  0.3613  0.6814
  140OSM   H12G15277   2.684   1.653   4.056  0.5414  2.1552 -1.7359
  140OSM   C13F15278   2.838   1.560   3.931 -0.0898 -1.0143 -0.0077
  140OSM   H13F15279   2.837   1.640   3.853 -1.0852 -0.1933  0.8125
  140OSM   H13G15280   2.871   1.469   3.878 -0.9652 -1.1597 -0.3172
  140OSM   C14F15281   2.939   1.608   4.036 -0.5202  0.5788  0.0905
  140OSM   H14F15282   2.897   1.697   4.086 -1.5653  0.8981 -1.3077
  140OSM   H14G15283   3.033   1.643   3.987 -0.5258  0.8272  0.2564
  140OSM   C15F15284   2.995   1.519   4.148 -0.2241 -0.0748  0.3396
  140OSM   H15F15285   3.059   1.566   4.226 -0.6122 -1.6311  1.6575
  140OSM   H15G15286   3.048   1.431   4.104 -1.3738  0.5861 -2.5914
  140OSM   C16F15287   2.886   1.452   4.231 -0.1506 -0.4863  0.0178
  140OSM   H16F15288   2.830   1.383   4.165 -1.1704  2.1942 -2.1270
  140OSM   H16G15289   2.815   1.520   4.282  0.3131  0.2451 -0.2963
  140OSM   C17F15290   2.947   1.360   4.345 -0.0360 -0.1630  0.1929
  140OSM   H17F15291   3.042   1.307   4.325 -0.4401 -2.4024  3.3955
  140OSM   H17G15292   2.876   1.275   4.352  0.9295 -0.9645  0.5672
  140OSM   C18F15293   2.951   1.432   4.487 -0.1134 -0.6026  0.5160
  140OSM   H18F15294   2.972   1.362   4.570  0.1030  0.2809  1.2213
  140OSM   H18G15295   2.854   1.482   4.508  0.2517  0.1253  0.4968
  140OSM   H18H15296   3.013   1.524   4.488 -1.2303  0.4053 -3.2895
  141OSM      N15297   5.594   6.489   1.988  0.0020  0.0496 -0.0640
  141OSM    C1515298   5.618   6.576   1.865  1.3226 -0.3190 -0.3332
  141OSM   H15A15299   5.530   6.635   1.843  1.8526  0.4820 -0.3173
  141OSM   H15B15300   5.635   6.515   1.777  0.5831 -1.2491  0.1457
  141OSM   H15C15301   5.709   6.634   1.871  0.3517  1.0837  2.1429
  141OSM    C1415302   5.721   6.409   2.009 -0.3453  0.8482  0.2434
  141OSM   H14A15303   5.731   6.329   1.937  1.4143  0.7315  0.5640
  141OSM   H14B15304   5.717   6.376   2.112  0.4558  0.7492  0.2497
  141OSM   H14C15305   5.807   6.474   2.003  0.7902 -0.5573  0.4146
  141OSM    C1315306   5.586   6.588   2.107 -0.0135  0.1969  0.0346
  141OSM   H13A15307   5.657   6.668   2.098 -0.9669  0.9251 -1.6751
  141OSM   H13B15308   5.588   6.549   2.208  0.7036  0.3680  0.0904
  141OSM   H13C15309   5.487   6.632   2.098 -0.1527 -0.2017 -0.4147
  141OSM    C1215310   5.477   6.397   1.981  0.7270 -1.1435 -0.3281
  141OSM   H12A15311   5.497   6.335   1.895  2.3436  0.0649 -0.8582
  141OSM   H12B15312   5.399   6.468   1.958  2.2242  0.3558 -0.9431
  141OSM    C1115313   5.439   6.317   2.103 -0.2839  0.2556 -0.1195
  141OSM   H11A15314   5.350   6.259   2.068 -0.6215 -0.2211  1.3962
  141OSM   H11B15315   5.408   6.383   2.187  0.7046 -0.5542  0.9309
  141OSM      P15316   5.574   6.090   2.090  0.0284 -0.1612  0.1410
  141OSM    O1315317   5.560   6.114   1.945 -0.2281 -0.3235 -0.6212
  141OSM    O1415318   5.706   6.033   2.124  0.0402 -0.4101 -0.1326
  141OSM    O1115319   5.456   6.000   2.140 -0.4659  0.5363 -0.2354
  141OSM    O1215320   5.543   6.233   2.156  0.4912  0.1649  0.3377
  141OSM    C1S15321   5.457   5.941   2.274  0.3691  0.4781  0.3812
  141OSM    H1S15322   5.561   5.922   2.305 -0.3041 -0.9334  1.8918
  141OSM    H1T15323   5.408   5.842   2.268  0.9928 -0.2332  4.3316
  141OSM     NF15324   5.402   6.004   2.512  0.1605 -0.0538  0.2008
  141OSM    HNF15325   5.343   5.939   2.558  0.4908  0.6269  1.6433
  141OSM    C2S15326   5.377   6.034   2.375  0.2486  0.1432  0.1629
  141OSM    H2S15327   5.417   6.134   2.351  1.2538 -0.6532 -1.6718
  141OSM    C3S15328   5.228   6.040   2.335  0.4278 -0.4517  0.7038
  141OSM    H3S15329   5.200   5.933   2.332  1.5197 -0.7233 -0.7202
  141OSM     O315330   5.198   6.084   2.197  0.3412  0.1279 -0.0667
  141OSM    HO315331   5.287   6.105   2.166  0.6318 -1.1934 -0.1975
  141OSM    C4S15332   5.129   6.116   2.437  0.0779 -0.9170  0.5291
  141OSM    H4S15333   5.050   6.050   2.477 -1.7114  1.4851  1.1937
  141OSM    C5S15334   5.117   6.249   2.456 -0.3740 -0.3044 -0.6742
  141OSM    H5S15335   5.174   6.328   2.405  2.1675 -0.6319  1.4699
  141OSM    C6S15336   4.993   6.298   2.527 -0.1949 -0.0708  0.5353
  141OSM    H6S15337   4.944   6.223   2.592  1.7751 -0.1462  2.0334
  141OSM    H6T15338   4.915   6.333   2.456 -1.3419 -0.4318  1.5921
  141OSM    C7S15339   5.032   6.405   2.628  0.1314 -0.1760  0.1944
  141OSM    H7S15340   5.072   6.487   2.565 -1.6033  0.7385  0.2221
  141OSM    H7T15341   5.119   6.364   2.683  0.4339 -0.0338 -0.1799
  141OSM    C8S15342   4.914   6.461   2.707  0.2061  0.1533 -0.0556
  141OSM    H8S15343   4.878   6.372   2.762  0.1926 -2.0580 -3.3461
  141OSM    H8T15344   4.843   6.485   2.624  1.1248  1.7366 -0.4273
  141OSM    C9S15345   4.949   6.577   2.796 -0.1406  0.3085  0.1607
  141OSM    H9S15346   4.862   6.646   2.810  0.7122  1.0873  2.0643
  141OSM    H9T15347   5.034   6.628   2.747  1.5977  1.0965  3.6373
  141OSM   C10S15348   5.000   6.538   2.935 -0.4302  0.2228  0.1473
  141OSM   H10S15349   5.088   6.470   2.926  0.4611  1.0989  1.7967
  141OSM   H10T15350   4.929   6.481   2.998  0.2990 -0.8722  0.0065
  141OSM   C11S15351   5.038   6.659   3.015  0.0125 -0.3531 -0.3868
  141OSM   H11S15352   4.954   6.731   3.024 -0.3013 -0.6615 -0.7828
  141OSM   H11T15353   5.132   6.701   2.974 -0.2542 -0.1924 -0.8421
  141OSM   C12S15354   5.063   6.614   3.163  0.2499  0.1614  0.3506
  141OSM   H12S15355   5.152   6.548   3.169  0.9320  1.0093 -0.0994
  141OSM   H12T15356   4.975   6.558   3.201 -1.4922  0.7090 -2.5635
  141OSM   C13S15357   5.090   6.727   3.263 -0.4374  0.5034  0.4822
  141OSM   H13S15358   5.020   6.814   3.255 -0.3443  0.5016 -0.4494
  141OSM   H13T15359   5.189   6.771   3.239 -0.5180 -0.1572 -1.1792
  141OSM   C14S15360   5.092   6.675   3.403 -0.5143  0.7973 -1.1284
  141OSM   H14S15361   5.161   6.740   3.460 -0.0281 -1.0571  0.5052
  141OSM   H14T15362   5.130   6.571   3.408  0.8763  1.3216  3.3603
  141OSM   C15S15363   4.962   6.673   3.487  0.2258  0.0432  0.2088
  141OSM   H15S15364   4.873   6.638   3.430  1.4621 -0.6905 -1.3264
  141OSM   H15T15365   4.941   6.780   3.508  0.2994  0.2467 -0.7077
  141OSM   C16S15366   4.974   6.598   3.626 -0.0498  0.0442 -0.2729
  141OSM   H16S15367   4.984   6.489   3.605 -0.3473  0.2028 -1.2932
  141OSM   H16T15368   4.872   6.603   3.670 -0.1173  1.8340 -0.5630
  141OSM   C17S15369   5.076   6.633   3.729  0.2967 -0.0624 -0.0997
  141OSM   H17S15370   5.092   6.743   3.738 -1.4035  0.1935  0.2593
  141OSM   H17T15371   5.170   6.581   3.703  0.4651 -0.2829  0.9455
  141OSM   C18S15372   5.028   6.574   3.866  0.6108  0.2237  0.1281
  141OSM   H18S15373   4.954   6.644   3.909 -0.5481  0.0565 -1.5081
  141OSM   H18T15374   5.110   6.559   3.940  1.4690 -2.8199 -1.2603
  141OSM   H18U15375   4.978   6.476   3.850  3.2609 -0.9960 -1.5078
  141OSM    C1F15376   5.510   6.036   2.583  0.0893  0.6765 -1.0152
  141OSM     OF15377   5.605   6.095   2.530 -0.2398  0.2167  0.4748
  141OSM    C2F15378   5.510   6.012   2.740 -0.7292  0.0501  0.1681
  141OSM    H2F15379   5.446   5.922   2.751  0.6668 -1.3512 -2.3725
  141OSM    H2G15380   5.465   6.103   2.784  0.0845  1.6300 -2.0935
  141OSM    C3F15381   5.652   6.007   2.804 -0.0738 -0.3681  0.4950
  141OSM    H3F15382   5.703   6.104   2.791  0.8093 -0.6043  1.9748
  141OSM    H3G15383   5.704   5.927   2.746 -2.2176 -0.8714 -0.8593
  141OSM    C4F15384   5.639   5.971   2.956  0.2346  0.1219  0.4882
  141OSM    H4F15385   5.736   5.936   2.997 -1.3364 -3.7135  1.4511
  141OSM    H4G15386   5.573   5.882   2.967 -0.1369  0.1367 -1.3813
  141OSM    C5F15387   5.585   6.088   3.034 -0.3149 -0.0619  0.2584
  141OSM    H5F15388   5.493   6.137   2.995  0.0023  0.3774  0.0473
  141OSM    H5G15389   5.657   6.173   3.027  0.5355 -0.9161 -2.5860
  141OSM    C6F15390   5.555   6.067   3.179 -0.6282 -0.2512  0.3623
  141OSM    H6F15391   5.524   5.962   3.198 -2.1582 -0.0041 -0.5912
  141OSM    H6G15392   5.470   6.133   3.207 -1.9567 -2.4328  1.7514
  141OSM    C7F15393   5.680   6.087   3.266  0.2148 -0.3958  0.7709
  141OSM    H7F15394   5.684   6.198   3.276 -0.0070 -0.4647  1.6283
  141OSM    H7G15395   5.759   6.041   3.202 -0.1062  0.5156 -0.3266
  141OSM    C8F15396   5.665   6.035   3.408  0.5895 -0.1284  0.2587
  141OSM    H8F15397   5.558   6.056   3.428  0.9332  2.5801 -0.3443
  141OSM    H8G15398   5.714   6.106   3.477  0.1183  1.5731 -1.0717
  141OSM    C9F15399   5.719   5.895   3.404 -0.2639  0.2648  0.1500
  141OSM    H9F15400   5.662   5.839   3.328 -0.1662  2.6528 -1.8022
  141OSM   C10F15401   5.822   5.844   3.472 -0.1730  0.2756  0.2018
  141OSM   H10F15402   5.852   5.746   3.434 -0.8121  0.2089 -0.1515
  141OSM   C11F15403   5.905   5.913   3.578  0.2675 -0.4443  0.0589
  141OSM   H11F15404   5.939   6.011   3.539 -0.7930 -0.1781 -0.2336
  141OSM   H11G15405   5.996   5.857   3.609 -0.0427 -0.8262  0.2850
  141OSM   C12F15406   5.825   5.934   3.710  0.4235 -0.0061  0.3715
  141OSM   H12F15407   5.762   5.851   3.747  1.4244 -0.0655  2.0843
  141OSM   H12G15408   5.748   6.013   3.702  0.4086  0.2136  2.1099
  141OSM   C13F15409   5.916   5.961   3.832 -0.3782  0.2758 -0.0944
  141OSM   H13F15410   5.997   6.036   3.816  0.2778 -0.0651  1.3679
  141OSM   H13G15411   5.971   5.868   3.860 -0.8367  0.6543  2.2775
  141OSM   C14F15412   5.838   6.015   3.957 -0.2928  0.8441  0.0402
  141OSM   H14F15413   5.786   6.108   3.926 -0.2192  1.1823  0.8975
  141OSM   H14G15414   5.903   6.051   4.040  2.0137  0.9283 -1.7299
  141OSM   C15F15415   5.725   5.922   4.024 -0.4350  0.3389  0.0943
  141OSM   H15F15416   5.775   5.831   4.064  0.9584  0.8587 -0.3706
  141OSM   H15G15417   5.661   5.898   3.937  2.0187  0.4217 -1.8664
  141OSM   C16F15418   5.633   5.982   4.129  0.1134  0.0202 -0.2446
  141OSM   H16F15419   5.608   6.083   4.090  0.7835  0.1627 -0.3221
  141OSM   H16G15420   5.693   5.999   4.221  1.1234  0.9947 -1.0535
  141OSM   C17F15421   5.506   5.899   4.162  0.3190  0.6269 -0.1820
  141OSM   H17F15422   5.448   5.872   4.072 -1.3371  2.1662  0.3646
  141OSM   H17G15423   5.438   5.960   4.226  0.5425  0.8023 -0.1081
  141OSM   C18F15424   5.526   5.760   4.231 -0.0266 -0.6988 -0.2015
  141OSM   H18F15425   5.431   5.703   4.236  0.2891 -1.1903  0.3676
  141OSM   H18G15426   5.575   5.776   4.330 -0.6210 -1.4764  0.2386
  141OSM   H18H15427   5.607   5.702   4.181  0.5707 -1.2612  1.3518
  142OSM      N15428   5.168   0.448   2.277 -0.3794 -0.1157  0.1255
  142OSM    C1515429   5.221   0.366   2.171 -0.0170 -0.4153  0.6914
  142OSM   H15A15430   5.311   0.311   2.194  0.9471  1.1616  0.8270
  142OSM   H15B15431   5.245   0.418   2.079 -0.0341  0.4702  1.1720
  142OSM   H15C15432   5.146   0.291   2.152 -0.8658  0.7190 -0.6442
  142OSM    C1415433   5.051   0.518   2.222 -0.6196 -0.3869 -0.3179
  142OSM   H14A15434   5.065   0.592   2.145 -5.8691  1.8759  0.4596
  142OSM   H14B15435   5.007   0.578   2.301  0.1289 -2.7115  1.9899
  142OSM   H14C15436   4.976   0.447   2.190 -2.2744  0.8501  0.6515
  142OSM    C1315437   5.110   0.363   2.394 -0.3046 -0.0818  0.1847
  142OSM   H13A15438   5.094   0.428   2.478 -0.6909  0.2875 -0.1663
  142OSM   H13B15439   5.180   0.285   2.420 -1.1153 -0.7621  0.3359
  142OSM   H13C15440   5.016   0.325   2.357  0.9769 -1.7284 -1.6196
  142OSM    C1215441   5.265   0.555   2.319  0.4165  0.2638 -0.1601
  142OSM   H12A15442   5.219   0.612   2.399  0.4896 -0.6206  0.5317
  142OSM   H12B15443   5.282   0.617   2.232  1.1231 -0.5629 -0.6247
  142OSM    C1115444   5.396   0.504   2.370  0.4080  0.4091  0.5660
  142OSM   H11A15445   5.444   0.429   2.303 -0.1914  0.6674 -0.1710
  142OSM   H11B15446   5.368   0.457   2.466  1.3263  0.8104  1.0488
  142OSM      P15447   5.604   0.654   2.312 -0.3492  0.2323 -0.3419
  142OSM    O1315448   5.573   0.644   2.169 -0.0124 -0.1182 -0.4020
  142OSM    O1415449   5.644   0.790   2.356 -0.0207  0.1291  0.1530
  142OSM    O1115450   5.706   0.537   2.351  0.4225  0.1936 -0.6146
  142OSM    O1215451   5.480   0.616   2.401  0.7171 -1.2643  0.2800
  142OSM    C1S15452   5.745   0.526   2.490 -0.3404 -0.0636 -0.0300
  142OSM    H1S15453   5.663   0.482   2.550  0.5563  0.2570  1.4830
  142OSM    H1T15454   5.764   0.627   2.533  0.2202 -0.5374  0.8543
  142OSM     NF15455   5.884   0.417   2.675 -0.3499  0.4543  0.0010
  142OSM    HNF15456   5.968   0.455   2.711  0.3981 -1.4251  0.3301
  142OSM    C2S15457   5.862   0.432   2.532 -0.5604 -0.1227 -0.2896
  142OSM    H2S15458   5.823   0.333   2.501 -1.6608 -0.4412  1.8631
  142OSM    C3S15459   5.988   0.443   2.442 -0.4440 -0.0171 -0.7992
  142OSM    H3S15460   6.051   0.526   2.482  1.5340 -0.9708 -1.7605
  142OSM     O315461   5.965   0.486   2.311  0.6005 -0.2748  0.0292
  142OSM    HO315462   5.890   0.546   2.315  2.9838  3.1740 -1.5052
  142OSM    C4S15463   6.078   0.324   2.456 -0.8211  0.4599  0.6246
  142OSM    H4S15464   6.134   0.333   2.550 -0.0266 -1.2445  0.3613
  142OSM    C5S15465   6.077   0.207   2.389 -0.5671 -0.1408  0.0196
  142OSM    H5S15466   5.996   0.194   2.316 -0.5798 -0.2628  0.0553
  142OSM    C6S15467   6.157   0.086   2.419  0.3956  0.6728  0.2936
  142OSM    H6S15468   6.241   0.066   2.349  1.6691  2.1015  1.3618
  142OSM    H6T15469   6.093  -0.004   2.404  2.0679 -0.5427  0.0646
  142OSM    C7S15470   6.220   0.083   2.561 -1.1048 -0.3546 -0.0266
  142OSM    H7S15471   6.144   0.091   2.641 -1.2523  2.4295 -0.3689
  142OSM    H7T15472   6.273   0.177   2.585  0.9466 -1.4240 -0.1103
  142OSM    C8S15473   6.315  -0.031   2.581  0.5435 -0.0177  0.1496
  142OSM    H8S15474   6.391  -0.017   2.502  0.3284  2.5819  0.3195
  142OSM    H8T15475   6.264  -0.129   2.570  1.6180 -0.6588  0.7304
  142OSM    C9S15476   6.377  -0.033   2.722 -0.3502  0.4241  0.4427
  142OSM    H9S15477   6.300  -0.010   2.798  0.4014 -0.9124  1.6412
  142OSM    H9T15478   6.451   0.050   2.720  1.2136 -0.8682  1.7683
  142OSM   C10S15479   6.433  -0.169   2.777 -0.4732  0.2043 -0.3278
  142OSM   H10S15480   6.526  -0.197   2.723 -1.2507 -1.2712 -0.9629
  142OSM   H10T15481   6.369  -0.256   2.751 -1.3322 -0.0873  2.5106
  142OSM   C11S15482   6.465  -0.160   2.930  0.0153  0.0031  0.1275
  142OSM   H11S15483   6.366  -0.169   2.980  0.9272 -2.0011  1.7010
  142OSM   H11T15484   6.515  -0.064   2.957  0.2966  0.2081 -1.0484
  142OSM   C12S15485   6.530  -0.286   2.978  0.8064 -0.2071 -0.2365
  142OSM   H12S15486   6.635  -0.297   2.942  0.6361 -2.4742 -0.2304
  142OSM   H12T15487   6.470  -0.370   2.937  0.2742 -1.4720  2.8883
  142OSM   C13S15488   6.531  -0.287   3.128  0.1244 -0.7305 -0.5814
  142OSM   H13S15489   6.430  -0.274   3.172  1.1647  0.8094  1.5267
  142OSM   H13T15490   6.587  -0.203   3.174 -2.2529  0.9219 -0.5669
  142OSM   C14S15491   6.605  -0.418   3.179  0.4379 -0.1785  0.0915
  142OSM   H14S15492   6.714  -0.423   3.161  0.3428 -0.8761 -0.3058
  142OSM   H14T15493   6.560  -0.500   3.119  1.9722 -1.8062  1.0548
  142OSM   C15S15494   6.578  -0.457   3.327 -0.0134  0.4699  0.3596
  142OSM   H15S15495   6.470  -0.443   3.350 -1.1355 -0.8699 -3.4236
  142OSM   H15T15496   6.644  -0.390   3.386 -0.2423  1.2530 -0.2669
  142OSM   C16S15497   6.619  -0.607   3.345  0.2532  0.6127  0.1155
  142OSM   H16S15498   6.547  -0.674   3.294  0.8054  0.4709 -0.4927
  142OSM   H16T15499   6.608  -0.642   3.450  0.8306 -0.5334 -0.1864
  142OSM   C17S15500   6.759  -0.643   3.289 -0.1344  0.1195 -0.5492
  142OSM   H17S15501   6.837  -0.568   3.315  0.9748 -1.2775  0.3004
  142OSM   H17T15502   6.759  -0.661   3.180  0.0129 -0.4124 -0.4651
  142OSM   C18S15503   6.803  -0.778   3.345 -0.0315 -0.1890 -0.6694
  142OSM   H18S15504   6.763  -0.869   3.295  2.4461 -1.7453 -0.0240
  142OSM   H18T15505   6.777  -0.796   3.451 -0.9804  2.5008 -0.3805
  142OSM   H18U15506   6.914  -0.780   3.336  0.2956  3.6820  0.6244
  142OSM    C1F15507   5.792   0.389   2.764 -0.3879 -0.1612 -0.6484
  142OSM     OF15508   5.679   0.347   2.738 -0.2013 -0.5877 -0.1298
  142OSM    C2F15509   5.827   0.421   2.900  0.0024  0.3503 -0.1525
  142OSM    H2F15510   5.825   0.531   2.916  0.5099  0.5360 -1.2553
  142OSM    H2G15511   5.932   0.394   2.926  0.8390  1.9252 -1.5963
  142OSM    C3F15512   5.748   0.339   3.012 -0.0709 -0.0173  0.3920
  142OSM    H3F15513   5.758   0.230   2.990 -0.1220  0.3654 -1.7080
  142OSM    H3G15514   5.640   0.364   3.013 -0.1791 -0.4361  1.3938
  142OSM    C4F15515   5.802   0.374   3.154  0.5057 -0.5290  0.4951
  142OSM    H4F15516   5.795   0.483   3.170  0.3646 -0.1473 -1.8607
  142OSM    H4G15517   5.904   0.336   3.177  0.7292  0.5811  1.4127
  142OSM    C5F15518   5.718   0.302   3.266  0.1507  0.3265  0.2721
  142OSM    H5F15519   5.736   0.192   3.270  0.8041  0.4136 -0.0713
  142OSM    H5G15520   5.610   0.319   3.249  0.4355  1.7924 -0.2480
  142OSM    C6F15521   5.745   0.367   3.408  0.4463 -0.1960  0.4616
  142OSM    H6F15522   5.699   0.468   3.403 -0.0664 -0.4403  0.1023
  142OSM    H6G15523   5.855   0.373   3.421  0.5841 -0.8439 -0.3577
  142OSM    C7F15524   5.670   0.277   3.512 -0.1255 -0.2426  0.1329
  142OSM    H7F15525   5.729   0.187   3.540 -1.4365 -0.8327  1.0908
  142OSM    H7G15526   5.567   0.256   3.475 -0.0432  0.9906 -0.8918
  142OSM    C8F15527   5.636   0.350   3.644 -0.0830  0.0183 -0.0820
  142OSM    H8F15528   5.608   0.278   3.723 -1.5693  1.5889  0.9072
  142OSM    H8G15529   5.549   0.415   3.618 -0.4476 -0.9580 -1.4255
  142OSM    C9F15530   5.747   0.435   3.709  0.7446  0.8259  0.1649
  142OSM    H9F15531   5.847   0.432   3.664  0.5249  1.5771 -0.3823
  142OSM   C10F15532   5.734   0.489   3.839 -0.4652 -0.6578  0.0044
  142OSM   H10F15533   5.829   0.511   3.891 -1.6575  0.2649  1.8950
  142OSM   C11F15534   5.617   0.491   3.927 -0.0869  0.1967  0.8206
  142OSM   H11F15535   5.636   0.425   4.015  0.1357 -2.2724 -0.9767
  142OSM   H11G15536   5.523   0.466   3.873  0.4192  1.3964 -0.6583
  142OSM   C12F15537   5.607   0.634   3.977 -0.2235  0.4920 -0.2349
  142OSM   H12F15538   5.702   0.659   4.031 -1.6648  0.1058  2.6794
  142OSM   H12G15539   5.514   0.630   4.037 -0.0844 -0.4554 -0.0630
  142OSM   C13F15540   5.588   0.738   3.864  0.9974 -0.1757 -0.1007
  142OSM   H13F15541   5.676   0.740   3.797  1.7202 -0.2293  0.8186
  142OSM   H13G15542   5.598   0.841   3.904  0.2690 -0.0759 -0.1689
  142OSM   C14F15543   5.462   0.720   3.785 -0.0128 -0.0930 -0.6173
  142OSM   H14F15544   5.384   0.698   3.861  0.6822 -1.9893 -0.4018
  142OSM   H14G15545   5.475   0.634   3.715 -0.9919 -1.5274  0.8790
  142OSM   C15F15546   5.425   0.838   3.705 -0.6659 -0.5106  0.8014
  142OSM   H15F15547   5.374   0.809   3.610 -1.0279 -0.3066  0.9351
  142OSM   H15G15548   5.517   0.882   3.660  0.0212 -1.1684  1.5175
  142OSM   C16F15549   5.350   0.943   3.785  0.2884 -0.4413  0.0408
  142OSM   H16F15550   5.396   0.971   3.882 -1.9398 -1.0402  1.3278
  142OSM   H16G15551   5.250   0.900   3.807  0.0705  0.5468  1.0796
  142OSM   C17F15552   5.344   1.075   3.712  0.4263  0.5600 -0.4180
  142OSM   H17F15553   5.281   1.075   3.620  0.7714  0.5693 -0.6592
  142OSM   H17G15554   5.444   1.090   3.667  0.4482  1.1257 -0.1981
  142OSM   C18F15555   5.320   1.198   3.804 -0.5592  0.8888 -0.0412
  142OSM   H18F15556   5.238   1.174   3.874  0.3974 -1.4363  0.3595
  142OSM   H18G15557   5.299   1.286   3.738  1.2843  0.0264 -1.9117
  142OSM   H18H15558   5.410   1.218   3.866  0.1199  2.1035 -1.3493
  143OSM      N15559   5.767   0.392   1.957 -0.4943  0.4339  0.1377
  143OSM    C1515560   5.819   0.335   2.086  0.1547  0.0698 -0.1741
  143OSM   H15A15561   5.759   0.252   2.118 -1.0031  0.8271 -0.3370
  143OSM   H15B15562   5.819   0.411   2.163  0.2019 -0.2944  0.1927
  143OSM   H15C15563   5.919   0.300   2.064  1.3792  1.8891  2.0886
  143OSM    C1415564   5.834   0.522   1.929 -0.4439 -0.6966  0.4274
  143OSM   H14A15565   5.802   0.606   1.990 -1.2879  0.0354 -0.9626
  143OSM   H14B15566   5.801   0.547   1.829 -1.7379 -0.0162  1.0026
  143OSM   H14C15567   5.942   0.522   1.930 -0.4110  1.0835  1.3568
  143OSM    C1315568   5.795   0.298   1.838  0.3704 -0.9032 -0.1679
  143OSM   H13A15569   5.747   0.339   1.751 -2.7108 -0.6395  1.5079
  143OSM   H13B15570   5.759   0.199   1.862  0.3165 -0.7740  0.2860
  143OSM   H13C15571   5.901   0.298   1.820  1.0298 -0.9932  3.0519
  143OSM    C1215572   5.615   0.411   1.958 -0.3521 -0.0778  0.0401
  143OSM   H12A15573   5.593   0.460   1.865 -0.7991  0.0418  0.2060
  143OSM   H12B15574   5.579   0.477   2.036  0.6275  0.8451 -0.2536
  143OSM    C1115575   5.526   0.284   1.966  0.1425  0.0022 -0.9628
  143OSM   H11A15576   5.554   0.215   1.884 -1.7395 -1.0785 -0.7537
  143OSM   H11B15577   5.419   0.311   1.952 -0.3447 -1.0293  0.5694
  143OSM      P15578   5.560   0.075   2.111 -0.0591 -0.0856  0.1445
  143OSM    O1315579   5.477  -0.011   2.025 -0.0252 -0.4145  0.0902
  143OSM    O1415580   5.709   0.059   2.099  0.2557 -0.2470  0.0425
  143OSM    O1115581   5.525   0.055   2.256  0.0344 -0.1429 -0.3006
  143OSM    O1215582   5.526   0.224   2.100 -0.0874 -0.1784  0.3277
  143OSM    C1S15583   5.510   0.155   2.355  0.1192 -0.3361 -0.0656
  143OSM    H1S15584   5.403   0.188   2.349 -0.2227 -1.6730 -3.4695
  143OSM    H1T15585   5.580   0.241   2.348  1.3345 -1.3014 -0.0235
  143OSM     NF15586   5.500   0.193   2.605 -0.1269 -0.1864  0.5372
  143OSM    HNF15587   5.570   0.255   2.638  1.0125 -1.8743  1.4357
  143OSM    C2S15588   5.537   0.096   2.498  0.2505 -0.4293 -0.2797
  143OSM    H2S15589   5.472   0.006   2.503  1.0409 -0.9543  1.0534
  143OSM    C3S15590   5.688   0.055   2.505 -0.1835 -0.3586  0.1576
  143OSM    H3S15591   5.736   0.153   2.483 -0.3802  0.2190  2.1806
  143OSM     O315592   5.728  -0.033   2.399 -0.4307 -0.2536 -0.4419
  143OSM    HO315593   5.660  -0.029   2.331 -0.6613 -1.9819 -0.3504
  143OSM    C4S15594   5.725  -0.015   2.631 -0.2508  0.1388 -0.9768
  143OSM    H4S15595   5.686  -0.118   2.636  0.8109 -0.2790 -1.1345
  143OSM    C5S15596   5.802   0.039   2.736  0.9027  0.3259  0.1624
  143OSM    H5S15597   5.855   0.133   2.718  1.2012  0.2153  0.4639
  143OSM    C6S15598   5.834  -0.031   2.868  0.3319 -0.1772 -0.3135
  143OSM    H6S15599   5.814  -0.139   2.853  0.7326 -0.1757 -0.8779
  143OSM    H6T15600   5.773   0.012   2.950  0.6006 -0.2690 -0.0636
  143OSM    C7S15601   5.976  -0.014   2.911  0.3901 -0.2312  0.0953
  143OSM    H7S15602   6.004   0.093   2.922  1.3804 -0.6488  2.0114
  143OSM    H7T15603   6.044  -0.059   2.837  0.1330  0.2725 -0.4558
  143OSM    C8S15604   6.015  -0.074   3.052  0.0977 -0.2177 -0.1051
  143OSM    H8S15605   6.125  -0.089   3.052  0.0361 -0.6826 -0.5196
  143OSM    H8T15606   5.963  -0.168   3.079 -0.1611 -0.3075 -0.8710
  143OSM    C9S15607   5.987   0.025   3.163 -0.0171 -0.2655  0.5402
  143OSM    H9S15608   5.879   0.047   3.156 -0.1493 -1.2628 -1.3579
  143OSM    H9T15609   6.042   0.118   3.138  1.5023 -1.4861 -1.0227
  143OSM   C10S15610   6.032  -0.024   3.301  0.1526 -0.3491 -0.3744
  143OSM   H10S15611   5.988  -0.123   3.325  2.3413 -1.1142  0.7535
  143OSM   H10T15612   6.010   0.054   3.377  2.5652  0.7177 -0.6751
  143OSM   C11S15613   6.184  -0.045   3.309  0.3122 -0.9516 -0.3563
  143OSM   H11S15614   6.240   0.036   3.257 -1.1348 -0.0285 -0.5248
  143OSM   H11T15615   6.219  -0.136   3.256 -0.4583 -1.5497  0.1493
  143OSM   C12S15616   6.232  -0.053   3.458  0.2496 -0.0586  0.0221
  143OSM   H12S15617   6.178  -0.140   3.501 -0.6769  1.6517  2.6194
  143OSM   H12T15618   6.195   0.031   3.521 -0.4036 -0.4254  0.1376
  143OSM   C13S15619   6.377  -0.068   3.480 -0.8147  0.3269  0.1611
  143OSM   H13S15620   6.439   0.019   3.449 -0.9340 -0.2219 -1.7210
  143OSM   H13T15621   6.413  -0.150   3.414 -1.8584  0.0344 -0.0648
  143OSM   C14S15622   6.399  -0.092   3.629 -0.4648  0.2264  0.3525
  143OSM   H14S15623   6.354  -0.190   3.656  0.8392 -0.5183 -0.0989
  143OSM   H14T15624   6.351  -0.018   3.696  0.6460 -1.4792  3.2111
  143OSM   C15S15625   6.547  -0.100   3.668  0.2302  0.0729  0.4723
  143OSM   H15S15626   6.566  -0.113   3.777 -1.8790 -1.8775  0.6716
  143OSM   H15T15627   6.592   0.001   3.652  0.1367  0.5131  2.6962
  143OSM   C16S15628   6.636  -0.207   3.587  1.2686 -0.0604  0.9569
  143OSM   H16S15629   6.618  -0.179   3.481  0.0102 -2.1731  0.5612
  143OSM   H16T15630   6.606  -0.313   3.595  0.8175 -0.2075 -1.8775
  143OSM   C17S15631   6.791  -0.192   3.614  0.1950  0.2325  0.0558
  143OSM   H17S15632   6.815  -0.204   3.722  0.0262  1.8835  0.3136
  143OSM   H17T15633   6.828  -0.091   3.586 -2.4030  1.1915 -0.1623
  143OSM   C18S15634   6.876  -0.291   3.536 -0.4603 -0.7906  0.0853
  143OSM   H18S15635   6.986  -0.284   3.554 -0.2748 -0.7426 -1.0148
  143OSM   H18T15636   6.856  -0.275   3.428  0.0188 -1.0567 -0.0496
  143OSM   H18U15637   6.846  -0.395   3.562  0.2758 -0.4639  2.5705
  143OSM    C1F15638   5.369   0.217   2.635  0.3933  0.1513  0.4939
  143OSM     OF15639   5.280   0.159   2.573  0.2825  0.5181 -0.1048
  143OSM    C2F15640   5.332   0.328   2.727 -0.5266 -0.2502  0.1550
  143OSM    H2F15641   5.274   0.411   2.682 -1.4535 -1.0069 -0.0822
  143OSM    H2G15642   5.428   0.368   2.765 -0.9313 -0.4691  1.4968
  143OSM    C3F15643   5.249   0.277   2.844  0.6452  0.2912 -0.5794
  143OSM    H3F15644   5.246   0.166   2.858 -1.3814  0.5589  1.9069
  143OSM    H3G15645   5.141   0.301   2.832 -0.1683 -1.7275  1.7320
  143OSM    C4F15646   5.297   0.333   2.984  0.2445  0.2849 -0.4829
  143OSM    H4F15647   5.300   0.443   2.994 -1.9352  0.5773 -2.2185
  143OSM    H4G15648   5.394   0.281   2.995 -1.5080 -2.9381  1.1777
  143OSM    C5F15649   5.208   0.276   3.094  1.0941  0.2037  0.1842
  143OSM    H5F15650   5.177   0.171   3.074  0.9526  0.0963  0.9476
  143OSM    H5G15651   5.111   0.330   3.094  0.2970 -1.1507  1.1062
  143OSM    C6F15652   5.274   0.291   3.234 -0.6572 -0.5877 -0.2225
  143OSM    H6F15653   5.314   0.395   3.243 -0.2359 -0.3671 -3.5349
  143OSM    H6G15654   5.363   0.225   3.238  0.4223  0.7008 -1.6189
  143OSM    C7F15655   5.187   0.257   3.353  0.2325  0.2613  0.1678
  143OSM    H7F15656   5.144   0.156   3.335 -1.6956  0.8775  1.0013
  143OSM    H7G15657   5.116   0.343   3.353 -0.3166 -0.1767  1.0821
  143OSM    C8F15658   5.259   0.234   3.484 -0.1833 -0.1939 -0.2947
  143OSM    H8F15659   5.284   0.333   3.526 -1.4618 -0.2154  0.5624
  143OSM    H8G15660   5.355   0.191   3.448 -1.9225 -4.5620 -0.3747
  143OSM    C9F15661   5.191   0.164   3.592 -0.0780  0.4433  0.2961
  143OSM    H9F15662   5.207   0.056   3.595  2.2684  0.7397  0.3863
  143OSM   C10F15663   5.102   0.217   3.686  0.0010 -0.7694  0.0381
  143OSM   H10F15664   5.045   0.151   3.754 -0.8906 -0.2177 -0.1543
  143OSM   C11F15665   5.082   0.368   3.691 -0.4307  0.0365  0.0420
  143OSM   H11F15666   5.015   0.404   3.610 -1.6241 -0.2281  0.8840
  143OSM   H11G15667   5.178   0.423   3.695 -0.6933  0.7052 -1.8294
  143OSM   C12F15668   5.010   0.403   3.827  0.1528  0.3025  0.4174
  143OSM   H12F15669   4.913   0.349   3.831  0.2544  0.1821  1.3359
  143OSM   H12G15670   4.988   0.512   3.833 -1.1841 -0.0519  3.6634
  143OSM   C13F15671   5.092   0.361   3.950 -0.8483 -0.5682 -0.4595
  143OSM   H13F15672   5.193   0.409   3.949 -0.0783 -2.0955  0.0929
  143OSM   H13G15673   5.120   0.254   3.942 -0.3324 -0.4565 -0.2064
  143OSM   C14F15674   5.019   0.392   4.081  0.7964  0.0039  0.0534
  143OSM   H14F15675   4.921   0.341   4.066  0.3826  1.0517 -0.9795
  143OSM   H14G15676   5.006   0.502   4.076 -0.6043 -0.1771 -1.4357
  143OSM   C15F15677   5.105   0.349   4.199 -0.4593  0.8069  0.1822
  143OSM   H15F15678   5.194   0.412   4.222  0.8710 -1.4235  1.6188
  143OSM   H15G15679   5.140   0.246   4.175 -0.2891  0.7193  0.7959
  143OSM   C16F15680   5.021   0.328   4.327  0.2441 -0.3224 -0.4532
  143OSM   H16F15681   4.944   0.248   4.318 -0.7044 -0.0504  3.2874
  143OSM   H16G15682   4.959   0.419   4.349  0.6151 -0.3865  1.0039
  143OSM   C17F15683   5.101   0.305   4.449 -0.6263  0.1849 -0.4264
  143OSM   H17F15684   5.182   0.380   4.464 -0.4230 -0.2620  0.8746
  143OSM   H17G15685   5.151   0.207   4.429  0.7798  0.2364  2.3819
  143OSM   C18F15686   5.020   0.272   4.574 -0.4668 -0.3352  0.6668
  143OSM   H18F15687   4.941   0.201   4.542 -0.1877 -0.6564  0.6853
  143OSM   H18G15688   4.970   0.367   4.601 -2.5180 -1.5363  1.3715
  143OSM   H18H15689   5.093   0.238   4.650 -0.7395  0.9877  1.5573
  144OSM      N15690   4.603   6.738   1.995 -0.1334 -0.2100 -0.0715
  144OSM    C1515691   4.588   6.874   1.930 -0.1062 -0.4463 -0.7590
  144OSM   H15A15692   4.552   6.853   1.830 -0.1738 -2.8728 -0.2773
  144OSM   H15B15693   4.681   6.929   1.928 -0.5830  0.4064  0.0010
  144OSM   H15C15694   4.523   6.940   1.985  0.4461  0.0190 -0.6542
  144OSM    C1415695   4.512   6.641   1.926  0.6584 -0.2582  0.2031
  144OSM   H14A15696   4.522   6.541   1.966 -0.2033 -1.0756 -1.5474
  144OSM   H14B15697   4.543   6.632   1.823 -1.0668  1.4423 -0.5182
  144OSM   H14C15698   4.409   6.671   1.929  0.6055 -0.4346  0.1296
  144OSM    C1315699   4.745   6.703   1.966 -0.0726  0.0732 -0.5727
  144OSM   H13A15700   4.804   6.750   2.045 -0.6645 -2.2106  1.3481
  144OSM   H13B15701   4.774   6.715   1.863 -0.5907  0.0868 -0.7152
  144OSM   H13C15702   4.764   6.599   1.990 -1.0298  0.3605  1.7405
  144OSM    C1215703   4.582   6.754   2.143  0.2431  0.0599  0.3860
  144OSM   H12A15704   4.652   6.821   2.190 -1.6085  1.1511  1.7217
  144OSM   H12B15705   4.593   6.653   2.179 -2.0328 -1.6169 -3.0662
  144OSM    C1115706   4.440   6.802   2.189  0.4110 -0.3439  0.3331
  144OSM   H11A15707   4.424   6.795   2.299 -3.0708 -1.1613 -0.0982
  144OSM   H11B15708   4.363   6.730   2.151  1.4798 -0.7875 -1.0644
  144OSM      P15709   4.456   7.051   2.234  0.0161  0.6592 -0.3243
  144OSM    O1315710   4.603   7.028   2.263  0.0773  0.7647  0.3637
  144OSM    O1415711   4.420   7.180   2.181 -0.2662 -0.5057 -0.2657
  144OSM    O1115712   4.374   7.027   2.361 -0.0981 -0.8263 -0.5089
  144OSM    O1215713   4.407   6.933   2.140 -0.7849  0.7731  0.4993
  144OSM    C1S15714   4.232   7.024   2.375  0.0306  0.0853  0.0881
  144OSM    H1S15715   4.192   6.924   2.347 -1.4007  1.1750 -2.0441
  144OSM    H1T15716   4.183   7.097   2.307  1.6508  3.3827  2.2172
  144OSM     NF15717   4.036   7.085   2.521  0.6030 -0.9081  0.2304
  144OSM    HNF15718   4.005   7.175   2.549 -0.5537 -1.5107  1.0044
  144OSM    C2S15719   4.182   7.070   2.523  0.5912  0.4982  0.0463
  144OSM    H2S15720   4.191   6.985   2.594 -3.2734 -0.8080 -0.8130
  144OSM    C3S15721   4.259   7.188   2.573  0.1186 -0.0032  0.3625
  144OSM    H3S15722   4.231   7.277   2.512  1.7067 -0.6680 -1.4486
  144OSM     O315723   4.401   7.192   2.550  0.1483  0.5224  0.3921
  144OSM    HO315724   4.408   7.113   2.496 -0.6878  0.2513  0.6680
  144OSM    C4S15725   4.220   7.199   2.711  0.8207 -0.0301  0.0428
  144OSM    H4S15726   4.155   7.287   2.727  0.8627  0.7463 -3.2286
  144OSM    C5S15727   4.270   7.125   2.811  0.2153  0.4814  0.1533
  144OSM    H5S15728   4.349   7.051   2.792 -2.0031 -1.8488 -0.6587
  144OSM    C6S15729   4.248   7.156   2.964  0.0414  0.3156 -0.1348
  144OSM    H6S15730   4.267   7.062   3.021  1.6501  0.4896 -0.3228
  144OSM    H6T15731   4.145   7.182   2.995 -0.9407 -1.8475 -1.3928
  144OSM    C7S15732   4.318   7.279   3.015  0.3842 -0.4781 -0.7531
  144OSM    H7S15733   4.263   7.366   2.973  0.3086 -0.7734 -1.2790
  144OSM    H7T15734   4.423   7.286   2.979 -0.2955  0.7032 -2.6331
  144OSM    C8S15735   4.313   7.298   3.170 -0.2802 -0.1148  0.4462
  144OSM    H8S15736   4.373   7.387   3.197 -2.4979  1.2294  1.1460
  144OSM    H8T15737   4.357   7.212   3.225  2.6000  2.2224  2.0513
  144OSM    C9S15738   4.173   7.325   3.232  0.2662  0.3057 -0.1436
  144OSM    H9S15739   4.125   7.229   3.260  0.5120 -0.5974 -2.6071
  144OSM    H9T15740   4.107   7.379   3.160  1.5466  2.2605  0.0775
  144OSM   C10S15741   4.169   7.405   3.372 -0.4329  0.2397  0.5317
  144OSM   H10S15742   4.073   7.393   3.426  0.2626 -0.8652  1.5620
  144OSM   H10T15743   4.200   7.509   3.346  2.6138 -1.2578 -2.6472
  144OSM   C11S15744   4.277   7.353   3.473 -0.3713  0.2778 -0.3567
  144OSM   H11S15745   4.375   7.361   3.420 -0.6852  3.2185 -0.6788
  144OSM   H11T15746   4.259   7.246   3.495  1.9379 -0.2423 -0.7310
  144OSM   C12S15747   4.280   7.425   3.602  0.0607  0.1829  0.2121
  144OSM   H12S15748   4.188   7.380   3.647  0.1445  0.4675  0.6843
  144OSM   H12T15749   4.269   7.534   3.585  0.3999  0.8178  3.3807
  144OSM   C13S15750   4.409   7.379   3.680  0.2878 -0.5023  0.4607
  144OSM   H13S15751   4.489   7.412   3.610 -0.2887 -1.1657 -0.5288
  144OSM   H13T15752   4.404   7.268   3.681 -0.5320 -0.5317 -1.6712
  144OSM   C14S15753   4.425   7.452   3.812  0.1871 -0.4166  0.3591
  144OSM   H14S15754   4.329   7.456   3.867  0.0405 -0.1456  0.0857
  144OSM   H14T15755   4.468   7.552   3.792  0.4811 -0.9701 -2.0225
  144OSM   C15S15756   4.533   7.381   3.905  0.3154 -0.4010  0.1712
  144OSM   H15S15757   4.624   7.380   3.842 -1.2893  2.3219 -2.4739
  144OSM   H15T15758   4.500   7.276   3.917 -0.3522 -0.8359 -4.0367
  144OSM   C16S15759   4.549   7.443   4.038 -0.4378 -0.6303 -0.5507
  144OSM   H16S15760   4.467   7.401   4.099 -1.8867  2.2960 -0.2635
  144OSM   H16T15761   4.517   7.550   4.031 -3.8688 -1.4341  0.9766
  144OSM   C17S15762   4.692   7.449   4.087 -0.0445 -0.0645 -0.1140
  144OSM   H17S15763   4.762   7.504   4.020  2.1632 -1.1070  1.2147
  144OSM   H17T15764   4.724   7.343   4.088  0.5850  0.0896  2.4726
  144OSM   C18S15765   4.711   7.499   4.235 -0.0827 -0.6025 -0.8890
  144OSM   H18S15766   4.817   7.488   4.267 -0.0498 -0.8136 -1.0685
  144OSM   H18T15767   4.652   7.429   4.296 -0.4226  0.2277 -0.2492
  144OSM   H18U15768   4.677   7.603   4.253  1.6293 -0.3909  1.6893
  144OSM    C1F15769   3.945   6.995   2.479  0.2406 -0.5875 -0.6364
  144OSM     OF15770   3.974   6.876   2.468 -0.1712 -0.2934  0.3847
  144OSM    C2F15771   3.809   7.049   2.456  0.3218 -0.4953  0.3122
  144OSM    H2F15772   3.784   7.045   2.348 -1.7086 -2.7414  0.7873
  144OSM    H2G15773   3.792   7.152   2.494  1.1043 -0.5590  0.8584
  144OSM    C3F15774   3.701   6.949   2.510  0.0919 -0.9418 -0.7189
  144OSM    H3F15775   3.708   6.852   2.456 -1.0934 -1.2869 -0.2992
  144OSM    H3G15776   3.599   6.992   2.495 -0.0314 -1.2699 -0.8284
  144OSM    C4F15777   3.720   6.913   2.658  0.1447  0.7054  0.1108
  144OSM    H4F15778   3.827   6.885   2.669  0.7330  2.7920  0.1554
  144OSM    H4G15779   3.652   6.828   2.680  2.2765 -1.2718 -0.5420
  144OSM    C5F15780   3.700   7.033   2.757  0.6409  0.1018  0.8604
  144OSM    H5F15781   3.593   7.056   2.738  0.2963 -0.6407  1.8397
  144OSM    H5G15782   3.761   7.119   2.722  0.1357  0.2415  0.3108
  144OSM    C6F15783   3.740   7.004   2.899 -0.1800 -0.5092  0.3237
  144OSM    H6F15784   3.686   6.910   2.923 -3.1723  1.1597  0.7188
  144OSM    H6G15785   3.698   7.083   2.965  0.7233 -0.3523  0.7209
  144OSM    C7F15786   3.893   6.987   2.917 -0.3873 -0.1092 -1.0458
  144OSM    H7F15787   3.946   7.074   2.872  0.7898 -0.1223  0.2451
  144OSM    H7G15788   3.926   6.889   2.876 -0.4405  0.3676 -2.2443
  144OSM    C8F15789   3.936   6.982   3.064  0.2782 -0.1959 -0.1382
  144OSM    H8F15790   3.905   7.076   3.115 -1.1318 -1.4236  1.3814
  144OSM    H8G15791   4.047   6.990   3.066  0.1494  2.8808  1.2395
  144OSM    C9F15792   3.881   6.861   3.129 -0.0165 -0.1856  0.0541
  144OSM    H9F15793   3.869   6.785   3.049 -1.9124  1.2038 -1.0800
  144OSM   C10F15794   3.829   6.848   3.253 -0.3341  0.6702  0.2316
  144OSM   H10F15795   3.814   6.742   3.277 -0.6617  0.6106 -0.2325
  144OSM   C11F15796   3.846   6.940   3.369 -0.4005 -0.2562  0.5576
  144OSM   H11F15797   3.775   7.025   3.374  2.7002  2.4276  2.1684
  144OSM   H11G15798   3.948   6.983   3.373  0.1630 -1.4041 -0.5869
  144OSM   C12F15799   3.839   6.859   3.498  0.6485 -0.0488  0.1466
  144OSM   H12F15800   3.932   6.798   3.505 -1.2161 -2.8663  2.7836
  144OSM   H12G15801   3.754   6.787   3.499  0.6164 -0.0418 -0.7306
  144OSM   C13F15802   3.806   6.948   3.611 -0.9714 -0.0776  0.3136
  144OSM   H13F15803   3.721   7.011   3.578  0.6341  1.3326 -1.3635
  144OSM   H13G15804   3.885   7.022   3.636  0.3273 -1.0171 -0.8389
  144OSM   C14F15805   3.769   6.880   3.740  0.8009  0.2317 -0.1714
  144OSM   H14F15806   3.841   6.799   3.761  0.9623 -0.1387 -1.9647
  144OSM   H14G15807   3.680   6.819   3.714  1.6667 -0.3140 -2.0689
  144OSM   C15F15808   3.752   6.972   3.860 -0.3476 -0.2650 -0.3533
  144OSM   H15F15809   3.855   7.006   3.882 -1.2160  1.0502  2.0286
  144OSM   H15G15810   3.700   6.919   3.943 -0.8634  1.1046  0.2191
  144OSM   C16F15811   3.662   7.091   3.836 -0.2094  0.1262 -0.0051
  144OSM   H16F15812   3.558   7.055   3.844 -0.2214 -0.2587 -1.6302
  144OSM   H16G15813   3.674   7.137   3.736 -1.0544  0.2589 -0.0496
  144OSM   C17F15814   3.677   7.201   3.940  0.4397 -0.0739 -0.4334
  144OSM   H17F15815   3.606   7.285   3.923 -1.5582 -1.8178 -1.1385
  144OSM   H17G15816   3.779   7.242   3.924  0.2945  0.9989  1.1458
  144OSM   C18F15817   3.674   7.159   4.082  0.1058 -0.2741 -0.2081
  144OSM   H18F15818   3.685   7.254   4.138 -1.2798  0.1888 -0.6715
  144OSM   H18G15819   3.765   7.099   4.106 -0.8113 -1.3960  0.6007
  144OSM   H18H15820   3.594   7.088   4.114 -0.4271 -0.2814 -1.5004
  145SAPE     N15821   0.357   5.214   6.732 -0.3931  0.2371  0.2428
  145SAPE   HN115822   0.270   5.242   6.782  0.2397  0.0151  1.5248
  145SAPE   HN215823   0.335   5.137   6.665 -0.0274 -1.8096  2.3344
  145SAPE   HN315824   0.426   5.180   6.802  0.3572 -0.4373 -0.8087
  145SAPE   C1215825   0.404   5.330   6.654 -0.1996 -0.2258  0.1045
  145SAPE  H12A15826   0.503   5.298   6.615  1.0222  3.2579 -0.0142
  145SAPE  H12B15827   0.421   5.417   6.722 -0.1423  1.1071 -1.5451
  145SAPE   C1115828   0.293   5.357   6.548  0.0414 -0.0027 -0.3472
  145SAPE  H11A15829   0.280   5.269   6.481 -0.9088  1.2667 -1.9018
  145SAPE  H11B15830   0.330   5.435   6.478  0.9284  0.7695  0.9357
  145SAPE     P15831   0.120   5.546   6.616 -0.2767 -0.2299  0.3115
  145SAPE   O1315832  -0.014   5.547   6.681  0.4345  0.0021  0.0982
  145SAPE   O1415833   0.221   5.640   6.670  0.0600  0.9754 -0.2169
  145SAPE   O1215834   0.169   5.395   6.610  0.0145  0.0545 -0.2107
  145SAPE   O1115835   0.098   5.585   6.461  0.1610 -0.2330  0.2209
  145SAPE    C115836  -0.014   5.526   6.402  0.2532  0.2881  0.8218
  145SAPE    HA15837  -0.026   5.417   6.418 -3.4566  0.1960 -1.4138
  145SAPE    HB15838  -0.109   5.571   6.439 -1.5126 -2.1875 -0.4387
  145SAPE    C215839   0.002   5.541   6.246 -0.3010 -0.1299 -0.3829
  145SAPE    HS15840  -0.013   5.650   6.232 -1.0233 -0.0315  0.9801
  145SAPE   O2115841  -0.089   5.449   6.175 -0.4044  0.3537  0.5866
  145SAPE   C2115842  -0.186   5.516   6.116 -0.1284  0.2060 -0.0041
  145SAPE   O2215843  -0.212   5.633   6.138 -0.4531 -0.1071  0.4073
  145SAPE   C2215844  -0.249   5.430   6.008 -0.5691 -0.6763  0.4457
  145SAPE   H2R15845  -0.162   5.404   5.944 -0.5058  1.0435 -0.2185
  145SAPE   H2S15846  -0.292   5.337   6.052  0.5467 -1.3861  0.0820
  145SAPE    C315847   0.153   5.518   6.210 -0.4544 -0.4602 -0.6903
  145SAPE    HX15848   0.186   5.428   6.267 -1.1369 -1.0912 -1.2702
  145SAPE    HY15849   0.203   5.604   6.259 -2.4612 -0.5608  1.7760
  145SAPE   O3115850   0.168   5.500   6.066  0.5753  0.6842  0.6081
  145SAPE   C3115851   0.181   5.615   5.997  0.2995 -0.0033 -0.4787
  145SAPE   O3215852   0.168   5.728   6.048  0.3662 -0.2309  0.2950
  145SAPE   C3215853   0.214   5.580   5.847  0.0935 -0.5943 -0.1670
  145SAPE   H2X15854   0.305   5.518   5.855  1.3790  1.2865  0.4299
  145SAPE   H2Y15855   0.248   5.673   5.796 -0.7929 -1.4486 -2.4584
  145SAPE   C2315856  -0.361   5.496   5.927 -0.4217  0.8311  0.4691
  145SAPE   H3R15857  -0.430   5.544   5.999 -2.7976 -2.0007  0.2503
  145SAPE   H3S15858  -0.415   5.411   5.881 -0.8538  2.7636 -2.8931
  145SAPE   C2415859  -0.320   5.585   5.810  0.2704  0.3456 -0.5087
  145SAPE   H4R15860  -0.242   5.547   5.740  0.1439 -1.2574  0.1777
  145SAPE   H4S15861  -0.281   5.678   5.857 -1.2375  1.5890 -1.6125
  145SAPE   C2515862  -0.455   5.624   5.750 -0.4395  0.3207  0.0074
  145SAPE   H5R15863  -0.535   5.548   5.755 -0.9396  0.6604 -1.9769
  145SAPE   C2615864  -0.477   5.737   5.679  0.6617 -0.1524  0.1439
  145SAPE   H6R15865  -0.570   5.743   5.621  2.0604  2.2423 -2.0592
  145SAPE   C2715866  -0.371   5.850   5.655 -0.0222  0.1433  0.4571
  145SAPE   H7R15867  -0.270   5.812   5.683 -0.5013 -2.2811 -0.7984
  145SAPE   H7S15868  -0.389   5.927   5.732 -0.1262  0.9925 -0.3934
  145SAPE   C2815869  -0.369   5.917   5.521  1.0581 -0.4332 -0.0408
  145SAPE   H8R15870  -0.382   6.026   5.523  1.6111 -0.3567 -0.3589
  145SAPE   C2915871  -0.349   5.866   5.399 -0.6095  0.2171 -0.2037
  145SAPE   H9R15872  -0.357   5.930   5.310  0.6730 -0.1496 -0.6086
  145SAPE  C21015873  -0.329   5.722   5.375  0.1737  1.4264  0.0337
  145SAPE  H10R15874  -0.418   5.665   5.342  1.5569 -0.2452 -0.9321
  145SAPE  H10S15875  -0.290   5.669   5.465 -0.4139  0.2562 -0.3843
  145SAPE  C21115876  -0.232   5.686   5.272  0.5762  0.2148  0.8320
  145SAPE  H11R15877  -0.134   5.645   5.301  0.4361  0.7386  2.0896
  145SAPE  C21215878  -0.245   5.722   5.136  0.3313  0.5652  0.1787
  145SAPE  H12R15879  -0.168   5.688   5.065 -1.9031 -0.6158 -1.8318
  145SAPE  C21315880  -0.360   5.795   5.073  0.6709 -0.3042 -0.3846
  145SAPE  H13R15881  -0.441   5.809   5.148  1.8033 -2.5501  1.3919
  145SAPE  H13S15882  -0.393   5.714   5.005  1.1863 -2.7395  2.0778
  145SAPE  C21415883  -0.329   5.923   5.007  0.3587  0.2027 -0.0429
  145SAPE  H14R15884  -0.273   5.992   5.071  0.7265  1.7781 -1.9832
  145SAPE  C21515885  -0.355   5.962   4.882 -0.4828  0.7959 -0.5189
  145SAPE  H15R15886  -0.318   6.060   4.849 -1.2121  2.1576  2.4451
  145SAPE  C21615887  -0.428   5.876   4.784  0.3816  0.0129 -0.0606
  145SAPE  H16R15888  -0.533   5.863   4.817 -0.0044 -0.8712 -1.5014
  145SAPE  H16S15889  -0.382   5.775   4.779 -2.0401 -1.1705  0.0780
  145SAPE  C21715890  -0.439   5.939   4.642  0.4195 -0.4895  0.4226
  145SAPE  H17R15891  -0.478   5.866   4.567  0.2893  0.8731 -0.8917
  145SAPE  H17S15892  -0.339   5.965   4.601 -1.4483  0.7520 -3.8867
  145SAPE  C21815893  -0.525   6.057   4.637 -0.0185 -0.2893  0.2106
  145SAPE  H18R15894  -0.476   6.148   4.677 -0.0654  1.3614 -3.2098
  145SAPE  H18S15895  -0.623   6.031   4.682 -0.3801 -1.7415 -1.3165
  145SAPE  C21915896  -0.564   6.104   4.498  0.7107  0.0133 -0.4228
  145SAPE  H19R15897  -0.636   6.026   4.465 -0.6265 -0.4328  3.1293
  145SAPE  H19S15898  -0.477   6.114   4.430  0.3761 -1.1018 -1.0365
  145SAPE  C22015899  -0.629   6.244   4.504  0.2540  0.2768 -0.2139
  145SAPE  H20R15900  -0.663   6.290   4.409  0.3972 -2.7971 -1.8794
  145SAPE  H20S15901  -0.560   6.311   4.560 -1.8136  1.4302  1.0990
  145SAPE  H20T15902  -0.730   6.232   4.550 -0.2160  0.1266 -1.2603
  145SAPE   C3315903   0.087   5.513   5.779  0.3202  0.5908 -0.4433
  145SAPE   H3X15904  -0.005   5.572   5.792  0.0172 -0.1018  0.6826
  145SAPE   H3Y15905   0.079   5.408   5.813  2.6415 -0.0576 -1.6268
  145SAPE   C3415906   0.125   5.499   5.634  0.4240 -0.5050  0.2113
  145SAPE   H4X15907   0.192   5.411   5.624 -1.2244 -1.9910  1.4870
  145SAPE   H4Y15908   0.195   5.585   5.625  1.5362 -1.4712 -0.6109
  145SAPE   C3515909   0.009   5.494   5.532 -0.4606 -0.0092 -0.0020
  145SAPE   H5X15910  -0.053   5.586   5.533 -0.4223  0.0343 -0.7056
  145SAPE   H5Y15911  -0.049   5.404   5.561 -0.1757 -0.3701 -0.5180
  145SAPE   C3615912   0.062   5.463   5.392  0.3043  0.2459 -0.0985
  145SAPE   H6X15913   0.135   5.379   5.400  1.3194  1.0895 -0.3630
  145SAPE   H6Y15914   0.108   5.559   5.360  2.0488 -0.8040 -0.9047
  145SAPE   C3715915  -0.039   5.406   5.289 -0.3396 -0.1566  0.2262
  145SAPE   H7X15916  -0.141   5.447   5.297 -1.2298 -2.2649  0.3316
  145SAPE   H7Y15917  -0.053   5.297   5.308  1.5016 -0.7849 -1.5395
  145SAPE   C3815918   0.016   5.411   5.149 -0.4657 -0.2320  0.3487
  145SAPE   H8X15919   0.091   5.329   5.148  0.6168  0.7206  0.7532
  145SAPE   H8Y15920   0.057   5.512   5.126 -1.5096 -0.4581 -3.0569
  145SAPE   C3915921  -0.079   5.385   5.037  0.3692  0.1050  0.2250
  145SAPE   H9X15922  -0.165   5.456   5.038 -0.0185 -0.3180  2.2232
  145SAPE   H9Y15923  -0.110   5.279   5.055  1.1086  0.0543  1.3036
  145SAPE  C31015924  -0.004   5.377   4.905 -0.2229 -0.1713  0.4675
  145SAPE  H10X15925   0.060   5.287   4.917 -2.0622 -1.4661  1.0743
  145SAPE  H10Y15926   0.057   5.468   4.889 -0.0090 -0.1275  1.4916
  145SAPE  C31115927  -0.099   5.361   4.786 -0.1056  0.0923  0.6223
  145SAPE  H11X15928  -0.162   5.452   4.781  0.7865  0.6617 -0.9474
  145SAPE  H11Y15929  -0.168   5.277   4.811 -0.1280  0.3010  1.2872
  145SAPE  C31215930  -0.024   5.334   4.656 -0.2484  0.1230 -0.3141
  145SAPE  H12X15931   0.033   5.240   4.672 -1.3954 -0.6156 -0.3894
  145SAPE  H12Y15932   0.049   5.416   4.639 -0.5194  0.4524  0.1115
  145SAPE  C31315933  -0.115   5.310   4.534 -0.3397  0.2332  0.5178
  145SAPE  H13X15934  -0.169   5.401   4.499  1.7821  1.3473 -0.0758
  145SAPE  H13Y15935  -0.181   5.223   4.555 -1.5819  1.1022  0.3165
  145SAPE  C31415936  -0.022   5.287   4.407  0.3442  0.1895  0.2068
  145SAPE  H14X15937   0.035   5.193   4.425 -0.8268 -0.6052 -0.1045
  145SAPE  H14Y15938   0.053   5.369   4.411  0.4355  0.0623  1.1315
  145SAPE  C31515939  -0.105   5.265   4.281  0.2955  0.4591  0.1178
  145SAPE  H15X15940  -0.192   5.206   4.316 -0.9833  2.6357  0.7204
  145SAPE  H15Y15941  -0.044   5.217   4.200 -1.3646  0.7567 -1.3730
  145SAPE  C31615942  -0.150   5.402   4.229  0.2549  0.7490 -0.0439
  145SAPE  H16X15943  -0.066   5.471   4.204 -0.3665  1.3988 -0.3482
  145SAPE  H16Y15944  -0.213   5.452   4.304  1.1500  0.1367  1.1512
  145SAPE  C31715945  -0.240   5.389   4.108  0.8716 -0.0329 -0.0866
  145SAPE  H17X15946  -0.341   5.355   4.140  0.7603 -0.1050 -0.5073
  145SAPE  H17Y15947  -0.213   5.300   4.046  1.4153 -2.9671  3.9821
  145SAPE  C31815948  -0.253   5.519   4.032  0.5860  0.4072  0.6674
  145SAPE  H18X15949  -0.282   5.606   4.095  0.9676 -0.1182  1.5774
  145SAPE  H18Y15950  -0.326   5.516   3.948  2.2484  0.4670 -0.8401
  145SAPE  H18Z15951  -0.156   5.533   3.980  1.6224 -5.2057  0.4362
  146SAPE     N15952   3.047   4.104   6.768 -0.3413 -0.1624  0.1806
  146SAPE   HN115953   3.083   4.147   6.855  0.0984 -2.7938  1.3823
  146SAPE   HN215954   2.960   4.058   6.802 -2.0121  1.6071 -1.4193
  146SAPE   HN315955   3.117   4.030   6.750 -0.2324  0.2645 -1.2778
  146SAPE   C1215956   3.025   4.199   6.656  0.1346  0.1247  0.1090
  146SAPE  H12A15957   2.984   4.299   6.683 -0.1837  0.2026 -0.6335
  146SAPE  H12B15958   2.953   4.143   6.594 -0.0426  0.1299  0.3085
  146SAPE   C1115959   3.151   4.214   6.565  0.2796  0.3167  0.0781
  146SAPE  H11A15960   3.110   4.243   6.466  0.9012  2.1887  0.3394
  146SAPE  H11B15961   3.200   4.114   6.567  0.1102  0.2355  2.2504
  146SAPE     P15962   3.279   4.444   6.550  0.4974 -0.2453  0.1872
  146SAPE   O1315963   3.177   4.546   6.576 -0.2902 -0.4080  0.0424
  146SAPE   O1415964   3.416   4.472   6.590 -0.1386  0.4781  0.0088
  146SAPE   O1215965   3.235   4.308   6.621  0.2904 -0.4650  0.0270
  146SAPE   O1115966   3.278   4.404   6.394 -0.1288 -0.1937  0.2243
  146SAPE    C115967   3.252   4.509   6.299  0.0754 -0.5543 -0.0778
  146SAPE    HA15968   3.143   4.532   6.301  0.7909  3.4259 -0.0913
  146SAPE    HB15969   3.315   4.599   6.308 -1.7081  0.7012  0.4635
  146SAPE    C215970   3.270   4.468   6.146 -0.5998 -1.0531  0.4679
  146SAPE    HS15971   3.234   4.549   6.079  2.7797  0.0086 -0.2542
  146SAPE   O2115972   3.193   4.354   6.110  0.1563  0.1971  0.1485
  146SAPE   C2115973   3.056   4.366   6.106 -0.1123 -0.3770 -0.7525
  146SAPE   O2215974   2.999   4.470   6.116 -1.0450 -0.3149 -0.1575
  146SAPE   C2215975   2.997   4.230   6.065 -0.4067  0.0032  0.2951
  146SAPE   H2R15976   2.970   4.243   5.958  0.4684 -1.3136 -0.1052
  146SAPE   H2S15977   3.068   4.145   6.074  0.2758  0.4262 -0.8116
  146SAPE    C315978   3.424   4.439   6.112 -0.6022  0.4113 -0.1428
  146SAPE    HX15979   3.446   4.335   6.143 -1.1925 -0.1060 -1.3970
  146SAPE    HY15980   3.484   4.509   6.174  0.1942 -0.4392  0.0649
  146SAPE   O3115981   3.450   4.466   5.972  0.4363 -0.2663 -0.1183
  146SAPE   C3115982   3.402   4.363   5.887 -0.6199 -0.3924 -0.4680
  146SAPE   O3215983   3.384   4.247   5.925 -0.4727  0.5727 -0.0736
  146SAPE   C3215984   3.399   4.416   5.748 -0.3636 -0.7917  0.2312
  146SAPE   H2X15985   3.500   4.456   5.722 -1.3092  0.5024 -1.7386
  146SAPE   H2Y15986   3.338   4.508   5.740  0.8571  0.0374  0.0384
  146SAPE   C2315987   2.871   4.190   6.141  0.3016  0.1506  0.1594
  146SAPE   H3R15988   2.894   4.202   6.249  0.5410  0.7105  0.0531
  146SAPE   H3S15989   2.865   4.081   6.122  1.4762  0.0156  0.4765
  146SAPE   C2415990   2.739   4.270   6.120 -0.0909  0.0943  0.1776
  146SAPE   H4R15991   2.734   4.279   6.009  0.4522 -0.1249  0.1311
  146SAPE   H4S15992   2.759   4.366   6.173 -0.4697  0.1784  0.1662
  146SAPE   C2515993   2.608   4.207   6.169  0.2501  0.3980  0.4594
  146SAPE   H5R15994   2.587   4.222   6.276 -2.7479  2.6767 -0.3261
  146SAPE   C2615995   2.507   4.152   6.100  0.0547 -0.1853  0.4079
  146SAPE   H6R15996   2.429   4.101   6.159 -2.3515  1.6647 -0.9557
  146SAPE   C2715997   2.511   4.117   5.951  0.0006 -0.3366 -0.0325
  146SAPE   H7R15998   2.475   4.012   5.949  0.0380 -0.3337 -1.2600
  146SAPE   H7S15999   2.610   4.111   5.900  0.0578 -1.5242  0.1779
  146SAPE   C2816000   2.409   4.201   5.872  0.6558 -0.0786 -0.4305
  146SAPE   H8R16001   2.327   4.241   5.933 -0.5053 -1.6502 -0.8837
  146SAPE   C2916002   2.406   4.215   5.737  0.4294 -0.4094  0.5951
  146SAPE   H9R16003   2.318   4.261   5.690 -0.2687 -2.3434 -0.0597
  146SAPE  C21016004   2.498   4.159   5.638 -0.1546  0.7928 -0.7715
  146SAPE  H10R16005   2.598   4.149   5.686 -1.1384 -1.4881  0.9503
  146SAPE  H10S16006   2.507   4.237   5.559  2.6922  1.8243  0.4274
  146SAPE  C21116007   2.465   4.021   5.586  0.1551 -0.1726  0.5853
  146SAPE  H11R16008   2.463   3.950   5.669  0.3349  0.5412  1.2070
  146SAPE  C21216009   2.462   3.981   5.457  0.0072  0.3889  0.6129
  146SAPE  H12R16010   2.432   3.876   5.442  0.6589  0.0360  1.6220
  146SAPE  C21316011   2.493   4.056   5.328 -0.0431 -0.4957  0.3256
  146SAPE  H13R16012   2.577   4.010   5.272 -1.3576 -1.3160 -1.0560
  146SAPE  H13S16013   2.520   4.163   5.344  1.1863 -0.4700 -1.6481
  146SAPE  C21416014   2.376   4.023   5.239 -1.0916 -0.0054  0.2150
  146SAPE  H14R16015   2.412   3.947   5.168 -1.8379 -2.7659  2.5989
  146SAPE  C21516016   2.254   4.080   5.246 -0.7155 -0.4972 -0.7354
  146SAPE  H15R16017   2.180   4.056   5.168 -0.5805 -3.0911 -0.1485
  146SAPE  C21616018   2.203   4.193   5.336  0.3205  0.4786 -0.7661
  146SAPE  H16R16019   2.278   4.234   5.407 -0.6679  1.8934 -0.5128
  146SAPE  H16S16020   2.112   4.165   5.392  1.6573 -0.1185  1.2446
  146SAPE  C21716021   2.149   4.303   5.237 -0.3047  0.4000  0.1096
  146SAPE  H17R16022   2.137   4.398   5.292 -0.5904 -0.4106  1.4923
  146SAPE  H17S16023   2.050   4.276   5.193 -0.6120 -1.0996  1.6113
  146SAPE  C21816024   2.238   4.336   5.116 -0.8654  0.1391 -0.7139
  146SAPE  H18R16025   2.247   4.248   5.048 -1.5105 -0.1672 -0.4073
  146SAPE  H18S16026   2.338   4.372   5.150 -2.2593  2.6587  1.0216
  146SAPE  C21916027   2.198   4.451   5.027 -0.3659 -0.3742 -0.3952
  146SAPE  H19R16028   2.171   4.545   5.080 -1.3777 -0.0697 -1.4026
  146SAPE  H19S16029   2.106   4.424   4.970  0.3309 -0.2367 -1.5995
  146SAPE  C22016030   2.303   4.476   4.921  0.2703  0.2707  0.3959
  146SAPE  H20R16031   2.272   4.552   4.847  1.0418 -0.0384 -0.2634
  146SAPE  H20S16032   2.322   4.390   4.853 -0.8118  0.9334 -0.7744
  146SAPE  H20T16033   2.400   4.517   4.958 -0.3674  1.4404  0.8139
  146SAPE   C3316034   3.369   4.312   5.642 -0.4020 -0.4300  0.0825
  146SAPE   H3X16035   3.266   4.270   5.648 -0.7060  0.2641 -0.2018
  146SAPE   H3Y16036   3.436   4.228   5.672 -1.1390 -0.2924  2.2957
  146SAPE   C3416037   3.395   4.345   5.495  0.1522 -0.2368 -0.1201
  146SAPE   H4X16038   3.494   4.397   5.494 -0.2250  0.5219  1.0427
  146SAPE   H4Y16039   3.320   4.426   5.482  3.8556  3.5744 -0.1688
  146SAPE   C3516040   3.394   4.225   5.397  0.3733  0.3712 -0.7406
  146SAPE   H5X16041   3.299   4.170   5.413  1.4131 -1.3673 -0.2277
  146SAPE   H5Y16042   3.474   4.156   5.432 -0.8363  0.0110  1.5030
  146SAPE   C3616043   3.420   4.281   5.256  0.3639 -0.2939  0.0381
  146SAPE   H6X16044   3.518   4.333   5.247 -0.0911  0.3120 -1.8145
  146SAPE   H6Y16045   3.346   4.362   5.238  0.7568  0.4180  1.5025
  146SAPE   C3716046   3.411   4.176   5.141 -0.5858 -0.3657 -0.4223
  146SAPE   H7X16047   3.315   4.119   5.139 -0.2586 -0.9378 -2.3053
  146SAPE   H7Y16048   3.491   4.101   5.161 -1.6023 -1.6448 -0.9526
  146SAPE   C3816049   3.416   4.246   5.003  0.2726  0.3387  0.0855
  146SAPE   H8X16050   3.522   4.257   4.969  0.6996 -1.3814  0.7617
  146SAPE   H8Y16051   3.361   4.342   5.012 -0.3840  0.2631 -2.4371
  146SAPE   C3916052   3.347   4.159   4.897  0.2290  0.0122 -0.1666
  146SAPE   H9X16053   3.245   4.130   4.929 -0.3212  1.5607 -0.4246
  146SAPE   H9Y16054   3.417   4.072   4.895  0.9247  0.4927  1.5123
  146SAPE  C31016055   3.339   4.220   4.757  0.2030  0.3148 -0.0264
  146SAPE  H10X16056   3.441   4.252   4.730  0.8915 -0.4499  1.5174
  146SAPE  H10Y16057   3.262   4.300   4.758 -1.1652 -0.9218 -1.0285
  146SAPE  C31116058   3.291   4.107   4.664  0.0898  0.0819 -0.2167
  146SAPE  H11X16059   3.214   4.041   4.709 -0.7590  1.2366  0.0922
  146SAPE  H11Y16060   3.384   4.058   4.628  0.1792 -0.0419  0.1770
  146SAPE  C31216061   3.225   4.177   4.542 -0.3239 -0.0309 -0.0467
  146SAPE  H12X16062   3.238   4.103   4.460  1.6128 -0.4193  0.5525
  146SAPE  H12Y16063   3.280   4.270   4.515 -0.3456  0.3023  1.0339
  146SAPE  C31316064   3.076   4.203   4.559  0.1549 -0.4658 -0.1115
  146SAPE  H13X16065   3.067   4.298   4.615 -0.8372 -1.0170  0.7055
  146SAPE  H13Y16066   3.028   4.130   4.628 -2.3742  1.6570  0.5504
  146SAPE  C31416067   2.989   4.203   4.430  0.1311 -0.2775 -0.2224
  146SAPE  H14X16068   2.999   4.106   4.376 -0.7450  0.1027 -1.1081
  146SAPE  H14Y16069   3.028   4.273   4.353 -0.5978  0.5652  0.1589
  146SAPE  C31516070   2.847   4.238   4.441  0.4433  0.2714 -0.9864
  146SAPE  H15X16071   2.840   4.346   4.466 -2.3095 -0.5012  2.3323
  146SAPE  H15Y16072   2.812   4.173   4.524  2.2892  0.2514 -0.1749
  146SAPE  C31616073   2.754   4.202   4.325 -0.5187  0.2185  0.8786
  146SAPE  H16X16074   2.763   4.093   4.306  1.4392  0.6257 -0.9135
  146SAPE  H16Y16075   2.801   4.255   4.240 -1.2117  1.4138  1.2175
  146SAPE  C31716076   2.610   4.244   4.333 -0.4039 -0.3622  0.7953
  146SAPE  H17X16077   2.542   4.179   4.393 -0.6948  0.6286  1.5599
  146SAPE  H17Y16078   2.565   4.226   4.233 -1.3605 -0.7384  1.2865
  146SAPE  C31816079   2.594   4.389   4.358 -0.0693 -0.3633  0.4673
  146SAPE  H18X16080   2.649   4.448   4.281  0.0132 -0.0171  0.7889
  146SAPE  H18Y16081   2.629   4.405   4.462 -0.2875 -0.8173  0.6144
  146SAPE  H18Z16082   2.490   4.427   4.358  0.4728  1.2230  1.6175
  147SAPE     N16083   2.126   1.845   6.710 -0.3945  0.4013 -0.2462
  147SAPE   HN116084   2.211   1.806   6.756 -0.6106  0.4307  0.1858
  147SAPE   HN216085   2.070   1.763   6.679 -1.9285  1.1368  0.4689
  147SAPE   HN316086   2.158   1.902   6.630  0.5674 -0.4034 -0.4607
  147SAPE   C1216087   2.043   1.926   6.811  0.1500 -0.1755  0.1565
  147SAPE  H12A16088   2.105   2.006   6.857 -1.1825 -0.9971  3.7263
  147SAPE  H12B16089   2.024   1.855   6.895 -0.6942 -1.4020 -1.0315
  147SAPE   C1116090   1.918   1.971   6.741 -1.1466 -0.1065  0.9650
  147SAPE  H11A16091   1.864   2.026   6.821 -1.4475 -0.7781  1.2373
  147SAPE  H11B16092   1.860   1.878   6.721  0.4611 -0.5274 -2.4381
  147SAPE     P16093   1.833   2.163   6.583  0.3600  0.4479 -0.7004
  147SAPE   O1316094   1.743   2.182   6.702  0.2189 -0.0266  0.4550
  147SAPE   O1416095   1.914   2.275   6.540 -0.5607 -0.0279  0.4069
  147SAPE   O1216096   1.933   2.047   6.615  0.0233 -0.5594 -0.7727
  147SAPE   O1116097   1.744   2.117   6.456 -0.0107  0.3473  0.1380
  147SAPE    C116098   1.748   1.979   6.418 -0.6075  0.3373  0.1041
  147SAPE    HA16099   1.773   1.910   6.501  4.0060  1.4441 -0.1304
  147SAPE    HB16100   1.648   1.953   6.375 -0.0118 -0.6838 -0.6909
  147SAPE    C216101   1.846   1.955   6.305 -0.6383  0.3067 -0.3536
  147SAPE    HS16102   1.948   1.990   6.330 -0.6865  0.5035 -0.4216
  147SAPE   O2116103   1.798   2.018   6.184 -0.1360 -0.7970 -0.2753
  147SAPE   C2116104   1.887   2.050   6.103 -0.2751  0.0981  0.2452
  147SAPE   O2216105   2.012   2.050   6.129  0.2291 -0.1603  0.6111
  147SAPE   C2216106   1.810   2.067   5.970  0.2429  0.7908 -0.1030
  147SAPE   H2R16107   1.773   1.968   5.938  1.1352  0.2418  0.5298
  147SAPE   H2S16108   1.715   2.121   5.991 -1.0379 -1.3151 -0.2815
  147SAPE    C316109   1.859   1.803   6.283  0.5876  0.3111 -0.1113
  147SAPE    HX16110   1.752   1.776   6.270  0.7738 -1.0265  0.8424
  147SAPE    HY16111   1.898   1.746   6.370  0.3495 -1.1429 -0.9080
  147SAPE   O3116112   1.924   1.770   6.161  0.4149  0.2563  0.1648
  147SAPE   C3116113   2.055   1.750   6.170 -1.0388  0.4786 -0.7267
  147SAPE   O3216114   2.122   1.751   6.272 -0.1450  0.1184 -0.6428
  147SAPE   C3216115   2.115   1.750   6.031  0.0843  0.1437 -0.2338
  147SAPE   H2X16116   2.196   1.674   6.043  0.6583  0.4341 -1.9989
  147SAPE   H2Y16117   2.156   1.853   6.022  3.0806 -0.8736  0.3803
  147SAPE   C2316118   1.899   2.136   5.862 -0.3995 -0.1406  0.0578
  147SAPE   H3R16119   1.997   2.082   5.859 -1.1093 -1.4482 -0.5259
  147SAPE   H3S16120   1.919   2.240   5.894  1.4355 -0.2773 -0.5121
  147SAPE   C2416121   1.832   2.128   5.720 -0.1771 -0.1670  0.2032
  147SAPE   H4R16122   1.795   2.025   5.703  0.9909 -0.6154  0.2762
  147SAPE   H4S16123   1.916   2.140   5.648 -0.7486  2.2397 -0.1392
  147SAPE   C2516124   1.719   2.234   5.705  0.6210 -0.3217 -0.0555
  147SAPE   H5R16125   1.682   2.283   5.796  2.0353  2.0686 -0.6705
  147SAPE   C2616126   1.659   2.260   5.587 -0.2359  0.2970  0.1308
  147SAPE   H6R16127   1.605   2.355   5.577  0.3919  0.7499  0.9011
  147SAPE   C2716128   1.695   2.205   5.452  0.6269  0.1672 -0.7819
  147SAPE   H7R16129   1.777   2.130   5.453  0.3625 -0.1281  0.6348
  147SAPE   H7S16130   1.729   2.280   5.377  1.7605 -0.5437 -1.0078
  147SAPE   C2816131   1.576   2.128   5.404  1.4659  0.0354 -1.2789
  147SAPE   H8R16132   1.525   2.069   5.482 -0.9340  2.3272 -0.9763
  147SAPE   C2916133   1.534   2.126   5.275  0.1230  0.6032 -0.1658
  147SAPE   H9R16134   1.446   2.069   5.242  0.8154  0.2671 -1.5111
  147SAPE  C21016135   1.596   2.197   5.158  0.1190 -0.4442 -0.4782
  147SAPE  H10R16136   1.698   2.164   5.128  0.4174  0.7090 -0.7545
  147SAPE  H10S16137   1.621   2.300   5.190 -0.7161 -0.5981  0.7017
  147SAPE  C21116138   1.503   2.222   5.041 -0.0699 -0.1621 -0.0586
  147SAPE  H11R16139   1.469   2.324   5.023  2.0905  0.4363 -1.0972
  147SAPE  C21216140   1.459   2.127   4.953  1.0029 -0.0233 -0.1851
  147SAPE  H12R16141   1.409   2.162   4.862  0.4703 -1.5490 -0.4937
  147SAPE  C21316142   1.489   1.986   4.945 -0.6958 -0.1308 -0.2335
  147SAPE  H13R16143   1.420   1.945   4.868  0.4603  2.4150 -2.7986
  147SAPE  H13S16144   1.439   1.948   5.037 -1.2961 -1.4018 -1.0575
  147SAPE  C21416145   1.629   1.930   4.936  0.3321  0.4862 -0.4847
  147SAPE  H14R16146   1.652   1.874   5.028 -3.3557 -1.3300 -0.4688
  147SAPE  C21516147   1.699   1.912   4.822  0.1565 -0.0326  0.8353
  147SAPE  H15R16148   1.795   1.859   4.821 -0.6179 -1.4842 -0.6256
  147SAPE  C21616149   1.658   1.964   4.683  0.1017  0.5175  0.5108
  147SAPE  H16R16150   1.550   1.987   4.688  0.4421  2.0636  1.3999
  147SAPE  H16S16151   1.676   1.888   4.604 -0.1268  1.3329 -0.3341
  147SAPE  C21716152   1.731   2.085   4.626 -0.3396 -0.3312  0.0182
  147SAPE  H17R16153   1.841   2.076   4.619 -0.3103  0.7224 -1.1551
  147SAPE  H17S16154   1.721   2.165   4.702  0.9851 -1.4853  1.4802
  147SAPE  C21816155   1.669   2.119   4.488  0.1991 -0.3256 -0.8046
  147SAPE  H18R16156   1.662   2.227   4.463  1.8482 -0.5079 -2.2223
  147SAPE  H18S16157   1.570   2.069   4.485 -0.0928  0.0422  1.1626
  147SAPE  C21916158   1.747   2.056   4.368  0.9597  1.3780 -0.1974
  147SAPE  H19R16159   1.681   2.073   4.280  1.0330  0.6395 -0.3981
  147SAPE  H19S16160   1.760   1.947   4.382  0.7987  1.5856  1.8200
  147SAPE  C22016161   1.891   2.101   4.336  0.6191 -0.4445 -0.7269
  147SAPE  H20R16162   1.895   2.212   4.338  1.6073 -0.4747 -0.1996
  147SAPE  H20S16163   1.919   2.084   4.230  0.3552  4.7165 -1.9278
  147SAPE  H20T16164   1.968   2.062   4.407  0.1034  0.4606  0.3777
  147SAPE   C3316165   2.035   1.715   5.907 -0.2040  0.1285 -0.8859
  147SAPE   H3X16166   1.956   1.789   5.885 -1.0268 -1.0405 -2.0386
  147SAPE   H3Y16167   1.980   1.623   5.937 -0.8375  1.2687  1.6396
  147SAPE   C3416168   2.121   1.693   5.776 -0.2858 -0.2113 -0.6676
  147SAPE   H4X16169   2.211   1.631   5.797  0.7463  1.4961  0.0810
  147SAPE   H4Y16170   2.151   1.794   5.743 -0.7358  0.7161  1.5972
  147SAPE   C3516171   2.052   1.602   5.672 -0.2316 -0.0719 -0.2830
  147SAPE   H5X16172   1.956   1.652   5.645 -1.6267 -2.2687  0.4040
  147SAPE   H5Y16173   2.022   1.500   5.704 -1.6370 -0.3613 -2.3375
  147SAPE   C3616174   2.123   1.595   5.536 -0.2359  0.1524 -0.0813
  147SAPE   H6X16175   2.229   1.563   5.528 -0.6511 -1.0020 -1.6178
  147SAPE   H6Y16176   2.125   1.699   5.498  1.4283  0.9983  2.1312
  147SAPE   C3716177   2.059   1.501   5.428  0.0235  0.5613  0.0929
  147SAPE   H7X16178   2.088   1.533   5.326  1.5138  1.6253  0.8115
  147SAPE   H7Y16179   1.949   1.514   5.430 -0.1283 -0.3672 -0.9507
  147SAPE   C3816180   2.113   1.361   5.443 -0.3037 -0.0353  0.3644
  147SAPE   H8X16181   2.090   1.325   5.546 -2.1927 -0.1874 -0.0678
  147SAPE   H8Y16182   2.224   1.365   5.439 -0.2260  0.0060  1.8892
  147SAPE   C3916183   2.078   1.250   5.345  0.5827 -0.6347 -0.4275
  147SAPE   H9X16184   1.968   1.242   5.337  0.5973 -1.3489 -0.0455
  147SAPE   H9Y16185   2.120   1.154   5.380 -0.5364 -1.3604 -1.0107
  147SAPE  C31016186   2.128   1.285   5.207  0.3096 -0.7201  0.3870
  147SAPE  H10X16187   2.235   1.314   5.205 -0.1263  1.4008 -4.0895
  147SAPE  H10Y16188   2.071   1.376   5.180  0.4227  0.0069  2.4135
  147SAPE  C31116189   2.086   1.180   5.096 -0.9541 -0.2901 -0.2789
  147SAPE  H11X16190   1.982   1.145   5.110 -0.6971 -0.8557  0.2847
  147SAPE  H11Y16191   2.145   1.089   5.120  0.9905  1.2254  1.0699
  147SAPE  C31216192   2.116   1.220   4.955  0.4947 -0.2524 -0.3908
  147SAPE  H12X16193   2.134   1.142   4.878 -0.5750 -0.3301 -0.5721
  147SAPE  H12Y16194   2.214   1.271   4.943 -0.6684  2.0530 -0.6578
  147SAPE  C31316195   2.007   1.310   4.900  0.0495 -0.1257 -0.4306
  147SAPE  H13X16196   1.994   1.399   4.965  1.3168 -1.1125  1.2415
  147SAPE  H13Y16197   1.911   1.258   4.879  1.0368 -1.1163 -2.8927
  147SAPE  C31416198   2.045   1.358   4.753  0.3665  0.8504  0.0800
  147SAPE  H14X16199   2.054   1.272   4.684 -2.5560  1.9310 -1.8215
  147SAPE  H14Y16200   2.147   1.402   4.764  0.7213 -0.0629  0.5718
  147SAPE  C31516201   1.944   1.443   4.683 -0.4763  0.5762  0.4004
  147SAPE  H15X16202   1.984   1.450   4.579  1.7675  0.5014  1.2087
  147SAPE  H15Y16203   1.953   1.544   4.728  1.2748  0.5520  0.1781
  147SAPE  C31616204   1.806   1.381   4.669  0.4889 -0.5033 -0.0119
  147SAPE  H16X16205   1.746   1.454   4.610 -0.2340 -0.0369  1.2493
  147SAPE  H16Y16206   1.756   1.366   4.767  1.3332 -0.9061  0.3703
  147SAPE  C31716207   1.807   1.246   4.591 -0.3902  0.0687 -0.6381
  147SAPE  H17X16208   1.869   1.173   4.648 -2.0992 -4.2101 -3.7369
  147SAPE  H17Y16209   1.862   1.261   4.496  0.7388  0.0592 -0.0050
  147SAPE  C31816210   1.671   1.182   4.562  0.3044 -0.2921 -0.5912
  147SAPE  H18X16211   1.615   1.167   4.657  2.1149 -2.1733  0.2611
  147SAPE  H18Y16212   1.690   1.082   4.519  0.0522 -0.5550 -0.1029
  147SAPE  H18Z16213   1.611   1.252   4.499  0.3395  2.3458  2.0995
  148SAPE     N16214   0.042   4.823   6.647 -0.0076  0.0185 -0.0918
  148SAPE   HN116215   0.100   4.816   6.561 -0.3813 -1.0975 -0.2573
  148SAPE   HN216216   0.025   4.727   6.682 -0.2343 -0.7872 -2.2583
  148SAPE   HN316217  -0.051   4.860   6.617 -0.6617 -0.9875  0.6563
  148SAPE   C1216218   0.096   4.899   6.762 -0.4903  0.5499  0.3923
  148SAPE  H12A16219   0.148   4.989   6.722 -0.2398  1.1985  2.0936
  148SAPE  H12B16220   0.165   4.828   6.813 -0.7386 -2.1211 -2.6635
  148SAPE   C1116221  -0.028   4.933   6.841 -0.0175 -0.5684  0.4002
  148SAPE  H11A16222  -0.005   4.998   6.928 -1.2240  0.1556  0.1913
  148SAPE  H11B16223  -0.076   4.841   6.881  3.3208 -2.0271  1.4139
  148SAPE     P16224  -0.235   5.090   6.816  0.1039 -0.1100  0.3601
  148SAPE   O1316225  -0.351   5.000   6.807  0.3440  0.2236  0.1137
  148SAPE   O1416226  -0.199   5.137   6.949  0.9145 -0.5494  0.2361
  148SAPE   O1216227  -0.108   5.010   6.757 -0.1394 -0.4651  0.6427
  148SAPE   O1116228  -0.258   5.211   6.720 -0.3423  0.0552  0.3602
  148SAPE    C116229  -0.205   5.217   6.586  0.2059  0.4097 -0.2695
  148SAPE    HA16230  -0.212   5.322   6.550  1.2484 -0.6854 -4.2558
  148SAPE    HB16231  -0.095   5.199   6.582 -0.1849 -2.2788 -1.0501
  148SAPE    C216232  -0.286   5.129   6.482 -0.6918  0.5364  0.0950
  148SAPE    HS16233  -0.304   5.033   6.534 -0.0673  0.4213  0.1005
  148SAPE   O2116234  -0.214   5.107   6.357  0.2102 -0.4981  0.7443
  148SAPE   C2116235  -0.101   5.034   6.378 -0.2628 -0.6309 -0.9819
  148SAPE   O2216236  -0.095   4.953   6.466 -0.6600  0.7185 -0.1352
  148SAPE   C2216237   0.009   5.102   6.293 -1.0415  0.7851 -0.6478
  148SAPE   H2R16238  -0.010   5.208   6.320  0.0176  0.8096  0.0667
  148SAPE   H2S16239   0.104   5.055   6.327 -1.7658 -0.3736 -0.1364
  148SAPE    C316240  -0.421   5.194   6.445 -0.7923  0.4652  0.1117
  148SAPE    HX16241  -0.394   5.251   6.354  1.3073 -0.9601 -0.2195
  148SAPE    HY16242  -0.452   5.258   6.531 -0.3875 -0.6361  1.1164
  148SAPE   O3116243  -0.518   5.094   6.406  0.3204 -0.1002 -0.0923
  148SAPE   C3116244  -0.608   5.058   6.495 -0.1787  0.1473  0.5673
  148SAPE   O3216245  -0.620   5.096   6.604 -0.1571  0.0133 -0.3967
  148SAPE   C3216246  -0.693   4.953   6.432  0.4424  0.6974  0.2390
  148SAPE   H2X16247  -0.659   4.925   6.330  0.2011 -0.2380  0.4022
  148SAPE   H2Y16248  -0.802   4.978   6.436 -0.5898 -2.9919 -0.9953
  148SAPE   C2316249  -0.004   5.068   6.139  0.0289  0.0746 -0.1421
  148SAPE   H3R16250  -0.112   5.064   6.113 -0.8473 -0.3546  3.1360
  148SAPE   H3S16251   0.025   4.961   6.127  0.4447  0.0629  0.8673
  148SAPE   C2416252   0.076   5.160   6.037 -0.4434  0.2334  0.5283
  148SAPE   H4R16253   0.061   5.267   6.063  0.5288  0.5141 -0.0209
  148SAPE   H4S16254   0.042   5.134   5.935  0.9355  0.7407 -0.0992
  148SAPE   C2516255   0.222   5.120   6.054  0.9257  0.2233  0.0071
  148SAPE   H5R16256   0.258   5.116   6.158  3.2069  1.1509 -0.6701
  148SAPE   C2616257   0.312   5.082   5.958 -0.0445  0.1727 -1.3099
  148SAPE   H6R16258   0.414   5.056   5.988 -0.9031 -1.5557  0.3251
  148SAPE   C2716259   0.287   5.074   5.811  0.2728 -0.3296  0.8001
  148SAPE   H7R16260   0.380   5.058   5.751 -1.5409  0.4863 -2.5166
  148SAPE   H7S16261   0.238   5.170   5.785  0.7693 -0.2014  0.3109
  148SAPE   C2816262   0.201   4.956   5.779 -0.4048  0.2792 -0.1628
  148SAPE   H8R16263   0.218   4.865   5.839 -0.6358  2.2128  3.0924
  148SAPE   C2916264   0.113   4.953   5.675  0.4925  0.0571 -0.1546
  148SAPE   H9R16265   0.055   4.860   5.661  0.8180  0.0986 -1.8967
  148SAPE  C21016266   0.076   5.058   5.571  0.8328  0.7661  0.7056
  148SAPE  H10R16267   0.028   5.145   5.620 -0.7494 -0.0539  0.6956
  148SAPE  H10S16268   0.002   5.012   5.501 -0.3129  2.2309  0.9109
  148SAPE  C21116269   0.198   5.106   5.489  0.0297  0.4043  0.6313
  148SAPE  H11R16270   0.265   5.175   5.543  1.2836  2.2596 -2.9892
  148SAPE  C21216271   0.234   5.065   5.366  1.1745  0.1747 -0.8986
  148SAPE  H12R16272   0.317   5.116   5.315  3.1879 -0.0802  1.8610
  148SAPE  C21316273   0.149   4.972   5.276  0.2365 -0.0267 -0.5306
  148SAPE  H13R16274   0.071   5.032   5.225 -1.8337 -2.6269 -0.6943
  148SAPE  H13S16275   0.092   4.909   5.348 -0.4893  0.8082 -0.3728
  148SAPE  C21416276   0.236   4.901   5.168  0.2175  0.3066  0.6332
  148SAPE  H14R16277   0.217   4.936   5.066 -2.7300  1.8960  1.5878
  148SAPE  C21516278   0.334   4.812   5.191  0.2810 -0.1202 -0.1173
  148SAPE  H15R16279   0.394   4.767   5.110  1.4774  1.3578 -0.0995
  148SAPE  C21616280   0.379   4.759   5.329  0.2681  0.0603 -0.1070
  148SAPE  H16R16281   0.407   4.652   5.320 -0.1947 -0.1420  0.8002
  148SAPE  H16S16282   0.291   4.751   5.396 -1.1630 -0.1499 -1.9263
  148SAPE  C21716283   0.486   4.848   5.395 -0.5716  0.2688 -0.2785
  148SAPE  H17R16284   0.464   4.953   5.367 -1.0048 -0.1019 -1.3967
  148SAPE  H17S16285   0.590   4.830   5.363 -0.5620  0.1439 -0.1762
  148SAPE  C21816286   0.488   4.832   5.541  0.0738  0.6069  0.2980
  148SAPE  H18R16287   0.386   4.828   5.585  1.1616  0.0834  2.9435
  148SAPE  H18S16288   0.526   4.927   5.584  0.5573  1.2126 -1.3964
  148SAPE  C21916289   0.566   4.715   5.594 -0.7847  0.3762 -0.4845
  148SAPE  H19R16290   0.669   4.740   5.561 -0.1987 -1.5573 -0.2445
  148SAPE  H19S16291   0.540   4.620   5.544 -0.7370 -0.8932  1.7583
  148SAPE  C22016292   0.569   4.694   5.749 -0.4237 -0.4449 -0.7249
  148SAPE  H20R16293   0.480   4.649   5.798  1.6785 -2.3084  1.7041
  148SAPE  H20S16294   0.588   4.796   5.788  3.0911 -1.3225  0.2480
  148SAPE  H20T16295   0.656   4.629   5.775 -0.9731 -0.5534  0.9384
  148SAPE   C3316296  -0.672   4.820   6.499  0.3234  0.7816 -0.8912
  148SAPE   H3X16297  -0.697   4.814   6.608  1.5324 -2.4102 -0.6766
  148SAPE   H3Y16298  -0.569   4.778   6.501  0.1547  0.3699 -0.3914
  148SAPE   C3416299  -0.764   4.723   6.420 -0.2773 -0.1029 -0.8462
  148SAPE   H4X16300  -0.850   4.784   6.384 -0.3339  3.0759  3.7209
  148SAPE   H4Y16301  -0.791   4.643   6.492  1.2569  3.3895  4.1753
  148SAPE   C3516302  -0.706   4.643   6.298 -0.7934  0.0059  0.2862
  148SAPE   H5X16303  -0.636   4.566   6.338 -0.5911 -0.2580 -0.5544
  148SAPE   H5Y16304  -0.646   4.704   6.227 -1.6965  1.2310  0.5502
  148SAPE   C3616305  -0.805   4.558   6.214  0.5270 -0.5715 -0.1813
  148SAPE   H6X16306  -0.875   4.634   6.173  1.8554  0.5203 -0.5034
  148SAPE   H6Y16307  -0.864   4.496   6.285 -1.2299 -0.0346 -1.1018
  148SAPE   C3716308  -0.746   4.478   6.100 -0.3921 -0.2676  0.9030
  148SAPE   H7X16309  -0.827   4.419   6.053  2.4167 -1.7449 -2.5734
  148SAPE   H7Y16310  -0.669   4.402   6.128 -0.5345 -0.6596  0.2537
  148SAPE   C3816311  -0.685   4.572   5.991 -0.5139  0.3219 -0.0025
  148SAPE   H8X16312  -0.576   4.582   6.011 -0.2836 -1.4057 -0.1977
  148SAPE   H8Y16313  -0.745   4.665   5.984  1.3960  1.6455  0.5647
  148SAPE   C3916314  -0.699   4.504   5.855 -0.1645 -0.1714  0.0050
  148SAPE   H9X16315  -0.807   4.484   5.833 -0.5568  1.8632 -0.0516
  148SAPE   H9Y16316  -0.641   4.409   5.852  0.6217  0.2262  1.5711
  148SAPE  C31016317  -0.635   4.594   5.741 -0.1035 -0.0990 -0.3657
  148SAPE  H10X16318  -0.528   4.613   5.764  0.2698 -1.3006 -0.9985
  148SAPE  H10Y16319  -0.694   4.688   5.738  1.9387  1.2221 -1.3911
  148SAPE  C31116320  -0.626   4.527   5.605  0.0333 -0.5352 -0.3604
  148SAPE  H11X16321  -0.730   4.510   5.570  0.1099 -2.3012  0.1451
  148SAPE  H11Y16322  -0.558   4.439   5.611  2.0697  1.0094  0.4643
  148SAPE  C31216323  -0.567   4.623   5.501  0.7015 -0.1878 -0.1910
  148SAPE  H12X16324  -0.548   4.581   5.400 -3.0225  0.2446 -1.2327
  148SAPE  H12Y16325  -0.475   4.671   5.541 -0.9379  3.1537 -0.0719
  148SAPE  C31316326  -0.660   4.740   5.466 -0.0577 -0.9884 -0.4591
  148SAPE  H13X16327  -0.668   4.806   5.555  0.0168 -0.8269 -0.5718
  148SAPE  H13Y16328  -0.764   4.706   5.444 -0.3363 -0.3152 -0.2137
  148SAPE  C31416329  -0.628   4.819   5.338  0.1460 -0.4138  0.0448
  148SAPE  H14X16330  -0.519   4.828   5.318 -0.0274  3.0267  0.0221
  148SAPE  H14Y16331  -0.673   4.920   5.351 -1.0236 -0.7902 -0.9553
  148SAPE  C31516332  -0.710   4.765   5.224  0.0185 -0.4099  0.3535
  148SAPE  H15X16333  -0.804   4.716   5.258  0.3551 -2.9295 -1.9730
  148SAPE  H15Y16334  -0.661   4.675   5.180 -1.8969 -0.5978 -1.5647
  148SAPE  C31616335  -0.747   4.868   5.111 -0.1303 -0.2445 -0.0910
  148SAPE  H16X16336  -0.811   4.951   5.148 -2.2490 -2.7767  2.3129
  148SAPE  H16Y16337  -0.809   4.814   5.036  0.5527  3.0847 -3.3734
  148SAPE  C31716338  -0.625   4.935   5.039 -0.6566 -0.1597 -0.4426
  148SAPE  H17X16339  -0.581   4.850   4.981 -0.7488 -0.7869  0.3897
  148SAPE  H17Y16340  -0.553   4.977   5.113 -1.7571  1.0169 -0.0131
  148SAPE  C31816341  -0.668   5.033   4.930 -0.1940  0.3036 -0.2164
  148SAPE  H18X16342  -0.746   4.985   4.866  1.0769 -3.8094  1.0011
  148SAPE  H18Y16343  -0.578   5.066   4.873  0.9745  2.6387  2.7326
  148SAPE  H18Z16344  -0.717   5.123   4.973 -1.3045 -0.5634  0.3971
  149SAPE     N16345   0.283   0.614   7.055 -0.1087  0.4911 -0.2507
  149SAPE   HN116346   0.344   0.613   7.140 -1.5128  0.8989  0.7926
  149SAPE   HN216347   0.235   0.696   7.097  3.4398  0.3155  5.2174
  149SAPE   HN316348   0.233   0.524   7.051 -0.5580  0.6118  1.7431
  149SAPE   C1216349   0.345   0.652   6.927  0.2997 -0.3442 -0.0600
  149SAPE  H12A16350   0.440   0.602   6.899 -0.6320 -1.3288 -1.5805
  149SAPE  H12B16351   0.359   0.762   6.939  0.1222 -0.3904  0.6113
  149SAPE   C1116352   0.249   0.625   6.812 -0.4394 -0.1070 -0.2460
  149SAPE  H11A16353   0.271   0.710   6.745  1.7191  0.9837  1.6842
  149SAPE  H11B16354   0.144   0.646   6.839 -0.4938  1.8721 -1.8115
  149SAPE     P16355   0.385   0.492   6.636  0.0883 -0.1586 -0.3468
  149SAPE   O1316356   0.453   0.621   6.626  0.4367 -0.0399 -0.1350
  149SAPE   O1416357   0.465   0.364   6.659 -0.6676 -0.4528  0.3735
  149SAPE   O1216358   0.280   0.497   6.748  0.4872 -0.7140 -0.4027
  149SAPE   O1116359   0.293   0.476   6.509 -0.2299 -0.0771  0.0929
  149SAPE    C116360   0.151   0.471   6.509  0.2075  0.0706  0.8857
  149SAPE    HA16361   0.110   0.369   6.519  2.3704 -1.3220 -2.4841
  149SAPE    HB16362   0.106   0.533   6.590 -2.7757 -2.0285  0.9911
  149SAPE    C216363   0.091   0.537   6.380 -0.2589 -0.5832  0.3452
  149SAPE    HS16364  -0.017   0.564   6.383 -0.1781 -0.1405 -0.4528
  149SAPE   O2116365   0.126   0.446   6.277  0.1380  0.6605  0.2485
  149SAPE   C2116366   0.039   0.344   6.271  0.2331  0.0924 -0.4672
  149SAPE   O2216367  -0.058   0.326   6.346  0.1778 -0.0420  1.1996
  149SAPE   C2216368   0.072   0.261   6.144  0.1436  0.2194  0.2854
  149SAPE   H2R16369   0.114   0.334   6.071  1.4626  0.0306  0.8273
  149SAPE   H2S16370   0.148   0.186   6.176  2.1844  1.5660 -1.1647
  149SAPE    C316371   0.167   0.679   6.371  0.1097  0.2985 -0.5986
  149SAPE    HX16372   0.277   0.666   6.368  0.4104  1.9530  1.3875
  149SAPE    HY16373   0.144   0.722   6.471 -1.3347 -4.3573  1.3386
  149SAPE   O3116374   0.136   0.744   6.248  0.0378  0.1283  0.3364
  149SAPE   C3116375   0.018   0.806   6.242  0.2746 -0.5343  0.6248
  149SAPE   O3216376  -0.076   0.785   6.318  0.0361  0.5934 -0.7531
  149SAPE   C3216377   0.014   0.895   6.119 -0.1897  0.7022  0.0176
  149SAPE   H2X16378   0.116   0.904   6.076  0.5479 -1.4280  1.1815
  149SAPE   H2Y16379  -0.029   0.989   6.159  1.5983  1.0398  1.2269
  149SAPE   C2316380  -0.051   0.187   6.087 -0.2501 -1.0194  0.0097
  149SAPE   H3R16381  -0.121   0.267   6.057  0.8812 -0.5485 -1.4709
  149SAPE   H3S16382  -0.101   0.127   6.167 -0.4763 -0.2498  0.4542
  149SAPE   C2416383  -0.016   0.092   5.968  0.2091 -0.3146 -0.0433
  149SAPE   H4R16384  -0.117   0.047   5.954 -0.9450  1.7192  1.2821
  149SAPE   H4S16385   0.057   0.015   6.001  1.2170  0.2927 -0.7744
  149SAPE   C2516386   0.047   0.146   5.838 -0.0903 -0.1234 -0.9505
  149SAPE   H5R16387   0.139   0.203   5.857 -1.1066  1.2319  0.1870
  149SAPE   C2616388  -0.005   0.154   5.716 -0.1685  0.0772 -0.7863
  149SAPE   H6R16389   0.043   0.210   5.634 -0.9227  2.1966  0.1327
  149SAPE   C2716390  -0.143   0.100   5.672  0.0760  0.1161  0.7022
  149SAPE   H7R16391  -0.196   0.195   5.654  0.7450  0.2488 -0.7035
  149SAPE   H7S16392  -0.199   0.048   5.753  0.5523  1.2980  1.8282
  149SAPE   C2816393  -0.144   0.019   5.544  0.0021  0.3583  0.1565
  149SAPE   H8R16394  -0.171  -0.087   5.549  1.8450 -0.2460 -1.5071
  149SAPE   C2916395  -0.140   0.065   5.416 -0.0858 -0.5128 -0.0987
  149SAPE   H9R16396  -0.144   0.002   5.327 -0.4438  2.3594 -2.2650
  149SAPE  C21016397  -0.120   0.212   5.382 -0.1810 -0.1859 -0.1538
  149SAPE  H10R16398  -0.031   0.216   5.316  0.3569  0.9195  0.6059
  149SAPE  H10S16399  -0.088   0.267   5.473 -1.2008  0.3156 -0.0880
  149SAPE  C21116400  -0.247   0.265   5.313 -0.1375  0.0045 -0.5090
  149SAPE  H11R16401  -0.319   0.312   5.382 -0.3108 -1.1020  0.0703
  149SAPE  C21216402  -0.265   0.263   5.180  0.1745  0.4063 -0.4575
  149SAPE  H12R16403  -0.356   0.298   5.130  0.1331 -1.1596 -1.5293
  149SAPE  C21316404  -0.166   0.216   5.078  0.3859  0.4291 -0.0236
  149SAPE  H13R16405  -0.211   0.134   5.018  0.5133 -1.0188  1.7767
  149SAPE  H13S16406  -0.076   0.158   5.110 -0.0401 -0.9064 -1.1529
  149SAPE  C21416407  -0.102   0.313   4.974 -0.9640 -0.5422 -0.1468
  149SAPE  H14R16408  -0.012   0.367   5.005 -0.1776 -0.8907 -1.7020
  149SAPE  C21516409  -0.164   0.345   4.857 -0.1899 -0.2058 -0.6779
  149SAPE  H15R16410  -0.107   0.411   4.790  0.3280 -0.6855 -0.7179
  149SAPE  C21616411  -0.300   0.297   4.802  0.9028 -0.1266 -0.0841
  149SAPE  H16R16412  -0.372   0.381   4.804  1.3550  0.2524  0.4723
  149SAPE  H16S16413  -0.346   0.204   4.843 -0.7748  1.5353  2.0937
  149SAPE  C21716414  -0.293   0.248   4.654  0.8727  0.0112 -0.3592
  149SAPE  H17R16415  -0.393   0.204   4.634  0.3867  1.6804 -1.8756
  149SAPE  H17S16416  -0.212   0.172   4.657  1.0397  0.2112  0.5163
  149SAPE  C21816417  -0.276   0.361   4.554  0.2486  0.2267 -0.3237
  149SAPE  H18R16418  -0.179   0.413   4.572 -0.0344  0.9292 -0.8017
  149SAPE  H18S16419  -0.356   0.434   4.578  1.5040  1.2620  0.8193
  149SAPE  C21916420  -0.289   0.314   4.411 -0.0399 -0.0629  0.4962
  149SAPE  H19R16421  -0.294   0.403   4.346  1.7248  0.3226  0.8274
  149SAPE  H19S16422  -0.389   0.267   4.403 -0.0151  0.0825 -0.9325
  149SAPE  C22016423  -0.174   0.234   4.370 -0.6467  0.0271 -0.0170
  149SAPE  H20R16424  -0.184   0.188   4.269 -3.6964  0.2251  0.1045
  149SAPE  H20S16425  -0.150   0.161   4.449 -0.8671  1.7733  1.7402
  149SAPE  H20T16426  -0.081   0.295   4.360 -0.3859 -0.3568  0.0679
  149SAPE   C3316427  -0.083   0.842   6.009  0.8568 -0.0437  0.3150
  149SAPE   H3X16428  -0.118   0.929   5.950  0.2514 -1.3586 -1.3361
  149SAPE   H3Y16429  -0.160   0.785   6.065  0.5765 -0.2279 -0.2562
  149SAPE   C3416430  -0.022   0.729   5.926  0.2639 -0.0932 -0.2233
  149SAPE   H4X16431   0.057   0.681   5.987 -0.7890  1.8603  2.9332
  149SAPE   H4Y16432   0.018   0.776   5.834 -1.1558  1.0387 -0.3096
  149SAPE   C3516433  -0.128   0.629   5.876 -0.9554  0.2212 -0.4938
  149SAPE   H5X16434  -0.201   0.687   5.815  0.8473  1.2871 -1.7480
  149SAPE   H5Y16435  -0.186   0.576   5.955  0.8647  0.1248  0.8262
  149SAPE   C3616436  -0.058   0.524   5.779  0.9412 -0.5558 -0.1321
  149SAPE   H6X16437  -0.130   0.439   5.774 -0.8494  0.8644  0.3685
  149SAPE   H6Y16438   0.038   0.495   5.826  1.7911  1.7188 -0.3402
  149SAPE   C3716439  -0.017   0.579   5.638  0.1156 -0.2587 -0.1363
  149SAPE   H7X16440   0.027   0.487   5.594 -1.7390 -1.4732  0.4600
  149SAPE   H7Y16441   0.061   0.658   5.632  2.2296 -2.3216 -1.2065
  149SAPE   C3816442  -0.131   0.617   5.542  0.1480 -1.7203  0.5365
  149SAPE   H8X16443  -0.165   0.720   5.565 -0.1893 -1.6274 -0.3433
  149SAPE   H8Y16444  -0.227   0.561   5.547 -1.8945  0.9005 -3.5799
  149SAPE   C3916445  -0.092   0.614   5.392  0.2620 -0.3523 -0.8613
  149SAPE   H9X16446  -0.067   0.509   5.367  0.2806 -0.3131 -1.0058
  149SAPE   H9Y16447  -0.006   0.684   5.386  1.2871 -1.5092 -0.2368
  149SAPE  C31016448  -0.206   0.664   5.303  0.7056  0.1570  0.6383
  149SAPE  H10X16449  -0.221   0.773   5.313  1.4849  0.4238 -0.8647
  149SAPE  H10Y16450  -0.298   0.604   5.326 -0.0944  0.2120 -2.0606
  149SAPE  C31116451  -0.183   0.655   5.142 -0.0211 -0.4861  0.0893
  149SAPE  H11X16452  -0.161   0.548   5.122 -0.1210 -0.5181  0.1458
  149SAPE  H11Y16453  -0.085   0.701   5.121 -0.4910 -0.2458 -1.7998
  149SAPE  C31216454  -0.297   0.701   5.049  0.3365  0.2254  1.0489
  149SAPE  H12X16455  -0.341   0.790   5.099  1.5554  0.6821  1.3437
  149SAPE  H12Y16456  -0.375   0.623   5.062  2.0946 -1.4762  2.0365
  149SAPE  C31316457  -0.250   0.722   4.905  0.1502 -0.3583  0.2561
  149SAPE  H13X16458  -0.171   0.647   4.882  0.5539 -0.7341  2.6409
  149SAPE  H13Y16459  -0.203   0.823   4.898  0.2316 -0.3142  1.3100
  149SAPE  C31416460  -0.359   0.703   4.800  0.4832 -0.4828  0.0664
  149SAPE  H14X16461  -0.430   0.788   4.800 -1.0509 -1.4714 -4.3986
  149SAPE  H14Y16462  -0.418   0.612   4.825 -0.5153  0.8572  3.0366
  149SAPE  C31516463  -0.306   0.697   4.657  0.5928  0.1140 -0.3262
  149SAPE  H15X16464  -0.395   0.687   4.592  1.4183  0.6046 -1.5599
  149SAPE  H15Y16465  -0.239   0.609   4.657 -0.4403 -0.7108  0.8847
  149SAPE  C31616466  -0.232   0.821   4.595  0.0604 -0.7054 -0.1761
  149SAPE  H16X16467  -0.277   0.916   4.629  0.0916 -0.9215  0.4883
  149SAPE  H16Y16468  -0.252   0.814   4.486  0.3745 -1.2606 -0.2054
  149SAPE  C31716469  -0.078   0.816   4.627  0.3415 -0.1808 -0.4816
  149SAPE  H17X16470  -0.039   0.712   4.631 -1.2551 -0.7784  0.8876
  149SAPE  H17Y16471  -0.063   0.856   4.729 -0.1194 -1.7419  0.2267
  149SAPE  C31816472   0.014   0.882   4.520 -0.5611  0.1901  0.1730
  149SAPE  H18X16473   0.114   0.887   4.567 -0.7095 -0.5174  0.5801
  149SAPE  H18Y16474  -0.016   0.985   4.488 -0.7156 -0.3630 -1.5964
  149SAPE  H18Z16475   0.013   0.821   4.427  0.0890  1.0147 -0.3916
  150SAPE     N16476   2.495   6.826   6.997 -0.0646  0.2056 -0.5931
  150SAPE   HN116477   2.543   6.753   6.942 -2.3183 -0.6863 -1.5098
  150SAPE   HN216478   2.482   6.794   7.095 -1.1475  1.0579 -0.4334
  150SAPE   HN316479   2.398   6.830   6.959 -0.0489  1.8706 -0.5554
  150SAPE   C1216480   2.552   6.965   6.988  0.0646 -0.0346 -0.2482
  150SAPE  H12A16481   2.630   6.990   7.063  3.2700  1.1107 -3.6438
  150SAPE  H12B16482   2.468   7.037   6.999 -0.9825 -1.5279  2.2491
  150SAPE   C1116483   2.624   6.989   6.852 -0.0683 -0.0839  0.5557
  150SAPE  H11A16484   2.666   7.091   6.855  0.6313 -0.3458  0.0089
  150SAPE  H11B16485   2.551   6.969   6.771 -0.1913  0.5772  0.4990
  150SAPE     P16486   2.770   6.799   6.744 -0.0312 -0.1235  0.0450
  150SAPE   O1316487   2.910   6.749   6.763  0.8254 -0.0767  0.6504
  150SAPE   O1416488   2.663   6.698   6.764 -0.3690  0.5445  0.2667
  150SAPE   O1216489   2.745   6.906   6.851  0.4256 -0.0576 -0.3418
  150SAPE   O1116490   2.761   6.875   6.605 -0.5035  0.1396 -0.8498
  150SAPE    C116491   2.855   6.982   6.590 -0.3922 -0.1903  0.3683
  150SAPE    HA16492   2.855   7.052   6.677  0.0704  0.1295  0.1143
  150SAPE    HB16493   2.953   6.931   6.592 -0.5385 -0.5992 -1.3864
  150SAPE    C216494   2.839   7.063   6.455  0.2840 -0.3612 -0.2285
  150SAPE    HS16495   2.736   7.103   6.444 -0.0149 -0.9472  0.3690
  150SAPE   O2116496   2.873   6.979   6.343  0.3243  0.3467  0.1454
  150SAPE   C2116497   2.824   7.025   6.227 -1.0426 -0.0777  0.0584
  150SAPE   O2216498   2.735   7.103   6.213 -0.0048 -0.4193  0.7140
  150SAPE   C2216499   2.872   6.950   6.104  0.7233  1.2217 -0.5926
  150SAPE   H2R16500   2.982   6.968   6.093  0.4988  1.2825 -3.2827
  150SAPE   H2S16501   2.861   6.843   6.129  0.8817  1.0394 -1.2898
  150SAPE    C316502   2.933   7.194   6.452 -0.0824  0.5287  0.6133
  150SAPE    HX16503   2.925   7.251   6.546 -2.3005  1.7414 -0.2149
  150SAPE    HY16504   2.892   7.262   6.374  0.0010 -0.2292 -0.1043
  150SAPE   O3116505   3.075   7.161   6.430 -0.0508 -0.2327 -0.4390
  150SAPE   C3116506   3.128   7.185   6.309  0.9183 -0.4218 -0.6655
  150SAPE   O3216507   3.077   7.260   6.227 -0.0437 -0.2756 -0.5983
  150SAPE   C3216508   3.260   7.113   6.293  0.4928  0.0300 -0.4803
  150SAPE   H2X16509   3.239   7.016   6.344  0.2901  0.8301  1.0133
  150SAPE   H2Y16510   3.344   7.157   6.351  1.4704 -0.5672 -1.4057
  150SAPE   C2316511   2.798   6.987   5.975  0.7005 -0.3079 -0.0485
  150SAPE   H3R16512   2.688   6.978   5.987  0.0907  1.4654 -3.1828
  150SAPE   H3S16513   2.813   6.907   5.898 -0.6810 -0.0214 -0.6419
  150SAPE   C2416514   2.836   7.123   5.913 -0.6329  0.9280  0.8371
  150SAPE   H4R16515   2.836   7.208   5.983  0.4890  3.3017 -1.8392
  150SAPE   H4S16516   2.771   7.149   5.826  1.1941  1.4605 -0.4353
  150SAPE   C2516517   2.979   7.105   5.861  0.4619 -0.6009  0.5671
  150SAPE   H5R16518   3.054   7.150   5.927 -0.8650  1.3236  0.8316
  150SAPE   C2616519   3.013   7.059   5.741  0.1170 -0.2858  0.9726
  150SAPE   H6R16520   3.116   7.077   5.709 -0.8802  3.3160 -0.8135
  150SAPE   C2716521   2.916   6.996   5.637 -0.1055 -0.4627 -0.3767
  150SAPE   H7R16522   2.829   6.938   5.673  0.6651 -2.3167 -1.3333
  150SAPE   H7S16523   2.977   6.918   5.587  0.2191  0.1812 -1.0080
  150SAPE   C2816524   2.873   7.092   5.534  0.2232  0.0242  0.0869
  150SAPE   H8R16525   2.838   7.187   5.577  0.2705  1.2940 -2.5020
  150SAPE   C2916526   2.863   7.080   5.398  0.5863  0.7051  0.2150
  150SAPE   H9R16527   2.821   7.165   5.342 -1.1041  0.3919  0.9326
  150SAPE  C21016528   2.880   6.952   5.314 -0.3520  0.4231  0.5998
  150SAPE  H10R16529   2.792   6.935   5.249  0.2702 -1.1038  0.0988
  150SAPE  H10S16530   2.885   6.860   5.376  0.7771 -0.6650 -1.0130
  150SAPE  C21116531   3.009   6.948   5.231 -0.2221 -0.2363 -1.0350
  150SAPE  H11R16532   3.082   6.879   5.275  2.1750  2.1318 -1.0365
  150SAPE  C21216533   3.030   7.000   5.111  0.1689 -0.2745  0.5422
  150SAPE  H12R16534   3.116   6.972   5.048 -0.1044 -0.4742  0.2593
  150SAPE  C21316535   2.924   7.079   5.037 -0.8559  0.3572  0.9991
  150SAPE  H13R16536   2.835   7.091   5.101 -1.6922 -1.4768  0.2411
  150SAPE  H13S16537   2.893   7.032   4.941 -1.7249 -0.0464  1.4691
  150SAPE  C21416538   2.986   7.210   4.989  0.4251  0.7287 -0.3094
  150SAPE  H14R16539   3.020   7.262   5.079  0.4950  1.4051 -0.7239
  150SAPE  C21516540   3.023   7.249   4.863  0.0321 -0.3261 -0.8294
  150SAPE  H15R16541   3.080   7.343   4.854  3.6627 -2.3445 -1.0768
  150SAPE  C21616542   3.004   7.169   4.739 -0.2783 -0.0351  0.0749
  150SAPE  H16R16543   3.034   7.063   4.753  2.0225  0.1686 -2.3663
  150SAPE  H16S16544   3.065   7.218   4.660 -1.3350 -0.5791 -1.1029
  150SAPE  C21716545   2.860   7.168   4.681 -0.4899  0.3837 -0.6494
  150SAPE  H17R16546   2.789   7.104   4.738  1.8182 -1.6647  0.1268
  150SAPE  H17S16547   2.874   7.113   4.585  1.8646 -1.2237  0.5094
  150SAPE  C21816548   2.810   7.308   4.642  0.5210  0.3871  0.1552
  150SAPE  H18R16549   2.879   7.368   4.579  0.5494  0.4483  0.2456
  150SAPE  H18S16550   2.774   7.360   4.733 -1.7844 -1.1459  0.2329
  150SAPE  C21916551   2.674   7.299   4.560 -0.7261  0.0122 -0.2395
  150SAPE  H19R16552   2.691   7.238   4.468  0.3981  1.4646 -1.0496
  150SAPE  H19S16553   2.657   7.403   4.522 -1.1378  0.5506  1.3505
  150SAPE  C22016554   2.558   7.249   4.641 -0.7777  0.1963 -0.5466
  150SAPE  H20R16555   2.566   7.139   4.656 -2.1038  0.0313 -0.9222
  150SAPE  H20S16556   2.459   7.258   4.591 -1.8652  0.2923  1.5097
  150SAPE  H20T16557   2.551   7.290   4.744  4.3725 -1.4214  0.7110
  150SAPE   C3316558   3.308   7.117   6.151  0.2958 -0.0640 -0.7332
  150SAPE   H3X16559   3.298   7.225   6.128 -0.1336  0.0594  0.0012
  150SAPE   H3Y16560   3.236   7.062   6.086  0.4910 -0.0472 -0.9630
  150SAPE   C3416561   3.442   7.059   6.132 -1.1919 -0.6012 -0.0727
  150SAPE   H4X16562   3.451   6.956   6.172  0.2883 -0.6562 -0.4756
  150SAPE   H4Y16563   3.518   7.112   6.194 -1.1929  0.4680 -0.9547
  150SAPE   C3516564   3.486   7.064   5.986 -0.2403 -0.1951  0.0641
  150SAPE   H5X16565   3.588   7.023   5.976 -0.5372 -0.7015 -1.0096
  150SAPE   H5Y16566   3.481   7.171   5.957 -1.2563 -0.5431 -1.1386
  150SAPE   C3616567   3.392   6.982   5.898  0.1761 -0.8092  0.1240
  150SAPE   H6X16568   3.286   7.014   5.896 -0.0609 -1.5109  1.0487
  150SAPE   H6Y16569   3.378   6.882   5.945 -2.2853 -1.5078 -1.9031
  150SAPE   C3716570   3.445   6.970   5.754 -0.4320 -0.0505 -0.4053
  150SAPE   H7X16571   3.553   6.944   5.752 -0.6375 -0.9156 -0.6331
  150SAPE   H7Y16572   3.438   7.073   5.712  1.0155  1.4424  2.7125
  150SAPE   C3816573   3.369   6.876   5.658  0.4315 -0.6426  0.3335
  150SAPE   H8X16574   3.262   6.880   5.684  0.8236 -1.2901  2.1895
  150SAPE   H8Y16575   3.405   6.775   5.686 -0.0954 -0.8241  0.3483
  150SAPE   C3916576   3.394   6.897   5.510 -0.3854  0.0762 -0.3495
  150SAPE   H9X16577   3.492   6.860   5.474 -1.6458 -0.5537 -3.4613
  150SAPE   H9Y16578   3.386   7.006   5.491 -1.0415  0.4567  1.8117
  150SAPE  C31016579   3.288   6.829   5.417  0.0166  0.1109 -0.7166
  150SAPE  H10X16580   3.186   6.870   5.435 -0.4367 -0.5805 -1.6313
  150SAPE  H10Y16581   3.292   6.724   5.455  0.4110  0.5673  0.5730
  150SAPE  C31116582   3.324   6.848   5.269  0.0086  0.0419 -0.0334
  150SAPE  H11X16583   3.299   6.953   5.243  0.1546  0.6623  2.1293
  150SAPE  H11Y16584   3.263   6.784   5.201  1.3195 -0.9429 -0.3275
  150SAPE  C31216585   3.468   6.815   5.230  0.5740  0.4698 -0.0851
  150SAPE  H12X16586   3.506   6.723   5.279  3.2064  1.8697  0.7140
  150SAPE  H12Y16587   3.530   6.896   5.274  0.1279 -0.3869  2.2499
  150SAPE  C31316588   3.483   6.802   5.076 -0.0049 -0.6663 -0.8699
  150SAPE  H13X16589   3.427   6.715   5.037 -1.1047 -0.9233  1.1587
  150SAPE  H13Y16590   3.592   6.781   5.064  0.2129 -0.4849  0.5982
  150SAPE  C31416591   3.438   6.922   4.996  0.1641 -0.2699  0.4326
  150SAPE  H14X16592   3.495   7.011   5.030 -0.7995  1.0893 -1.3495
  150SAPE  H14Y16593   3.332   6.945   5.018  0.6046  1.2339  1.1246
  150SAPE  C31516594   3.467   6.899   4.841  0.5558  0.3995 -0.7355
  150SAPE  H15X16595   3.453   6.789   4.831 -2.9565  0.6970 -0.1514
  150SAPE  H15Y16596   3.571   6.910   4.804 -0.1910  0.6280 -2.8971
  150SAPE  C31616597   3.376   6.987   4.753 -0.0364  0.7920 -1.2634
  150SAPE  H16X16598   3.375   7.090   4.793  1.0240  0.3216  0.0738
  150SAPE  H16Y16599   3.272   6.950   4.771  0.3797  0.8377  1.7523
  150SAPE  C31716600   3.397   6.998   4.606 -0.7687 -0.4097  0.3732
  150SAPE  H17X16601   3.495   7.051   4.598 -0.8774 -0.1684  0.5952
  150SAPE  H17Y16602   3.319   7.061   4.558 -2.2056 -2.1268  0.3854
  150SAPE  C31816603   3.399   6.869   4.518 -0.1787  0.0730  0.6972
  150SAPE  H18X16604   3.300   6.819   4.517  0.8547 -2.0995  0.3505
  150SAPE  H18Y16605   3.478   6.798   4.552 -1.0949 -0.9184  0.8047
  150SAPE  H18Z16606   3.427   6.895   4.414  1.0888 -0.9900  0.7522
  151SAPE     N16607   1.696   3.560   6.677  0.1811 -0.6037  0.3788
  151SAPE   HN116608   1.760   3.602   6.607 -0.0083  0.2444  0.7025
  151SAPE   HN216609   1.599   3.590   6.654  0.4654  1.2940  1.4441
  151SAPE   HN316610   1.720   3.597   6.771  1.6416 -0.8491  0.1190
  151SAPE   C1216611   1.721   3.412   6.684  0.3244  0.4725  0.9457
  151SAPE  H12A16612   1.677   3.362   6.595  1.2503 -0.7393  1.1544
  151SAPE  H12B16613   1.669   3.370   6.772  1.0166 -0.2833  0.9961
  151SAPE   C1116614   1.867   3.376   6.707 -0.1131 -0.1033 -0.0672
  151SAPE  H11A16615   1.925   3.403   6.616 -0.1227 -1.2967 -0.4549
  151SAPE  H11B16616   1.876   3.266   6.723  0.3558  0.0502  0.7860
  151SAPE     P16617   2.050   3.405   6.889 -0.1224 -0.3261  0.2718
  151SAPE   O1316618   2.102   3.531   6.958  0.0990  0.2140  0.1298
  151SAPE   O1416619   2.021   3.286   6.975 -0.2227 -0.4103  0.4259
  151SAPE   O1216620   1.913   3.446   6.822  0.1604 -0.6395 -0.2308
  151SAPE   O1116621   2.141   3.361   6.767  0.1618 -0.0273  0.1840
  151SAPE    C116622   2.217   3.455   6.701  0.3889 -0.0413 -0.8629
  151SAPE    HA16623   2.162   3.549   6.679 -1.2263  0.1254  3.1774
  151SAPE    HB16624   2.299   3.488   6.768  0.5174 -0.9431 -0.5558
  151SAPE    C216625   2.277   3.393   6.576  0.4982  0.5554  0.5148
  151SAPE    HS16626   2.343   3.313   6.614  0.8362 -0.4053 -1.9562
  151SAPE   O2116627   2.348   3.502   6.508 -0.0889  0.0637  0.1554
  151SAPE   C2116628   2.465   3.467   6.462  0.3239  0.2007 -0.2849
  151SAPE   O2216629   2.509   3.353   6.457  0.2461 -0.3526  0.0962
  151SAPE   C2216630   2.532   3.592   6.404 -0.6228  0.2770 -0.1507
  151SAPE   H2R16631   2.475   3.639   6.321 -1.2023  1.2444  0.7625
  151SAPE   H2S16632   2.545   3.656   6.494 -2.2968 -1.4572  1.4062
  151SAPE    C316633   2.163   3.337   6.482 -0.5145 -0.0854 -0.2450
  151SAPE    HX16634   2.093   3.423   6.474 -0.3150  0.4879  2.8306
  151SAPE    HY16635   2.103   3.254   6.525 -0.3341 -0.2586 -0.3330
  151SAPE   O3116636   2.219   3.322   6.354  0.0552 -0.1986  0.8865
  151SAPE   C3116637   2.283   3.203   6.327  0.0814 -0.2987 -0.1344
  151SAPE   O3216638   2.275   3.107   6.401  0.0257 -0.3102 -0.5680
  151SAPE   C3216639   2.359   3.221   6.196 -0.0926 -0.9957  0.3431
  151SAPE   H2X16640   2.406   3.321   6.203 -3.2527  0.5932  0.6993
  151SAPE   H2Y16641   2.290   3.216   6.110  1.0411  0.2500 -0.6724
  151SAPE   C2316642   2.673   3.583   6.344  0.5276 -0.3229  0.1018
  151SAPE   H3R16643   2.668   3.523   6.251 -2.5763  1.7910 -1.2598
  151SAPE   H3S16644   2.741   3.541   6.421  1.5444  2.6388  0.9699
  151SAPE   C2416645   2.714   3.721   6.294 -0.2252 -0.1478 -0.1684
  151SAPE   H4R16646   2.700   3.799   6.372 -1.2875 -0.9491  0.4665
  151SAPE   H4S16647   2.640   3.765   6.223 -1.7525 -1.0961  0.7641
  151SAPE   C2516648   2.858   3.722   6.250  0.5220  0.7045 -0.4293
  151SAPE   H5R16649   2.934   3.703   6.327  1.3327  0.9340 -1.1610
  151SAPE   C2616650   2.899   3.762   6.128  0.0114  0.6899 -0.1748
  151SAPE   H6R16651   3.007   3.762   6.110 -0.2202 -1.1975 -1.9148
  151SAPE   C2716652   2.819   3.831   6.017  0.3711 -0.4209 -0.7759
  151SAPE   H7R16653   2.883   3.912   5.974  1.6228 -0.2366  1.3209
  151SAPE   H7S16654   2.737   3.887   6.066 -1.1448 -1.7684 -1.6822
  151SAPE   C2816655   2.756   3.740   5.908 -0.1840  0.2948 -0.2233
  151SAPE   H8R16656   2.676   3.675   5.945  1.7625 -1.2221  1.5847
  151SAPE   C2916657   2.791   3.732   5.773  0.0605  0.1147  0.2516
  151SAPE   H9R16658   2.741   3.653   5.714 -0.1780  1.0948 -0.8948
  151SAPE  C21016659   2.898   3.804   5.694 -0.0223  0.1275  0.3181
  151SAPE  H10R16660   2.960   3.734   5.634 -2.0448  0.0722 -1.8159
  151SAPE  H10S16661   2.969   3.858   5.761 -0.5195  1.0279  0.1341
  151SAPE  C21116662   2.846   3.916   5.608  0.2263  0.1232  0.0561
  151SAPE  H11R16663   2.784   3.991   5.660 -0.4528 -1.2643  1.3176
  151SAPE  C21216664   2.864   3.929   5.477 -0.0001  0.5765 -0.0729
  151SAPE  H12R16665   2.819   4.017   5.429 -0.1165  0.9225  0.6565
  151SAPE  C21316666   2.954   3.846   5.393 -0.1156 -0.6345  0.0330
  151SAPE  H13R16667   2.925   3.884   5.292  0.0383 -0.2386  0.1366
  151SAPE  H13S16668   2.929   3.738   5.404 -1.9455 -0.4048 -1.3450
  151SAPE  C21416669   3.103   3.861   5.405  0.1109 -0.1765  0.9909
  151SAPE  H14R16670   3.141   3.879   5.506 -0.9662  1.2660  1.1754
  151SAPE  C21516671   3.197   3.861   5.305 -0.1102 -0.5708  0.0731
  151SAPE  H15R16672   3.300   3.885   5.336  0.7712 -2.1869 -1.4059
  151SAPE  C21616673   3.176   3.833   5.158  0.1961  0.9210 -0.4842
  151SAPE  H16R16674   3.125   3.919   5.110 -0.1941  0.9653  0.0014
  151SAPE  H16S16675   3.106   3.749   5.141  1.3196  0.2686 -2.1590
  151SAPE  C21716676   3.302   3.814   5.069  0.6789  0.3058 -0.6712
  151SAPE  H17R16677   3.365   3.730   5.106  0.8251  0.7254  0.0621
  151SAPE  H17S16678   3.357   3.910   5.072 -0.2442  0.8272  1.7851
  151SAPE  C21816679   3.264   3.787   4.918 -0.4347  0.1485  0.3012
  151SAPE  H18R16680   3.217   3.878   4.874 -0.6600  0.5544  1.3431
  151SAPE  H18S16681   3.188   3.707   4.914 -2.6359  2.1460  0.1818
  151SAPE  C21916682   3.390   3.745   4.832  0.2523  0.0796  0.3359
  151SAPE  H19R16683   3.429   3.648   4.868  1.5581 -0.6711 -2.7209
  151SAPE  H19S16684   3.465   3.826   4.846  2.1052 -1.2841 -1.1112
  151SAPE  C22016685   3.366   3.736   4.677  0.0928 -0.1182 -0.3109
  151SAPE  H20R16686   3.365   3.839   4.635  0.2439 -0.5496 -1.3983
  151SAPE  H20S16687   3.261   3.708   4.653 -0.1564  2.5848 -3.0154
  151SAPE  H20T16688   3.443   3.678   4.622  1.7178  0.3586  1.3449
  151SAPE   C3316689   2.466   3.104   6.170  0.3538  0.0539 -0.2153
  151SAPE   H3X16690   2.401   3.016   6.184  0.0271  0.5834  2.1335
  151SAPE   H3Y16691   2.541   3.105   6.252  1.4980 -0.7608 -1.2288
  151SAPE   C3416692   2.540   3.110   6.042 -0.2992 -0.7505  0.2755
  151SAPE   H4X16693   2.630   3.047   6.055 -0.6463 -1.5164 -0.9486
  151SAPE   H4Y16694   2.574   3.215   6.032 -0.2090 -0.7429  0.6356
  151SAPE   C3516695   2.458   3.065   5.921 -0.0303 -0.1947 -0.0753
  151SAPE   H5X16696   2.359   3.117   5.924 -0.3415 -0.7766  2.6131
  151SAPE   H5Y16697   2.446   2.957   5.942  1.0839 -0.4313 -0.6266
  151SAPE   C3616698   2.527   3.103   5.788 -0.4559  0.3742 -0.2744
  151SAPE   H6X16699   2.612   3.033   5.777  0.5083  1.1317  1.9268
  151SAPE   H6Y16700   2.569   3.206   5.791 -0.6941  0.4517  0.9753
  151SAPE   C3716701   2.450   3.081   5.658 -0.1265  0.0727  0.2315
  151SAPE   H7X16702   2.361   3.147   5.673 -1.6933 -1.7415 -0.6567
  151SAPE   H7Y16703   2.406   2.980   5.652  2.5841 -1.1438 -0.5821
  151SAPE   C3816704   2.525   3.115   5.530  0.7059 -0.6495  0.1428
  151SAPE   H8X16705   2.621   3.059   5.524  1.4033  0.5150  0.2760
  151SAPE   H8Y16706   2.548   3.223   5.530 -1.5368 -0.1186 -0.8104
  151SAPE   C3916707   2.453   3.102   5.393  0.3667 -0.3175  0.4858
  151SAPE   H9X16708   2.365   3.170   5.393  0.7989  0.2453  0.2118
  151SAPE   H9Y16709   2.408   3.001   5.384 -1.5143  0.6352 -2.1900
  151SAPE  C31016710   2.534   3.140   5.268  0.3462  0.4458  0.0330
  151SAPE  H10X16711   2.620   3.070   5.269  0.5430  0.6348  2.2710
  151SAPE  H10Y16712   2.569   3.245   5.282 -0.8516  1.0399 -1.2199
  151SAPE  C31116713   2.444   3.128   5.144  0.2713 -0.4596  0.2515
  151SAPE  H11X16714   2.502   3.181   5.065  0.0424  0.7867  0.8967
  151SAPE  H11Y16715   2.345   3.177   5.147 -0.6083 -2.2467  2.0200
  151SAPE  C31216716   2.430   2.977   5.104 -1.4530  0.1686 -0.3243
  151SAPE  H12X16717   2.433   2.913   5.195  1.0564  3.0761  1.8543
  151SAPE  H12Y16718   2.528   2.953   5.058 -0.2807  0.9517  1.6412
  151SAPE  C31316719   2.310   2.939   5.017  0.4882  0.8505  0.0711
  151SAPE  H13X16720   2.281   3.029   4.959 -0.3991  0.5012 -0.0448
  151SAPE  H13Y16721   2.227   2.918   5.088 -0.2872  3.1660 -0.0668
  151SAPE  C31416722   2.339   2.817   4.926  0.3318  0.1102  0.1206
  151SAPE  H14X16723   2.350   2.722   4.982 -2.2298 -0.6600 -0.5140
  151SAPE  H14Y16724   2.430   2.846   4.871 -0.9001  0.9131 -1.5918
  151SAPE  C31516725   2.227   2.795   4.822 -0.1730 -0.0547 -0.0710
  151SAPE  H15X16726   2.211   2.879   4.751  0.2050 -0.5099 -0.7099
  151SAPE  H15Y16727   2.131   2.771   4.873  1.4841 -0.0925  3.3153
  151SAPE  C31616728   2.257   2.678   4.728  0.6969  0.0992  0.1046
  151SAPE  H16X16729   2.174   2.665   4.656  1.8903 -0.9108 -1.1497
  151SAPE  H16Y16730   2.267   2.585   4.789 -0.0537 -0.1539 -0.1548
  151SAPE  C31716731   2.390   2.682   4.650  0.1559  0.1302 -0.0950
  151SAPE  H17X16732   2.479   2.699   4.715 -1.2557  1.4542  1.5791
  151SAPE  H17Y16733   2.383   2.771   4.583 -0.6504  1.9293  2.2467
  151SAPE  C31816734   2.402   2.563   4.557 -0.7837 -0.3164 -0.3434
  151SAPE  H18X16735   2.447   2.609   4.467  0.9585 -1.2413  0.0128
  151SAPE  H18Y16736   2.308   2.504   4.546 -0.2346 -1.2275 -0.2539
  151SAPE  H18Z16737   2.482   2.499   4.600  0.5362  2.1310  1.0757
  152SAPE     N16738   4.358   5.028   6.746  0.6070 -0.4012 -0.2470
  152SAPE   HN116739   4.304   5.112   6.773  0.2281 -1.5934  3.2293
  152SAPE   HN216740   4.337   5.001   6.648  1.7409 -0.2425 -0.5559
  152SAPE   HN316741   4.336   4.947   6.808  0.2134 -0.1287 -0.0270
  152SAPE   C1216742   4.503   5.067   6.750  0.1596 -0.0317 -1.0143
  152SAPE  H12A16743   4.557   4.971   6.735 -1.1824 -1.5067  2.5482
  152SAPE  H12B16744   4.520   5.090   6.858 -0.7648  3.3452 -1.4782
  152SAPE   C1116745   4.534   5.185   6.662 -0.0652 -0.3005 -0.5324
  152SAPE  H11A16746   4.644   5.199   6.664  0.3938 -3.0273 -1.3686
  152SAPE  H11B16747   4.488   5.274   6.709 -2.2287 -0.7102 -1.7366
  152SAPE     P16748   4.568   5.092   6.418 -0.6522  0.0343  0.2158
  152SAPE   O1316749   4.704   5.154   6.426  0.2194 -0.3810 -0.2100
  152SAPE   O1416750   4.553   4.952   6.454  0.1747  0.0167 -0.1342
  152SAPE   O1216751   4.487   5.173   6.526  0.4081  0.5949  0.2517
  152SAPE   O1116752   4.499   5.121   6.272  0.1119  0.4242  0.1434
  152SAPE    C116753   4.435   5.241   6.251  0.0835  0.1507  0.8913
  152SAPE    HA16754   4.342   5.245   6.313 -1.9205 -1.6319 -1.7364
  152SAPE    HB16755   4.494   5.329   6.284  1.1725  0.1461 -0.9554
  152SAPE    C216756   4.402   5.278   6.100  0.3883  0.0218 -0.3345
  152SAPE    HS16757   4.307   5.232   6.065  0.6778 -0.3626 -0.6219
  152SAPE   O2116758   4.514   5.234   6.019 -0.0133  0.0899 -0.2780
  152SAPE   C2116759   4.511   5.111   5.983  0.9118 -0.3714  0.3053
  152SAPE   O2216760   4.412   5.039   5.988 -0.2490  0.2267 -0.6602
  152SAPE   C2216761   4.646   5.071   5.927 -0.3791 -0.6287 -0.3954
  152SAPE   H2R16762   4.701   5.155   5.880  1.5392 -2.7769 -2.3065
  152SAPE   H2S16763   4.714   5.041   6.010 -0.2405 -2.4647 -1.1309
  152SAPE    C316764   4.387   5.437   6.078 -0.3322  0.2603  0.4803
  152SAPE    HX16765   4.462   5.484   6.145 -1.1650 -1.2186  2.5525
  152SAPE    HY16766   4.287   5.447   6.127  0.0928 -1.3494  1.7747
  152SAPE   O3116767   4.387   5.489   5.946  0.5681  0.4905  0.0191
  152SAPE   C3116768   4.510   5.513   5.896 -0.6771  0.3165  0.8251
  152SAPE   O3216769   4.612   5.496   5.960 -0.4296 -0.0225  0.2119
  152SAPE   C3216770   4.509   5.537   5.743  0.2373  0.1684  0.4722
  152SAPE   H2X16771   4.612   5.527   5.703  1.0331 -0.1183  2.4938
  152SAPE   H2Y16772   4.480   5.643   5.728 -0.1342 -0.1124 -0.9737
  152SAPE   C2316773   4.653   4.963   5.814  0.4548  0.1947  0.0934
  152SAPE   H3R16774   4.605   4.880   5.871  0.3039 -0.1852 -0.5729
  152SAPE   H3S16775   4.756   4.936   5.783  0.8164  1.0750  0.5085
  152SAPE   C2416776   4.568   5.007   5.691 -0.3107 -0.4802 -0.7367
  152SAPE   H4R16777   4.598   5.106   5.651 -1.8157  0.2063 -0.2608
  152SAPE   H4S16778   4.464   5.015   5.729 -0.7449 -0.1967 -1.9401
  152SAPE   C2516779   4.577   4.894   5.591  0.4925  0.0943 -0.1986
  152SAPE   H5R16780   4.535   4.802   5.635  0.8764  0.1913  0.3942
  152SAPE   C2616781   4.639   4.898   5.470 -0.2411 -0.2711 -0.0770
  152SAPE   H6R16782   4.629   4.807   5.409 -2.9025 -0.9370  1.1820
  152SAPE   C2716783   4.701   5.017   5.401  0.1290 -0.2055 -0.2716
  152SAPE   H7R16784   4.717   5.099   5.474 -1.4689 -0.5945  0.5426
  152SAPE   H7S16785   4.626   5.044   5.324  1.7933 -1.5215 -2.5211
  152SAPE   C2816786   4.835   4.985   5.331 -0.2480  0.7906  0.4897
  152SAPE   H8R16787   4.931   5.008   5.380 -0.1977  1.2596  0.1799
  152SAPE   C2916788   4.852   4.941   5.204  0.2234  0.0200 -0.1079
  152SAPE   H9R16789   4.954   4.917   5.171 -0.4220 -1.4804 -1.1570
  152SAPE  C21016790   4.755   4.897   5.098 -0.2467 -0.8692 -0.1346
  152SAPE  H10R16791   4.679   4.831   5.143 -1.2679  0.6605  0.4803
  152SAPE  H10S16792   4.821   4.840   5.030 -0.7971  0.3770 -1.7771
  152SAPE  C21116793   4.704   5.025   5.041 -0.1357 -0.8968  0.9220
  152SAPE  H11R16794   4.680   5.103   5.114 -0.8186  0.9585 -1.1763
  152SAPE  C21216795   4.673   5.062   4.910 -1.0821  0.8649  0.4090
  152SAPE  H12R16796   4.638   5.164   4.889 -1.5480  1.1955  2.5561
  152SAPE  C21316797   4.699   4.970   4.790 -0.5786 -1.0096  0.0406
  152SAPE  H13R16798   4.632   4.883   4.805 -2.5228  0.3051 -0.5525
  152SAPE  H13S16799   4.806   4.943   4.796 -0.8407 -2.3937 -1.0147
  152SAPE  C21416800   4.678   5.039   4.648 -0.1556  0.5051 -0.9355
  152SAPE  H14R16801   4.574   5.060   4.617 -0.2371  0.2860 -0.8169
  152SAPE  C21516802   4.768   5.078   4.562 -0.4348  0.2473 -0.7942
  152SAPE  H15R16803   4.735   5.120   4.466 -0.8242  2.3513  0.2050
  152SAPE  C21616804   4.921   5.059   4.576  0.2387  0.1489 -0.0695
  152SAPE  H16R16805   4.948   5.035   4.681 -0.2936 -0.1521  0.0038
  152SAPE  H16S16806   4.970   5.151   4.538 -2.3208  0.2493 -3.6268
  152SAPE  C21716807   4.982   4.947   4.492 -0.4543  0.0821 -0.4625
  152SAPE  H17R16808   5.090   4.969   4.480 -0.7839  1.1804 -1.6233
  152SAPE  H17S16809   4.938   4.964   4.391  1.9369 -0.1533 -1.6009
  152SAPE  C21816810   4.951   4.806   4.543 -0.6697 -0.3553  0.3232
  152SAPE  H18R16811   4.921   4.809   4.650 -1.6873 -0.9349  0.0722
  152SAPE  H18S16812   5.050   4.758   4.543 -1.5842 -2.4637  3.0686
  152SAPE  C21916813   4.847   4.731   4.452  0.3184 -0.2279  0.1068
  152SAPE  H19R16814   4.754   4.787   4.431  0.2272  0.2586  1.6508
  152SAPE  H19S16815   4.820   4.635   4.502 -0.4028  0.3592  0.8899
  152SAPE  C22016816   4.914   4.698   4.315  0.6648 -0.9095  0.3025
  152SAPE  H20R16817   5.003   4.637   4.342  2.0908  1.9868  2.5510
  152SAPE  H20S16818   4.945   4.795   4.271 -1.0961 -0.2278  0.4841
  152SAPE  H20T16819   4.840   4.644   4.251 -1.7563  1.7414  0.6557
  152SAPE   C3316820   4.422   5.436   5.668 -0.2250 -0.4915 -0.2033
  152SAPE   H3X16821   4.313   5.458   5.675 -0.2110 -0.1662 -0.8723
  152SAPE   H3Y16822   4.443   5.333   5.704  3.8810 -0.1363 -1.1237
  152SAPE   C3416823   4.451   5.437   5.514  0.0863  0.5063  0.0120
  152SAPE   H4X16824   4.558   5.409   5.507  0.1643  0.4819  1.0649
  152SAPE   H4Y16825   4.424   5.534   5.468  0.0486  0.4610 -0.0613
  152SAPE   C3516826   4.365   5.333   5.445 -0.2249 -0.0152  0.9626
  152SAPE   H5X16827   4.259   5.356   5.468  0.5566  2.8815  2.0229
  152SAPE   H5Y16828   4.386   5.233   5.490 -2.1508 -0.3469  1.2252
  152SAPE   C3616829   4.397   5.326   5.292  0.8512  0.6227 -0.0195
  152SAPE   H6X16830   4.506   5.322   5.274  1.0910  1.4670  1.1163
  152SAPE   H6Y16831   4.358   5.424   5.258 -0.8562 -0.1641 -0.4788
  152SAPE   C3716832   4.312   5.230   5.207  0.8025  0.7539 -0.3626
  152SAPE   H7X16833   4.202   5.238   5.224  0.4916 -3.9523  1.5086
  152SAPE   H7Y16834   4.339   5.128   5.243 -1.0611  0.7309  1.1303
  152SAPE   C3816835   4.331   5.248   5.055 -0.5664  0.6433 -0.6472
  152SAPE   H8X16836   4.311   5.147   5.013 -1.2621  1.0545 -1.3114
  152SAPE   H8Y16837   4.441   5.265   5.048 -0.3650 -0.3712 -0.1668
  152SAPE   C3916838   4.246   5.359   4.989 -0.2045  0.6106 -0.7970
  152SAPE   H9X16839   4.251   5.436   5.069  0.4352 -1.0079  0.7937
  152SAPE   H9Y16840   4.138   5.336   4.988  0.2998 -2.1587 -0.1971
  152SAPE  C31016841   4.310   5.412   4.861  0.2658 -0.1701  0.1204
  152SAPE  H10X16842   4.365   5.326   4.817  2.8386  0.9882  0.8818
  152SAPE  H10Y16843   4.392   5.485   4.885 -0.0047 -0.2599  1.4120
  152SAPE  C31116844   4.223   5.492   4.760  0.2365  0.1580 -0.5442
  152SAPE  H11X16845   4.190   5.585   4.810  1.4731 -1.1317  3.0646
  152SAPE  H11Y16846   4.133   5.434   4.731  1.2354 -2.0476  0.4735
  152SAPE  C31216847   4.292   5.519   4.626  0.9328  0.2672 -0.1554
  152SAPE  H12X16848   4.335   5.424   4.586 -0.3476 -0.2101 -0.4277
  152SAPE  H12Y16849   4.378   5.587   4.641  0.5016  0.4136  1.9808
  152SAPE  C31316850   4.186   5.581   4.530 -0.6139  0.7882 -0.2748
  152SAPE  H13X16851   4.139   5.663   4.588 -0.1790 -0.0299  1.3146
  152SAPE  H13Y16852   4.108   5.504   4.512  0.5876 -0.9950  1.6510
  152SAPE  C31416853   4.248   5.629   4.399  0.8168  0.4118  0.0037
  152SAPE  H14X16854   4.289   5.538   4.349 -1.0834 -0.2156 -0.5064
  152SAPE  H14Y16855   4.334   5.696   4.421  0.3966  0.5857  1.1590
  152SAPE  C31516856   4.148   5.695   4.299 -0.4980 -0.7504  0.2904
  152SAPE  H15X16857   4.177   5.802   4.292 -0.1599 -0.8157  0.6924
  152SAPE  H15Y16858   4.042   5.694   4.334 -0.4720 -0.4289  0.3804
  152SAPE  C31616859   4.158   5.638   4.155  0.4025  0.8207 -0.3572
  152SAPE  H16X16860   4.262   5.635   4.116  0.8359 -1.0609  0.8261
  152SAPE  H16Y16861   4.089   5.698   4.093 -3.2563 -1.8664  0.7415
  152SAPE  C31716862   4.107   5.490   4.141 -0.0254  0.1031 -0.0589
  152SAPE  H17X16863   4.166   5.429   4.212  0.4277  1.2005  0.5212
  152SAPE  H17Y16864   4.138   5.476   4.035  0.8012 -0.4116  0.2424
  152SAPE  C31816865   3.959   5.471   4.156 -0.0359 -0.2190  0.0929
  152SAPE  H18X16866   3.913   5.493   4.058 -0.7058  1.0002  0.6549
  152SAPE  H18Y16867   3.917   5.544   4.229 -1.1927 -1.4432  0.6784
  152SAPE  H18Z16868   3.936   5.369   4.191  0.6681 -1.2379 -2.2261
  153SAPE     N16869   4.924   5.263   6.540 -0.5254  0.3661  0.5073
  153SAPE   HN116870   4.948   5.364   6.534  2.1049 -0.2063  0.1113
  153SAPE   HN216871   4.842   5.245   6.478  0.0197 -1.1330  0.1768
  153SAPE   HN316872   4.904   5.228   6.636  3.1293 -2.0945  0.5586
  153SAPE   C1216873   5.028   5.168   6.494 -0.4107  0.3766 -0.0362
  153SAPE  H12A16874   5.057   5.184   6.389  2.3518 -1.2259  0.3928
  153SAPE  H12B16875   4.981   5.067   6.497  2.6976 -1.1650  0.9085
  153SAPE   C1116876   5.158   5.166   6.581  0.3696 -0.3258  0.0951
  153SAPE  H11A16877   5.202   5.268   6.580  1.4561 -0.7782  0.4098
  153SAPE  H11B16878   5.229   5.096   6.533  2.1031 -0.4253  2.6194
  153SAPE     P16879   5.128   4.982   6.780 -0.1625 -0.2708  0.1428
  153SAPE   O1316880   5.264   4.944   6.822 -0.3421 -0.7435 -0.2578
  153SAPE   O1416881   5.024   4.980   6.882  0.0374 -0.1252 -0.4923
  153SAPE   O1216882   5.130   5.127   6.721 -0.4045  0.1434  0.0298
  153SAPE   O1116883   5.078   4.896   6.659  0.1350 -0.3901 -0.2449
  153SAPE    C116884   5.142   4.777   6.622 -0.6107 -0.4961 -0.3203
  153SAPE    HA16885   5.252   4.793   6.625 -0.9075  2.1227 -0.5421
  153SAPE    HB16886   5.113   4.694   6.689 -0.2587 -0.2530  0.1443
  153SAPE    C216887   5.095   4.741   6.485 -0.5534  0.1720  0.1036
  153SAPE    HS16888   5.114   4.633   6.467 -2.3341  0.2580 -2.9302
  153SAPE   O2116889   5.167   4.806   6.380  0.1701  0.6575  0.5316
  153SAPE   C2116890   5.294   4.794   6.361  0.8227  0.1087  0.0191
  153SAPE   O2216891   5.364   4.704   6.404  0.2559  0.2385 -0.1842
  153SAPE   C2216892   5.351   4.907   6.274  0.4208 -0.2369 -0.0817
  153SAPE   H2R16893   5.408   4.981   6.334 -0.0339 -0.8015  1.0762
  153SAPE   H2S16894   5.414   4.849   6.203  0.6479  0.9910 -0.9057
  153SAPE    C316895   4.938   4.751   6.461 -0.1927 -0.1272 -0.4000
  153SAPE    HX16896   4.921   4.860   6.448  1.1828  0.0222 -1.1866
  153SAPE    HY16897   4.884   4.714   6.551 -2.2266  0.0828 -1.4791
  153SAPE   O3116898   4.898   4.659   6.351 -0.2012 -0.6252 -0.9207
  153SAPE   C3116899   4.852   4.717   6.244  0.0029  0.3343  0.2584
  153SAPE   O3216900   4.833   4.833   6.229  0.8381  0.0074 -0.2621
  153SAPE   C3216901   4.817   4.602   6.151 -0.1723 -0.0274  0.0446
  153SAPE   H2X16902   4.744   4.538   6.204 -0.4329  1.3364  1.3985
  153SAPE   H2Y16903   4.915   4.549   6.151  0.1417  0.5132 -1.0115
  153SAPE   C2316904   5.243   4.987   6.193  0.1002 -0.3319  0.3829
  153SAPE   H3R16905   5.274   5.087   6.155  1.7968 -1.2742 -0.8514
  153SAPE   H3S16906   5.159   5.017   6.259 -0.7705  0.1836 -0.9212
  153SAPE   C2416907   5.198   4.913   6.066 -0.2716 -0.4642 -0.3289
  153SAPE   H4R16908   5.137   4.992   6.016  0.7444  1.6773  1.6367
  153SAPE   H4S16909   5.124   4.837   6.097 -2.2688  1.8463  0.9830
  153SAPE   C2516910   5.310   4.849   5.978  0.4474  0.1959  0.1531
  153SAPE   H5R16911   5.359   4.760   6.020 -0.9394  0.5280  2.6989
  153SAPE   C2616912   5.332   4.879   5.852 -0.3102  0.5289  0.1505
  153SAPE   H6R16913   5.409   4.823   5.797 -0.3179  1.1142 -0.4715
  153SAPE   C2716914   5.282   4.999   5.774 -0.3050 -0.3709  0.6809
  153SAPE   H7R16915   5.370   5.024   5.710 -0.0818 -0.5278  0.9211
  153SAPE   H7S16916   5.257   5.081   5.844  0.6061  0.8113 -0.3220
  153SAPE   C2816917   5.160   4.950   5.705  0.3221  0.2404  0.1325
  153SAPE   H8R16918   5.064   4.933   5.755 -0.2276 -1.1052 -1.3022
  153SAPE   C2916919   5.166   4.911   5.581 -0.0938 -0.4311  0.2023
  153SAPE   H9R16920   5.074   4.867   5.540  0.0079 -1.0210  0.6034
  153SAPE  C21016921   5.285   4.910   5.490 -0.6458  0.9020  0.7165
  153SAPE  H10R16922   5.376   4.867   5.536 -0.9381  1.0751  1.4626
  153SAPE  H10S16923   5.315   5.015   5.466  1.6892  0.8554  3.0179
  153SAPE  C21116924   5.261   4.840   5.359  0.6015 -0.3583 -0.6425
  153SAPE  H11R16925   5.238   4.732   5.354  2.5647 -0.7675 -2.5729
  153SAPE  C21216926   5.262   4.898   5.233  0.4390  0.2530  0.0396
  153SAPE  H12R16927   5.260   4.823   5.153  0.2672 -0.8009  1.0065
  153SAPE  C21316928   5.288   5.043   5.203  0.4949  0.0648 -0.3296
  153SAPE  H13R16929   5.398   5.055   5.189  0.9692 -3.1392  0.0296
  153SAPE  H13S16930   5.270   5.116   5.284 -1.1532  2.1206 -2.3855
  153SAPE  C21416931   5.217   5.084   5.077 -1.1360 -0.0698  0.6017
  153SAPE  H14R16932   5.107   5.080   5.082 -1.2274  0.1554 -0.7384
  153SAPE  C21516933   5.261   5.100   4.952 -0.1928  0.6788 -0.1785
  153SAPE  H15R16934   5.193   5.112   4.867 -0.6120 -1.0342 -0.1151
  153SAPE  C21616935   5.401   5.077   4.908 -0.4363  0.7730  0.0067
  153SAPE  H16R16936   5.418   4.979   4.858  0.0609  1.6971 -1.7276
  153SAPE  H16S16937   5.473   5.070   4.992 -2.0019 -0.8054  1.2885
  153SAPE  C21716938   5.457   5.194   4.823  0.1505 -0.4867 -0.0948
  153SAPE  H17R16939   5.563   5.165   4.807  0.3732 -0.4665  1.3002
  153SAPE  H17S16940   5.447   5.292   4.873 -0.4965  0.1255 -1.3552
  153SAPE  C21816941   5.375   5.214   4.691  0.4352  0.1557  0.3140
  153SAPE  H18R16942   5.267   5.233   4.706  0.5696  1.8685 -0.6620
  153SAPE  H18S16943   5.376   5.115   4.643  1.0947  0.0701  0.4866
  153SAPE  C21916944   5.435   5.320   4.601  0.6776 -0.5539 -0.0476
  153SAPE  H19R16945   5.527   5.291   4.546  1.4401 -1.4146  1.6167
  153SAPE  H19S16946   5.443   5.423   4.641  0.0236 -0.0864 -1.0560
  153SAPE  C22016947   5.314   5.347   4.492  0.5832  0.8083 -0.5699
  153SAPE  H20R16948   5.218   5.366   4.544  1.3818  0.0077  1.2920
  153SAPE  H20S16949   5.307   5.253   4.435 -0.6757  0.7508 -0.3433
  153SAPE  H20T16950   5.340   5.430   4.423  3.2552  0.6811  0.1596
  153SAPE   C3316951   4.775   4.648   6.013  0.5753 -0.2227  0.0010
  153SAPE   H3X16952   4.816   4.748   5.987  1.1649 -0.0682  1.4441
  153SAPE   H3Y16953   4.664   4.649   6.016  0.6005 -0.3075  1.4598
  153SAPE   C3416954   4.824   4.551   5.908  0.5504 -0.5175  0.8585
  153SAPE   H4X16955   4.800   4.443   5.922 -1.3077 -0.4562 -1.3858
  153SAPE   H4Y16956   4.935   4.551   5.915  0.5866  2.3821  1.7013
  153SAPE   C3516957   4.770   4.589   5.770  0.0314 -0.8036 -0.8137
  153SAPE   H5X16958   4.832   4.680   5.752  0.7474 -0.9396  0.8242
  153SAPE   H5Y16959   4.662   4.608   5.788  0.4130  0.0101  0.8447
  153SAPE   C3616960   4.811   4.490   5.665  0.4151 -0.1248  0.4362
  153SAPE   H6X16961   4.753   4.399   5.690 -0.0769  0.9121  3.3810
  153SAPE   H6Y16962   4.921   4.472   5.671  0.3684 -2.6684 -3.1397
  153SAPE   C3716963   4.777   4.542   5.528 -0.3571 -0.2754 -0.5379
  153SAPE   H7X16964   4.845   4.629   5.515 -0.9585  0.4830  1.0904
  153SAPE   H7Y16965   4.676   4.590   5.528 -1.0260 -1.6064 -1.6902
  153SAPE   C3816966   4.785   4.448   5.406  0.1970 -0.0477 -0.6236
  153SAPE   H8X16967   4.727   4.356   5.429 -0.1544 -0.0360 -1.4328
  153SAPE   H8Y16968   4.890   4.420   5.384  0.0265  0.2254 -1.8339
  153SAPE   C3916969   4.714   4.509   5.285 -0.3164 -0.3506  0.1851
  153SAPE   H9X16970   4.706   4.620   5.281 -1.4456 -0.4240 -0.0285
  153SAPE   H9Y16971   4.610   4.470   5.287 -0.4760  0.0702  0.2400
  153SAPE  C31016972   4.781   4.469   5.155 -0.0005  0.4057  0.2481
  153SAPE  H10X16973   4.720   4.501   5.068 -1.5318  2.4185  1.9503
  153SAPE  H10Y16974   4.793   4.359   5.162 -0.1559  0.4115  0.5836
  153SAPE  C31116975   4.916   4.531   5.138 -0.0583  0.1697 -0.2678
  153SAPE  H11X16976   4.996   4.516   5.213  1.2683  2.3929 -1.1512
  153SAPE  H11Y16977   4.895   4.639   5.153 -2.9127 -0.4611  1.0618
  153SAPE  C31216978   4.983   4.504   5.004 -0.0890 -0.1711  0.8128
  153SAPE  H12X16979   4.903   4.504   4.927 -0.3305 -1.5632  1.0376
  153SAPE  H12Y16980   5.030   4.403   4.997  2.2719  0.5248  4.1851
  153SAPE  C31316981   5.088   4.606   4.967 -0.7716  0.2783  0.9077
  153SAPE  H13X16982   5.169   4.619   5.042  0.7655  1.1061 -0.8104
  153SAPE  H13Y16983   5.040   4.706   4.959 -0.0893  0.4916 -1.2797
  153SAPE  C31416984   5.159   4.578   4.829  0.1462  0.0684 -0.0362
  153SAPE  H14X16985   5.096   4.607   4.743 -0.9259 -1.3696  0.2166
  153SAPE  H14Y16986   5.176   4.468   4.830 -1.6198 -0.2818  2.1912
  153SAPE  C31516987   5.297   4.645   4.805  0.3063 -0.0451 -0.1917
  153SAPE  H15X16988   5.368   4.611   4.883 -0.0595 -0.5036 -0.0574
  153SAPE  H15Y16989   5.279   4.754   4.819  1.4528  0.2025 -0.6169
  153SAPE  C31616990   5.345   4.612   4.659 -0.0147 -0.0252 -0.4289
  153SAPE  H16X16991   5.264   4.653   4.595  0.1785  1.4324  0.1975
  153SAPE  H16Y16992   5.365   4.504   4.644 -0.2518 -0.1619  0.1867
  153SAPE  C31716993   5.477   4.691   4.633 -0.3019 -0.4391 -0.3235
  153SAPE  H17X16994   5.549   4.665   4.713 -1.4950  1.7548  1.5777
  153SAPE  H17Y16995   5.451   4.799   4.635 -0.3140 -0.4301 -0.7955
  153SAPE  C31816996   5.558   4.666   4.503  0.4260  0.5727 -0.0714
  153SAPE  H18X16997   5.655   4.718   4.513 -0.1102  1.7138 -0.6257
  153SAPE  H18Y16998   5.512   4.717   4.416 -0.4178  0.4433  0.2800
  153SAPE  H18Z16999   5.576   4.558   4.489 -0.3934  0.7034 -2.5172
  154SAPE     N17000   2.400   4.469   6.539 -0.0741 -0.4290  0.3574
  154SAPE   HN117001   2.420   4.544   6.609  2.1534 -2.5635  2.2036
  154SAPE   HN217002   2.352   4.400   6.601 -0.7986  0.4896  0.8393
  154SAPE   HN317003   2.490   4.430   6.504  0.3032  1.1877 -0.5851
  154SAPE   C1217004   2.312   4.512   6.428  0.0875 -0.3808  0.0049
  154SAPE  H12A17005   2.245   4.592   6.465 -0.0067 -0.5325  0.1609
  154SAPE  H12B17006   2.248   4.425   6.404  3.1402 -2.7566 -0.1787
  154SAPE   C1117007   2.391   4.560   6.304 -0.7745  1.1788 -0.8319
  154SAPE  H11A17008   2.321   4.561   6.218  0.8254  0.0006 -2.1746
  154SAPE  H11B17009   2.462   4.485   6.264 -0.7854  0.7265 -0.0291
  154SAPE     P17010   2.392   4.811   6.255 -0.0559  0.4099  0.2339
  154SAPE   O1317011   2.260   4.845   6.301  0.4724  0.2194 -0.1154
  154SAPE   O1417012   2.489   4.922   6.256 -0.1267  0.7288  0.3653
  154SAPE   O1217013   2.451   4.682   6.335  0.0511 -0.2369 -0.4634
  154SAPE   O1117014   2.371   4.745   6.110 -0.1015 -0.6444  0.4194
  154SAPE    C117015   2.481   4.751   6.009  0.8787  0.2910  0.5181
  154SAPE    HA17016   2.544   4.843   6.019 -0.0492  0.8833  1.0281
  154SAPE    HB17017   2.555   4.668   6.010 -1.1107 -1.5659 -0.3085
  154SAPE    C217018   2.425   4.750   5.859 -0.2896  0.0015 -0.0758
  154SAPE    HS17019   2.509   4.776   5.792  1.0240 -2.4369  0.4923
  154SAPE   O2117020   2.311   4.838   5.841  0.4301  0.6877 -0.4495
  154SAPE   C2117021   2.335   4.963   5.870 -0.2907  0.4591  0.1227
  154SAPE   O2217022   2.443   5.017   5.881 -0.1661 -0.0056 -0.0280
  154SAPE   C2217023   2.202   5.036   5.878  0.4927 -0.3779  0.7326
  154SAPE   H2R17024   2.175   5.048   5.771 -0.1148 -1.7689  0.7148
  154SAPE   H2S17025   2.122   4.976   5.926 -0.8758  0.0950 -0.8369
  154SAPE    C317026   2.395   4.603   5.817 -0.6197  0.1039 -0.0327
  154SAPE    HX17027   2.343   4.542   5.893  0.9877 -1.8254 -0.4013
  154SAPE    HY17028   2.489   4.547   5.796  0.8652  2.0520  1.0921
  154SAPE   O3117029   2.322   4.596   5.691  0.0912 -0.4286  0.6363
  154SAPE   C3117030   2.191   4.555   5.700 -0.2582 -0.2865  0.4573
  154SAPE   O3217031   2.129   4.554   5.802 -0.3716 -0.4080 -0.1026
  154SAPE   C3217032   2.145   4.503   5.565  0.4381  0.1196 -0.2052
  154SAPE   H2X17033   2.133   4.392   5.567  1.5931 -0.0349 -0.5139
  154SAPE   H2Y17034   2.227   4.519   5.491  0.0148 -1.3830 -1.0367
  154SAPE   C2317035   2.222   5.174   5.948  0.0751  0.2832 -0.4396
  154SAPE   H3R17036   2.317   5.226   5.923  2.4582 -3.1523  0.7168
  154SAPE   H3S17037   2.245   5.161   6.056 -0.4637  0.7278 -0.2639
  154SAPE   C2417038   2.100   5.266   5.945 -0.0573  0.4589  0.1070
  154SAPE   H4R17039   2.083   5.280   5.836 -1.2314 -1.7491 -0.0558
  154SAPE   H4S17040   2.120   5.367   5.986 -1.9600  0.8129  0.2440
  154SAPE   C2517041   1.985   5.198   6.018  0.9640 -0.0278  0.1520
  154SAPE   H5R17042   2.014   5.163   6.119  0.6199  1.1649  0.6907
  154SAPE   C2617043   1.860   5.171   5.976  0.2886  0.3814  0.2683
  154SAPE   H6R17044   1.776   5.135   6.038  0.7332 -0.2987  0.4789
  154SAPE   C2717045   1.809   5.212   5.837 -0.3803 -0.3118  0.5263
  154SAPE   H7R17046   1.876   5.293   5.801  0.4475 -0.8025  0.9324
  154SAPE   H7S17047   1.706   5.251   5.849  0.1941  0.7583  2.2658
  154SAPE   C2817048   1.832   5.099   5.740  0.4222 -0.3079  0.2109
  154SAPE   H8R17049   1.861   5.006   5.791  0.9585  0.4891  1.4103
  154SAPE   C2917050   1.827   5.104   5.608  0.0969  0.2827 -0.2175
  154SAPE   H9R17051   1.844   5.012   5.550 -2.2604  0.0205 -0.6309
  154SAPE  C21017052   1.790   5.223   5.521 -0.4905  0.3213  0.1216
  154SAPE  H10R17053   1.887   5.264   5.485 -0.0255 -0.2543  0.6853
  154SAPE  H10S17054   1.749   5.304   5.586 -1.1610 -0.4493  0.6704
  154SAPE  C21117055   1.690   5.171   5.421  0.0551 -0.5144 -0.1654
  154SAPE  H11R17056   1.596   5.132   5.461 -0.3805 -0.6520 -1.2817
  154SAPE  C21217057   1.713   5.164   5.285  0.0782  0.2908 -0.0619
  154SAPE  H12R17058   1.635   5.119   5.222 -1.7473  3.2815 -0.1633
  154SAPE  C21317059   1.844   5.202   5.205  0.2182 -0.0045 -0.6023
  154SAPE  H13R17060   1.841   5.305   5.163  2.2126 -0.3699 -1.7624
  154SAPE  H13S17061   1.849   5.134   5.118  1.6212 -1.5078  0.5863
  154SAPE  C21417062   1.983   5.188   5.263  0.2455 -0.2408  0.6898
  154SAPE  H14R17063   2.003   5.089   5.305 -0.1433  0.2833  2.1439
  154SAPE  C21517064   2.087   5.273   5.254 -0.0694  0.1439  0.2492
  154SAPE  H15R17065   2.182   5.239   5.298 -0.5111 -0.6503  0.6161
  154SAPE  C21617066   2.089   5.407   5.194  0.2586  0.3398 -0.2934
  154SAPE  H16R17067   2.075   5.476   5.280  0.6016  1.4618 -1.1087
  154SAPE  H16S17068   2.002   5.412   5.125 -0.0063  2.0934  0.1224
  154SAPE  C21717069   2.230   5.447   5.122  0.5559 -0.6526  0.8830
  154SAPE  H17R17070   2.316   5.436   5.191  1.8859  2.8767  0.0052
  154SAPE  H17S17071   2.217   5.554   5.094 -0.2722  0.1007  3.7735
  154SAPE  C21817072   2.264   5.345   5.015  0.5734 -0.7298 -0.3674
  154SAPE  H18R17073   2.180   5.351   4.941  0.6919  1.2393 -0.3992
  154SAPE  H18S17074   2.267   5.243   5.059  1.7354 -0.9142 -0.8406
  154SAPE  C21917075   2.382   5.370   4.922  0.5131 -0.5079  0.6170
  154SAPE  H19R17076   2.394   5.284   4.853 -2.2275  0.5042 -1.2993
  154SAPE  H19S17077   2.478   5.386   4.977  0.8293  0.1158 -0.0873
  154SAPE  C22017078   2.368   5.484   4.829  0.6505 -0.7514  0.9143
  154SAPE  H20R17079   2.335   5.574   4.886 -1.3311  0.3764 -1.8113
  154SAPE  H20S17080   2.290   5.471   4.751  0.8161 -0.1040  0.6342
  154SAPE  H20T17081   2.463   5.507   4.777  0.5031 -2.8246 -0.3809
  154SAPE   C3317082   2.022   4.568   5.503  0.3295 -0.8891 -0.4703
  154SAPE   H3X17083   1.940   4.526   5.565 -0.8491  2.5818  0.5769
  154SAPE   H3Y17084   2.002   4.525   5.403 -0.3773 -2.0589  0.1542
  154SAPE   C3417085   2.032   4.718   5.501 -0.3076  0.0284  0.0691
  154SAPE   H4X17086   2.032   4.754   5.606  1.1205 -3.1793  1.2859
  154SAPE   H4Y17087   1.950   4.771   5.447 -0.6565 -0.8892 -0.3228
  154SAPE   C3517088   2.159   4.778   5.442  0.3316  0.2643  0.5959
  154SAPE   H5X17089   2.239   4.755   5.516 -0.5250 -0.2791  1.3743
  154SAPE   H5Y17090   2.143   4.887   5.457 -1.5956 -0.0014  0.6459
  154SAPE   C3617091   2.211   4.742   5.295  0.0968 -0.8916 -1.1298
  154SAPE   H6X17092   2.138   4.784   5.223  0.7409 -0.0464 -1.3101
  154SAPE   H6Y17093   2.211   4.631   5.293 -0.0530 -1.1454  3.3880
  154SAPE   C3717094   2.349   4.799   5.258 -0.6967 -0.7467  0.5861
  154SAPE   H7X17095   2.343   4.909   5.272  0.0876 -0.9724  3.0512
  154SAPE   H7Y17096   2.368   4.775   5.151 -1.3100  0.4814  0.1790
  154SAPE   C3817097   2.469   4.742   5.328  0.6673  0.3165  0.1708
  154SAPE   H8X17098   2.456   4.632   5.337 -0.9164  0.4760  0.1372
  154SAPE   H8Y17099   2.482   4.786   5.429 -1.6867  0.8700  0.2775
  154SAPE   C3917100   2.608   4.769   5.259 -0.1990  0.6738 -0.2011
  154SAPE   H9X17101   2.607   4.879   5.250 -1.6528  0.7330  0.3274
  154SAPE   H9Y17102   2.620   4.724   5.158 -3.1538  1.7338 -1.1294
  154SAPE  C31017103   2.721   4.732   5.362  0.3786  0.3346  0.2522
  154SAPE  H10X17104   2.748   4.626   5.343  0.7846  0.1295  1.8273
  154SAPE  H10Y17105   2.685   4.749   5.466  0.9461  2.8132  0.0905
  154SAPE  C31117106   2.856   4.810   5.353  0.7777  0.0408 -0.1604
  154SAPE  H11X17107   2.878   4.817   5.244 -1.0017  1.6750 -0.4626
  154SAPE  H11Y17108   2.942   4.754   5.396  1.6937  0.6809 -1.1169
  154SAPE  C31217109   2.841   4.945   5.417  0.0728 -0.0912  0.1637
  154SAPE  H12X17110   2.783   4.938   5.512 -1.5009 -0.3723 -0.7763
  154SAPE  H12Y17111   2.767   4.998   5.352  0.0750  1.2001  1.1578
  154SAPE  C31317112   2.964   5.036   5.435  0.2020  0.7039  0.1755
  154SAPE  H13X17113   3.035   4.985   5.504  0.3520  1.3605  0.5143
  154SAPE  H13Y17114   2.936   5.134   5.479 -0.6935  0.8136 -0.5978
  154SAPE  C31417115   3.028   5.054   5.293 -0.1390  0.0449 -0.0481
  154SAPE  H14X17116   2.982   5.150   5.260 -0.3852 -0.3418 -0.8669
  154SAPE  H14Y17117   3.014   4.972   5.220 -1.0474 -0.3537  0.5582
  154SAPE  C31517118   3.177   5.079   5.323 -0.6295  0.2456  0.9983
  154SAPE  H15X17119   3.205   4.974   5.344 -0.6002  0.2872  1.1702
  154SAPE  H15Y17120   3.196   5.136   5.417 -0.8971  1.3827  0.3820
  154SAPE  C31617121   3.262   5.130   5.207 -1.1941 -0.2960 -0.1331
  154SAPE  H16X17122   3.239   5.102   5.102  4.2851 -0.3921 -1.6522
  154SAPE  H16Y17123   3.364   5.086   5.218 -1.6802 -1.5968 -0.6360
  154SAPE  C31717124   3.287   5.281   5.218 -0.4486  0.6447  0.0472
  154SAPE  H17X17125   3.310   5.308   5.323  1.8380 -1.0363  0.0579
  154SAPE  H17Y17126   3.199   5.329   5.169  0.4945 -1.7792 -4.6181
  154SAPE  C31817127   3.420   5.318   5.139 -0.6393 -0.3187 -0.2157
  154SAPE  H18X17128   3.454   5.423   5.146 -0.7588 -0.2284 -0.9328
  154SAPE  H18Y17129   3.413   5.287   5.032  1.4226 -0.0419 -0.4683
  154SAPE  H18Z17130   3.498   5.255   5.186 -0.2085 -0.1504 -0.6930
  155SAPE     N17131   3.493   3.389   6.713 -0.6712  0.3163 -0.5204
  155SAPE   HN117132   3.541   3.391   6.620  0.2016 -0.3088 -0.0920
  155SAPE   HN217133   3.519   3.479   6.758  4.6329 -1.0921 -0.0902
  155SAPE   HN317134   3.546   3.327   6.777  0.5440  1.7139 -0.1264
  155SAPE   C1217135   3.348   3.342   6.729 -0.0856 -0.0549  0.2721
  155SAPE  H12A17136   3.337   3.301   6.831  0.9036  0.1129  0.4588
  155SAPE  H12B17137   3.321   3.265   6.654 -2.0023 -0.2471  1.1121
  155SAPE   C1117138   3.257   3.468   6.706 -0.8063  0.9478  0.2646
  155SAPE  H11A17139   3.302   3.541   6.636 -0.9730  2.1020  1.3330
  155SAPE  H11B17140   3.258   3.524   6.802 -0.7136  3.1590 -0.9776
  155SAPE     P17141   3.036   3.500   6.570 -0.4324  0.3894 -0.1932
  155SAPE   O1317142   2.909   3.431   6.558 -0.3876 -0.4100  0.5260
  155SAPE   O1417143   3.038   3.643   6.611 -0.3295 -0.0347  0.9230
  155SAPE   O1217144   3.127   3.419   6.661 -0.3634  0.1844  0.6375
  155SAPE   O1117145   3.118   3.484   6.443 -0.8183 -0.0920  0.2974
  155SAPE    C117146   3.179   3.359   6.407 -0.4239 -0.1254  0.2488
  155SAPE    HA17147   3.290   3.367   6.408 -0.5425  2.3295  2.3511
  155SAPE    HB17148   3.147   3.274   6.471  3.7816 -1.4643  0.8692
  155SAPE    C217149   3.131   3.322   6.268 -0.4575 -0.2862  0.8025
  155SAPE    HS17150   3.182   3.229   6.236  3.1207  0.5962  3.3392
  155SAPE   O2117151   3.148   3.442   6.186 -0.8278  0.0074  0.4898
  155SAPE   C2117152   3.236   3.422   6.091  0.4580 -0.8906  0.4605
  155SAPE   O2217153   3.321   3.336   6.087 -0.2821  0.1861 -0.0809
  155SAPE   C2217154   3.237   3.544   5.991  0.2799  0.3551 -0.3636
  155SAPE   H2R17155   3.156   3.613   6.023  0.4630  0.9512 -1.1511
  155SAPE   H2S17156   3.323   3.606   6.023  0.4197 -0.5003  1.0029
  155SAPE    C317157   2.978   3.288   6.267  0.0920 -0.0344 -0.3416
  155SAPE    HX17158   2.924   3.376   6.308 -1.1332 -0.3491 -1.2185
  155SAPE    HY17159   2.946   3.207   6.336 -0.5344  2.6456  2.7563
  155SAPE   O3117160   2.940   3.253   6.133 -0.1646  0.2994 -0.1821
  155SAPE   C3117161   2.963   3.137   6.080 -0.8623  0.2395 -0.1380
  155SAPE   O3217162   3.014   3.040   6.137  0.0267 -0.7470  0.9341
  155SAPE   C3217163   2.897   3.143   5.941  0.1687  0.4005 -0.4221
  155SAPE   H2X17164   2.794   3.172   5.969  0.3091  0.5513 -0.0453
  155SAPE   H2Y17165   2.891   3.036   5.914  0.1631  0.5531 -1.0332
  155SAPE   C2317166   3.240   3.510   5.838 -0.2862 -0.6230 -0.1251
  155SAPE   H3R17167   3.145   3.459   5.814 -0.5636  0.3987 -1.2808
  155SAPE   H3S17168   3.333   3.449   5.825  0.3723  0.2527  0.3613
  155SAPE   C2417169   3.241   3.634   5.752 -0.5182 -0.2464 -0.0330
  155SAPE   H4R17170   3.330   3.697   5.775 -1.2229  0.8612 -0.2386
  155SAPE   H4S17171   3.157   3.704   5.771 -1.5190 -1.1227 -1.0997
  155SAPE   C2517172   3.247   3.604   5.604  1.6627  0.0135 -0.5465
  155SAPE   H5R17173   3.154   3.618   5.547  1.8673 -0.1016 -0.9106
  155SAPE   C2617174   3.351   3.557   5.536 -0.0793 -0.3873 -0.2262
  155SAPE   H6R17175   3.349   3.530   5.429  2.6509  0.8004 -0.6911
  155SAPE   C2717176   3.493   3.538   5.576  0.5408 -0.7169 -0.1845
  155SAPE   H7R17177   3.526   3.444   5.527 -3.0245 -1.4106 -1.5440
  155SAPE   H7S17178   3.491   3.505   5.682 -0.5281 -2.0058 -0.5703
  155SAPE   C2817179   3.582   3.660   5.556 -0.1650  0.4094  0.7276
  155SAPE   H8R17180   3.592   3.740   5.631  3.7799  0.4923  0.2703
  155SAPE   C2917181   3.645   3.672   5.438 -0.5840  0.2656  0.0763
  155SAPE   H9R17182   3.710   3.760   5.429 -1.7733  0.9736 -2.0659
  155SAPE  C21017183   3.634   3.592   5.314 -0.1311  0.1018  0.2677
  155SAPE  H10R17184   3.582   3.662   5.245  0.8412  0.1981 -0.4028
  155SAPE  H10S17185   3.573   3.504   5.342  0.1834  0.0690  0.8643
  155SAPE  C21117186   3.769   3.547   5.253  0.0598 -0.2569 -0.0386
  155SAPE  H11R17187   3.857   3.603   5.288 -0.4178  0.8168 -0.4885
  155SAPE  C21217188   3.773   3.458   5.148 -0.4937 -0.0972  0.3923
  155SAPE  H12R17189   3.870   3.419   5.114 -0.9035 -0.8253  0.0196
  155SAPE  C21317190   3.649   3.387   5.095 -0.2878 -0.2680 -0.0718
  155SAPE  H13R17191   3.593   3.470   5.048 -0.3230 -0.3721 -0.2137
  155SAPE  H13S17192   3.586   3.343   5.175 -0.6837 -3.9980 -2.2296
  155SAPE  C21417193   3.682   3.274   5.000  0.0003 -0.4848  0.0135
  155SAPE  H14R17194   3.697   3.176   5.048 -0.6619 -0.2419  0.7299
  155SAPE  C21517195   3.694   3.289   4.867 -0.4904  0.7473 -0.0550
  155SAPE  H15R17196   3.703   3.197   4.807 -4.7515  0.2014 -0.1491
  155SAPE  C21617197   3.686   3.418   4.790  0.3405 -0.2703  0.2611
  155SAPE  H16R17198   3.593   3.475   4.816  0.9206  0.3683  0.9872
  155SAPE  H16S17199   3.665   3.393   4.684 -1.8503 -0.6256  0.7195
  155SAPE  C21717200   3.814   3.511   4.802  0.0304 -0.0634 -0.6381
  155SAPE  H17R17201   3.900   3.445   4.781  0.6534  0.1368  1.1701
  155SAPE  H17S17202   3.822   3.557   4.903 -0.8572 -1.8363  0.2792
  155SAPE  C21817203   3.819   3.623   4.700  0.5717 -0.4532  0.1581
  155SAPE  H18R17204   3.912   3.681   4.716 -0.1162  0.6444  0.2502
  155SAPE  H18S17205   3.735   3.690   4.726  0.7338  0.0055 -0.4627
  155SAPE  C21917206   3.818   3.565   4.555 -0.5120  0.6772  0.5641
  155SAPE  H19R17207   3.714   3.527   4.545 -1.0489  2.4741 -1.7257
  155SAPE  H19S17208   3.870   3.467   4.548 -0.9596  0.4995 -0.3827
  155SAPE  C22017209   3.856   3.666   4.447  0.3366 -0.3254  1.1597
  155SAPE  H20R17210   3.776   3.742   4.454 -1.5036 -1.8987 -1.1769
  155SAPE  H20S17211   3.847   3.612   4.351  0.5706  0.4173  0.7145
  155SAPE  H20T17212   3.953   3.720   4.453  1.1212 -1.3459 -1.2455
  155SAPE   C3317213   2.967   3.226   5.826 -0.1283  0.5287  0.3558
  155SAPE   H3X17214   3.073   3.191   5.820 -0.3506 -0.0223 -0.6898
  155SAPE   H3Y17215   2.958   3.334   5.847 -1.8876  0.7968 -1.5180
  155SAPE   C3417216   2.895   3.200   5.691 -0.2068  0.4255  0.4713
  155SAPE   H4X17217   2.796   3.250   5.685 -0.7590 -0.7174 -0.1474
  155SAPE   H4Y17218   2.878   3.091   5.683  0.5978  0.3572 -0.5504
  155SAPE   C3517219   2.976   3.268   5.567 -0.3607  0.2696  0.5265
  155SAPE   H5X17220   3.080   3.231   5.569  0.3945  2.1897 -0.4695
  155SAPE   H5Y17221   2.979   3.378   5.579  3.6786  0.6915 -2.3944
  155SAPE   C3617222   2.912   3.247   5.429 -0.2932 -0.0626 -0.3285
  155SAPE   H6X17223   2.826   3.317   5.428 -0.8207 -0.6983 -0.9877
  155SAPE   H6Y17224   2.871   3.144   5.418 -1.1834  0.2120  0.3563
  155SAPE   C3717225   3.019   3.267   5.317  0.4730  0.4610 -1.0288
  155SAPE   H7X17226   2.988   3.202   5.232  2.1517 -1.0730 -0.5205
  155SAPE   H7Y17227   3.121   3.228   5.337 -0.2343 -2.3674 -2.3358
  155SAPE   C3817228   3.055   3.410   5.260  0.3528 -0.4250 -0.0101
  155SAPE   H8X17229   3.073   3.489   5.336 -1.2384  1.0350 -1.0582
  155SAPE   H8Y17230   2.979   3.450   5.189  2.3062  0.7093 -1.5800
  155SAPE   C3917231   3.186   3.397   5.177  0.5047  0.8321  0.1112
  155SAPE   H9X17232   3.268   3.355   5.239 -0.7211  1.0031  1.9547
  155SAPE   H9Y17233   3.232   3.495   5.152 -0.5408  1.4672  0.5791
  155SAPE  C31017234   3.157   3.333   5.048  0.9930  0.3436  0.3883
  155SAPE  H10X17235   3.070   3.383   5.000  0.2771  2.2260  3.3814
  155SAPE  H10Y17236   3.135   3.225   5.059  2.1905 -0.1912 -1.7765
  155SAPE  C31117237   3.276   3.343   4.950 -0.4058  0.1894  0.2238
  155SAPE  H11X17238   3.363   3.298   5.003 -0.8440 -0.3373  0.5208
  155SAPE  H11Y17239   3.295   3.448   4.922  2.3028 -0.8144 -2.1089
  155SAPE  C31217240   3.249   3.271   4.816 -0.3802  0.0081  0.1739
  155SAPE  H12X17241   3.146   3.300   4.786 -0.6084  0.3984  1.2795
  155SAPE  H12Y17242   3.253   3.161   4.828 -0.8439 -0.1053 -0.6588
  155SAPE  C31317243   3.349   3.316   4.707 -0.5003 -0.5648  0.1747
  155SAPE  H13X17244   3.445   3.273   4.742  0.2687  0.7958 -0.1695
  155SAPE  H13Y17245   3.362   3.427   4.707 -0.7089 -0.5081 -1.5944
  155SAPE  C31417246   3.327   3.263   4.570  0.3684  0.1844  0.1172
  155SAPE  H14X17247   3.310   3.154   4.579  0.1866  0.0062 -1.9991
  155SAPE  H14Y17248   3.421   3.279   4.514  0.5699  0.7580  0.6023
  155SAPE  C31517249   3.223   3.331   4.476 -0.6342 -0.5381 -0.6725
  155SAPE  H15X17250   3.146   3.355   4.553 -1.4951 -0.3990 -1.5542
  155SAPE  H15Y17251   3.186   3.257   4.402 -1.7752 -1.0448  0.3654
  155SAPE  C31617252   3.288   3.456   4.413 -0.1419 -0.5001  0.2523
  155SAPE  H16X17253   3.363   3.421   4.339 -1.9018  0.6903 -2.2681
  155SAPE  H16Y17254   3.334   3.527   4.484 -0.5812 -1.6782  1.7735
  155SAPE  C31717255   3.191   3.549   4.334 -0.7768 -0.1292  0.3732
  155SAPE  H17X17256   3.168   3.506   4.234  2.9674 -0.1407 -0.6132
  155SAPE  H17Y17257   3.246   3.642   4.307 -0.0188 -1.0346 -1.4051
  155SAPE  C31817258   3.061   3.583   4.405  0.3080 -0.0145  0.9302
  155SAPE  H18X17259   3.011   3.662   4.345  0.7707 -2.1172 -2.5064
  155SAPE  H18Y17260   3.095   3.634   4.498  1.4513  0.6215  0.1963
  155SAPE  H18Z17261   2.995   3.496   4.425 -1.5609  0.6316 -1.8905
  156SAPE     N17262   4.776   3.911   6.725  0.3847  0.2653  0.5406
  156SAPE   HN117263   4.709   3.832   6.720  2.7393 -2.2038  3.5340
  156SAPE   HN217264   4.789   3.950   6.630  0.8167  0.3120  0.6164
  156SAPE   HN317265   4.864   3.859   6.746  0.2904  0.4143  1.3474
  156SAPE   C1217266   4.750   4.005   6.838  0.8650  0.0059 -0.5465
  156SAPE  H12A17267   4.825   4.088   6.834  0.4081  0.4160 -0.7872
  156SAPE  H12B17268   4.765   3.950   6.933  1.7062  0.8336 -0.1781
  156SAPE   C1117269   4.610   4.062   6.842  0.1032 -0.4011  0.3299
  156SAPE  H11A17270   4.627   4.143   6.917 -1.9952  0.4830 -0.0779
  156SAPE  H11B17271   4.533   3.988   6.870 -1.5287  0.7507 -0.8673
  156SAPE     P17272   4.465   4.214   6.690 -0.0567  0.4749 -0.0777
  156SAPE   O1317273   4.343   4.131   6.697  0.4835  1.1242  0.3399
  156SAPE   O1417274   4.464   4.327   6.785 -0.3145  0.2460  0.8687
  156SAPE   O1217275   4.586   4.114   6.708  0.1858 -0.3798 -0.1732
  156SAPE   O1117276   4.495   4.268   6.550 -0.0011 -0.2650  0.2212
  156SAPE    C117277   4.472   4.172   6.439 -0.2064 -0.2495  0.1536
  156SAPE    HA17278   4.552   4.096   6.426 -1.0978 -0.8226 -2.8223
  156SAPE    HB17279   4.371   4.127   6.443 -1.2689  1.6048 -2.7590
  156SAPE    C217280   4.488   4.249   6.298  0.3003  0.0578 -0.5139
  156SAPE    HS17281   4.438   4.187   6.221 -2.8623  1.1259  0.5030
  156SAPE   O2117282   4.623   4.278   6.263 -0.1303 -0.6575 -0.6525
  156SAPE   C2117283   4.693   4.173   6.218 -0.0658 -0.7647 -0.4711
  156SAPE   O2217284   4.654   4.062   6.202 -0.0548 -0.2849  0.2166
  156SAPE   C2217285   4.832   4.223   6.187  0.6169 -0.0722 -0.0124
  156SAPE   H2R17286   4.818   4.313   6.125  1.9988 -0.0471 -0.3064
  156SAPE   H2S17287   4.882   4.234   6.286  0.2153 -2.0657  0.4613
  156SAPE    C317288   4.401   4.371   6.301  0.5031 -0.1916  0.0488
  156SAPE    HX17289   4.451   4.444   6.369 -1.0480  0.2047  0.8037
  156SAPE    HY17290   4.301   4.348   6.344  0.4325  0.6797  0.3791
  156SAPE   O3117291   4.365   4.416   6.178 -0.2733 -0.5278  0.1855
  156SAPE   C3117292   4.402   4.542   6.149  0.7240  0.6320 -0.0642
  156SAPE   O3217293   4.482   4.608   6.213  0.0103  0.0046 -0.0604
  156SAPE   C3217294   4.348   4.580   6.012  0.0284  0.5464  0.2619
  156SAPE   H2X17295   4.352   4.690   5.997  1.1520  0.4498 -0.2032
  156SAPE   H2Y17296   4.238   4.566   6.021  0.0796 -0.2722 -0.3504
  156SAPE   C2317297   4.903   4.112   6.106  0.5283  0.5059  0.2892
  156SAPE   H3R17298   4.880   4.015   6.154 -1.6680  0.5919 -0.5154
  156SAPE   H3S17299   5.014   4.123   6.116  0.5278  0.8191 -0.0297
  156SAPE   C2417300   4.867   4.113   5.956  0.1898  0.0721  0.5561
  156SAPE   H4R17301   4.887   4.214   5.914  1.5607 -0.2083  0.5027
  156SAPE   H4S17302   4.759   4.093   5.942  0.4935 -1.4114  0.2659
  156SAPE   C2517303   4.956   4.007   5.893 -0.5983 -0.5975  0.5885
  156SAPE   H5R17304   4.991   3.923   5.954  1.5226  0.3694  0.8253
  156SAPE   C2617305   5.042   4.035   5.791 -0.2439  0.2752 -0.3238
  156SAPE   H6R17306   5.103   3.947   5.764 -2.1600 -0.8584 -1.1412
  156SAPE   C2717307   5.030   4.144   5.684 -0.4553 -0.5280 -0.4195
  156SAPE   H7R17308   5.129   4.168   5.640 -0.4483 -1.3545 -0.8755
  156SAPE   H7S17309   5.015   4.248   5.721  0.2885  0.0539 -1.6848
  156SAPE   C2817310   4.925   4.103   5.583 -0.0895 -0.1894  0.0089
  156SAPE   H8R17311   4.828   4.098   5.633 -0.5369 -0.7413 -0.8777
  156SAPE   C2917312   4.950   4.077   5.451  0.4643 -0.5964 -0.2689
  156SAPE   H9R17313   4.873   4.024   5.393 -0.9715  1.6582 -0.5468
  156SAPE  C21017314   5.082   4.078   5.380 -0.3678  0.0582 -0.3448
  156SAPE  H10R17315   5.112   3.979   5.340 -1.2880 -0.6103  0.5720
  156SAPE  H10S17316   5.169   4.104   5.445 -0.1157 -0.6230 -0.3965
  156SAPE  C21117317   5.082   4.177   5.273  0.1209  0.0211 -0.2790
  156SAPE  H11R17318   5.099   4.280   5.308  0.0106  0.3702 -1.2229
  156SAPE  C21217319   5.060   4.160   5.140  0.4281  0.1172 -0.3642
  156SAPE  H12R17320   5.065   4.254   5.083 -2.4883  2.4026  2.7790
  156SAPE  C21317321   5.043   4.032   5.054  0.3433  0.0497 -0.0789
  156SAPE  H13R17322   4.939   3.995   5.069  0.4246 -1.1330 -2.0824
  156SAPE  H13S17323   5.112   3.951   5.087 -0.4161 -0.5983 -0.0651
  156SAPE  C21417324   5.071   4.070   4.909 -0.1286 -0.1285  0.0218
  156SAPE  H14R17325   5.172   4.112   4.896  0.2446 -0.4474  1.6279
  156SAPE  C21517326   4.984   4.064   4.808  0.1266  0.1605  0.2006
  156SAPE  H15R17327   5.024   4.100   4.712  0.6866 -0.2316  0.2840
  156SAPE  C21617328   4.840   4.021   4.813  0.3325 -0.5459 -0.2448
  156SAPE  H16R17329   4.831   3.931   4.877 -0.5022 -1.5996 -1.7836
  156SAPE  H16S17330   4.814   4.000   4.707 -0.9773  2.5371 -0.6378
  156SAPE  C21717331   4.754   4.135   4.863  0.1797  0.0019 -1.1429
  156SAPE  H17R17332   4.795   4.174   4.959 -0.2143 -0.0635 -0.9449
  156SAPE  H17S17333   4.649   4.105   4.885  0.8146 -2.1533 -0.9130
  156SAPE  C21817334   4.751   4.247   4.764 -0.0727 -0.6918  0.1186
  156SAPE  H18R17335   4.726   4.199   4.667 -0.4326 -0.1485 -0.0647
  156SAPE  H18S17336   4.851   4.294   4.752 -0.7590  0.5168 -1.2422
  156SAPE  C21917337   4.654   4.357   4.804  0.0054 -0.0412 -0.5367
  156SAPE  H19R17338   4.678   4.369   4.912 -2.8043 -2.0482  0.4293
  156SAPE  H19S17339   4.548   4.323   4.798 -0.0757  0.4475 -3.3770
  156SAPE  C22017340   4.672   4.488   4.727 -0.7577  0.0909 -0.1191
  156SAPE  H20R17341   4.633   4.570   4.790 -1.6226  1.0830 -1.8613
  156SAPE  H20S17342   4.615   4.484   4.631 -1.2882 -1.6756  0.2319
  156SAPE  H20T17343   4.781   4.500   4.709  0.2317 -1.5025  3.8627
  156SAPE   C3317344   4.393   4.493   5.893  0.4507  0.1876  0.1007
  156SAPE   H3X17345   4.341   4.395   5.891  1.3357 -0.2832 -0.3493
  156SAPE   H3Y17346   4.498   4.462   5.910 -0.4234 -1.7881  2.6402
  156SAPE   C3417347   4.378   4.562   5.759  0.1953  0.6098  0.2200
  156SAPE   H4X17348   4.424   4.503   5.677  0.7817  0.3235  0.7417
  156SAPE   H4Y17349   4.444   4.651   5.759 -0.0017  0.7996 -1.9785
  156SAPE   C3517350   4.235   4.594   5.710 -0.0404  0.1892 -0.5545
  156SAPE   H5X17351   4.187   4.666   5.780  0.0003  0.9308 -1.2727
  156SAPE   H5Y17352   4.176   4.501   5.695 -0.1867 -0.1390  1.7324
  156SAPE   C3617353   4.232   4.668   5.578 -0.0804 -1.0244 -0.4561
  156SAPE   H6X17354   4.296   4.758   5.591 -0.5187 -0.2852 -2.8826
  156SAPE   H6Y17355   4.132   4.708   5.551  0.1873  0.0783  0.1278
  156SAPE   C3717356   4.295   4.601   5.453 -0.2963 -0.1745 -0.0875
  156SAPE   H7X17357   4.253   4.499   5.440  0.9739 -0.8375  0.7937
  156SAPE   H7Y17358   4.406   4.598   5.455 -0.2487  1.1486  1.8740
  156SAPE   C3817359   4.272   4.693   5.329 -0.5015 -0.6842 -0.1746
  156SAPE   H8X17360   4.323   4.784   5.369 -0.0630 -1.1856  0.4194
  156SAPE   H8Y17361   4.162   4.708   5.319 -0.0857  3.4215 -0.3283
  156SAPE   C3917362   4.342   4.655   5.197  0.5386 -0.5095 -0.2326
  156SAPE   H9X17363   4.326   4.546   5.185 -0.3633 -0.4236  0.1347
  156SAPE   H9Y17364   4.452   4.665   5.208  0.3571 -0.8185  2.5789
  156SAPE  C31017365   4.296   4.735   5.075 -1.0613  0.8935  0.3392
  156SAPE  H10X17366   4.305   4.845   5.092 -1.5385  0.9100  0.4998
  156SAPE  H10Y17367   4.191   4.709   5.047 -0.2908 -0.7881 -1.1945
  156SAPE  C31117368   4.396   4.711   4.953  0.4370 -0.8498 -0.1404
  156SAPE  H11X17369   4.433   4.608   4.969 -1.6962 -1.8295 -1.0417
  156SAPE  H11Y17370   4.477   4.786   4.958 -1.7226  1.7878 -1.6249
  156SAPE  C31217371   4.345   4.722   4.807  0.7854  0.0017 -0.2138
  156SAPE  H12X17372   4.432   4.724   4.737  1.9675 -0.8469  1.1852
  156SAPE  H12Y17373   4.290   4.818   4.795 -1.0318 -1.0544 -0.6862
  156SAPE  C31317374   4.262   4.603   4.776  0.1681  0.8118  0.3491
  156SAPE  H13X17375   4.194   4.580   4.860 -0.5898 -0.7227 -0.6280
  156SAPE  H13Y17376   4.334   4.520   4.757 -0.2835  0.1974  1.2869
  156SAPE  C31417377   4.172   4.628   4.661  0.2495  0.4545  0.1748
  156SAPE  H14X17378   4.133   4.731   4.649 -2.1169 -0.4362 -0.2605
  156SAPE  H14Y17379   4.078   4.572   4.676  0.3076  0.5638  0.9592
  156SAPE  C31517380   4.227   4.585   4.523 -0.0609 -0.1271  0.0895
  156SAPE  H15X17381   4.153   4.607   4.444  0.7326  1.6374 -0.2120
  156SAPE  H15Y17382   4.261   4.480   4.533  0.2896  0.1364  2.1038
  156SAPE  C31617383   4.350   4.652   4.482 -0.5222  0.9185 -0.0169
  156SAPE  H16X17384   4.421   4.634   4.566 -0.2093  0.2260 -0.4271
  156SAPE  H16Y17385   4.338   4.762   4.473 -2.1683  0.7478 -0.1892
  156SAPE  C31717386   4.409   4.588   4.354 -0.2020 -0.2370 -0.3121
  156SAPE  H17X17387   4.328   4.591   4.278  0.6720 -0.1117 -1.2582
  156SAPE  H17Y17388   4.429   4.480   4.375 -1.0290 -0.1328  1.1566
  156SAPE  C31817389   4.532   4.665   4.290 -0.0689 -0.0847 -0.0026
  156SAPE  H18X17390   4.548   4.627   4.187  0.9716 -1.5491  0.6525
  156SAPE  H18Y17391   4.617   4.641   4.358  0.6398  0.8114 -0.5435
  156SAPE  H18Z17392   4.523   4.775   4.297  0.9754  0.0054  0.1181
  157SAPE     N17393   4.356   1.939   6.617  0.0479 -0.7185  0.0412
  157SAPE   HN117394   4.366   2.010   6.692 -0.8668 -0.1075 -0.3971
  157SAPE   HN217395   4.348   1.992   6.528  1.2383 -0.7985 -0.1273
  157SAPE   HN317396   4.264   1.895   6.637 -0.1423 -1.8327 -2.8619
  157SAPE   C1217397   4.462   1.833   6.623  0.3525 -0.4716  0.0250
  157SAPE  H12A17398   4.450   1.765   6.535 -0.3431  0.5168 -0.6600
  157SAPE  H12B17399   4.453   1.779   6.719  0.7479 -0.1258  0.2587
  157SAPE   C1117400   4.596   1.901   6.624 -0.7282 -0.1964  0.7795
  157SAPE  H11A17401   4.678   1.826   6.632 -0.0937  0.2908 -0.8818
  157SAPE  H11B17402   4.611   1.961   6.716  1.9460  0.9357 -0.2968
  157SAPE     P17403   4.689   2.110   6.506 -0.1481 -0.4128  0.2180
  157SAPE   O1317404   4.641   2.201   6.613 -0.3115  0.3745  0.5292
  157SAPE   O1417405   4.840   2.085   6.505  0.0997  0.2117  0.5489
  157SAPE   O1217406   4.606   1.976   6.502  0.6811  0.5191 -0.7571
  157SAPE   O1117407   4.653   2.185   6.376 -0.1222  0.2905  0.0987
  157SAPE    C117408   4.638   2.111   6.249  1.0897  0.1827  0.0585
  157SAPE    HA17409   4.667   2.180   6.166 -0.5524 -1.1520 -1.7089
  157SAPE    HB17410   4.712   2.030   6.237  0.5077 -0.0795 -2.3139
  157SAPE    C217411   4.489   2.077   6.215 -0.4149 -0.4722  0.1620
  157SAPE    HS17412   4.457   1.980   6.259  0.5110 -1.9282 -2.1912
  157SAPE   O2117413   4.466   2.068   6.075  0.6790 -0.2386  0.5658
  157SAPE   C2117414   4.509   1.961   6.012 -0.4319 -0.7908  0.2082
  157SAPE   O2217415   4.546   1.855   6.062  0.4416 -0.1278 -0.4019
  157SAPE   C2217416   4.520   1.991   5.862 -0.1520  0.1984 -0.3184
  157SAPE   H2R17417   4.423   2.037   5.836  0.5294  1.2713 -1.0008
  157SAPE   H2S17418   4.590   2.070   5.830  2.2383 -2.2761 -1.5818
  157SAPE    C317419   4.399   2.197   6.267 -0.6954 -0.2599  0.1694
  157SAPE    HX17420   4.436   2.287   6.214  1.9252 -1.6509 -0.5615
  157SAPE    HY17421   4.413   2.214   6.376 -0.1819  0.9392 -0.0672
  157SAPE   O3117422   4.259   2.189   6.232  0.1949 -0.5970 -0.8748
  157SAPE   C3117423   4.187   2.130   6.325  0.5082  0.2307  0.3849
  157SAPE   O3217424   4.223   2.085   6.426 -0.6639  0.2090 -0.2714
  157SAPE   C3217425   4.046   2.137   6.274  0.7804  0.6985  0.5222
  157SAPE   H2X17426   4.027   2.217   6.199  0.7826  0.3429  0.1413
  157SAPE   H2Y17427   3.964   2.143   6.349  1.8919  0.1768  1.7998
  157SAPE   C2317428   4.546   1.859   5.785 -0.7347  0.3457 -0.0412
  157SAPE   H3R17429   4.463   1.787   5.802 -0.3534 -0.0468  0.1883
  157SAPE   H3S17430   4.635   1.818   5.838 -1.8762  0.5843  2.1633
  157SAPE   C2417431   4.567   1.902   5.639 -0.7063  0.0502 -0.3846
  157SAPE   H4R17432   4.607   1.819   5.577  1.4508  1.1761 -0.5956
  157SAPE   H4S17433   4.646   1.978   5.622 -1.5954  0.3996 -3.5653
  157SAPE   C2517434   4.443   1.959   5.576  0.8672  0.2648 -0.2279
  157SAPE   H5R17435   4.355   1.915   5.625  0.7795 -1.2681 -1.6575
  157SAPE   C2617436   4.433   2.065   5.490 -0.8109  0.2211 -0.1505
  157SAPE   H6R17437   4.336   2.098   5.450  0.0873  1.7108 -1.2204
  157SAPE   C2717438   4.547   2.140   5.421 -0.0233  0.2799 -0.1949
  157SAPE   H7R17439   4.635   2.141   5.489 -1.2057 -0.6581  1.4251
  157SAPE   H7S17440   4.518   2.246   5.407 -0.2531  0.3262  0.5726
  157SAPE   C2817441   4.570   2.082   5.282  0.0302  0.1261 -0.4934
  157SAPE   H8R17442   4.666   2.029   5.267  0.6867  1.3200 -0.6853
  157SAPE   C2917443   4.497   2.120   5.173  0.2824  0.6633  0.0520
  157SAPE   H9R17444   4.526   2.072   5.078 -0.4729  1.2933 -0.5021
  157SAPE  C21017445   4.376   2.206   5.158 -0.6722 -0.5298 -0.0145
  157SAPE  H10R17446   4.409   2.276   5.078  2.5279  0.7448  2.1972
  157SAPE  H10S17447   4.363   2.271   5.247  1.8620  1.4585 -0.9701
  157SAPE  C21117448   4.255   2.121   5.135  0.1907 -0.6376  0.0254
  157SAPE  H11R17449   4.258   2.028   5.193  0.5088 -1.7298 -1.6627
  157SAPE  C21217450   4.159   2.145   5.038 -0.1596  0.2115 -0.1427
  157SAPE  H12R17451   4.075   2.074   5.042 -0.8060  0.9569 -0.1244
  157SAPE  C21317452   4.151   2.260   4.936 -0.3155 -0.0954  0.1454
  157SAPE  H13R17453   4.252   2.283   4.896 -0.2558  1.3327  1.0875
  157SAPE  H13S17454   4.117   2.350   4.991 -0.5897 -0.7178  1.0166
  157SAPE  C21417455   4.053   2.233   4.818 -0.1926  0.0447 -0.5647
  157SAPE  H14R17456   3.966   2.299   4.824 -0.3884 -0.1668 -1.0020
  157SAPE  C21517457   4.063   2.151   4.714  0.2138  0.3196  0.2535
  157SAPE  H15R17458   3.993   2.161   4.629  1.6604  3.0113 -0.7408
  157SAPE  C21617459   4.172   2.048   4.694  0.3904 -0.4151 -0.1673
  157SAPE  H16R17460   4.141   1.942   4.690  0.9063 -0.6811  1.5999
  157SAPE  H16S17461   4.241   2.051   4.782  0.7308  2.3414 -0.4394
  157SAPE  C21717462   4.274   2.087   4.585  0.0247 -0.3458  0.2405
  157SAPE  H17R17463   4.371   2.034   4.595 -1.0950 -2.1134  2.6082
  157SAPE  H17S17464   4.296   2.196   4.586  0.5406 -0.4500  0.5220
  157SAPE  C21817465   4.231   2.065   4.442  0.0983  0.1355 -0.2267
  157SAPE  H18R17466   4.141   2.129   4.427  1.3723  1.9206 -0.4535
  157SAPE  H18S17467   4.195   1.960   4.437  2.7306 -0.9539  1.5529
  157SAPE  C21917468   4.328   2.089   4.331 -0.6029  0.8142  0.3045
  157SAPE  H19R17469   4.427   2.046   4.359 -1.4338 -0.1520  1.9405
  157SAPE  H19S17470   4.340   2.199   4.325  1.4328  0.5491 -1.7931
  157SAPE  C22017471   4.283   2.039   4.194  0.0963  0.2159  0.8012
  157SAPE  H20R17472   4.342   2.090   4.115 -1.8778  1.4522  0.0546
  157SAPE  H20S17473   4.180   2.071   4.167 -0.5027 -2.2995 -0.1858
  157SAPE  H20T17474   4.295   1.929   4.185 -0.5747 -0.0222  2.3597
  157SAPE   C3317475   4.015   2.005   6.205  0.6538  0.0777  0.9358
  157SAPE   H3X17476   3.906   1.996   6.185  0.6069  0.3419  1.0720
  157SAPE   H3Y17477   4.042   1.916   6.265 -0.9642 -2.0157 -1.2228
  157SAPE   C3417478   4.091   1.984   6.068  0.3274 -0.1084  0.3420
  157SAPE   H4X17479   4.199   2.005   6.081  0.6299 -2.1410  1.5429
  157SAPE   H4Y17480   4.054   2.059   5.995  1.1754 -0.0249 -0.0105
  157SAPE   C3517481   4.081   1.836   6.018 -0.1204 -0.0222 -0.3447
  157SAPE   H5X17482   3.983   1.798   6.053 -0.8448  1.6014 -0.5549
  157SAPE   H5Y17483   4.158   1.788   6.082 -1.7296 -2.1315  0.1044
  157SAPE   C3617484   4.082   1.830   5.864 -0.4802 -0.2388 -0.2884
  157SAPE   H6X17485   4.092   1.722   5.842 -0.3644  0.2785 -3.1832
  157SAPE   H6Y17486   4.168   1.887   5.824 -0.4457 -1.1188 -1.5076
  157SAPE   C3717487   3.949   1.888   5.794  0.2061  0.2800 -0.2016
  157SAPE   H7X17488   3.951   1.990   5.837  3.2771  0.3686 -0.2703
  157SAPE   H7Y17489   3.857   1.831   5.816 -1.9361  2.6976 -2.2536
  157SAPE   C3817490   3.978   1.896   5.641 -0.4262 -0.3367  0.3722
  157SAPE   H8X17491   3.990   1.792   5.604 -0.7534 -0.1257 -0.3496
  157SAPE   H8Y17492   4.068   1.957   5.617  0.5852 -1.6776  0.6704
  157SAPE   C3917493   3.854   1.958   5.578  0.0212  0.2283 -0.2606
  157SAPE   H9X17494   3.832   2.063   5.605  0.9004  0.1967  0.6631
  157SAPE   H9Y17495   3.771   1.892   5.611  1.8403 -2.3397 -0.4739
  157SAPE  C31017496   3.843   1.954   5.425 -0.2712  0.1093 -0.3324
  157SAPE  H10X17497   3.863   1.854   5.381  0.2849 -1.2129  2.7101
  157SAPE  H10Y17498   3.905   2.029   5.371  1.3327 -0.6302  0.4100
  157SAPE  C31117499   3.700   1.980   5.397  0.4808 -0.1477 -0.0901
  157SAPE  H11X17500   3.674   2.072   5.454  1.4280  0.0044  0.1105
  157SAPE  H11Y17501   3.640   1.895   5.436 -0.7161  0.6344 -0.1603
  157SAPE  C31217502   3.679   2.001   5.246 -0.5666 -0.0209  0.1666
  157SAPE  H12X17503   3.678   1.904   5.193  0.4451  0.7150 -1.2694
  157SAPE  H12Y17504   3.761   2.066   5.207 -1.5826  0.4441 -1.3099
  157SAPE  C31317505   3.537   2.057   5.234  0.3231  0.1948  0.1745
  157SAPE  H13X17506   3.521   2.147   5.297 -2.8965 -0.5118  0.5700
  157SAPE  H13Y17507   3.474   1.979   5.281  0.3122  0.6621  0.9513
  157SAPE  C31417508   3.497   2.051   5.092  1.0379  0.3033 -0.2956
  157SAPE  H14X17509   3.502   1.948   5.049 -0.3696  0.3686 -0.6727
  157SAPE  H14Y17510   3.543   2.123   5.022  1.4843  0.1912 -0.1214
  157SAPE  C31517511   3.340   2.056   5.078 -0.4489 -0.5601  0.5589
  157SAPE  H15X17512   3.319   2.148   5.137  0.0506 -0.0023 -0.1143
  157SAPE  H15Y17513   3.301   1.964   5.127  1.1068 -2.0149 -0.7970
  157SAPE  C31617514   3.287   2.062   4.937 -0.3280  0.1369 -0.0231
  157SAPE  H16X17515   3.310   1.976   4.871  0.0298 -0.6453  1.0772
  157SAPE  H16Y17516   3.338   2.139   4.876 -1.0691 -0.1085 -0.9790
  157SAPE  C31717517   3.137   2.090   4.932  0.4052 -0.5407 -0.1548
  157SAPE  H17X17518   3.122   2.195   4.965  1.3386 -0.0073 -1.3669
  157SAPE  H17Y17519   3.080   2.024   5.001  2.2660  1.4873  3.6159
  157SAPE  C31817520   3.076   2.088   4.791 -0.0959  1.0513  0.2293
  157SAPE  H18X17521   2.967   2.107   4.793 -0.3536 -0.3013  1.6633
  157SAPE  H18Y17522   3.101   1.989   4.747  1.4135  2.0735 -1.3213
  157SAPE  H18Z17523   3.117   2.165   4.722  0.0672  0.0106 -0.8679
  158SAPE     N17524   6.594   2.852   6.669  0.0050 -0.7355  0.3785
  158SAPE   HN117525   6.541   2.892   6.588  1.1094 -1.4475 -0.7293
  158SAPE   HN217526   6.594   2.749   6.658  2.2221 -0.5955 -1.7602
  158SAPE   HN317527   6.532   2.869   6.750 -2.3393 -1.6501 -1.1002
  158SAPE   C1217528   6.742   2.891   6.690  0.7449 -0.0762 -0.1970
  158SAPE  H12A17529   6.796   2.838   6.610 -0.7032 -2.0056  0.0311
  158SAPE  H12B17530   6.768   2.843   6.787 -0.4315  1.5796  1.0060
  158SAPE   C1117531   6.755   3.041   6.685 -1.4522 -0.1503 -0.0587
  158SAPE  H11A17532   6.688   3.086   6.762  0.6943 -1.3939  2.6956
  158SAPE  H11B17533   6.731   3.078   6.583 -0.4902  1.5440  0.3022
  158SAPE     P17534   6.935   3.220   6.728 -0.3633  0.0855 -0.1085
  158SAPE   O1317535   6.832   3.288   6.812  0.0876 -0.0768  0.0748
  158SAPE   O1417536   7.076   3.221   6.780  0.0715  0.3403 -0.6174
  158SAPE   O1217537   6.893   3.068   6.706 -0.3273 -0.0544 -0.5223
  158SAPE   O1117538   6.926   3.271   6.579 -0.2346 -0.2712 -0.0904
  158SAPE    C117539   6.850   3.389   6.551  0.5200  0.5155  0.2675
  158SAPE    HA17540   6.745   3.356   6.535  1.0098 -1.7702  1.3352
  158SAPE    HB17541   6.844   3.461   6.635  1.0218  0.6786  0.1712
  158SAPE    C217542   6.901   3.458   6.423 -0.7253  0.2859 -1.2348
  158SAPE    HS17543   6.816   3.517   6.384  0.3060  3.0644  0.4105
  158SAPE   O2117544   6.943   3.370   6.316  0.0061 -0.3125 -0.0633
  158SAPE   C2117545   6.852   3.303   6.253 -0.2009  0.0819 -0.0047
  158SAPE   O2217546   6.732   3.300   6.274 -0.1554 -0.2102 -0.0768
  158SAPE   C2217547   6.918   3.234   6.135  0.1771 -0.2582 -0.0249
  158SAPE   H2R17548   7.025   3.220   6.164  0.5219  0.7367 -0.7709
  158SAPE   H2S17549   6.870   3.135   6.122 -1.9551  0.8046 -0.6115
  158SAPE    C317550   7.017   3.564   6.459  0.2409  0.2986 -0.6977
  158SAPE    HX17551   7.100   3.498   6.494  0.9569  1.7155  0.3768
  158SAPE    HY17552   6.980   3.625   6.544 -2.8485 -1.9903 -0.2338
  158SAPE   O3117553   7.064   3.642   6.346  0.3704  0.6067  0.0054
  158SAPE   C3117554   6.986   3.752   6.321 -0.0560  0.5280 -0.0411
  158SAPE   O3217555   6.887   3.776   6.383  0.5754  0.0490 -0.5937
  158SAPE   C3217556   7.046   3.825   6.204  0.0785 -0.0603 -0.6173
  158SAPE   H2X17557   7.054   3.745   6.127 -1.9339 -0.6005 -0.3397
  158SAPE   H2Y17558   7.148   3.852   6.239 -0.0802 -0.6946  0.4042
  158SAPE   C2317559   6.900   3.323   6.010  0.2923 -0.0303 -0.4626
  158SAPE   H3R17560   6.915   3.429   6.038 -1.8666 -0.0387  0.9663
  158SAPE   H3S17561   6.799   3.294   5.973  0.5892  1.0271 -2.1671
  158SAPE   C2417562   6.995   3.278   5.890 -0.2915 -0.6945  0.0844
  158SAPE   H4R17563   6.976   3.358   5.815  1.1989  1.2351  1.6320
  158SAPE   H4S17564   6.974   3.176   5.853  0.4622 -0.4747 -0.9711
  158SAPE   C2517565   7.142   3.302   5.917 -0.1904  0.5425 -0.1494
  158SAPE   H5R17566   7.157   3.357   6.011 -0.2918  1.8677 -0.8780
  158SAPE   C2617567   7.250   3.278   5.833  0.4092 -0.1698 -0.3371
  158SAPE   H6R17568   7.353   3.294   5.870  0.1636 -0.4820  0.5018
  158SAPE   C2717569   7.232   3.231   5.691 -0.5858 -0.1391 -0.0709
  158SAPE   H7R17570   7.125   3.235   5.665 -0.2639  1.5577 -1.3162
  158SAPE   H7S17571   7.264   3.126   5.681  0.0807  0.1069 -0.5876
  158SAPE   C2817572   7.319   3.324   5.607 -0.4476  0.8066  0.5801
  158SAPE   H8R17573   7.418   3.345   5.651  0.0384  1.4760 -0.7850
  158SAPE   C2917574   7.285   3.393   5.496 -0.0670 -0.8399  0.4452
  158SAPE   H9R17575   7.362   3.456   5.448  0.5613 -2.2875 -0.5228
  158SAPE  C21017576   7.154   3.388   5.423 -0.0357  0.5912  0.3809
  158SAPE  H10R17577   7.137   3.490   5.381 -2.2494 -0.0143 -0.3382
  158SAPE  H10S17578   7.069   3.385   5.494  0.0272 -2.2149  0.4233
  158SAPE  C21117579   7.146   3.282   5.312  0.8913  0.0320  0.0455
  158SAPE  H11R17580   7.094   3.189   5.339 -2.7341  2.4080  2.1187
  158SAPE  C21217581   7.181   3.301   5.186 -0.1298  0.7054  0.0106
  158SAPE  H12R17582   7.164   3.221   5.113  2.6016  0.1254 -0.1020
  158SAPE  C21317583   7.250   3.428   5.143 -0.0487  0.2011 -0.3940
  158SAPE  H13R17584   7.324   3.408   5.063  0.2541 -0.9788  0.1540
  158SAPE  H13S17585   7.315   3.465   5.225 -0.3870  1.0454 -0.5057
  158SAPE  C21417586   7.157   3.534   5.089  0.1565  0.0153 -0.0026
  158SAPE  H14R17587   7.110   3.597   5.166  0.8148  2.2031 -1.2887
  158SAPE  C21517588   7.131   3.572   4.961  0.0850  0.2567  0.2010
  158SAPE  H15R17589   7.065   3.657   4.938 -0.9302 -0.1814  1.3680
  158SAPE  C21617590   7.190   3.521   4.835 -0.4429 -0.5324  0.5554
  158SAPE  H16R17591   7.279   3.455   4.844  1.5426  1.7654 -0.8969
  158SAPE  H16S17592   7.227   3.601   4.767 -0.7325  1.1497  2.3107
  158SAPE  C21717593   7.082   3.453   4.741 -0.7188  0.5608  0.5269
  158SAPE  H17R17594   7.037   3.371   4.802  1.6570 -0.3909  1.0889
  158SAPE  H17S17595   7.136   3.412   4.653  0.1684 -1.0447  1.7724
  158SAPE  C21817596   6.980   3.549   4.687  0.7224 -0.1382  0.2075
  158SAPE  H18R17597   7.040   3.622   4.627 -0.6304  0.9901  0.1768
  158SAPE  H18S17598   6.922   3.607   4.762 -2.4222 -2.6295 -0.1194
  158SAPE  C21917599   6.883   3.478   4.590 -0.6627 -0.5053  0.4072
  158SAPE  H19R17600   6.795   3.430   4.639 -1.3042 -1.7986 -1.8819
  158SAPE  H19S17601   6.929   3.384   4.553 -1.8376 -0.3521 -1.5257
  158SAPE  C22017602   6.831   3.564   4.478  0.0909 -0.2792  0.8868
  158SAPE  H20R17603   6.754   3.519   4.412  0.2831 -1.4034  1.4194
  158SAPE  H20S17604   6.912   3.594   4.408  2.0169  0.6986  3.3844
  158SAPE  H20T17605   6.790   3.660   4.516 -0.6884 -0.2715  0.0710
  158SAPE   C3317606   6.978   3.942   6.130 -0.5827 -0.7439  0.5441
  158SAPE   H3X17607   6.960   4.025   6.201 -0.0200  0.1548 -0.3367
  158SAPE   H3Y17608   6.881   3.905   6.091 -0.0015  0.3846 -2.2006
  158SAPE   C3417609   7.064   3.985   6.006  0.1638 -0.4404  0.8960
  158SAPE   H4X17610   7.105   3.895   5.956  0.7433  0.4516 -0.2982
  158SAPE   H4Y17611   7.139   4.056   6.049 -0.8028 -0.3665  2.5365
  158SAPE   C3517612   6.977   4.053   5.899 -0.3465  0.0841 -0.5889
  158SAPE   H5X17613   6.960   4.161   5.915 -0.8400 -0.0882  0.1340
  158SAPE   H5Y17614   6.877   4.006   5.888  0.6078 -1.6316 -2.7581
  158SAPE   C3617615   7.043   4.041   5.762 -0.1332 -0.1789  0.6561
  158SAPE   H6X17616   7.030   3.940   5.719  1.0929  1.0114 -2.9008
  158SAPE   H6Y17617   7.154   4.055   5.767  0.0504 -0.4333 -1.5893
  158SAPE   C3717618   6.987   4.147   5.661 -0.0523  0.4314 -0.5452
  158SAPE   H7X17619   7.001   4.241   5.718  1.8987 -0.5151  0.6227
  158SAPE   H7Y17620   6.876   4.151   5.653 -0.1287  0.3194  0.4296
  158SAPE   C3817621   7.062   4.145   5.527 -0.7665 -0.4475  0.1049
  158SAPE   H8X17622   7.070   4.040   5.494 -2.6069 -0.5794 -0.0296
  158SAPE   H8Y17623   7.165   4.188   5.533 -1.2388  0.6988  0.3487
  158SAPE   C3917624   6.992   4.223   5.412  0.7306  0.9795 -0.1113
  158SAPE   H9X17625   6.971   4.323   5.455 -0.0336  1.0394 -0.6132
  158SAPE   H9Y17626   6.892   4.179   5.392  0.2050  0.5894  2.9429
  158SAPE  C31017627   7.077   4.241   5.293 -0.2847 -0.1392 -0.1597
  158SAPE  H10X17628   7.102   4.153   5.230 -0.4279 -0.7097  0.5677
  158SAPE  H10Y17629   7.174   4.275   5.335 -1.2001  2.7508 -0.2050
  158SAPE  C31117630   7.022   4.350   5.192  0.4353  0.4662  0.0896
  158SAPE  H11X17631   7.021   4.441   5.256  0.1149  1.0893 -0.7765
  158SAPE  H11Y17632   6.917   4.331   5.161  0.4628  0.1004  0.2245
  158SAPE  C31217633   7.109   4.371   5.072 -0.4181 -0.3861 -0.0361
  158SAPE  H12X17634   7.184   4.291   5.053 -0.3974 -0.3102 -0.2823
  158SAPE  H12Y17635   7.184   4.450   5.091  0.5293 -1.3941  0.5589
  158SAPE  C31317636   7.024   4.396   4.947  0.0498  0.0129  0.8666
  158SAPE  H13X17637   7.028   4.506   4.931  0.9619 -0.1436 -0.0982
  158SAPE  H13Y17638   6.922   4.352   4.956  0.5954 -1.8044 -1.0006
  158SAPE  C31417639   7.092   4.336   4.818 -0.5293 -0.1338 -0.1651
  158SAPE  H14X17640   7.116   4.230   4.837 -0.9707 -0.2257 -0.1236
  158SAPE  H14Y17641   7.184   4.397   4.799 -0.5565 -0.0396  0.0004
  158SAPE  C31517642   7.007   4.335   4.693 -0.0766  0.0710  0.5118
  158SAPE  H15X17643   6.960   4.436   4.693  3.0152  1.6665  0.5887
  158SAPE  H15Y17644   6.927   4.259   4.697 -1.6384  1.5646 -0.8462
  158SAPE  C31617645   7.085   4.334   4.557 -0.2750 -0.1731 -0.2610
  158SAPE  H16X17646   7.010   4.319   4.477 -0.7675  1.8669 -0.2373
  158SAPE  H16Y17647   7.162   4.254   4.562 -1.0349 -0.8725  2.7605
  158SAPE  C31717648   7.142   4.475   4.515  0.8345 -0.1693 -0.4745
  158SAPE  H17X17649   7.229   4.511   4.576  0.4209  1.2032 -0.6631
  158SAPE  H17Y17650   7.063   4.553   4.518  1.3869  0.3962  1.5664
  158SAPE  C31817651   7.184   4.474   4.366  0.4082  0.2781 -0.9460
  158SAPE  H18X17652   7.225   4.571   4.330  1.7363 -0.0658 -0.4114
  158SAPE  H18Y17653   7.111   4.427   4.296  1.6199  0.7034 -2.5580
  158SAPE  H18Z17654   7.274   4.409   4.375  2.0400  2.3692 -1.4260
  159SAPE     N17655   2.760   4.712   1.722  0.0738 -0.1316  0.0067
  159SAPE   HN117656   2.856   4.674   1.733 -1.0546 -3.3410 -0.0867
  159SAPE   HN217657   2.719   4.653   1.646 -1.0776 -0.5782  0.9331
  159SAPE   HN317658   2.765   4.813   1.699 -0.0610  0.0792  0.8614
  159SAPE   C1217659   2.682   4.710   1.847 -0.1973  0.3635 -0.4669
  159SAPE  H12A17660   2.659   4.611   1.893 -0.4149  1.1241  1.1122
  159SAPE  H12B17661   2.582   4.756   1.833 -0.1429  0.0734 -2.0531
  159SAPE   C1117662   2.760   4.792   1.954 -0.7577 -0.1200 -0.3100
  159SAPE  H11A17663   2.847   4.731   1.987 -0.9317  0.1604  0.7363
  159SAPE  H11B17664   2.698   4.806   2.045  0.3942  0.3987  0.4245
  159SAPE     P17665   2.947   4.979   1.934  0.0709  0.3877 -0.2622
  159SAPE   O1317666   3.039   4.887   1.868 -0.7108  0.0890  0.0214
  159SAPE   O1417667   2.953   5.117   1.885  0.1757 -0.5866 -0.6100
  159SAPE   O1217668   2.800   4.923   1.905  0.3209 -0.2377  0.0082
  159SAPE   O1117669   2.969   4.963   2.089 -0.3054 -0.3028 -0.1657
  159SAPE    C117670   2.909   5.046   2.187  0.3313  0.3657 -0.2273
  159SAPE    HA17671   2.825   5.101   2.139  0.2083 -0.4935 -1.0512
  159SAPE    HB17672   2.868   4.980   2.266 -0.6864 -0.5806 -1.4911
  159SAPE    C217673   3.013   5.129   2.259  0.1456  0.1544 -0.0767
  159SAPE    HS17674   3.071   5.180   2.179 -1.1270  2.6590  0.4887
  159SAPE   O2117675   3.097   5.044   2.336  0.1949  0.5893  0.5343
  159SAPE   C2117676   3.221   5.085   2.357  0.0787 -0.2625 -0.8519
  159SAPE   O2217677   3.268   5.190   2.316  0.1861  0.3646 -0.3164
  159SAPE   C2217678   3.293   5.008   2.468  0.2118  0.1030  0.8379
  159SAPE   H2R17679   3.225   5.000   2.556  1.6928 -1.1360  1.9310
  159SAPE   H2S17680   3.326   4.908   2.433  1.0316  0.1002  1.5699
  159SAPE    C317681   2.958   5.231   2.360 -0.7277 -1.1087  0.0422
  159SAPE    HX17682   2.908   5.308   2.297  0.6355 -0.8370 -0.7620
  159SAPE    HY17683   3.043   5.285   2.407 -1.6055  0.5607 -0.2072
  159SAPE   O3117684   2.876   5.168   2.458  0.6082 -0.2617 -0.0017
  159SAPE   C3117685   2.745   5.174   2.438  0.0572 -0.2198 -0.6271
  159SAPE   O3217686   2.684   5.234   2.348 -0.5183  0.8451  0.0604
  159SAPE   C3217687   2.677   5.102   2.558 -1.4550 -0.2781  0.4454
  159SAPE   H2X17688   2.726   5.143   2.650 -1.2777  0.9328 -0.1778
  159SAPE   H2Y17689   2.692   4.993   2.543 -1.4117 -0.3220  0.7938
  159SAPE   C2317690   3.423   5.079   2.502 -0.2439 -0.6044 -0.4544
  159SAPE   H3R17691   3.392   5.177   2.544 -1.7873 -0.7964 -1.0618
  159SAPE   H3S17692   3.470   5.088   2.402 -1.6534  2.2289 -0.9696
  159SAPE   C2417693   3.509   4.991   2.602  0.7479 -0.0596 -0.4872
  159SAPE   H4R17694   3.560   4.908   2.550  0.4092 -0.3330 -0.3859
  159SAPE   H4S17695   3.434   4.950   2.673 -1.1383  0.3277 -2.1567
  159SAPE   C2517696   3.597   5.096   2.669 -0.3658 -0.0557  0.3623
  159SAPE   H5R17697   3.672   5.136   2.600 -1.8154  2.3346  0.0522
  159SAPE   C2617698   3.591   5.155   2.788  0.7110  0.3423  0.7758
  159SAPE   H6R17699   3.647   5.248   2.802  0.4303  0.2368  2.9281
  159SAPE   C2717700   3.494   5.123   2.897 -0.6458 -0.1183 -0.0890
  159SAPE   H7R17701   3.402   5.068   2.867 -1.2511  0.6416  0.3243
  159SAPE   H7S17702   3.451   5.220   2.930 -2.5739 -1.2185  0.8237
  159SAPE   C2817703   3.581   5.041   2.991  0.1755 -0.1723 -1.1619
  159SAPE   H8R17704   3.620   4.944   2.959  2.5464 -0.8917  3.1160
  159SAPE   C2917705   3.601   5.062   3.123 -0.9416 -0.1273  0.7028
  159SAPE   H9R17706   3.670   4.992   3.172 -1.3624 -2.5975 -1.9549
  159SAPE  C21017707   3.556   5.183   3.196 -0.2523 -0.3829 -0.1015
  159SAPE  H10R17708   3.459   5.218   3.156 -0.5808 -0.3178  0.7283
  159SAPE  H10S17709   3.627   5.267   3.178 -1.2256  0.0385 -2.2385
  159SAPE  C21117710   3.551   5.156   3.343 -0.2877  0.6903  0.4993
  159SAPE  H11R17711   3.623   5.082   3.380 -3.0245 -0.7754  3.2960
  159SAPE  C21217712   3.480   5.220   3.436 -0.0125 -0.1917 -0.0866
  159SAPE  H12R17713   3.489   5.193   3.542 -0.7609  1.7072  0.4972
  159SAPE  C21317714   3.375   5.329   3.429  0.3016 -0.0900 -0.7558
  159SAPE  H13R17715   3.334   5.327   3.326  0.8752 -3.5287 -1.0211
  159SAPE  H13S17716   3.415   5.431   3.452  0.9285 -0.7322  1.1590
  159SAPE  C21417717   3.266   5.321   3.540  0.0215 -0.7088  0.4358
  159SAPE  H14R17718   3.222   5.220   3.549 -1.6167 -0.1039 -0.5525
  159SAPE  C21517719   3.218   5.420   3.616  0.8090 -0.6933  0.1522
  159SAPE  H15R17720   3.141   5.410   3.693  0.6572 -0.1938  0.0669
  159SAPE  C21617721   3.244   5.569   3.607 -0.4003 -0.4128  0.3688
  159SAPE  H16R17722   3.317   5.595   3.528  1.1870 -1.2426  1.5059
  159SAPE  H16S17723   3.311   5.597   3.692  1.7927 -0.8751 -1.1175
  159SAPE  C21717724   3.118   5.663   3.606  0.1663 -0.0677 -0.0851
  159SAPE  H17R17725   3.075   5.670   3.708  1.4295 -1.2992  0.5710
  159SAPE  H17S17726   3.037   5.624   3.540  0.7659  1.9666 -2.1489
  159SAPE  C21817727   3.147   5.798   3.552 -0.1844  0.0012 -0.0839
  159SAPE  H18R17728   3.057   5.863   3.542 -0.2869 -0.1894 -0.4340
  159SAPE  H18S17729   3.187   5.795   3.448  0.6795  0.7075  0.2205
  159SAPE  C21917730   3.241   5.876   3.643 -0.2090 -0.0773  0.3899
  159SAPE  H19R17731   3.340   5.826   3.642 -0.2496 -0.1688  0.6969
  159SAPE  H19S17732   3.206   5.885   3.748  0.2416  0.3313  0.5104
  159SAPE  C22017733   3.244   6.013   3.594  0.0357  0.2039  0.0420
  159SAPE  H20R17734   3.143   6.057   3.604  0.0145  0.1213  0.1890
  159SAPE  H20S17735   3.269   6.015   3.485  1.6833 -1.3770  0.3402
  159SAPE  H20T17736   3.316   6.082   3.642  0.0598  0.2664 -0.0826
  159SAPE   C3317737   2.525   5.124   2.559 -0.1810 -0.2257 -0.7348
  159SAPE   H3X17738   2.483   5.046   2.627 -0.8460 -1.2386 -2.2474
  159SAPE   H3Y17739   2.486   5.104   2.457 -1.3738 -2.3222  0.0489
  159SAPE   C3417740   2.480   5.260   2.612 -0.2858  0.2073 -0.7319
  159SAPE   H4X17741   2.369   5.265   2.612 -0.2833  0.2494 -0.4347
  159SAPE   H4Y17742   2.505   5.335   2.533  1.2432  0.0824 -0.3937
  159SAPE   C3517743   2.539   5.323   2.742 -0.7554 -0.3376 -0.5864
  159SAPE   H5X17744   2.501   5.426   2.755 -1.8586 -0.7964 -0.0913
  159SAPE   H5Y17745   2.649   5.321   2.725 -0.4303  2.3190  0.7788
  159SAPE   C3617746   2.528   5.250   2.872 -1.1175 -0.1369  0.7101
  159SAPE   H6X17747   2.577   5.151   2.860  0.8390  1.0245 -1.7333
  159SAPE   H6Y17748   2.424   5.217   2.895 -0.1633 -1.8293  3.0526
  159SAPE   C3717749   2.582   5.328   2.999  0.2593  0.1679 -0.0603
  159SAPE   H7X17750   2.529   5.425   3.014  1.5553  0.6287  1.9631
  159SAPE   H7Y17751   2.686   5.358   2.977 -0.3295  0.6834 -2.4568
  159SAPE   C3817752   2.561   5.249   3.132 -0.3837 -0.9317  0.6937
  159SAPE   H8X17753   2.617   5.154   3.119  2.4364  0.6708  0.2560
  159SAPE   H8Y17754   2.454   5.233   3.154 -0.6723  2.6171  2.5609
  159SAPE   C3917755   2.625   5.318   3.247  0.5757 -0.0181 -0.0859
  159SAPE   H9X17756   2.604   5.426   3.236 -0.5736 -0.3858 -1.8137
  159SAPE   H9Y17757   2.734   5.304   3.234  0.3323 -0.6840 -1.5776
  159SAPE  C31017758   2.569   5.271   3.383  0.1757  0.2495  0.0958
  159SAPE  H10X17759   2.583   5.161   3.396 -2.8507 -0.4143 -1.4426
  159SAPE  H10Y17760   2.460   5.288   3.387  0.5204  2.5968  2.6997
  159SAPE  C31117761   2.633   5.334   3.506  0.2765 -0.2266  0.4227
  159SAPE  H11X17762   2.610   5.440   3.481 -0.3523 -0.8043 -1.6705
  159SAPE  H11Y17763   2.741   5.307   3.508  0.2707 -0.2828  0.0669
  159SAPE  C31217764   2.560   5.291   3.634  0.1799 -0.5486  0.5148
  159SAPE  H12X17765   2.540   5.182   3.634 -1.2298 -0.3203  1.9059
  159SAPE  H12Y17766   2.464   5.346   3.637  0.4960  0.0097  0.5352
  159SAPE  C31317767   2.647   5.329   3.758 -0.6431 -0.5374 -0.1790
  159SAPE  H13X17768   2.758   5.316   3.754 -0.3263  1.4141  0.7258
  159SAPE  H13Y17769   2.614   5.271   3.847  0.3401  0.7032  1.0604
  159SAPE  C31417770   2.628   5.482   3.798 -0.1327 -0.4611  0.0092
  159SAPE  H14X17771   2.521   5.513   3.805  0.5435  1.8001  1.9520
  159SAPE  H14Y17772   2.675   5.542   3.718  0.7001  2.3613  2.3983
  159SAPE  C31517773   2.701   5.530   3.929 -0.0362 -0.7729  0.4672
  159SAPE  H15X17774   2.671   5.457   4.006  1.6764 -2.4213 -0.3477
  159SAPE  H15Y17775   2.664   5.632   3.953  2.0358  0.2883 -0.6199
  159SAPE  C31617776   2.852   5.522   3.915  0.6605 -0.3319 -0.0776
  159SAPE  H16X17777   2.895   5.585   3.834  1.1285 -0.6026 -0.0459
  159SAPE  H16Y17778   2.870   5.414   3.896  0.4813 -0.5436  0.9139
  159SAPE  C31717779   2.920   5.557   4.052  0.3609 -0.0859 -0.0611
  159SAPE  H17X17780   2.850   5.499   4.115 -0.1037 -0.2290 -0.7006
  159SAPE  H17Y17781   2.913   5.665   4.074  1.2752  0.2082 -1.0776
  159SAPE  C31817782   3.070   5.512   4.052  0.4850 -0.3989 -0.4648
  159SAPE  H18X17783   3.106   5.531   4.155 -0.5469 -1.0223  0.0222
  159SAPE  H18Y17784   3.130   5.584   3.992 -0.0766 -0.0163 -0.5731
  159SAPE  H18Z17785   3.091   5.408   4.017  3.0160  0.4072 -1.5918
  160SAPE     N17786   2.523   3.870   2.345 -0.2402 -0.0174  0.2382
  160SAPE   HN117787   2.508   3.960   2.295  0.3198 -0.7385 -1.2978
  160SAPE   HN217788   2.589   3.811   2.290  1.1181  1.3458  0.3273
  160SAPE   HN317789   2.431   3.821   2.342 -0.7161  0.8723 -1.3656
  160SAPE   C1217790   2.579   3.888   2.484 -0.0450  0.6010  0.7499
  160SAPE  H12A17791   2.493   3.881   2.554  0.1310  1.4513  1.0621
  160SAPE  H12B17792   2.639   3.979   2.505  0.0298  0.9451 -0.8562
  160SAPE   C1117793   2.668   3.765   2.530  0.1979 -0.4850 -0.0798
  160SAPE  H11A17794   2.704   3.790   2.632 -3.3272 -1.0552  1.4285
  160SAPE  H11B17795   2.752   3.769   2.457  0.6970  1.8668  0.5432
  160SAPE     P17796   2.665   3.513   2.452  0.3356  0.3507 -0.4261
  160SAPE   O1317797   2.567   3.397   2.473 -0.1823 -0.5410  0.2849
  160SAPE   O1417798   2.710   3.548   2.319  0.1950  0.3262  0.6427
  160SAPE   O1217799   2.605   3.641   2.529 -0.4004 -0.0893  0.0567
  160SAPE   O1117800   2.795   3.473   2.536 -0.0086 -0.1958  0.1072
  160SAPE    C117801   2.805   3.480   2.675  0.0686  0.0671 -0.0938
  160SAPE    HA17802   2.891   3.543   2.707  0.0508  1.8154 -3.1372
  160SAPE    HB17803   2.715   3.523   2.724 -0.5304 -0.2737 -0.8701
  160SAPE    C217804   2.832   3.333   2.729 -0.2495 -0.4959  0.9393
  160SAPE    HS17805   2.911   3.288   2.665 -3.5590  0.2515 -4.2753
  160SAPE   O2117806   2.707   3.257   2.740 -0.2491  0.1894 -0.0741
  160SAPE   C2117807   2.703   3.169   2.642 -0.3259 -1.0793  0.6498
  160SAPE   O2217808   2.767   3.171   2.539  0.0982 -0.1204 -0.0974
  160SAPE   C2217809   2.587   3.074   2.672  0.0381 -0.1644 -0.0163
  160SAPE   H2R17810   2.575   3.084   2.782  0.8688  0.6336  0.0124
  160SAPE   H2S17811   2.493   3.109   2.624 -1.9024  0.3247  3.7433
  160SAPE    C317812   2.889   3.336   2.875 -0.5376  0.2786 -1.0871
  160SAPE    HX17813   2.921   3.232   2.900  3.5330  1.0060 -2.5578
  160SAPE    HY17814   2.807   3.373   2.940  0.0103  0.9718 -0.7740
  160SAPE   O3117815   3.004   3.422   2.887 -0.5051 -0.1104  0.4817
  160SAPE   C3117816   3.053   3.411   3.002  0.7527 -0.3610 -0.1178
  160SAPE   O3217817   3.027   3.325   3.089  0.1253  0.2785  0.4206
  160SAPE   C3217818   3.163   3.516   3.019 -0.2726  0.1455 -0.0739
  160SAPE   H2X17819   3.125   3.609   2.973  2.1473  0.5143 -1.4909
  160SAPE   H2Y17820   3.253   3.479   2.966  0.2924  0.4741  0.6428
  160SAPE   C2317821   2.621   2.929   2.636 -0.6732  0.3911 -0.3292
  160SAPE   H3R17822   2.681   2.933   2.542 -1.0927  1.8899 -0.5558
  160SAPE   H3S17823   2.526   2.875   2.617 -1.3113  2.3301 -3.4235
  160SAPE   C2417824   2.701   2.856   2.748  1.2184 -0.0481  0.1763
  160SAPE   H4R17825   2.790   2.918   2.767  0.7896  1.1767 -1.5355
  160SAPE   H4S17826   2.736   2.761   2.702  0.2249  0.0021 -0.7371
  160SAPE   C2517827   2.618   2.837   2.870 -0.6172 -0.4432  0.3942
  160SAPE   H5R17828   2.518   2.805   2.837 -1.5935  2.2162  0.5328
  160SAPE   C2617829   2.643   2.862   2.998  0.1693 -0.9660 -1.1757
  160SAPE   H6R17830   2.559   2.865   3.069  0.5175 -0.9174 -0.7587
  160SAPE   C2717831   2.761   2.933   3.049 -0.8041 -0.0192 -0.9588
  160SAPE   H7R17832   2.842   2.946   2.974 -0.5419 -2.3036 -1.1461
  160SAPE   H7S17833   2.819   2.864   3.114  0.2021 -1.0291 -2.8462
  160SAPE   C2817834   2.717   3.064   3.106  0.0760  0.0606 -0.5317
  160SAPE   H8R17835   2.725   3.149   3.036 -0.0078  1.3254  0.9405
  160SAPE   C2917836   2.691   3.099   3.233  0.4123  0.6569  0.1332
  160SAPE   H9R17837   2.657   3.202   3.254 -0.4538  0.5070 -0.4836
  160SAPE  C21017838   2.690   2.992   3.343  0.5936 -0.9545 -0.0275
  160SAPE  H10R17839   2.642   2.902   3.298 -3.5232  1.2974 -0.6361
  160SAPE  H10S17840   2.616   3.032   3.416 -0.7843  1.6032 -2.6102
  160SAPE  C21117841   2.814   2.956   3.420 -0.2554  0.0689  0.6493
  160SAPE  H11R17842   2.843   2.850   3.410 -0.2329 -0.0791  2.0933
  160SAPE  C21217843   2.901   3.029   3.496 -0.0394  0.5941  0.2002
  160SAPE  H12R17844   2.983   2.979   3.549  0.2200  1.0906  0.2708
  160SAPE  C21317845   2.892   3.168   3.540  0.2260 -0.8380  0.2886
  160SAPE  H13R17846   2.936   3.171   3.642 -2.4665  3.1395  1.5744
  160SAPE  H13S17847   2.785   3.195   3.550  0.2965  0.1353 -1.1308
  160SAPE  C21417848   2.944   3.271   3.452  0.2378  0.2129  0.1864
  160SAPE  H14R17849   2.941   3.256   3.344  0.6801 -1.0411  0.3324
  160SAPE  C21517850   2.997   3.387   3.504  0.1859 -0.6458  0.7891
  160SAPE  H15R17851   3.032   3.468   3.439  0.1861 -2.5254 -1.6978
  160SAPE  C21617852   3.010   3.429   3.652  0.8159 -0.4538  0.3223
  160SAPE  H16R17853   3.066   3.354   3.711  0.5679 -1.8741 -1.1809
  160SAPE  H16S17854   2.907   3.438   3.692  1.4025  0.9108  1.6640
  160SAPE  C21717855   3.077   3.568   3.656 -0.1877 -0.2784  0.2771
  160SAPE  H17R17856   3.000   3.631   3.608 -1.2970 -2.0401 -0.3222
  160SAPE  H17S17857   3.163   3.580   3.587 -1.7867  3.8912 -1.3278
  160SAPE  C21817858   3.107   3.611   3.801  0.6683  0.2854  0.0494
  160SAPE  H18R17859   3.168   3.704   3.798 -0.5954  1.1590  0.5441
  160SAPE  H18S17860   3.159   3.528   3.853  0.4289 -1.7074 -2.6633
  160SAPE  C21917861   2.977   3.628   3.883  0.1053  0.2611 -0.0997
  160SAPE  H19R17862   2.923   3.531   3.891  1.5225 -0.6093 -0.8218
  160SAPE  H19S17863   2.905   3.682   3.817 -1.3269 -3.0646 -1.4865
  160SAPE  C22017864   3.011   3.689   4.018 -0.2069  0.6991 -0.3891
  160SAPE  H20R17865   2.920   3.688   4.082  0.0782  0.5399  0.0169
  160SAPE  H20S17866   3.049   3.793   4.016 -1.6837  1.3549  2.1549
  160SAPE  H20T17867   3.088   3.626   4.068 -1.8862 -0.5241  0.7674
  160SAPE   C3317868   3.220   3.535   3.166  0.9150  0.8792  0.1904
  160SAPE   H3X17869   3.257   3.432   3.183  1.2852  1.1759  1.2433
  160SAPE   H3Y17870   3.141   3.565   3.238 -0.7296  0.0276 -1.1845
  160SAPE   C3417871   3.339   3.627   3.158 -0.9402  0.0189 -0.7260
  160SAPE   H4X17872   3.313   3.731   3.130 -1.3405 -0.7340 -3.4244
  160SAPE   H4Y17873   3.406   3.596   3.074  0.8624  2.6129 -0.3608
  160SAPE   C3517874   3.428   3.625   3.283 -0.5613  0.1373 -0.3478
  160SAPE   H5X17875   3.389   3.684   3.369 -0.0820 -1.0331  0.6948
  160SAPE   H5Y17876   3.526   3.674   3.265 -0.5123 -0.0740 -0.6748
  160SAPE   C3617877   3.474   3.484   3.332 -0.5741 -0.3903 -0.1213
  160SAPE   H6X17878   3.553   3.447   3.263  0.5854  0.8255  0.5005
  160SAPE   H6Y17879   3.389   3.413   3.336  0.2853 -1.4578 -0.2831
  160SAPE   C3717880   3.544   3.495   3.465 -0.0241 -0.1127 -0.4239
  160SAPE   H7X17881   3.584   3.599   3.471 -1.1885  0.3579 -0.7020
  160SAPE   H7Y17882   3.627   3.422   3.478  0.6265  0.8653  1.3239
  160SAPE   C3817883   3.455   3.482   3.589 -0.3389 -0.2322  0.1954
  160SAPE   H8X17884   3.393   3.391   3.581 -1.2955  0.3476  0.7248
  160SAPE   H8Y17885   3.380   3.564   3.592 -1.1157 -0.8259  4.7911
  160SAPE   C3917886   3.543   3.474   3.714  0.5414  0.0777 -0.1368
  160SAPE   H9X17887   3.597   3.568   3.740  2.5451 -0.5869 -1.6819
  160SAPE   H9Y17888   3.628   3.406   3.692  0.6947  0.8997 -2.3934
  160SAPE  C31017889   3.469   3.441   3.845  0.3258 -0.4263  0.7515
  160SAPE  H10X17890   3.400   3.354   3.831 -2.5508  1.5702  1.5624
  160SAPE  H10Y17891   3.394   3.520   3.866  0.9875  0.3096  0.3699
  160SAPE  C31117892   3.563   3.431   3.962  0.6739  0.4711 -0.1460
  160SAPE  H11X17893   3.512   3.459   4.057  0.6395 -0.3224  0.0754
  160SAPE  H11Y17894   3.639   3.511   3.956 -0.5567  1.6410 -0.4615
  160SAPE  C31217895   3.634   3.297   3.970 -0.0900 -0.2231 -0.2957
  160SAPE  H12X17896   3.695   3.282   3.879 -0.6370 -0.4823 -0.6226
  160SAPE  H12Y17897   3.550   3.226   3.982  1.1041 -1.5028  0.7210
  160SAPE  C31317898   3.717   3.291   4.104  0.3293 -0.4907  0.5431
  160SAPE  H13X17899   3.769   3.389   4.114  2.0510 -1.3658  0.5281
  160SAPE  H13Y17900   3.790   3.209   4.086 -0.0961 -0.6836 -0.4293
  160SAPE  C31417901   3.638   3.274   4.231 -0.8043 -1.1549  0.7565
  160SAPE  H14X17902   3.576   3.181   4.227 -3.4284  0.4404  1.5456
  160SAPE  H14Y17903   3.567   3.356   4.256 -0.6445 -0.7186 -0.1870
  160SAPE  C31517904   3.716   3.264   4.362 -0.2125 -0.0125  0.5071
  160SAPE  H15X17905   3.651   3.298   4.445 -0.0594  0.2711  0.5123
  160SAPE  H15Y17906   3.805   3.329   4.350 -1.6513  2.1215  0.8780
  160SAPE  C31617907   3.771   3.119   4.385  0.0976  0.1255 -0.1951
  160SAPE  H16X17908   3.842   3.084   4.306 -0.9979 -3.5546  0.2522
  160SAPE  H16Y17909   3.691   3.044   4.375  0.5382 -0.1613 -1.8483
  160SAPE  C31717910   3.854   3.115   4.507  0.0569 -0.0045 -0.0614
  160SAPE  H17X17911   3.796   3.141   4.598  1.1720 -2.3153  1.3988
  160SAPE  H17Y17912   3.938   3.183   4.479 -0.6216  0.3684 -1.2691
  160SAPE  C31817913   3.906   2.974   4.530 -0.7480  0.3839 -0.2289
  160SAPE  H18X17914   3.959   2.957   4.626  2.2738 -1.4980 -2.0500
  160SAPE  H18Y17915   3.992   2.947   4.464  2.4134  2.2111  2.8149
  160SAPE  H18Z17916   3.817   2.908   4.519 -1.0691  1.1165 -2.8105
  161SAPE     N17917   0.751   5.262   1.964  0.1671 -0.2832 -0.0577
  161SAPE   HN117918   0.663   5.311   1.937 -0.1123  0.8429  2.5377
  161SAPE   HN217919   0.832   5.327   1.965  1.2027 -1.4410  2.7191
  161SAPE   HN317920   0.758   5.188   1.891 -2.8448 -0.8750  0.1239
  161SAPE   C1217921   0.721   5.218   2.105 -0.4548  0.1759  0.4276
  161SAPE  H12A17922   0.811   5.162   2.138 -0.6567 -0.7345 -0.5019
  161SAPE  H12B17923   0.645   5.137   2.100 -0.0078 -0.2228 -0.1297
  161SAPE   C1117924   0.684   5.332   2.200  0.0815 -0.0723 -0.2416
  161SAPE  H11A17925   0.762   5.411   2.192 -1.4657  1.5097 -0.2811
  161SAPE  H11B17926   0.687   5.295   2.305  2.8032  4.5846  1.6100
  161SAPE     P17927   0.530   5.537   2.219  0.0908 -0.1492  0.0811
  161SAPE   O1317928   0.642   5.634   2.195  0.5188  0.3368 -0.1575
  161SAPE   O1417929   0.393   5.575   2.184 -0.2710  0.5635  0.3330
  161SAPE   O1217930   0.562   5.393   2.162  0.2252 -0.0607 -0.0470
  161SAPE   O1117931   0.530   5.516   2.375 -0.2612 -0.4698 -0.1997
  161SAPE    C117932   0.470   5.399   2.436  1.0402  0.4758  0.5367
  161SAPE    HA17933   0.421   5.335   2.360 -0.2270  0.9402  0.9412
  161SAPE    HB17934   0.552   5.340   2.484 -1.5743 -2.1200  2.1457
  161SAPE    C217935   0.351   5.440   2.536  0.3394  0.0402  0.6864
  161SAPE    HS17936   0.275   5.485   2.469  0.6535  1.1192  1.0341
  161SAPE   O2117937   0.401   5.529   2.642  0.2205 -0.5248 -0.0553
  161SAPE   C2117938   0.302   5.610   2.690  0.0357  0.1385 -0.9156
  161SAPE   O2217939   0.182   5.595   2.667 -0.4663  0.5505 -0.6808
  161SAPE   C2217940   0.357   5.690   2.809  0.5944  0.3474  0.4676
  161SAPE   H2R17941   0.459   5.660   2.839  0.1307 -0.1705  1.5802
  161SAPE   H2S17942   0.340   5.794   2.774  1.9391  0.3040 -0.3893
  161SAPE    C317943   0.282   5.308   2.593 -0.0586  0.0710 -0.2566
  161SAPE    HX17944   0.258   5.250   2.502  0.1877 -0.4307 -0.0080
  161SAPE    HY17945   0.188   5.331   2.648 -0.3983 -0.4965 -0.5940
  161SAPE   O3117946   0.381   5.239   2.675  0.4831 -0.3208  0.2676
  161SAPE   C3117947   0.337   5.206   2.796  0.6056  0.2128 -0.1696
  161SAPE   O3217948   0.227   5.220   2.847 -0.3242  0.0048  0.0467
  161SAPE   C3217949   0.450   5.135   2.873  0.1988  0.2486 -0.0361
  161SAPE   H2X17950   0.401   5.092   2.963 -1.2979 -2.7993 -2.1795
  161SAPE   H2Y17951   0.524   5.216   2.894  2.3176 -1.0496 -2.0550
  161SAPE   C2317952   0.261   5.676   2.931  0.4356 -0.2616  0.1992
  161SAPE   H3R17953   0.157   5.708   2.908  0.0839 -0.3387  1.5765
  161SAPE   H3S17954   0.302   5.751   3.002  1.0178 -0.1728 -0.2302
  161SAPE   C2417955   0.271   5.537   2.998  0.1688 -0.0814  0.6343
  161SAPE   H4R17956   0.257   5.457   2.922  2.3957  0.8788 -0.9149
  161SAPE   H4S17957   0.183   5.532   3.065 -1.5674 -1.1627 -1.5850
  161SAPE   C2517958   0.399   5.518   3.072  0.5104  0.5239 -0.5349
  161SAPE   H5R17959   0.477   5.449   3.037 -0.7392 -2.1281  1.5040
  161SAPE   C2617960   0.427   5.571   3.189  0.7519  0.4498 -0.5582
  161SAPE   H6R17961   0.529   5.555   3.227  1.2894  0.9088 -1.7677
  161SAPE   C2717962   0.337   5.647   3.277  0.4743 -0.3698 -0.0678
  161SAPE   H7R17963   0.323   5.588   3.370 -0.1922  0.7499  0.5525
  161SAPE   H7S17964   0.239   5.664   3.227  1.6235  0.0642 -2.2955
  161SAPE   C2817965   0.412   5.777   3.323  0.5229 -0.5080  0.5992
  161SAPE   H8R17966   0.481   5.823   3.252 -0.6174 -0.4230 -0.4828
  161SAPE   C2917967   0.404   5.834   3.448 -0.2613  0.6445 -0.2440
  161SAPE   H9R17968   0.455   5.931   3.457 -0.2752  0.7686 -1.3509
  161SAPE  C21017969   0.318   5.791   3.566 -0.2359  0.2425  0.0401
  161SAPE  H10R17970   0.370   5.701   3.607 -0.4365 -0.0108 -0.2546
  161SAPE  H10S17971   0.221   5.752   3.529 -1.5117  2.2431  1.0624
  161SAPE  C21117972   0.311   5.898   3.668  0.3643 -0.5320 -0.3648
  161SAPE  H11R17973   0.273   5.991   3.623 -2.1152 -2.4243 -2.5073
  161SAPE  C21217974   0.323   5.884   3.799  0.0560 -0.9256  0.2919
  161SAPE  H12R17975   0.313   5.974   3.862 -1.8099  1.2571 -2.8403
  161SAPE  C21317976   0.373   5.763   3.878 -0.4161  0.4174  0.0522
  161SAPE  H13R17977   0.484   5.756   3.884 -0.4315 -1.1797 -0.9224
  161SAPE  H13S17978   0.344   5.671   3.823  0.8520 -0.0721  0.1485
  161SAPE  C21417979   0.321   5.734   4.018  0.3107 -0.2496 -0.6947
  161SAPE  H14R17980   0.289   5.823   4.074 -2.8969 -1.7419  0.0663
  161SAPE  C21517981   0.308   5.618   4.085 -0.6156 -0.1481  0.1771
  161SAPE  H15R17982   0.286   5.613   4.193  0.8487 -1.4557  0.4685
  161SAPE  C21617983   0.345   5.479   4.030  0.2508 -0.2570 -0.2284
  161SAPE  H16R17984   0.419   5.432   4.098  0.7367  1.1524  0.2544
  161SAPE  H16S17985   0.390   5.483   3.928  1.9017 -0.9203  0.4410
  161SAPE  C21717986   0.219   5.390   4.037  0.2514 -0.2474 -0.5844
  161SAPE  H17R17987   0.128   5.450   4.017 -0.7350 -2.1304 -2.0706
  161SAPE  H17S17988   0.215   5.351   4.141  0.7099 -0.9891 -0.8372
  161SAPE  C21817989   0.212   5.284   3.929 -0.1594  0.3473 -0.7000
  161SAPE  H18R17990   0.254   5.323   3.834 -0.7045 -1.6623 -1.7944
  161SAPE  H18S17991   0.109   5.249   3.910  0.1360 -0.7348 -0.3443
  161SAPE  C21917992   0.288   5.147   3.956  0.0988 -0.1536 -0.0066
  161SAPE  H19R17993   0.253   5.105   4.053 -0.3045  1.6954  0.6933
  161SAPE  H19S17994   0.394   5.180   3.963  0.0730 -0.0465 -0.1272
  161SAPE  C22017995   0.279   5.043   3.845 -0.3396  0.0088 -0.5699
  161SAPE  H20R17996   0.313   4.939   3.869 -0.8658 -0.4897 -1.9091
  161SAPE  H20S17997   0.327   5.072   3.750  3.0037  0.0161  0.9807
  161SAPE  H20T17998   0.173   5.023   3.818 -0.3624  1.1208 -1.3761
  161SAPE   C3317999   0.519   5.025   2.790 -0.1240  0.5264 -0.4626
  161SAPE   H3X18000   0.569   5.069   2.701  2.3308 -1.5488 -0.2427
  161SAPE   H3Y18001   0.445   4.954   2.746 -0.0532 -0.5562  1.0662
  161SAPE   C3418002   0.609   4.929   2.878 -0.1252  0.1639 -0.2389
  161SAPE   H4X18003   0.687   5.003   2.910  0.5246  0.0827 -1.5657
  161SAPE   H4Y18004   0.666   4.852   2.822 -2.3029  0.0166 -2.4430
  161SAPE   C3518005   0.546   4.859   3.005 -0.2595 -0.1433  0.9138
  161SAPE   H5X18006   0.498   4.760   2.989  0.7433 -0.5352  0.2883
  161SAPE   H5Y18007   0.469   4.930   3.041 -0.2185  0.8467 -0.8215
  161SAPE   C3618008   0.653   4.834   3.118 -0.1213 -0.0065  0.0466
  161SAPE   H6X18009   0.704   4.930   3.139  0.6232  0.6342 -3.8459
  161SAPE   H6Y18010   0.739   4.781   3.072  0.2059 -0.5930  1.2781
  161SAPE   C3718011   0.599   4.770   3.247 -0.4958  0.2897  0.3930
  161SAPE   H7X18012   0.553   4.672   3.222 -0.7662  0.0106  1.8574
  161SAPE   H7Y18013   0.521   4.834   3.294  0.1700  2.0722 -0.8319
  161SAPE   C3818014   0.710   4.743   3.352  0.1069 -0.6935 -0.3380
  161SAPE   H8X18015   0.755   4.843   3.366  0.8174 -0.5897 -2.8479
  161SAPE   H8Y18016   0.787   4.677   3.307 -1.0117 -2.6495  0.4638
  161SAPE   C3918017   0.661   4.694   3.484 -0.8347  0.7476 -0.6450
  161SAPE   H9X18018   0.610   4.596   3.476 -3.9127  2.0006  1.2871
  161SAPE   H9Y18019   0.595   4.766   3.538 -0.4130  0.9119 -0.3454
  161SAPE  C31018020   0.775   4.672   3.582  0.8053  0.2395 -0.7421
  161SAPE  H10X18021   0.845   4.758   3.576 -0.0636  0.9775 -0.3306
  161SAPE  H10Y18022   0.833   4.582   3.550  0.8097  0.4704 -1.3766
  161SAPE  C31118023   0.745   4.662   3.736  0.6627  0.2162  0.1494
  161SAPE  H11X18024   0.674   4.744   3.762 -0.8360 -0.6250 -1.1054
  161SAPE  H11Y18025   0.837   4.679   3.795 -0.1828  1.5183  1.1434
  161SAPE  C31218026   0.685   4.523   3.767  0.7211  0.8574  0.8367
  161SAPE  H12X18027   0.748   4.446   3.718  0.2391  0.4770  0.8068
  161SAPE  H12Y18028   0.583   4.522   3.723  1.4962  4.6792 -1.5216
  161SAPE  C31318029   0.671   4.504   3.921  0.7793  0.3867  0.1246
  161SAPE  H13X18030   0.596   4.577   3.958  1.3689  1.1193 -0.1027
  161SAPE  H13Y18031   0.763   4.522   3.982  0.6703  0.2701  0.3234
  161SAPE  C31418032   0.626   4.366   3.956 -0.2864 -0.7990 -0.2067
  161SAPE  H14X18033   0.712   4.300   3.932  1.7614  1.4799  0.5987
  161SAPE  H14Y18034   0.542   4.337   3.888  0.3864 -2.2980 -0.4430
  161SAPE  C31518035   0.561   4.347   4.094 -0.7569  0.5815 -0.2356
  161SAPE  H15X18036   0.510   4.438   4.132  1.4780  1.8841 -0.1911
  161SAPE  H15Y18037   0.649   4.327   4.159 -1.9604  1.2186  1.6775
  161SAPE  C31618038   0.457   4.236   4.106  0.3151 -0.0015  0.0705
  161SAPE  H16X18039   0.491   4.159   4.032 -0.0012  0.1677 -0.2551
  161SAPE  H16Y18040   0.353   4.260   4.074 -0.5454 -2.3529  0.8221
  161SAPE  C31718041   0.458   4.166   4.239 -0.8685 -0.5173  0.4525
  161SAPE  H17X18042   0.443   4.243   4.318  1.0808 -0.3683  0.7359
  161SAPE  H17Y18043   0.558   4.124   4.263 -2.0714 -5.1429 -1.6194
  161SAPE  C31818044   0.364   4.052   4.241 -0.0784 -0.2877  0.4731
  161SAPE  H18X18045   0.258   4.087   4.239  0.1920  0.5301 -0.6324
  161SAPE  H18Y18046   0.388   3.986   4.327  3.1642 -0.5197 -0.4767
  161SAPE  H18Z18047   0.380   3.994   4.148  1.3956 -1.1905  1.2617
  162SAPE     N18048   6.182   0.545   2.140  0.3095  0.0006  0.1309
  162SAPE   HN118049   6.159   0.620   2.071 -0.5092 -0.4166 -0.0607
  162SAPE   HN218050   6.223   0.465   2.088 -0.2007 -1.6219  2.0899
  162SAPE   HN318051   6.098   0.516   2.194 -0.5292 -1.1445 -1.6671
  162SAPE   C1218052   6.279   0.611   2.231 -0.0761  0.6527 -0.5030
  162SAPE  H12A18053   6.382   0.581   2.202 -0.0788 -1.5873  1.4457
  162SAPE  H12B18054   6.262   0.580   2.337 -2.8461 -0.5830 -1.2138
  162SAPE   C1118055   6.264   0.763   2.211 -0.3008  0.0630 -0.0944
  162SAPE  H11A18056   6.273   0.797   2.106 -0.7693 -0.0591 -0.1785
  162SAPE  H11B18057   6.355   0.795   2.266  0.6550 -3.5297  0.6685
  162SAPE     P18058   6.126   0.957   2.306 -0.0913 -0.1167 -0.0059
  162SAPE   O1318059   6.240   1.031   2.250  0.8949  0.5815  0.0740
  162SAPE   O1418060   5.992   1.003   2.286  0.2056 -0.8780  0.2167
  162SAPE   O1218061   6.137   0.800   2.267  0.6132  0.2516 -0.0236
  162SAPE   O1118062   6.139   0.940   2.461 -0.2570  0.1174  0.2090
  162SAPE    C118063   6.084   0.827   2.523  0.6438  0.6059 -1.2532
  162SAPE    HA18064   5.987   0.792   2.482  1.0581 -2.7735  0.2540
  162SAPE    HB18065   6.155   0.742   2.513  0.4551  0.1695  0.6122
  162SAPE    C218066   6.063   0.860   2.670 -0.2765 -0.0574  0.8520
  162SAPE    HS18067   6.068   0.761   2.720  2.8126 -1.6617 -2.1961
  162SAPE   O2118068   5.935   0.926   2.680 -0.3070  0.1284  0.0096
  162SAPE   C2118069   5.857   0.889   2.786 -0.4290  0.5891  0.1741
  162SAPE   O2218070   5.890   0.804   2.868 -0.0129 -0.2233  0.6632
  162SAPE   C2218071   5.720   0.951   2.777 -0.2314  0.5535  0.2312
  162SAPE   H2R18072   5.739   1.058   2.798 -0.1297  0.5505  0.1519
  162SAPE   H2S18073   5.675   0.936   2.676  0.7290  0.1044 -0.1374
  162SAPE    C318074   6.184   0.942   2.738 -0.9854 -0.4724  0.1797
  162SAPE    HX18075   6.183   1.046   2.697 -1.9076 -0.9693 -1.1248
  162SAPE    HY18076   6.280   0.901   2.699 -0.8582  0.4792 -0.5563
  162SAPE   O3118077   6.183   0.955   2.884  0.4312 -0.0950  0.0316
  162SAPE   C3118078   6.194   0.842   2.949 -0.4310  0.2405 -0.7168
  162SAPE   O3218079   6.232   0.734   2.908  0.0807 -0.5513  0.0082
  162SAPE   C3218080   6.133   0.850   3.088 -0.5340 -0.2383  0.0862
  162SAPE   H2X18081   6.096   0.748   3.112  0.0922 -0.0662  2.0290
  162SAPE   H2Y18082   6.048   0.921   3.082  1.2412  1.9515 -0.4081
  162SAPE   C2318083   5.642   0.911   2.902 -0.0115  0.1066 -0.0604
  162SAPE   H3R18084   5.559   0.981   2.924  0.5607  0.0996  2.3637
  162SAPE   H3S18085   5.704   0.919   2.994 -1.6118  1.2213  0.9763
  162SAPE   C2418086   5.579   0.774   2.899  0.2626 -0.0663  0.2596
  162SAPE   H4R18087   5.664   0.703   2.904  1.3450  1.2154  0.6506
  162SAPE   H4S18088   5.533   0.760   2.799 -0.0652  1.4263  0.1651
  162SAPE   C2518089   5.458   0.747   2.999  0.2393 -0.9538  0.8488
  162SAPE   H5R18090   5.357   0.761   2.958  0.0864 -1.3229  1.0952
  162SAPE   C2618091   5.474   0.704   3.125 -0.3287  0.4497  0.4898
  162SAPE   H6R18092   5.384   0.681   3.184 -1.1469 -0.5406 -1.0794
  162SAPE   C2718093   5.602   0.676   3.201 -0.0499 -0.4720  0.0944
  162SAPE   H7R18094   5.691   0.693   3.137 -1.0555 -2.9974 -2.1690
  162SAPE   H7S18095   5.608   0.568   3.227 -1.4534 -0.0622  2.4886
  162SAPE   C2818096   5.620   0.759   3.327  0.1572 -0.2615  0.1441
  162SAPE   H8R18097   5.532   0.778   3.391  0.4843  1.7114  0.0688
  162SAPE   C2918098   5.735   0.808   3.375  0.0007 -0.0291 -0.1846
  162SAPE   H9R18099   5.733   0.852   3.476 -0.7531 -1.3574  0.4168
  162SAPE  C21018100   5.873   0.806   3.311  0.2499 -0.0761  0.1605
  162SAPE  H10R18101   5.924   0.896   3.350  1.0430 -0.6801  0.5506
  162SAPE  H10S18102   5.872   0.824   3.201  0.8106  1.8398  0.4317
  162SAPE  C21118103   5.944   0.682   3.348  0.2907 -0.0313 -0.1017
  162SAPE  H11R18104   5.920   0.597   3.282 -0.6637 -0.1432  0.3702
  162SAPE  C21218105   6.011   0.662   3.465  0.3708 -0.0961 -1.2807
  162SAPE  H12R18106   6.061   0.566   3.483 -0.8840 -0.7097 -0.9137
  162SAPE  C21318107   6.054   0.778   3.559  1.0035  0.5120 -0.0422
  162SAPE  H13R18108   5.981   0.862   3.551 -0.6120 -0.9810 -2.2230
  162SAPE  H13S18109   6.153   0.820   3.530  1.1377  2.1560  2.5158
  162SAPE  C21418110   6.039   0.727   3.702 -0.5066  0.2972 -0.1094
  162SAPE  H14R18111   5.954   0.659   3.715  1.1273 -1.8817 -0.3319
  162SAPE  C21518112   6.120   0.753   3.802 -0.9052  0.0663 -0.4447
  162SAPE  H15R18113   6.111   0.706   3.901  0.3363 -0.8491 -0.7451
  162SAPE  C21618114   6.243   0.845   3.788  0.0617  0.0870  0.0296
  162SAPE  H16R18115   6.203   0.949   3.789  1.5706  0.6910  1.2610
  162SAPE  H16S18116   6.276   0.831   3.683 -0.4634 -2.7297  0.1772
  162SAPE  C21718117   6.348   0.831   3.896 -0.8992 -0.8731 -0.4037
  162SAPE  H17R18118   6.307   0.804   3.996 -1.5876 -3.5562 -1.3259
  162SAPE  H17S18119   6.412   0.921   3.886 -0.3043 -1.5229 -3.1636
  162SAPE  C21818120   6.457   0.735   3.848 -0.4709  0.2233 -0.4787
  162SAPE  H18R18121   6.468   0.756   3.739  1.0922  0.6322 -0.2566
  162SAPE  H18S18122   6.419   0.631   3.860  0.9102 -0.1580  0.8382
  162SAPE  C21918123   6.589   0.752   3.923  0.1966 -0.5645 -0.1255
  162SAPE  H19R18124   6.562   0.748   4.030 -1.2732 -0.6087 -0.4790
  162SAPE  H19S18125   6.637   0.850   3.899 -0.9836  0.2055  0.5906
  162SAPE  C22018126   6.684   0.637   3.901  0.9546  0.0958  0.0393
  162SAPE  H20R18127   6.752   0.625   3.987  3.1379  1.2215 -1.4285
  162SAPE  H20S18128   6.758   0.651   3.819  0.3298  2.0372 -0.2385
  162SAPE  H20T18129   6.628   0.546   3.871  1.1798 -0.3725  1.0046
  162SAPE   C3318130   6.235   0.903   3.199 -0.4215 -0.4175  0.5622
  162SAPE   H3X18131   6.178   0.928   3.291 -0.9274 -0.0202  0.1444
  162SAPE   H3Y18132   6.289   0.993   3.162 -0.3921 -1.2065 -1.4128
  162SAPE   C3418133   6.351   0.794   3.225 -0.2302  0.1404 -0.0924
  162SAPE   H4X18134   6.389   0.758   3.127  0.5260  2.2450 -0.6266
  162SAPE   H4Y18135   6.317   0.715   3.295  0.9035  0.1333  0.4706
  162SAPE   C3518136   6.464   0.860   3.305 -1.0665 -0.1361 -0.3112
  162SAPE   H5X18137   6.415   0.881   3.403 -2.2780 -1.0527 -0.6888
  162SAPE   H5Y18138   6.494   0.958   3.262  0.0722 -0.9614 -1.4739
  162SAPE   C3618139   6.587   0.773   3.323 -0.2102  0.2348  0.5010
  162SAPE   H6X18140   6.661   0.784   3.240 -1.1627 -0.7586 -0.5122
  162SAPE   H6Y18141   6.538   0.673   3.321 -0.4975  0.3667  0.8293
  162SAPE   C3718142   6.660   0.779   3.452  0.2386  0.5791 -0.6590
  162SAPE   H7X18143   6.727   0.690   3.453 -1.6582 -1.0066  2.6690
  162SAPE   H7Y18144   6.589   0.777   3.538  0.9726  2.7732  0.0687
  162SAPE   C3818145   6.750   0.903   3.473 -0.7794 -0.2676  0.0475
  162SAPE   H8X18146   6.688   0.995   3.480 -0.1347  0.1247  0.5643
  162SAPE   H8Y18147   6.812   0.918   3.382 -1.1779 -1.1547 -0.3814
  162SAPE   C3918148   6.852   0.894   3.584 -0.0839  0.3186 -1.5251
  162SAPE   H9X18149   6.934   0.821   3.566 -0.5134  0.4274 -4.2824
  162SAPE   H9Y18150   6.792   0.863   3.673  1.0334  2.4456  0.0402
  162SAPE  C31018151   6.937   1.018   3.616 -0.0363 -0.3574  0.3624
  162SAPE  H10X18152   6.863   1.094   3.648  0.0012  0.4849 -1.4324
  162SAPE  H10Y18153   6.982   1.053   3.521 -0.8734  0.5651  0.2949
  162SAPE  C31118154   7.041   0.996   3.724  0.2096  0.5464  0.2771
  162SAPE  H11X18155   7.120   0.923   3.694  1.8050  1.4910  1.9280
  162SAPE  H11Y18156   6.986   0.952   3.810 -1.1482  0.8788 -0.3902
  162SAPE  C31218157   7.101   1.125   3.777  0.1330 -0.0845  0.2515
  162SAPE  H12X18158   7.017   1.184   3.820 -0.8380 -1.5101  0.3492
  162SAPE  H12Y18159   7.138   1.181   3.689 -0.5733 -1.8091 -1.1938
  162SAPE  C31318160   7.210   1.106   3.888  0.5257  0.2584 -0.7922
  162SAPE  H13X18161   7.288   1.185   3.876 -0.3538  1.2042 -0.4166
  162SAPE  H13Y18162   7.246   1.002   3.875 -0.2029 -0.0058 -0.7548
  162SAPE  C31418163   7.155   1.115   4.027 -0.3962  0.0291  0.9340
  162SAPE  H14X18164   7.249   1.095   4.082 -0.5481 -2.7453  0.3330
  162SAPE  H14Y18165   7.084   1.034   4.056 -2.3917  1.5223  0.4553
  162SAPE  C31518166   7.102   1.248   4.076  0.6076 -0.3478 -0.7785
  162SAPE  H15X18167   7.005   1.279   4.031  0.1611  1.5577  1.2820
  162SAPE  H15Y18168   7.181   1.317   4.038  0.8422 -1.5567 -2.6380
  162SAPE  C31618169   7.080   1.250   4.225  0.6932 -0.4944 -0.5168
  162SAPE  H16X18170   7.164   1.199   4.277  2.0410  1.1709 -0.9334
  162SAPE  H16Y18171   6.995   1.186   4.254 -1.5263  2.4306 -0.1215
  162SAPE  C31718172   7.071   1.386   4.294 -0.5023  0.2668  0.6682
  162SAPE  H17X18173   7.059   1.389   4.404  2.5591 -1.0980  1.1587
  162SAPE  H17Y18174   6.988   1.447   4.254 -0.8856 -0.7716 -0.1578
  162SAPE  C31818175   7.205   1.449   4.284  0.1936 -0.5849  0.3956
  162SAPE  H18X18176   7.217   1.528   4.361  0.4380  3.5189 -3.4057
  162SAPE  H18Y18177   7.217   1.495   4.183  2.2440  1.3005  1.3939
  162SAPE  H18Z18178   7.295   1.385   4.299  0.9526  0.5444  0.8437
  163SAPE     N18179   6.613   6.054   2.137 -0.0740  0.1884 -0.1494
  163SAPE   HN118180   6.628   6.149   2.099 -0.6490 -0.3633 -1.8510
  163SAPE   HN218181   6.667   5.997   2.068  0.6939  1.6527 -0.7986
  163SAPE   HN318182   6.518   6.012   2.141  0.9710 -2.2994  3.1856
  163SAPE   C1218183   6.691   6.034   2.269  0.4436 -0.2111 -0.4780
  163SAPE  H12A18184   6.652   6.114   2.335 -2.7303 -0.9602 -1.2695
  163SAPE  H12B18185   6.797   6.059   2.248  0.7344 -1.1756 -0.2121
  163SAPE   C1118186   6.660   5.892   2.319  0.1392 -0.5110  0.0949
  163SAPE  H11A18187   6.551   5.870   2.329 -0.3327  1.7361  0.4079
  163SAPE  H11B18188   6.707   5.885   2.420  2.4133 -0.8812 -0.9322
  163SAPE     P18189   6.858   5.758   2.220 -0.1397  0.0079  0.5974
  163SAPE   O1318190   6.868   5.660   2.109 -0.1258 -0.3860 -0.7612
  163SAPE   O1418191   6.947   5.872   2.205  0.0899 -0.4213 -0.1911
  163SAPE   O1218192   6.704   5.799   2.224 -0.2803 -0.4205  0.0834
  163SAPE   O1118193   6.895   5.697   2.353 -0.3757 -0.0277 -0.4299
  163SAPE    C118194   6.866   5.557   2.373 -0.5178  0.6589  0.1404
  163SAPE    HA18195   6.915   5.492   2.297 -0.8165  0.2873  0.2644
  163SAPE    HB18196   6.918   5.537   2.469  0.8777 -1.1355 -0.9302
  163SAPE    C218197   6.716   5.526   2.375  1.0390 -0.4168 -0.4797
  163SAPE    HS18198   6.681   5.525   2.269 -2.2286 -5.0395  0.3185
  163SAPE   O2118199   6.647   5.616   2.462 -0.1570  0.0497 -0.5703
  163SAPE   C2118200   6.511   5.617   2.448 -0.5741  0.5551 -0.0686
  163SAPE   O2218201   6.447   5.555   2.365 -0.6053  0.6621  0.6394
  163SAPE   C2218202   6.451   5.713   2.543 -0.2325 -0.2500 -0.3785
  163SAPE   H2R18203   6.450   5.663   2.642  1.3434  1.0350  0.3365
  163SAPE   H2S18204   6.514   5.805   2.550 -2.0539  1.2034 -1.9415
  163SAPE    C318205   6.707   5.380   2.429 -0.2229 -0.0009  0.5522
  163SAPE    HX18206   6.743   5.315   2.346  0.7499 -0.4496  1.3094
  163SAPE    HY18207   6.599   5.358   2.435 -0.8706  1.8286 -2.2723
  163SAPE   O3118208   6.783   5.365   2.551  0.5483 -0.3536 -0.5355
  163SAPE   C3118209   6.708   5.367   2.659  0.5203 -0.3288  0.0650
  163SAPE   O3218210   6.585   5.379   2.658 -0.4467  0.1014  0.1268
  163SAPE   C3218211   6.782   5.362   2.789  0.6068  0.3195  0.4331
  163SAPE   H2X18212   6.853   5.448   2.788  0.0008  0.8345 -0.9969
  163SAPE   H2Y18213   6.851   5.277   2.804 -1.7953 -1.5159  1.6794
  163SAPE   C2318214   6.307   5.753   2.521 -0.3760  0.7797  0.3105
  163SAPE   H3R18215   6.256   5.662   2.484  1.4028  0.4908 -1.5932
  163SAPE   H3S18216   6.291   5.819   2.433  0.7848  1.2591  0.4411
  163SAPE   C2418217   6.239   5.809   2.646 -0.3724 -0.1977 -0.1977
  163SAPE   H4R18218   6.288   5.907   2.667 -0.2821 -0.0928 -0.8635
  163SAPE   H4S18219   6.251   5.752   2.741 -0.9642 -0.2704 -0.1680
  163SAPE   C2518220   6.096   5.822   2.611 -0.1702  0.3378  0.3119
  163SAPE   H5R18221   6.082   5.838   2.503  3.1800  0.8228 -0.1484
  163SAPE   C2618222   5.990   5.823   2.694  0.2071 -0.0897 -0.5712
  163SAPE   H6R18223   5.894   5.831   2.642 -0.5400 -0.5452  0.7042
  163SAPE   C2718224   5.988   5.800   2.848 -0.5806 -0.5749 -0.0570
  163SAPE   H7R18225   6.066   5.726   2.877 -1.1573 -0.4896  1.8342
  163SAPE   H7S18226   5.894   5.759   2.891 -0.5574 -1.7234 -1.0334
  163SAPE   C2818227   6.027   5.933   2.911 -0.5032 -0.3331  0.2791
  163SAPE   H8R18228   6.061   6.012   2.841  0.2749 -0.0223  0.9965
  163SAPE   C2918229   6.048   5.953   3.044  1.1046 -0.0994  0.3395
  163SAPE   H9R18230   6.070   6.055   3.077 -0.6529  0.0872  1.0515
  163SAPE  C21018231   6.020   5.863   3.160  0.1425  0.0718  0.2456
  163SAPE  H10R18232   5.927   5.805   3.144  0.0864 -0.1278  1.2183
  163SAPE  H10S18233   5.997   5.923   3.250 -1.0311  1.1959 -0.7759
  163SAPE  C21118234   6.139   5.768   3.172  0.5446 -0.3884  0.0455
  163SAPE  H11R18235   6.140   5.685   3.100 -0.3265  0.3054 -0.7932
  163SAPE  C21218236   6.251   5.780   3.249  0.0379 -0.3921  0.4086
  163SAPE  H12R18237   6.335   5.709   3.246  0.7946  0.4245  1.3247
  163SAPE  C21318238   6.261   5.897   3.347 -0.8820  0.3199  0.7442
  163SAPE  H13R18239   6.222   5.857   3.443  1.1512  0.5388  1.7108
  163SAPE  H13S18240   6.196   5.985   3.326 -0.4066  0.5848  0.3421
  163SAPE  C21418241   6.410   5.941   3.355  0.8689 -0.1589 -0.0293
  163SAPE  H14R18242   6.467   5.921   3.264  1.1539  2.2266 -0.4591
  163SAPE  C21518243   6.459   6.003   3.460  0.1468  0.0961  0.0010
  163SAPE  H15R18244   6.559   6.048   3.448  0.0401 -0.0350 -1.7228
  163SAPE  C21618245   6.380   6.034   3.585  0.0316 -0.3544  0.3507
  163SAPE  H16R18246   6.392   5.957   3.665  2.5110 -0.4584 -0.0307
  163SAPE  H16S18247   6.272   6.053   3.569  0.4036  4.3851  1.9729
  163SAPE  C21718248   6.438   6.167   3.652  0.0836 -0.0694 -0.1379
  163SAPE  H17R18249   6.362   6.199   3.727  0.8829  2.7261 -0.4103
  163SAPE  H17S18250   6.440   6.250   3.578  0.1326  0.1404  0.0974
  163SAPE  C21818251   6.580   6.143   3.724 -0.5390 -0.3214  0.3742
  163SAPE  H18R18252   6.646   6.110   3.641 -0.4323  1.5682 -0.3381
  163SAPE  H18S18253   6.556   6.061   3.795 -0.2233  0.7372  1.7675
  163SAPE  C21918254   6.621   6.271   3.802  0.2300 -0.3522 -0.2849
  163SAPE  H19R18255   6.540   6.347   3.811  1.2183  0.8098 -0.8808
  163SAPE  H19S18256   6.697   6.317   3.735 -0.0356  0.8728  0.2201
  163SAPE  C22018257   6.688   6.244   3.933 -0.3279  0.9385  0.5580
  163SAPE  H20R18258   6.785   6.193   3.912  0.5826  2.0406  1.9295
  163SAPE  H20S18259   6.633   6.174   3.999  1.3331  0.0778  1.0713
  163SAPE  H20T18260   6.702   6.336   3.994 -1.2614  0.9141  0.8220
  163SAPE   C3318261   6.689   5.369   2.916 -0.5074  0.2305 -0.1576
  163SAPE   H3X18262   6.628   5.276   2.912  1.6232 -1.1833 -1.2278
  163SAPE   H3Y18263   6.630   5.463   2.918  1.8904  1.8293  1.5435
  163SAPE   C3418264   6.762   5.363   3.055 -0.0244 -0.0642  0.1036
  163SAPE   H4X18265   6.687   5.336   3.132  1.6607  1.3799  2.3826
  163SAPE   H4Y18266   6.789   5.465   3.090 -1.8472 -0.0814  1.6965
  163SAPE   C3518267   6.879   5.269   3.062 -0.2594 -0.1754 -0.0991
  163SAPE   H5X18268   6.964   5.305   3.000 -0.0679  1.6355  1.1277
  163SAPE   H5Y18269   6.853   5.166   3.032  0.1955 -0.1256 -0.6609
  163SAPE   C3618270   6.933   5.259   3.209  0.2158 -0.3904  0.0701
  163SAPE   H6X18271   6.850   5.237   3.280  0.1196 -0.2767 -0.0069
  163SAPE   H6Y18272   6.965   5.363   3.232  1.5011 -0.7322 -0.1355
  163SAPE   C3718273   7.058   5.173   3.217 -0.4024  0.5454 -0.2068
  163SAPE   H7X18274   7.148   5.211   3.165 -0.4803  0.4894 -0.3841
  163SAPE   H7Y18275   7.034   5.084   3.156  0.2471  1.7292 -2.2797
  163SAPE   C3818276   7.084   5.121   3.358  0.2254  0.7806  0.1764
  163SAPE   H8X18277   7.160   5.040   3.352 -1.4569 -0.7896 -0.8285
  163SAPE   H8Y18278   6.989   5.067   3.377  1.1323 -1.5339 -1.4551
  163SAPE   C3918279   7.128   5.226   3.457  0.4333  0.0337 -0.4408
  163SAPE   H9X18280   7.112   5.193   3.561 -4.0180  2.5144 -0.1077
  163SAPE   H9Y18281   7.051   5.306   3.451 -1.5094 -1.6805  0.2838
  163SAPE  C31018282   7.270   5.278   3.432  0.4390 -0.7631  0.3448
  163SAPE  H10X18283   7.270   5.332   3.335  0.7586 -0.8669  0.2848
  163SAPE  H10Y18284   7.346   5.196   3.435  0.0608 -1.1018  0.9329
  163SAPE  C31118285   7.321   5.377   3.542 -0.1935  0.6359  0.0951
  163SAPE  H11X18286   7.312   5.333   3.644  0.7309  0.1107 -0.0456
  163SAPE  H11Y18287   7.249   5.461   3.541 -0.9575 -0.0080 -1.6091
  163SAPE  C31218288   7.464   5.429   3.521 -0.3098  0.3612 -0.0548
  163SAPE  H12X18289   7.487   5.534   3.548 -1.2471  0.5971 -0.1421
  163SAPE  H12Y18290   7.487   5.433   3.412 -1.6263 -0.7364 -0.4046
  163SAPE  C31318291   7.570   5.335   3.583  0.4391  0.4888 -0.0832
  163SAPE  H13X18292   7.667   5.371   3.545 -0.2094  1.5884 -0.7658
  163SAPE  H13Y18293   7.541   5.232   3.554 -0.9234  1.6362 -3.2514
  163SAPE  C31418294   7.565   5.344   3.729 -0.4003 -0.4590 -0.2540
  163SAPE  H14X18295   7.474   5.291   3.765  0.5309  0.0169  3.1440
  163SAPE  H14Y18296   7.560   5.451   3.757 -0.1293 -0.1983 -1.1775
  163SAPE  C31518297   7.693   5.286   3.784 -0.1104 -0.2531  0.1563
  163SAPE  H15X18298   7.777   5.358   3.770  0.2461 -1.0607 -2.5556
  163SAPE  H15Y18299   7.725   5.194   3.731 -1.0629 -0.7442  0.4220
  163SAPE  C31618300   7.691   5.269   3.939 -0.5159  0.1282  1.5166
  163SAPE  H16X18301   7.791   5.223   3.957  0.1103  1.7290  2.3384
  163SAPE  H16Y18302   7.607   5.206   3.974 -3.8770  3.6074  0.4059
  163SAPE  C31718303   7.691   5.399   4.022 -0.1563 -0.5657  0.2101
  163SAPE  H17X18304   7.583   5.423   4.030  0.1588  3.0023 -3.0522
  163SAPE  H17Y18305   7.731   5.479   3.956 -0.1591 -2.0488 -1.6662
  163SAPE  C31818306   7.758   5.377   4.158 -0.3553  0.1056  0.3819
  163SAPE  H18X18307   7.866   5.383   4.133 -0.6545  0.3943 -0.9613
  163SAPE  H18Y18308   7.728   5.278   4.197 -0.9434 -0.5082 -1.4932
  163SAPE  H18Z18309   7.725   5.457   4.227 -1.0897  0.7238 -0.6458
  164SAPE     N18310   4.993   4.587   2.101  0.3164 -0.4158  0.0336
  164SAPE   HN118311   4.912   4.652   2.101  0.8388  0.2617 -0.7574
  164SAPE   HN218312   5.075   4.649   2.085  0.2129 -0.2392  0.1803
  164SAPE   HN318313   4.989   4.521   2.021 -0.5695 -1.5796  1.0083
  164SAPE   C1218314   4.996   4.514   2.228 -0.3429  0.3916 -0.2049
  164SAPE  H12A18315   5.002   4.580   2.317  1.7320 -1.1333  0.8763
  164SAPE  H12B18316   5.081   4.443   2.226  0.6275  1.5097  0.1663
  164SAPE   C1118317   4.862   4.437   2.224  0.3188  0.2910 -1.1969
  164SAPE  H11A18318   4.781   4.512   2.235  0.6591  0.5042  0.0969
  164SAPE  H11B18319   4.858   4.368   2.311  0.1764  0.4697 -1.0623
  164SAPE     P18320   4.718   4.263   2.098 -0.0008 -0.0048  0.1798
  164SAPE   O1318321   4.613   4.351   2.058 -0.1484  0.2010  0.8227
  164SAPE   O1418322   4.749   4.144   2.012 -0.2583  0.1982  0.7488
  164SAPE   O1218323   4.846   4.358   2.110 -0.5772 -0.1369 -0.2318
  164SAPE   O1118324   4.699   4.221   2.246  0.6432  0.3191 -0.2619
  164SAPE    C118325   4.709   4.077   2.275 -0.5574 -0.3709  0.1860
  164SAPE    HA18326   4.622   4.028   2.226  0.4147 -0.4277 -1.5683
  164SAPE    HB18327   4.808   4.035   2.245 -0.0623  0.8565  0.0700
  164SAPE    C218328   4.692   4.056   2.429  0.0560 -0.4589  0.2032
  164SAPE    HS18329   4.790   4.086   2.473  1.4997 -1.1223 -2.3378
  164SAPE   O2118330   4.648   3.913   2.449 -0.3945  0.4453 -0.0314
  164SAPE   C2118331   4.707   3.848   2.553  0.1768 -0.0796  0.1704
  164SAPE   O2218332   4.800   3.890   2.618  0.0760 -0.4521 -0.1036
  164SAPE   C2218333   4.646   3.714   2.585 -0.5077  0.0180  0.6350
  164SAPE   H2R18334   4.541   3.744   2.603  0.6882  3.6242  2.6150
  164SAPE   H2S18335   4.659   3.639   2.504  1.9166 -0.3796  1.2964
  164SAPE    C318336   4.575   4.149   2.481 -0.4991 -0.5656 -0.0232
  164SAPE    HX18337   4.484   4.144   2.418 -2.0833  1.4476  1.9328
  164SAPE    HY18338   4.619   4.250   2.467 -1.2423 -0.3126 -0.5516
  164SAPE   O3118339   4.550   4.118   2.622 -0.1400 -0.4766 -0.0632
  164SAPE   C3118340   4.628   4.190   2.707  0.1785  0.4014 -0.7587
  164SAPE   O3218341   4.688   4.288   2.686  0.0374 -0.4024 -0.1917
  164SAPE   C3218342   4.639   4.115   2.841  0.2159 -0.1473 -0.4420
  164SAPE   H2X18343   4.692   4.019   2.821 -0.1304 -0.8375  1.6960
  164SAPE   H2Y18344   4.537   4.093   2.878 -0.0035  2.1858  0.5305
  164SAPE   C2318345   4.699   3.660   2.717 -0.2607 -0.3657  0.3698
  164SAPE   H3R18346   4.683   3.739   2.793 -1.3095 -0.9722  0.8050
  164SAPE   H3S18347   4.806   3.633   2.708  0.1640  0.6775  1.9306
  164SAPE   C2418348   4.618   3.538   2.765 -0.5857  0.2837  0.1153
  164SAPE   H4R18349   4.519   3.586   2.778  0.5262  2.3156  1.8314
  164SAPE   H4S18350   4.649   3.511   2.869 -1.9681 -3.7052 -0.3486
  164SAPE   C2518351   4.651   3.430   2.665 -0.5467 -0.6494 -0.7112
  164SAPE   H5R18352   4.643   3.452   2.557 -0.0093  4.0549  0.0047
  164SAPE   C2618353   4.677   3.299   2.703  0.4227 -0.3106  0.6829
  164SAPE   H6R18354   4.705   3.228   2.624 -2.3697  1.5798 -2.2703
  164SAPE   C2718355   4.682   3.251   2.845  0.0681  0.9558  0.2896
  164SAPE   H7R18356   4.675   3.140   2.846 -1.0305  1.0073  1.6380
  164SAPE   H7S18357   4.588   3.284   2.895 -0.4126 -0.5826  0.4520
  164SAPE   C2818358   4.807   3.278   2.929  0.1283 -0.1959  0.1879
  164SAPE   H8R18359   4.898   3.261   2.869  1.1222  1.1862  1.2250
  164SAPE   C2918360   4.820   3.293   3.064 -0.2860 -0.1264 -0.0341
  164SAPE   H9R18361   4.915   3.306   3.118 -1.6898  0.3503  2.4853
  164SAPE  C21018362   4.698   3.305   3.155 -0.4044  0.5559 -0.4586
  164SAPE  H10R18363   4.643   3.208   3.157 -0.5060  0.6024  1.5216
  164SAPE  H10S18364   4.619   3.363   3.103  1.1573 -0.0888 -3.7525
  164SAPE  C21118365   4.713   3.360   3.292  0.0686 -0.3719  0.6301
  164SAPE  H11R18366   4.733   3.467   3.306 -2.4647  0.0840  1.4336
  164SAPE  C21218367   4.702   3.290   3.407  0.2906  0.2214  0.1727
  164SAPE  H12R18368   4.708   3.343   3.504 -2.2967 -0.1345  0.6138
  164SAPE  C21318369   4.657   3.147   3.429 -0.0231 -0.4921  0.6408
  164SAPE  H13R18370   4.609   3.096   3.342 -0.6952 -0.8145  1.1855
  164SAPE  H13S18371   4.585   3.148   3.514 -0.3657 -0.4701  0.3501
  164SAPE  C21418372   4.784   3.074   3.467  0.2750  0.8303 -1.0794
  164SAPE  H14R18373   4.862   3.058   3.391 -0.4028 -0.5975 -1.4903
  164SAPE  C21518374   4.794   3.007   3.584  0.5662  0.4865 -0.0522
  164SAPE  H15R18375   4.885   2.951   3.606 -0.0363 -0.1039  1.0323
  164SAPE  C21618376   4.704   3.005   3.705  0.2489  0.7488 -0.8046
  164SAPE  H16R18377   4.714   2.904   3.751 -0.5239  0.1353 -1.9601
  164SAPE  H16S18378   4.595   3.002   3.685  0.3652 -0.8704 -1.3018
  164SAPE  C21718379   4.732   3.121   3.811 -0.3657  0.4256  0.2673
  164SAPE  H17R18380   4.724   3.224   3.770 -1.1216 -0.2113 -1.2484
  164SAPE  H17S18381   4.837   3.104   3.842 -0.6845 -1.4022  0.4605
  164SAPE  C21818382   4.642   3.113   3.929 -0.1091  0.0490 -0.3926
  164SAPE  H18R18383   4.692   3.116   4.028 -1.5863 -2.8525  0.5537
  164SAPE  H18S18384   4.597   3.011   3.931  1.5673 -0.7492  2.3717
  164SAPE  C21918385   4.529   3.214   3.915  0.5761  0.0294 -0.0898
  164SAPE  H19R18386   4.449   3.172   3.980  0.0621  1.9822  0.6039
  164SAPE  H19S18387   4.489   3.219   3.811 -0.3503 -0.8149  0.2090
  164SAPE  C22018388   4.571   3.355   3.970  0.5578  0.5199  0.5160
  164SAPE  H20R18389   4.481   3.414   3.998  1.1708  1.2292  1.0479
  164SAPE  H20S18390   4.631   3.412   3.896  2.1973 -1.1121  0.5054
  164SAPE  H20T18391   4.629   3.341   4.064 -0.2543 -0.8891  0.8401
  164SAPE   C3318392   4.706   4.202   2.952 -0.3944 -0.1932  0.0907
  164SAPE   H3X18393   4.663   4.304   2.947 -0.1207  0.1155  2.5908
  164SAPE   H3Y18394   4.815   4.196   2.932 -0.4334 -2.8810  0.3749
  164SAPE   C3418395   4.663   4.160   3.093 -0.3161 -0.2049 -0.0780
  164SAPE   H4X18396   4.695   4.054   3.099 -0.2238 -0.0808  2.9911
  164SAPE   H4Y18397   4.553   4.153   3.105 -0.4674  2.0027  0.1839
  164SAPE   C3518398   4.703   4.254   3.209 -0.0259  0.0242 -0.3900
  164SAPE   H5X18399   4.653   4.351   3.189  0.3800  0.5096  0.8584
  164SAPE   H5Y18400   4.811   4.276   3.198 -0.1519  0.6865 -0.3662
  164SAPE   C3618401   4.665   4.199   3.346 -0.7277 -0.1680  0.1612
  164SAPE   H6X18402   4.726   4.107   3.358  0.1537  0.4386  0.3695
  164SAPE   H6Y18403   4.555   4.183   3.357 -0.7750  0.4627  0.6880
  164SAPE   C3718404   4.686   4.296   3.464  0.0347 -0.0364  0.9232
  164SAPE   H7X18405   4.654   4.239   3.554  1.0719 -1.9165  0.1710
  164SAPE   H7Y18406   4.623   4.386   3.456  0.6971  0.3857  0.3157
  164SAPE   C3818407   4.832   4.318   3.484  0.0216  0.1543 -0.1013
  164SAPE   H8X18408   4.858   4.404   3.420 -0.9992  0.4814 -0.0791
  164SAPE   H8Y18409   4.895   4.233   3.448 -1.1908 -1.0758  0.5916
  164SAPE   C3918410   4.855   4.356   3.629 -0.1983 -0.2558 -0.5591
  164SAPE   H9X18411   4.958   4.328   3.659 -0.9392 -1.0772  1.3919
  164SAPE   H9Y18412   4.790   4.291   3.692  0.2779 -2.2388 -2.0100
  164SAPE  C31018413   4.823   4.512   3.642 -0.2917  0.4636 -0.0992
  164SAPE  H10X18414   4.718   4.535   3.614 -0.5579  0.8012  1.0947
  164SAPE  H10Y18415   4.881   4.566   3.564 -1.6412 -0.9319 -2.1688
  164SAPE  C31118416   4.842   4.557   3.786 -0.0390 -0.4395 -0.3084
  164SAPE  H11X18417   4.945   4.531   3.817 -0.5787 -1.4656  0.7122
  164SAPE  H11Y18418   4.767   4.497   3.841  0.4185  0.8600  1.8356
  164SAPE  C31218419   4.816   4.708   3.804 -0.3627 -0.1161  0.1873
  164SAPE  H12X18420   4.718   4.741   3.765 -0.3525  1.2202  1.2271
  164SAPE  H12Y18421   4.893   4.762   3.744 -0.5107  1.1966  1.1284
  164SAPE  C31318422   4.836   4.740   3.955 -0.4687  0.3389  0.0346
  164SAPE  H13X18423   4.942   4.727   3.985 -0.8941  1.2207  2.0988
  164SAPE  H13Y18424   4.786   4.666   4.021 -0.5425  1.5060  1.3278
  164SAPE  C31418425   4.804   4.884   3.991  0.0668 -0.5678  0.6940
  164SAPE  H14X18426   4.899   4.941   3.987  0.2205 -0.7726  1.3636
  164SAPE  H14Y18427   4.775   4.882   4.098  1.6437  0.7589  1.1856
  164SAPE  C31518428   4.686   4.945   3.911  0.2264  0.5468 -0.2820
  164SAPE  H15X18429   4.597   4.880   3.925 -0.7190  1.3941 -2.0100
  164SAPE  H15Y18430   4.699   4.961   3.802 -2.8586  1.8735 -0.5544
  164SAPE  C31618431   4.630   5.083   3.984 -1.0189  0.2068  1.3358
  164SAPE  H16X18432   4.538   5.123   3.936 -1.2160 -0.0981  1.4526
  164SAPE  H16Y18433   4.713   5.157   3.978  0.9544 -1.9999 -1.0685
  164SAPE  C31718434   4.589   5.058   4.129  0.6207 -0.0800  0.0768
  164SAPE  H17X18435   4.671   5.095   4.194 -1.4285  3.0340  1.0740
  164SAPE  H17Y18436   4.559   4.952   4.148 -1.5510  0.1866 -1.5051
  164SAPE  C31818437   4.457   5.132   4.180 -1.2853 -0.2309  0.2777
  164SAPE  H18X18438   4.431   5.103   4.283 -3.2528  3.8504  1.1262
  164SAPE  H18Y18439   4.374   5.093   4.117  0.1849 -0.8446 -1.3798
  164SAPE  H18Z18440   4.471   5.242   4.168  0.3574 -0.2627  1.4996
  165SAPE     N18441   1.244   1.503   2.272  0.2359 -0.5050  0.5348
  165SAPE   HN118442   1.174   1.452   2.330  0.0386 -1.0681 -0.1830
  165SAPE   HN218443   1.211   1.601   2.261  0.9689 -0.3933 -0.8993
  165SAPE   HN318444   1.229   1.465   2.176 -1.5487  2.1733 -0.3656
  165SAPE   C1218445   1.389   1.512   2.300  0.2092  0.3644  0.0488
  165SAPE  H12A18446   1.407   1.615   2.337 -1.4519  0.4375  0.7232
  165SAPE  H12B18447   1.445   1.493   2.206 -0.7087 -0.6461 -0.3154
  165SAPE   C1118448   1.420   1.422   2.420 -0.3937 -0.1548  0.0372
  165SAPE  H11A18449   1.378   1.476   2.507  0.5233  1.2978 -0.3986
  165SAPE  H11B18450   1.531   1.419   2.433 -0.5526 -0.6305  1.5261
  165SAPE     P18451   1.418   1.176   2.307 -0.4769  0.3364 -0.0216
  165SAPE   O1318452   1.325   1.064   2.308  0.1291 -0.1250  0.2031
  165SAPE   O1418453   1.448   1.229   2.172  0.3833 -0.6281 -0.3212
  165SAPE   O1218454   1.376   1.287   2.407  0.4004 -0.2449  0.3319
  165SAPE   O1118455   1.549   1.120   2.372  0.2620 -1.0482  0.0987
  165SAPE    C118456   1.673   1.183   2.342 -0.5855 -0.0680  0.0448
  165SAPE    HA18457   1.716   1.112   2.268 -0.5286 -1.8037  1.6841
  165SAPE    HB18458   1.663   1.283   2.296  0.0545  0.7537  1.6136
  165SAPE    C218459   1.754   1.205   2.471  0.9590  0.9612  0.0409
  165SAPE    HS18460   1.794   1.105   2.498  1.1903  1.2251  0.7003
  165SAPE   O2118461   1.662   1.259   2.572 -0.9614  0.4495  0.3271
  165SAPE   C2118462   1.645   1.187   2.675 -0.0899  0.6913 -0.3486
  165SAPE   O2218463   1.679   1.071   2.695  0.1024  0.2098 -0.0171
  165SAPE   C2218464   1.567   1.263   2.782 -0.4234 -0.0156 -0.1701
  165SAPE   H2R18465   1.610   1.363   2.803 -1.1210  0.1183  0.6903
  165SAPE   H2S18466   1.463   1.268   2.745 -1.3034  0.0220  2.1316
  165SAPE    C318467   1.879   1.294   2.436 -0.0302  0.1003 -0.2830
  165SAPE    HX18468   1.847   1.400   2.424 -1.7052 -0.2483  0.7118
  165SAPE    HY18469   1.930   1.265   2.342  0.7215  0.1310  0.1072
  165SAPE   O3118470   1.958   1.308   2.554 -0.6599  0.1632 -0.2001
  165SAPE   C3118471   2.052   1.214   2.562 -0.3126 -0.0222 -0.6959
  165SAPE   O3218472   2.062   1.128   2.477 -0.3879 -0.2828  0.1658
  165SAPE   C3218473   2.118   1.217   2.690  0.2481  0.1953 -0.4736
  165SAPE   H2X18474   2.208   1.279   2.677  1.7490 -1.9444 -0.8410
  165SAPE   H2Y18475   2.150   1.112   2.705  1.4934  0.2696 -2.2872
  165SAPE   C2318476   1.558   1.172   2.910  0.0989  0.5570 -0.8072
  165SAPE   H3R18477   1.538   1.067   2.879 -0.2402  0.6684 -0.9613
  165SAPE   H3S18478   1.463   1.199   2.961 -0.6103 -1.0306 -1.2207
  165SAPE   C2418479   1.686   1.169   2.998 -0.7939 -0.4102 -0.2819
  165SAPE   H4R18480   1.728   1.269   3.020 -4.4220  1.2404 -0.1954
  165SAPE   H4S18481   1.755   1.124   2.922  0.0266  0.2585  0.0475
  165SAPE   C2518482   1.672   1.067   3.111  0.4268 -0.1751  0.0497
  165SAPE   H5R18483   1.646   0.972   3.063 -0.6762  1.8460 -3.8190
  165SAPE   C2618484   1.696   1.084   3.240 -0.5011  0.4118 -0.2393
  165SAPE   H6R18485   1.666   1.006   3.311 -0.5703  0.1857 -0.5124
  165SAPE   C2718486   1.736   1.213   3.307  0.5003  0.3735  0.3475
  165SAPE   H7R18487   1.805   1.276   3.246  0.2973 -0.0047 -0.2777
  165SAPE   H7S18488   1.795   1.186   3.397  1.9319  2.8182  0.2392
  165SAPE   C2818489   1.613   1.291   3.340  0.1586  0.0417 -0.0802
  165SAPE   H8R18490   1.553   1.305   3.248  2.2778 -2.5025 -2.0046
  165SAPE   C2918491   1.588   1.359   3.452  0.2663 -0.4411 -0.3002
  165SAPE   H9R18492   1.482   1.387   3.463 -0.0222 -0.7581 -2.0565
  165SAPE  C21018493   1.667   1.356   3.579 -0.0016 -0.2748 -0.1476
  165SAPE  H10R18494   1.713   1.456   3.594 -2.1711  1.1770 -2.3999
  165SAPE  H10S18495   1.755   1.290   3.564  0.4497  0.1951  0.3469
  165SAPE  C21118496   1.576   1.313   3.696 -0.4674  0.3205 -0.7628
  165SAPE  H11R18497   1.541   1.209   3.692  2.3438 -0.7995  0.7814
  165SAPE  C21218498   1.548   1.387   3.808 -0.6793  0.2184 -0.3231
  165SAPE  H12R18499   1.471   1.359   3.881  1.1279 -0.8863  1.2659
  165SAPE  C21318500   1.619   1.521   3.834  0.7328 -0.2773 -0.2310
  165SAPE  H13R18501   1.624   1.584   3.743  2.1621 -0.1431 -0.0824
  165SAPE  H13S18502   1.725   1.508   3.865  0.0310 -0.5761  2.2227
  165SAPE  C21418503   1.563   1.606   3.951  0.0960  0.5028 -0.3572
  165SAPE  H14R18504   1.521   1.702   3.917  0.0983  0.4625 -0.4756
  165SAPE  C21518505   1.532   1.566   4.072 -0.1308 -0.6464 -0.2550
  165SAPE  H15R18506   1.505   1.643   4.146 -2.4347  0.1745 -1.8022
  165SAPE  C21618507   1.548   1.429   4.136  0.7322  0.6343 -0.3724
  165SAPE  H16R18508   1.520   1.356   4.058  0.0379  1.9929 -1.4385
  165SAPE  H16S18509   1.474   1.410   4.217  0.1558 -0.2282 -1.0849
  165SAPE  C21718510   1.682   1.402   4.197  0.0857 -0.3147 -0.5538
  165SAPE  H17R18511   1.763   1.404   4.121  1.4492  0.4009  0.8630
  165SAPE  H17S18512   1.675   1.296   4.231  1.2999  0.6260  3.0671
  165SAPE  C21818513   1.723   1.490   4.314  0.0199  0.8459 -0.2043
  165SAPE  H18R18514   1.775   1.414   4.377 -0.2320 -0.5414 -1.6001
  165SAPE  H18S18515   1.629   1.524   4.363  0.1860 -0.4891  1.1088
  165SAPE  C21918516   1.795   1.619   4.289  0.2985  0.2395 -0.6032
  165SAPE  H19R18517   1.721   1.692   4.250  0.1793 -0.3889 -1.5833
  165SAPE  H19S18518   1.872   1.602   4.210  0.7231  1.5071 -0.4852
  165SAPE  C22018519   1.866   1.684   4.413  0.5127 -0.1600  0.2850
  165SAPE  H20R18520   1.938   1.768   4.399  0.3286  0.4168  2.3780
  165SAPE  H20S18521   1.927   1.604   4.461 -0.2366 -0.8048  0.1656
  165SAPE  H20T18522   1.787   1.727   4.478 -0.6699 -2.6111  0.5385
  165SAPE   C3318523   2.030   1.258   2.805 -0.0368  0.1226  0.0897
  165SAPE   H3X18524   1.953   1.181   2.827 -1.2498  0.6313 -2.0937
  165SAPE   H3Y18525   1.967   1.347   2.781  1.0290  0.9954  0.4193
  165SAPE   C3418526   2.110   1.281   2.932  0.3240 -0.4693  0.4776
  165SAPE   H4X18527   2.195   1.347   2.901 -2.5453  2.7706 -1.1904
  165SAPE   H4Y18528   2.149   1.186   2.973  0.9462  0.2273  1.5652
  165SAPE   C3518529   2.032   1.338   3.053  0.2995  0.2364  0.4415
  165SAPE   H5X18530   1.939   1.282   3.078  0.8828 -0.6298  0.7071
  165SAPE   H5Y18531   1.992   1.433   3.011 -0.5028 -0.7274 -1.0444
  165SAPE   C3618532   2.108   1.377   3.185 -0.2353 -0.3148  0.8520
  165SAPE   H6X18533   2.037   1.434   3.249 -0.1352 -0.1186  0.7872
  165SAPE   H6Y18534   2.186   1.453   3.163  1.3486 -1.7948  1.1247
  165SAPE   C3718535   2.165   1.251   3.264 -0.4096 -1.0405  0.3150
  165SAPE   H7X18536   2.253   1.207   3.212 -0.5435  0.7286 -1.5540
  165SAPE   H7Y18537   2.091   1.169   3.260  1.0341 -2.3496 -1.1047
  165SAPE   C3818538   2.213   1.287   3.407  0.1167 -0.6391 -0.4306
  165SAPE   H8X18539   2.281   1.374   3.420 -1.4169  0.3423  1.4465
  165SAPE   H8Y18540   2.269   1.200   3.449  2.0025  0.0685 -1.3524
  165SAPE   C3918541   2.091   1.329   3.500  0.7327 -0.5273  0.3835
  165SAPE   H9X18542   2.018   1.246   3.508 -0.4930  0.2264 -2.0518
  165SAPE   H9Y18543   2.037   1.414   3.452 -1.3684 -0.4989  2.6117
  165SAPE  C31018544   2.134   1.369   3.641  0.1676 -0.6587 -0.8161
  165SAPE  H10X18545   2.164   1.476   3.641 -2.2802  0.0831 -0.4241
  165SAPE  H10Y18546   2.220   1.308   3.676 -0.0363  0.6470  2.2215
  165SAPE  C31118547   2.015   1.366   3.752 -0.1379 -0.6068 -0.3170
  165SAPE  H11X18548   1.975   1.262   3.754 -0.4585 -0.5057  2.2693
  165SAPE  H11Y18549   1.930   1.421   3.707  0.8093  0.1982 -1.1589
  165SAPE  C31218550   2.055   1.412   3.898 -0.1557 -0.6565 -0.2174
  165SAPE  H12X18551   1.979   1.378   3.971 -0.2623  1.3710  0.7097
  165SAPE  H12Y18552   2.067   1.523   3.898 -1.7094 -0.4567 -0.8311
  165SAPE  C31318553   2.190   1.359   3.955  0.3385 -0.3188  0.4792
  165SAPE  H13X18554   2.264   1.395   3.881 -0.8135 -2.3259 -1.7701
  165SAPE  H13Y18555   2.194   1.249   3.941  3.1816 -0.5021  2.0197
  165SAPE  C31418556   2.230   1.420   4.090 -0.0271 -0.2197 -0.8528
  165SAPE  H14X18557   2.278   1.520   4.076 -1.1815  0.6227  0.8750
  165SAPE  H14Y18558   2.309   1.352   4.129  0.1542  0.0337 -0.7751
  165SAPE  C31518559   2.111   1.424   4.188  0.2729  0.2992 -0.7520
  165SAPE  H15X18560   2.038   1.491   4.137  0.4921  2.1567  1.2568
  165SAPE  H15Y18561   2.149   1.488   4.270  3.0955 -0.8117 -1.0922
  165SAPE  C31618562   2.047   1.290   4.231  0.0584  0.6681  0.0340
  165SAPE  H16X18563   2.009   1.224   4.150  0.4120  0.0738  0.3396
  165SAPE  H16Y18564   1.964   1.317   4.300  0.2932  0.1432  0.5325
  165SAPE  C31718565   2.153   1.208   4.314  0.0958  0.7225 -0.3560
  165SAPE  H17X18566   2.223   1.159   4.243 -0.7855 -0.5963 -0.3693
  165SAPE  H17Y18567   2.090   1.121   4.344  1.5308  0.1476  1.1480
  165SAPE  C31818568   2.215   1.255   4.439 -0.1865  0.7861 -0.5176
  165SAPE  H18X18569   2.132   1.292   4.502 -1.1121 -0.0402 -1.2268
  165SAPE  H18Y18570   2.278   1.343   4.415  1.4479 -0.5526 -1.4543
  165SAPE  H18Z18571   2.268   1.174   4.494  0.1451  0.8629 -0.7177
  166SAPE     N18572   3.124   0.737   1.925 -0.1719  0.1963  0.5532
  166SAPE   HN118573   3.029   0.747   1.965 -0.6069  2.3839 -0.8732
  166SAPE   HN218574   3.119   0.642   1.884 -0.9641 -0.3440  1.8368
  166SAPE   HN318575   3.205   0.724   1.989 -0.7429 -1.0783  1.0572
  166SAPE   C1218576   3.146   0.828   1.810 -0.1480 -0.9566 -0.1128
  166SAPE  H12A18577   3.044   0.841   1.768  0.2857 -0.3450 -1.0164
  166SAPE  H12B18578   3.208   0.786   1.728  0.8203  1.2574 -0.5865
  166SAPE   C1118579   3.214   0.958   1.854 -0.4265 -0.0737  0.2519
  166SAPE  H11A18580   3.234   1.027   1.769  0.6458  1.0479  1.3826
  166SAPE  H11B18581   3.314   0.934   1.896  1.3101  3.0090 -1.6976
  166SAPE     P18582   3.194   1.108   2.065  0.3010  0.0729  0.1633
  166SAPE   O1318583   3.341   1.117   2.040 -0.1677  0.2864  0.3732
  166SAPE   O1418584   3.124   1.234   2.074  0.1643  0.1855 -0.3616
  166SAPE   O1218585   3.127   1.027   1.946  0.3742  0.4199 -0.4112
  166SAPE   O1118586   3.153   1.022   2.201  0.6275  0.3055  0.3006
  166SAPE    C118587   3.238   0.916   2.234 -0.3218  0.2372 -0.5902
  166SAPE    HA18588   3.191   0.817   2.213  2.5306 -1.5373  0.6650
  166SAPE    HB18589   3.337   0.911   2.183  1.6006  0.2922  2.8140
  166SAPE    C218590   3.286   0.930   2.382 -0.3933 -0.3477  0.1630
  166SAPE    HS18591   3.193   0.935   2.442 -0.1096  0.5680  0.5331
  166SAPE   O2118592   3.373   1.039   2.386 -0.0164 -0.3882 -0.5233
  166SAPE   C2118593   3.347   1.120   2.486 -0.1074  0.3503  0.0046
  166SAPE   O2218594   3.289   1.087   2.588  0.2535 -0.6283 -0.2756
  166SAPE   C2218595   3.408   1.259   2.465  0.2765  0.6438  0.0219
  166SAPE   H2R18596   3.436   1.270   2.358  0.2039  0.5787 -0.0043
  166SAPE   H2S18597   3.326   1.328   2.493  1.7377  1.6362  2.0675
  166SAPE    C318598   3.356   0.808   2.430  0.1338  0.6289 -0.9448
  166SAPE    HX18599   3.460   0.805   2.390  0.9705  1.6989  0.9769
  166SAPE    HY18600   3.304   0.723   2.381  1.2783 -1.7076  1.5769
  166SAPE   O3118601   3.346   0.792   2.570  1.0500  0.7943 -0.8540
  166SAPE   C3118602   3.439   0.738   2.637 -0.0219  0.0542 -0.3802
  166SAPE   O3218603   3.546   0.702   2.597  0.2815 -0.1634 -0.1468
  166SAPE   C3218604   3.390   0.732   2.781 -0.4691 -0.0161  0.0713
  166SAPE   H2X18605   3.433   0.646   2.836  2.7704  1.3555 -0.1343
  166SAPE   H2Y18606   3.280   0.722   2.766 -0.4310  2.4280 -2.7254
  166SAPE   C2318607   3.516   1.293   2.566 -0.1528 -0.6584  0.2064
  166SAPE   H3R18608   3.612   1.262   2.519  0.9236 -2.0417  3.1189
  166SAPE   H3S18609   3.514   1.241   2.664  1.7762 -0.5502  0.3269
  166SAPE   C2418610   3.536   1.444   2.592 -0.6606  0.2477 -0.9510
  166SAPE   H4R18611   3.455   1.461   2.666  0.3296 -0.2235  0.2807
  166SAPE   H4S18612   3.515   1.506   2.502  1.6295 -0.2627 -1.9070
  166SAPE   C2518613   3.670   1.483   2.659  0.2078 -0.6111  0.1553
  166SAPE   H5R18614   3.751   1.501   2.587  1.2479 -2.1267  0.8910
  166SAPE   C2618615   3.694   1.511   2.785 -0.4855 -0.1461 -0.1802
  166SAPE   H6R18616   3.800   1.530   2.807 -0.6101  0.0822  0.2418
  166SAPE   C2718617   3.597   1.484   2.901  0.5762  0.3172  0.4287
  166SAPE   H7R18618   3.492   1.483   2.863  0.7317 -1.4085 -0.0038
  166SAPE   H7S18619   3.597   1.565   2.978  1.5110  0.1283  0.6336
  166SAPE   C2818620   3.623   1.344   2.962  0.1893 -0.3317 -0.3723
  166SAPE   H8R18621   3.671   1.279   2.888  0.6235 -1.6492  1.0263
  166SAPE   C2918622   3.617   1.304   3.091 -0.5601 -0.1486  0.4292
  166SAPE   H9R18623   3.645   1.198   3.099  1.8078  0.3550 -0.3547
  166SAPE  C21018624   3.566   1.373   3.215 -0.5430 -0.2174 -0.4236
  166SAPE  H10R18625   3.546   1.295   3.292 -0.0254 -0.0373 -0.1044
  166SAPE  H10S18626   3.468   1.421   3.196  0.1626  0.8506 -1.5233
  166SAPE  C21118627   3.664   1.473   3.253 -0.2795 -0.2139 -0.4024
  166SAPE  H11R18628   3.675   1.558   3.183  0.6126 -1.7402 -2.2011
  166SAPE  C21218629   3.731   1.467   3.378 -0.4435 -0.1354 -1.0241
  166SAPE  H12R18630   3.803   1.549   3.389 -1.5359  0.5454  1.6928
  166SAPE  C21318631   3.728   1.352   3.483  0.2700 -0.0896 -0.0665
  166SAPE  H13R18632   3.693   1.257   3.438 -0.4575  0.1758 -0.0718
  166SAPE  H13S18633   3.659   1.381   3.565  1.4541  0.8548  0.6151
  166SAPE  C21418634   3.873   1.333   3.535  1.1315  0.4985 -0.4324
  166SAPE  H14R18635   3.949   1.334   3.456  1.2845  0.3568 -0.2885
  166SAPE  C21518636   3.918   1.318   3.659 -0.1303  0.1793 -0.0566
  166SAPE  H15R18637   4.027   1.325   3.676  0.0869 -0.0232 -1.2237
  166SAPE  C21618638   3.829   1.305   3.779 -0.5184  0.4285  0.5794
  166SAPE  H16R18639   3.863   1.214   3.832 -1.5063 -0.4271 -0.2101
  166SAPE  H16S18640   3.727   1.282   3.741  0.4739  0.8980 -2.7027
  166SAPE  C21718641   3.836   1.429   3.862  0.2296  0.8619 -0.2571
  166SAPE  H17R18642   3.941   1.445   3.891 -0.4716  1.9157  1.8710
  166SAPE  H17S18643   3.781   1.392   3.951  0.1805  0.1056 -0.5930
  166SAPE  C21818644   3.790   1.558   3.797  0.7594 -0.7246 -0.7140
  166SAPE  H18R18645   3.685   1.552   3.760 -0.4381 -1.5476  2.4831
  166SAPE  H18S18646   3.856   1.580   3.710 -0.8845 -0.5933 -1.9838
  166SAPE  C21918647   3.811   1.681   3.893  0.1631 -0.5365  0.2656
  166SAPE  H19R18648   3.780   1.775   3.841 -0.5078  0.2529  2.0247
  166SAPE  H19S18649   3.919   1.689   3.915  0.3786 -2.5142  0.1189
  166SAPE  C22018650   3.735   1.666   4.023  0.1969 -0.0628  0.1118
  166SAPE  H20R18651   3.797   1.697   4.110  0.3562 -0.6843  0.2247
  166SAPE  H20S18652   3.691   1.564   4.028  2.4489 -1.2620 -2.2635
  166SAPE  H20T18653   3.651   1.739   4.023  0.1848 -0.0684 -0.6668
  166SAPE   C3318654   3.438   0.853   2.861 -0.1510 -0.1443 -0.2140
  166SAPE   H3X18655   3.406   0.950   2.820 -1.2725  0.5008  2.0178
  166SAPE   H3Y18656   3.549   0.858   2.861  0.2239 -4.2384  0.6510
  166SAPE   C3418657   3.379   0.852   3.001 -0.3667 -0.5053 -0.7184
  166SAPE   H4X18658   3.270   0.836   2.984 -0.5176 -0.6979  0.3492
  166SAPE   H4Y18659   3.391   0.955   3.041 -1.9986 -0.3019 -0.6686
  166SAPE   C3518660   3.437   0.748   3.100 -0.4609  0.0702 -0.0505
  166SAPE   H5X18661   3.546   0.737   3.089 -0.5690 -1.5192  0.2959
  166SAPE   H5Y18662   3.389   0.650   3.083 -0.6447 -0.0096  0.8802
  166SAPE   C3618663   3.407   0.776   3.250 -0.7072  0.2774 -0.5490
  166SAPE   H6X18664   3.453   0.696   3.312 -0.1333  1.6687  0.8926
  166SAPE   H6Y18665   3.297   0.785   3.266 -0.8384  0.8148 -1.6672
  166SAPE   C3718666   3.475   0.903   3.310 -0.4097  0.3126  0.1334
  166SAPE   H7X18667   3.420   0.991   3.270 -0.9892  0.2905  0.8612
  166SAPE   H7Y18668   3.576   0.894   3.263  0.2126  0.1054  1.4552
  166SAPE   C3818669   3.484   0.909   3.463  0.6877 -0.2243  0.3174
  166SAPE   H8X18670   3.526   0.812   3.497  2.0907 -0.1878 -1.2360
  166SAPE   H8Y18671   3.377   0.904   3.495  0.6316  0.0899  0.1790
  166SAPE   C3918672   3.564   1.026   3.509 -0.7867 -0.5449 -0.5180
  166SAPE   H9X18673   3.539   1.109   3.439 -2.4770 -1.2511 -0.8215
  166SAPE   H9Y18674   3.669   0.995   3.495 -0.4460  0.0116  0.6955
  166SAPE  C31018675   3.536   1.061   3.650 -0.3191  0.3928 -0.0644
  166SAPE  H10X18676   3.429   1.081   3.670  0.0170  1.8823  0.4491
  166SAPE  H10Y18677   3.577   1.162   3.673  0.4821 -0.6817  4.0828
  166SAPE  C31118678   3.606   0.963   3.756  0.1217 -0.2881 -0.5972
  166SAPE  H11X18679   3.717   0.965   3.750  0.2992  1.0559  1.8204
  166SAPE  H11Y18680   3.565   0.860   3.745 -0.4925 -0.1197  0.0705
  166SAPE  C31218681   3.576   1.004   3.898  0.5180  0.0805 -0.2272
  166SAPE  H12X18682   3.467   1.021   3.913  0.4715 -0.9725  0.6953
  166SAPE  H12Y18683   3.620   1.103   3.923 -0.7751  0.4175  0.8298
  166SAPE  C31318684   3.626   0.905   4.001  0.1124  0.1886 -0.1068
  166SAPE  H13X18685   3.621   0.806   3.950 -1.1786  0.1954 -0.0252
  166SAPE  H13Y18686   3.555   0.911   4.086  2.1547  0.2886  1.6876
  166SAPE  C31418687   3.769   0.930   4.046 -0.1828 -0.1377 -0.0712
  166SAPE  H14X18688   3.844   0.960   3.970  2.8047 -0.5133  2.5007
  166SAPE  H14Y18689   3.803   0.836   4.095 -1.4915 -1.2011 -1.1304
  166SAPE  C31518690   3.771   1.032   4.161  0.3445 -0.2505  0.1659
  166SAPE  H15X18691   3.683   1.010   4.226 -0.7493  0.4108 -1.0631
  166SAPE  H15Y18692   3.766   1.130   4.109  0.8757 -1.1496 -1.6481
  166SAPE  C31618693   3.894   1.024   4.255  0.1776 -0.2937  0.1930
  166SAPE  H16X18694   3.984   1.033   4.191  0.1063  2.9991  0.3989
  166SAPE  H16Y18695   3.877   0.929   4.310  0.8064 -0.4944  0.0459
  166SAPE  C31718696   3.904   1.148   4.341  0.3581 -0.1427  0.5426
  166SAPE  H17X18697   3.803   1.163   4.385  1.4101 -1.9049  3.8597
  166SAPE  H17Y18698   3.928   1.240   4.283  0.9740 -2.0571 -2.4715
  166SAPE  C31818699   4.000   1.144   4.462 -0.5593  0.2655  0.2709
  166SAPE  H18X18700   3.996   1.238   4.522 -1.9100  0.6169 -0.3484
  166SAPE  H18Y18701   4.104   1.117   4.432 -0.6493 -0.3704  0.5056
  166SAPE  H18Z18702   3.976   1.062   4.533 -2.3239  1.2378  0.8409
  167SAPE     N18703   5.467   3.730   2.267  0.7382 -0.2291  0.3407
  167SAPE   HN118704   5.397   3.658   2.295  0.6784 -0.2090  0.2425
  167SAPE   HN218705   5.453   3.746   2.165 -3.1198 -1.2450  0.5681
  167SAPE   HN318706   5.566   3.699   2.276  0.6240 -1.1721 -1.2566
  167SAPE   C1218707   5.445   3.844   2.361 -0.3498 -0.0671  0.4093
  167SAPE  H12A18708   5.414   3.803   2.459 -2.7277 -0.1594 -0.3274
  167SAPE  H12B18709   5.371   3.912   2.312  0.1005 -0.7587 -1.3042
  167SAPE   C1118710   5.575   3.930   2.380 -0.1498 -0.2534 -0.0082
  167SAPE  H11A18711   5.663   3.878   2.425  0.2943  1.2937  0.9956
  167SAPE  H11B18712   5.551   4.006   2.458  2.4888 -0.9865  1.6618
  167SAPE     P18713   5.530   4.135   2.219  0.0019 -0.1775  0.2833
  167SAPE   O1318714   5.621   4.212   2.129 -0.5970 -0.7954 -0.0068
  167SAPE   O1418715   5.401   4.098   2.161 -0.3185  0.0389 -0.1164
  167SAPE   O1218716   5.597   3.997   2.255 -0.3725  0.1667  0.0663
  167SAPE   O1118717   5.506   4.205   2.358 -0.4872  0.4230 -0.1640
  167SAPE    C118718   5.376   4.247   2.397 -0.0284 -0.0758  0.0779
  167SAPE    HA18719   5.357   4.337   2.334 -2.6710 -1.0570 -0.6749
  167SAPE    HB18720   5.291   4.179   2.375 -2.1515  2.9129 -1.8858
  167SAPE    C218721   5.361   4.291   2.542 -0.1374  0.0370 -0.3771
  167SAPE    HS18722   5.444   4.358   2.572 -1.2062  1.7576 -1.1026
  167SAPE   O2118723   5.354   4.169   2.619 -0.3575  0.1406  0.0568
  167SAPE   C2118724   5.457   4.128   2.675  0.3127 -0.0934 -0.1108
  167SAPE   O2218725   5.567   4.185   2.679 -0.2415 -0.0598 -0.1802
  167SAPE   C2218726   5.424   4.001   2.749 -0.1581 -0.3408  0.4826
  167SAPE   H2R18727   5.363   3.945   2.675 -0.2922  1.1027 -0.5425
  167SAPE   H2S18728   5.521   3.949   2.765 -0.5473 -1.3001 -0.1643
  167SAPE    C318729   5.222   4.380   2.550  0.4683  0.4056 -0.0382
  167SAPE    HX18730   5.137   4.319   2.510  0.5967 -0.0944  0.4366
  167SAPE    HY18731   5.230   4.472   2.489 -0.0276 -0.0978 -0.8762
  167SAPE   O3118732   5.190   4.413   2.690  0.0464 -0.0140  0.2812
  167SAPE   C3118733   5.069   4.467   2.712 -0.1204 -0.3172 -0.0754
  167SAPE   O3218734   4.978   4.476   2.627  0.2165  0.4844 -0.0679
  167SAPE   C3218735   5.058   4.513   2.854 -0.8342 -0.0201 -0.7218
  167SAPE   H2X18736   5.145   4.576   2.880 -1.6773  1.8615 -2.2519
  167SAPE   H2Y18737   5.062   4.428   2.925 -1.1105  0.4972 -0.0719
  167SAPE   C2318738   5.351   4.021   2.888  0.0262  0.2750 -0.0835
  167SAPE   H3R18739   5.416   4.070   2.964  0.4743 -0.6133  0.1204
  167SAPE   H3S18740   5.317   3.920   2.917 -4.2453  1.3759 -0.6883
  167SAPE   C2418741   5.212   4.096   2.875  0.0955 -0.1140 -0.2260
  167SAPE   H4R18742   5.160   4.073   2.780 -0.5336  2.2353 -0.5284
  167SAPE   H4S18743   5.234   4.205   2.878 -0.5257  0.0043  2.2598
  167SAPE   C2518744   5.114   4.068   2.990 -0.2577 -0.0831  0.4200
  167SAPE   H5R18745   5.027   4.008   2.961  1.0058 -0.3210 -3.4769
  167SAPE   C2618746   5.124   4.121   3.114 -0.2170  0.8202  1.1128
  167SAPE   H6R18747   5.046   4.091   3.186 -1.4059 -1.9723 -1.1068
  167SAPE   C2718748   5.246   4.185   3.168 -0.3726  0.1873 -0.5890
  167SAPE   H7R18749   5.338   4.124   3.152  0.5333  1.3557  0.0377
  167SAPE   H7S18750   5.236   4.187   3.278  1.4432  1.0916 -0.4158
  167SAPE   C2818751   5.267   4.328   3.123  0.2146 -0.0348  0.4954
  167SAPE   H8R18752   5.315   4.328   3.024 -0.6261 -0.0540  0.0764
  167SAPE   C2918753   5.223   4.439   3.185  0.1411  0.3840 -0.0727
  167SAPE   H9R18754   5.238   4.542   3.150 -1.6457  0.9404  0.6599
  167SAPE  C21018755   5.147   4.438   3.316 -0.5229 -0.6036  0.2378
  167SAPE  H10R18756   5.168   4.346   3.375  3.9522 -0.2685 -0.4698
  167SAPE  H10S18757   5.037   4.431   3.299 -0.6182  0.1862  0.4779
  167SAPE  C21118758   5.179   4.558   3.408 -1.1112 -0.0889  0.5699
  167SAPE  H11R18759   5.138   4.654   3.373 -0.2940  0.1403  0.2108
  167SAPE  C21218760   5.249   4.545   3.524  0.1371  1.2354  0.1059
  167SAPE  H12R18761   5.262   4.632   3.590  1.3492  0.4835  0.9141
  167SAPE  C21318762   5.320   4.421   3.576  0.0839 -0.5636  0.5742
  167SAPE  H13R18763   5.331   4.347   3.494  1.3305 -2.4038  2.3115
  167SAPE  H13S18764   5.254   4.366   3.647  0.1292 -0.4640  0.6936
  167SAPE  C21418765   5.447   4.442   3.648 -0.3259 -0.2433 -0.1121
  167SAPE  H14R18766   5.530   4.399   3.590  1.8934  0.7953  2.0762
  167SAPE  C21518767   5.463   4.487   3.776  0.1310  0.1588 -0.5022
  167SAPE  H15R18768   5.564   4.493   3.817  0.9815 -1.4148 -2.2281
  167SAPE  C21618769   5.350   4.546   3.865  0.1438  0.4022 -0.4154
  167SAPE  H16R18770   5.331   4.487   3.957  3.0997 -1.3202 -0.7558
  167SAPE  H16S18771   5.252   4.556   3.814 -0.9932  0.1634  1.6248
  167SAPE  C21718772   5.382   4.691   3.904  0.0952 -0.2871 -1.1589
  167SAPE  H17R18773   5.410   4.754   3.816 -2.4652  4.5678  1.1102
  167SAPE  H17S18774   5.463   4.699   3.979  0.9979  2.7663 -2.2865
  167SAPE  C21818775   5.266   4.763   3.979 -0.0401 -0.1546  0.1602
  167SAPE  H18R18776   5.218   4.701   4.058 -0.6633  0.2089  0.0674
  167SAPE  H18S18777   5.188   4.783   3.903  1.3387  1.0437 -1.0107
  167SAPE  C21918778   5.314   4.893   4.045  0.4884 -0.0308 -0.3778
  167SAPE  H19R18779   5.373   4.945   3.967  1.4151 -0.6179 -0.0771
  167SAPE  H19S18780   5.388   4.877   4.126 -0.6754 -1.5301  0.4500
  167SAPE  C22018781   5.203   4.987   4.096 -0.2182 -0.0095  0.2045
  167SAPE  H20R18782   5.158   4.921   4.173  1.1803 -0.4280  0.7066
  167SAPE  H20S18783   5.137   5.015   4.012  0.9799  1.1401 -0.3888
  167SAPE  H20T18784   5.254   5.078   4.134 -2.3761  1.7704 -0.9765
  167SAPE   C3318785   4.916   4.577   2.877 -0.1781  0.9828  0.2190
  167SAPE   H3X18786   4.832   4.533   2.819  1.0594  0.8427 -1.5546
  167SAPE   H3Y18787   4.922   4.682   2.840  3.5539  0.5154 -0.8711
  167SAPE   C3418788   4.893   4.556   3.028  0.1494  0.3208 -0.0909
  167SAPE   H4X18789   4.982   4.590   3.085  0.8313 -1.2745 -0.1258
  167SAPE   H4Y18790   4.870   4.447   3.037 -1.1467  0.7395  2.4521
  167SAPE   C3518791   4.773   4.635   3.079  0.5832 -0.0791 -0.0765
  167SAPE   H5X18792   4.678   4.605   3.030  0.8943  1.0493 -1.4400
  167SAPE   H5Y18793   4.786   4.741   3.051 -1.4126  0.6986  1.7120
  167SAPE   C3618794   4.756   4.645   3.236  0.0365 -0.0545 -0.0451
  167SAPE   H6X18795   4.853   4.678   3.278 -0.7796 -0.4182  2.2649
  167SAPE   H6Y18796   4.729   4.542   3.266 -1.4908 -0.7920 -3.4521
  167SAPE   C3718797   4.638   4.741   3.267 -0.7355  0.1668 -0.2282
  167SAPE   H7X18798   4.555   4.734   3.194 -1.7733  0.0887  0.9156
  167SAPE   H7Y18799   4.662   4.850   3.266  0.8781 -0.1644 -0.1367
  167SAPE   C3818800   4.588   4.711   3.409 -0.5648  0.8543 -0.0087
  167SAPE   H8X18801   4.665   4.757   3.475 -0.8355  1.7556 -0.3033
  167SAPE   H8Y18802   4.574   4.603   3.429 -0.9192  1.2239  1.9554
  167SAPE   C3918803   4.458   4.791   3.457 -0.1430  0.4089 -0.3248
  167SAPE   H9X18804   4.373   4.754   3.396 -0.4078  2.6096 -1.3798
  167SAPE   H9Y18805   4.481   4.898   3.437 -1.3371  0.6450 -0.4634
  167SAPE  C31018806   4.440   4.775   3.605  0.1814 -0.2914 -0.5493
  167SAPE  H10X18807   4.521   4.820   3.666 -0.5496 -1.1457  1.1233
  167SAPE  H10Y18808   4.461   4.669   3.632 -0.0900 -0.0389  0.7551
  167SAPE  C31118809   4.296   4.804   3.656  0.0351  0.1934 -0.5935
  167SAPE  H11X18810   4.231   4.743   3.590  0.4416  0.2628 -1.0642
  167SAPE  H11Y18811   4.268   4.909   3.633 -0.5650  0.1959  0.1217
  167SAPE  C31218812   4.272   4.760   3.800 -0.5101 -0.3838  0.3315
  167SAPE  H12X18813   4.328   4.832   3.862  0.8253  0.4111 -1.7255
  167SAPE  H12Y18814   4.328   4.664   3.806  1.9715  0.9233 -0.5249
  167SAPE  C31318815   4.124   4.760   3.853  0.3375  0.0343  0.4778
  167SAPE  H13X18816   4.066   4.676   3.810  0.9456 -0.9376  1.4983
  167SAPE  H13Y18817   4.067   4.855   3.856  1.3105  0.6242  1.0716
  167SAPE  C31418818   4.135   4.727   4.007 -0.4268  0.6286  0.0878
  167SAPE  H14X18819   4.193   4.805   4.062  0.2739 -0.7946  1.4335
  167SAPE  H14Y18820   4.198   4.636   4.015  0.2052  1.2232  3.1387
  167SAPE  C31518821   3.999   4.720   4.077 -0.4013  1.3734 -0.5213
  167SAPE  H15X18822   3.938   4.646   4.022 -0.0266 -0.0419  0.8939
  167SAPE  H15Y18823   3.944   4.816   4.068 -1.5417  0.6910 -1.0185
  167SAPE  C31618824   4.008   4.674   4.226 -0.2578 -0.3427 -0.1060
  167SAPE  H16X18825   4.072   4.747   4.280 -0.6267 -0.2894  0.2714
  167SAPE  H16Y18826   4.076   4.588   4.216 -0.8980 -0.8247 -0.3814
  167SAPE  C31718827   3.881   4.625   4.299 -0.3086  0.0765 -0.4818
  167SAPE  H17X18828   3.909   4.584   4.398  2.9611 -1.6799 -1.9648
  167SAPE  H17Y18829   3.842   4.541   4.239 -0.5387 -0.5248  0.4881
  167SAPE  C31818830   3.781   4.739   4.325  0.0886  0.3204  0.3499
  167SAPE  H18X18831   3.709   4.710   4.405 -1.4779 -2.0572 -1.7654
  167SAPE  H18Y18832   3.733   4.760   4.227 -0.3857 -0.8977  0.2916
  167SAPE  H18Z18833   3.839   4.827   4.360  1.0515  0.6998 -2.0064
  168SAPE     N18834   0.271   6.028   2.230  0.0836 -0.2911  0.4158
  168SAPE   HN118835   0.365   5.983   2.232  0.9729  1.2556 -1.9335
  168SAPE   HN218836   0.261   6.081   2.318  0.8102  0.9290 -0.2042
  168SAPE   HN318837   0.204   5.949   2.228 -0.4851  0.2008 -0.6291
  168SAPE   C1218838   0.245   6.129   2.117 -0.4065 -0.9342  0.4550
  168SAPE  H12A18839   0.154   6.182   2.152 -0.0375  1.8179 -2.3141
  168SAPE  H12B18840   0.232   6.070   2.024  0.6787 -0.6718  0.1160
  168SAPE   C1118841   0.350   6.246   2.109  0.7188  0.4150  0.1450
  168SAPE  H11A18842   0.284   6.335   2.107 -0.1644 -0.2153  0.6777
  168SAPE  H11B18843   0.412   6.242   2.017  0.8704  0.9529  0.2213
  168SAPE     P18844   0.549   6.359   2.249  0.4266 -0.6233  0.3128
  168SAPE   O1318845   0.661   6.283   2.304 -0.0362 -0.5050 -0.6942
  168SAPE   O1418846   0.572   6.441   2.126 -0.3466 -0.3452 -0.2392
  168SAPE   O1218847   0.441   6.253   2.217 -0.1418  0.2510 -0.3955
  168SAPE   O1118848   0.488   6.447   2.368 -0.0711  0.0265 -0.2967
  168SAPE    C118849   0.380   6.405   2.445 -0.0134 -0.3937 -0.5481
  168SAPE    HA18850   0.285   6.434   2.395 -0.3942 -0.8880 -0.1174
  168SAPE    HB18851   0.381   6.294   2.448  1.7364 -0.4115 -0.3806
  168SAPE    C218852   0.393   6.450   2.595  0.5292 -0.6279 -0.1963
  168SAPE    HS18853   0.327   6.385   2.656 -0.1084 -0.9262 -1.1754
  168SAPE   O2118854   0.364   6.589   2.614  0.2531 -0.0039  0.1746
  168SAPE   C2118855   0.238   6.622   2.614  0.3460 -0.2795  0.1435
  168SAPE   O2218856   0.143   6.551   2.581  0.5174 -0.2436 -0.1892
  168SAPE   C2218857   0.211   6.765   2.663  0.1290 -0.2587  0.3314
  168SAPE   H2R18858   0.282   6.799   2.742  1.1344  1.9720 -1.4259
  168SAPE   H2S18859   0.240   6.821   2.571 -0.6000 -2.5755 -1.3840
  168SAPE    C318860   0.542   6.413   2.634 -0.1732 -0.3340 -0.0196
  168SAPE    HX18861   0.617   6.473   2.578  1.8242 -1.2234  1.5667
  168SAPE    HY18862   0.573   6.312   2.598 -1.6169 -0.5731 -0.6561
  168SAPE   O3118863   0.559   6.415   2.778 -0.1541  0.7089  0.1533
  168SAPE   C3118864   0.685   6.406   2.812 -0.2515 -0.5220 -0.3899
  168SAPE   O3218865   0.772   6.380   2.730  0.8778 -0.0120 -0.2333
  168SAPE   C3218866   0.713   6.431   2.963  0.7513 -0.3512  0.1090
  168SAPE   H2X18867   0.689   6.343   3.026 -0.1418 -0.2560 -0.0814
  168SAPE   H2Y18868   0.653   6.517   3.001 -2.0801 -1.2995 -1.8369
  168SAPE   C2318869   0.072   6.814   2.711  0.1055 -0.0270  0.1767
  168SAPE   H3R18870  -0.009   6.786   2.641 -0.9130  1.2502  0.8096
  168SAPE   H3S18871   0.071   6.925   2.707  0.7139 -0.0465 -1.8795
  168SAPE   C2418872   0.035   6.760   2.858 -0.3942  0.8694  0.6123
  168SAPE   H4R18873   0.126   6.772   2.920  0.5932  1.5146 -0.8822
  168SAPE   H4S18874   0.001   6.656   2.839  0.8401  0.3516  1.1959
  168SAPE   C2518875  -0.077   6.820   2.932  0.5133  0.1428 -0.6932
  168SAPE   H5R18876  -0.165   6.837   2.868  1.1828  0.5844 -1.5135
  168SAPE   C2618877  -0.067   6.863   3.059  0.8315 -0.2705 -0.1883
  168SAPE   H6R18878  -0.160   6.907   3.099 -0.8451 -1.8619 -2.1210
  168SAPE   C2718879   0.041   6.830   3.155 -0.3855  0.3843  0.0901
  168SAPE   H7R18880   0.087   6.734   3.123  1.6425  1.9690 -2.0410
  168SAPE   H7S18881  -0.003   6.805   3.254 -1.0292  1.4105  0.0806
  168SAPE   C2818882   0.139   6.939   3.162 -0.0557 -0.5191  0.3516
  168SAPE   H8R18883   0.212   6.928   3.080  2.6340  3.0572  1.9899
  168SAPE   C2918884   0.143   7.040   3.250  0.0365  0.1647 -0.0058
  168SAPE   H9R18885   0.221   7.118   3.244 -1.9659  2.6156  2.6670
  168SAPE  C21018886   0.045   7.055   3.361  0.5465 -0.2173  0.5217
  168SAPE  H10R18887   0.092   7.120   3.438  0.9845  0.1671 -0.0543
  168SAPE  H10S18888   0.025   6.957   3.408 -0.5656  0.1132  0.7543
  168SAPE  C21118889  -0.084   7.122   3.313 -0.1083 -0.2114 -0.2431
  168SAPE  H11R18890  -0.091   7.144   3.206  2.3961  0.0149 -0.4196
  168SAPE  C21218891  -0.190   7.137   3.400  0.0800 -0.2007  0.9882
  168SAPE  H12R18892  -0.284   7.174   3.357 -0.0569 -1.1476  0.4431
  168SAPE  C21318893  -0.185   7.113   3.544  0.2481  0.4513  0.4502
  168SAPE  H13R18894  -0.112   7.030   3.557  2.0994  2.0718  0.8843
  168SAPE  H13S18895  -0.288   7.087   3.575  0.2333 -0.6623 -0.4927
  168SAPE  C21418896  -0.146   7.238   3.619 -0.1336 -0.2010 -0.7758
  168SAPE  H14R18897  -0.200   7.326   3.582  1.1851  0.0214 -2.2957
  168SAPE  C21518898  -0.074   7.243   3.735 -0.2544  0.0388 -0.1915
  168SAPE  H15R18899  -0.058   7.347   3.767 -1.4478  0.7083 -1.6226
  168SAPE  C21618900  -0.009   7.126   3.794 -0.6881  1.0460 -0.5714
  168SAPE  H16R18901   0.099   7.152   3.795 -0.4623  0.7011 -4.0424
  168SAPE  H16S18902  -0.003   7.040   3.724 -2.0403  0.8172 -0.4243
  168SAPE  C21718903  -0.043   7.084   3.937  0.2367  0.5022  0.7111
  168SAPE  H17R18904  -0.063   7.171   4.003 -0.0525  0.1489  1.0899
  168SAPE  H17S18905   0.045   7.035   3.984  1.4032 -0.0653 -1.8974
  168SAPE  C21818906  -0.155   6.990   3.945  0.1167  0.2521  0.0878
  168SAPE  H18R18907  -0.139   6.907   4.017 -0.2863 -0.2608 -0.4096
  168SAPE  H18S18908  -0.185   6.929   3.857  0.1468 -2.0000  1.5505
  168SAPE  C21918909  -0.280   7.074   3.992  0.2770  0.2045 -0.1085
  168SAPE  H19R18910  -0.304   7.152   3.916  2.0341 -0.8122 -1.7824
  168SAPE  H19S18911  -0.263   7.135   4.083  0.2791  0.3160 -0.1828
  168SAPE  C22018912  -0.401   6.991   4.000  0.1725  0.7710  0.5592
  168SAPE  H20R18913  -0.489   7.039   3.951  0.2507 -1.8609 -2.5204
  168SAPE  H20S18914  -0.423   6.952   4.102  0.1856 -0.9194 -0.0519
  168SAPE  H20T18915  -0.397   6.905   3.929 -1.7955  1.9226 -1.0472
  168SAPE   C3318916   0.863   6.458   2.994 -0.1122  0.6219 -0.6994
  168SAPE   H3X18917   0.919   6.519   2.921  1.9671  1.8221  1.7164
  168SAPE   H3Y18918   0.917   6.361   2.992  1.7935  1.6207  0.1212
  168SAPE   C3418919   0.908   6.535   3.123  0.3589  0.5825  0.4524
  168SAPE   H4X18920   0.871   6.639   3.134 -0.6406  0.3292 -0.3658
  168SAPE   H4Y18921   1.017   6.556   3.117  0.7031 -1.2536 -0.6242
  168SAPE   C3518922   0.902   6.445   3.244  0.1961  0.2391 -0.0926
  168SAPE   H5X18923   0.978   6.366   3.227  0.0133 -0.6283  2.6858
  168SAPE   H5Y18924   0.801   6.400   3.256 -0.6241  2.4895  2.4170
  168SAPE   C3618925   0.937   6.518   3.374  0.1829 -0.0453  0.4954
  168SAPE   H6X18926   0.889   6.617   3.393  0.5319 -0.3846  3.6903
  168SAPE   H6Y18927   1.040   6.555   3.353 -0.2002 -0.5402 -2.7656
  168SAPE   C3718928   0.915   6.427   3.497 -0.2519 -0.5845 -0.0918
  168SAPE   H7X18929   0.978   6.336   3.491  1.3396  0.5358 -1.1189
  168SAPE   H7Y18930   0.808   6.396   3.505 -0.8637  1.8314  3.8326
  168SAPE   C3818931   0.929   6.513   3.625 -0.1437  0.1004 -0.8855
  168SAPE   H8X18932   0.844   6.585   3.633  0.0757  0.4112 -1.3119
  168SAPE   H8Y18933   1.020   6.574   3.607 -0.2425  0.6394  0.3263
  168SAPE   C3918934   0.946   6.416   3.753  0.9459  0.1438  0.6964
  168SAPE   H9X18935   1.006   6.328   3.723  1.6681 -0.4124  3.5779
  168SAPE   H9Y18936   0.845   6.379   3.779  0.1985  1.0876 -0.6931
  168SAPE  C31018937   1.002   6.496   3.879 -0.0733  0.6374  0.9003
  168SAPE  H10X18938   0.970   6.602   3.875 -1.9371  0.0855 -1.4436
  168SAPE  H10Y18939   1.111   6.512   3.864  0.0947 -2.7923 -3.5781
  168SAPE  C31118940   0.969   6.431   4.013  0.1151  0.2176  0.8349
  168SAPE  H11X18941   1.000   6.324   4.017  1.0282  0.4965  1.8218
  168SAPE  H11Y18942   0.859   6.439   4.019 -0.0193  0.3062 -1.1026
  168SAPE  C31218943   1.047   6.496   4.126 -0.2354 -0.2449 -0.2292
  168SAPE  H12X18944   1.061   6.605   4.116  2.0532 -0.3794  0.8075
  168SAPE  H12Y18945   1.152   6.459   4.129 -0.0421  0.3563  0.9985
  168SAPE  C31318946   0.993   6.458   4.270 -0.2451 -0.0419 -0.5789
  168SAPE  H13X18947   0.987   6.348   4.279 -0.7992  0.0440  0.1558
  168SAPE  H13Y18948   0.896   6.511   4.274  0.2435  0.8857 -0.7491
  168SAPE  C31418949   1.092   6.514   4.375 -0.4417  0.5847  0.5070
  168SAPE  H14X18950   1.115   6.616   4.339 -2.5514  1.3198  1.1167
  168SAPE  H14Y18951   1.195   6.473   4.377 -0.0855  1.3946 -0.3777
  168SAPE  C31518952   1.036   6.533   4.515 -0.1663  0.2618  0.0476
  168SAPE  H15X18953   1.085   6.466   4.589 -0.9651  1.6505  1.9079
  168SAPE  H15Y18954   0.929   6.509   4.529 -0.3320 -0.0834 -1.5743
  168SAPE  C31618955   1.051   6.676   4.568 -0.5001  0.2054 -0.7248
  168SAPE  H16X18956   1.022   6.755   4.495 -1.4113  1.2652  0.7257
  168SAPE  H16Y18957   1.159   6.679   4.594  0.2791 -2.9350 -2.9294
  168SAPE  C31718958   0.982   6.690   4.703 -0.4234  0.4994 -0.4071
  168SAPE  H17X18959   1.025   6.612   4.770 -0.7051  0.1842 -0.5941
  168SAPE  H17Y18960   0.872   6.689   4.693 -0.3993 -2.0868 -1.3542
  168SAPE  C31818961   1.012   6.825   4.767 -0.4016 -0.2557  0.0933
  168SAPE  H18X18962   1.122   6.835   4.777 -0.3716 -1.1028  0.7316
  168SAPE  H18Y18963   0.969   6.825   4.870 -1.5989 -0.9654 -0.3807
  168SAPE  H18Z18964   0.972   6.909   4.707 -2.0221 -1.8814 -1.2127
  169SAPE     N18965   2.553   2.578   2.117  0.1813  0.3584  0.9699
  169SAPE   HN118966   2.516   2.618   2.205  1.9825  0.4507  1.7314
  169SAPE   HN218967   2.475   2.562   2.049  1.2598  1.6202 -0.6485
  169SAPE   HN318968   2.592   2.483   2.138  1.1920  0.8510  1.3696
  169SAPE   C1218969   2.667   2.666   2.059  0.1283  0.6622  0.1369
  169SAPE  H12A18970   2.621   2.767   2.068  0.9491  0.8585  3.2267
  169SAPE  H12B18971   2.667   2.629   1.955 -0.7032  1.5023 -0.1766
  169SAPE   C1118972   2.794   2.638   2.129 -0.7179  0.1332 -0.2902
  169SAPE  H11A18973   2.772   2.657   2.236  0.9809 -1.8263  0.4793
  169SAPE  H11B18974   2.876   2.712   2.115 -1.5277  1.7822  2.7928
  169SAPE     P18975   2.835   2.381   2.204 -0.3256 -0.0517  0.4370
  169SAPE   O1318976   2.705   2.309   2.185 -0.2610 -0.3583  0.2767
  169SAPE   O1418977   2.956   2.294   2.192  0.2914  0.2148  0.0327
  169SAPE   O1218978   2.835   2.499   2.100 -0.4727 -0.2632  0.3181
  169SAPE   O1118979   2.825   2.440   2.345  0.7847  0.5621 -0.1387
  169SAPE    C118980   2.930   2.513   2.409  0.4010  0.2350 -0.6253
  169SAPE    HA18981   3.016   2.447   2.434  1.6085  1.9172 -0.1707
  169SAPE    HB18982   2.958   2.605   2.353 -0.0693  0.9387  0.2747
  169SAPE    C218983   2.880   2.563   2.551  0.4910 -0.0122  0.5686
  169SAPE    HS18984   2.784   2.614   2.527  1.3498  1.1201 -0.6148
  169SAPE   O2118985   2.983   2.647   2.609  0.0065  0.1666  0.4508
  169SAPE   C2118986   2.989   2.762   2.549  0.4011 -1.0444 -0.6269
  169SAPE   O2218987   2.916   2.806   2.463 -0.1783  0.2276 -0.5234
  169SAPE   C2218988   3.110   2.838   2.609  0.3084 -0.1842  0.1343
  169SAPE   H2R18989   3.093   2.834   2.718 -1.4351 -1.6533 -0.1238
  169SAPE   H2S18990   3.207   2.787   2.593 -1.5600 -3.6798 -1.3022
  169SAPE    C318991   2.841   2.449   2.650 -0.1534  0.5082 -0.0664
  169SAPE    HX18992   2.911   2.364   2.639  0.1794  0.8525 -0.6388
  169SAPE    HY18993   2.744   2.410   2.612  0.0317 -0.6782  0.6332
  169SAPE   O3118994   2.824   2.492   2.786  0.2059  0.0662  0.2182
  169SAPE   C3118995   2.933   2.477   2.859 -0.3285  0.3523 -0.3605
  169SAPE   O3218996   3.036   2.427   2.821  0.3510  0.0738 -0.6803
  169SAPE   C3218997   2.898   2.543   2.993 -0.6783 -0.4650  0.7918
  169SAPE   H2X18998   2.830   2.630   2.979  3.0846  3.0192  2.2086
  169SAPE   H2Y18999   2.981   2.596   3.045  1.1360 -1.5072 -0.8856
  169SAPE   C2319000   3.098   2.988   2.579 -0.0412  0.0195  0.2046
  169SAPE   H3R19001   2.989   3.010   2.585 -0.8626 -3.1062 -1.0180
  169SAPE   H3S19002   3.137   3.012   2.478 -0.2725  0.7566  0.2849
  169SAPE   C2419003   3.165   3.091   2.679  0.0461  0.0989 -0.2836
  169SAPE   H4R19004   3.118   3.066   2.776 -0.8675  0.6510 -0.5721
  169SAPE   H4S19005   3.123   3.192   2.662 -1.8016 -0.4835  0.5513
  169SAPE   C2519006   3.313   3.108   2.678  0.3752 -0.3609  0.3985
  169SAPE   H5R19007   3.364   3.088   2.583 -1.2055  0.2272 -0.6010
  169SAPE   C2619008   3.396   3.132   2.788 -0.2086  0.1399  0.2486
  169SAPE   H6R19009   3.504   3.128   2.769 -0.1282 -0.7983  0.8706
  169SAPE   C2719010   3.354   3.160   2.926 -0.2987 -0.4127 -0.3155
  169SAPE   H7R19011   3.326   3.070   2.985 -1.0742 -0.2162 -0.3710
  169SAPE   H7S19012   3.256   3.212   2.922  0.5298  1.2713  0.3956
  169SAPE   C2819013   3.467   3.238   2.991  0.4156 -0.1404 -0.8719
  169SAPE   H8R19014   3.466   3.346   2.971  0.7909  0.1336  0.4752
  169SAPE   C2919015   3.575   3.184   3.046  0.4149 -0.6037  0.0996
  169SAPE   H9R19016   3.645   3.257   3.089  0.1395  0.1080 -0.6335
  169SAPE  C21019017   3.608   3.038   3.081 -0.4520 -0.5191  0.5779
  169SAPE  H10R19018   3.547   2.981   3.007 -2.2814 -0.6685  2.1013
  169SAPE  H10S19019   3.553   3.015   3.175 -2.2038 -1.8909 -0.6983
  169SAPE  C21119020   3.758   2.998   3.088  0.5690 -0.1958 -0.2718
  169SAPE  H11R19021   3.789   2.959   2.990  0.0154 -1.1542 -0.0848
  169SAPE  C21219022   3.838   3.013   3.187 -0.8668 -0.7386  1.1634
  169SAPE  H12R19023   3.943   2.989   3.164 -1.6219 -1.2688 -2.3553
  169SAPE  C21319024   3.799   3.084   3.321 -0.3340 -0.6415 -0.4737
  169SAPE  H13R19025   3.764   3.004   3.390 -1.5845  0.7369  0.5652
  169SAPE  H13S19026   3.700   3.129   3.298 -0.3588 -0.4063  0.0590
  169SAPE  C21419027   3.891   3.173   3.401  0.4519  0.4929 -0.3573
  169SAPE  H14R19028   3.903   3.271   3.351 -0.2807  0.3279 -0.8765
  169SAPE  C21519029   3.943   3.142   3.522  0.5365  0.1752 -0.0846
  169SAPE  H15R19030   4.028   3.207   3.546  2.7188 -2.0944 -1.3207
  169SAPE  C21619031   3.927   3.017   3.607  0.2170  0.1154 -0.2501
  169SAPE  H16R19032   4.029   2.981   3.632 -0.1313 -0.1321  0.8480
  169SAPE  H16S19033   3.877   2.935   3.550  0.5890  0.4638 -1.1015
  169SAPE  C21719034   3.859   3.036   3.742 -0.0337 -0.8546 -0.2936
  169SAPE  H17R19035   3.749   3.043   3.725  0.0343  2.8566 -0.0239
  169SAPE  H17S19036   3.888   3.134   3.788  0.5018 -1.8128  1.5254
  169SAPE  C21819037   3.888   2.922   3.836 -0.0007  0.3534 -0.2730
  169SAPE  H18R19038   3.995   2.893   3.843  0.0836  0.0913 -2.0508
  169SAPE  H18S19039   3.832   2.832   3.803  0.6035 -0.3221  0.5204
  169SAPE  C21919040   3.846   2.955   3.977 -0.0144 -0.1409  0.0722
  169SAPE  H19R19041   3.746   3.003   3.975  0.1283  0.1450 -1.2624
  169SAPE  H19S19042   3.913   3.034   4.015  0.2886 -0.1236 -0.4895
  169SAPE  C22019043   3.846   2.849   4.087  0.2476 -0.0259  0.2538
  169SAPE  H20R19044   3.950   2.817   4.111  1.4169  1.5305 -2.3633
  169SAPE  H20S19045   3.791   2.760   4.050  0.6266  0.4970 -1.6729
  169SAPE  H20T19046   3.788   2.885   4.175 -2.3930  1.5098 -1.9877
  169SAPE   C3319047   2.847   2.436   3.096  0.0597  0.1684 -0.1730
  169SAPE   H3X19048   2.929   2.366   3.125 -1.0741 -0.8847  0.6087
  169SAPE   H3Y19049   2.765   2.371   3.057  2.1364 -1.1330 -2.6522
  169SAPE   C3419050   2.799   2.500   3.226  0.5836  0.0892 -0.1147
  169SAPE   H4X19051   2.728   2.429   3.272 -0.3422  2.1143  1.7642
  169SAPE   H4Y19052   2.755   2.600   3.209 -0.0023  1.2039  5.8108
  169SAPE   C3519053   2.910   2.522   3.332 -0.0003  0.4385  1.0897
  169SAPE   H5X19054   2.991   2.588   3.293  0.5282 -0.6468  0.2969
  169SAPE   H5Y19055   2.962   2.425   3.348  0.6322  0.7217  0.8018
  169SAPE   C3619056   2.870   2.559   3.474 -0.7852 -0.0901  0.2601
  169SAPE   H6X19057   2.823   2.466   3.512  0.1704 -1.2332 -1.2512
  169SAPE   H6Y19058   2.788   2.631   3.454 -1.6418 -1.5194 -1.6552
  169SAPE   C3719059   2.966   2.626   3.564 -0.2516 -0.3396  0.0290
  169SAPE   H7X19060   3.012   2.707   3.502  1.7323  0.6827  2.6643
  169SAPE   H7Y19061   3.049   2.562   3.602  0.2905  0.8928  0.9855
  169SAPE   C3819062   2.904   2.699   3.685  0.2965  1.0876 -0.1084
  169SAPE   H8X19063   2.820   2.766   3.660  0.4879  0.7724 -1.6829
  169SAPE   H8Y19064   2.992   2.762   3.709  2.2470 -0.6533 -2.1388
  169SAPE   C3919065   2.882   2.612   3.812  0.4088  0.1391 -0.3069
  169SAPE   H9X19066   2.954   2.528   3.818 -2.5656 -2.5468  0.4993
  169SAPE   H9Y19067   2.788   2.552   3.809  0.2296  0.2350  1.7493
  169SAPE  C31019068   2.879   2.695   3.935 -0.3579 -0.3799  0.4555
  169SAPE  H10X19069   2.772   2.713   3.958 -0.8705  0.2543 -2.0980
  169SAPE  H10Y19070   2.921   2.797   3.917 -1.0297 -0.1887 -0.0998
  169SAPE  C31119071   2.939   2.628   4.055  0.0480 -0.0770  0.0932
  169SAPE  H11X19072   3.050   2.621   4.063  0.1737 -0.2619 -1.4270
  169SAPE  H11Y19073   2.905   2.523   4.065  2.9246 -0.9565  1.8795
  169SAPE  C31219074   2.900   2.693   4.193 -0.4853 -0.0870 -0.7684
  169SAPE  H12X19075   2.794   2.720   4.174 -0.3961  0.5253 -0.4501
  169SAPE  H12Y19076   2.944   2.793   4.217 -1.9172  1.1989 -3.1499
  169SAPE  C31319077   2.915   2.591   4.302 -0.1499 -0.1376 -0.1317
  169SAPE  H13X19078   3.024   2.575   4.317  0.1066  0.5788 -1.1631
  169SAPE  H13Y19079   2.860   2.496   4.283  1.2044 -0.9155 -0.2625
  169SAPE  C31419080   2.857   2.649   4.434 -0.4414 -0.2493 -0.1575
  169SAPE  H14X19081   2.759   2.694   4.411 -1.9899 -3.1433  0.2378
  169SAPE  H14Y19082   2.915   2.741   4.455 -2.7282  1.5304 -1.2985
  169SAPE  C31519083   2.862   2.555   4.552  0.2886 -0.4608 -0.0412
  169SAPE  H15X19084   2.820   2.454   4.532  0.9398 -1.0315  1.3657
  169SAPE  H15Y19085   2.800   2.599   4.632  1.0802  1.1086 -0.2570
  169SAPE  C31619086   3.003   2.542   4.619  0.3204  0.0702 -0.3824
  169SAPE  H16X19087   3.033   2.646   4.646  0.3927  0.0257 -0.2926
  169SAPE  H16Y19088   3.078   2.509   4.543 -0.1416 -1.1794 -0.3117
  169SAPE  C31719089   3.000   2.449   4.749 -0.3827 -0.6528  0.3469
  169SAPE  H17X19090   2.988   2.342   4.721  2.3975 -0.6511 -1.1462
  169SAPE  H17Y19091   2.914   2.478   4.814 -1.4021 -0.8381 -0.8740
  169SAPE  C31819092   3.115   2.474   4.857 -0.2669  0.2290  0.1507
  169SAPE  H18X19093   3.111   2.574   4.904 -0.8632 -0.8927  2.6346
  169SAPE  H18Y19094   3.215   2.462   4.809  0.1177  1.3853  0.6306
  169SAPE  H18Z19095   3.113   2.402   4.942 -2.8389  1.9807  1.6883
  170SAPE     N19096   3.772   5.272   2.303 -0.1281 -0.1917  0.2544
  170SAPE   HN119097   3.672   5.298   2.310 -0.1698  0.8751 -2.7446
  170SAPE   HN219098   3.777   5.170   2.286 -1.7617  0.0402 -2.0538
  170SAPE   HN319099   3.828   5.310   2.382  3.3103 -2.7193 -0.6994
  170SAPE   C1219100   3.824   5.337   2.185 -0.0495 -0.0094  0.3110
  170SAPE  H12A19101   3.767   5.293   2.100  1.5907 -2.1199  0.2236
  170SAPE  H12B19102   3.929   5.304   2.174 -0.5739 -0.8916 -4.0429
  170SAPE   C1119103   3.836   5.495   2.211  0.3836  0.0779  1.2706
  170SAPE  H11A19104   3.739   5.546   2.234 -1.3688 -2.0486 -0.8562
  170SAPE  H11B19105   3.872   5.541   2.116 -2.2333 -0.8744 -0.2780
  170SAPE     P19106   4.019   5.632   2.324  0.2646  0.1594  0.6785
  170SAPE   O1319107   4.097   5.631   2.196  0.2264  0.2370  0.4462
  170SAPE   O1419108   3.935   5.750   2.347  0.6296 -0.5149 -0.3012
  170SAPE   O1219109   3.922   5.515   2.326 -0.4086  0.0936  0.5291
  170SAPE   O1119110   4.125   5.600   2.436  0.2373 -0.7123  0.6990
  170SAPE    C119111   4.204   5.479   2.437 -0.1144  0.2566 -0.9978
  170SAPE    HA19112   4.251   5.453   2.340  0.6568  0.2760 -0.6319
  170SAPE    HB19113   4.285   5.489   2.512 -1.4571 -0.5916  0.6528
  170SAPE    C219114   4.126   5.352   2.484  0.5136 -0.2504  0.1332
  170SAPE    HS19115   4.047   5.339   2.407  2.8004 -2.1818 -2.1088
  170SAPE   O2119116   4.085   5.375   2.625  0.3668 -0.2722  0.4442
  170SAPE   C2119117   3.975   5.308   2.653 -0.5975 -0.6505  0.2350
  170SAPE   O2219118   3.906   5.252   2.570 -0.0415  0.1561 -0.2282
  170SAPE   C2219119   3.944   5.326   2.803  0.2351  0.8334 -0.1051
  170SAPE   H2R19120   4.021   5.396   2.842 -1.1871  0.5437  3.6190
  170SAPE   H2S19121   3.841   5.367   2.808  0.0396  0.5162 -1.1849
  170SAPE    C319122   4.231   5.234   2.481  0.4932 -0.0153 -0.0873
  170SAPE    HX19123   4.307   5.271   2.553  0.1272 -2.5694  1.7689
  170SAPE    HY19124   4.272   5.227   2.378 -1.2801 -2.8543 -0.7030
  170SAPE   O3119125   4.189   5.104   2.532 -0.6650  0.5069  0.2794
  170SAPE   C3119126   4.119   5.034   2.449 -0.2515 -0.0489  0.0338
  170SAPE   O3219127   4.088   5.071   2.338  0.2517  0.4516 -0.5741
  170SAPE   C3219128   4.095   4.895   2.499 -0.4604 -0.6715 -0.3805
  170SAPE   H2X19129   4.193   4.844   2.510  1.7751  3.6158  2.4573
  170SAPE   H2Y19130   4.055   4.840   2.411 -1.4508 -3.6137  1.7470
  170SAPE   C2319131   3.949   5.202   2.891  0.9351 -0.5974  0.1500
  170SAPE   H3R19132   3.916   5.110   2.839  1.8502 -0.9801  0.2298
  170SAPE   H3S19133   3.887   5.220   2.982  1.1366  1.7267 -0.1150
  170SAPE   C2419134   4.092   5.157   2.944  0.5502 -0.5446 -0.7451
  170SAPE   H4R19135   4.158   5.134   2.858  1.4989 -0.2327 -0.1068
  170SAPE   H4S19136   4.082   5.064   3.004 -0.9751  0.1798  0.1987
  170SAPE   C2519137   4.166   5.265   3.019 -0.1115 -0.8792 -0.6541
  170SAPE   H5R19138   4.248   5.318   2.968 -2.9382  2.3797 -2.1875
  170SAPE   C2619139   4.139   5.292   3.149  0.2885  0.1628 -0.1558
  170SAPE   H6R19140   4.191   5.370   3.206  0.0520 -0.0420  0.3532
  170SAPE   C2719141   4.025   5.225   3.234  0.2164 -0.8368 -0.2609
  170SAPE   H7R19142   3.961   5.160   3.171 -0.7410 -0.2956  0.1290
  170SAPE   H7S19143   3.964   5.310   3.272  0.3423 -1.2352  0.8509
  170SAPE   C2819144   4.097   5.152   3.343 -0.2929 -0.0731  0.6267
  170SAPE   H8R19145   4.155   5.064   3.310 -0.6443  0.1877 -0.7849
  170SAPE   C2919146   4.089   5.182   3.478 -1.2658 -0.4114 -0.2767
  170SAPE   H9R19147   4.159   5.128   3.543 -0.7493 -0.0090 -0.4977
  170SAPE  C21019148   4.009   5.297   3.532 -0.1002  0.2354 -0.2496
  170SAPE  H10R19149   3.910   5.289   3.483  0.7752 -0.0005 -2.0660
  170SAPE  H10S19150   4.049   5.398   3.506 -0.0240  0.7182  1.6192
  170SAPE  C21119151   4.010   5.278   3.683 -1.2976  0.9062 -0.2131
  170SAPE  H11R19152   4.101   5.283   3.745 -0.9036 -2.7247 -0.2842
  170SAPE  C21219153   3.904   5.244   3.759 -0.2960 -0.3022 -0.2789
  170SAPE  H12R19154   3.925   5.248   3.867  0.6305  0.3270 -0.4717
  170SAPE  C21319155   3.756   5.233   3.726  0.2699  0.1925 -0.5455
  170SAPE  H13R19156   3.714   5.163   3.801  1.3292 -2.9147 -2.6358
  170SAPE  H13S19157   3.747   5.173   3.632 -0.0050  1.4257 -1.3395
  170SAPE  C21419158   3.658   5.352   3.713 -0.6224  1.1932  0.0139
  170SAPE  H14R19159   3.653   5.392   3.611  1.0078 -1.0183 -1.0176
  170SAPE  C21519160   3.574   5.407   3.802 -0.9181 -0.6962 -0.2822
  170SAPE  H15R19161   3.507   5.489   3.772  1.2073  1.4494  0.4694
  170SAPE  C21619162   3.563   5.363   3.945  0.7502 -0.0609  0.5832
  170SAPE  H16R19163   3.638   5.287   3.975  3.0163  1.0702 -1.8939
  170SAPE  H16S19164   3.458   5.332   3.965 -0.6231  2.4818 -2.0552
  170SAPE  C21719165   3.588   5.486   4.039  0.8551  0.3549  0.0255
  170SAPE  H17R19166   3.684   5.538   4.015  0.7688 -0.1182 -1.4889
  170SAPE  H17S19167   3.594   5.458   4.146  0.7308 -0.2319 -0.1190
  170SAPE  C21819168   3.467   5.584   4.056  0.6999 -0.1630  0.0132
  170SAPE  H18R19169   3.374   5.527   4.075 -0.3641  1.0366 -1.3705
  170SAPE  H18S19170   3.457   5.637   3.959  0.9018 -0.3080 -0.0870
  170SAPE  C21919171   3.497   5.689   4.167 -0.1793  0.0863  0.1693
  170SAPE  H19R19172   3.606   5.711   4.166  0.1258 -0.8313  2.9889
  170SAPE  H19S19173   3.462   5.644   4.263  1.6457 -1.5624  0.1337
  170SAPE  C22019174   3.429   5.822   4.158 -0.1713 -0.5506  1.5973
  170SAPE  H20R19175   3.484   5.876   4.077  0.0735 -1.3744  1.2035
  170SAPE  H20S19176   3.427   5.890   4.246 -1.5634  1.4215  0.1558
  170SAPE  H20T19177   3.327   5.799   4.122 -0.1795 -0.1219  1.3301
  170SAPE   C3319178   3.998   4.891   2.628  0.3768  0.1491 -0.1581
  170SAPE   H3X19179   3.898   4.926   2.596  0.3400 -0.7579 -1.0559
  170SAPE   H3Y19180   4.043   4.961   2.703 -1.0833  0.5673  0.3593
  170SAPE   C3419181   3.973   4.749   2.675 -0.3413  0.8207 -0.0105
  170SAPE   H4X19182   4.072   4.699   2.683 -1.2558 -0.8936  1.4013
  170SAPE   H4Y19183   3.912   4.699   2.596  1.1488 -0.8849 -0.1562
  170SAPE   C3519184   3.902   4.730   2.808  0.0116  0.4983  0.2850
  170SAPE   H5X19185   3.888   4.621   2.820  1.3783  0.4142  1.4299
  170SAPE   H5Y19186   3.803   4.780   2.811 -0.3054  0.0814 -1.6987
  170SAPE   C3619187   3.978   4.776   2.933  0.3784 -0.3291  0.1254
  170SAPE   H6X19188   3.981   4.886   2.943 -2.0272 -0.2279  0.1519
  170SAPE   H6Y19189   4.080   4.732   2.927  0.0407 -1.2257  0.7032
  170SAPE   C3719190   3.917   4.723   3.062  0.5955 -0.1593 -0.5982
  170SAPE   H7X19191   3.884   4.618   3.048 -3.5609  0.5095  2.5459
  170SAPE   H7Y19192   3.816   4.765   3.082  0.5095 -0.9101  0.6438
  170SAPE   C3819193   4.009   4.755   3.177 -0.3074  0.1490 -0.1190
  170SAPE   H8X19194   4.022   4.865   3.185  1.5970  0.0046 -0.6799
  170SAPE   H8Y19195   4.110   4.715   3.154 -0.0180  0.5781  0.3702
  170SAPE   C3919196   3.961   4.711   3.323 -0.2036  0.5052 -0.0553
  170SAPE   H9X19197   4.051   4.721   3.388 -0.6596 -1.0192  0.8750
  170SAPE   H9Y19198   3.937   4.602   3.330 -0.2226  0.6041  2.5221
  170SAPE  C31019199   3.849   4.793   3.377 -0.1506 -0.7257 -0.5316
  170SAPE  H10X19200   3.753   4.753   3.338 -0.0125 -1.2028 -0.3937
  170SAPE  H10Y19201   3.875   4.896   3.346 -0.9117 -0.6496 -0.9341
  170SAPE  C31119202   3.847   4.789   3.532  0.2714 -0.5259  0.1027
  170SAPE  H11X19203   3.944   4.836   3.560 -0.5877  1.8484 -0.5966
  170SAPE  H11Y19204   3.848   4.688   3.579  1.2572  0.0161  1.3091
  170SAPE  C31219205   3.724   4.858   3.597 -0.1980  0.1052  0.1279
  170SAPE  H12X19206   3.644   4.812   3.535  2.0178 -0.5827 -2.4633
  170SAPE  H12Y19207   3.716   4.966   3.572 -1.1444 -0.1869 -0.8959
  170SAPE  C31319208   3.700   4.834   3.741 -0.3725  0.3493 -0.0154
  170SAPE  H13X19209   3.786   4.857   3.808  0.0533 -0.8896 -0.0998
  170SAPE  H13Y19210   3.682   4.725   3.753 -0.3300  0.3873  0.4225
  170SAPE  C31419211   3.575   4.911   3.793  0.1196 -0.2822 -0.1986
  170SAPE  H14X19212   3.482   4.875   3.743 -0.5885  0.9537  0.1866
  170SAPE  H14Y19213   3.590   5.015   3.758  0.8038 -0.1121  0.5684
  170SAPE  C31519214   3.562   4.898   3.948 -0.8526 -0.2935  0.1758
  170SAPE  H15X19215   3.657   4.934   3.992 -0.0295 -1.7494 -0.3195
  170SAPE  H15Y19216   3.550   4.791   3.977  2.4042 -1.1094 -1.0469
  170SAPE  C31619217   3.445   4.981   3.993 -0.7263 -0.0349  0.6032
  170SAPE  H16X19218   3.350   4.938   3.957 -1.9252  0.7988  2.6068
  170SAPE  H16Y19219   3.457   5.077   3.938 -0.5016 -0.0213  0.6746
  170SAPE  C31719220   3.430   5.006   4.145  0.6029 -0.0110 -0.2075
  170SAPE  H17X19221   3.524   5.041   4.193  0.6199  0.3031 -0.4675
  170SAPE  H17Y19222   3.411   4.916   4.208  0.3683 -0.0444 -0.3252
  170SAPE  C31819223   3.329   5.111   4.169 -0.1877 -0.7977  0.2187
  170SAPE  H18X19224   3.311   5.117   4.279  1.8995  0.0231  0.5767
  170SAPE  H18Y19225   3.231   5.085   4.125  0.2615 -1.6649 -0.2997
  170SAPE  H18Z19226   3.370   5.206   4.128 -1.5264 -1.0788 -1.8884
  171SAPE     N19227   5.057   5.149   1.799 -0.6648  0.3294  0.6317
  171SAPE   HN119228   5.099   5.079   1.864 -1.0078 -1.1501 -0.6647
  171SAPE   HN219229   5.136   5.190   1.745 -0.1921 -2.1892 -0.7369
  171SAPE   HN319230   5.020   5.222   1.863  1.1239  2.0201 -0.1618
  171SAPE   C1219231   4.947   5.099   1.718  0.1028 -0.4697  0.0270
  171SAPE  H12A19232   4.995   5.043   1.635 -1.3542  0.4802 -1.5292
  171SAPE  H12B19233   4.891   5.183   1.670  0.5772 -0.3658 -0.3527
  171SAPE   C1119234   4.861   5.004   1.800  0.3888 -0.3934  0.2724
  171SAPE  H11A19235   4.922   4.914   1.820 -0.2366 -0.8290  0.2458
  171SAPE  H11B19236   4.773   4.974   1.740 -0.8319 -0.5960  2.0672
  171SAPE     P19237   4.683   5.110   1.960  0.6560  0.4434 -0.0298
  171SAPE   O1319238   4.668   5.243   1.896 -0.0178  0.7089  0.0091
  171SAPE   O1419239   4.581   5.005   1.927 -0.3269 -0.1905 -0.4655
  171SAPE   O1219240   4.829   5.057   1.929 -0.4208  0.4837 -0.1843
  171SAPE   O1119241   4.679   5.136   2.112 -0.2778 -0.1864 -0.7692
  171SAPE    C119242   4.805   5.130   2.186  0.3322  0.5383  0.0259
  171SAPE    HA19243   4.846   5.029   2.169 -2.1553 -0.6981  0.9005
  171SAPE    HB19244   4.878   5.203   2.144 -1.1698  2.3508  0.3924
  171SAPE    C219245   4.788   5.153   2.339 -0.7995  0.1210  0.2239
  171SAPE    HS19246   4.876   5.111   2.391 -2.6423 -3.8863  0.4871
  171SAPE   O2119247   4.664   5.098   2.386  0.0221  0.2882  0.5337
  171SAPE   C2119248   4.679   5.047   2.509  0.6490  0.2473 -0.5474
  171SAPE   O2219249   4.781   5.038   2.577 -0.3930  0.1960  0.5662
  171SAPE   C2219250   4.540   5.017   2.559  0.8613  0.5947 -0.2124
  171SAPE   H2R19251   4.476   5.108   2.561 -0.2443 -0.1231 -1.2676
  171SAPE   H2S19252   4.482   4.961   2.483 -0.9731  2.5666 -0.3766
  171SAPE    C319253   4.776   5.306   2.355 -0.2138  0.3471 -0.1578
  171SAPE    HX19254   4.695   5.337   2.285 -1.1612  1.9955  1.5470
  171SAPE    HY19255   4.865   5.355   2.309 -0.2573  0.6092  0.0337
  171SAPE   O3119256   4.780   5.359   2.488  0.2013  0.1481 -0.0360
  171SAPE   C3119257   4.662   5.368   2.543  0.1031  0.0792 -0.4034
  171SAPE   O3219258   4.557   5.365   2.485 -0.5834  0.5959  0.1012
  171SAPE   C3219259   4.666   5.375   2.697  0.2434 -0.2719  0.1937
  171SAPE   H2X19260   4.767   5.409   2.730  0.4783  1.5047 -2.1681
  171SAPE   H2Y19261   4.659   5.266   2.720  1.1922  0.1148  2.6417
  171SAPE   C2319262   4.534   4.929   2.691  0.2735  0.3100  0.5501
  171SAPE   H3R19263   4.603   4.958   2.774 -1.1242  0.3593  1.7363
  171SAPE   H3S19264   4.565   4.828   2.656 -2.1058  0.0485 -1.0283
  171SAPE   C2419265   4.402   4.937   2.758  0.1959 -0.3247 -0.1424
  171SAPE   H4R19266   4.331   4.934   2.673  0.7269  0.6394 -0.6387
  171SAPE   H4S19267   4.400   5.037   2.808 -2.6273 -0.3898  0.0108
  171SAPE   C2519268   4.392   4.816   2.847 -0.8507 -0.7732 -0.2523
  171SAPE   H5R19269   4.390   4.720   2.794  1.3774 -0.8377 -0.3361
  171SAPE   C2619270   4.397   4.824   2.978 -0.1441 -0.1828  0.2606
  171SAPE   H6R19271   4.390   4.732   3.038 -0.9452 -0.7270 -0.6283
  171SAPE   C2719272   4.401   4.950   3.064  0.0853 -0.2356  0.8633
  171SAPE   H7R19273   4.372   4.917   3.166  0.3609  0.9540  1.3408
  171SAPE   H7S19274   4.323   5.020   3.027 -0.0060 -0.1148  1.2766
  171SAPE   C2819275   4.541   5.014   3.082  0.7041 -0.1203 -0.2723
  171SAPE   H8R19276   4.618   4.958   3.026  1.5839 -0.7190  1.4790
  171SAPE   C2919277   4.567   5.115   3.165  0.2496 -0.4976  0.5020
  171SAPE   H9R19278   4.667   5.162   3.171 -1.8313  4.6499  0.0850
  171SAPE  C21019279   4.469   5.177   3.264  0.3469 -0.0725 -0.0941
  171SAPE  H10R19280   4.374   5.119   3.258  1.2832 -1.6581 -0.0301
  171SAPE  H10S19281   4.452   5.282   3.233 -2.9008  0.4269  2.6891
  171SAPE  C21119282   4.523   5.171   3.408  0.2122 -0.1980  0.1810
  171SAPE  H11R19283   4.594   5.087   3.422  0.5305 -0.3629 -1.9649
  171SAPE  C21219284   4.505   5.254   3.512 -0.3476  0.4715 -0.0713
  171SAPE  H12R19285   4.549   5.224   3.608 -1.3924 -2.6652 -0.4619
  171SAPE  C21319286   4.429   5.382   3.510 -0.4777 -0.3074  0.0194
  171SAPE  H13R19287   4.353   5.388   3.429  0.8623 -0.1500 -1.2843
  171SAPE  H13S19288   4.518   5.446   3.490 -0.9030 -0.0826 -1.2870
  171SAPE  C21419289   4.373   5.416   3.643  0.2227 -0.4304 -0.6941
  171SAPE  H14R19290   4.264   5.410   3.652  0.3228  0.2501  1.4609
  171SAPE  C21519291   4.438   5.474   3.748 -0.0691  0.2110 -0.3047
  171SAPE  H15R19292   4.397   5.508   3.844 -0.4313 -0.0663 -0.3569
  171SAPE  C21619293   4.586   5.487   3.748 -0.3377  0.1553  0.2524
  171SAPE  H16R19294   4.633   5.493   3.647  1.3053 -1.2118  0.8819
  171SAPE  H16S19295   4.629   5.395   3.793 -0.3694 -0.2857 -0.6046
  171SAPE  C21719296   4.633   5.599   3.835 -0.1046  0.5233  0.6487
  171SAPE  H17R19297   4.596   5.691   3.785  1.3440  0.7015 -0.1567
  171SAPE  H17S19298   4.743   5.613   3.833 -0.0331  0.0477  1.1398
  171SAPE  C21819299   4.594   5.594   3.984  0.0191 -0.1191 -0.6209
  171SAPE  H18R19300   4.605   5.488   4.017  2.1964 -0.3188 -1.8113
  171SAPE  H18S19301   4.490   5.633   3.987  1.0002  2.6462  0.7640
  171SAPE  C21919302   4.673   5.694   4.071 -0.1338  0.1430 -0.5216
  171SAPE  H19R19303   4.673   5.795   4.024  0.7059  0.5893  0.4141
  171SAPE  H19S19304   4.776   5.655   4.081 -1.2412 -2.3067  3.1373
  171SAPE  C22019305   4.621   5.698   4.212 -0.1572  0.4567 -0.5674
  171SAPE  H20R19306   4.618   5.600   4.264  0.2317  0.8526  0.2238
  171SAPE  H20S19307   4.512   5.717   4.210 -0.1801  0.6936  1.3246
  171SAPE  H20T19308   4.669   5.778   4.272  0.4562 -0.3285  0.0129
  171SAPE   C3319309   4.553   5.446   2.772  0.3268  0.1558 -0.3697
  171SAPE   H3X19310   4.459   5.395   2.741  0.6656 -2.4436  2.4441
  171SAPE   H3Y19311   4.546   5.550   2.732 -1.4148 -0.1830 -1.0555
  171SAPE   C3419312   4.570   5.453   2.922 -0.5464  0.1395  0.1890
  171SAPE   H4X19313   4.604   5.353   2.955 -0.1173 -0.5816 -2.2423
  171SAPE   H4Y19314   4.475   5.474   2.975 -0.6017  2.5012 -0.7487
  171SAPE   C3519315   4.677   5.546   2.984 -0.1626 -0.7583  0.4779
  171SAPE   H5X19316   4.656   5.650   2.951  0.2965 -0.4219  1.2316
  171SAPE   H5Y19317   4.775   5.519   2.940 -1.2039 -1.7436 -1.4045
  171SAPE   C3619318   4.665   5.546   3.137  0.2490  0.5305 -0.1881
  171SAPE   H6X19319   4.699   5.445   3.166 -0.2679 -0.1047 -1.6581
  171SAPE   H6Y19320   4.557   5.554   3.162  0.1834  0.5297 -0.4625
  171SAPE   C3719321   4.740   5.663   3.198 -0.7160  0.0957  0.0098
  171SAPE   H7X19322   4.689   5.750   3.151 -3.1774 -0.6901  1.0492
  171SAPE   H7Y19323   4.849   5.661   3.173 -1.1227  0.0935 -1.9193
  171SAPE   C3819324   4.727   5.682   3.353 -0.2537 -0.3018 -1.0608
  171SAPE   H8X19325   4.755   5.589   3.407 -0.5705 -0.1712 -0.6641
  171SAPE   H8Y19326   4.622   5.711   3.378  0.9995  2.1702  2.1476
  171SAPE   C3919327   4.801   5.813   3.397  0.0299 -0.0526  0.2523
  171SAPE   H9X19328   4.756   5.906   3.356  2.0956  1.0820  0.4343
  171SAPE   H9Y19329   4.905   5.815   3.358  1.0647  1.1720  2.8659
  171SAPE  C31019330   4.821   5.822   3.548 -0.4961  0.1471 -0.1366
  171SAPE  H10X19331   4.872   5.734   3.592  1.5772  1.8713  1.0858
  171SAPE  H10Y19332   4.717   5.818   3.585 -0.8351 -0.9158 -1.1463
  171SAPE  C31119333   4.896   5.952   3.587  1.0141 -0.0427 -0.5063
  171SAPE  H11X19334   4.835   6.034   3.542 -1.8909 -1.5989  0.3584
  171SAPE  H11Y19335   4.993   5.948   3.533  2.1451  2.0578  1.2146
  171SAPE  C31219336   4.913   5.984   3.730  0.1912  0.7483 -0.2293
  171SAPE  H12X19337   4.823   5.951   3.787  0.1561 -0.2081 -0.8245
  171SAPE  H12Y19338   4.930   6.094   3.738  1.3440  0.5567  0.0973
  171SAPE  C31319339   5.051   5.931   3.784  0.5086 -0.7892  0.6321
  171SAPE  H13X19340   5.135   5.970   3.723  0.2555  1.3320  1.5245
  171SAPE  H13Y19341   5.046   5.820   3.782 -0.5373 -0.7409  0.2627
  171SAPE  C31419342   5.078   5.972   3.929 -0.1113  0.7098 -0.0863
  171SAPE  H14X19343   5.075   6.082   3.940  1.1629  0.6610  0.9781
  171SAPE  H14Y19344   5.185   5.964   3.958 -0.0502  1.3235 -0.1324
  171SAPE  C31519345   4.982   5.908   4.036  0.6553  0.4885 -0.4773
  171SAPE  H15X19346   4.954   5.803   4.012  0.0272  0.4074  0.5684
  171SAPE  H15Y19347   4.890   5.969   4.028  0.9671  1.2498  1.2392
  171SAPE  C31619348   5.037   5.948   4.179 -0.3426  0.1302 -0.5267
  171SAPE  H16X19349   5.068   6.054   4.186 -0.5990  0.1123  1.3701
  171SAPE  H16Y19350   5.127   5.883   4.190 -1.2791 -0.8062  2.9351
  171SAPE  C31719351   4.939   5.905   4.285 -0.2522  0.7998 -0.4336
  171SAPE  H17X19352   4.897   5.803   4.268 -0.3577  1.0232 -1.6524
  171SAPE  H17Y19353   4.849   5.970   4.284  0.3982  1.7238  0.1531
  171SAPE  C31819354   5.005   5.915   4.420 -0.6998  0.4746  0.1952
  171SAPE  H18X19355   5.039   6.018   4.443  1.0020 -0.1734  0.8096
  171SAPE  H18Y19356   5.102   5.859   4.416 -0.4000  1.0602 -1.4998
  171SAPE  H18Z19357   4.931   5.894   4.500  2.0707 -3.2533  2.0759
  172SAPE     N19358   4.642   5.936   2.016 -0.0181 -0.1537 -0.5534
  172SAPE   HN119359   4.663   5.998   1.935  0.2327  1.6360  0.8041
  172SAPE   HN219360   4.669   5.999   2.095  0.2352 -2.0629  0.9566
  172SAPE   HN319361   4.713   5.860   2.018  0.5062  0.3287  1.1268
  172SAPE   C1219362   4.497   5.902   2.035 -0.4583  0.1672 -0.6605
  172SAPE  H12A19363   4.499   5.819   2.109  1.6934  1.0223  0.3021
  172SAPE  H12B19364   4.456   5.869   1.937 -1.3043  0.5267 -0.4333
  172SAPE   C1119365   4.418   6.022   2.089  0.3359  0.6203  0.4108
  172SAPE  H11A19366   4.467   6.061   2.181  0.6607  0.2253  0.4072
  172SAPE  H11B19367   4.323   5.976   2.121 -0.0778  0.3000 -1.1993
  172SAPE     P19368   4.421   6.277   2.034  0.0742  0.2829 -0.4826
  172SAPE   O1319369   4.558   6.314   2.000 -0.5307 -0.1905  0.1049
  172SAPE   O1419370   4.308   6.348   1.977 -0.1404 -0.5745 -0.1387
  172SAPE   O1219371   4.400   6.125   1.991 -0.6003  0.8164  0.1162
  172SAPE   O1119372   4.399   6.284   2.194  0.2511 -0.4320 -0.2997
  172SAPE    C119373   4.505   6.354   2.269  0.7808  0.4671 -0.6673
  172SAPE    HA19374   4.607   6.309   2.269  0.6965  0.0907  2.2787
  172SAPE    HB19375   4.515   6.460   2.237 -1.3231  0.9287  0.0431
  172SAPE    C219376   4.465   6.364   2.420  0.4204 -0.3130 -0.2314
  172SAPE    HS19377   4.434   6.262   2.452  3.5736 -1.3122  0.0055
  172SAPE   O2119378   4.357   6.457   2.431  0.4326  0.4550  0.0684
  172SAPE   C2119379   4.253   6.435   2.514 -0.2546  0.1353 -0.3061
  172SAPE   O2219380   4.235   6.336   2.586  0.2872 -0.1456  0.2277
  172SAPE   C2219381   4.157   6.552   2.513 -0.2929 -0.0754  0.4231
  172SAPE   H2R19382   4.120   6.591   2.416 -0.1538 -0.5105  0.1938
  172SAPE   H2S19383   4.067   6.513   2.565 -0.6418 -2.0776 -1.5479
  172SAPE    C319384   4.585   6.407   2.514  0.2050  0.1043 -0.1943
  172SAPE    HX19385   4.621   6.503   2.470 -1.8059  1.4706  0.9833
  172SAPE    HY19386   4.671   6.339   2.497 -1.8991 -2.8285  0.1875
  172SAPE   O3119387   4.544   6.427   2.648 -0.0856  0.0490  0.3474
  172SAPE   C3119388   4.515   6.318   2.724  0.4869  0.3210 -0.4279
  172SAPE   O3219389   4.527   6.202   2.690  0.5369 -0.1918 -0.0156
  172SAPE   C3219390   4.464   6.372   2.861 -0.1954  0.7067 -0.1309
  172SAPE   H2X19391   4.355   6.352   2.853 -0.2853  1.5214 -1.1845
  172SAPE   H2Y19392   4.474   6.483   2.860 -2.1195  0.9131 -1.2874
  172SAPE   C2319393   4.219   6.679   2.592 -0.4253 -0.1741  0.5910
  172SAPE   H3R19394   4.172   6.772   2.554  1.5253  0.6907  0.1671
  172SAPE   H3S19395   4.325   6.687   2.561  0.6878 -2.8841  3.1922
  172SAPE   C2419396   4.221   6.663   2.747  0.4627  0.1723 -0.2155
  172SAPE   H4R19397   4.254   6.767   2.770 -0.7461  1.3344 -3.2005
  172SAPE   H4S19398   4.306   6.594   2.770  1.5713  2.0140  1.5693
  172SAPE   C2519399   4.098   6.628   2.830  0.6307  0.1354  0.2006
  172SAPE   H5R19400   4.010   6.638   2.765  1.4590  0.7495 -0.8790
  172SAPE   C2619401   4.077   6.598   2.964 -0.0830  0.1298 -0.2883
  172SAPE   H6R19402   3.976   6.588   3.006  0.3174 -0.4605  0.5659
  172SAPE   C2719403   4.193   6.591   3.062  0.0604  0.2355 -0.5322
  172SAPE   H7R19404   4.188   6.671   3.139  0.5361  0.1274 -0.3821
  172SAPE   H7S19405   4.297   6.601   3.023  0.1428 -0.1603 -0.4205
  172SAPE   C2819406   4.199   6.450   3.122 -0.3304 -0.2150  0.1794
  172SAPE   H8R19407   4.176   6.368   3.052  1.1317 -1.3070  0.9131
  172SAPE   C2919408   4.250   6.421   3.246 -0.5366  0.0873 -0.1946
  172SAPE   H9R19409   4.271   6.316   3.273  2.9611  1.1235  1.6781
  172SAPE  C21019410   4.289   6.524   3.351 -0.5121  0.0727  0.2130
  172SAPE  H10R19411   4.337   6.615   3.311 -1.7840  1.2500  1.2657
  172SAPE  H10S19412   4.358   6.471   3.420 -0.5941 -1.8144 -1.0778
  172SAPE  C21119413   4.175   6.563   3.435  0.3959  0.4827 -0.3646
  172SAPE  H11R19414   4.084   6.508   3.405 -0.6792  3.1948 -2.4738
  172SAPE  C21219415   4.166   6.654   3.534  0.5791  0.6282 -0.1688
  172SAPE  H12R19416   4.069   6.668   3.585  0.2934 -1.1287 -0.1681
  172SAPE  C21319417   4.275   6.743   3.587 -0.5086 -0.1710 -0.1202
  172SAPE  H13R19418   4.363   6.729   3.521 -0.2301  1.4832 -0.1481
  172SAPE  H13S19419   4.302   6.710   3.690  1.2600 -0.5064 -0.6577
  172SAPE  C21419420   4.236   6.886   3.569 -0.0828 -0.0620 -0.3473
  172SAPE  H14R19421   4.221   6.921   3.466  0.4067  1.2417 -0.0010
  172SAPE  C21519422   4.208   6.974   3.673 -0.6108 -0.3295 -0.3644
  172SAPE  H15R19423   4.197   7.078   3.641  1.9828 -0.2019 -1.0429
  172SAPE  C21619424   4.217   6.952   3.824  0.1249  0.6018  0.5417
  172SAPE  H16R19425   4.289   6.873   3.857 -0.2566  0.9143  2.2370
  172SAPE  H16S19426   4.118   6.929   3.870  0.1446 -1.5835 -0.3770
  172SAPE  C21719427   4.277   7.085   3.881  0.4895 -0.2343 -0.3654
  172SAPE  H17R19428   4.217   7.174   3.853 -1.1440 -1.3606 -0.5204
  172SAPE  H17S19429   4.380   7.093   3.841  0.3081  0.2390 -0.7390
  172SAPE  C21819430   4.286   7.083   4.032  0.1045 -0.5257 -0.1175
  172SAPE  H18R19431   4.207   7.144   4.080  0.4609 -0.8984  0.9641
  172SAPE  H18S19432   4.378   7.139   4.058 -0.0531 -0.7314  0.8955
  172SAPE  C21919433   4.310   6.948   4.097 -0.5558  0.4047  0.2115
  172SAPE  H19R19434   4.393   6.901   4.040 -2.0212 -1.3518 -0.5991
  172SAPE  H19S19435   4.219   6.885   4.081  0.5462 -0.8018 -1.6913
  172SAPE  C22019436   4.343   6.963   4.248  0.0547 -0.2737 -0.1142
  172SAPE  H20R19437   4.263   7.018   4.302  1.9065  1.7187  0.7952
  172SAPE  H20S19438   4.430   7.032   4.259 -0.8896  1.1950 -1.4459
  172SAPE  H20T19439   4.360   6.863   4.292  0.9273 -0.5979 -1.1343
  172SAPE   C3319440   4.530   6.305   2.984  0.0695  0.1063 -0.8938
  172SAPE   H3X19441   4.535   6.195   2.980  1.1133  0.0192  1.2394
  172SAPE   H3Y19442   4.451   6.316   3.062  0.2736 -3.4805 -0.0078
  172SAPE   C3419443   4.670   6.365   3.013 -0.3845 -0.9733 -0.6337
  172SAPE   H4X19444   4.664   6.476   3.016 -0.8786 -1.0096 -0.2450
  172SAPE   H4Y19445   4.734   6.358   2.923 -1.1865 -0.8127 -1.2208
  172SAPE   C3519446   4.737   6.332   3.146 -0.2588 -0.6688  0.3860
  172SAPE   H5X19447   4.844   6.362   3.143  0.8832 -4.0782  2.1911
  172SAPE   H5Y19448   4.740   6.223   3.164  0.6665 -0.6867  0.1975
  172SAPE   C3619449   4.666   6.407   3.266  0.3128  1.1664 -0.3234
  172SAPE   H6X19450   4.559   6.375   3.272  1.1576 -2.4348 -1.9638
  172SAPE   H6Y19451   4.653   6.516   3.249  1.8956  1.5109  0.5196
  172SAPE   C3719452   4.734   6.383   3.402  0.4387 -0.6502 -0.0607
  172SAPE   H7X19453   4.826   6.445   3.403 -1.2414  2.0124 -0.2377
  172SAPE   H7Y19454   4.765   6.276   3.396  2.1261 -0.1432 -1.0084
  172SAPE   C3819455   4.647   6.409   3.521  0.3601 -0.5520 -0.4211
  172SAPE   H8X19456   4.539   6.389   3.504  0.5582 -1.7666 -0.3264
  172SAPE   H8Y19457   4.653   6.517   3.547  0.9523 -1.1150  2.0200
  172SAPE   C3919458   4.705   6.336   3.650 -0.4368  0.6721  0.0864
  172SAPE   H9X19459   4.816   6.341   3.649 -0.3000 -1.4359  0.6491
  172SAPE   H9Y19460   4.657   6.237   3.636 -1.6970  1.0354  1.6358
  172SAPE  C31019461   4.660   6.395   3.782  0.2028 -0.1873 -0.3930
  172SAPE  H10X19462   4.550   6.404   3.788  0.3164  0.1781  2.2148
  172SAPE  H10Y19463   4.698   6.496   3.808 -0.4583 -0.3739  1.4210
  172SAPE  C31119464   4.690   6.292   3.898 -1.2348  0.3149  0.3320
  172SAPE  H11X19465   4.792   6.252   3.881 -1.7417 -1.1094  0.4965
  172SAPE  H11Y19466   4.616   6.209   3.892 -1.1800  0.3439 -1.9170
  172SAPE  C31219467   4.704   6.355   4.040 -0.8215  0.4505  0.0061
  172SAPE  H12X19468   4.611   6.396   4.085 -0.4572 -1.6704  3.0212
  172SAPE  H12Y19469   4.769   6.442   4.020  0.3596 -0.4497 -0.1591
  172SAPE  C31319470   4.773   6.253   4.142  0.4232 -0.3793 -0.4625
  172SAPE  H13X19471   4.869   6.231   4.092  0.4550  0.0966 -0.6143
  172SAPE  H13Y19472   4.713   6.162   4.160  0.6990 -0.6302 -0.8169
  172SAPE  C31419473   4.800   6.334   4.272 -0.4714 -0.0695  0.2873
  172SAPE  H14X19474   4.714   6.388   4.316  0.6880  1.8771  0.2799
  172SAPE  H14Y19475   4.873   6.414   4.245  0.6937 -1.5744 -1.2724
  172SAPE  C31519476   4.865   6.256   4.385 -0.4066  0.1504  0.0991
  172SAPE  H15X19477   4.959   6.208   4.351  1.1376  4.3663 -2.3030
  172SAPE  H15Y19478   4.790   6.179   4.414 -0.1921 -0.5554 -1.1250
  172SAPE  C31619479   4.921   6.345   4.498 -0.1643  0.1392 -0.7011
  172SAPE  H16X19480   4.839   6.404   4.545  0.2080  1.3949 -1.5770
  172SAPE  H16Y19481   4.995   6.413   4.451 -0.5001  0.3624 -0.9142
  172SAPE  C31719482   4.981   6.275   4.618  0.4224  0.1081  0.3041
  172SAPE  H17X19483   5.047   6.196   4.576 -0.1109 -0.5150  0.6250
  172SAPE  H17Y19484   4.915   6.215   4.684 -1.3126  1.1377 -0.4388
  172SAPE  C31819485   5.066   6.366   4.702  0.5030  0.4501 -0.1216
  172SAPE  H18X19486   5.164   6.378   4.651  1.0500 -1.1739  0.4844
  172SAPE  H18Y19487   5.092   6.320   4.799 -1.9926  1.6796  1.2393
  172SAPE  H18Z19488   5.009   6.461   4.716  1.0719  0.8624 -0.5437
  173SLPC     N19489   3.662   3.923   6.137  0.6469  0.6136  0.3070
  173SLPC   C1319490   3.762   3.853   6.217  1.0056 -0.5639 -1.0818
  173SLPC  H13A19491   3.846   3.841   6.150 -0.1084  1.1823 -2.8753
  173SLPC  H13B19492   3.791   3.911   6.304  0.3258  1.2979 -2.0438
  173SLPC  H13C19493   3.723   3.753   6.232 -0.1687 -0.0657 -0.7512
  173SLPC   C1419494   3.707   4.064   6.104 -0.2727 -0.4818 -0.3618
  173SLPC  H14A19495   3.715   4.121   6.195 -0.9296  0.3930 -0.8329
  173SLPC  H14B19496   3.804   4.061   6.058 -0.1151 -0.0809 -0.0488
  173SLPC  H14C19497   3.632   4.108   6.040  1.7339  1.2530 -1.6490
  173SLPC   C1519498   3.542   3.919   6.232  0.3022 -0.1327 -0.3564
  173SLPC  H15A19499   3.459   3.971   6.188  0.0893 -1.5174 -1.6664
  173SLPC  H15B19500   3.511   3.816   6.241  2.3475 -1.0618 -2.5633
  173SLPC  H15C19501   3.572   3.949   6.331  1.9867  0.1547 -0.9083
  173SLPC   C1219502   3.625   3.850   6.012  0.3561 -0.0841 -0.0527
  173SLPC  H12A19503   3.714   3.842   5.952  1.4679  2.7327  1.0375
  173SLPC  H12B19504   3.564   3.907   5.943 -0.5967 -1.3932 -0.3193
  173SLPC   C1119505   3.567   3.702   6.028  0.7959  0.5611  0.3069
  173SLPC  H11A19506   3.533   3.653   5.934 -0.2891 -1.6723  1.7956
  173SLPC  H11B19507   3.476   3.709   6.091 -1.1515  1.9897 -2.4474
  173SLPC     P19508   3.782   3.565   6.023 -0.4687 -0.2833 -0.3379
  173SLPC   O1319509   3.839   3.672   5.940  0.3776 -0.3173  0.3097
  173SLPC   O1419510   3.866   3.517   6.135 -0.2100  0.0673  0.2627
  173SLPC   O1219511   3.653   3.615   6.100  0.8288 -0.1921 -1.1271
  173SLPC   O1119512   3.730   3.451   5.935  0.1907  0.1615  0.1340
  173SLPC    C119513   3.650   3.341   5.981 -0.4794 -0.3504  0.4950
  173SLPC    HA19514   3.637   3.342   6.092  5.3572 -0.9408  1.5182
  173SLPC    HB19515   3.557   3.335   5.922 -0.2867  0.8471  0.0382
  173SLPC    C219516   3.727   3.212   5.937  0.2058  0.2174 -0.1610
  173SLPC    HS19517   3.833   3.207   5.970  0.6236 -0.8398 -1.5800
  173SLPC   O2119518   3.713   3.215   5.796  0.1349  0.2915  0.4398
  173SLPC   C2119519   3.822   3.248   5.723  0.3302 -0.2577  0.1888
  173SLPC   O2219520   3.939   3.242   5.766 -0.0373 -0.2459  0.5414
  173SLPC   C2219521   3.783   3.280   5.574  0.1632  0.1262  0.4224
  173SLPC   H2R19522   3.739   3.184   5.540  0.1197  0.5938 -0.8732
  173SLPC   H2S19523   3.709   3.362   5.566  1.1065  1.1471  1.6301
  173SLPC    C319524   3.657   3.086   5.996  0.0820  0.1555  0.2947
  173SLPC    HX19525   3.548   3.087   5.972 -0.0255  0.8180  0.7734
  173SLPC    HY19526   3.666   3.100   6.106 -1.9814  0.6772  0.4549
  173SLPC   O3119527   3.705   2.963   5.945 -0.2379 -0.3385 -0.6291
  173SLPC   C3119528   3.801   2.904   6.015  0.1137 -0.2507  0.5403
  173SLPC   O3219529   3.873   2.955   6.100  0.2866 -0.1244  0.1031
  173SLPC   C3219530   3.820   2.758   5.957 -0.2012 -0.7202 -1.5827
  173SLPC   H2X19531   3.720   2.727   5.920 -1.5728  3.8807 -2.3852
  173SLPC   H2Y19532   3.845   2.697   6.046 -2.6959 -2.3849 -1.9067
  173SLPC   C2319533   3.906   3.323   5.491  0.1439 -0.1586 -0.0313
  173SLPC   H3R19534   3.955   3.406   5.547  0.1573 -0.6096  0.6485
  173SLPC   H3S19535   3.877   3.347   5.387 -0.3658  0.5672  0.2663
  173SLPC   C2419536   4.002   3.201   5.468  0.0668 -0.2154 -0.6706
  173SLPC   H4R19537   3.935   3.115   5.446  1.3157 -1.8337  1.4663
  173SLPC   H4S19538   4.065   3.181   5.557  3.0912 -0.9979 -2.8286
  173SLPC   C2519539   4.104   3.213   5.351  0.0978 -0.8916 -0.0039
  173SLPC   H5R19540   4.049   3.216   5.255 -0.4398  1.1259  0.3157
  173SLPC   H5S19541   4.180   3.131   5.348  0.9138 -0.1222 -1.5379
  173SLPC   C2619542   4.187   3.342   5.362 -0.1683 -0.4493 -0.0241
  173SLPC   H6R19543   4.259   3.336   5.447 -0.9167  1.2644  0.7798
  173SLPC   H6S19544   4.113   3.423   5.380 -1.2501 -1.2226 -0.8689
  173SLPC   C2719545   4.277   3.370   5.242 -0.2637  0.2369 -0.5531
  173SLPC   H7R19546   4.327   3.276   5.209  0.8858  0.9821 -1.0278
  173SLPC   H7S19547   4.359   3.436   5.277 -0.0865 -0.7074  0.8872
  173SLPC   C2819548   4.218   3.440   5.120  0.4040 -0.0173 -0.5174
  173SLPC   H8R19549   4.163   3.530   5.154 -1.4333 -0.6555 -1.6758
  173SLPC   H8S19550   4.138   3.376   5.078  1.4139 -0.7033 -1.4482
  173SLPC   C2919551   4.320   3.471   5.016 -0.3473 -0.5638 -0.1217
  173SLPC   H9R19552   4.421   3.439   5.046 -0.0054  0.8228  0.2960
  173SLPC  C21019553   4.291   3.556   4.913  0.2947 -0.9042  0.3797
  173SLPC  H10R19554   4.370   3.579   4.839 -1.7262 -0.6322 -1.8178
  173SLPC  C21119555   4.151   3.617   4.886 -0.0903 -0.7391 -0.0525
  173SLPC  H11R19556   4.096   3.634   4.981 -0.6870 -0.3007 -0.4718
  173SLPC  H11S19557   4.083   3.544   4.837 -0.4149 -0.2236 -0.3814
  173SLPC  C21219558   4.166   3.734   4.797 -0.0411 -1.1424 -0.1353
  173SLPC  H12R19559   4.124   3.827   4.837  0.0288 -1.4725  0.7329
  173SLPC  C21319560   4.214   3.733   4.670  0.5309  1.2857  0.5699
  173SLPC  H13R19561   4.225   3.819   4.603 -0.3277 -0.2549 -1.6625
  173SLPC  C21419562   4.253   3.604   4.598 -0.2063 -0.1998 -0.5081
  173SLPC  H14R19563   4.211   3.514   4.649 -0.4464  0.6243  0.7990
  173SLPC  H14S19564   4.362   3.592   4.614 -0.2069  1.0012  0.6155
  173SLPC  C21519565   4.220   3.597   4.448 -0.1686  0.1483 -0.3226
  173SLPC  H15R19566   4.110   3.580   4.440 -0.3445  0.7655  0.6398
  173SLPC  H15S19567   4.280   3.512   4.410 -0.9846  0.0889 -1.5717
  173SLPC  C21619568   4.246   3.726   4.364  0.0325  0.1819 -0.3782
  173SLPC  H16R19569   4.346   3.755   4.404 -1.7696  0.0188  5.0653
  173SLPC  H16S19570   4.157   3.791   4.378 -0.2992 -0.1178 -1.0725
  173SLPC  C21719571   4.248   3.694   4.208 -0.2460 -0.0938 -0.3137
  173SLPC  H17R19572   4.160   3.629   4.187 -3.0080  2.8623  1.2091
  173SLPC  H17S19573   4.338   3.633   4.184  1.4495  2.2487 -0.3138
  173SLPC  C21819574   4.257   3.811   4.118  0.0284 -0.0781  0.0130
  173SLPC  H18R19575   4.353   3.866   4.108  0.0513 -0.3011 -1.0557
  173SLPC  H18S19576   4.169   3.875   4.142  0.7558  1.3537 -0.9646
  173SLPC  H18T19577   4.235   3.771   4.017  1.5795  4.0757 -2.2001
  173SLPC   C3319578   3.930   2.739   5.856 -0.0951 -0.0707 -0.5501
  173SLPC   H3X19579   4.010   2.666   5.883 -0.4413 -1.0415 -2.0486
  173SLPC   H3Y19580   3.989   2.833   5.852  0.9298 -0.7126 -1.4050
  173SLPC   C3419581   3.879   2.679   5.720  0.2232 -0.5681 -0.0285
  173SLPC   H4X19582   3.828   2.584   5.748  1.4702 -1.4388 -0.5549
  173SLPC   H4Y19583   3.967   2.648   5.658  0.9795 -2.7486  1.9965
  173SLPC   C3519584   3.784   2.779   5.640 -0.5370  1.1075 -0.4345
  173SLPC   H5X19585   3.778   2.879   5.686  1.9206  0.2070  2.1539
  173SLPC   H5Y19586   3.687   2.725   5.650 -0.6630  1.4167  0.0352
  173SLPC   C3619587   3.827   2.789   5.490  0.0363  0.2410 -0.0243
  173SLPC   H6X19588   3.842   2.682   5.464 -0.8468 -0.2722  1.4915
  173SLPC   H6Y19589   3.920   2.848   5.479  2.2042 -2.4259  2.3097
  173SLPC   C3719590   3.717   2.840   5.402 -0.4891 -0.3029 -0.1966
  173SLPC   H7X19591   3.695   2.945   5.432  1.8488  0.0171  0.5608
  173SLPC   H7Y19592   3.624   2.782   5.416  0.3840 -1.0225  3.4564
  173SLPC   C3819593   3.758   2.843   5.252 -0.5043 -0.1949  0.3484
  173SLPC   H8X19594   3.664   2.846   5.193  1.6539  1.1057 -3.3525
  173SLPC   H8Y19595   3.813   2.748   5.231 -1.1084 -1.0237  2.2803
  173SLPC   C3919596   3.843   2.965   5.208 -0.0865  0.2950 -0.0608
  173SLPC   H9X19597   3.942   2.967   5.259 -0.1023  0.1809 -0.0257
  173SLPC   H9Y19598   3.791   3.055   5.247  0.7988 -0.0344  2.0033
  173SLPC  C31019599   3.871   2.963   5.056  0.5611  0.8513 -0.0614
  173SLPC  H10X19600   3.776   2.973   4.999 -1.6768  0.9855  3.4122
  173SLPC  H10Y19601   3.912   2.862   5.034 -0.6250 -0.0375  1.5462
  173SLPC  C31119602   3.965   3.080   5.017 -0.3932  0.0612 -0.8086
  173SLPC  H11X19603   4.059   3.071   5.075  0.4357  4.8297 -0.9828
  173SLPC  H11Y19604   3.926   3.182   5.040  3.7391  1.8014 -0.5817
  173SLPC  C31219605   4.005   3.081   4.869 -0.0662  0.6735 -0.2320
  173SLPC  H12X19606   3.925   3.125   4.805 -1.0741  0.9040  1.1328
  173SLPC  H12Y19607   4.012   2.974   4.839 -1.4503  0.9633 -1.7495
  173SLPC  C31319608   4.130   3.166   4.855 -0.2939  0.5143  0.4016
  173SLPC  H13X19609   4.223   3.148   4.913  0.0796 -0.4128 -0.4574
  173SLPC  H13Y19610   4.101   3.265   4.897  1.1861 -0.1370  3.1846
  173SLPC  C31419611   4.180   3.190   4.708 -0.2731  1.1117  0.5114
  173SLPC  H14X19612   4.245   3.279   4.696 -1.4511  1.8448 -0.7037
  173SLPC  H14Y19613   4.086   3.208   4.651  1.4528  0.0189 -2.9984
  173SLPC  C31519614   4.233   3.067   4.628  0.0052  0.2963  0.8411
  173SLPC  H15X19615   4.161   2.991   4.591  0.8840  0.2820 -0.9044
  173SLPC  H15Y19616   4.304   3.016   4.697 -1.9131 -1.1534  1.8478
  173SLPC  C31619617   4.302   3.109   4.496  0.0387  0.1346  0.1509
  173SLPC  H16X19618   4.394   3.165   4.524  1.3619 -3.2908  3.6351
  173SLPC  H16Y19619   4.235   3.175   4.437  1.1174  0.4811 -0.7190
  173SLPC  C31719620   4.339   2.996   4.402 -0.3099 -0.3112  0.0686
  173SLPC  H17X19621   4.250   2.943   4.363 -0.2551 -0.5454  0.2569
  173SLPC  H17Y19622   4.389   2.913   4.458 -0.7097 -0.2595  0.5084
  173SLPC  C31819623   4.436   3.041   4.292  1.0197  0.1545  0.5893
  173SLPC  H18X19624   4.466   2.951   4.234  1.3789 -0.3069  1.4554
  173SLPC  H18Y19625   4.528   3.085   4.336  1.6622 -0.7010  0.1276
  173SLPC  H18Z19626   4.387   3.114   4.225 -1.7509 -1.9793  0.1028
  174SLPC     N19627   1.150   0.679   6.994 -0.4421 -0.2939  0.3388
  174SLPC   C1319628   1.048   0.687   7.093  0.4206 -0.1275 -0.6993
  174SLPC  H13A19629   1.045   0.781   7.148  1.5782  0.4939 -1.6569
  174SLPC  H13B19630   0.950   0.670   7.050  0.9709 -3.3302 -0.9286
  174SLPC  H13C19631   1.056   0.612   7.170  1.0199  0.0148 -0.6184
  174SLPC   C1419632   1.283   0.685   7.054 -0.4380  0.1297  0.9672
  174SLPC  H14A19633   1.360   0.655   6.985 -1.9057 -0.4135 -0.5205
  174SLPC  H14B19634   1.296   0.787   7.086  0.5254  0.1611  0.4992
  174SLPC  H14C19635   1.303   0.612   7.130  2.5450 -1.0850 -0.8076
  174SLPC   C1519636   1.144   0.786   6.887 -0.0695  0.0465  0.9170
  174SLPC  H15A19637   1.041   0.794   6.855  0.5617 -0.0572 -1.3544
  174SLPC  H15B19638   1.181   0.881   6.922  1.0137  0.1910 -0.5493
  174SLPC  H15C19639   1.199   0.763   6.797 -1.7792  2.0198 -0.7570
  174SLPC   C1219640   1.132   0.545   6.920 -0.8200 -0.4782  0.6194
  174SLPC  H12A19641   1.029   0.530   6.888 -1.2841 -0.0189  1.8598
  174SLPC  H12B19642   1.157   0.471   6.994 -1.3433 -1.7073 -0.3918
  174SLPC   C1119643   1.210   0.510   6.792 -0.2536 -0.2043  0.2305
  174SLPC  H11A19644   1.193   0.589   6.715  0.1502  1.9281  2.2055
  174SLPC  H11B19645   1.180   0.413   6.748  0.4234  0.0206 -0.7637
  174SLPC     P19646   1.481   0.554   6.759 -0.2743 -0.1526 -0.0140
  174SLPC   O1319647   1.487   0.701   6.776 -0.6627 -0.3970  0.3315
  174SLPC   O1419648   1.588   0.473   6.801 -0.3868 -0.0819 -0.2624
  174SLPC   O1219649   1.352   0.497   6.829 -0.2502 -0.0749 -0.2745
  174SLPC   O1119650   1.456   0.514   6.609  0.2878  0.0138  0.5905
  174SLPC    C119651   1.413   0.384   6.566  0.3631 -0.2806 -0.0945
  174SLPC    HA19652   1.488   0.310   6.600 -0.0952  0.0964  1.8444
  174SLPC    HB19653   1.327   0.355   6.629 -0.2578  0.7066 -0.4626
  174SLPC    C219654   1.374   0.374   6.412  0.1294 -0.1280  0.4660
  174SLPC    HS19655   1.319   0.279   6.395 -1.8895  1.2446 -1.1546
  174SLPC   O2119656   1.489   0.390   6.323 -0.3138 -0.2198 -0.7483
  174SLPC   C2119657   1.587   0.297   6.312  0.3803 -0.4536 -0.2433
  174SLPC   O2219658   1.592   0.187   6.365 -0.3666  0.4096 -0.6971
  174SLPC   C2219659   1.699   0.355   6.224 -0.1745 -0.7005  1.1513
  174SLPC   H2R19660   1.754   0.428   6.286 -0.1934  0.1007  0.2442
  174SLPC   H2S19661   1.766   0.270   6.199  1.1967  0.7018 -0.1573
  174SLPC    C319662   1.272   0.490   6.383 -0.7392 -0.3826 -0.4662
  174SLPC    HX19663   1.324   0.585   6.361 -0.5835 -0.1416  0.8563
  174SLPC    HY19664   1.203   0.502   6.469  0.1820  0.5704  0.1711
  174SLPC   O3119665   1.207   0.456   6.261  0.3969 -0.4414 -0.2461
  174SLPC   C3119666   1.128   0.552   6.218  0.5307  0.4427  0.7014
  174SLPC   O3219667   1.105   0.664   6.269 -0.0412 -0.4390 -0.4186
  174SLPC   C3219668   1.057   0.511   6.086  0.4883 -0.4264 -0.0865
  174SLPC   H2X19669   1.108   0.422   6.043 -0.6671 -1.9181  1.4709
  174SLPC   H2Y19670   1.052   0.599   6.018 -3.3417  0.1341  0.6414
  174SLPC   C2319671   1.661   0.432   6.102 -0.3267  0.5608  0.5393
  174SLPC   H3R19672   1.722   0.513   6.056 -1.5833  1.1507 -0.1540
  174SLPC   H3S19673   1.565   0.485   6.120  0.5075  2.3780 -0.1673
  174SLPC   C2419674   1.627   0.331   5.983 -0.5830  0.0798  0.5208
  174SLPC   H4R19675   1.566   0.379   5.903 -0.0278 -1.2404 -0.7558
  174SLPC   H4S19676   1.578   0.238   6.019 -1.2724  0.5725  0.8853
  174SLPC   C2519677   1.761   0.292   5.907 -0.3047 -0.7524 -0.3712
  174SLPC   H5R19678   1.825   0.228   5.971  0.4192  1.2908  1.0571
  174SLPC   H5S19679   1.822   0.384   5.897  0.0485 -1.1960 -2.6947
  174SLPC   C2619680   1.728   0.233   5.767 -0.7209 -0.0000 -0.8684
  174SLPC   H6R19681   1.676   0.306   5.701 -1.1034 -1.1933 -1.9117
  174SLPC   H6S19682   1.655   0.151   5.783 -1.1856  0.0786 -2.4008
  174SLPC   C2719683   1.853   0.184   5.700  0.0131 -0.2653 -0.3722
  174SLPC   H7R19684   1.825   0.125   5.610  2.7466  0.1545 -1.5850
  174SLPC   H7S19685   1.910   0.124   5.774  0.7091 -0.4051 -1.0110
  174SLPC   C2819686   1.956   0.292   5.649  0.3240 -0.1667  0.5293
  174SLPC   H8R19687   2.050   0.241   5.619 -0.6266 -0.3510 -2.4211
  174SLPC   H8S19688   1.976   0.347   5.744  0.8831 -1.5305  1.2235
  174SLPC   C2919689   1.915   0.395   5.543 -0.2952  0.4071 -0.0310
  174SLPC   H9R19690   1.898   0.494   5.587  3.6316  1.3058 -0.1758
  174SLPC  C21019691   1.919   0.374   5.410 -0.0889 -0.3435  0.0012
  174SLPC  H10R19692   1.896   0.453   5.338 -0.5709 -0.8673 -0.4244
  174SLPC  C21119693   1.960   0.252   5.333  0.1567 -0.2733  0.0560
  174SLPC  H11R19694   2.006   0.171   5.393  0.5108 -0.6443 -0.7144
  174SLPC  H11S19695   2.041   0.277   5.262  0.6433  0.9114  0.9818
  174SLPC  C21219696   1.832   0.203   5.267 -0.2824  0.0992  0.5446
  174SLPC  H12R19697   1.761   0.147   5.330 -0.8914 -1.6250 -1.5716
  174SLPC  C21319698   1.798   0.224   5.136  0.4966 -0.5070 -0.7244
  174SLPC  H13R19699   1.703   0.190   5.091  1.2391  0.3270 -3.0701
  174SLPC  C21419700   1.868   0.312   5.033 -0.0843 -0.0095 -0.2415
  174SLPC  H14R19701   1.893   0.409   5.080 -0.6326 -0.5495  1.2204
  174SLPC  H14S19702   1.798   0.334   4.949 -0.5980 -1.0587 -0.1037
  174SLPC  C21519703   1.986   0.247   4.963 -0.4723  0.7638 -0.5012
  174SLPC  H15R19704   2.056   0.195   5.032 -0.7240 -0.8658 -1.4335
  174SLPC  H15S19705   2.058   0.328   4.937  2.3402 -1.4149  0.0990
  174SLPC  C21619706   1.947   0.151   4.852  0.9382 -0.1111 -0.2782
  174SLPC  H16R19707   1.885   0.204   4.777 -0.5944  0.3485  1.2498
  174SLPC  H16S19708   1.873   0.075   4.886  0.3320  0.6919  0.2452
  174SLPC  C21719709   2.054   0.075   4.787 -0.8178 -0.3024  0.1645
  174SLPC  H17R19710   2.108   0.008   4.857  1.8766  1.6366  0.1166
  174SLPC  H17S19711   2.133   0.145   4.751 -0.9988 -0.3703 -0.3786
  174SLPC  C21819712   1.996  -0.005   4.669  0.1874  0.1801  0.3597
  174SLPC  H18R19713   1.937   0.066   4.607  1.9068  1.4595  0.1078
  174SLPC  H18S19714   1.932  -0.086   4.709 -4.2279  2.8462 -0.6245
  174SLPC  H18T19715   2.063  -0.043   4.590 -0.7612  0.0022 -0.3692
  174SLPC   C3319716   0.915   0.480   6.111 -0.1829 -0.4615 -0.4237
  174SLPC   H3X19717   0.861   0.514   6.021 -0.8031  0.3472  0.2342
  174SLPC   H3Y19718   0.859   0.547   6.180 -0.2531 -0.7256 -0.2241
  174SLPC   C3419719   0.877   0.344   6.154  0.2238  0.2145  0.1207
  174SLPC   H4X19720   0.771   0.345   6.188 -0.0873 -1.5178 -0.7080
  174SLPC   H4Y19721   0.934   0.314   6.244  3.0812  0.3264 -1.5492
  174SLPC   C3519722   0.874   0.230   6.046 -1.1509 -0.8630 -0.0856
  174SLPC   H5X19723   0.835   0.139   6.096  1.8052 -1.2519  1.8273
  174SLPC   H5Y19724   0.974   0.202   6.004 -0.6800  0.5315  0.0401
  174SLPC   C3619725   0.776   0.258   5.936  0.4075 -0.6369  0.4869
  174SLPC   H6X19726   0.789   0.354   5.881 -1.9754 -0.4729  0.0920
  174SLPC   H6Y19727   0.672   0.268   5.973  0.5037  1.0125  0.4054
  174SLPC   C3719728   0.767   0.149   5.829 -0.4461 -0.0966  0.1423
  174SLPC   H7X19729   0.744   0.051   5.877 -0.6543 -1.9005 -3.3109
  174SLPC   H7Y19730   0.872   0.129   5.797 -1.0163 -1.9452 -0.7376
  174SLPC   C3819731   0.679   0.191   5.706  0.3703  0.2110 -0.4434
  174SLPC   H8X19732   0.709   0.296   5.687 -2.5117  1.0441 -0.7207
  174SLPC   H8Y19733   0.574   0.202   5.740  0.1496  0.9285 -1.3275
  174SLPC   C3919734   0.702   0.102   5.578  0.5650 -0.4682 -0.2742
  174SLPC   H9X19735   0.637   0.013   5.589  0.2757 -0.1526  0.6467
  174SLPC   H9Y19736   0.810   0.074   5.579  1.3470  2.1173  2.3585
  174SLPC  C31019737   0.679   0.172   5.443 -0.2865 -0.6456 -0.4113
  174SLPC  H10X19738   0.762   0.245   5.438  1.2390 -2.0147  2.2961
  174SLPC  H10Y19739   0.580   0.220   5.429  0.1992  0.0508 -1.6160
  174SLPC  C31119740   0.722   0.073   5.338  0.3198  0.0713  0.5250
  174SLPC  H11X19741   0.655  -0.014   5.357  1.5051 -0.2948  3.5408
  174SLPC  H11Y19742   0.827   0.037   5.345  0.4856  0.4651  0.0476
  174SLPC  C31219743   0.707   0.117   5.191  0.3790  0.1268  0.3783
  174SLPC  H12X19744   0.786   0.190   5.160  1.9920 -1.0930  1.4580
  174SLPC  H12Y19745   0.606   0.162   5.189  1.1102  1.8525  0.6568
  174SLPC  C31319746   0.713  -0.003   5.092 -0.1048 -0.1231 -0.3833
  174SLPC  H13X19747   0.634  -0.071   5.132 -1.6133  2.8855  2.1870
  174SLPC  H13Y19748   0.816  -0.046   5.098 -0.0536  0.0394 -0.0376
  174SLPC  C31419749   0.662   0.039   4.951  0.1935  0.4113 -0.2220
  174SLPC  H14X19750   0.561   0.085   4.949 -2.0049 -3.8003  1.3629
  174SLPC  H14Y19751   0.666  -0.046   4.881 -0.5691  0.4723 -0.3490
  174SLPC  C31519752   0.755   0.148   4.890 -0.2041 -0.1041  0.4101
  174SLPC  H15X19753   0.863   0.125   4.899  0.6331  2.5230 -1.5628
  174SLPC  H15Y19754   0.730   0.240   4.947  2.5643  1.8741 -1.3224
  174SLPC  C31619755   0.723   0.167   4.743  0.0645  0.8335 -0.5762
  174SLPC  H16X19756   0.614   0.184   4.727 -0.0323  2.5749  1.5424
  174SLPC  H16Y19757   0.749   0.067   4.701  1.1965  0.1551  1.5892
  174SLPC  C31719758   0.802   0.282   4.684  0.3669  0.1583  0.0442
  174SLPC  H17X19759   0.910   0.265   4.704 -0.2824 -3.2791  1.3081
  174SLPC  H17Y19760   0.776   0.371   4.745  1.8443  0.7668 -0.1676
  174SLPC  C31819761   0.783   0.334   4.546 -0.4214  0.6534 -0.1092
  174SLPC  H18X19762   0.676   0.346   4.516 -1.1912 -3.6229  0.2611
  174SLPC  H18Y19763   0.826   0.272   4.464 -1.1343  2.2748 -1.7856
  174SLPC  H18Z19764   0.831   0.434   4.544 -0.3617  0.6342  0.4658
  175SLPC     N19765   5.025   6.869   6.922  0.6678 -1.2522  0.4322
  175SLPC   C1319766   4.891   6.843   6.870 -0.0357  0.2657  0.0642
  175SLPC  H13A19767   4.888   6.783   6.781 -1.0302  2.9571 -1.8636
  175SLPC  H13B19768   4.839   6.792   6.950  0.9450 -1.8744 -0.5859
  175SLPC  H13C19769   4.828   6.930   6.856 -1.4209 -0.9050 -1.4494
  175SLPC   C1419770   5.019   6.940   7.053 -0.3007 -0.8648  0.0204
  175SLPC  H14A19771   5.114   6.959   7.101  0.6777 -2.0727 -1.3533
  175SLPC  H14B19772   4.985   7.041   7.033  1.9262 -0.1021 -0.2302
  175SLPC  H14C19773   4.958   6.901   7.133  0.5650 -1.1535  0.5523
  175SLPC   C1519774   5.093   6.962   6.824  0.1540 -0.2287 -0.0985
  175SLPC  H15A19775   5.188   6.990   6.867  0.3111 -1.7564  0.6568
  175SLPC  H15B19776   5.119   6.910   6.733  2.3582 -1.4281  1.1295
  175SLPC  H15C19777   5.033   7.048   6.798  0.1350 -1.0266 -3.0804
  175SLPC   C1219778   5.096   6.738   6.929  1.3845 -0.3299 -0.1991
  175SLPC  H12A19779   5.091   6.713   7.034 -1.8344  1.1555  0.1297
  175SLPC  H12B19780   5.198   6.764   6.907  0.8989  1.7369 -0.1727
  175SLPC   C1119781   5.042   6.609   6.843 -0.3459 -0.3573 -0.3006
  175SLPC  H11A19782   4.935   6.601   6.871 -0.2290  2.2009  1.1757
  175SLPC  H11B19783   5.101   6.523   6.883 -0.5639 -2.6491 -4.3997
  175SLPC     P19784   5.004   6.494   6.627 -0.6315  0.2488 -0.0235
  175SLPC   O1319785   5.068   6.371   6.667  0.4887  0.6863  0.2666
  175SLPC   O1419786   4.854   6.504   6.633  0.1177 -0.0518 -0.4757
  175SLPC   O1219787   5.070   6.616   6.704 -0.3378 -0.1235  0.0708
  175SLPC   O1119788   5.043   6.526   6.477  0.5169  0.0382  0.0635
  175SLPC    C119789   4.994   6.647   6.411  0.0312 -0.7730 -0.7148
  175SLPC    HA19790   4.980   6.735   6.477  2.2705 -0.4532 -0.5933
  175SLPC    HB19791   5.069   6.695   6.345  0.8158  0.4572  1.0172
  175SLPC    C219792   4.876   6.615   6.317 -0.3674 -0.4555  0.4568
  175SLPC    HS19793   4.784   6.588   6.373  0.6677 -2.3638  1.3544
  175SLPC   O2119794   4.914   6.508   6.225 -0.2714 -0.0050 -0.4989
  175SLPC   C2119795   4.814   6.432   6.180  0.0752  0.4230 -0.8459
  175SLPC   O2219796   4.696   6.445   6.205  0.1935 -0.2973  0.3725
  175SLPC   C2219797   4.879   6.343   6.078 -0.1906 -0.0445  0.7812
  175SLPC   H2R19798   4.989   6.349   6.072 -0.2270  1.5856  1.0794
  175SLPC   H2S19799   4.847   6.239   6.100 -0.5515 -0.6636 -2.2535
  175SLPC    C319800   4.849   6.739   6.237  0.5239 -0.2498  0.6068
  175SLPC    HX19801   4.930   6.742   6.161 -1.5454  1.0843 -1.6758
  175SLPC    HY19802   4.851   6.833   6.296 -1.6287 -1.1481  2.2230
  175SLPC   O3119803   4.725   6.735   6.157  0.4212 -0.5351 -0.2848
  175SLPC   C3119804   4.616   6.785   6.219 -0.0743  0.0133  0.5546
  175SLPC   O3219805   4.617   6.842   6.329 -0.4850 -0.1858  0.3621
  175SLPC   C3219806   4.485   6.753   6.140 -0.4057  0.0452 -0.1484
  175SLPC   H2X19807   4.442   6.854   6.125 -1.9131 -0.7214 -1.1981
  175SLPC   H2Y19808   4.418   6.699   6.210 -1.0990 -0.2302 -1.0108
  175SLPC   C2319809   4.819   6.387   5.940  0.0912  0.1099  0.2504
  175SLPC   H3R19810   4.810   6.497   5.940  1.9318  0.3033  1.2634
  175SLPC   H3S19811   4.716   6.347   5.926 -0.3038  1.7388 -1.9732
  175SLPC   C2419812   4.904   6.343   5.820  0.1222  0.2406 -0.0052
  175SLPC   H4R19813   4.918   6.233   5.816  0.6718  0.3395 -1.2883
  175SLPC   H4S19814   5.004   6.392   5.825  1.2034 -1.9018  0.7609
  175SLPC   C2519815   4.852   6.399   5.684  0.7669  0.4025  0.2638
  175SLPC   H5R19816   4.843   6.509   5.700 -2.6161  0.0344  1.5166
  175SLPC   H5S19817   4.753   6.355   5.660  0.9735 -0.0476  0.2323
  175SLPC   C2619818   4.944   6.370   5.562 -0.3139 -0.1105  0.3208
  175SLPC   H6R19819   4.946   6.262   5.533 -0.1956  0.3357 -1.4915
  175SLPC   H6S19820   5.046   6.402   5.591 -0.3151  0.0489  0.1493
  175SLPC   C2719821   4.886   6.436   5.428 -0.3711 -0.5275 -0.2195
  175SLPC   H7R19822   4.973   6.448   5.361  0.6368  1.4874  1.3511
  175SLPC   H7S19823   4.853   6.540   5.451  0.2565 -0.2496 -0.5643
  175SLPC   C2819824   4.779   6.344   5.360 -0.2210 -0.8413  0.0873
  175SLPC   H8R19825   4.693   6.353   5.430 -0.6402  1.2698 -0.6349
  175SLPC   H8S19826   4.824   6.243   5.354  2.9501  0.3915  0.9537
  175SLPC   C2919827   4.735   6.407   5.228  0.1751  0.2039 -1.2292
  175SLPC   H9R19828   4.715   6.514   5.240 -0.3258 -0.1469  2.1562
  175SLPC  C21019829   4.721   6.346   5.110  0.0536  0.1925  0.0300
  175SLPC  H10R19830   4.688   6.410   5.027 -0.9457  0.4150  0.5916
  175SLPC  C21119831   4.750   6.202   5.070 -0.0801  0.0978  0.4891
  175SLPC  H11R19832   4.783   6.145   5.160 -1.9663 -0.5070  0.8411
  175SLPC  H11S19833   4.841   6.188   5.008  0.0752  1.3215  0.4188
  175SLPC  C21219834   4.632   6.127   5.020  0.3032  0.3499 -0.2671
  175SLPC  H12R19835   4.590   6.058   5.094  0.1447  0.2064 -0.4894
  175SLPC  C21319836   4.593   6.122   4.886 -0.6638  0.5135  0.5922
  175SLPC  H13R19837   4.508   6.060   4.853 -2.2116  1.2251  2.9810
  175SLPC  C21419838   4.648   6.204   4.769  0.6654  0.2941 -0.8177
  175SLPC  H14R19839   4.692   6.137   4.691  1.4021  1.3342 -1.3240
  175SLPC  H14S19840   4.733   6.266   4.806 -0.1017  0.0324  1.5395
  175SLPC  C21519841   4.539   6.298   4.718 -0.4328  0.3612  0.0111
  175SLPC  H15R19842   4.498   6.355   4.804 -2.2811 -2.2440  0.9929
  175SLPC  H15S19843   4.452   6.238   4.685 -0.8320  1.1191 -0.3449
  175SLPC  C21619844   4.585   6.393   4.611 -0.5458  0.0895 -0.1458
  175SLPC  H16R19845   4.620   6.323   4.532  1.0429 -1.3096  1.7047
  175SLPC  H16S19846   4.666   6.461   4.646 -1.3375  0.3920  1.1667
  175SLPC  C21719847   4.472   6.484   4.562 -0.3827 -0.6915 -0.1788
  175SLPC  H17R19848   4.431   6.562   4.630  0.9654 -0.4532  0.4053
  175SLPC  H17S19849   4.388   6.418   4.533  1.3033 -2.7537 -0.6170
  175SLPC  C21819850   4.501   6.564   4.437 -0.6517  0.1394 -0.0066
  175SLPC  H18R19851   4.524   6.489   4.358 -2.8980 -0.3229 -0.2814
  175SLPC  H18S19852   4.592   6.623   4.462  0.3039 -1.2348 -0.0784
  175SLPC  H18T19853   4.424   6.635   4.402 -0.0478  1.4473  1.1969
  175SLPC   C3319854   4.496   6.698   5.998 -0.3763 -0.4530  0.1568
  175SLPC   H3X19855   4.395   6.662   5.968 -0.2139 -1.2332  0.5185
  175SLPC   H3Y19856   4.557   6.605   5.994  0.7387  0.2452  0.4715
  175SLPC   C3419857   4.531   6.808   5.902  0.7426 -0.4299 -0.5792
  175SLPC   H4X19858   4.627   6.855   5.933 -0.4395  1.4851  0.3889
  175SLPC   H4Y19859   4.450   6.885   5.905  2.0959  1.0303  0.8726
  175SLPC   C3519860   4.551   6.760   5.761  0.2783 -0.0479  0.0619
  175SLPC   H5X19861   4.458   6.727   5.710 -0.7840 -2.3456  3.1906
  175SLPC   H5Y19862   4.627   6.679   5.761 -1.0681 -1.3459 -0.5020
  175SLPC   C3619863   4.614   6.873   5.671  0.2705 -0.2108 -0.2778
  175SLPC   H6X19864   4.708   6.916   5.710 -0.5039  0.9205  0.4034
  175SLPC   H6Y19865   4.541   6.957   5.673  0.1410 -0.3159 -0.5043
  175SLPC   C3719866   4.633   6.826   5.528  0.3816 -0.1436 -0.3894
  175SLPC   H7X19867   4.534   6.785   5.498 -0.8574  1.6436  1.0532
  175SLPC   H7Y19868   4.703   6.740   5.531 -0.3358 -0.7301 -0.1961
  175SLPC   C3819869   4.676   6.935   5.422  0.2737  0.4400 -0.0174
  175SLPC   H8X19870   4.785   6.947   5.442  0.4712 -1.0831 -0.0140
  175SLPC   H8Y19871   4.619   7.030   5.428  1.1542  1.0876 -1.4859
  175SLPC   C3919872   4.655   6.875   5.284 -0.6873  0.0640  0.0699
  175SLPC   H9X19873   4.550   6.840   5.280 -0.9217  0.8311 -0.9848
  175SLPC   H9Y19874   4.728   6.793   5.266  0.8314  0.9706  1.6976
  175SLPC  C31019875   4.666   6.988   5.180  0.3067 -0.0121  1.0808
  175SLPC  H10X19876   4.762   7.041   5.193  0.6301 -0.8159  2.0127
  175SLPC  H10Y19877   4.581   7.058   5.195 -0.2002 -0.4015  0.1144
  175SLPC  C31119878   4.672   6.941   5.027 -0.1356 -0.6637  0.4118
  175SLPC  H11X19879   4.663   7.033   4.965 -3.0294 -0.5438  0.8477
  175SLPC  H11Y19880   4.580   6.884   5.000  0.1156  0.8012 -4.5416
  175SLPC  C31219881   4.802   6.866   4.988  0.3144 -0.5763 -0.3845
  175SLPC  H12X19882   4.806   6.781   5.060 -0.1705  0.9726  1.5757
  175SLPC  H12Y19883   4.894   6.928   4.986 -0.1583  0.1306 -0.7367
  175SLPC  C31319884   4.778   6.803   4.852 -0.0090 -0.7466  1.2237
  175SLPC  H13X19885   4.678   6.754   4.849 -0.6750  0.6118 -0.3819
  175SLPC  H13Y19886   4.853   6.721   4.843  0.4416 -0.3645  1.4454
  175SLPC  C31419887   4.792   6.901   4.723  0.1069  0.3407  0.8529
  175SLPC  H14X19888   4.899   6.928   4.728  0.1907 -0.1264  2.0428
  175SLPC  H14Y19889   4.729   6.990   4.744  0.6298  0.6837  0.9920
  175SLPC  C31519890   4.766   6.844   4.580 -0.6512 -0.1465  0.3985
  175SLPC  H15X19891   4.758   6.928   4.508  2.4462  0.8812  1.0834
  175SLPC  H15Y19892   4.664   6.800   4.580 -1.1042  0.8031 -1.1045
  175SLPC  C31619893   4.879   6.743   4.527 -0.0095 -0.0708  0.5006
  175SLPC  H16X19894   4.868   6.644   4.575 -0.7326  0.0565  0.6119
  175SLPC  H16Y19895   4.982   6.781   4.546 -0.1252  0.4819  0.0337
  175SLPC  C31719896   4.872   6.727   4.376  0.2646 -0.6206  0.0432
  175SLPC  H17X19897   4.811   6.809   4.332  2.4264  0.7592 -0.5397
  175SLPC  H17Y19898   4.823   6.633   4.343  1.4078 -0.0989 -3.6232
  175SLPC  C31819899   5.010   6.710   4.306 -0.1816 -0.5062 -0.0234
  175SLPC  H18X19900   4.992   6.703   4.197  0.7009 -0.5822 -0.1697
  175SLPC  H18Y19901   5.053   6.611   4.333 -0.5112 -0.1916  1.8321
  175SLPC  H18Z19902   5.083   6.791   4.327  1.2997 -0.4928 -4.2787
  176SLPC     N19903   4.015   4.463   6.647  0.3893  0.3260  0.1146
  176SLPC   C1319904   3.864   4.461   6.638  0.4337 -0.0947 -0.0026
  176SLPC  H13A19905   3.824   4.517   6.556 -1.6832  1.1588  1.7794
  176SLPC  H13B19906   3.814   4.365   6.635 -1.3992  0.8496 -2.3465
  176SLPC  H13C19907   3.814   4.504   6.724 -1.0843 -0.9259 -0.4358
  176SLPC   C1419908   4.039   4.385   6.772  0.7175 -0.3003 -0.3618
  176SLPC  H14A19909   3.981   4.294   6.762 -0.5526  0.5903 -1.3282
  176SLPC  H14B19910   4.144   4.366   6.787  1.0021  1.6299  0.4020
  176SLPC  H14C19911   3.991   4.424   6.861 -0.6217 -0.0644 -1.1649
  176SLPC   C1519912   4.065   4.602   6.667  0.6348  1.0251 -0.0952
  176SLPC  H15A19913   4.036   4.652   6.758 -1.7462  2.2685 -1.4351
  176SLPC  H15B19914   4.173   4.593   6.675  0.5391  0.6879  0.9210
  176SLPC  H15C19915   4.040   4.666   6.584 -2.3365 -1.4724 -1.3343
  176SLPC   C1219916   4.074   4.407   6.520  0.3696 -0.6874  0.3254
  176SLPC  H12A19917   4.029   4.310   6.507 -0.0095 -0.5653  0.6895
  176SLPC  H12B19918   4.177   4.385   6.540  0.0729 -0.5098  2.1728
  176SLPC   C1119919   4.053   4.487   6.389  0.2121  0.2252 -0.4214
  176SLPC  H11A19920   4.121   4.447   6.311  0.7885  0.8490 -0.2534
  176SLPC  H11B19921   4.095   4.590   6.400  1.2717 -0.1767 -0.5374
  176SLPC     P19922   3.845   4.357   6.289 -0.0403  0.4299  0.4184
  176SLPC   O1319923   3.912   4.238   6.339 -0.8756  0.0722  0.1407
  176SLPC   O1419924   3.699   4.357   6.311  0.0355  0.0666 -0.0385
  176SLPC   O1219925   3.907   4.490   6.353  0.3075  0.6158 -0.1895
  176SLPC   O1119926   3.873   4.377   6.131  0.6500  0.2920 -0.0891
  176SLPC    C119927   3.873   4.505   6.070 -0.4992  0.2608  0.2143
  176SLPC    HA19928   3.818   4.581   6.131  0.3028  0.5813  0.5487
  176SLPC    HB19929   3.975   4.546   6.055 -0.0757 -0.4013  1.2195
  176SLPC    C219930   3.804   4.480   5.930 -0.3175  0.0774  0.8168
  176SLPC    HS19931   3.702   4.437   5.937 -1.6836  2.5964 -1.4978
  176SLPC   O2119932   3.904   4.411   5.848 -0.0769 -0.1774  0.1342
  176SLPC   C2119933   3.846   4.313   5.784 -0.4652 -0.7497  0.8516
  176SLPC   O2219934   3.733   4.262   5.803  0.5239  0.0406 -0.1316
  176SLPC   C2219935   3.948   4.256   5.690 -0.5843  0.4949  0.5492
  176SLPC   H2R19936   4.043   4.315   5.692  0.7516 -1.5812  0.8172
  176SLPC   H2S19937   3.969   4.150   5.714  0.8814  0.1618 -1.8144
  176SLPC    C319938   3.775   4.617   5.856 -0.1579 -0.2260  0.8786
  176SLPC    HX19939   3.875   4.664   5.851  0.8179 -2.2775 -0.0114
  176SLPC    HY19940   3.704   4.672   5.922 -0.4756 -0.9305  1.1354
  176SLPC   O3119941   3.723   4.608   5.723  0.2319  0.3466 -0.0842
  176SLPC   C3119942   3.685   4.716   5.664 -0.0711  0.1889  0.4211
  176SLPC   O3219943   3.708   4.830   5.712 -0.2622 -0.0469  0.6787
  176SLPC   C3219944   3.612   4.686   5.533 -0.4262  0.2980 -0.5609
  176SLPC   H2X19945   3.510   4.656   5.564  0.2860 -0.1992  1.5042
  176SLPC   H2Y19946   3.664   4.599   5.487  0.6521  2.0723 -2.9003
  176SLPC   C2319947   3.899   4.245   5.541 -0.4263  0.6810  0.9123
  176SLPC   H3R19948   3.802   4.192   5.532 -0.0392  0.1025 -0.0662
  176SLPC   H3S19949   3.982   4.198   5.483  1.0353  1.2893  2.4195
  176SLPC   C2419950   3.902   4.389   5.472 -0.2692 -0.1681  0.4426
  176SLPC   H4R19951   3.975   4.451   5.530 -0.2287  1.0739 -0.8921
  176SLPC   H4S19952   3.808   4.446   5.488  0.4285  1.6416 -1.4784
  176SLPC   C2519953   3.936   4.387   5.318 -0.7087  0.5909 -0.9485
  176SLPC   H5R19954   3.878   4.306   5.269 -0.8977 -0.5402  1.0332
  176SLPC   H5S19955   4.040   4.349   5.310 -1.3566 -0.8830 -3.3048
  176SLPC   C2619956   3.928   4.520   5.247 -0.1284 -0.3242 -0.1873
  176SLPC   H6R19957   4.004   4.588   5.291 -1.4855 -1.3753  4.2696
  176SLPC   H6S19958   3.829   4.560   5.277 -0.3776 -0.8083 -0.3413
  176SLPC   C2719959   3.939   4.501   5.096 -0.2685  0.4700  0.7152
  176SLPC   H7R19960   4.032   4.441   5.095 -0.7836 -0.4421  2.7364
  176SLPC   H7S19961   3.960   4.591   5.034 -1.0684  0.7824  0.8824
  176SLPC   C2819962   3.809   4.434   5.035  0.1651  0.5152  0.2971
  176SLPC   H8R19963   3.727   4.509   5.025  0.9616  1.4046  0.2361
  176SLPC   H8S19964   3.776   4.343   5.088  0.3715 -0.5436 -1.3308
  176SLPC   C2919965   3.839   4.407   4.887  0.2225 -0.4537  0.3767
  176SLPC   H9R19966   3.900   4.316   4.876 -0.3283 -0.6185 -1.8594
  176SLPC  C21019967   3.807   4.479   4.776  0.6778  0.6260  0.3678
  176SLPC  H10R19968   3.827   4.439   4.675  0.2683  1.5852 -0.1049
  176SLPC  C21119969   3.711   4.597   4.779 -0.3860 -0.1687 -0.7899
  176SLPC  H11R19970   3.762   4.696   4.781  1.0295 -0.8748  0.4034
  176SLPC  H11S19971   3.659   4.602   4.877  3.0160 -0.2342  1.1717
  176SLPC  C21219972   3.621   4.580   4.652  0.0566 -0.3318 -0.1415
  176SLPC  H12R19973   3.656   4.521   4.566 -0.9363 -0.8130 -0.2251
  176SLPC  C21319974   3.485   4.614   4.642  0.5197 -0.3386  0.3040
  176SLPC  H13R19975   3.438   4.596   4.544  0.5465 -2.1565  0.5811
  176SLPC  C21419976   3.407   4.692   4.746 -0.3752 -0.3739  0.3278
  176SLPC  H14R19977   3.433   4.645   4.844 -0.8588 -5.0377 -1.5103
  176SLPC  H14S19978   3.298   4.680   4.730 -0.0355 -3.2780 -0.3598
  176SLPC  C21519979   3.442   4.844   4.736 -0.6069 -0.3144  0.5769
  176SLPC  H15R19980   3.475   4.875   4.635 -1.4347  0.5533  0.5487
  176SLPC  H15S19981   3.521   4.871   4.809  0.1326  0.3149 -0.4397
  176SLPC  C21619982   3.308   4.931   4.771  0.0433  0.9572 -0.4201
  176SLPC  H16R19983   3.281   4.902   4.875  0.8311 -1.9156 -0.9200
  176SLPC  H16S19984   3.227   4.896   4.702 -0.0907  1.1027 -0.3373
  176SLPC  C21719985   3.331   5.077   4.746 -0.6021 -0.4282 -0.2093
  176SLPC  H17R19986   3.361   5.091   4.640 -0.3203 -0.5576 -0.1466
  176SLPC  H17S19987   3.417   5.103   4.811 -0.8453  2.7273 -0.9848
  176SLPC  C21819988   3.215   5.171   4.775 -0.3781 -0.4027 -0.4668
  176SLPC  H18R19989   3.145   5.177   4.689 -0.4553  1.8641 -0.3019
  176SLPC  H18S19990   3.242   5.270   4.818  0.8845  0.2329 -2.5605
  176SLPC  H18T19991   3.159   5.124   4.859  2.2375 -2.7675  0.1186
  176SLPC   C3319992   3.619   4.801   5.439  0.5864 -0.0359  0.3086
  176SLPC   H3X19993   3.723   4.810   5.402  0.5291  1.2091  0.4145
  176SLPC   H3Y19994   3.609   4.898   5.492  1.7852  0.3643 -0.1671
  176SLPC   C3419995   3.514   4.800   5.328 -0.2329  0.7217 -0.3972
  176SLPC   H4X19996   3.540   4.886   5.263  1.0275  0.5794 -0.1085
  176SLPC   H4Y19997   3.410   4.810   5.367  0.6545  1.0795  2.0282
  176SLPC   C3519998   3.523   4.671   5.250  0.1809 -0.8669  0.5658
  176SLPC   H5X19999   3.511   4.584   5.318  1.8895 -2.4525 -1.0741
  176SLPC   H5Y20000   3.622   4.654   5.203 -1.0097  0.8070 -2.9311
  176SLPC   C3620001   3.413   4.679   5.137 -0.9294 -0.3944  0.4709
  176SLPC   H6X20002   3.446   4.599   5.067  0.4141 -1.0325  1.7560
  176SLPC   H6Y20003   3.408   4.779   5.091 -1.3940  0.4490  2.2629
  176SLPC   C3720004   3.264   4.664   5.179 -0.6575  0.4785 -0.4533
  176SLPC   H7X20005   3.249   4.727   5.269  0.9287 -1.7628  1.4833
  176SLPC   H7Y20006   3.247   4.563   5.222  0.2371  1.0422  1.3395
  176SLPC   C3820007   3.161   4.703   5.078 -0.1497  0.6219  0.2370
  176SLPC   H8X20008   3.195   4.797   5.029 -0.1434  0.3898 -0.2136
  176SLPC   H8Y20009   3.068   4.725   5.134  1.0273  0.4601  2.3423
  176SLPC   C3920010   3.128   4.603   4.963 -0.0474 -0.6267 -0.2571
  176SLPC   H9X20011   3.096   4.514   5.021 -4.4500  0.5927 -0.4779
  176SLPC   H9Y20012   3.213   4.577   4.896  1.1126  2.3898 -0.0986
  176SLPC  C31020013   3.010   4.643   4.875 -0.1295 -0.3103  0.6465
  176SLPC  H10X20014   3.019   4.748   4.841 -2.9981 -0.2112 -0.0638
  176SLPC  H10Y20015   2.908   4.653   4.919 -0.7440  0.7004 -0.9134
  176SLPC  C31120016   3.000   4.552   4.748 -0.2472  0.0416 -0.3357
  176SLPC  H11X20017   2.936   4.463   4.762 -0.5347  0.5124  1.8532
  176SLPC  H11Y20018   3.099   4.511   4.722 -0.6654  0.3475 -2.5800
  176SLPC  C31220019   2.939   4.617   4.629 -0.4263 -0.5376 -0.0233
  176SLPC  H12X20020   2.957   4.538   4.553  1.7545  0.8113 -0.9973
  176SLPC  H12Y20021   3.003   4.701   4.594  1.9947 -2.4068 -0.3781
  176SLPC  C31320022   2.794   4.665   4.656  0.1796 -0.1963 -0.0699
  176SLPC  H13X20023   2.795   4.739   4.739  0.3166  2.3278 -2.1607
  176SLPC  H13Y20024   2.730   4.584   4.698 -0.9763  0.4286 -0.5661
  176SLPC  C31420025   2.720   4.720   4.538  0.2367 -0.2662 -0.5085
  176SLPC  H14X20026   2.723   4.634   4.467  2.0823  0.6642 -1.6219
  176SLPC  H14Y20027   2.773   4.810   4.501  0.3897 -1.0696 -2.3782
  176SLPC  C31520028   2.570   4.755   4.566  0.2298 -0.1941  0.8090
  176SLPC  H15X20029   2.559   4.836   4.641 -0.6500  2.0628 -1.6056
  176SLPC  H15Y20030   2.530   4.669   4.623  0.6270  0.0371  1.4583
  176SLPC  C31620031   2.503   4.796   4.434  0.0632 -0.0553  0.1418
  176SLPC  H16X20032   2.516   4.709   4.367 -0.1639  1.3557 -1.8115
  176SLPC  H16Y20033   2.564   4.874   4.384 -1.2977  0.9233 -0.0565
  176SLPC  C31720034   2.344   4.815   4.450 -0.7777  0.3972  0.5046
  176SLPC  H17X20035   2.299   4.860   4.359 -0.6680  1.1870  0.8296
  176SLPC  H17Y20036   2.321   4.890   4.529 -1.7744 -0.6799  1.2770
  176SLPC  C31820037   2.279   4.683   4.479  0.7342 -0.3978 -0.4590
  176SLPC  H18X20038   2.309   4.662   4.583 -0.4761  0.1393  0.0231
  176SLPC  H18Y20039   2.295   4.599   4.408  0.1788 -1.3493  0.5290
  176SLPC  H18Z20040   2.170   4.704   4.482  0.8757  0.4263 -0.7369
  177SLPC     N20041   5.014   6.000   6.615  0.0933  0.1683  0.6160
  177SLPC   C1320042   5.036   5.903   6.504 -0.0770 -0.0329 -0.1207
  177SLPC  H13A20043   5.044   5.941   6.403  2.8490  3.7096  1.3104
  177SLPC  H13B20044   5.122   5.842   6.527 -0.2502  0.4483  2.0245
  177SLPC  H13C20045   4.949   5.838   6.499 -0.8832  1.0359 -0.3286
  177SLPC   C1420046   5.143   6.052   6.655 -0.5897  0.2084 -0.0558
  177SLPC  H14A20047   5.194   6.102   6.574  1.3570 -0.5822  0.6069
  177SLPC  H14B20048   5.137   6.119   6.740 -2.2327 -0.8463  0.7252
  177SLPC  H14C20049   5.219   5.976   6.669 -0.2864  0.2569 -1.3656
  177SLPC   C1520050   4.958   5.920   6.727  0.2590  0.6561 -1.0197
  177SLPC  H15A20051   4.948   5.980   6.816  2.0645  0.0315 -0.3537
  177SLPC  H15B20052   4.865   5.870   6.704 -0.2949  0.9853  0.3536
  177SLPC  H15C20053   5.026   5.843   6.761  1.4219  1.8519 -0.5475
  177SLPC   C1220054   4.936   6.120   6.581  1.0025 -0.6486  0.8195
  177SLPC  H12A20055   4.994   6.161   6.499 -0.5435  0.6272  0.2899
  177SLPC  H12B20056   4.931   6.189   6.663 -0.2400 -1.2256  1.2504
  177SLPC   C1120057   4.785   6.109   6.527  0.3377  0.1349  0.0995
  177SLPC  H11A20058   4.797   6.031   6.450  0.0794 -1.7357  1.8758
  177SLPC  H11B20059   4.748   6.195   6.466  1.0758 -1.4701 -2.7737
  177SLPC     P20060   4.536   6.088   6.584 -0.1199 -0.0517 -0.2683
  177SLPC   O1320061   4.455   5.986   6.656 -0.2836  0.1647 -0.1550
  177SLPC   O1420062   4.493   6.231   6.616 -0.1294  0.8754 -0.0104
  177SLPC   O1220063   4.691   6.067   6.624 -0.1666  0.2253 -0.4746
  177SLPC   O1120064   4.526   6.057   6.432 -0.0551  0.0995 -0.1841
  177SLPC    C120065   4.517   5.924   6.380  0.3919 -0.6536 -0.4604
  177SLPC    HA20066   4.599   5.859   6.419 -0.4739 -1.3563  0.2289
  177SLPC    HB20067   4.415   5.886   6.400  0.8257 -0.8415  1.7163
  177SLPC    C220068   4.542   5.925   6.227 -0.7817  0.4027 -0.4139
  177SLPC    HS20069   4.645   5.967   6.220 -1.7498  2.8842 -1.1116
  177SLPC   O2120070   4.448   6.020   6.175  0.4884 -0.0525  0.3857
  177SLPC   C2120071   4.491   6.098   6.068 -0.6328 -0.2715  0.1552
  177SLPC   O2220072   4.598   6.080   6.018 -0.7267  0.7516 -0.5814
  177SLPC   C2220073   4.387   6.201   6.035 -0.1975  0.3703 -0.1012
  177SLPC   H2R20074   4.287   6.152   6.034 -0.1628 -0.1527  4.3023
  177SLPC   H2S20075   4.391   6.286   6.106 -2.2538  0.6328 -0.2325
  177SLPC    C320076   4.529   5.785   6.156  0.0845  0.0342 -1.0141
  177SLPC    HX20077   4.426   5.744   6.155 -0.2147  0.6986 -2.8865
  177SLPC    HY20078   4.584   5.709   6.215 -1.0344 -0.5753 -0.7203
  177SLPC   O3120079   4.580   5.791   6.023 -0.1569  0.2492  0.2337
  177SLPC   C3120080   4.712   5.785   6.015 -0.5866 -0.5345  0.3865
  177SLPC   O3220081   4.791   5.780   6.107  0.2418 -0.3248  0.0009
  177SLPC   C3220082   4.760   5.785   5.869  0.6798  0.6144  0.2365
  177SLPC   H2X20083   4.669   5.784   5.806  1.1694 -0.0541 -0.4696
  177SLPC   H2Y20084   4.811   5.686   5.862  1.3700  0.4751  4.4558
  177SLPC   C2320085   4.413   6.269   5.899 -0.3129  0.4408 -0.7718
  177SLPC   H3R20086   4.516   6.313   5.899 -0.3420  0.5659  0.6503
  177SLPC   H3S20087   4.333   6.346   5.900 -0.1962  0.5975  1.0276
  177SLPC   C2420088   4.389   6.183   5.773  0.2047 -0.1440  1.0719
  177SLPC   H4R20089   4.287   6.140   5.770  0.5458 -1.0622  2.1322
  177SLPC   H4S20090   4.461   6.099   5.765 -0.7585 -1.3074  3.6107
  177SLPC   C2520091   4.400   6.284   5.648 -0.3991 -0.4078 -0.5409
  177SLPC   H5R20092   4.483   6.353   5.672 -1.2685  0.9365 -1.2628
  177SLPC   H5S20093   4.300   6.331   5.638 -1.1250 -1.5900  0.8515
  177SLPC   C2620094   4.423   6.206   5.523  0.1447  0.7692  0.7514
  177SLPC   H6R20095   4.374   6.108   5.543 -0.6529  0.9615 -0.1927
  177SLPC   H6S20096   4.530   6.187   5.501  0.1952  1.0003  0.7995
  177SLPC   C2720097   4.351   6.263   5.401  0.1707  0.5850  0.6440
  177SLPC   H7R20098   4.371   6.370   5.382 -2.1099  0.9744  0.1316
  177SLPC   H7S20099   4.243   6.277   5.426 -0.0619  1.9139 -0.9098
  177SLPC   C2820100   4.359   6.178   5.270  0.0518  0.2204 -0.2237
  177SLPC   H8R20101   4.315   6.079   5.291  1.1343 -0.0204  0.9569
  177SLPC   H8S20102   4.467   6.172   5.244 -0.0899 -0.2974 -0.7189
  177SLPC   C2920103   4.290   6.240   5.150  0.6815  0.0903  0.0470
  177SLPC   H9R20104   4.353   6.314   5.098 -0.3034  0.1746 -1.0746
  177SLPC  C21020105   4.167   6.214   5.099  0.3519  0.4400 -0.4890
  177SLPC  H10R20106   4.138   6.264   5.005  0.0919  2.7913  0.7662
  177SLPC  C21120107   4.065   6.120   5.152  0.1255  0.2604 -0.2052
  177SLPC  H11R20108   4.082   6.109   5.261  0.2617  1.1483 -0.1294
  177SLPC  H11S20109   4.080   6.027   5.093 -1.2313 -0.6834  0.8880
  177SLPC  C21220110   3.933   6.164   5.117 -0.2432 -0.2332 -0.4012
  177SLPC  H12R20111   3.914   6.179   5.010 -0.3220 -2.9553 -0.8259
  177SLPC  C21320112   3.828   6.147   5.199 -0.6923  0.3938  0.3316
  177SLPC  H13R20113   3.733   6.180   5.156 -2.4371 -3.3432  0.9034
  177SLPC  C21420114   3.828   6.078   5.330 -0.4888 -0.2398 -0.7340
  177SLPC  H14R20115   3.919   6.018   5.350 -0.1670  0.6376  0.5185
  177SLPC  H14S20116   3.742   6.008   5.336 -0.7182  0.0966  0.0594
  177SLPC  C21520117   3.819   6.187   5.443  0.5715  0.0648  0.5460
  177SLPC  H15R20118   3.734   6.256   5.421  1.2109  0.9620  0.8035
  177SLPC  H15S20119   3.914   6.245   5.439 -0.5381  1.9360 -0.4629
  177SLPC  C21620120   3.812   6.120   5.583 -0.3450  0.2998 -0.0994
  177SLPC  H16R20121   3.895   6.048   5.596 -1.3922 -0.8841  0.2736
  177SLPC  H16S20122   3.717   6.062   5.587 -1.3636  1.6136 -2.8847
  177SLPC  C21720123   3.821   6.226   5.695  0.9571 -0.3559 -0.3047
  177SLPC  H17R20124   3.746   6.307   5.681  1.2124 -0.1439 -0.4383
  177SLPC  H17S20125   3.918   6.278   5.687  0.4855  0.6705  0.3838
  177SLPC  C21820126   3.811   6.161   5.837  0.6065 -0.6054  0.2219
  177SLPC  H18R20127   3.712   6.110   5.834  0.1604  0.2871 -1.0016
  177SLPC  H18S20128   3.818   6.238   5.917  1.1366  0.3420 -0.7059
  177SLPC  H18T20129   3.890   6.092   5.872  1.6235  1.2939  1.8491
  177SLPC   C3320130   4.844   5.906   5.819 -0.8939 -0.0826  0.0344
  177SLPC   H3X20131   4.919   5.931   5.896 -1.3071 -0.4480  0.5672
  177SLPC   H3Y20132   4.781   5.998   5.812 -0.1457  0.5257  1.0595
  177SLPC   C3420133   4.921   5.883   5.690 -0.1244 -0.1958 -0.1330
  177SLPC   H4X20134   4.994   5.801   5.711 -0.3686 -0.0702  1.2950
  177SLPC   H4Y20135   4.989   5.967   5.664 -2.1648  1.9424  1.1066
  177SLPC   C3520136   4.825   5.850   5.569 -0.3302  0.6000 -0.2361
  177SLPC   H5X20137   4.780   5.752   5.594  0.9048 -0.1298 -0.7877
  177SLPC   H5Y20138   4.876   5.838   5.471 -1.7876  1.5177 -1.1438
  177SLPC   C3620139   4.719   5.960   5.555  0.0910  0.3587  0.3484
  177SLPC   H6X20140   4.781   6.052   5.546  0.6134  0.0545  0.7519
  177SLPC   H6Y20141   4.646   5.967   5.638  0.3653  0.1098  0.6087
  177SLPC   C3720142   4.652   5.944   5.420  0.2049  0.6832  0.3307
  177SLPC   H7X20143   4.730   5.934   5.342  0.1146  2.6156 -0.0692
  177SLPC   H7Y20144   4.586   6.027   5.384 -0.2970 -0.3834 -1.3163
  177SLPC   C3820145   4.552   5.826   5.421 -0.1169 -0.2217  0.4914
  177SLPC   H8X20146   4.482   5.834   5.506 -2.2087 -0.7950 -1.0895
  177SLPC   H8Y20147   4.605   5.731   5.443 -0.8146 -1.2404 -1.8351
  177SLPC   C3920148   4.479   5.809   5.287  0.6173 -0.3597  0.4412
  177SLPC   H9X20149   4.425   5.904   5.267  2.5851  0.8292  0.5072
  177SLPC   H9Y20150   4.406   5.726   5.286  1.0517 -0.7850  1.6573
  177SLPC  C31020151   4.572   5.794   5.171 -0.0898 -0.3339  0.7952
  177SLPC  H10X20152   4.626   5.699   5.191 -1.7175 -1.1532  1.5347
  177SLPC  H10Y20153   4.636   5.884   5.161 -2.3359  1.1460 -1.9674
  177SLPC  C31120154   4.502   5.756   5.038  0.3544 -0.4876  0.5271
  177SLPC  H11X20155   4.436   5.842   5.012  2.0273  0.8183  0.4109
  177SLPC  H11Y20156   4.453   5.657   5.047  1.4534 -1.0442  0.5368
  177SLPC  C31220157   4.617   5.753   4.934 -0.0081 -0.4801 -0.3512
  177SLPC  H12X20158   4.689   5.668   4.944 -0.3212 -0.4848  2.7135
  177SLPC  H12Y20159   4.669   5.850   4.945  1.4878 -1.0604 -1.7707
  177SLPC  C31320160   4.569   5.756   4.793  0.7299 -0.3707  0.0425
  177SLPC  H13X20161   4.482   5.825   4.792  1.3526  0.4442  0.8045
  177SLPC  H13Y20162   4.542   5.652   4.764  1.4904  0.0479 -2.3187
  177SLPC  C31420163   4.673   5.807   4.696 -0.0659 -0.5885 -0.7099
  177SLPC  H14X20164   4.749   5.727   4.689  0.6066  0.0304 -0.6308
  177SLPC  H14Y20165   4.722   5.894   4.745  1.8056 -2.3359  0.7003
  177SLPC  C31520166   4.618   5.831   4.554 -0.4980  1.1016 -1.0466
  177SLPC  H15X20167   4.582   5.734   4.513 -1.6208 -0.1993  2.6565
  177SLPC  H15Y20168   4.703   5.876   4.498  1.3244  1.1814  1.5749
  177SLPC  C31620169   4.499   5.927   4.556  0.3576 -0.3352 -0.2093
  177SLPC  H16X20170   4.493   6.008   4.632 -0.5689  1.4292 -2.0381
  177SLPC  H16Y20171   4.406   5.871   4.578 -0.0242  0.8212  1.2990
  177SLPC  C31720172   4.468   5.991   4.416  0.2226 -0.7362 -0.8684
  177SLPC  H17X20173   4.437   5.907   4.350  1.8575 -1.9074 -0.2196
  177SLPC  H17Y20174   4.566   6.030   4.379  0.7567 -0.2064  1.0142
  177SLPC  C31820175   4.359   6.102   4.424 -0.7112  0.5040  0.2352
  177SLPC  H18X20176   4.312   6.116   4.324 -0.7863  0.4522  0.2630
  177SLPC  H18Y20177   4.402   6.202   4.449 -1.4569  0.6244  1.0946
  177SLPC  H18Z20178   4.289   6.073   4.505 -0.2318  0.7533  0.7485
  178SLPC     N20179   1.202   4.267   6.547  0.1393  0.1817 -0.1547
  178SLPC   C1320180   1.092   4.362   6.512  0.4228 -1.2439 -0.4274
  178SLPC  H13A20181   1.137   4.455   6.479 -0.8077 -0.6303 -0.4396
  178SLPC  H13B20182   1.038   4.333   6.422  1.1951  0.7194 -1.5906
  178SLPC  H13C20183   1.019   4.371   6.591  1.5542 -0.7136  0.5905
  178SLPC   C1420184   1.142   4.145   6.590  0.1512  0.3639  0.1485
  178SLPC  H14A20185   1.062   4.160   6.661 -0.4014 -1.1334 -0.1141
  178SLPC  H14B20186   1.097   4.106   6.500  0.7043  0.4065 -0.1483
  178SLPC  H14C20187   1.222   4.082   6.625 -0.6004 -0.5399  0.3032
  178SLPC   C1520188   1.268   4.316   6.668  0.2574 -0.1813 -0.5655
  178SLPC  H15A20189   1.285   4.423   6.668 -1.4986  0.1310 -1.0408
  178SLPC  H15B20190   1.213   4.291   6.758 -0.8584  0.6424 -0.9871
  178SLPC  H15C20191   1.366   4.273   6.684  1.4115  3.2054  3.3516
  178SLPC   C1220192   1.289   4.252   6.421 -0.2000 -0.0693  0.0425
  178SLPC  H12A20193   1.338   4.348   6.415  0.0028 -0.0098  1.9601
  178SLPC  H12B20194   1.221   4.242   6.337 -1.9556 -2.1784  1.5960
  178SLPC   C1120195   1.399   4.151   6.419 -0.0070 -0.1024  0.2333
  178SLPC  H11A20196   1.445   4.142   6.318  0.0644  2.0610  0.0444
  178SLPC  H11B20197   1.363   4.049   6.445 -1.3123 -0.1741 -1.6757
  178SLPC     P20198   1.615   4.292   6.476  0.0599 -0.1413  0.5569
  178SLPC   O1320199   1.674   4.353   6.601 -0.3114  0.1727 -0.5543
  178SLPC   O1420200   1.707   4.235   6.381  0.5379  0.1297  0.3050
  178SLPC   O1220201   1.504   4.185   6.506  0.2124 -0.2121 -0.2224
  178SLPC   O1120202   1.527   4.399   6.401 -0.7831  1.0704 -0.1011
  178SLPC    C120203   1.569   4.534   6.408 -0.6145  0.5048  0.0006
  178SLPC    HA20204   1.492   4.589   6.466 -1.4162  0.1398 -0.6934
  178SLPC    HB20205   1.670   4.545   6.453  0.9478  1.0738 -3.3211
  178SLPC    C220206   1.571   4.593   6.266 -0.0592 -0.3884  0.4162
  178SLPC    HS20207   1.463   4.591   6.237 -0.3241  0.3700  1.3140
  178SLPC   O2120208   1.649   4.497   6.188 -0.0613  0.1270  0.3655
  178SLPC   C2120209   1.587   4.405   6.106  0.5697 -0.5806  0.0020
  178SLPC   O2220210   1.465   4.407   6.079 -0.3151 -0.4630  0.0118
  178SLPC   C2220211   1.686   4.304   6.051  1.2291  0.7278  0.2581
  178SLPC   H2R20212   1.781   4.356   6.026  1.7452 -0.1000  0.4765
  178SLPC   H2S20213   1.705   4.231   6.132  0.6628 -1.2843 -1.3456
  178SLPC    C320214   1.628   4.741   6.234  1.1397  0.2065  0.4837
  178SLPC    HX20215   1.737   4.721   6.226  0.8918 -0.5188 -2.1087
  178SLPC    HY20216   1.604   4.803   6.323 -1.2290 -0.8161  0.6249
  178SLPC   O3120217   1.577   4.791   6.111 -0.1833 -0.1126 -0.0046
  178SLPC   C3120218   1.666   4.824   6.014 -0.1432  0.3214 -0.6582
  178SLPC   O3220219   1.785   4.844   6.037  0.2371 -0.0763 -0.2933
  178SLPC   C3220220   1.593   4.853   5.890  0.2884 -0.3665  0.4508
  178SLPC   H2X20221   1.657   4.890   5.807  0.2219  0.2649  0.6736
  178SLPC   H2Y20222   1.524   4.939   5.908  1.8050  0.9283  0.3083
  178SLPC   C2320223   1.636   4.224   5.928 -0.4871 -0.6973 -0.4504
  178SLPC   H3R20224   1.532   4.193   5.952 -0.0402 -1.7261  0.2464
  178SLPC   H3S20225   1.702   4.137   5.908 -1.0067 -1.8733  2.3803
  178SLPC   C2420226   1.650   4.306   5.798 -0.0736  0.7038 -0.2821
  178SLPC   H4R20227   1.759   4.328   5.807  0.2843 -1.5449  2.0378
  178SLPC   H4S20228   1.587   4.397   5.803 -0.9014  0.1803 -0.8968
  178SLPC   C2520229   1.625   4.231   5.664 -0.6796 -0.0351  0.4512
  178SLPC   H5R20230   1.519   4.200   5.667 -0.5386 -0.5774 -0.0166
  178SLPC   H5S20231   1.687   4.139   5.665 -0.3862  0.1458  2.3564
  178SLPC   C2620232   1.661   4.302   5.531 -0.3420 -0.2723 -0.2009
  178SLPC   H6R20233   1.619   4.235   5.454  1.3885 -0.9681 -0.5924
  178SLPC   H6S20234   1.771   4.301   5.517  0.0418 -1.1599  2.3754
  178SLPC   C2720235   1.596   4.449   5.523  0.2333  0.2071 -0.1429
  178SLPC   H7R20236   1.673   4.511   5.573  0.3755 -0.8405  0.9986
  178SLPC   H7S20237   1.507   4.447   5.590  0.6969  3.6500  0.7756
  178SLPC   C2820238   1.561   4.487   5.381 -0.1520 -0.3992  0.1487
  178SLPC   H8R20239   1.500   4.580   5.385 -0.3690 -0.5756  0.9220
  178SLPC   H8S20240   1.499   4.406   5.338  0.1019 -2.2908  3.1186
  178SLPC   C2920241   1.685   4.528   5.304  0.2397  0.3823 -0.6945
  178SLPC   H9R20242   1.742   4.614   5.342  1.6347 -1.9632  2.9874
  178SLPC  C21020243   1.736   4.471   5.193  0.1401  0.0220  0.2946
  178SLPC  H10R20244   1.833   4.506   5.155 -0.6425  1.2140 -0.7143
  178SLPC  C21120245   1.657   4.369   5.108 -0.0894  0.0381 -0.3676
  178SLPC  H11R20246   1.558   4.408   5.079  0.3172  1.5803  0.1939
  178SLPC  H11S20247   1.652   4.278   5.172 -0.0047  0.4292  0.2014
  178SLPC  C21220248   1.723   4.330   4.979 -0.8305 -0.5156 -0.2369
  178SLPC  H12R20249   1.831   4.348   4.969 -0.5817 -0.4682  2.0407
  178SLPC  C21320250   1.657   4.287   4.873 -0.3712  0.0112  0.1477
  178SLPC  H13R20251   1.719   4.274   4.783  1.7303 -0.6754  1.6102
  178SLPC  C21420252   1.513   4.267   4.856 -0.1995 -0.5468  0.5336
  178SLPC  H14R20253   1.479   4.344   4.783 -0.3104 -1.1614 -0.0708
  178SLPC  H14S20254   1.453   4.277   4.949 -0.5566  0.7262  0.1826
  178SLPC  C21520255   1.474   4.129   4.793  0.3368  0.4865 -0.2868
  178SLPC  H15R20256   1.364   4.116   4.783  0.2486  0.2496  0.8411
  178SLPC  H15S20257   1.506   4.059   4.872 -0.2350  0.5754  0.0290
  178SLPC  C21620258   1.525   4.096   4.651 -0.4146  0.6013 -0.8701
  178SLPC  H16R20259   1.491   3.992   4.631  0.8442  0.1458 -0.7531
  178SLPC  H16S20260   1.636   4.088   4.642 -0.6280 -3.4926 -1.8070
  178SLPC  C21720261   1.472   4.191   4.546 -0.8118 -0.0163 -0.4374
  178SLPC  H17R20262   1.518   4.292   4.559  1.2267 -0.7059 -1.9202
  178SLPC  H17S20263   1.361   4.185   4.548 -0.7507 -1.3710 -0.2995
  178SLPC  C21820264   1.516   4.163   4.407  0.1972 -0.0232 -0.0395
  178SLPC  H18R20265   1.447   4.222   4.342  0.8622 -2.0924 -2.8182
  178SLPC  H18S20266   1.518   4.057   4.373 -1.1866  0.0851 -0.5513
  178SLPC  H18T20267   1.618   4.205   4.396 -0.4698  2.0579  1.0972
  178SLPC   C3320268   1.527   4.724   5.840  0.4570  0.3452  0.6317
  178SLPC   H3X20269   1.443   4.690   5.905  1.1205  0.3586  1.5226
  178SLPC   H3Y20270   1.603   4.643   5.836 -0.5501 -0.7483  2.3846
  178SLPC   C3420271   1.490   4.730   5.690  0.3226 -0.0049  0.2763
  178SLPC   H4X20272   1.433   4.637   5.672  1.8637 -1.3632  1.9559
  178SLPC   H4Y20273   1.586   4.727   5.635  0.1018  0.1760 -0.1191
  178SLPC   C3520274   1.408   4.844   5.651  0.0854 -0.3589 -0.0576
  178SLPC   H5X20275   1.455   4.933   5.698  0.0370  0.5973 -1.7485
  178SLPC   H5Y20276   1.305   4.829   5.689  0.5333 -2.0964  0.5913
  178SLPC   C3620277   1.410   4.873   5.504  0.1245 -0.8304 -0.3331
  178SLPC   H6X20278   1.504   4.828   5.464  0.3880 -0.8390  0.2887
  178SLPC   H6Y20279   1.405   4.982   5.485 -1.1930 -0.8932 -0.4640
  178SLPC   C3720280   1.294   4.806   5.422 -0.2002 -0.1329  0.0990
  178SLPC   H7X20281   1.194   4.810   5.471  0.9032 -2.3000  2.7519
  178SLPC   H7Y20282   1.322   4.699   5.411  1.0036  0.2422 -0.6733
  178SLPC   C3820283   1.289   4.868   5.281 -0.0568  0.0862  0.5072
  178SLPC   H8X20284   1.271   4.978   5.279 -2.0164 -0.1747  1.1849
  178SLPC   H8Y20285   1.206   4.819   5.227  0.8602  0.3394 -1.1775
  178SLPC   C3920286   1.418   4.841   5.208 -0.2700  0.2981  0.5229
  178SLPC   H9X20287   1.448   4.739   5.241  4.7059  0.8256 -1.5307
  178SLPC   H9Y20288   1.500   4.908   5.242  0.0182  0.9975 -1.4389
  178SLPC  C31020289   1.403   4.854   5.058  0.0135  0.3539 -0.0600
  178SLPC  H10X20290   1.409   4.963   5.041  0.1480  0.4003  0.2631
  178SLPC  H10Y20291   1.304   4.816   5.027  0.8581 -2.2250  0.1824
  178SLPC  C31120292   1.519   4.792   4.976  0.3396  0.1582 -0.2620
  178SLPC  H11X20293   1.487   4.795   4.870  0.4565  2.3128 -0.2726
  178SLPC  H11Y20294   1.519   4.683   4.999  1.0164  0.6586  2.5496
  178SLPC  C31220295   1.666   4.843   5.006  0.4150 -0.9726 -0.6686
  178SLPC  H12X20296   1.712   4.815   5.103 -1.8511  0.1502  0.8126
  178SLPC  H12Y20297   1.675   4.953   5.015 -0.0679 -1.0545  1.2082
  178SLPC  C31320298   1.762   4.785   4.893  0.7431  0.0988 -0.3754
  178SLPC  H13X20299   1.729   4.798   4.788  0.8690  1.1041 -0.2930
  178SLPC  H13Y20300   1.789   4.678   4.911  3.1093  0.9623  1.7987
  178SLPC  C31420301   1.892   4.860   4.894  0.0363 -0.3272 -0.6219
  178SLPC  H14X20302   1.935   4.859   4.997 -2.9664 -0.5994  0.7563
  178SLPC  H14Y20303   1.890   4.970   4.877  2.8027 -0.1029  0.0258
  178SLPC  C31520304   1.986   4.802   4.793  0.1481 -0.5122  0.6906
  178SLPC  H15X20305   1.955   4.777   4.689  1.7736 -0.2935  0.1144
  178SLPC  H15Y20306   2.022   4.703   4.828 -0.2893 -1.0199 -0.2538
  178SLPC  C31620307   2.108   4.895   4.777  0.3023 -0.4556  0.2189
  178SLPC  H16X20308   2.075   4.982   4.715  0.8815 -0.0595  0.4575
  178SLPC  H16Y20309   2.178   4.844   4.707  0.0003 -2.5674  1.3821
  178SLPC  C31720310   2.186   4.933   4.902 -0.8594 -0.0147  0.4846
  178SLPC  H17X20311   2.212   4.851   4.972 -1.2365  0.2125  0.8999
  178SLPC  H17Y20312   2.123   4.999   4.966 -2.1653 -0.7395  0.0055
  178SLPC  C31820313   2.306   5.011   4.869  0.4878  0.7729  0.8204
  178SLPC  H18X20314   2.364   4.973   4.782 -0.8926  1.2706 -0.3723
  178SLPC  H18Y20315   2.371   5.036   4.956 -0.4891  0.0736  1.7750
  178SLPC  H18Z20316   2.280   5.115   4.838 -0.8381  0.1642 -0.2211
  179SLPC     N20317   6.681   1.846   1.787 -0.4244  0.1327  0.1109
  179SLPC   C1320318   6.564   1.916   1.843 -0.2195  0.2017 -0.3057
  179SLPC  H13A20319   6.510   1.957   1.758  0.9327 -0.1182 -1.2158
  179SLPC  H13B20320   6.497   1.846   1.889 -0.9287  0.7937 -0.4230
  179SLPC  H13C20321   6.583   1.996   1.913 -2.4303  0.5558 -0.0541
  179SLPC   C1420322   6.758   1.937   1.706 -0.0760  0.2384  0.0912
  179SLPC  H14A20323   6.824   1.881   1.640  1.0680  0.0528  1.3593
  179SLPC  H14B20324   6.688   2.002   1.656  0.8151  1.0967 -0.0742
  179SLPC  H14C20325   6.828   1.989   1.768 -0.5038  1.8634 -0.7397
  179SLPC   C1520326   6.635   1.731   1.691 -0.2927  0.2754  0.4022
  179SLPC  H15A20327   6.576   1.775   1.612 -0.5552  0.7374  0.8411
  179SLPC  H15B20328   6.720   1.670   1.668 -0.4592  0.2211 -0.0803
  179SLPC  H15C20329   6.570   1.655   1.731  2.4454 -2.9736 -0.8953
  179SLPC   C1220330   6.760   1.799   1.911 -0.0560  0.3924  0.2209
  179SLPC  H12A20331   6.852   1.761   1.868 -0.4005  1.2151 -1.3276
  179SLPC  H12B20332   6.713   1.716   1.961  0.1001 -0.2183 -0.6362
  179SLPC   C1120333   6.806   1.896   2.025  0.1463 -0.6897 -0.0282
  179SLPC  H11A20334   6.889   1.837   2.068  2.0048  1.4614 -0.4516
  179SLPC  H11B20335   6.718   1.901   2.093  0.2123 -3.3054  0.3271
  179SLPC     P20336   6.788   2.156   2.017  0.3885 -0.0037 -0.0900
  179SLPC   O1320337   6.833   2.264   1.925  0.0719 -0.0456  0.3884
  179SLPC   O1420338   6.641   2.143   2.026 -0.2601  0.4702 -0.2137
  179SLPC   O1220339   6.855   2.023   1.984 -0.0303 -0.5163  0.2452
  179SLPC   O1120340   6.837   2.192   2.166  0.0133  0.2600 -0.1971
  179SLPC    C120341   6.955   2.141   2.227  0.3130  0.2526  0.1597
  179SLPC    HA20342   6.936   2.035   2.253 -0.7346  0.4354  0.1641
  179SLPC    HB20343   7.044   2.138   2.161  0.7790  1.5323  0.6798
  179SLPC    C220344   6.997   2.228   2.350 -0.0408  0.6887  0.3127
  179SLPC    HS20345   7.064   2.168   2.415 -2.4580 -1.9784  0.5405
  179SLPC   O2120346   6.884   2.257   2.433  0.0558 -0.2247  0.3155
  179SLPC   C2120347   6.810   2.158   2.479 -0.2419  0.4303  0.7767
  179SLPC   O2220348   6.837   2.040   2.475 -0.2942 -0.2065 -0.1002
  179SLPC   C2220349   6.679   2.207   2.535 -0.4830  0.3048 -0.2535
  179SLPC   H2R20350   6.630   2.262   2.451  0.2884  1.2847 -0.0858
  179SLPC   H2S20351   6.615   2.119   2.556 -0.3540  0.4649  0.8430
  179SLPC    C320352   7.065   2.360   2.305 -0.5817 -0.7936  0.3643
  179SLPC    HX20353   7.001   2.396   2.223 -0.3558 -2.3712 -0.5482
  179SLPC    HY20354   7.163   2.331   2.262 -0.1102  2.5199 -1.1153
  179SLPC   O3120355   7.093   2.462   2.413  0.1537 -0.2383  0.3592
  179SLPC   C3120356   7.000   2.554   2.432 -0.4480 -0.1976  0.2700
  179SLPC   O3220357   6.891   2.567   2.371 -0.2123 -0.1091 -0.5321
  179SLPC   C3220358   7.043   2.659   2.537 -0.0888  0.3024 -0.1617
  179SLPC   H2X20359   6.952   2.716   2.565  1.2986  2.9105 -0.6024
  179SLPC   H2Y20360   7.115   2.733   2.495  0.3430  0.1310  0.2750
  179SLPC   C2320361   6.697   2.296   2.664  0.4963 -0.1329  0.0814
  179SLPC   H3R20362   6.597   2.343   2.676 -0.7221 -1.8589 -2.3525
  179SLPC   H3S20363   6.764   2.383   2.649 -0.6844  0.4287 -2.5116
  179SLPC   C2420364   6.735   2.216   2.787 -0.0202  0.6072  0.7928
  179SLPC   H4R20365   6.834   2.167   2.774  0.5821  1.6220  1.3825
  179SLPC   H4S20366   6.660   2.135   2.795 -0.0551  0.6712  1.1278
  179SLPC   C2520367   6.742   2.303   2.917 -0.6690  0.2505  0.9065
  179SLPC   H5R20368   6.650   2.365   2.911  0.1024  1.2827 -0.9841
  179SLPC   H5S20369   6.837   2.360   2.925  0.1363 -0.3183 -3.0234
  179SLPC   C2620370   6.720   2.210   3.034 -0.2149  0.1862  0.3327
  179SLPC   H6R20371   6.810   2.144   3.035 -0.5026 -0.2283  1.4863
  179SLPC   H6S20372   6.626   2.151   3.031 -0.8250  1.1273  0.4141
  179SLPC   C2720373   6.716   2.291   3.161  0.2054 -0.2938 -0.1158
  179SLPC   H7R20374   6.628   2.360   3.159 -0.7538 -1.4314  1.1892
  179SLPC   H7S20375   6.811   2.346   3.176  1.6152 -2.6999  0.1993
  179SLPC   C2820376   6.701   2.196   3.278 -0.5510 -0.4429 -0.0457
  179SLPC   H8R20377   6.801   2.161   3.310 -0.8137  0.4676  2.0018
  179SLPC   H8S20378   6.642   2.109   3.243 -3.4229  1.3262  0.0162
  179SLPC   C2920379   6.627   2.258   3.391 -0.3470  0.0262 -0.6001
  179SLPC   H9R20380   6.519   2.249   3.377 -0.6686  0.6094  1.3040
  179SLPC  C21020381   6.684   2.320   3.497  1.1004  0.7078  0.1335
  179SLPC  H10R20382   6.612   2.364   3.567  1.7381  1.5391  0.2773
  179SLPC  C21120383   6.829   2.344   3.521 -0.3270 -0.2150  0.3889
  179SLPC  H11R20384   6.879   2.342   3.422 -0.3505  0.7305  0.3563
  179SLPC  H11S20385   6.867   2.263   3.587 -1.3846 -0.5780  0.5608
  179SLPC  C21220386   6.851   2.479   3.591  0.4800  0.3617  0.0058
  179SLPC  H12R20387   6.875   2.564   3.526  1.0500  1.0823  1.1359
  179SLPC  C21320388   6.815   2.508   3.714 -0.7135 -0.1592  0.3734
  179SLPC  H13R20389   6.833   2.612   3.747  2.0924 -0.0663 -1.1514
  179SLPC  C21420390   6.759   2.417   3.816  0.0752  0.8583 -0.7952
  179SLPC  H14R20391   6.735   2.321   3.765 -0.3426  1.2363 -1.3234
  179SLPC  H14S20392   6.668   2.447   3.872  0.1110 -1.1957  0.4451
  179SLPC  C21520393   6.867   2.405   3.927  0.3673 -0.1466 -0.0808
  179SLPC  H15R20394   6.880   2.504   3.976 -1.9110  0.0078  0.3306
  179SLPC  H15S20395   6.967   2.366   3.899  0.3985  0.2314 -0.5096
  179SLPC  C21620396   6.808   2.325   4.043 -0.2514  0.3984 -0.5635
  179SLPC  H16R20397   6.705   2.362   4.058 -0.1797  0.0795  0.9223
  179SLPC  H16S20398   6.861   2.356   4.137 -1.9437  2.5084 -0.2383
  179SLPC  C21720399   6.820   2.171   4.027  0.7608  0.3426 -0.0771
  179SLPC  H17R20400   6.916   2.139   3.982  0.7938 -0.7597  0.7324
  179SLPC  H17S20401   6.735   2.151   3.959  0.0806 -0.2530  0.9203
  179SLPC  C21820402   6.767   2.094   4.142 -0.0405  0.2073  0.6280
  179SLPC  H18R20403   6.671   2.131   4.183 -1.1879  0.0725 -1.7241
  179SLPC  H18S20404   6.837   2.099   4.227 -1.4840  0.6709  1.8456
  179SLPC  H18T20405   6.750   1.987   4.119 -1.4427  0.0935  2.0018
  179SLPC   C3320406   7.094   2.587   2.660  0.3065  0.7049 -0.4214
  179SLPC   H3X20407   7.188   2.530   2.644  0.4977 -0.0750  2.7814
  179SLPC   H3Y20408   7.016   2.512   2.687  1.2275 -0.1133  0.0561
  179SLPC   C3420409   7.115   2.686   2.780 -0.7617  0.3740  0.6765
  179SLPC   H4X20410   7.015   2.728   2.805 -1.1968 -0.8309  1.0156
  179SLPC   H4Y20411   7.190   2.764   2.754  1.5040 -1.9440 -0.1729
  179SLPC   C3520412   7.166   2.611   2.902  0.1242  0.2473 -0.2906
  179SLPC   H5X20413   7.271   2.576   2.893  0.5844  1.4313  0.3523
  179SLPC   H5Y20414   7.174   2.672   2.994  0.2990  0.0526 -0.1752
  179SLPC   C3620415   7.074   2.489   2.951 -0.8291  0.4706  0.3696
  179SLPC   H6X20416   7.061   2.412   2.872 -2.3938  0.6455  0.4159
  179SLPC   H6Y20417   6.973   2.527   2.977 -0.3010 -0.4639  4.5988
  179SLPC   C3720418   7.120   2.431   3.089  0.1206  0.1123  0.6414
  179SLPC   H7X20419   7.228   2.405   3.086 -0.2373 -1.7484  1.7623
  179SLPC   H7Y20420   7.076   2.332   3.114  0.7661 -0.3526 -0.0283
  179SLPC   C3820421   7.083   2.515   3.210 -0.0022  0.3615 -0.0604
  179SLPC   H8X20422   6.973   2.531   3.212 -0.2871 -0.6277 -2.9417
  179SLPC   H8Y20423   7.140   2.609   3.192 -0.8713  0.5795 -1.9221
  179SLPC   C3920424   7.126   2.464   3.345  0.7653  0.3814  1.1316
  179SLPC   H9X20425   7.077   2.365   3.356 -4.7022  2.4836 -0.7521
  179SLPC   H9Y20426   7.077   2.533   3.417 -1.1280  0.0301  0.2346
  179SLPC  C31020427   7.270   2.466   3.371 -0.2745 -1.0545  0.3681
  179SLPC  H10X20428   7.301   2.573   3.364 -2.0858 -0.3117  2.4717
  179SLPC  H10Y20429   7.328   2.407   3.297  0.8988 -1.7839  1.8058
  179SLPC  C31120430   7.317   2.416   3.510  0.7276 -0.2280 -0.3285
  179SLPC  H11X20431   7.427   2.430   3.504  0.3670  3.3738 -0.5224
  179SLPC  H11Y20432   7.282   2.312   3.528 -0.1352  0.0553 -0.3382
  179SLPC  C31220433   7.252   2.502   3.622  0.3411 -0.0070  0.0207
  179SLPC  H12X20434   7.142   2.510   3.606  0.8202  0.9488 -3.4846
  179SLPC  H12Y20435   7.290   2.604   3.601  0.6395 -0.0960  0.1222
  179SLPC  C31320436   7.286   2.452   3.769 -0.3522 -0.3244  0.4635
  179SLPC  H13X20437   7.397   2.444   3.777 -0.4785 -0.9103  2.0540
  179SLPC  H13Y20438   7.251   2.348   3.789  1.2989 -1.1491 -0.6518
  179SLPC  C31420439   7.235   2.558   3.859 -0.1328 -0.1945  0.3754
  179SLPC  H14X20440   7.124   2.567   3.851 -0.4940 -0.7855  3.4412
  179SLPC  H14Y20441   7.285   2.651   3.823 -0.5644 -1.0320 -2.7404
  179SLPC  C31520442   7.267   2.525   4.004  0.5175  0.2925 -0.1996
  179SLPC  H15X20443   7.377   2.511   3.996  0.8954  3.1076 -0.9763
  179SLPC  H15Y20444   7.207   2.436   4.032 -0.9984  0.6479 -2.1010
  179SLPC  C31620445   7.222   2.640   4.098 -0.6180 -0.0177 -0.0333
  179SLPC  H16X20446   7.111   2.651   4.097 -0.7349 -0.7802  1.4399
  179SLPC  H16Y20447   7.253   2.739   4.060 -1.3063  0.0897 -0.3431
  179SLPC  C31720448   7.285   2.626   4.238  0.2075  0.2353  0.1222
  179SLPC  H17X20449   7.395   2.610   4.234 -0.0313 -1.8621  0.9358
  179SLPC  H17Y20450   7.256   2.527   4.278  0.1260 -0.1539 -0.8748
  179SLPC  C31820451   7.252   2.741   4.336  1.4418 -0.0361  0.3886
  179SLPC  H18X20452   7.144   2.745   4.365  0.4196 -0.5863 -2.9385
  179SLPC  H18Y20453   7.279   2.840   4.293 -1.9052  0.4100 -1.0015
  179SLPC  H18Z20454   7.316   2.721   4.425 -1.4603 -2.0764  2.2248
  180SLPC     N20455   5.654   2.960   2.038  0.0047  0.0874  0.1929
  180SLPC   C1320456   5.566   3.008   2.147 -0.3364  0.4055  0.5361
  180SLPC  H13A20457   5.483   3.059   2.099  1.4652  1.6715 -1.4515
  180SLPC  H13B20458   5.535   2.930   2.214  1.8636 -2.0572 -1.1437
  180SLPC  H13C20459   5.620   3.073   2.214 -1.2180 -0.4462  2.1313
  180SLPC   C1420460   5.666   3.063   1.932 -0.1797  0.3179 -0.0853
  180SLPC  H14A20461   5.573   3.097   1.890 -0.5934 -1.1901 -0.4704
  180SLPC  H14B20462   5.721   3.144   1.977 -0.3029 -0.7111  2.0380
  180SLPC  H14C20463   5.723   3.026   1.848  0.9468  0.4325  0.6073
  180SLPC   C1520464   5.594   2.832   1.972 -0.3281  0.0688 -0.0340
  180SLPC  H15A20465   5.560   2.766   2.050 -0.3506  1.6559  1.3759
  180SLPC  H15B20466   5.502   2.863   1.925 -0.6610 -1.6000 -0.5255
  180SLPC  H15C20467   5.661   2.786   1.901 -0.3633 -0.0174 -0.0108
  180SLPC   C1220468   5.796   2.939   2.090  0.1405  0.6680 -0.3929
  180SLPC  H12A20469   5.862   2.939   2.004  0.8595 -0.7233  0.1202
  180SLPC  H12B20470   5.805   2.843   2.140 -0.9897  0.0144 -1.3966
  180SLPC   C1120471   5.871   3.039   2.191  0.4689 -0.0678 -0.1099
  180SLPC  H11A20472   5.980   3.018   2.190  1.1578  2.9754 -0.7234
  180SLPC  H11B20473   5.833   3.002   2.289 -1.7507  0.4748 -0.6892
  180SLPC     P20474   5.858   3.289   2.283 -0.2061  0.0742 -0.3478
  180SLPC   O1320475   5.868   3.417   2.206 -0.0676 -0.7266 -0.4067
  180SLPC   O1420476   5.748   3.276   2.380 -0.1322  0.3222 -0.6374
  180SLPC   O1220477   5.844   3.178   2.164  0.5211 -0.3108  0.3761
  180SLPC   O1120478   5.993   3.255   2.345 -0.3094  0.3537 -0.5108
  180SLPC    C120479   6.009   3.161   2.454  0.1609  0.1798  0.7133
  180SLPC    HA20480   5.912   3.135   2.503 -1.0653  0.7512 -1.2791
  180SLPC    HB20481   6.061   3.071   2.414 -0.8560  0.7174 -2.0797
  180SLPC    C220482   6.100   3.227   2.552  0.1672  0.0483 -0.3272
  180SLPC    HS20483   6.176   3.286   2.497  0.8157 -1.0194 -0.6008
  180SLPC   O2120484   6.167   3.130   2.637 -0.3336 -0.1732  0.2060
  180SLPC   C2120485   6.274   3.179   2.696  0.1975 -0.1203 -0.8591
  180SLPC   O2220486   6.348   3.271   2.661  0.7797 -0.0832  0.1135
  180SLPC   C2220487   6.296   3.101   2.828 -0.0070 -0.2686 -0.4814
  180SLPC   H2R20488   6.206   3.042   2.855  0.9630 -0.9942  1.3359
  180SLPC   H2S20489   6.369   3.019   2.816  0.2286 -0.8202  3.2834
  180SLPC    C320490   6.020   3.334   2.639  0.0138  0.5764  0.8547
  180SLPC    HX20491   5.946   3.280   2.702 -0.8918 -0.0478 -0.7002
  180SLPC    HY20492   5.959   3.392   2.568 -0.4136  1.1376  1.6667
  180SLPC   O3120493   6.098   3.426   2.714 -0.5781 -0.0106  0.0367
  180SLPC   C3120494   6.153   3.529   2.650  0.4382 -0.2537  0.3733
  180SLPC   O3220495   6.139   3.557   2.532  0.8274 -0.0531  0.0371
  180SLPC   C3220496   6.225   3.620   2.748  0.6163 -0.1559  0.7470
  180SLPC   H2X20497   6.169   3.716   2.738  0.8932 -0.2270 -3.9516
  180SLPC   H2Y20498   6.326   3.631   2.702  0.9749  1.1777  1.7765
  180SLPC   C2320499   6.349   3.180   2.950 -0.2665  0.8522  0.7413
  180SLPC   H3R20500   6.288   3.273   2.957 -0.7317  0.5286  1.0641
  180SLPC   H3S20501   6.455   3.210   2.933  0.2134 -0.9509  0.3539
  180SLPC   C2420502   6.331   3.116   3.082 -0.1803  0.2521 -0.7684
  180SLPC   H4R20503   6.396   3.169   3.155  2.1064 -1.2688 -1.6215
  180SLPC   H4S20504   6.338   3.006   3.076 -1.8035  0.0650  0.0312
  180SLPC   C2520505   6.180   3.140   3.132  0.4334  0.0417 -0.2954
  180SLPC   H5R20506   6.111   3.086   3.064  0.9991  0.4107 -1.1775
  180SLPC   H5S20507   6.147   3.246   3.125  2.0913  0.5448 -0.8739
  180SLPC   C2620508   6.161   3.099   3.280  1.1103 -0.5467 -0.1458
  180SLPC   H6R20509   6.208   3.002   3.308  1.2347 -0.0347  1.5234
  180SLPC   H6S20510   6.053   3.079   3.299  1.0431  1.3821  1.8648
  180SLPC   C2720511   6.208   3.208   3.384 -0.1044 -0.2177 -0.5039
  180SLPC   H7R20512   6.180   3.309   3.347  1.2464 -0.0308 -1.0759
  180SLPC   H7S20513   6.319   3.210   3.390  0.0607  0.6370 -2.7378
  180SLPC   C2820514   6.163   3.173   3.533 -0.5420 -0.4489  0.1693
  180SLPC   H8R20515   6.059   3.141   3.511  0.1265 -1.2589 -2.1399
  180SLPC   H8S20516   6.169   3.265   3.594  2.4495  1.5056 -2.7120
  180SLPC   C2920517   6.236   3.049   3.582 -0.5370 -0.5563 -0.2118
  180SLPC   H9R20518   6.344   3.066   3.575 -0.8634  1.3379 -1.1708
  180SLPC  C21020519   6.187   2.935   3.627 -0.3006 -0.8148  0.3168
  180SLPC  H10R20520   6.256   2.859   3.665  1.1776  0.3984  0.1415
  180SLPC  C21120521   6.039   2.908   3.646 -0.1008 -0.0136 -0.2857
  180SLPC  H11R20522   6.027   2.802   3.678 -0.2856  0.2469  0.5359
  180SLPC  H11S20523   5.986   2.906   3.549  1.5582  1.5462 -1.2766
  180SLPC  C21220524   5.960   2.998   3.739  0.0464  0.5016 -0.3741
  180SLPC  H12R20525   5.893   3.071   3.693 -2.0210 -1.3205 -0.3898
  180SLPC  C21320526   5.960   2.991   3.875 -0.1099 -0.1741  0.5263
  180SLPC  H13R20527   5.889   3.057   3.927 -1.0707 -0.9902  0.2899
  180SLPC  C21420528   6.038   2.898   3.966 -0.1211  0.0170 -0.2162
  180SLPC  H14R20529   6.133   2.949   3.988 -0.7657  0.0571  2.8750
  180SLPC  H14S20530   6.062   2.804   3.912 -0.5491  0.1243 -0.6022
  180SLPC  C21520531   5.980   2.856   4.101 -0.2838  0.7164  0.3780
  180SLPC  H15R20532   6.061   2.793   4.145 -1.5449 -0.9958  0.3356
  180SLPC  H15S20533   5.888   2.795   4.092  0.8747 -1.3437  1.6833
  180SLPC  C21620534   5.953   2.969   4.196  0.0482  0.0728  0.4881
  180SLPC  H16R20535   5.859   3.019   4.164  0.6953 -0.2871 -2.2235
  180SLPC  H16S20536   6.026   3.048   4.171 -2.3032  1.9081 -1.1175
  180SLPC  C21720537   5.956   2.934   4.346 -0.2370  0.5372  0.3693
  180SLPC  H17R20538   5.901   2.838   4.351  1.1602 -0.3478 -0.5016
  180SLPC  H17S20539   5.887   3.000   4.404 -1.9707  0.2800 -1.2729
  180SLPC  C21820540   6.097   2.926   4.408  0.3731 -0.1504 -0.1758
  180SLPC  H18R20541   6.149   3.023   4.424 -1.1640  0.3281  2.3037
  180SLPC  H18S20542   6.169   2.869   4.345 -0.1438 -0.7336 -0.2385
  180SLPC  H18T20543   6.099   2.877   4.507  2.1069  0.7255  0.2607
  180SLPC   C3320544   6.251   3.575   2.895 -0.6213  0.2604  0.5244
  180SLPC   H3X20545   6.305   3.478   2.884  0.1265  0.8524 -1.4481
  180SLPC   H3Y20546   6.163   3.564   2.962 -1.0234 -0.3302 -0.0915
  180SLPC   C3420547   6.355   3.662   2.967  0.4821  0.3628  0.3452
  180SLPC   H4X20548   6.324   3.768   2.969  1.2204  0.5779  0.8367
  180SLPC   H4Y20549   6.450   3.653   2.910  1.1413  0.6324  1.3854
  180SLPC   C3520550   6.401   3.598   3.095 -0.0230 -0.1868  0.0145
  180SLPC   H5X20551   6.448   3.504   3.061  1.5595  1.3181 -2.2157
  180SLPC   H5Y20552   6.315   3.572   3.161 -1.3279  0.7606 -1.2390
  180SLPC   C3620553   6.490   3.693   3.178 -0.5434  0.2123  0.5483
  180SLPC   H6X20554   6.451   3.797   3.183 -2.7308 -0.5318  0.2081
  180SLPC   H6Y20555   6.592   3.704   3.135 -0.6913  0.2671  0.2051
  180SLPC   C3720556   6.519   3.643   3.324 -0.5210 -0.7058  0.1635
  180SLPC   H7X20557   6.595   3.707   3.375  0.9395 -0.4319 -2.2027
  180SLPC   H7Y20558   6.579   3.550   3.322  4.4181  2.0938  0.5147
  180SLPC   C3820559   6.394   3.628   3.411  0.3251 -0.1166 -0.1555
  180SLPC   H8X20560   6.338   3.545   3.364  1.3161 -0.7661 -0.1906
  180SLPC   H8Y20561   6.325   3.716   3.413 -1.6803 -1.6130  0.1509
  180SLPC   C3920562   6.421   3.572   3.550 -0.1344 -0.2364 -0.4105
  180SLPC   H9X20563   6.503   3.640   3.582  0.4653 -0.3497 -1.6473
  180SLPC   H9Y20564   6.453   3.467   3.533 -1.0854 -0.0776 -4.1761
  180SLPC  C31020565   6.296   3.580   3.643 -0.0470  1.4540  0.5488
  180SLPC  H10X20566   6.208   3.532   3.595  0.3709  0.6053  0.6095
  180SLPC  H10Y20567   6.288   3.689   3.663 -1.2894  1.0522  2.4389
  180SLPC  C31120568   6.318   3.510   3.779  0.1088  0.0581 -0.2572
  180SLPC  H11X20569   6.423   3.519   3.813  0.4101  0.2399 -1.2069
  180SLPC  H11Y20570   6.305   3.402   3.759  1.2778 -0.2859  0.7500
  180SLPC  C31220571   6.214   3.547   3.878  0.2610  0.7696  0.0332
  180SLPC  H12X20572   6.119   3.563   3.822  0.9078  2.6383 -0.6014
  180SLPC  H12Y20573   6.234   3.646   3.924 -1.2636  1.7580 -1.2884
  180SLPC  C31320574   6.200   3.458   3.999  0.0690 -0.1391 -0.2261
  180SLPC  H13X20575   6.303   3.445   4.039 -0.7810 -0.4013  2.0197
  180SLPC  H13Y20576   6.155   3.363   3.964  1.4065 -0.3401 -1.5159
  180SLPC  C31420577   6.112   3.521   4.105 -0.5350 -0.4819 -0.3789
  180SLPC  H14X20578   6.137   3.628   4.125  0.3343 -0.9796  1.3793
  180SLPC  H14Y20579   6.142   3.484   4.206 -0.1540  1.6115  0.3316
  180SLPC  C31520580   5.962   3.502   4.080  0.1674  0.2340 -0.6476
  180SLPC  H15X20581   5.909   3.532   3.987 -1.7420 -0.1675  0.2584
  180SLPC  H15Y20582   5.909   3.563   4.157  1.8344  2.6910 -1.3401
  180SLPC  C31620583   5.913   3.352   4.109 -0.3420  0.5893  0.4157
  180SLPC  H16X20584   5.968   3.301   4.191  0.9765 -0.7146 -1.2064
  180SLPC  H16Y20585   5.942   3.297   4.017 -0.8396  2.0972 -0.6783
  180SLPC  C31720586   5.758   3.334   4.138  0.6525  0.3038  0.0077
  180SLPC  H17X20587   5.746   3.382   4.238  0.9123  1.0244 -0.2998
  180SLPC  H17Y20588   5.735   3.226   4.148  2.3465 -0.0801 -0.1019
  180SLPC  C31820589   5.661   3.397   4.034 -0.4777  0.5163 -0.0080
  180SLPC  H18X20590   5.712   3.440   3.945 -1.1900  1.9210  0.2318
  180SLPC  H18Y20591   5.609   3.483   4.081 -0.7156  0.2148  0.2832
  180SLPC  H18Z20592   5.579   3.326   4.012 -1.2199  1.1377  0.6828
  181SLPC     N20593   6.025   2.175   1.985  0.0208  0.1540  0.3931
  181SLPC   C1320594   5.967   2.308   2.012  0.4570 -0.4752  0.5510
  181SLPC  H13A20595   6.018   2.385   1.957 -0.1079 -1.1730 -1.0040
  181SLPC  H13B20596   5.861   2.320   1.993  0.6462  1.2402  0.4470
  181SLPC  H13C20597   5.979   2.320   2.119 -0.4251 -1.1523  0.7370
  181SLPC   C1420598   6.166   2.184   2.011  0.2317  0.2792 -0.1778
  181SLPC  H14A20599   6.221   2.245   1.941  0.9817 -0.2687 -0.0783
  181SLPC  H14B20600   6.205   2.199   2.110  0.4292 -1.2715  0.0059
  181SLPC  H14C20601   6.211   2.087   1.995 -0.2388  0.3949 -2.6950
  181SLPC   C1520602   6.003   2.140   1.835 -0.9443  0.4408  0.2351
  181SLPC  H15A20603   6.063   2.055   1.806  0.7097  1.0974  1.5291
  181SLPC  H15B20604   5.897   2.134   1.820 -1.0815 -0.8423  1.5105
  181SLPC  H15C20605   6.034   2.223   1.773 -3.0235  0.1144 -1.3267
  181SLPC   C1220606   5.956   2.066   2.061  0.9119 -0.4387 -0.1241
  181SLPC  H12A20607   5.997   1.969   2.040 -3.0126 -2.8466  2.1683
  181SLPC  H12B20608   5.854   2.062   2.025  1.1264  1.1691 -1.0459
  181SLPC   C1120609   5.952   2.072   2.221 -0.2658 -0.3299 -0.6323
  181SLPC  H11A20610   6.058   2.073   2.252 -0.1625  0.2581 -0.9861
  181SLPC  H11B20611   5.902   1.981   2.259  1.6724 -1.4025 -0.5389
  181SLPC     P20612   5.730   2.214   2.276  0.3106  0.4870 -0.2992
  181SLPC   O1320613   5.720   2.347   2.339 -0.7789 -0.0291 -0.7448
  181SLPC   O1420614   5.669   2.189   2.148  0.1820  0.1337  0.0852
  181SLPC   O1220615   5.885   2.190   2.266  0.3499 -0.1707  0.2545
  181SLPC   O1120616   5.671   2.112   2.383 -0.4050 -0.1396 -0.0710
  181SLPC    C120617   5.743   2.072   2.501 -0.1168 -0.8263 -0.6007
  181SLPC    HA20618   5.783   1.970   2.483  1.1238 -0.3030 -0.9270
  181SLPC    HB20619   5.820   2.148   2.526 -1.5190  0.8656 -1.2116
  181SLPC    C220620   5.644   2.060   2.625 -1.0381  0.8128 -0.1834
  181SLPC    HS20621   5.709   2.043   2.713  0.3904  1.0583 -1.1598
  181SLPC   O2120622   5.534   1.969   2.610  0.4897 -0.0106 -0.4219
  181SLPC   C2120623   5.569   1.842   2.601  0.3874 -0.0609 -0.3746
  181SLPC   O2220624   5.685   1.805   2.591 -0.2679  0.8568 -0.1728
  181SLPC   C2220625   5.447   1.754   2.621 -0.3102  0.4852  0.3963
  181SLPC   H2R20626   5.380   1.782   2.705 -2.1694 -0.8376 -0.5873
  181SLPC   H2S20627   5.382   1.769   2.532  0.7300 -0.2273 -0.4999
  181SLPC    C320628   5.591   2.199   2.668 -0.1141  0.0445 -0.6491
  181SLPC    HX20629   5.514   2.230   2.594 -1.8007 -0.4438  0.8107
  181SLPC    HY20630   5.681   2.263   2.656 -0.2381  0.3333 -0.0757
  181SLPC   O3120631   5.522   2.199   2.798  0.5362 -0.2343 -1.0428
  181SLPC   C3120632   5.599   2.231   2.900  1.0800 -0.3392 -1.1063
  181SLPC   O3220633   5.719   2.253   2.896  0.3156  0.1145 -0.0267
  181SLPC   C3220634   5.513   2.248   3.027 -0.8325  0.1068  0.8348
  181SLPC   H2X20635   5.443   2.161   3.028 -1.2996  0.2531 -2.9047
  181SLPC   H2Y20636   5.452   2.339   3.009 -0.6367  0.2752  1.0190
  181SLPC   C2320637   5.477   1.602   2.640  0.6464 -0.2515  0.4600
  181SLPC   H3R20638   5.565   1.581   2.575 -0.3678  0.4348 -1.1972
  181SLPC   H3S20639   5.390   1.542   2.608 -1.0796  2.4446 -0.2892
  181SLPC   C2420640   5.497   1.574   2.790 -0.5696 -0.6162 -0.0535
  181SLPC   H4R20641   5.407   1.592   2.852  0.7363 -0.3103  1.8435
  181SLPC   H4S20642   5.579   1.635   2.834 -0.6583 -0.7942  0.3579
  181SLPC   C2520643   5.532   1.429   2.825 -0.2591  0.0739  0.3529
  181SLPC   H5R20644   5.621   1.388   2.774  0.0909  0.2829  0.7932
  181SLPC   H5S20645   5.446   1.368   2.789 -1.1953  0.3425  2.0226
  181SLPC   C2620646   5.544   1.411   2.979 -0.3011  0.4300  0.5066
  181SLPC   H6R20647   5.468   1.477   3.025 -1.4278  0.8792 -1.8643
  181SLPC   H6S20648   5.651   1.441   2.991 -0.4470  2.5032 -2.4069
  181SLPC   C2720649   5.524   1.273   3.038 -0.6282  0.5345 -0.0008
  181SLPC   H7R20650   5.590   1.203   2.983  1.1809  2.7232 -0.7651
  181SLPC   H7S20651   5.429   1.229   3.001 -0.4670  2.8484 -3.6372
  181SLPC   C2820652   5.531   1.268   3.195 -0.1896 -0.2183 -0.4985
  181SLPC   H8R20653   5.457   1.341   3.232 -0.8582 -1.2059  0.1629
  181SLPC   H8S20654   5.634   1.299   3.223 -0.7806  1.8575 -0.5024
  181SLPC   C2920655   5.493   1.143   3.263 -0.2718  1.1648  0.0241
  181SLPC   H9R20656   5.405   1.097   3.216  0.8482  0.1244 -1.1311
  181SLPC  C21020657   5.550   1.100   3.376  0.0218  0.4980 -0.3465
  181SLPC  H10R20658   5.510   1.007   3.419  0.8768 -0.9934 -2.6101
  181SLPC  C21120659   5.671   1.158   3.449  0.4898  0.2329 -0.4903
  181SLPC  H11R20660   5.723   1.239   3.395  1.7144 -1.1371 -1.4571
  181SLPC  H11S20661   5.743   1.079   3.479 -1.2960 -0.9165  1.0722
  181SLPC  C21220662   5.626   1.241   3.564 -0.0198  0.3169 -0.6596
  181SLPC  H12R20663   5.552   1.319   3.539 -0.6656 -0.3592 -0.9087
  181SLPC  C21320664   5.672   1.235   3.694  0.3407  1.3859 -0.7789
  181SLPC  H13R20665   5.633   1.307   3.768 -2.1823  1.9713 -2.5160
  181SLPC  C21420666   5.772   1.124   3.729 -0.0478 -0.1391 -0.6079
  181SLPC  H14R20667   5.873   1.156   3.695 -0.4079 -0.2219 -1.8050
  181SLPC  H14S20668   5.741   1.023   3.694 -1.3521  0.6393 -1.8278
  181SLPC  C21520669   5.771   1.100   3.883 -0.0872  0.2973 -0.4095
  181SLPC  H15R20670   5.668   1.071   3.913 -0.3279  1.2473 -0.2944
  181SLPC  H15S20671   5.800   1.186   3.947  0.9088 -1.3645  1.4889
  181SLPC  C21620672   5.857   0.979   3.914 -0.7517 -0.4476  0.1512
  181SLPC  H16R20673   5.960   1.004   3.880  0.0411 -0.8841  2.1265
  181SLPC  H16S20674   5.811   0.897   3.853  0.9754  0.0952 -2.0334
  181SLPC  C21720675   5.860   0.952   4.063 -0.3336  0.2705 -0.1248
  181SLPC  H17R20676   5.773   0.885   4.082 -0.5666  0.9041  1.1403
  181SLPC  H17S20677   5.853   1.053   4.109  2.3173  1.1397 -1.4702
  181SLPC  C21820678   5.992   0.884   4.097 -0.7919 -0.0592 -0.0875
  181SLPC  H18R20679   6.078   0.941   4.055 -1.1603  0.1785 -0.5211
  181SLPC  H18S20680   6.001   0.779   4.061  0.1461  0.0048 -0.0666
  181SLPC  H18T20681   6.004   0.883   4.207 -0.1298  2.1136 -0.0988
  181SLPC   C3320682   5.593   2.253   3.156 -0.6445 -0.8536 -0.1646
  181SLPC   H3X20683   5.633   2.355   3.173 -0.6786 -0.7714 -0.5490
  181SLPC   H3Y20684   5.679   2.183   3.150  1.5777  1.7973 -1.2410
  181SLPC   C3420685   5.525   2.219   3.286 -0.4867  0.4452  0.1195
  181SLPC   H4X20686   5.459   2.131   3.269 -2.0168  1.3066  1.3189
  181SLPC   H4Y20687   5.460   2.302   3.321 -0.1852  1.2315 -1.1170
  181SLPC   C3520688   5.621   2.182   3.400  0.9254  0.0301  0.1858
  181SLPC   H5X20689   5.698   2.261   3.408 -0.9205  1.8250  1.1262
  181SLPC   H5Y20690   5.679   2.095   3.363  1.0775  0.2809 -0.1703
  181SLPC   C3620691   5.559   2.165   3.544  0.6850 -0.1009  0.5603
  181SLPC   H6X20692   5.454   2.130   3.542  0.0507  1.7013 -0.6476
  181SLPC   H6Y20693   5.549   2.264   3.592  1.2289 -0.0385  0.5585
  181SLPC   C3720694   5.638   2.071   3.635  0.3797 -0.3002  1.3899
  181SLPC   H7X20695   5.745   2.088   3.614 -0.1166  0.1168 -1.1948
  181SLPC   H7Y20696   5.617   1.967   3.601  0.9793  0.1514 -0.4616
  181SLPC   C3820697   5.606   2.083   3.789  0.3956  0.2693  0.9729
  181SLPC   H8X20698   5.497   2.067   3.803 -0.1406  2.2398 -0.5384
  181SLPC   H8Y20699   5.621   2.191   3.809  0.6586  0.6672 -1.1334
  181SLPC   C3920700   5.697   1.986   3.867 -0.2037 -0.3163  0.5084
  181SLPC   H9X20701   5.704   2.026   3.971  0.4224  0.7742  0.0565
  181SLPC   H9Y20702   5.796   1.979   3.817 -1.0341 -0.2526 -1.2069
  181SLPC  C31020703   5.627   1.850   3.884 -0.1236 -0.1421  0.1762
  181SLPC  H10X20704   5.623   1.789   3.791 -0.8194 -0.3744  0.3513
  181SLPC  H10Y20705   5.528   1.862   3.932  0.6169  4.1372  1.0416
  181SLPC  C31120706   5.713   1.781   3.997 -0.1392  0.5852  0.1357
  181SLPC  H11X20707   5.720   1.853   4.081 -3.2279 -1.0928  2.0186
  181SLPC  H11Y20708   5.814   1.753   3.962 -0.7968  0.3209 -1.6639
  181SLPC  C31220709   5.638   1.663   4.059 -0.7819 -0.7663  0.2040
  181SLPC  H12X20710   5.608   1.590   3.981  2.7225 -1.5111 -0.6091
  181SLPC  H12Y20711   5.544   1.696   4.109  0.3061 -0.7022  2.3120
  181SLPC  C31320712   5.724   1.594   4.165  0.3545 -0.0583 -0.1556
  181SLPC  H13X20713   5.767   1.673   4.230 -0.7983  1.1318 -0.7928
  181SLPC  H13Y20714   5.802   1.531   4.117  1.6281  0.9164  0.5708
  181SLPC  C31420715   5.638   1.510   4.258 -0.3393 -0.0616 -0.0889
  181SLPC  H14X20716   5.549   1.571   4.284 -0.3953  0.3317 -1.1779
  181SLPC  H14Y20717   5.708   1.488   4.342 -0.2593  0.8590  0.0923
  181SLPC  C31520718   5.610   1.378   4.192  0.3996 -0.4438 -0.1051
  181SLPC  H15X20719   5.695   1.319   4.151  0.0143 -0.9449 -0.1880
  181SLPC  H15Y20720   5.542   1.400   4.107  0.2689 -1.7908 -0.3630
  181SLPC  C31620721   5.539   1.282   4.298 -0.4407 -0.0845  0.1075
  181SLPC  H16X20722   5.604   1.257   4.385 -2.3149 -2.1306  0.9962
  181SLPC  H16Y20723   5.515   1.187   4.247  3.1814 -0.7878 -0.6024
  181SLPC  C31720724   5.404   1.335   4.340  0.0334  0.4620  0.2611
  181SLPC  H17X20725   5.352   1.351   4.244 -2.7890 -3.3439  0.9020
  181SLPC  H17Y20726   5.417   1.429   4.398 -0.6717  0.8236 -0.1610
  181SLPC  C31820727   5.320   1.226   4.411 -0.0442  0.0707  0.0904
  181SLPC  H18X20728   5.221   1.265   4.443  0.1141 -0.4013  1.2064
  181SLPC  H18Y20729   5.385   1.193   4.495  0.2359  2.5701  0.9347
  181SLPC  H18Z20730   5.298   1.137   4.347 -0.4846 -2.2281  3.1967
  182SLPC     N20731   4.978   1.977   1.710  0.0442  0.6028  0.1733
  182SLPC   C1320732   4.997   2.124   1.755 -0.5601  0.1959 -0.0742
  182SLPC  H13A20733   5.092   2.156   1.716 -1.0605 -0.8068 -2.2868
  182SLPC  H13B20734   4.919   2.193   1.727  0.1802 -0.1750 -3.6145
  182SLPC  H13C20735   5.001   2.128   1.863 -0.9186  0.4174 -0.0706
  182SLPC   C1420736   4.974   1.974   1.553  0.4421  0.4374 -0.6984
  182SLPC  H14A20737   4.946   1.875   1.521 -0.9759  0.4820  0.3203
  182SLPC  H14B20738   4.898   2.041   1.515 -0.4830 -0.2160 -0.0374
  182SLPC  H14C20739   5.066   2.010   1.509 -0.9674  2.5541 -2.1406
  182SLPC   C1520740   4.845   1.930   1.754 -0.8194  0.0286 -0.1060
  182SLPC  H15A20741   4.766   2.004   1.747 -0.3172  0.8116  1.8548
  182SLPC  H15B20742   4.823   1.844   1.692 -1.0625  0.4311 -0.5933
  182SLPC  H15C20743   4.847   1.897   1.856  0.5895 -0.8313 -0.3897
  182SLPC   C1220744   5.104   1.904   1.757  0.4359  0.0740  0.4234
  182SLPC  H12A20745   5.185   1.960   1.714  0.4150  1.1029  1.6379
  182SLPC  H12B20746   5.105   1.802   1.722  0.5110  0.3235 -0.3179
  182SLPC   C1120747   5.126   1.903   1.914 -0.2249  0.0405 -0.0378
  182SLPC  H11A20748   5.117   2.011   1.939 -0.8947  0.7657 -3.0105
  182SLPC  H11B20749   5.220   1.862   1.956  0.3454  1.6200  0.2731
  182SLPC     P20750   5.012   1.691   2.012 -0.2149 -0.2354 -0.4945
  182SLPC   O1320751   4.897   1.660   2.096  0.0826 -0.5934  0.1924
  182SLPC   O1420752   5.025   1.617   1.885  0.0641 -0.5319  0.0199
  182SLPC   O1220753   5.015   1.844   1.976 -0.3846  1.4599 -0.5819
  182SLPC   O1120754   5.139   1.676   2.097 -0.1205 -0.2210 -0.0142
  182SLPC    C120755   5.178   1.762   2.202 -0.2691  0.0218 -0.8169
  182SLPC    HA20756   5.287   1.774   2.215 -0.3837 -0.7890  1.4562
  182SLPC    HB20757   5.125   1.860   2.202 -0.4377 -0.0174  1.4333
  182SLPC    C220758   5.150   1.690   2.341 -0.7871 -0.3254  0.8380
  182SLPC    HS20759   5.215   1.723   2.424 -1.6664  0.6483  1.1644
  182SLPC   O2120760   5.145   1.545   2.335  0.0887  0.3576  0.1415
  182SLPC   C2120761   5.262   1.494   2.291 -0.0726 -0.9564 -0.7661
  182SLPC   O2220762   5.368   1.560   2.276 -0.5504  0.1323 -0.6731
  182SLPC   C2220763   5.252   1.346   2.277  0.8795  0.0907 -0.5288
  182SLPC   H2R20764   5.185   1.336   2.189  1.6923  1.9590 -1.4199
  182SLPC   H2S20765   5.350   1.297   2.257  1.5046  0.5314  1.2446
  182SLPC    C320766   5.012   1.748   2.393  0.6673  0.4089  0.0310
  182SLPC    HX20767   4.922   1.713   2.338  1.3122 -1.3431  0.0238
  182SLPC    HY20768   5.017   1.858   2.380 -1.6037  0.6313  0.6976
  182SLPC   O3120769   4.996   1.722   2.532 -0.2407  0.0064  0.6554
  182SLPC   C3120770   4.927   1.610   2.566  0.0228 -0.0472 -0.2417
  182SLPC   O3220771   4.896   1.520   2.489  0.2802  0.1332 -0.1075
  182SLPC   C3220772   4.914   1.615   2.719 -0.4108 -0.6234 -0.4595
  182SLPC   H2X20773   4.864   1.521   2.750  2.8673 -2.1513  0.6596
  182SLPC   H2Y20774   4.835   1.691   2.741 -0.5710 -1.2336  1.2549
  182SLPC   C2320775   5.184   1.259   2.398  0.0255  0.6571  1.0599
  182SLPC   H3R20776   5.149   1.166   2.349  2.9709 -0.9131  1.6901
  182SLPC   H3S20777   5.107   1.328   2.439 -1.1995  1.2565 -2.0140
  182SLPC   C2420778   5.293   1.226   2.506 -0.2010 -0.5268 -0.0592
  182SLPC   H4R20779   5.341   1.324   2.529 -2.5343  1.0574 -1.4698
  182SLPC   H4S20780   5.367   1.161   2.456  2.0408  1.3625  0.6093
  182SLPC   C2520781   5.224   1.168   2.632 -0.4331  0.5450 -0.2085
  182SLPC   H5R20782   5.134   1.109   2.604 -0.7089  0.7422  0.2544
  182SLPC   H5S20783   5.184   1.248   2.698  0.9895  0.3085  1.0003
  182SLPC   C2620784   5.314   1.076   2.721 -0.1044  0.3132  0.1828
  182SLPC   H6R20785   5.414   1.121   2.732  0.3165 -0.7560  0.8713
  182SLPC   H6S20786   5.320   0.983   2.660  1.8208  0.1241  0.6188
  182SLPC   C2720787   5.258   1.025   2.860  0.0533 -1.0080  0.4061
  182SLPC   H7R20788   5.278   1.083   2.953 -2.3631  1.2052 -0.3295
  182SLPC   H7S20789   5.312   0.930   2.880  0.4213 -0.5475  1.7040
  182SLPC   C2820790   5.100   0.999   2.865 -0.2667 -0.0036  0.2184
  182SLPC   H8R20791   5.086   0.914   2.936  1.0318  0.0898  0.6238
  182SLPC   H8S20792   5.063   0.946   2.775 -1.0706  0.3863  0.3098
  182SLPC   C2920793   5.021   1.126   2.905  0.2671  0.4733  0.3590
  182SLPC   H9R20794   4.982   1.188   2.824  0.8258  1.1599  0.6088
  182SLPC  C21020795   5.005   1.169   3.031  0.0368 -0.2088 -0.2808
  182SLPC  H10R20796   4.980   1.276   3.039  0.6848 -0.2060  4.2955
  182SLPC  C21120797   5.051   1.107   3.163  0.9475 -0.6241 -0.1839
  182SLPC  H11R20798   5.130   1.030   3.145  2.0598 -0.0267  1.8169
  182SLPC  H11S20799   4.964   1.058   3.212 -0.1980  1.7635  0.3308
  182SLPC  C21220800   5.099   1.200   3.261 -0.7100  0.7231 -0.6820
  182SLPC  H12R20801   5.205   1.183   3.284 -1.3632 -1.3176  1.2118
  182SLPC  C21320802   5.036   1.266   3.359  0.0005 -0.2956  0.5068
  182SLPC  H13R20803   5.093   1.335   3.423 -1.0377 -0.5305  1.7297
  182SLPC  C21420804   4.881   1.275   3.362 -0.1485  0.0485  0.4274
  182SLPC  H14R20805   4.845   1.215   3.276  0.5059  0.3854 -0.0965
  182SLPC  H14S20806   4.841   1.377   3.342  0.9392  0.2205 -1.0078
  182SLPC  C21520807   4.811   1.221   3.488 -0.0129  0.1431 -0.2347
  182SLPC  H15R20808   4.848   1.118   3.508 -0.7203  0.3133  2.2902
  182SLPC  H15S20809   4.706   1.200   3.460 -0.1054 -0.3724  0.4521
  182SLPC  C21620810   4.839   1.289   3.618  0.6607 -0.1615 -0.5532
  182SLPC  H16R20811   4.946   1.315   3.631  0.6756  0.7440 -2.2067
  182SLPC  H16S20812   4.809   1.220   3.700  2.9312  0.2906  0.7326
  182SLPC  C21720813   4.746   1.415   3.635 -0.1830  0.0024 -0.1437
  182SLPC  H17R20814   4.642   1.380   3.621  0.2452 -2.8348  2.5432
  182SLPC  H17S20815   4.761   1.476   3.544 -0.7892 -1.2120 -1.0769
  182SLPC  C21820816   4.751   1.504   3.758  0.2167 -0.4327 -0.4614
  182SLPC  H18R20817   4.742   1.433   3.844 -2.8626 -0.7051 -0.9115
  182SLPC  H18S20818   4.662   1.568   3.770  1.5735  1.9851 -2.4423
  182SLPC  H18T20819   4.842   1.566   3.776 -1.2536  1.4672  0.8095
  182SLPC   C3320820   5.053   1.619   2.791  0.4570  0.0044  0.4448
  182SLPC   H3X20821   5.109   1.707   2.750 -0.4481 -0.5285 -2.1169
  182SLPC   H3Y20822   5.103   1.523   2.767 -0.3581 -0.3715  0.2276
  182SLPC   C3420823   5.039   1.632   2.945  0.1875  0.1132 -0.2772
  182SLPC   H4X20824   4.979   1.548   2.985  0.2170 -0.0028 -0.4773
  182SLPC   H4Y20825   4.985   1.726   2.968 -1.5456 -0.9175 -0.0248
  182SLPC   C3520826   5.177   1.645   3.020 -0.0816  0.0903  0.1521
  182SLPC   H5X20827   5.248   1.713   2.968  1.7407 -1.9552 -0.1511
  182SLPC   H5Y20828   5.222   1.544   3.023  0.1888  0.2217  0.5939
  182SLPC   C3620829   5.160   1.671   3.172 -0.4797  0.0949 -0.1547
  182SLPC   H6X20830   5.102   1.580   3.198  1.3497 -1.2125 -0.4523
  182SLPC   H6Y20831   5.092   1.756   3.195  0.3359  0.6153  0.3844
  182SLPC   C3720832   5.289   1.689   3.250  0.4607 -0.1709  0.4048
  182SLPC   H7X20833   5.353   1.757   3.189 -2.7602  1.3922 -1.5288
  182SLPC   H7Y20834   5.331   1.587   3.257 -2.5285 -1.6165 -1.0083
  182SLPC   C3820835   5.271   1.758   3.387  0.1752 -0.6972 -0.1963
  182SLPC   H8X20836   5.184   1.825   3.371  0.3401 -0.3863  0.1890
  182SLPC   H8Y20837   5.356   1.823   3.417  1.8631 -1.9737 -1.9842
  182SLPC   C3920838   5.222   1.670   3.503 -0.1769  0.6723  0.3138
  182SLPC   H9X20839   5.302   1.593   3.507  0.0867  0.8927 -0.5157
  182SLPC   H9Y20840   5.125   1.625   3.474  0.2689 -1.0255  1.3336
  182SLPC  C31020841   5.195   1.767   3.620  0.6083 -0.3596  0.0839
  182SLPC  H10X20842   5.100   1.823   3.621  1.2449  0.7517  1.4162
  182SLPC  H10Y20843   5.289   1.825   3.633  1.8873 -2.1915 -0.4552
  182SLPC  C31120844   5.187   1.691   3.756 -0.7049 -0.4617  0.2346
  182SLPC  H11X20845   5.143   1.591   3.737  0.2660 -1.6127  3.3319
  182SLPC  H11Y20846   5.135   1.761   3.826  0.5032  1.0161 -0.2979
  182SLPC  C31220847   5.324   1.658   3.820 -0.0215  0.2406 -0.1411
  182SLPC  H12X20848   5.380   1.753   3.832  0.6493 -0.3414  1.5773
  182SLPC  H12Y20849   5.380   1.584   3.758 -1.3013 -1.8937  1.1335
  182SLPC  C31320850   5.313   1.587   3.950  0.4397  0.1169  0.2196
  182SLPC  H13X20851   5.411   1.548   3.984 -0.1368 -2.7962 -1.1494
  182SLPC  H13Y20852   5.259   1.490   3.942  0.7796 -0.0637  0.0763
  182SLPC  C31420853   5.238   1.669   4.056 -0.2614 -0.4445 -0.0001
  182SLPC  H14X20854   5.136   1.691   4.019  0.1594 -0.6987 -1.3616
  182SLPC  H14Y20855   5.292   1.767   4.056 -1.5740  0.3294 -1.5228
  182SLPC  C31520856   5.246   1.612   4.198  0.6423 -0.3119  0.8483
  182SLPC  H15X20857   5.355   1.596   4.214  1.2506  1.8776 -0.6039
  182SLPC  H15Y20858   5.188   1.518   4.204 -0.3045  0.1977 -0.0918
  182SLPC  C31620859   5.197   1.717   4.306  0.0542 -0.1460 -0.6196
  182SLPC  H16X20860   5.089   1.730   4.282  0.4179 -0.0305 -2.2896
  182SLPC  H16Y20861   5.244   1.816   4.288 -1.5941  0.9744  0.9102
  182SLPC  C31720862   5.208   1.668   4.448 -0.9638  0.3384  0.1509
  182SLPC  H17X20863   5.312   1.638   4.473 -0.7543  1.4772  0.7206
  182SLPC  H17Y20864   5.150   1.575   4.463  0.6360 -0.5865  0.7917
  182SLPC  C31820865   5.163   1.765   4.559 -0.1948  0.0491  0.6475
  182SLPC  H18X20866   5.054   1.786   4.561  0.1005  1.6634  1.0636
  182SLPC  H18Y20867   5.217   1.860   4.540  1.0764 -1.0380 -1.7020
  182SLPC  H18Z20868   5.181   1.729   4.662 -1.8707 -0.4081  0.8236
  183SLPC     N20869   4.178   4.363   2.028 -0.3449 -0.1070  0.3496
  183SLPC   C1320870   4.048   4.410   1.974  0.0577 -0.9217 -0.7737
  183SLPC  H13A20871   4.065   4.479   1.893  2.9017 -0.4226  0.1391
  183SLPC  H13B20872   3.974   4.332   1.960  0.7744 -1.6466 -0.5956
  183SLPC  H13C20873   4.000   4.476   2.045  0.6926  1.5570 -2.5185
  183SLPC   C1420874   4.274   4.473   2.022  0.6448 -0.1697  0.8989
  183SLPC  H14A20875   4.247   4.547   2.096  2.0940  0.5945  0.7141
  183SLPC  H14B20876   4.380   4.459   2.040  1.0848  0.8933 -0.6241
  183SLPC  H14C20877   4.275   4.510   1.921  3.0159 -0.7578  0.6503
  183SLPC   C1520878   4.227   4.252   1.951 -0.0523  0.4677  0.1560
  183SLPC  H15A20879   4.321   4.221   1.993 -0.5514 -0.6180  0.5080
  183SLPC  H15B20880   4.163   4.165   1.957  0.4812  0.0380 -0.2599
  183SLPC  H15C20881   4.246   4.268   1.845  0.1385  0.4832  0.1919
  183SLPC   C1220882   4.156   4.309   2.170 -0.5330  0.5295  0.2944
  183SLPC  H12A20883   4.124   4.392   2.232  0.0606 -0.2836  1.7229
  183SLPC  H12B20884   4.254   4.283   2.208  0.0352  2.1551  0.0366
  183SLPC   C1120885   4.065   4.180   2.183 -0.2419  0.0678  0.3549
  183SLPC  H11A20886   3.962   4.199   2.147 -0.5000  0.9348  1.5115
  183SLPC  H11B20887   4.052   4.161   2.292 -2.3323 -0.7404  0.0123
  183SLPC     P20888   4.065   3.921   2.153  0.0630  0.0962 -0.1840
  183SLPC   O1320889   3.922   3.917   2.158  0.4683 -0.3533  0.0421
  183SLPC   O1420890   4.123   3.824   2.053  0.2246  0.2198  0.4304
  183SLPC   O1220891   4.115   4.066   2.114 -0.0327 -0.2957 -0.2499
  183SLPC   O1120892   4.129   3.905   2.296  0.0589 -0.1601 -0.0694
  183SLPC    C120893   4.267   3.908   2.327 -0.1590 -0.0745 -0.2551
  183SLPC    HA20894   4.331   3.849   2.258  1.1730  0.2227  0.6852
  183SLPC    HB20895   4.300   4.014   2.335  1.4511 -0.6290  0.9457
  183SLPC    C220896   4.293   3.858   2.478 -0.5362 -0.5882  0.2600
  183SLPC    HS20897   4.403   3.854   2.497 -0.5419 -0.5205  0.3078
  183SLPC   O2120898   4.233   3.731   2.507  0.0349  0.9409  0.3483
  183SLPC   C2120899   4.273   3.628   2.440  0.6990 -0.2843  0.9905
  183SLPC   O2220900   4.370   3.625   2.365 -0.3751 -0.0861  0.3314
  183SLPC   C2220901   4.190   3.508   2.454  0.3554  0.0649  0.0952
  183SLPC   H2R20902   4.085   3.531   2.483 -1.1505  0.0007 -4.5147
  183SLPC   H2S20903   4.167   3.461   2.356 -2.0064 -1.0146  1.0754
  183SLPC    C320904   4.249   3.967   2.578  0.1797  0.1351 -0.8601
  183SLPC    HX20905   4.139   3.965   2.592 -0.0120  2.1531 -1.7247
  183SLPC    HY20906   4.268   4.069   2.540 -2.2842  0.6875 -0.7634
  183SLPC   O3120907   4.320   3.954   2.703 -0.0959  0.1020 -0.3851
  183SLPC   C3120908   4.276   3.866   2.792  0.1479  1.2542  0.5555
  183SLPC   O3220909   4.163   3.821   2.788 -0.1608  0.0886 -0.6137
  183SLPC   C3220910   4.384   3.815   2.892 -0.0423 -0.1892  0.1949
  183SLPC   H2X20911   4.435   3.908   2.925  2.1711 -1.3326  0.1550
  183SLPC   H2Y20912   4.462   3.771   2.827 -1.4545 -2.0914 -0.3129
  183SLPC   C2320913   4.247   3.403   2.550 -0.5898  0.5005  0.9405
  183SLPC   H3R20914   4.352   3.396   2.515 -1.0737 -0.4289 -0.4057
  183SLPC   H3S20915   4.193   3.308   2.526  2.0610 -0.5444 -1.5000
  183SLPC   C2420916   4.239   3.438   2.694  0.5768  0.1212  0.6939
  183SLPC   H4R20917   4.145   3.494   2.716  0.0464 -0.5060  0.0959
  183SLPC   H4S20918   4.316   3.510   2.729 -0.6822  1.1147  1.5340
  183SLPC   C2520919   4.258   3.318   2.784 -0.1279  0.3856  0.6130
  183SLPC   H5R20920   4.346   3.267   2.739 -2.1732 -2.0984 -0.8057
  183SLPC   H5S20921   4.165   3.259   2.771  0.1960  0.0017  0.0108
  183SLPC   C2620922   4.276   3.347   2.932 -0.5678 -0.1268  0.4774
  183SLPC   H6R20923   4.218   3.439   2.955  1.0121  0.8778  0.5529
  183SLPC   H6S20924   4.382   3.375   2.946  0.1129 -0.3490 -3.1578
  183SLPC   C2720925   4.240   3.228   3.013 -0.0966 -0.4996  0.2343
  183SLPC   H7R20926   4.304   3.146   2.974  2.0923  0.6547  1.2086
  183SLPC   H7S20927   4.133   3.210   2.990  0.0870 -2.6700  0.8861
  183SLPC   C2820928   4.260   3.243   3.167 -0.5015  0.0455 -0.2828
  183SLPC   H8R20929   4.368   3.245   3.194 -0.3495 -0.8885 -0.8011
  183SLPC   H8S20930   4.230   3.147   3.213  0.2977 -0.9016 -1.7028
  183SLPC   C2920931   4.180   3.354   3.223 -0.2360 -0.6369 -0.1779
  183SLPC   H9R20932   4.100   3.389   3.156  1.7158  1.5354 -1.5224
  183SLPC  C21020933   4.196   3.418   3.344 -0.5653  0.3282 -0.5382
  183SLPC  H10R20934   4.131   3.503   3.369 -0.1324  0.3669  0.4958
  183SLPC  C21120935   4.316   3.394   3.437 -0.6907  0.1519 -0.5529
  183SLPC  H11R20936   4.335   3.491   3.488  0.9155 -0.9261  1.0368
  183SLPC  H11S20937   4.408   3.389   3.374 -0.2969  1.2411 -0.0808
  183SLPC  C21220938   4.302   3.288   3.543  0.7022  0.6155 -0.2832
  183SLPC  H12R20939   4.322   3.188   3.503 -1.1965 -0.0981  0.4085
  183SLPC  C21320940   4.273   3.317   3.673  0.2967 -0.0628  0.2907
  183SLPC  H13R20941   4.259   3.237   3.748 -0.3768  0.2926  0.5575
  183SLPC  C21420942   4.244   3.446   3.747  0.5845 -0.6267 -0.5979
  183SLPC  H14R20943   4.250   3.539   3.686  0.0593  0.3103  0.7280
  183SLPC  H14S20944   4.310   3.456   3.836  1.5986 -1.3268 -1.2526
  183SLPC  C21520945   4.099   3.454   3.799  0.1976  0.0821  0.9374
  183SLPC  H15R20946   4.020   3.459   3.722  2.2174  1.7978 -1.1417
  183SLPC  H15S20947   4.092   3.553   3.850  0.6341  1.6190 -1.8013
  183SLPC  C21620948   4.053   3.346   3.896  0.4027 -0.5497 -0.2212
  183SLPC  H16R20949   4.037   3.248   3.847 -2.5228 -1.5342  2.3555
  183SLPC  H16S20950   3.953   3.373   3.937 -0.2537 -1.0856 -1.4180
  183SLPC  C21720951   4.146   3.321   4.018 -0.1526 -0.6775  0.1370
  183SLPC  H17R20952   4.163   3.421   4.064  3.4208 -0.1974 -1.8200
  183SLPC  H17S20953   4.246   3.295   3.977  0.3639  1.1615  0.1397
  183SLPC  C21820954   4.098   3.217   4.118  0.6518  0.5239  0.2356
  183SLPC  H18R20955   4.007   3.258   4.166  1.7005  2.4564  0.6811
  183SLPC  H18S20956   4.179   3.209   4.194  0.4385 -2.1897  0.2767
  183SLPC  H18T20957   4.086   3.112   4.083  1.2307  0.7960 -0.8403
  183SLPC   C3320958   4.327   3.715   2.995 -0.0509 -0.0378  0.1418
  183SLPC   H3X20959   4.283   3.623   2.951 -0.8917 -0.2639  1.4004
  183SLPC   H3Y20960   4.242   3.774   3.036 -1.4178  0.5237 -3.1542
  183SLPC   C3420961   4.427   3.660   3.090  0.3625 -0.1693 -0.2731
  183SLPC   H4X20962   4.509   3.617   3.028 -1.3652  0.7993 -3.4717
  183SLPC   H4Y20963   4.381   3.581   3.153 -0.8226  0.7129 -0.0133
  183SLPC   C3520964   4.483   3.763   3.191  0.9043 -0.1817 -1.2313
  183SLPC   H5X20965   4.548   3.844   3.152 -0.6009  0.9091 -1.5638
  183SLPC   H5Y20966   4.553   3.707   3.256  1.4653  1.0575 -0.7317
  183SLPC   C3620967   4.364   3.817   3.277  0.3685  0.6604 -0.2135
  183SLPC   H6X20968   4.305   3.728   3.308  0.8480  0.2824 -0.3798
  183SLPC   H6Y20969   4.299   3.885   3.218 -1.0501  1.4069  2.0706
  183SLPC   C3720970   4.422   3.887   3.407 -0.2454  0.0787 -0.2382
  183SLPC   H7X20971   4.326   3.923   3.451  1.0827  3.0300  0.4573
  183SLPC   H7Y20972   4.504   3.960   3.392  2.1427 -2.4135 -0.0757
  183SLPC   C3820973   4.471   3.782   3.504 -0.5241 -0.3658 -1.0166
  183SLPC   H8X20974   4.538   3.713   3.446 -0.8280  0.4533 -2.3892
  183SLPC   H8Y20975   4.386   3.718   3.535 -0.4023  1.0640  2.7977
  183SLPC   C3920976   4.525   3.839   3.633 -0.2263 -0.8096 -0.3434
  183SLPC   H9X20977   4.438   3.881   3.688  1.5443  1.2981  1.0245
  183SLPC   H9Y20978   4.602   3.919   3.629  1.0471 -2.0262 -0.6806
  183SLPC  C31020979   4.578   3.731   3.733  0.0916 -0.6369  0.8968
  183SLPC  H10X20980   4.643   3.652   3.689 -0.1425  0.3548 -1.3986
  183SLPC  H10Y20981   4.488   3.681   3.774 -0.5300 -0.4672 -0.2084
  183SLPC  C31120982   4.653   3.796   3.852 -0.1869 -0.2309  0.4500
  183SLPC  H11X20983   4.581   3.871   3.892  0.8218  1.1719 -0.2839
  183SLPC  H11Y20984   4.741   3.854   3.818  0.3604 -1.8160 -1.0227
  183SLPC  C31220985   4.696   3.689   3.952  0.0564 -0.5487  0.5847
  183SLPC  H12X20986   4.751   3.604   3.907 -2.4526 -1.9048 -0.0911
  183SLPC  H12Y20987   4.604   3.651   4.001 -0.5258 -0.7488 -0.6130
  183SLPC  C31320988   4.777   3.755   4.073  0.2540 -0.5409 -0.4167
  183SLPC  H13X20989   4.870   3.802   4.033 -0.3331  0.5299 -0.5373
  183SLPC  H13Y20990   4.805   3.682   4.152  0.6373 -0.3672 -0.3887
  183SLPC  C31420991   4.697   3.865   4.145  0.7185  0.3371 -0.2945
  183SLPC  H14X20992   4.607   3.812   4.182  0.8685 -0.1260 -0.5853
  183SLPC  H14Y20993   4.664   3.943   4.073 -1.7786  0.8305  1.2653
  183SLPC  C31520994   4.779   3.931   4.256 -1.0114  0.2661  0.1365
  183SLPC  H15X20995   4.876   3.957   4.207 -0.1318 -3.0060 -0.1582
  183SLPC  H15Y20996   4.806   3.852   4.330 -2.5227  1.0683  1.5955
  183SLPC  C31620997   4.707   4.052   4.312  0.0838  0.5187 -0.0681
  183SLPC  H16X20998   4.628   4.011   4.377 -0.0821  1.6523  0.4721
  183SLPC  H16Y20999   4.664   4.103   4.223 -0.7586 -0.9639 -0.5447
  183SLPC  C31721000   4.803   4.144   4.381 -0.0107 -0.7214 -0.9300
  183SLPC  H17X21001   4.897   4.168   4.327  0.2331  1.6386  0.3809
  183SLPC  H17Y21002   4.833   4.097   4.477  0.2292 -0.0147 -0.6488
  183SLPC  C31821003   4.739   4.282   4.415  0.4607 -0.0494  0.2468
  183SLPC  H18X21004   4.799   4.339   4.490  0.9960 -2.4506  1.7818
  183SLPC  H18Y21005   4.641   4.272   4.466  0.4192  0.5107  0.2845
  183SLPC  H18Z21006   4.709   4.338   4.324  0.0255 -0.5933  0.0494
  184SLPC     N21007   4.747   3.549   2.127 -0.3474  0.2897 -0.5022
  184SLPC   C1321008   4.688   3.665   2.191  0.2353 -0.3804 -0.5904
  184SLPC  H13A21009   4.752   3.704   2.268  0.2881  0.3216 -0.9819
  184SLPC  H13B21010   4.670   3.738   2.114 -0.9965  0.9201  0.8788
  184SLPC  H13C21011   4.592   3.639   2.233  0.8399 -0.8024  0.5552
  184SLPC   C1421012   4.864   3.596   2.052  0.2757  0.2417  0.9522
  184SLPC  H14A21013   4.837   3.668   1.976 -2.8005 -2.8489 -1.2476
  184SLPC  H14B21014   4.928   3.648   2.121 -1.6895 -0.3430  3.3399
  184SLPC  H14C21015   4.921   3.512   2.014  0.4658  0.4200  0.8435
  184SLPC   C1521016   4.657   3.488   2.021  0.7626  0.9361  0.6673
  184SLPC  H15A21017   4.710   3.432   1.946  1.2562  2.2940 -0.0366
  184SLPC  H15B21018   4.588   3.415   2.059 -2.0978  1.4442 -2.9842
  184SLPC  H15C21019   4.613   3.569   1.964  2.1056  0.6450 -0.8770
  184SLPC   C1221020   4.783   3.431   2.216  0.6682 -0.7014 -0.3593
  184SLPC  H12A21021   4.838   3.358   2.158 -0.0725 -2.6056  1.2547
  184SLPC  H12B21022   4.694   3.390   2.260  0.5839 -0.6127 -0.4458
  184SLPC   C1121023   4.879   3.462   2.328  0.2303  0.5550 -0.9936
  184SLPC  H11A21024   4.886   3.363   2.377 -1.3942  0.9839  0.1998
  184SLPC  H11B21025   4.824   3.528   2.399  0.4315  0.9456 -1.1967
  184SLPC     P21026   5.066   3.643   2.356 -0.2584  0.0159  0.0230
  184SLPC   O1321027   5.211   3.654   2.327 -0.0843 -0.1309 -0.0540
  184SLPC   O1421028   4.983   3.757   2.328  0.0217 -0.0645  0.2882
  184SLPC   O1221029   5.006   3.514   2.290  0.3488 -0.2289  0.2346
  184SLPC   O1121030   5.052   3.613   2.508  0.9427  0.5563  0.7925
  184SLPC    C121031   5.075   3.479   2.554 -0.2189  0.6068  0.4658
  184SLPC    HA21032   4.978   3.433   2.583  0.0438 -0.5376 -0.4161
  184SLPC    HB21033   5.126   3.410   2.484 -0.2681  0.6125  0.4240
  184SLPC    C221034   5.147   3.490   2.693 -0.1643  0.1340  0.3468
  184SLPC    HS21035   5.141   3.393   2.747  0.2766 -0.1112 -0.0409
  184SLPC   O2121036   5.082   3.593   2.768  0.4931 -0.0402 -0.7858
  184SLPC   C2121037   5.063   3.569   2.902  0.2781  0.1372  0.2612
  184SLPC   O2221038   5.115   3.482   2.966 -0.9939 -0.2129  0.0051
  184SLPC   C2221039   4.976   3.680   2.953 -0.6555  0.1096  0.2584
  184SLPC   H2R21040   5.025   3.777   2.929 -0.4142  0.5362  2.2944
  184SLPC   H2S21041   4.875   3.678   2.907 -0.5441 -0.5991  0.0344
  184SLPC    C321042   5.292   3.538   2.686  0.6261  0.8222  0.1044
  184SLPC    HX21043   5.285   3.644   2.654  3.0556  0.7127 -1.0008
  184SLPC    HY21044   5.336   3.474   2.606 -0.2342 -0.6893  0.7778
  184SLPC   O3121045   5.368   3.507   2.811 -0.0652 -0.0359 -0.3334
  184SLPC   C3121046   5.462   3.589   2.846  0.3251  0.2574 -0.2317
  184SLPC   O3221047   5.506   3.679   2.779 -0.2760 -0.1524 -0.1721
  184SLPC   C3221048   5.518   3.538   2.986 -0.7966  0.5761 -0.1547
  184SLPC   H2X21049   5.555   3.441   2.945 -1.1624  1.1380 -1.9109
  184SLPC   H2Y21050   5.430   3.535   3.054 -0.9682  3.7003 -0.0920
  184SLPC   C2321051   4.953   3.685   3.106 -0.9150 -0.2045 -0.6766
  184SLPC   H3R21052   5.054   3.714   3.143 -0.8398  1.2903 -1.9718
  184SLPC   H3S21053   4.936   3.585   3.151  2.6251 -0.0999  1.2350
  184SLPC   C2421054   4.844   3.782   3.151  0.2374  0.4895  0.3070
  184SLPC   H4R21055   4.748   3.752   3.104  0.9592 -1.2736 -0.1107
  184SLPC   H4S21056   4.863   3.888   3.123 -1.1339  0.0812 -2.5321
  184SLPC   C2521057   4.807   3.770   3.295  0.8749 -0.3678 -0.1308
  184SLPC   H5R21058   4.762   3.672   3.323  0.1765  0.6687  2.8076
  184SLPC   H5S21059   4.733   3.852   3.309  0.6855 -0.2164 -1.8736
  184SLPC   C2621060   4.920   3.798   3.388 -0.6698 -0.2519 -0.7551
  184SLPC   H6R21061   4.950   3.902   3.362  0.5184 -0.3569  0.1521
  184SLPC   H6S21062   5.009   3.734   3.368 -1.1266 -0.9048 -0.7481
  184SLPC   C2721063   4.881   3.789   3.536 -0.4041  0.4766 -1.2641
  184SLPC   H7R21064   4.830   3.692   3.554  0.3901  0.1169 -0.8931
  184SLPC   H7S21065   4.803   3.866   3.557 -1.0967 -0.9095  1.7764
  184SLPC   C2821066   5.003   3.809   3.629  0.2733  0.3377  0.2117
  184SLPC   H8R21067   5.089   3.746   3.596 -0.3171  0.6870 -2.1717
  184SLPC   H8S21068   4.969   3.771   3.727  1.2786 -0.6831  0.1827
  184SLPC   C2921069   5.042   3.953   3.626 -0.5465  0.8689 -0.1399
  184SLPC   H9R21070   5.066   4.006   3.532 -1.9213  1.3811 -0.2326
  184SLPC  C21021071   5.053   4.042   3.728  0.5542 -1.0067 -0.4445
  184SLPC  H10R21072   5.098   4.138   3.701  0.5643 -1.3378 -1.6544
  184SLPC  C21121073   5.035   4.009   3.877 -0.1379 -0.2095  0.4723
  184SLPC  H11R21074   5.135   3.997   3.925  0.0578  2.7414  0.9955
  184SLPC  H11S21075   4.998   3.905   3.894  1.7273 -1.6307 -3.0340
  184SLPC  C21221076   4.951   4.110   3.958  0.0908  0.3405 -0.0115
  184SLPC  H12R21077   4.846   4.077   3.957  0.2871 -0.3350 -1.3437
  184SLPC  C21321078   4.992   4.227   4.015 -0.0293 -0.5696  0.0005
  184SLPC  H13R21079   4.915   4.287   4.066 -0.6380 -1.8413  0.6309
  184SLPC  C21421080   5.126   4.301   4.020 -0.4924 -1.2816  0.2488
  184SLPC  H14R21081   5.109   4.402   3.978  1.1817 -0.3385  1.7098
  184SLPC  H14S21082   5.192   4.246   3.949 -1.1744 -0.3164 -1.1857
  184SLPC  C21521083   5.200   4.297   4.149 -0.4297  0.4882 -0.8266
  184SLPC  H15R21084   5.302   4.338   4.139 -0.3704  0.1999 -1.4270
  184SLPC  H15S21085   5.215   4.192   4.183 -0.7428  0.7257  0.0927
  184SLPC  C21621086   5.137   4.370   4.266 -0.4573 -0.2139 -0.0042
  184SLPC  H16R21087   5.027   4.357   4.258 -0.1831 -2.3278 -0.8189
  184SLPC  H16S21088   5.159   4.479   4.260 -1.6513  0.0725  0.4514
  184SLPC  C21721089   5.189   4.320   4.406  0.6330 -0.6032  0.1290
  184SLPC  H17R21090   5.295   4.352   4.413  0.1914  1.4690 -1.6592
  184SLPC  H17S21091   5.193   4.209   4.401 -2.8110 -0.7628 -2.7389
  184SLPC  C21821092   5.098   4.373   4.523 -1.1009  0.1340 -0.0163
  184SLPC  H18R21093   5.063   4.476   4.499 -0.1775  1.2835  3.0670
  184SLPC  H18S21094   5.159   4.394   4.614  2.3098 -1.9566 -1.6215
  184SLPC  H18T21095   5.009   4.311   4.544 -1.0758  0.2320  0.3973
  184SLPC   C3321096   5.637   3.608   3.050 -0.5015 -0.2482  0.3627
  184SLPC   H3X21097   5.617   3.706   3.098 -0.7438 -0.4766  0.7366
  184SLPC   H3Y21098   5.711   3.632   2.970  0.9025 -0.9531  1.4080
  184SLPC   C3421099   5.709   3.516   3.151  0.2895  0.2327 -0.1782
  184SLPC   H4X21100   5.741   3.427   3.092 -3.5355 -0.5980 -1.3329
  184SLPC   H4Y21101   5.631   3.494   3.227  0.6703  0.1956  0.2029
  184SLPC   C3521102   5.835   3.573   3.212  0.3223  0.2495 -0.5570
  184SLPC   H5X21103   5.908   3.598   3.132  1.2918  0.8375  0.4747
  184SLPC   H5Y21104   5.884   3.492   3.270 -0.2313  2.1123  2.8208
  184SLPC   C3621105   5.814   3.691   3.318  0.6106 -0.2809 -0.2787
  184SLPC   H6X21106   5.740   3.672   3.399  1.0002  1.6399  0.5619
  184SLPC   H6Y21107   5.758   3.777   3.276 -0.5433  0.6447  2.9141
  184SLPC   C3721108   5.946   3.747   3.374 -0.3444  0.3872 -0.2999
  184SLPC   H7X21109   6.014   3.784   3.294  0.7751 -0.5092  0.2071
  184SLPC   H7Y21110   5.993   3.662   3.428 -0.4948  0.7217  0.3718
  184SLPC   C3821111   5.918   3.855   3.477 -0.0407 -0.6846  0.0184
  184SLPC   H8X21112   5.877   3.797   3.563  1.0412 -1.2861  0.1391
  184SLPC   H8Y21113   5.849   3.937   3.447 -0.9479 -0.4402  2.5203
  184SLPC   C3921114   6.050   3.918   3.524 -0.0059 -0.7830 -0.7343
  184SLPC   H9X21115   6.106   3.977   3.449 -0.8480  1.1685  0.1026
  184SLPC   H9Y21116   6.124   3.840   3.554  2.7973  2.9357  3.3817
  184SLPC  C31021117   6.027   4.002   3.651  0.1314 -0.8417 -0.6504
  184SLPC  H10X21118   5.930   4.056   3.649 -0.3467 -1.7130 -1.5793
  184SLPC  H10Y21119   6.095   4.088   3.633 -2.1152  0.8957 -1.2038
  184SLPC  C31121120   6.042   3.932   3.787  0.2798  0.0531 -0.7070
  184SLPC  H11X21121   6.145   3.900   3.814  0.7203  1.4469 -0.6457
  184SLPC  H11Y21122   5.975   3.844   3.782  1.4638 -0.8215 -1.7378
  184SLPC  C31221123   5.984   4.015   3.912  0.2983 -0.1832 -0.0963
  184SLPC  H12X21124   5.882   4.051   3.885  0.8625  0.7815 -1.0187
  184SLPC  H12Y21125   6.047   4.106   3.926  1.0557 -0.7443  0.1969
  184SLPC  C31321126   5.971   3.926   4.030 -0.4924  0.4273  0.2484
  184SLPC  H13X21127   6.072   3.911   4.073 -0.0707 -2.9668 -1.5654
  184SLPC  H13Y21128   5.933   3.826   3.999  2.8573 -0.5178 -1.2382
  184SLPC  C31421129   5.871   3.977   4.136 -0.1785 -0.9584 -0.1193
  184SLPC  H14X21130   5.775   4.004   4.088 -1.0230 -1.5405  1.1965
  184SLPC  H14Y21131   5.914   4.071   4.177 -1.0048 -0.7926  0.3793
  184SLPC  C31521132   5.839   3.879   4.250  0.1855  1.0088 -0.4253
  184SLPC  H15X21133   5.923   3.813   4.281 -0.9383  0.9856  3.0073
  184SLPC  H15Y21134   5.763   3.809   4.209 -0.0312 -0.2890  1.9868
  184SLPC  C31621135   5.783   3.935   4.388 -0.3494 -0.1281  0.6151
  184SLPC  H16X21136   5.683   3.979   4.369 -1.5199 -1.4906  3.1145
  184SLPC  H16Y21137   5.850   4.021   4.413  0.7658 -0.9022  0.3691
  184SLPC  C31721138   5.769   3.830   4.502 -0.7264 -0.1169  0.3427
  184SLPC  H17X21139   5.735   3.883   4.594 -1.9805  1.7800 -1.1190
  184SLPC  H17Y21140   5.873   3.801   4.525 -0.3039  1.3184  0.3536
  184SLPC  C31821141   5.690   3.701   4.467  0.1526  0.0224  0.0035
  184SLPC  H18X21142   5.743   3.649   4.384  0.8500  0.5407  0.1156
  184SLPC  H18Y21143   5.583   3.718   4.441  0.0982 -0.4232 -0.0647
  184SLPC  H18Z21144   5.701   3.625   4.547  0.1621  1.2820  1.2359
  185POPC     N21145   6.386   4.346   6.802 -0.2647 -0.4007  0.7412
  185POPC   C1221146   6.421   4.372   6.654 -0.4972 -0.5274 -0.2562
  185POPC  H12A21147   6.337   4.345   6.591 -2.1069  1.7018  0.7542
  185POPC  H12B21148   6.505   4.311   6.628  2.2115  2.9681 -0.5153
  185POPC   C1321149   6.382   4.200   6.827  0.2427  0.1118  0.0112
  185POPC  H13A21150   6.470   4.143   6.800  0.7053 -0.2395  2.0562
  185POPC  H13B21151   6.377   4.181   6.934  0.8135 -0.6883 -0.0960
  185POPC  H13C21152   6.293   4.159   6.782  0.4148 -0.3797  0.1102
  185POPC   C1421153   6.494   4.402   6.885 -0.0074 -0.2158 -0.1800
  185POPC  H14A21154   6.469   4.404   6.990  1.2878 -0.0314  0.1438
  185POPC  H14B21155   6.581   4.341   6.864  0.0425 -0.6740  1.2638
  185POPC  H14C21156   6.527   4.500   6.852  2.1456 -0.9867 -0.5209
  185POPC   C1521157   6.261   4.406   6.841 -0.1874  0.3948 -0.1622
  185POPC  H15A21158   6.174   4.363   6.793 -0.0247 -1.1175  0.8247
  185POPC  H15B21159   6.265   4.509   6.810  1.5961 -0.3560 -2.7414
  185POPC  H15C21160   6.246   4.387   6.946 -0.2475  2.5591  0.2576
  185POPC   C1121161   6.448   4.521   6.610 -0.0004 -0.0040 -0.4525
  185POPC  H11A21162   6.357   4.582   6.628 -0.1725  0.0409 -1.4150
  185POPC  H11B21163   6.457   4.507   6.500 -0.7558 -1.2737 -0.3683
  185POPC     P21164   6.705   4.540   6.605  0.4309 -0.4228 -0.0005
  185POPC   O1321165   6.697   4.392   6.577 -0.4979  0.2368 -0.4154
  185POPC   O1421166   6.810   4.585   6.698  0.5133 -0.1544  0.2902
  185POPC   O1221167   6.568   4.576   6.667 -0.0314  0.4070 -0.0898
  185POPC   O1121168   6.716   4.619   6.468 -0.3810 -0.4703 -0.4173
  185POPC    C121169   6.712   4.564   6.337 -0.3662 -0.1471  0.3103
  185POPC    HA21170   6.712   4.453   6.345 -1.4014 -0.3226 -1.4369
  185POPC    HB21171   6.797   4.589   6.270 -2.4165  1.2002 -1.9679
  185POPC    C221172   6.589   4.589   6.254  0.1446  0.2340  0.2147
  185POPC    HS21173   6.507   4.531   6.302 -0.6092  0.5677 -0.6384
  185POPC   O2121174   6.596   4.534   6.118  0.5297  0.0164 -0.1301
  185POPC   C2121175   6.568   4.411   6.104  0.2428  0.0975 -0.3325
  185POPC   O2221176   6.523   4.338   6.197  0.2497  0.4569 -0.2273
  185POPC   C2221177   6.573   4.375   5.956  0.0026 -0.4861 -0.8217
  185POPC   H2R21178   6.674   4.394   5.916 -0.0873 -1.1285 -1.3960
  185POPC   H2S21179   6.500   4.433   5.895  0.6367 -0.8162 -1.9267
  185POPC    C321180   6.571   4.740   6.263 -0.1967  0.1609 -0.9264
  185POPC    HX21181   6.674   4.780   6.278 -0.8082  1.1301  1.1484
  185POPC    HY21182   6.522   4.760   6.361 -0.2218  1.4987 -1.1858
  185POPC   O3121183   6.495   4.800   6.154 -0.6834 -0.2718  0.1425
  185POPC   C3121184   6.564   4.833   6.050  0.3588  0.1653 -0.3156
  185POPC   O3221185   6.686   4.847   6.046  0.3211 -0.3767  0.3049
  185POPC   C3221186   6.469   4.871   5.938 -0.1021 -0.0579 -0.2683
  185POPC   H2X21187   6.392   4.944   5.971  1.4255  1.6836 -0.4026
  185POPC   H2Y21188   6.410   4.783   5.905  2.3902 -1.3113 -1.6962
  185POPC   C2321189   6.555   4.224   5.929  0.2893 -0.0446 -0.0935
  185POPC   H3R21190   6.448   4.195   5.939 -0.5009  2.3264 -1.0293
  185POPC   H3S21191   6.627   4.173   5.997  0.7893 -4.2956 -3.3149
  185POPC   C2421192   6.599   4.175   5.789  0.2547  0.6143  0.1563
  185POPC   H4R21193   6.601   4.064   5.776 -0.9613  0.3338  1.9586
  185POPC   H4S21194   6.706   4.205   5.784  0.6998 -0.6801  1.3001
  185POPC   C2521195   6.501   4.234   5.683  0.0563  0.3459 -0.4306
  185POPC   H5R21196   6.517   4.343   5.667  0.1085  0.6657  1.5836
  185POPC   H5S21197   6.394   4.214   5.703  0.1616 -0.4296 -0.6005
  185POPC   C2621198   6.525   4.188   5.538  0.3674 -0.0156  0.3051
  185POPC   H6R21199   6.516   4.077   5.534 -0.2054 -0.0350  1.6175
  185POPC   H6S21200   6.628   4.208   5.502  0.6779 -1.0583  0.5648
  185POPC   C2721201   6.440   4.256   5.433  0.1086 -0.1839 -0.1159
  185POPC   H7R21202   6.465   4.363   5.448  2.8918 -0.4585 -2.0287
  185POPC   H7S21203   6.346   4.215   5.477  1.0217 -0.7003  1.4417
  185POPC   C2821204   6.454   4.218   5.282  0.4850  1.0975 -0.0109
  185POPC   H8R21205   6.352   4.240   5.245  0.6171  0.4679 -0.7600
  185POPC   H8S21206   6.471   4.108   5.288 -0.3986  0.9408 -0.2637
  185POPC   C2921207   6.554   4.281   5.185  0.3587  0.2520 -0.9674
  185POPC   H9121208   6.556   4.390   5.204 -1.6332 -0.0102  1.2312
  185POPC  C21021209   6.643   4.225   5.104 -0.2366 -1.0060  0.0698
  185POPC  H10121210   6.704   4.288   5.038  2.3376 -2.8544  0.5208
  185POPC  C21121211   6.655   4.079   5.074  0.1644 -0.1978 -0.1387
  185POPC  H11R21212   6.592   4.019   5.143  1.7867 -2.9712 -0.8965
  185POPC  H11S21213   6.758   4.041   5.091  0.2970  0.8386  1.5884
  185POPC  C21221214   6.606   4.069   4.928 -0.1658  0.1431  0.0752
  185POPC  H12R21215   6.684   4.111   4.861 -1.3204  1.3240 -0.5666
  185POPC  H12S21216   6.502   4.104   4.914 -0.9962 -1.6021  1.5071
  185POPC  C21321217   6.614   3.925   4.862 -0.5612  0.1485 -0.0732
  185POPC  H13R21218   6.546   3.852   4.910  0.2552 -0.7243 -0.2201
  185POPC  H13S21219   6.717   3.887   4.875 -0.3086  0.6281 -0.6210
  185POPC  C21421220   6.588   3.919   4.708  0.6507  0.3724 -0.3313
  185POPC  H14R21221   6.583   3.814   4.673 -0.9825  0.0059  0.8983
  185POPC  H14S21222   6.656   3.975   4.640  2.0805  1.0212  1.5378
  185POPC  C21521223   6.441   3.968   4.680 -0.6022 -0.7185  0.1244
  185POPC  H15R21224   6.431   4.074   4.712  2.4367 -0.2366 -0.2314
  185POPC  H15S21225   6.377   3.911   4.750 -0.8347  0.2481  0.7194
  185POPC  C21621226   6.412   3.942   4.534  0.6229  0.1410 -0.4266
  185POPC  H16R21227   6.410   3.835   4.505  2.2226 -0.3619  1.1228
  185POPC  H16S21228   6.484   3.995   4.468 -2.1695  0.1761 -3.6875
  185POPC  C21721229   6.278   4.002   4.487  0.1496 -0.0252  0.1022
  185POPC  H17R21230   6.282   4.113   4.489  2.8283  0.0001 -1.5305
  185POPC  H17S21231   6.196   3.978   4.559 -1.0208 -1.3268 -1.5999
  185POPC  C21821232   6.228   3.948   4.351 -0.3080  0.9469 -0.1677
  185POPC  H18R21233   6.317   3.946   4.285 -0.5266  1.1276 -0.4702
  185POPC  H18S21234   6.152   4.011   4.300  1.1694  1.8849 -1.2640
  185POPC  H18T21235   6.181   3.847   4.349 -0.2417  0.7489  2.8985
  185POPC   C3321236   6.534   4.928   5.811 -0.6749 -1.0182  0.0431
  185POPC   H3X21237   6.464   4.918   5.725  1.0215 -0.9753 -1.4034
  185POPC   H3Y21238   6.629   4.879   5.783 -1.0884 -0.6467 -2.1753
  185POPC   C3421239   6.549   5.080   5.819  0.1110  0.4747 -0.5568
  185POPC   H4X21240   6.638   5.092   5.884  0.1552 -1.8144 -0.1274
  185POPC   H4Y21241   6.458   5.117   5.871 -0.6658  0.7944 -2.0792
  185POPC   C3521242   6.586   5.144   5.692 -0.4283  0.5501 -0.3507
  185POPC   H5X21243   6.677   5.095   5.651 -0.1046 -0.5686  1.5785
  185POPC   H5Y21244   6.611   5.247   5.727 -0.5291  1.1844 -2.0475
  185POPC   C3621245   6.480   5.157   5.585 -0.5608 -0.3224 -0.2753
  185POPC   H6X21246   6.384   5.179   5.637 -0.2048 -0.5454  0.4819
  185POPC   H6Y21247   6.467   5.062   5.530  0.6817 -0.7780  0.1862
  185POPC   C3721248   6.528   5.254   5.476  0.5091 -0.2033  0.4556
  185POPC   H7X21249   6.621   5.214   5.430  1.0495 -0.6580  1.9052
  185POPC   H7Y21250   6.538   5.359   5.510  0.2381  0.3156 -0.9877
  185POPC   C3821251   6.427   5.264   5.358  0.5475 -0.2976  1.0548
  185POPC   H8X21252   6.335   5.318   5.389  2.5918  3.4789  1.1386
  185POPC   H8Y21253   6.395   5.161   5.331  2.3317 -0.9215  1.2079
  185POPC   C3921254   6.482   5.338   5.235 -0.0171 -0.7925  0.5028
  185POPC   H9X21255   6.583   5.309   5.201 -0.7278  0.2371 -2.8117
  185POPC   H9Y21256   6.495   5.446   5.260 -0.6871 -0.7610  0.7465
  185POPC  C31021257   6.391   5.321   5.110 -0.0478  0.4210 -0.4995
  185POPC  H10X21258   6.284   5.347   5.127  0.6302  2.1611  1.6481
  185POPC  H10Y21259   6.390   5.215   5.078 -2.8069  0.1536  0.2406
  185POPC  C31121260   6.446   5.411   5.001  0.2732 -0.7032  0.4316
  185POPC  H11X21261   6.542   5.372   4.959  2.2535  0.3997  3.5671
  185POPC  H11Y21262   6.461   5.516   5.034 -0.7167 -0.0897 -1.0052
  185POPC  C31221263   6.343   5.424   4.894 -0.2950  0.6205 -0.1470
  185POPC  H12X21264   6.272   5.503   4.927  0.5582  0.0014  3.5999
  185POPC  H12Y21265   6.290   5.326   4.897 -1.1314  1.0882  1.1824
  185POPC  C31321266   6.388   5.461   4.748  0.5907  0.4307  0.2432
  185POPC  H13X21267   6.448   5.377   4.705 -0.1495  0.7414 -1.4633
  185POPC  H13Y21268   6.462   5.543   4.753 -0.7357  1.5653  2.2809
  185POPC  C31421269   6.277   5.513   4.655 -0.3252 -0.0495  0.1931
  185POPC  H14X21270   6.218   5.596   4.699  0.4992  1.8442 -2.0332
  185POPC  H14Y21271   6.211   5.426   4.630 -2.1890  0.7710  1.9653
  185POPC  C31521272   6.338   5.560   4.520 -1.4188 -0.3971 -0.0596
  185POPC  H15X21273   6.420   5.493   4.487  0.9610  2.4597 -0.3711
  185POPC  H15Y21274   6.389   5.657   4.536 -0.5514 -1.0932  1.6157
  185POPC  C31621275   6.239   5.586   4.406 -0.0342  0.5947 -0.2278
  185POPC  H16X21276   6.167   5.668   4.425  1.7606  2.8937 -2.6162
  185POPC  H16Y21277   6.182   5.495   4.377  1.4031 -0.2341 -0.5723
  185POPC  H16Z21278   6.298   5.606   4.314 -0.5851 -0.3820 -0.8164
  186POPC     N21279   2.393   2.779   6.553  0.0159  0.2678 -0.5430
  186POPC   C1221280   2.391   2.694   6.430  0.5298  0.7487  0.8215
  186POPC  H12A21281   2.312   2.622   6.446  1.9634 -1.3462 -0.9805
  186POPC  H12B21282   2.480   2.633   6.419  0.4525  0.8544 -0.4669
  186POPC   C1321283   2.259   2.849   6.577 -0.1560 -0.2386  0.2506
  186POPC  H13A21284   2.179   2.782   6.606 -0.1359 -1.0535 -1.4298
  186POPC  H13B21285   2.267   2.926   6.652  0.2710  0.7884 -0.8168
  186POPC  H13C21286   2.227   2.901   6.489 -1.1893  1.8767  1.8009
  186POPC   C1421287   2.435   2.708   6.678  0.0560 -0.1736  0.1917
  186POPC  H14A21288   2.536   2.671   6.664  0.2730  0.8748 -1.2745
  186POPC  H14B21289   2.450   2.775   6.761 -0.0883 -1.4333  1.2571
  186POPC  H14C21290   2.377   2.625   6.715 -1.0855  0.5620  0.0990
  186POPC   C1521291   2.493   2.891   6.538  0.1662 -0.3210  0.7059
  186POPC  H15A21292   2.596   2.860   6.549 -0.1521 -1.6557  0.1273
  186POPC  H15B21293   2.478   2.964   6.616 -2.5829 -0.8748  0.7964
  186POPC  H15C21294   2.470   2.941   6.446  0.5190 -0.1657  0.7007
  186POPC   C1121295   2.356   2.754   6.294 -0.0728 -0.0870  1.4733
  186POPC  H11A21296   2.372   2.678   6.213  2.2135 -0.3091  2.0533
  186POPC  H11B21297   2.429   2.832   6.264 -0.2338 -0.8358 -1.1101
  186POPC     P21298   2.097   2.723   6.296 -0.3449  0.2823 -0.1379
  186POPC   O1321299   1.986   2.799   6.358 -0.1708 -0.6311  0.2888
  186POPC   O1421300   2.142   2.600   6.368 -0.0927  0.1366 -0.1322
  186POPC   O1221301   2.226   2.817   6.293  0.5097  0.5705 -0.2668
  186POPC   O1121302   2.067   2.694   6.139 -0.0065  0.6173 -0.1698
  186POPC    C121303   2.051   2.808   6.060 -0.3188 -0.0982 -0.0138
  186POPC    HA21304   2.084   2.789   5.955 -2.3317 -0.0600 -0.6932
  186POPC    HB21305   2.120   2.886   6.099 -0.3009 -0.9279  1.6856
  186POPC    C221306   1.912   2.862   6.049 -0.5431  0.1338  0.0136
  186POPC    HS21307   1.861   2.852   6.148  0.5990 -2.1549  0.4354
  186POPC   O2121308   1.842   2.777   5.958 -0.3639  0.1145  0.3626
  186POPC   C2121309   1.709   2.783   5.959  0.7742 -0.2969  0.0111
  186POPC   O2221310   1.640   2.848   6.033 -0.1939 -0.4702 -0.3043
  186POPC   C2221311   1.655   2.694   5.853 -0.0045  0.5458  0.0770
  186POPC   H2R21312   1.712   2.599   5.848  1.8091  1.6116 -0.7770
  186POPC   H2S21313   1.680   2.756   5.764  1.7194  0.0431  0.1745
  186POPC    C321314   1.896   3.016   6.021  0.0492 -0.3425 -0.7228
  186POPC    HX21315   1.935   3.066   6.111 -1.8820  0.9090 -0.5189
  186POPC    HY21316   1.789   3.046   6.014  0.8733  3.7097  1.5681
  186POPC   O3121317   1.977   3.054   5.915  0.4499 -0.2982  0.8631
  186POPC   C3121318   1.918   3.053   5.790 -0.6946 -0.5867  0.4909
  186POPC   O3221319   1.807   3.019   5.772  0.6559 -0.1201  0.0526
  186POPC   C3221320   2.020   3.105   5.690  0.2159 -0.1161  1.3916
  186POPC   H2X21321   2.116   3.048   5.686 -0.1985 -0.7579 -0.8377
  186POPC   H2Y21322   2.055   3.203   5.729 -1.6955 -0.0070  3.0063
  186POPC   C2321323   1.506   2.644   5.879  0.4494 -0.1635 -0.3253
  186POPC   H3R21324   1.441   2.731   5.901  3.2044  1.9805  0.0273
  186POPC   H3S21325   1.519   2.575   5.965  1.5446  3.2507  2.4877
  186POPC   C2421326   1.453   2.557   5.774  0.3326 -0.2298  1.2133
  186POPC   H4R21327   1.367   2.495   5.807 -1.1910  1.1064 -0.1044
  186POPC   H4S21328   1.524   2.477   5.744  1.0029  0.3527  1.2245
  186POPC   C2521329   1.416   2.641   5.648  0.0197 -0.0303 -0.2347
  186POPC   H5R21330   1.496   2.709   5.612  1.4480 -1.3573  0.3134
  186POPC   H5S21331   1.332   2.701   5.688  0.5963 -0.4117  1.6415
  186POPC   C2621332   1.377   2.551   5.525  0.5588  0.4956  0.0981
  186POPC   H6R21333   1.314   2.469   5.567  2.4682 -1.2889 -0.3550
  186POPC   H6S21334   1.464   2.497   5.481 -1.0784 -2.1802 -0.0531
  186POPC   C2721335   1.297   2.629   5.419  0.4594  0.1792  0.7907
  186POPC   H7R21336   1.366   2.715   5.407  0.4619 -0.0804 -1.6778
  186POPC   H7S21337   1.200   2.667   5.460 -0.5032 -0.9458 -0.3562
  186POPC   C2821338   1.269   2.566   5.284 -0.3816  0.3929 -0.2298
  186POPC   H8R21339   1.199   2.628   5.225 -1.5342 -1.2261 -0.6335
  186POPC   H8S21340   1.217   2.471   5.310  1.4119 -0.8156 -0.8768
  186POPC   C2921341   1.395   2.529   5.208  0.5329  0.7614  0.4172
  186POPC   H9121342   1.434   2.427   5.221  0.2096  0.9620  4.1778
  186POPC  C21021343   1.468   2.608   5.131  0.0849 -0.0993 -0.2255
  186POPC  H10121344   1.553   2.559   5.081 -0.7076  0.8116 -2.5923
  186POPC  C21121345   1.431   2.752   5.099  1.0591 -0.2630 -0.2907
  186POPC  H11R21346   1.494   2.811   5.170 -0.0720 -0.0799  0.5898
  186POPC  H11S21347   1.323   2.764   5.123  0.9255  0.5718 -1.2414
  186POPC  C21221348   1.465   2.769   4.946  0.0555  0.5860  0.3201
  186POPC  H12R21349   1.574   2.762   4.924 -0.0685 -0.3977 -0.0353
  186POPC  H12S21350   1.455   2.878   4.929 -1.2475  0.5624  0.8514
  186POPC  C21321351   1.369   2.709   4.845 -1.1279 -0.3662  0.0019
  186POPC  H13R21352   1.262   2.721   4.870 -0.8918 -0.4487  1.1190
  186POPC  H13S21353   1.378   2.598   4.852 -2.6763 -0.3862  3.0652
  186POPC  C21421354   1.398   2.749   4.695 -0.0145  0.4958 -0.2170
  186POPC  H14R21355   1.507   2.732   4.678  1.1553  3.1460  3.4005
  186POPC  H14S21356   1.380   2.858   4.681  0.2336  0.7158  1.0941
  186POPC  C21521357   1.309   2.677   4.602 -0.1050 -0.9200 -0.8410
  186POPC  H15R21358   1.202   2.700   4.619  0.3877  0.0741  1.1494
  186POPC  H15S21359   1.323   2.568   4.622  2.7484 -0.3475  0.9328
  186POPC  C21621360   1.351   2.723   4.468  0.0071  0.2505 -0.1584
  186POPC  H16R21361   1.353   2.638   4.397 -0.4844  0.7869 -0.8256
  186POPC  H16S21362   1.453   2.767   4.460 -0.4245  1.0551 -1.3856
  186POPC  C21721363   1.245   2.813   4.403 -0.3336  0.5360 -0.3884
  186POPC  H17R21364   1.204   2.880   4.481 -0.0841 -0.9759  1.1096
  186POPC  H17S21365   1.160   2.755   4.361  1.2466 -1.7508 -0.5861
  186POPC  C21821366   1.318   2.893   4.293  0.2238 -0.2518  0.4019
  186POPC  H18R21367   1.422   2.917   4.323  0.5489  1.9273 -2.1039
  186POPC  H18S21368   1.283   2.998   4.282 -0.7381 -0.6149 -0.0719
  186POPC  H18T21369   1.311   2.841   4.195  0.3512 -0.9103  0.7359
  186POPC   C3321370   1.957   3.119   5.547 -0.2126 -0.7669 -0.2675
  186POPC   H3X21371   1.846   3.126   5.555 -0.3845 -1.8246 -1.3781
  186POPC   H3Y21372   1.973   3.030   5.482  0.4059 -0.7830 -0.0950
  186POPC   C3421373   2.012   3.243   5.464  0.0840 -0.3701 -0.3978
  186POPC   H4X21374   2.121   3.232   5.484 -0.3775 -1.7695  1.7510
  186POPC   H4Y21375   1.963   3.332   5.510 -0.3538 -1.3375  1.0963
  186POPC   C3521376   1.977   3.232   5.313  0.0596 -0.3826 -0.0549
  186POPC   H5X21377   1.868   3.213   5.300 -0.0374  0.0447  0.1280
  186POPC   H5Y21378   2.031   3.147   5.266 -0.3141 -0.8451  0.3363
  186POPC   C3621379   1.990   3.361   5.237 -0.7999  0.5918  1.1032
  186POPC   H6X21380   1.914   3.436   5.267 -1.4381  0.2083  0.4764
  186POPC   H6Y21381   1.972   3.341   5.129  1.8118 -1.0029  0.8856
  186POPC   C3721382   2.126   3.429   5.250 -0.1547 -0.1647  0.0468
  186POPC   H7X21383   2.202   3.349   5.262 -1.0946 -0.9350  1.0681
  186POPC   H7Y21384   2.120   3.477   5.350 -2.4436 -1.0725  0.3956
  186POPC   C3821385   2.145   3.531   5.143 -0.4503  0.4197  0.4859
  186POPC   H8X21386   2.058   3.601   5.149 -0.2270  0.6740  0.8597
  186POPC   H8Y21387   2.132   3.479   5.046 -3.5135  1.1431  0.4001
  186POPC   C3921388   2.278   3.598   5.145 -0.4405 -0.0785  0.3876
  186POPC   H9X21389   2.354   3.517   5.150  0.2965  0.6402  1.1355
  186POPC   H9Y21390   2.299   3.648   5.242  2.0580 -0.3277  0.0502
  186POPC  C31021391   2.302   3.692   5.018 -0.7522 -0.0458 -0.1008
  186POPC  H10X21392   2.406   3.730   5.022 -1.0236  0.6198  1.1594
  186POPC  H10Y21393   2.235   3.777   5.044 -1.4607 -0.5426 -0.2749
  186POPC  C31121394   2.244   3.630   4.885  0.0667 -0.6614 -0.3381
  186POPC  H11X21395   2.264   3.710   4.811  1.1515 -2.1337 -1.7126
  186POPC  H11Y21396   2.135   3.609   4.879  0.0640 -0.3718 -1.6576
  186POPC  C31221397   2.324   3.509   4.833  0.7796  0.1767 -0.6066
  186POPC  H12X21398   2.334   3.440   4.919  2.7190  1.0266 -0.0687
  186POPC  H12Y21399   2.429   3.545   4.826  0.5196  1.3037  0.7737
  186POPC  C31321400   2.263   3.436   4.719  0.6055  0.0355  0.3102
  186POPC  H13X21401   2.280   3.492   4.624  0.4575 -0.4981 -0.0412
  186POPC  H13Y21402   2.154   3.419   4.733  0.5517  0.1642  0.0464
  186POPC  C31421403   2.324   3.290   4.701  0.1608  0.5175  0.3526
  186POPC  H14X21404   2.262   3.244   4.622 -0.4058  0.8245  0.6145
  186POPC  H14Y21405   2.314   3.238   4.799 -1.0130 -2.0274 -1.0250
  186POPC  C31521406   2.474   3.287   4.666 -0.2694  0.5552 -0.4019
  186POPC  H15X21407   2.518   3.185   4.673  2.8306  1.7804 -0.3569
  186POPC  H15Y21408   2.525   3.339   4.751 -1.6751  3.3515 -1.1604
  186POPC  C31621409   2.505   3.350   4.531 -0.7830  0.6460  0.1414
  186POPC  H16X21410   2.460   3.282   4.455 -0.2573  1.6155 -1.0687
  186POPC  H16Y21411   2.613   3.358   4.505 -0.9684  1.7511 -0.3247
  186POPC  H16Z21412   2.475   3.457   4.530  1.4947  1.3387 -1.3578
  187POPC     N21413   3.274   0.145   1.750 -0.1063  0.0374  0.0744
  187POPC   C1221414   3.330   0.263   1.833 -0.3157 -0.2041 -0.0436
  187POPC  H12A21415   3.305   0.357   1.784  1.7087  0.2354 -0.3125
  187POPC  H12B21416   3.437   0.252   1.831 -0.1507  1.1527  0.1752
  187POPC   C1321417   3.135   0.155   1.732  0.5314  0.0883  0.5213
  187POPC  H13A21418   3.093   0.240   1.680  1.5410 -1.0479 -2.3829
  187POPC  H13B21419   3.089   0.073   1.679  2.5583  1.0241 -3.0429
  187POPC  H13C21420   3.077   0.159   1.823 -1.2742  1.9327 -0.6266
  187POPC   C1421421   3.340   0.136   1.617 -0.6232  0.5575  0.1080
  187POPC  H14A21422   3.339   0.229   1.562 -0.2425 -1.4163 -3.5147
  187POPC  H14B21423   3.447   0.123   1.623 -0.8681 -1.4020  1.2592
  187POPC  H14C21424   3.299   0.065   1.548  1.8654  0.4448 -1.3566
  187POPC   C1521425   3.293   0.014   1.814  0.0856 -0.2374  0.2693
  187POPC  H15A21426   3.259  -0.062   1.745 -2.0188 -0.2321  1.2229
  187POPC  H15B21427   3.247   0.001   1.911  0.8633 -0.2252  0.6550
  187POPC  H15C21428   3.400  -0.004   1.820  0.5400  0.7437 -3.1229
  187POPC   C1121429   3.295   0.280   1.983  0.4811  0.3099 -0.2359
  187POPC  H11A21430   3.325   0.380   2.022  2.9408 -1.4916  2.9966
  187POPC  H11B21431   3.343   0.199   2.043  0.2037  0.2976 -0.0297
  187POPC     P21432   3.048   0.389   2.015  0.2524  0.6563  0.0195
  187POPC   O1321433   2.912   0.328   2.031 -0.3115  0.1394  0.4921
  187POPC   O1421434   3.074   0.480   1.905  0.0275  0.0780 -0.0797
  187POPC   O1221435   3.145   0.264   1.989 -0.4646  0.1451 -0.1131
  187POPC   O1121436   3.097   0.458   2.144  0.1062 -0.7817 -0.1765
  187POPC    C121437   3.132   0.371   2.259  0.7194 -0.0155  0.1151
  187POPC    HA21438   3.238   0.386   2.289  1.3199 -0.5182 -1.5915
  187POPC    HB21439   3.114   0.265   2.229 -1.3430  1.1715 -3.3801
  187POPC    C221440   3.041   0.389   2.387 -0.3683  0.0374 -0.6669
  187POPC    HS21441   3.043   0.499   2.404  2.2192 -0.0710  0.1348
  187POPC   O2121442   3.086   0.322   2.502 -0.3636  0.0892 -0.0226
  187POPC   C2121443   3.185   0.379   2.577  0.2668  0.2266  0.3329
  187POPC   O2221444   3.233   0.484   2.543  0.2156 -0.4272 -0.2298
  187POPC   C2221445   3.236   0.281   2.677  0.7162  0.6584 -0.4295
  187POPC   H2R21446   3.275   0.190   2.626 -0.6658 -1.8233  2.5721
  187POPC   H2S21447   3.153   0.243   2.740  2.1081 -1.2872  0.3460
  187POPC    C321448   2.901   0.343   2.362 -0.4303  0.3782 -0.6595
  187POPC    HX21449   2.916   0.242   2.319  0.6829  0.0029  0.5437
  187POPC    HY21450   2.868   0.409   2.278 -2.7324  0.9400  0.5998
  187POPC   O3121451   2.814   0.334   2.474 -0.4706  0.0845  0.4290
  187POPC   C3121452   2.801   0.226   2.534  0.5094  0.4958 -0.8336
  187POPC   O3221453   2.850   0.116   2.506 -0.3071  0.0894  0.6012
  187POPC   C3221454   2.726   0.247   2.672  0.5227 -0.1780  0.0431
  187POPC   H2X21455   2.621   0.210   2.661  0.9775 -2.8056  2.9793
  187POPC   H2Y21456   2.723   0.357   2.685 -0.1657 -0.2243  0.3639
  187POPC   C2321457   3.342   0.342   2.767 -0.3821 -0.5052 -0.4796
  187POPC   H3R21458   3.314   0.444   2.800  0.6168 -0.3503 -0.0781
  187POPC   H3S21459   3.434   0.355   2.706 -1.2482  3.1217 -1.2459
  187POPC   C2421460   3.367   0.255   2.896  0.2171  0.1776  0.4578
  187POPC   H4R21461   3.468   0.284   2.933  1.4708 -2.8922 -0.2156
  187POPC   H4S21462   3.368   0.148   2.867 -0.9458  0.2125  0.2235
  187POPC   C2521463   3.280   0.289   3.011  0.3345  0.0063 -0.0568
  187POPC   H5R21464   3.173   0.273   2.984  0.3846  0.5576 -0.5954
  187POPC   H5S21465   3.265   0.397   3.026 -0.7496  0.4350 -3.3654
  187POPC   C2621466   3.296   0.199   3.133  0.3651  0.3527 -0.0312
  187POPC   H6R21467   3.402   0.210   3.164  1.5060 -2.1096 -2.6695
  187POPC   H6S21468   3.280   0.089   3.128 -2.8072  0.7242 -0.7208
  187POPC   C2721469   3.190   0.250   3.236 -0.2341 -0.5452  0.5488
  187POPC   H7R21470   3.083   0.237   3.207 -0.2071  0.3293  0.0080
  187POPC   H7S21471   3.201   0.356   3.266 -0.0092 -0.6616  0.8767
  187POPC   C2821472   3.179   0.164   3.362  0.7202  0.2034 -0.0099
  187POPC   H8R21473   3.283   0.156   3.402 -0.3566  1.9272  3.5631
  187POPC   H8S21474   3.149   0.062   3.331 -1.5030  0.1776  1.9116
  187POPC   C2921475   3.083   0.217   3.467  0.2600 -0.0231 -0.2332
  187POPC   H9121476   3.101   0.321   3.497  2.1944 -0.4529  0.2353
  187POPC  C21021477   2.973   0.157   3.513 -0.9213 -0.7179 -0.3903
  187POPC  H10121478   2.907   0.207   3.586 -1.7082 -2.4716  0.1424
  187POPC  C21121479   2.932   0.014   3.489 -0.9368  0.1559 -0.1039
  187POPC  H11R21480   3.017  -0.055   3.473  0.0793  1.6958 -1.7997
  187POPC  H11S21481   2.874   0.006   3.395 -2.3463 -1.0493  0.8145
  187POPC  C21221482   2.839  -0.037   3.590 -0.2646  0.3995 -0.4189
  187POPC  H12R21483   2.815  -0.143   3.568 -1.2585  0.4548  0.3192
  187POPC  H12S21484   2.745   0.020   3.577  0.0616  1.0870  0.1280
  187POPC  C21321485   2.883  -0.028   3.737 -0.4904 -0.1567 -0.6333
  187POPC  H13R21486   2.923   0.073   3.759 -0.0948 -0.5316  0.3999
  187POPC  H13S21487   2.956  -0.109   3.756 -0.0704  0.4085  0.2429
  187POPC  C21421488   2.759  -0.047   3.820 -0.4510 -0.3040  0.3001
  187POPC  H14R21489   2.715  -0.143   3.785  0.6779  0.1964 -2.8352
  187POPC  H14S21490   2.687   0.036   3.801 -0.2462 -0.4896 -1.5009
  187POPC  C21521491   2.784  -0.051   3.971 -0.3254 -0.1020  0.6839
  187POPC  H15R21492   2.842   0.040   3.996 -0.6515  0.6994 -1.2885
  187POPC  H15S21493   2.834  -0.143   4.006 -2.1684 -0.8721  1.4146
  187POPC  C21621494   2.655  -0.025   4.048 -0.0254  0.4379 -0.0318
  187POPC  H16R21495   2.577  -0.103   4.035 -0.9593  1.3811 -0.2149
  187POPC  H16S21496   2.603   0.058   3.996  0.9325  1.2923  0.3476
  187POPC  C21721497   2.683   0.002   4.188 -0.3082 -0.0345  0.1036
  187POPC  H17R21498   2.585   0.016   4.239 -1.8646 -0.4238 -2.5517
  187POPC  H17S21499   2.745   0.093   4.200 -1.9804  1.1010  0.4902
  187POPC  C21821500   2.759  -0.103   4.265 -0.9661  0.1260 -0.2565
  187POPC  H18R21501   2.867  -0.077   4.263 -0.3299 -2.2253  0.5616
  187POPC  H18S21502   2.761  -0.199   4.209  0.4233 -1.9533  3.0892
  187POPC  H18T21503   2.730  -0.117   4.371  1.1446 -0.1732  0.3293
  187POPC   C3321504   2.791   0.165   2.781  0.7241 -0.0502  0.1544
  187POPC   H3X21505   2.883   0.217   2.814 -0.5480  1.8761  0.8668
  187POPC   H3Y21506   2.827   0.065   2.750 -1.0642 -0.3802 -0.9829
  187POPC   C3421507   2.698   0.155   2.907  0.6129  0.4507  0.2176
  187POPC   H4X21508   2.743   0.083   2.978  1.0320  0.7331  0.2402
  187POPC   H4Y21509   2.595   0.118   2.890  0.6951  0.0849  0.5066
  187POPC   C3521510   2.672   0.292   2.973 -0.3846  0.2544 -0.5028
  187POPC   H5X21511   2.608   0.341   2.897 -0.7074  0.6678  0.0337
  187POPC   H5Y21512   2.768   0.346   2.988 -0.5132 -0.3436  3.7067
  187POPC   C3621513   2.599   0.284   3.113 -0.3443 -0.5301  0.4401
  187POPC   H6X21514   2.535   0.193   3.122 -2.4222  0.6301 -1.5474
  187POPC   H6Y21515   2.529   0.370   3.104  0.4630 -0.0852 -2.8701
  187POPC   C3721516   2.690   0.311   3.231 -0.6835 -0.5144 -0.3434
  187POPC   H7X21517   2.743   0.407   3.215 -0.1412 -0.5641  1.0976
  187POPC   H7Y21518   2.758   0.225   3.244 -2.2207 -1.9525 -1.3450
  187POPC   C3821519   2.613   0.330   3.360  0.1147 -0.5877  0.4407
  187POPC   H8X21520   2.586   0.228   3.394 -0.4089 -0.4165  0.5464
  187POPC   H8Y21521   2.514   0.380   3.352  0.8776  0.7833 -1.0109
  187POPC   C3921522   2.690   0.401   3.480  0.7706  0.1825 -0.4588
  187POPC   H9X21523   2.684   0.510   3.459  1.9368  0.5351  0.8966
  187POPC   H9Y21524   2.798   0.375   3.477  0.4177 -1.2996 -2.0552
  187POPC  C31021525   2.627   0.349   3.609  0.1505  0.4744 -0.4907
  187POPC  H10X21526   2.635   0.238   3.602 -1.6176  0.4000 -2.2677
  187POPC  H10Y21527   2.520   0.374   3.620  0.0595 -0.0167 -0.2793
  187POPC  C31121528   2.710   0.398   3.727  0.0462 -0.3261  0.1023
  187POPC  H11X21529   2.731   0.507   3.720  2.8803 -0.8148 -0.5034
  187POPC  H11Y21530   2.808   0.345   3.731 -1.4694 -3.2017  2.9888
  187POPC  C31221531   2.666   0.355   3.867 -0.5135  0.2548 -0.7514
  187POPC  H12X21532   2.626   0.252   3.880 -1.0734  0.7263  1.6844
  187POPC  H12Y21533   2.579   0.418   3.896  0.3237  0.7921  0.6887
  187POPC  C31321534   2.783   0.371   3.971  0.1452  0.7975 -0.6399
  187POPC  H13X21535   2.844   0.463   3.957  0.1620  0.5085 -2.6351
  187POPC  H13Y21536   2.856   0.288   3.958 -0.5809 -0.1296  0.8343
  187POPC  C31421537   2.722   0.371   4.116 -0.2224 -0.1706  0.3457
  187POPC  H14X21538   2.807   0.351   4.184 -0.2544  1.2345  0.8421
  187POPC  H14Y21539   2.634   0.305   4.129 -0.0053 -0.1764  1.9262
  187POPC  C31521540   2.676   0.514   4.163  0.3128  0.8362  0.7299
  187POPC  H15X21541   2.735   0.583   4.098 -1.1852  0.3856 -1.2014
  187POPC  H15Y21542   2.702   0.519   4.271  1.3659 -3.5942  0.8533
  187POPC  C31621543   2.528   0.556   4.151 -0.2255  0.1467 -0.3256
  187POPC  H16X21544   2.465   0.496   4.220 -0.9898  1.1693 -0.1058
  187POPC  H16Y21545   2.494   0.546   4.046 -2.1145 -0.3837  0.2879
  187POPC  H16Z21546   2.516   0.656   4.198  1.4882 -0.1250  0.8130
  188POPC     N21547   1.237   6.436   2.197  0.1316 -0.2807 -0.0268
  188POPC   C1221548   1.209   6.334   2.091  0.6756 -0.3215 -0.3710
  188POPC  H12A21549   1.194   6.385   1.997 -1.9534 -1.9654 -0.9475
  188POPC  H12B21550   1.110   6.296   2.111  1.1462 -0.7328  1.2977
  188POPC   C1321551   1.386   6.460   2.214 -0.0992 -0.0196 -0.2038
  188POPC  H13A21552   1.428   6.470   2.116 -1.4533 -2.2527 -1.0874
  188POPC  H13B21553   1.399   6.555   2.264 -2.1833 -0.0078  0.4311
  188POPC  H13C21554   1.426   6.373   2.264 -0.6036 -0.7492 -1.0512
  188POPC   C1421555   1.165   6.559   2.166 -0.3216  0.9319  0.2904
  188POPC  H14A21556   1.167   6.630   2.248 -0.4168  0.1757  0.9601
  188POPC  H14B21557   1.214   6.592   2.075  1.5532 -1.6556  0.2534
  188POPC  H14C21558   1.061   6.542   2.145  0.0987 -0.0141 -1.1449
  188POPC   C1521559   1.183   6.391   2.330  0.3139 -0.0238 -0.2703
  188POPC  H15A21560   1.221   6.453   2.410  0.5440  0.9699 -1.1176
  188POPC  H15B21561   1.219   6.291   2.348  0.0480 -0.4667 -2.0286
  188POPC  H15C21562   1.076   6.385   2.334  0.3555 -0.3601  0.3311
  188POPC   C1121563   1.296   6.199   2.088  0.2203 -0.5131 -0.2572
  188POPC  H11A21564   1.402   6.233   2.086  1.1493 -3.1526 -0.3159
  188POPC  H11B21565   1.263   6.136   2.003 -0.5135 -2.4939  1.4033
  188POPC     P21566   1.375   6.030   2.277  0.2372 -0.0102 -0.1505
  188POPC   O1321567   1.410   5.927   2.184  0.0054  0.4808  0.1555
  188POPC   O1421568   1.310   5.981   2.395  0.6653 -0.1575 -1.1476
  188POPC   O1221569   1.267   6.114   2.205  0.0286 -0.2801 -0.1758
  188POPC   O1121570   1.499   6.124   2.306  0.4558 -0.8850  0.6202
  188POPC    C121571   1.630   6.067   2.295 -0.0228 -0.0358 -0.1592
  188POPC    HA21572   1.652   6.053   2.186  1.0695 -0.4999  0.1079
  188POPC    HB21573   1.634   5.967   2.342 -1.4646  0.0896  0.2706
  188POPC    C221574   1.738   6.155   2.359 -0.5939 -0.7065 -0.4556
  188POPC    HS21575   1.839   6.119   2.329  0.3706  1.0193  0.5739
  188POPC   O2121576   1.720   6.149   2.509  0.4283  0.2305 -0.1602
  188POPC   C2121577   1.835   6.160   2.572  0.0176  0.6538  0.8793
  188POPC   O2221578   1.945   6.175   2.525 -0.0639 -0.4702 -0.0689
  188POPC   C2221579   1.806   6.148   2.722 -0.4287  0.5498 -0.1447
  188POPC   H2R21580   1.703   6.114   2.743 -0.4885  1.7678  1.8067
  188POPC   H2S21581   1.805   6.253   2.758  0.4535  0.7207 -0.5751
  188POPC    C321582   1.742   6.311   2.308  0.3919 -0.2641  0.0665
  188POPC    HX21583   1.640   6.354   2.310 -0.4435 -2.1158 -0.1423
  188POPC    HY21584   1.777   6.286   2.205 -0.4104 -0.6574 -0.1203
  188POPC   O3121585   1.842   6.390   2.374  0.1475 -1.0788 -0.1234
  188POPC   C3121586   1.803   6.493   2.452  0.4718 -0.3499  0.1225
  188POPC   O3221587   1.683   6.528   2.472 -0.5845  0.2773 -0.4063
  188POPC   C3221588   1.919   6.574   2.497 -0.3536  0.0980 -0.2505
  188POPC   H2X21589   1.965   6.630   2.414  0.2574 -1.0063 -0.6722
  188POPC   H2Y21590   1.993   6.501   2.537 -0.1469  0.8298  0.7474
  188POPC   C2321591   1.906   6.051   2.787  0.3889  0.7804 -0.4109
  188POPC   H3R21592   1.999   6.058   2.727 -0.7376  1.8646 -2.1353
  188POPC   H3S21593   1.862   5.951   2.766  0.8263  0.7657 -1.2677
  188POPC   C2421594   1.936   6.072   2.938  0.0120 -0.5615  0.0130
  188POPC   H4R21595   2.000   5.991   2.978 -2.2824 -2.6628 -0.3068
  188POPC   H4S21596   1.847   6.078   3.004  0.4594 -0.2934  0.5935
  188POPC   C2521597   2.010   6.201   2.962  0.1475  0.5265 -0.4813
  188POPC   H5R21598   1.954   6.295   2.943  1.7783  1.5399 -0.5347
  188POPC   H5S21599   2.100   6.191   2.897  2.0305 -2.2571  2.2796
  188POPC   C2621600   2.057   6.220   3.106  0.7764  0.2642  0.1940
  188POPC   H6R21601   2.126   6.306   3.116 -1.2336  1.8272  1.4210
  188POPC   H6S21602   2.108   6.126   3.139 -1.1705 -1.1094 -0.5152
  188POPC   C2721603   1.953   6.246   3.221  0.6655 -1.0220  0.1878
  188POPC   H7R21604   1.885   6.158   3.222 -0.8339 -0.0578 -3.4348
  188POPC   H7S21605   1.896   6.336   3.189 -0.0297 -1.3649  0.4333
  188POPC   C2821606   2.016   6.265   3.363 -0.0138 -0.7095 -0.7831
  188POPC   H8R21607   2.052   6.173   3.414 -1.2178 -0.6682  0.1825
  188POPC   H8S21608   1.924   6.283   3.423  1.0877 -1.0081  1.0999
  188POPC   C2921609   2.118   6.380   3.374 -0.3794  0.6948  0.0834
  188POPC   H9121610   2.201   6.377   3.301 -0.6342  0.4593 -0.1970
  188POPC  C21021611   2.121   6.478   3.466 -0.9712 -0.2575  0.1740
  188POPC  H10121612   2.192   6.562   3.469 -1.5283  0.1956  2.4074
  188POPC  C21121613   2.018   6.492   3.577 -0.1886  0.5181 -0.2766
  188POPC  H11R21614   1.935   6.418   3.582  0.1864  0.1306  0.4044
  188POPC  H11S21615   1.966   6.590   3.571 -2.8071 -0.7970 -0.6171
  188POPC  C21221616   2.081   6.493   3.720 -0.4940 -0.6251  0.0134
  188POPC  H12R21617   2.172   6.556   3.727  0.0665 -1.5692  2.1072
  188POPC  H12S21618   2.121   6.392   3.745  2.0060  0.2024 -0.3919
  188POPC  C21321619   1.989   6.524   3.840  0.1575 -0.2468 -0.0878
  188POPC  H13R21620   1.892   6.478   3.812  0.7597 -0.6391 -1.6463
  188POPC  H13S21621   1.995   6.635   3.842  0.8775 -0.2806  1.3999
  188POPC  C21421622   2.052   6.468   3.967  0.1636 -0.5649 -0.1736
  188POPC  H14R21623   2.156   6.505   3.980  0.7808 -1.8866 -1.1549
  188POPC  H14S21624   2.057   6.358   3.973  1.3715 -0.6825 -2.3838
  188POPC  C21521625   1.979   6.506   4.100  0.3215 -0.2690 -0.6086
  188POPC  H15R21626   2.004   6.446   4.190 -1.1824 -1.7299 -1.1249
  188POPC  H15S21627   1.874   6.474   4.085  0.1679 -0.2883  0.4151
  188POPC  C21621628   2.001   6.654   4.141  0.2668  0.0208  0.3291
  188POPC  H16R21629   1.947   6.715   4.065 -2.0693 -1.1138  0.9885
  188POPC  H16S21630   2.111   6.674   4.136  0.1468  0.5716 -0.1715
  188POPC  C21721631   1.934   6.693   4.269  0.1960 -0.5645  0.4627
  188POPC  H17R21632   1.930   6.804   4.282 -0.4906 -0.5684  0.2825
  188POPC  H17S21633   2.002   6.660   4.351  0.8469  1.0602  0.6277
  188POPC  C21821634   1.793   6.631   4.287  0.1521 -0.4941 -0.0188
  188POPC  H18R21635   1.750   6.667   4.383  0.9032  2.0297 -0.5632
  188POPC  H18S21636   1.791   6.520   4.286 -3.1954 -0.5569 -0.1353
  188POPC  H18T21637   1.737   6.677   4.203  0.2202  3.1589  1.7565
  188POPC   C3321638   1.879   6.654   2.619 -0.6219 -0.7456  0.0535
  188POPC   H3X21639   1.785   6.711   2.605 -0.6867 -0.9575 -0.3772
  188POPC   H3Y21640   1.954   6.732   2.644  0.7220 -2.5648  2.1801
  188POPC   C3421641   1.860   6.573   2.749 -0.4441 -0.4114 -0.0699
  188POPC   H4X21642   1.957   6.526   2.778 -0.9222 -0.6896  1.1596
  188POPC   H4Y21643   1.811   6.475   2.725  0.4034 -1.2724  1.5300
  188POPC   C3521644   1.810   6.640   2.870 -1.2495 -0.3172  0.2303
  188POPC   H5X21645   1.711   6.685   2.851 -1.4293 -0.1724  1.4577
  188POPC   H5Y21646   1.870   6.730   2.896 -2.4039  0.8719 -1.0298
  188POPC   C3621647   1.796   6.552   2.986  0.2564  0.0376  0.1765
  188POPC   H6X21648   1.885   6.488   3.004  0.8004  1.1622  1.7153
  188POPC   H6Y21649   1.711   6.481   2.972 -0.7518  1.3573 -0.6072
  188POPC   C3721650   1.767   6.625   3.122 -0.8220  0.5146 -0.0150
  188POPC   H7X21651   1.727   6.538   3.178 -0.0394 -1.3884 -2.2362
  188POPC   H7Y21652   1.698   6.711   3.107  2.1382  2.7142 -2.2539
  188POPC   C3821653   1.897   6.667   3.192 -0.5949 -0.0915 -0.7520
  188POPC   H8X21654   1.961   6.713   3.113 -0.4560 -0.0962 -0.6428
  188POPC   H8Y21655   1.946   6.570   3.215  0.5766  0.6923  0.1525
  188POPC   C3921656   1.871   6.741   3.322 -0.2525 -0.1198 -0.1248
  188POPC   H9X21657   1.962   6.746   3.387  0.1275  0.9027 -0.7097
  188POPC   H9Y21658   1.805   6.674   3.381  0.2869 -0.6152 -0.0767
  188POPC  C31021659   1.812   6.885   3.301  0.4039  0.1623  0.1281
  188POPC  H10X21660   1.738   6.886   3.219 -0.7436 -0.3391  1.1194
  188POPC  H10Y21661   1.902   6.944   3.276  2.3084 -1.5580  2.3823
  188POPC  C31121662   1.735   6.943   3.428  0.4348 -0.8761 -0.0636
  188POPC  H11X21663   1.655   6.866   3.438 -1.4421  1.1473  1.7080
  188POPC  H11Y21664   1.673   7.033   3.407 -0.8136 -1.1240  2.2215
  188POPC  C31221665   1.819   6.952   3.555  0.2322 -0.0478 -0.5635
  188POPC  H12X21666   1.921   6.995   3.543  0.6247 -0.5070  0.9837
  188POPC  H12Y21667   1.829   6.846   3.587 -1.6525 -1.3067 -3.6908
  188POPC  C31321668   1.746   7.011   3.673 -0.4696 -1.0149 -0.5898
  188POPC  H13X21669   1.642   6.974   3.675 -2.0053  2.4854 -3.7712
  188POPC  H13Y21670   1.744   7.121   3.655  1.6476 -0.4421  1.9615
  188POPC  C31421671   1.801   6.976   3.816  1.1049  0.4487  0.3995
  188POPC  H14X21672   1.903   7.019   3.821  0.5566  2.1200 -1.2744
  188POPC  H14Y21673   1.802   6.868   3.841  0.5627  0.3554  0.0443
  188POPC  C31521674   1.727   7.042   3.929  0.3412  0.1653  0.2810
  188POPC  H15X21675   1.618   7.023   3.919  0.5104 -0.8090  0.1326
  188POPC  H15Y21676   1.738   7.152   3.927 -2.2005  0.4872 -2.2414
  188POPC  C31621677   1.778   6.981   4.060  0.4930  0.0309  0.4911
  188POPC  H16X21678   1.887   6.960   4.048  0.5267 -0.3292  1.3958
  188POPC  H16Y21679   1.720   6.889   4.083  0.0310  0.1988  0.0003
  188POPC  H16Z21680   1.769   7.053   4.143 -1.7897  0.1762  0.1821
  189SAPI   C1221681   0.899   3.544   6.614  0.0990 -0.5975  0.1206
  189SAPI    H221682   0.870   3.495   6.518 -2.9758  0.7095  0.2765
  189SAPI    O221683   0.907   3.440   6.709 -0.7095  0.3679 -0.1747
  189SAPI   HO221684   0.987   3.389   6.697 -0.7633  0.2482 -0.0336
  189SAPI   C1321685   1.024   3.629   6.587 -0.3480  0.4416 -1.0055
  189SAPI    H321686   1.005   3.712   6.516 -0.5939  2.9350  1.7737
  189SAPI    O321687   1.128   3.540   6.540  0.1126 -0.4175  0.5304
  189SAPI   HO321688   1.130   3.458   6.589 -0.9028 -0.5626  0.3389
  189SAPI   C1421689   1.062   3.693   6.715 -0.3453  0.3480 -0.0295
  189SAPI    H421690   1.098   3.611   6.780 -1.4865  1.1892  1.7369
  189SAPI    O421691   1.174   3.784   6.687  0.0778 -0.4214 -0.0698
  189SAPI   HO421692   1.171   3.807   6.594  0.5077  0.0196  0.0203
  189SAPI   C1521693   0.952   3.757   6.795 -0.3791 -0.3573 -0.4633
  189SAPI    H521694   0.944   3.864   6.766 -3.6135  0.3879  2.5349
  189SAPI    O521695   0.994   3.763   6.932 -0.3317 -0.5926  0.2961
  189SAPI   HO521696   0.926   3.794   6.993 -0.6110  0.0187 -0.3082
  189SAPI   C1621697   0.807   3.708   6.773  0.3468  0.1383  0.0377
  189SAPI    H621698   0.785   3.631   6.850 -2.3954  0.0960 -0.6859
  189SAPI    O621699   0.707   3.812   6.791  0.2365 -0.2840 -0.0430
  189SAPI   HO621700   0.649   3.790   6.718  2.2626 -0.9879 -1.5275
  189SAPI   C1121701   0.787   3.643   6.637 -0.5706  0.4040 -0.9227
  189SAPI    H121702   0.786   3.721   6.558  0.2399  0.6621 -0.6878
  189SAPI     P21703   0.531   3.608   6.568  0.2857  0.1929 -0.5079
  189SAPI   O1321704   0.500   3.754   6.595 -0.8588 -0.0550  0.6954
  189SAPI   O1421705   0.431   3.504   6.616  0.1870 -0.4904  0.6260
  189SAPI   O1221706   0.668   3.566   6.646 -0.0623  0.0345  0.3286
  189SAPI   O1121707   0.558   3.596   6.412  0.2873  0.4070  0.2583
  189SAPI    C121708   0.541   3.470   6.341  0.4088 -0.6110  0.4275
  189SAPI    HA21709   0.621   3.398   6.369 -0.2257 -1.8212 -0.7189
  189SAPI    HB21710   0.454   3.415   6.383 -0.3523 -0.5421 -1.0057
  189SAPI    C221711   0.531   3.491   6.184 -0.1326 -0.3629  0.0385
  189SAPI    HS21712   0.493   3.397   6.138 -0.0090 -1.3324  1.8253
  189SAPI   O2121713   0.657   3.534   6.126  0.0418  0.1964  0.2558
  189SAPI   C2121714   0.742   3.434   6.114 -0.2426 -0.2342  0.1923
  189SAPI   O2221715   0.720   3.316   6.146  0.0922 -0.3304  0.4834
  189SAPI   C2221716   0.864   3.470   6.029  0.2471  0.2794  0.6219
  189SAPI   H2R21717   0.853   3.572   5.986 -2.0276 -0.2147 -0.0672
  189SAPI   H2S21718   0.952   3.462   6.097  0.0676 -0.3393  0.7913
  189SAPI    C321719   0.420   3.596   6.152  0.6296 -0.3633 -0.1150
  189SAPI    HX21720   0.436   3.697   6.195 -0.8028 -0.9277  1.8648
  189SAPI    HY21721   0.335   3.559   6.212 -0.8407 -0.5365 -2.2046
  189SAPI   O3121722   0.388   3.598   6.014  0.5541  0.0851 -0.9909
  189SAPI   C3121723   0.445   3.692   5.943 -0.2679 -0.6814 -1.1552
  189SAPI   O3221724   0.501   3.796   5.984  0.3193 -0.4423 -0.0987
  189SAPI   C3221725   0.426   3.674   5.794  0.0143 -0.4234  0.6180
  189SAPI   H2X21726   0.325   3.714   5.774  0.8168  2.2461  1.4578
  189SAPI   H2Y21727   0.424   3.565   5.776  0.4834 -0.8367  2.8733
  189SAPI   C2321728   0.895   3.369   5.917 -0.3557 -0.5765 -0.8159
  189SAPI   H3R21729   0.891   3.270   5.967 -1.0002 -0.8215 -1.3374
  189SAPI   H3S21730   1.002   3.388   5.891  0.0339  0.8967  1.5208
  189SAPI   C2421731   0.791   3.380   5.803 -0.1980  0.2546 -0.1779
  189SAPI   H4R21732   0.685   3.372   5.836 -0.2874 -1.4034 -0.7414
  189SAPI   H4S21733   0.817   3.290   5.742 -0.7628 -0.6467  0.8652
  189SAPI   C2521734   0.811   3.502   5.715 -0.1446 -0.3312 -0.5188
  189SAPI   H5R21735   0.830   3.602   5.757  0.3800 -0.4248 -0.5255
  189SAPI   C2621736   0.815   3.510   5.579  0.1475 -0.0667  0.3153
  189SAPI   H6R21737   0.837   3.607   5.533  0.0234  1.0689  2.5187
  189SAPI   C2721738   0.794   3.403   5.479  0.1921  0.2501 -0.7211
  189SAPI   H7R21739   0.711   3.423   5.408 -2.4922  1.0780  2.3599
  189SAPI   H7S21740   0.764   3.305   5.522  0.9074  0.6026  0.6285
  189SAPI   C2821741   0.925   3.377   5.408  0.4308 -0.6085  0.2949
  189SAPI   H8R21742   0.987   3.308   5.466  0.8070 -0.0882  0.5272
  189SAPI   C2921743   0.955   3.410   5.282 -0.0906 -0.3238 -0.1824
  189SAPI   H9R21744   1.046   3.375   5.233 -0.4609  0.0207 -1.1401
  189SAPI  C21021745   0.864   3.494   5.196 -0.2955  0.1660 -0.0091
  189SAPI  H10R21746   0.836   3.591   5.244  0.2009  0.2121  0.1914
  189SAPI  H10S21747   0.773   3.432   5.179 -0.4454  0.6284 -0.9818
  189SAPI  C21121748   0.903   3.518   5.053  0.0481 -0.3299 -0.0471
  189SAPI  H11R21749   0.962   3.442   4.999  0.3199  2.6173 -4.5135
  189SAPI  C21221750   0.857   3.618   4.969  0.1267  0.3610 -0.7470
  189SAPI  H12R21751   0.898   3.633   4.869  0.7819  1.3552 -0.3486
  189SAPI  C21321752   0.749   3.726   5.003  0.5621 -0.4351 -0.4130
  189SAPI  H13R21753   0.759   3.750   5.111  0.1413 -1.8515 -0.0373
  189SAPI  H13S21754   0.648   3.682   4.986  1.0162 -1.1422 -1.3399
  189SAPI  C21421755   0.755   3.861   4.927  0.7605  0.3675  0.9891
  189SAPI  H14R21756   0.799   3.948   4.978 -0.7290  2.0891 -0.5120
  189SAPI  C21521757   0.694   3.883   4.808  0.7663  0.0889 -0.1566
  189SAPI  H15R21758   0.701   3.986   4.770  1.9718  0.6478  1.4963
  189SAPI  C21621759   0.620   3.774   4.732 -0.1381 -0.5833  0.1650
  189SAPI  H16R21760   0.515   3.805   4.713 -0.3488  0.2436  2.4593
  189SAPI  H16S21761   0.628   3.672   4.776  0.0203 -1.8995 -2.6530
  189SAPI  C21721762   0.701   3.762   4.600 -0.2811 -0.1855  0.7575
  189SAPI  H17R21763   0.803   3.724   4.623 -0.0468 -0.8413 -1.1343
  189SAPI  H17S21764   0.706   3.864   4.557  2.0215 -0.6332 -0.2050
  189SAPI  C21821765   0.633   3.680   4.488  0.0971  0.4682 -0.7777
  189SAPI  H18R21766   0.638   3.576   4.527  3.3415  0.4034 -1.0578
  189SAPI  H18S21767   0.695   3.675   4.396 -0.4320 -0.9928 -1.0842
  189SAPI  C21921768   0.489   3.725   4.460  0.1965 -0.2741 -0.1947
  189SAPI  H19R21769   0.491   3.834   4.483 -0.9055 -0.4443  0.8170
  189SAPI  H19S21770   0.426   3.687   4.543  1.8408 -1.0073  0.7787
  189SAPI  C22021771   0.437   3.696   4.321 -0.7397  0.2316 -0.2666
  189SAPI  H20R21772   0.459   3.590   4.295  1.5950  0.9918 -1.6032
  189SAPI  H20S21773   0.500   3.757   4.252  1.4747  0.3755  1.7753
  189SAPI  H20T21774   0.326   3.709   4.318 -0.6780  0.7998 -0.1770
  189SAPI   C3321775   0.530   3.765   5.720  0.2601 -0.5461  0.0482
  189SAPI   H3X21776   0.626   3.734   5.767 -0.2600 -0.3416  1.2976
  189SAPI   H3Y21777   0.523   3.875   5.733 -1.8605 -0.7591  1.1032
  189SAPI   C3421778   0.549   3.749   5.565 -0.3067 -0.2062  0.5850
  189SAPI   H4X21779   0.548   3.644   5.529 -1.4981  0.0955 -0.3143
  189SAPI   H4Y21780   0.645   3.802   5.548 -0.2437 -0.0593  1.3550
  189SAPI   C3521781   0.439   3.820   5.484  0.0118 -0.2237  0.5859
  189SAPI   H5X21782   0.416   3.922   5.522 -2.8849 -0.2166 -0.8889
  189SAPI   H5Y21783   0.340   3.770   5.479 -1.4126  2.4881 -2.1761
  189SAPI   C3621784   0.481   3.826   5.332  0.1708 -1.0241 -0.0839
  189SAPI   H6X21785   0.490   3.720   5.299 -0.7188 -1.9156  2.3573
  189SAPI   H6Y21786   0.579   3.879   5.333 -0.5713  0.3932  0.0108
  189SAPI   C3721787   0.387   3.913   5.254 -0.7744 -1.3234  0.2672
  189SAPI   H7X21788   0.397   4.020   5.278  4.1980 -1.0046 -2.0859
  189SAPI   H7Y21789   0.284   3.878   5.277 -1.3773  0.4335  0.3471
  189SAPI   C3821790   0.411   3.902   5.097  0.8607 -0.6435 -1.0514
  189SAPI   H8X21791   0.454   3.803   5.073 -1.1299 -2.2413  1.5134
  189SAPI   H8Y21792   0.484   3.984   5.078  1.0898 -0.2926  1.0916
  189SAPI   C3921793   0.276   3.921   5.025 -0.2913  0.6958 -0.6555
  189SAPI   H9X21794   0.219   4.013   5.050 -1.3778 -0.2347  0.4002
  189SAPI   H9Y21795   0.209   3.833   5.034  0.9288 -0.2450 -0.4144
  189SAPI  C31021796   0.296   3.949   4.875 -0.9453  0.0407 -0.0351
  189SAPI  H10X21797   0.369   3.876   4.832  1.2177  1.5562  0.9039
  189SAPI  H10Y21798   0.331   4.054   4.866 -0.3967 -0.1238  0.1361
  189SAPI  C31121799   0.157   3.949   4.805  0.2847  0.3898 -0.2154
  189SAPI  H11X21800   0.081   4.014   4.853 -0.2350  0.2303 -0.8074
  189SAPI  H11Y21801   0.114   3.854   4.844 -0.6673  1.0979  0.5127
  189SAPI  C31221802   0.169   3.963   4.659 -0.1967 -0.2958  0.4697
  189SAPI  H12X21803   0.223   3.882   4.605  1.2009 -0.4830  2.0466
  189SAPI  H12Y21804   0.214   4.056   4.617  1.0347 -1.4864 -0.9661
  189SAPI  C31321805   0.027   3.966   4.588 -0.5462 -0.2764  0.2232
  189SAPI  H13X21806  -0.026   4.057   4.624 -1.7708 -1.8831  2.7582
  189SAPI  H13Y21807  -0.035   3.881   4.623 -0.2099 -0.8252 -0.4885
  189SAPI  C31421808   0.049   3.968   4.435 -0.0056  0.9665 -0.7630
  189SAPI  H14X21809   0.114   3.879   4.418 -1.6898 -1.1280  2.6495
  189SAPI  H14Y21810   0.098   4.065   4.411 -0.7891  1.3745 -0.7400
  189SAPI  C31521811  -0.083   3.959   4.351 -0.0081  0.3161  1.1517
  189SAPI  H15X21812  -0.151   4.037   4.391  1.9817  1.3632  2.6455
  189SAPI  H15Y21813  -0.126   3.858   4.369  0.2799 -0.1702 -0.6649
  189SAPI  C31621814  -0.052   3.979   4.201  0.2781  0.1719 -0.0066
  189SAPI  H16X21815  -0.001   4.078   4.202  0.6510 -0.0200  0.1582
  189SAPI  H16Y21816  -0.150   3.989   4.149 -0.5439 -0.0643  1.4130
  189SAPI  C31721817   0.046   3.885   4.133 -1.2892 -0.1220 -0.5761
  189SAPI  H17X21818  -0.016   3.793   4.139 -1.3394 -0.1279 -1.1120
  189SAPI  H17Y21819   0.138   3.859   4.190 -1.2571  0.6556 -0.2550
  189SAPI  C31821820   0.074   3.917   3.984 -0.1686 -0.1595  0.0242
  189SAPI  H18X21821   0.130   3.837   3.932 -2.0044 -1.4786 -0.0167
  189SAPI  H18Y21822   0.137   4.009   3.987  0.3433 -0.5054  2.5346
  189SAPI  H18Z21823  -0.025   3.924   3.934  0.5337  2.0430 -1.1870
  190SAPI   C1221824   6.524   0.481   6.494 -0.6739 -0.3288  0.2338
  190SAPI    H221825   6.506   0.454   6.388  0.9858  0.2975 -0.2420
  190SAPI    O221826   6.664   0.493   6.500  0.2995  0.0201 -0.3228
  190SAPI   HO221827   6.698   0.416   6.454  2.5905 -0.3542  1.7995
  190SAPI   C1321828   6.456   0.610   6.538  0.3951 -0.3538  0.5221
  190SAPI    H321829   6.346   0.598   6.530  0.2485  1.7842 -2.3347
  190SAPI    O321830   6.503   0.716   6.455 -0.2713  0.2937 -0.0416
  190SAPI   HO321831   6.593   0.686   6.440 -0.1973  0.2291  0.4971
  190SAPI   C1421832   6.483   0.632   6.687 -0.0030 -0.4538  0.2086
  190SAPI    H421833   6.591   0.657   6.684 -0.3496  1.2034 -3.0502
  190SAPI    O421834   6.429   0.757   6.736  0.2665 -0.3005  0.5272
  190SAPI   HO421835   6.486   0.783   6.809  0.1550  0.0538  0.4933
  190SAPI   C1521836   6.452   0.520   6.782 -0.0792  0.6871  0.7019
  190SAPI    H521837   6.342   0.529   6.793 -0.5339  0.7519 -2.8564
  190SAPI    O521838   6.501   0.532   6.916 -0.1287  0.5943  0.0909
  190SAPI   HO521839   6.582   0.582   6.907 -0.6631  1.2458 -1.3284
  190SAPI   C1621840   6.473   0.373   6.726  0.1285  0.1275 -0.1045
  190SAPI    H621841   6.569   0.334   6.766  0.3634  1.7401  0.9911
  190SAPI    O621842   6.383   0.278   6.786  0.1230 -0.5257 -0.5084
  190SAPI   HO621843   6.342   0.229   6.714 -0.7860 -1.8128  0.8287
  190SAPI   C1121844   6.467   0.364   6.572  0.5014 -0.2876  0.0983
  190SAPI    H121845   6.358   0.374   6.548  0.5670 -0.6045 -0.3416
  190SAPI     P21846   6.427   0.119   6.492  0.4554 -0.3078 -0.3351
  190SAPI   O1321847   6.314   0.125   6.590 -0.2636 -0.9723 -0.1269
  190SAPI   O1421848   6.501  -0.007   6.483 -0.2795 -0.0876 -0.2099
  190SAPI   O1221849   6.527   0.246   6.520  0.1719  0.2451  0.1956
  190SAPI   O1121850   6.367   0.156   6.352 -0.1017  0.5557  0.2374
  190SAPI    C121851   6.449   0.223   6.251 -0.3511 -0.7517  0.3889
  190SAPI    HA21852   6.417   0.327   6.225  2.6921 -0.3624 -2.5192
  190SAPI    HB21853   6.551   0.252   6.283 -1.5655  1.1214  2.9438
  190SAPI    C221854   6.457   0.136   6.114  0.8450 -0.1178  0.0153
  190SAPI    HS21855   6.542   0.184   6.061  2.0360 -1.3732  0.7470
  190SAPI   O2121856   6.337   0.133   6.040 -0.3496 -0.2590 -0.0965
  190SAPI   C2121857   6.298   0.246   5.991  0.2732 -0.0689  0.0241
  190SAPI   O2221858   6.357   0.351   5.998  0.5117 -0.0319  0.1873
  190SAPI   C2221859   6.158   0.222   5.930  0.4181 -0.2994 -0.0439
  190SAPI   H2R21860   6.096   0.218   6.023  0.2005 -0.1358 -0.1821
  190SAPI   H2S21861   6.139   0.314   5.872 -2.3764  0.2435  1.5533
  190SAPI    C321862   6.519  -0.003   6.142 -0.5810 -0.3373 -1.0734
  190SAPI    HX21863   6.451  -0.053   6.214 -0.4002  0.0954 -0.5997
  190SAPI    HY21864   6.613   0.002   6.199  0.1508 -0.1544 -2.2618
  190SAPI   O3121865   6.543  -0.075   6.016 -0.0677 -0.7028 -0.0419
  190SAPI   C3121866   6.432  -0.149   5.982 -0.7141 -0.1969  0.3219
  190SAPI   O3221867   6.331  -0.158   6.054 -0.2723  0.1572 -0.2859
  190SAPI   C3221868   6.446  -0.229   5.856 -0.6618 -0.1879  0.2073
  190SAPI   H2X21869   6.484  -0.329   5.887  0.1058 -0.0094 -0.1235
  190SAPI   H2Y21870   6.532  -0.185   5.799  0.4163 -0.0989  1.8303
  190SAPI   C2321871   6.130   0.096   5.846 -0.2571 -0.2286  0.1400
  190SAPI   H3R21872   6.020   0.087   5.841 -0.1313 -1.5191 -0.7251
  190SAPI   H3S21873   6.174   0.003   5.887  1.6688  0.0031 -1.2772
  190SAPI   C2421874   6.162   0.113   5.695 -0.5188 -0.0173 -0.7157
  190SAPI   H4R21875   6.100   0.198   5.659  0.8387  2.7288  2.7777
  190SAPI   H4S21876   6.145   0.017   5.642  1.0072 -0.2014 -0.9254
  190SAPI   C2521877   6.310   0.146   5.670 -0.5968 -0.1121 -0.2844
  190SAPI   H5R21878   6.378   0.110   5.748 -1.3726  0.1537  0.5302
  190SAPI   C2621879   6.368   0.212   5.563 -0.7139 -0.1360 -0.8047
  190SAPI   H6R21880   6.477   0.228   5.566 -0.5543 -1.2713  0.9581
  190SAPI   C2721881   6.296   0.260   5.443  0.3874  0.3747 -0.3252
  190SAPI   H7R21882   6.320   0.366   5.420 -0.7500  0.4597 -1.2370
  190SAPI   H7S21883   6.187   0.275   5.454  0.7413  2.9073  0.4912
  190SAPI   C2821884   6.328   0.191   5.314 -0.2065  0.3317  0.3354
  190SAPI   H8R21885   6.409   0.116   5.315  1.3233  1.9212  1.5274
  190SAPI   C2921886   6.278   0.219   5.187  0.1584  0.2077  0.2025
  190SAPI   H9R21887   6.305   0.147   5.108  2.8454  0.1239  1.0863
  190SAPI  C21021888   6.164   0.314   5.166 -0.4194 -0.0175 -0.2172
  190SAPI  H10R21889   6.207   0.410   5.130 -0.2294 -1.0956 -3.1009
  190SAPI  H10S21890   6.117   0.338   5.264 -1.0231  3.0182 -1.1558
  190SAPI  C21121891   6.051   0.269   5.079  0.4024 -0.1739  0.1236
  190SAPI  H11R21892   5.974   0.216   5.138  0.7220  1.0861  1.7564
  190SAPI  C21221893   6.036   0.301   4.953  0.2887  0.1822  0.2040
  190SAPI  H12R21894   5.943   0.273   4.903  0.7478 -0.1739 -0.4624
  190SAPI  C21321895   6.138   0.378   4.868  0.3930  0.1236 -0.5728
  190SAPI  H13R21896   6.202   0.442   4.932 -0.4333  1.1970 -0.8017
  190SAPI  H13S21897   6.076   0.454   4.816 -0.4996 -0.2723 -0.1038
  190SAPI  C21421898   6.211   0.284   4.775 -0.1222 -0.4416 -0.3287
  190SAPI  H14R21899   6.286   0.214   4.815  0.2100 -1.8558 -3.2013
  190SAPI  C21521900   6.191   0.282   4.643 -0.2863 -0.3661  0.4363
  190SAPI  H15R21901   6.264   0.226   4.582  0.0165  0.5762 -0.0933
  190SAPI  C21621902   6.096   0.369   4.563  0.7291  0.4458 -0.1452
  190SAPI  H16R21903   6.087   0.469   4.610 -0.4754  0.3633 -0.1760
  190SAPI  H16S21904   5.994   0.326   4.570  0.6130 -0.4424 -4.6810
  190SAPI  C21721905   6.120   0.373   4.412 -0.8332  0.1609 -0.1919
  190SAPI  H17R21906   6.119   0.271   4.368  0.2827  0.0215  0.0693
  190SAPI  H17S21907   6.222   0.411   4.393 -1.1133  1.4444  0.7445
  190SAPI  C21821908   6.029   0.475   4.337  0.0922 -0.0932 -0.2025
  190SAPI  H18R21909   6.037   0.567   4.399 -0.1064 -0.0946 -0.1757
  190SAPI  H18S21910   5.924   0.441   4.343 -1.1123  2.8082 -2.4094
  190SAPI  C21921911   6.071   0.504   4.197 -0.7946  0.3564 -0.2719
  190SAPI  H19R21912   6.175   0.543   4.197 -0.8063  0.4053  0.8546
  190SAPI  H19S21913   5.995   0.582   4.170 -0.0820  1.8187  1.6748
  190SAPI  C22021914   6.062   0.376   4.126  0.2192  0.6218  0.4830
  190SAPI  H20R21915   6.101   0.399   4.024 -2.1392  0.2261 -0.6037
  190SAPI  H20S21916   5.957   0.345   4.102 -0.1914  1.7480  0.7508
  190SAPI  H20T21917   6.113   0.287   4.165 -1.8262 -1.0288 -0.3768
  190SAPI   C3321918   6.319  -0.250   5.776  0.7983  0.3299 -0.3876
  190SAPI   H3X21919   6.275  -0.151   5.752  1.8344  0.9968  0.3599
  190SAPI   H3Y21920   6.244  -0.294   5.845  2.1946 -0.4256  0.7024
  190SAPI   C3421921   6.345  -0.318   5.640  0.1983  1.1343 -0.4082
  190SAPI   H4X21922   6.245  -0.351   5.605 -0.0543 -0.0049  1.2839
  190SAPI   H4Y21923   6.398  -0.414   5.656 -1.9901 -0.0660 -0.0484
  190SAPI   C3521924   6.422  -0.235   5.539 -0.7919  0.4529 -0.3837
  190SAPI   H5X21925   6.524  -0.204   5.569  0.0395 -2.6713  0.4280
  190SAPI   H5Y21926   6.368  -0.138   5.533 -0.6475  0.5682  0.1076
  190SAPI   C3621927   6.409  -0.294   5.398 -0.9073 -0.2049 -0.1792
  190SAPI   H6X21928   6.302  -0.312   5.377 -1.3528  0.1761  1.6172
  190SAPI   H6Y21929   6.470  -0.387   5.388  0.1153  0.2054  1.6569
  190SAPI   C3721930   6.465  -0.199   5.293  0.0006 -0.3674  0.4420
  190SAPI   H7X21931   6.571  -0.169   5.307  0.8768 -1.8059 -2.3460
  190SAPI   H7Y21932   6.400  -0.109   5.295 -0.9938 -0.9365 -2.1208
  190SAPI   C3821933   6.465  -0.270   5.156 -0.4360  0.8087  0.2582
  190SAPI   H8X21934   6.376  -0.336   5.153  1.2399 -1.5324 -0.7741
  190SAPI   H8Y21935   6.556  -0.333   5.146  1.0882  3.2317 -3.2858
  190SAPI   C3921936   6.466  -0.171   5.043 -0.5663  0.3114 -0.3760
  190SAPI   H9X21937   6.538  -0.087   5.060  0.6181 -0.5707 -0.8721
  190SAPI   H9Y21938   6.362  -0.132   5.036 -0.9645 -0.8100 -0.8958
  190SAPI  C31021939   6.473  -0.234   4.899 -0.0754 -0.2814  0.1220
  190SAPI  H10X21940   6.395  -0.313   4.902  1.0928 -1.4495  1.6321
  190SAPI  H10Y21941   6.571  -0.284   4.886 -1.3109 -2.6496 -0.6154
  190SAPI  C31121942   6.462  -0.120   4.791 -0.1913  0.3864 -0.0753
  190SAPI  H11X21943   6.552  -0.057   4.775 -0.8682  1.3620 -0.1314
  190SAPI  H11Y21944   6.383  -0.047   4.820 -1.6592 -0.0007 -2.7749
  190SAPI  C31221945   6.429  -0.177   4.651 -0.0420  0.4373  0.3308
  190SAPI  H12X21946   6.344  -0.247   4.662  1.7181 -1.5387  2.4797
  190SAPI  H12Y21947   6.517  -0.240   4.625 -0.6238  0.3300 -1.4712
  190SAPI  C31321948   6.413  -0.063   4.550  0.3009 -0.5608 -0.1813
  190SAPI  H13X21949   6.511  -0.011   4.544  0.2718 -0.6084 -1.4411
  190SAPI  H13Y21950   6.342   0.013   4.589  1.0647 -0.0672  0.2811
  190SAPI  C31421951   6.362  -0.101   4.415  0.1961  0.0354 -0.0864
  190SAPI  H14X21952   6.354  -0.015   4.346 -0.0427 -1.0199 -1.4271
  190SAPI  H14Y21953   6.260  -0.139   4.440  0.5744 -1.2774 -0.4536
  190SAPI  C31521954   6.454  -0.209   4.350 -0.3186 -0.2095 -0.3840
  190SAPI  H15X21955   6.460  -0.304   4.406  2.8912 -0.4347 -0.9174
  190SAPI  H15Y21956   6.558  -0.171   4.339  0.3853 -2.1341 -0.7833
  190SAPI  C31621957   6.396  -0.244   4.212 -0.4954  0.0398 -0.1237
  190SAPI  H16X21958   6.412  -0.154   4.149  2.3248 -0.3519 -0.1292
  190SAPI  H16Y21959   6.289  -0.266   4.226 -0.1781 -0.9746  0.8563
  190SAPI  C31721960   6.455  -0.364   4.150 -0.0793  0.9193  0.3194
  190SAPI  H17X21961   6.427  -0.456   4.204  0.1896  0.7438  0.1651
  190SAPI  H17Y21962   6.566  -0.360   4.157 -0.1392  4.1864  1.3212
  190SAPI  C31821963   6.397  -0.388   4.004  0.9061  0.0382  0.3466
  190SAPI  H18X21964   6.295  -0.348   3.986  1.0464 -0.1083 -0.8455
  190SAPI  H18Y21965   6.404  -0.498   3.989  0.6887  0.1239 -0.4368
  190SAPI  H18Z21966   6.461  -0.336   3.929  0.5107  0.3197  0.2017
  191SAPI   C1221967   2.055   5.608   2.002  0.2100  0.0298 -0.2206
  191SAPI    H221968   2.054   5.615   2.112 -0.9330 -2.3439 -0.0196
  191SAPI    O221969   2.185   5.625   1.948 -0.3295  0.5796 -0.2578
  191SAPI   HO221970   2.201   5.718   1.968 -3.7548  0.8596  2.1142
  191SAPI   C1321971   2.003   5.470   1.970  0.1093 -0.0209  0.7442
  191SAPI    H321972   1.894   5.463   1.992 -0.5255  1.1506 -1.6315
  191SAPI    O321973   2.062   5.352   2.036  0.0087 -0.7043 -0.0763
  191SAPI   HO321974   2.105   5.313   1.959 -0.6079  1.1714 -1.4635
  191SAPI   C1421975   2.015   5.453   1.817 -1.0200  0.2532  0.1547
  191SAPI    H421976   2.121   5.466   1.785 -1.4524  1.8809 -0.7308
  191SAPI    O421977   1.978   5.318   1.777 -0.0506  0.0041 -0.5210
  191SAPI   HO421978   1.882   5.321   1.777 -0.0391  0.5020 -0.0981
  191SAPI   C1521979   1.949   5.552   1.733  0.1532 -0.6054  0.1634
  191SAPI    H521980   1.841   5.527   1.737 -0.4504  1.0589 -2.7977
  191SAPI    O521981   1.974   5.538   1.595 -0.0536  0.2862 -0.0933
  191SAPI   HO521982   1.903   5.495   1.546  1.7644 -2.2346 -0.7355
  191SAPI   C1621983   1.957   5.698   1.780  0.0840  0.2448 -0.3876
  191SAPI    H621984   2.050   5.744   1.738 -1.3314  2.0119 -1.7496
  191SAPI    O621985   1.851   5.768   1.721  0.2208 -0.2590 -0.4180
  191SAPI   HO621986   1.878   5.857   1.747 -1.0465 -0.0968  0.4242
  191SAPI   C1121987   1.959   5.710   1.925 -0.4045  0.3855 -1.1616
  191SAPI    H121988   1.859   5.691   1.970  1.1717  0.5211  2.8265
  191SAPI     P21989   1.882   5.942   2.031  0.1736  0.2022 -0.6107
  191SAPI   O1321990   1.749   5.917   1.974 -0.3050 -0.3690  0.4138
  191SAPI   O1421991   1.933   6.080   2.042 -0.2679 -0.0085  0.0992
  191SAPI   O1221992   1.994   5.843   1.960 -0.4945  0.2023 -0.4629
  191SAPI   O1121993   1.885   5.875   2.173 -0.0443  0.7619  0.3890
  191SAPI    C121994   2.004   5.865   2.248 -0.3167 -0.7909  0.3552
  191SAPI    HA21995   2.085   5.803   2.204 -0.7753 -0.1260 -1.5601
  191SAPI    HB21996   2.043   5.968   2.263  0.0094 -0.6863 -1.0356
  191SAPI    C221997   1.982   5.793   2.386  0.0923 -0.2328  0.2641
  191SAPI    HS21998   1.996   5.686   2.358  1.2414 -0.1634  0.5087
  191SAPI   O2121999   1.852   5.824   2.441  0.3130 -0.2000  0.0939
  191SAPI   C2122000   1.794   5.726   2.512  0.0484 -0.3127 -0.1453
  191SAPI   O2222001   1.836   5.612   2.509  0.4512  0.1142 -0.0812
  191SAPI   C2222002   1.681   5.780   2.604 -0.6652  0.5368  0.2367
  191SAPI   H2R22003   1.716   5.877   2.647  1.4175  0.2534 -0.7002
  191SAPI   H2S22004   1.595   5.789   2.535  1.2230  1.6757 -2.1178
  191SAPI    C322005   2.093   5.836   2.483 -0.0896 -0.2521 -0.2113
  191SAPI    HX22006   2.086   5.944   2.510  0.2506 -0.1453 -0.5288
  191SAPI    HY22007   2.195   5.826   2.438 -0.0221 -0.5904  0.0172
  191SAPI   O3122008   2.095   5.758   2.608  0.7554  0.4431 -0.0536
  191SAPI   C3122009   2.138   5.631   2.588 -0.3007  0.6826 -0.1805
  191SAPI   O3222010   2.191   5.592   2.486 -0.1621  0.7142  0.1501
  191SAPI   C3222011   2.115   5.551   2.712 -0.6222  0.7185 -0.4857
  191SAPI   H2X22012   2.172   5.456   2.704 -1.1797 -0.0879  3.3747
  191SAPI   H2Y22013   2.010   5.521   2.730  0.6330 -3.3775  1.1750
  191SAPI   C2322014   1.640   5.688   2.722  0.1875  0.0878 -0.1046
  191SAPI   H3R22015   1.603   5.589   2.688 -2.0189  0.2218  1.6926
  191SAPI   H3S22016   1.558   5.733   2.782 -1.2000  0.9290 -2.5168
  191SAPI   C2422017   1.757   5.666   2.817  0.5629 -1.0011 -0.0449
  191SAPI   H4R22018   1.763   5.748   2.892 -0.3895  0.7964 -1.8389
  191SAPI   H4S22019   1.849   5.677   2.755 -0.8132  1.5313 -1.8247
  191SAPI   C2522020   1.757   5.525   2.872  0.0159 -0.2843  0.4520
  191SAPI   H5R22021   1.760   5.445   2.796  1.3630 -0.1892  0.3728
  191SAPI   C2622022   1.760   5.493   3.005 -0.2112  0.7614  0.8628
  191SAPI   H6R22023   1.765   5.388   3.035  0.7255  0.6054  0.1944
  191SAPI   C2722024   1.754   5.594   3.117 -0.4529 -0.3283  0.1047
  191SAPI   H7R22025   1.657   5.647   3.115 -1.1204 -1.3856  1.8973
  191SAPI   H7S22026   1.830   5.673   3.098  0.2112 -0.9910 -0.0640
  191SAPI   C2822027   1.757   5.532   3.253 -0.5492  0.7389  0.3430
  191SAPI   H8R22028   1.720   5.429   3.257  0.9432  0.2112  1.7552
  191SAPI   C2922029   1.812   5.585   3.370  0.5037  0.3293 -1.5621
  191SAPI   H9R22030   1.817   5.525   3.461  0.8285  0.3137 -1.5892
  191SAPI  C21022031   1.862   5.729   3.386  0.2698  0.6413  0.4012
  191SAPI  H10R22032   1.846   5.783   3.291  0.1167 -0.5401 -0.2697
  191SAPI  H10S22033   1.969   5.718   3.413  0.7658 -1.6046 -2.0710
  191SAPI  C21122034   1.784   5.803   3.495 -0.2008 -0.6441 -0.2746
  191SAPI  H11R22035   1.676   5.781   3.490 -0.2507 -0.6082  0.6311
  191SAPI  C21222036   1.836   5.877   3.597  0.2977  0.2087  0.3065
  191SAPI  H12R22037   1.768   5.924   3.670  1.8674  2.1155  0.6545
  191SAPI  C21322038   1.981   5.911   3.619 -0.2869  1.3227 -0.1993
  191SAPI  H13R22039   2.033   5.933   3.523  3.6280  0.7909  1.6290
  191SAPI  H13S22040   2.023   5.832   3.685 -0.3005  1.8838  0.4947
  191SAPI  C21422041   1.990   6.044   3.685  0.0181 -0.1780 -0.5762
  191SAPI  H14R22042   2.034   6.125   3.624  1.8314  0.9858  2.0972
  191SAPI  C21522043   2.003   6.066   3.820  0.6667 -0.1788  0.3397
  191SAPI  H15R22044   2.016   6.168   3.859  1.0653 -0.6763  1.5369
  191SAPI  C21622045   1.978   5.963   3.926 -0.4816  0.4602  0.0679
  191SAPI  H16R22046   2.041   5.996   4.012 -2.3294  0.4024  1.5146
  191SAPI  H16S22047   2.012   5.862   3.897  1.0208  1.0456 -0.2792
  191SAPI  C21722048   1.829   5.963   3.990  0.3758 -0.2129  0.4391
  191SAPI  H17R22049   1.763   5.966   3.901 -0.1753 -2.0967  0.7435
  191SAPI  H17S22050   1.814   6.061   4.040 -0.2339 -0.3058  0.4465
  191SAPI  C21822051   1.790   5.840   4.073  0.0319 -0.2303 -0.3203
  191SAPI  H18R22052   1.874   5.812   4.140 -0.9823 -2.1621  0.2406
  191SAPI  H18S22053   1.760   5.753   4.010 -0.2845 -0.2736 -0.1110
  191SAPI  C21922054   1.678   5.870   4.172  1.2168  0.3861  0.9224
  191SAPI  H19R22055   1.599   5.920   4.113  2.2480  0.3466 -0.5377
  191SAPI  H19S22056   1.707   5.944   4.250  1.5994  1.4223 -0.1879
  191SAPI  C22022057   1.620   5.744   4.239  0.6097 -0.1844  0.0044
  191SAPI  H20R22058   1.704   5.694   4.291  0.3755 -0.8387 -0.2370
  191SAPI  H20S22059   1.580   5.678   4.159  0.5894  1.0321 -1.0238
  191SAPI  H20T22060   1.541   5.767   4.315 -0.0399  0.6076 -0.8845
  191SAPI   C3322061   2.170   5.611   2.841 -0.0651 -0.4503  0.6493
  191SAPI   H3X22062   2.122   5.710   2.857 -0.3398 -0.4713 -0.0072
  191SAPI   H3Y22063   2.277   5.635   2.828 -0.6723  3.3083  1.6277
  191SAPI   C3422064   2.165   5.525   2.968  0.5794  0.0794 -0.2426
  191SAPI   H4X22065   2.221   5.432   2.944  0.5182  0.3627 -1.5215
  191SAPI   H4Y22066   2.058   5.506   2.990  0.1627  1.0567 -1.3725
  191SAPI   C3522067   2.227   5.584   3.094  0.8680  0.8460  0.1527
  191SAPI   H5X22068   2.188   5.688   3.106 -0.1768  0.7223 -1.7832
  191SAPI   H5Y22069   2.336   5.584   3.075  0.8689 -0.4098  0.1179
  191SAPI   C3622070   2.191   5.511   3.228  0.1981  0.4575 -1.1715
  191SAPI   H6X22071   2.248   5.416   3.236  0.6482  0.7353 -1.0075
  191SAPI   H6Y22072   2.081   5.503   3.215 -0.5286  1.6284  2.8702
  191SAPI   C3722073   2.233   5.599   3.345 -0.6526 -0.3696 -0.0365
  191SAPI   H7X22074   2.185   5.697   3.327  2.4090  1.1489 -0.5610
  191SAPI   H7Y22075   2.343   5.609   3.346 -0.7244  1.0026 -1.6561
  191SAPI   C3822076   2.196   5.540   3.482 -0.5533  0.0612 -0.3197
  191SAPI   H8X22077   2.235   5.438   3.505 -1.3200 -0.4558 -1.2368
  191SAPI   H8Y22078   2.086   5.558   3.486 -0.1495  3.1920 -0.9694
  191SAPI   C3922079   2.261   5.620   3.600 -0.2325 -0.8808 -0.2303
  191SAPI   H9X22080   2.241   5.729   3.593  0.6922 -0.7695 -1.6806
  191SAPI   H9Y22081   2.368   5.620   3.570 -0.0765  1.3978  0.1701
  191SAPI  C31022082   2.239   5.573   3.745  0.5424 -0.0051  0.4075
  191SAPI  H10X22083   2.323   5.616   3.804  2.5887 -0.9886 -1.6487
  191SAPI  H10Y22084   2.257   5.464   3.742 -0.4298 -0.1560 -0.4618
  191SAPI  C31122085   2.106   5.585   3.813  0.6138 -0.1716 -0.5279
  191SAPI  H11X22086   2.025   5.543   3.750 -0.0856  1.5276 -0.7948
  191SAPI  H11Y22087   2.095   5.694   3.826  0.7704 -0.1579 -0.5083
  191SAPI  C31222088   2.122   5.502   3.941 -0.1983 -0.4061 -0.0520
  191SAPI  H12X22089   2.217   5.537   3.987 -0.4850  0.9875 -0.4663
  191SAPI  H12Y22090   2.127   5.395   3.911 -0.7123 -0.0554 -1.4815
  191SAPI  C31322091   2.022   5.529   4.057  0.0768  0.2658  0.4045
  191SAPI  H13X22092   1.920   5.486   4.049  0.6703 -1.0490 -0.6529
  191SAPI  H13Y22093   2.014   5.639   4.069 -1.1788  0.2233  0.0508
  191SAPI  C31422094   2.069   5.459   4.184  0.1534 -0.0576 -0.2749
  191SAPI  H14X22095   2.159   5.506   4.229  0.2806 -0.5213 -0.0366
  191SAPI  H14Y22096   2.097   5.354   4.157  0.6693 -0.0776  0.3235
  191SAPI  C31522097   1.969   5.452   4.303 -0.4012 -0.5021  0.0092
  191SAPI  H15X22098   1.891   5.378   4.276 -0.9069 -0.3565  1.0326
  191SAPI  H15Y22099   1.920   5.549   4.324 -0.9801 -0.6446 -0.6423
  191SAPI  C31622100   2.044   5.394   4.422  0.4821  0.4489 -0.0099
  191SAPI  H16X22101   2.122   5.466   4.455 -0.1885  0.7842  0.8822
  191SAPI  H16Y22102   2.103   5.304   4.395 -2.3522 -1.8734  0.9051
  191SAPI  C31722103   1.944   5.383   4.539 -0.1079  0.7657 -0.4218
  191SAPI  H17X22104   1.866   5.311   4.507  0.0842  0.0927  0.5813
  191SAPI  H17Y22105   1.895   5.482   4.553 -1.4974  0.1009 -0.4358
  191SAPI  C31822106   1.995   5.327   4.678 -0.4688 -0.3525  0.1695
  191SAPI  H18X22107   2.040   5.414   4.732  0.4382 -0.5668 -0.2179
  191SAPI  H18Y22108   2.069   5.245   4.664 -0.4586 -0.1105 -1.3589
  191SAPI  H18Z22109   1.911   5.292   4.741  0.7602 -2.0185  0.9866
  192SAPI   C1222110   4.924   2.133   2.157  0.4222 -0.8183 -0.3755
  192SAPI    H222111   5.018   2.090   2.199  3.5393  2.0808 -3.7472
  192SAPI    O222112   4.885   2.036   2.066  0.5950 -0.3207 -0.3857
  192SAPI   HO222113   4.962   1.991   2.031 -0.0052  0.4406 -2.8394
  192SAPI   C1322114   4.824   2.153   2.273  0.3528  0.2484 -0.1536
  192SAPI    H322115   4.878   2.228   2.336  1.0068  0.6039 -1.1187
  192SAPI    O322116   4.802   2.032   2.342  0.3447  0.2055 -0.3581
  192SAPI   HO322117   4.767   1.967   2.281  1.0047 -0.2304 -0.2818
  192SAPI   C1422118   4.695   2.208   2.222 -0.5740  0.1857  0.3845
  192SAPI    H422119   4.641   2.128   2.167  1.2115  1.0077 -2.7827
  192SAPI    O422120   4.601   2.252   2.321 -0.0870 -0.6566  0.2007
  192SAPI   HO422121   4.543   2.177   2.337 -0.1134 -1.4554 -3.0053
  192SAPI   C1522122   4.704   2.322   2.121 -0.2585 -0.0155  0.7223
  192SAPI    H522123   4.736   2.412   2.178 -0.6862  0.7008 -0.1389
  192SAPI    O522124   4.578   2.339   2.056  0.1889  0.0952  0.1739
  192SAPI   HO522125   4.508   2.284   2.091 -0.8045  0.1915 -1.5665
  192SAPI   C1622126   4.818   2.310   2.019 -0.6779  0.4927  0.3531
  192SAPI    H622127   4.799   2.242   1.934 -1.5012 -2.0249  2.4152
  192SAPI    O622128   4.843   2.436   1.962 -0.3179 -0.1309  0.9828
  192SAPI   HO622129   4.938   2.448   1.970 -0.0571 -1.6310  0.4404
  192SAPI   C1122130   4.942   2.265   2.096 -1.1854  0.0947  0.2170
  192SAPI    H122131   4.950   2.339   2.179  2.2278 -1.9287  1.8938
  192SAPI     P22132   5.179   2.382   2.033 -0.4161 -0.2266  0.4409
  192SAPI   O1322133   5.103   2.506   1.991 -0.3042  0.4945 -0.0995
  192SAPI   O1422134   5.302   2.348   1.957  1.2944 -0.0499 -0.1941
  192SAPI   O1222135   5.065   2.263   2.021 -0.8028  0.1460  0.4527
  192SAPI   O1122136   5.210   2.382   2.186 -0.2597  0.0932  0.0158
  192SAPI    C122137   5.320   2.300   2.221 -0.2438  0.2689  0.4021
  192SAPI    HA22138   5.311   2.197   2.181 -1.2674  0.3487  0.4057
  192SAPI    HB22139   5.415   2.342   2.181  0.0158  0.7536  1.5035
  192SAPI    C222140   5.348   2.302   2.372  0.1729  0.6073  0.6234
  192SAPI    HS22141   5.429   2.229   2.394  0.6816  1.2631  0.9586
  192SAPI   O2122142   5.237   2.273   2.452 -0.7361 -0.0492  0.1367
  192SAPI   C2122143   5.208   2.142   2.459 -0.3409 -0.3440  0.1108
  192SAPI   O2222144   5.266   2.047   2.411  0.1917  0.1237  0.2159
  192SAPI   C2222145   5.087   2.127   2.554 -0.5981 -0.5569  0.9307
  192SAPI   H2R22146   5.051   2.223   2.599 -2.0874 -1.3432  1.4895
  192SAPI   H2S22147   5.002   2.090   2.492 -1.8577  1.1081  1.5622
  192SAPI    C322148   5.406   2.439   2.413 -0.2298 -0.4907  0.3767
  192SAPI    HX22149   5.324   2.511   2.393 -1.3698 -1.2507  2.0709
  192SAPI    HY22150   5.489   2.452   2.340 -0.2687  0.7783  0.5348
  192SAPI   O3122151   5.445   2.437   2.551  0.4515  0.0523 -0.1838
  192SAPI   C3122152   5.360   2.506   2.636  0.6374  0.6248  0.9833
  192SAPI   O3222153   5.248   2.544   2.609  0.2515  0.1600  0.7116
  192SAPI   C3222154   5.419   2.527   2.778  0.1140  0.3829  0.4266
  192SAPI   H2X22155   5.522   2.486   2.775 -0.0285  0.0551 -0.5884
  192SAPI   H2Y22156   5.375   2.444   2.836  0.1363 -0.1862 -0.3579
  192SAPI   C2322157   5.102   2.034   2.676  0.7628 -0.1944  0.3083
  192SAPI   H3R22158   5.148   1.936   2.652 -0.5902 -0.9134  0.5777
  192SAPI   H3S22159   5.005   2.020   2.728  1.3939  3.0821  2.7299
  192SAPI   C2422160   5.189   2.114   2.776  0.0541 -0.6607  0.3249
  192SAPI   H4R22161   5.141   2.213   2.788  0.1410 -0.2681 -2.2052
  192SAPI   H4S22162   5.288   2.132   2.729 -1.2853  0.7822 -2.0674
  192SAPI   C2522163   5.205   2.028   2.904 -0.2330  0.0350  0.7678
  192SAPI   H5R22164   5.265   1.937   2.893  0.3620  0.6405 -1.6400
  192SAPI   C2622165   5.149   2.048   3.026 -0.3082 -0.5108 -0.5351
  192SAPI   H6R22166   5.165   1.968   3.100  1.3019 -0.8234 -1.1629
  192SAPI   C2722167   5.058   2.165   3.063 -0.1738 -0.2129 -0.0538
  192SAPI   H7R22168   4.969   2.114   3.105 -1.1562  2.5731  1.4576
  192SAPI   H7S22169   5.015   2.218   2.976 -2.9399 -0.8693  0.8092
  192SAPI   C2822170   5.118   2.266   3.162  0.5341 -0.3634  0.9713
  192SAPI   H8R22171   5.181   2.342   3.114 -1.0355  1.0070  1.0001
  192SAPI   C2922172   5.099   2.278   3.296  0.0962  0.1905 -0.9381
  192SAPI   H9R22173   5.147   2.362   3.348  0.7145  0.7873 -2.4321
  192SAPI  C21022174   5.021   2.182   3.396 -0.0617 -0.7109 -0.5403
  192SAPI  H10R22175   4.950   2.120   3.338  0.4154 -2.3492  0.5713
  192SAPI  H10S22176   4.951   2.247   3.452  2.1347  1.8571 -0.5531
  192SAPI  C21122177   5.106   2.105   3.487 -0.5271  0.2222  0.5034
  192SAPI  H11R22178   5.105   1.996   3.476 -1.8973 -0.0131  2.3568
  192SAPI  C21222179   5.156   2.158   3.603  0.2851  0.5075 -0.0037
  192SAPI  H12R22180   5.223   2.085   3.652  0.7455  0.0196 -1.3276
  192SAPI  C21322181   5.139   2.289   3.677 -0.1420  1.2177 -0.0441
  192SAPI  H13R22182   5.105   2.368   3.607 -3.3466 -0.2221 -0.2801
  192SAPI  H13S22183   5.241   2.324   3.708  1.1333 -0.4866 -2.0924
  192SAPI  C21422184   5.037   2.275   3.792  0.2483  0.3344  0.1019
  192SAPI  H14R22185   4.941   2.234   3.756  1.4183 -0.8424 -1.8506
  192SAPI  C21522186   5.053   2.301   3.921 -0.6539  0.1241 -0.2596
  192SAPI  H15R22187   4.970   2.287   3.991  1.1718  1.7696  2.4172
  192SAPI  C21622188   5.173   2.355   3.988 -0.5149  0.2749 -0.0440
  192SAPI  H16R22189   5.163   2.464   4.008 -0.2077  0.3420 -0.2393
  192SAPI  H16S22190   5.259   2.340   3.918 -0.0773  1.5442  0.1912
  192SAPI  C21722191   5.187   2.275   4.119 -0.4256  0.1750 -0.1487
  192SAPI  H17R22192   5.184   2.165   4.103  1.9220  0.1523 -0.7052
  192SAPI  H17S22193   5.096   2.293   4.181 -0.6091  1.9306 -0.8719
  192SAPI  C21822194   5.315   2.313   4.197  0.4092  0.1304  0.5603
  192SAPI  H18R22195   5.302   2.403   4.262  1.9350  0.6944  0.1149
  192SAPI  H18S22196   5.400   2.348   4.135  1.5555 -0.8776  1.5146
  192SAPI  C21922197   5.360   2.192   4.282 -0.3893 -0.0429 -0.5038
  192SAPI  H19R22198   5.283   2.150   4.350  1.3830 -2.0339  0.3850
  192SAPI  H19S22199   5.440   2.244   4.339 -0.1381 -0.0382 -0.8499
  192SAPI  C22022200   5.419   2.082   4.195  0.1194 -0.3569  0.2400
  192SAPI  H20R22201   5.337   2.023   4.148 -1.6843  1.7251  0.5822
  192SAPI  H20S22202   5.468   2.010   4.264 -0.9263 -1.8031 -0.4842
  192SAPI  H20T22203   5.472   2.128   4.109 -0.4467  1.7550  0.9484
  192SAPI   C3322204   5.405   2.674   2.828  0.0224 -0.2397  0.0980
  192SAPI   H3X22205   5.310   2.722   2.798 -1.1135 -2.9687 -1.0087
  192SAPI   H3Y22206   5.490   2.724   2.778 -0.2698 -1.9169 -2.2365
  192SAPI   C3422207   5.432   2.682   2.973 -0.7622 -0.4630 -0.2943
  192SAPI   H4X22208   5.464   2.786   2.993  0.5800 -0.8045 -0.5739
  192SAPI   H4Y22209   5.521   2.627   3.009  0.3737  1.6142  0.2210
  192SAPI   C3522210   5.310   2.647   3.058  0.1926  0.9012 -0.2550
  192SAPI   H5X22211   5.299   2.537   3.056 -0.4286  0.8536  2.3586
  192SAPI   H5Y22212   5.229   2.711   3.017 -0.0168  0.6651 -0.2065
  192SAPI   C3622213   5.340   2.672   3.203  0.0026  0.1860  0.3625
  192SAPI   H6X22214   5.409   2.595   3.244 -1.0415 -0.5386  0.8455
  192SAPI   H6Y22215   5.251   2.641   3.263  0.6113  1.7579  2.1576
  192SAPI   C3722216   5.391   2.811   3.221 -0.1588 -0.0245  0.3269
  192SAPI   H7X22217   5.341   2.877   3.148  1.6582 -0.8558 -1.7800
  192SAPI   H7Y22218   5.500   2.816   3.204  0.2876  2.9815  3.0546
  192SAPI   C3822219   5.378   2.864   3.365 -0.4542  0.5595  0.6159
  192SAPI   H8X22220   5.274   2.847   3.401  0.5198 -2.7317  2.3206
  192SAPI   H8Y22221   5.410   2.969   3.355 -1.2657  0.6569 -1.4885
  192SAPI   C3922222   5.474   2.795   3.462  0.0471 -0.7325 -0.5654
  192SAPI   H9X22223   5.580   2.810   3.431  0.2287 -0.8535 -0.0178
  192SAPI   H9Y22224   5.445   2.688   3.453 -0.8672 -0.4203 -1.5560
  192SAPI  C31022225   5.447   2.848   3.609  0.5255  0.0089  0.4927
  192SAPI  H10X22226   5.346   2.824   3.650  1.3968  0.0314  2.8188
  192SAPI  H10Y22227   5.446   2.959   3.607 -2.0929  0.1736  3.3982
  192SAPI  C31122228   5.552   2.818   3.716  0.5894  0.1180 -0.2493
  192SAPI  H11X22229   5.646   2.870   3.687  0.0132  2.2344  1.4843
  192SAPI  H11Y22230   5.576   2.709   3.715  1.5654  0.3081 -2.1666
  192SAPI  C31222231   5.529   2.883   3.853 -0.1271 -0.3006 -0.7080
  192SAPI  H12X22232   5.421   2.885   3.879 -0.1147 -1.2237 -0.5592
  192SAPI  H12Y22233   5.568   2.987   3.847  3.2541 -1.4690 -1.0343
  192SAPI  C31322234   5.615   2.805   3.964 -0.3979  0.0589  0.5290
  192SAPI  H13X22235   5.718   2.813   3.926 -0.5428  2.4242  0.4735
  192SAPI  H13Y22236   5.581   2.699   3.966  0.1266 -0.1068  1.0650
  192SAPI  C31422237   5.592   2.865   4.102 -0.8022  0.3619 -1.2608
  192SAPI  H14X22238   5.618   2.973   4.104  0.3416  0.0922 -0.6260
  192SAPI  H14Y22239   5.672   2.814   4.160 -0.6922  0.5945 -1.2067
  192SAPI  C31522240   5.455   2.832   4.163 -0.1726  0.0292 -0.9898
  192SAPI  H15X22241   5.431   2.725   4.147 -0.7564 -0.7201  3.5720
  192SAPI  H15Y22242   5.385   2.893   4.102  1.0529  1.1232 -1.3486
  192SAPI  C31622243   5.435   2.878   4.311  0.1396 -0.3676 -0.5467
  192SAPI  H16X22244   5.425   2.988   4.313 -2.4490 -0.5528  0.9470
  192SAPI  H16Y22245   5.522   2.864   4.379  0.3624 -1.5079 -1.0480
  192SAPI  C31722246   5.314   2.810   4.386 -0.3489 -0.3969  0.2216
  192SAPI  H17X22247   5.318   2.701   4.367 -1.7333 -0.0787 -2.4338
  192SAPI  H17Y22248   5.226   2.854   4.333 -0.7343 -0.2868  0.9479
  192SAPI  C31822249   5.301   2.850   4.532 -0.4047 -0.2968  0.0753
  192SAPI  H18X22250   5.397   2.857   4.588 -1.2066  1.4880  1.3294
  192SAPI  H18Y22251   5.229   2.779   4.578 -3.0137  2.1704  0.0640
  192SAPI  H18Z22252   5.249   2.948   4.536 -0.6396 -0.3099 -1.9728
  193SOD    SOD22253   6.264   4.590   0.276 -0.0737  0.0184 -0.1866
  194SOD    SOD22254   0.281   5.122   1.872  0.4632  0.0472  0.1572
  195SOD    SOD22255   3.700   5.083   1.863  0.1953 -0.5260  0.4257
  196SOD    SOD22256   4.947   0.856   0.838 -0.1106 -0.5058  0.2543
  197SOD    SOD22257   1.643   2.808   7.909  0.5136  0.2387 -0.0192
  198SOD    SOD22258   0.338   0.201   0.090  0.2664 -0.4236 -0.2445
  199SOD    SOD22259   0.542   1.783   0.073 -0.4672  0.0655  0.0963
  200SOD    SOD22260   4.004   6.149   1.543 -0.0551  0.2706  0.5999
  201SOD    SOD22261   0.145   6.018   6.520 -0.1598  0.2947 -0.4426
  202SOD    SOD22262   2.484   4.541   0.535  0.2787 -0.2508 -0.2487
  203SOD    SOD22263   0.048   2.375   1.539 -0.1791 -0.3627 -0.3019
  204SOD    SOD22264   0.632   1.475   7.114 -0.2040  0.0698  0.1988
  205SOD    SOD22265   1.609   5.818   1.828 -0.2842  0.2086 -0.0627
  206SOD    SOD22266   3.918   0.405   0.322 -0.2702  0.1520 -0.5282
  207SOD    SOD22267   2.494   1.562   0.438 -0.4748  0.1615 -0.0053
  208SOD    SOD22268   4.389   0.777   1.168  0.0842 -0.5582 -0.1464
  209SOD    SOD22269   5.994   4.552   0.884  0.0993  0.1733 -0.0189
  210SOD    SOD22270   1.792   2.810   2.036 -0.2633 -0.0099 -0.6330
  211SOD    SOD22271   2.440   0.920   1.140  0.6972  0.4142 -0.3011
  212SOD    SOD22272   3.420   4.638   0.747  0.1981  0.2308  0.7842
  213SOD    SOD22273   3.048   6.731   2.266 -0.0467  0.4055  0.3237
  214SOD    SOD22274   5.084   3.044   6.811 -0.4915 -0.2901  0.1202
  215SOD    SOD22275   2.667   1.234   7.311 -0.0635 -1.2286 -0.1217
  216SOD    SOD22276   2.939   5.500   6.288 -0.0957  0.4867 -0.0315
  217SOD    SOD22277   3.759   1.628   8.103  0.4809 -0.2574 -0.1138
  218SOD    SOD22278   1.597   0.872   6.910 -0.0420 -0.6102  0.1573
  219SOD    SOD22279   1.228   3.829   6.900  0.0064  0.3494 -0.6240
  220SOD    SOD22280   6.051   5.546   2.113 -0.1900  0.1599 -0.3893
  221SOD    SOD22281   2.382   2.831   7.418 -0.1515 -0.1418 -0.0735
  222SOD    SOD22282   6.395   0.907   6.538 -0.0627  0.2793  0.4224
  223SOD    SOD22283   5.589   2.544   0.889  0.0246  0.6476 -0.2407
  224SOD    SOD22284   6.888   4.254   7.078 -0.3038  0.2346 -0.1007
  225SOD    SOD22285   1.918   3.996   7.459  0.1566  0.3817 -0.0020
  226SOD    SOD22286   1.706   0.160   0.425 -0.8578  0.1508  0.0878
  227SOD    SOD22287   0.698   3.167   7.411  0.0899  0.1006 -0.5832
  228SOD    SOD22288   4.284   3.048   0.452  0.0005 -0.1021  0.2781
  229SOD    SOD22289   1.597   5.571   1.049 -0.0702  0.0487 -0.0842
  230SOD    SOD22290   6.234   0.988   1.052  0.0419  0.7989 -0.1660
  231SOD    SOD22291   4.762   4.481   6.891  0.1305 -0.2985  0.0152
  232SOD    SOD22292   2.720   3.178   1.627  0.2000  0.3346 -0.1002
  233SOD    SOD22293   4.549   3.876   6.131 -0.1651  0.5120  0.0423
  234CLA    CLA22294   3.317   0.419   7.737 -0.3663 -0.2856  0.0664
  235CLA    CLA22295   2.850   3.281   7.863  0.1707  0.1760 -0.2429
  236CLA    CLA22296   6.585   6.320   8.368 -0.1454 -0.2604 -0.0188
  237CLA    CLA22297   4.862   4.738   7.969 -0.2562  0.1322  0.1552
  238CLA    CLA22298   0.868   6.370   8.076  0.1970 -0.1324 -0.0253
  239CLA    CLA22299   6.455   1.789   1.178 -0.3828  0.1140  0.3186
  240CLA    CLA22300   0.544   1.026   0.111  0.0844 -0.0678 -0.2445
  241CLA    CLA22301   4.971   5.904   8.278 -0.1699 -0.0169  0.1706
  242CLA    CLA22302   2.606   2.887   8.013  0.1525 -0.2237 -0.2215
  243CLA    CLA22303   2.488   3.791   1.757  0.1340 -0.2583 -0.0791
  244CLA    CLA22304   4.281   0.063   1.469  0.0302 -0.5364  0.4111
  245CLA    CLA22305   0.891   1.832   0.805  0.1748 -0.0950  0.2960
  246CLA    CLA22306   1.135   4.045   7.575  0.0766  0.3782 -0.1175
  247CLA    CLA22307   1.241   0.710   7.885 -0.2048 -0.0889 -0.1473
  248CLA    CLA22308   5.432   3.578   1.638  0.3050  0.2046 -0.2651
  249CLA    CLA22309   0.954   0.835   0.470  0.3306  0.2376  0.1873
  250CLA    CLA22310   3.449   5.892   0.754  0.1083 -0.0128  0.1475
  251TIP3   OH222311   5.658   4.172   0.921 -0.0750  0.3272 -0.3128
  251TIP3    H122312   5.673   4.264   0.943  2.1831 -0.3107  1.1827
  251TIP3    H222313   5.720   4.153   0.851 -1.5585  0.2539 -1.6729
  252TIP3   OH222314   5.061   5.732   7.024  0.0800  0.7506 -0.5546
  252TIP3    H122315   5.056   5.827   7.031  3.3500  0.8818  3.3776
  252TIP3    H222316   5.144   5.715   6.980  0.5781 -0.2423  0.7304
  253TIP3   OH222317   0.139   2.595   1.555 -0.0394  0.1526 -0.2370
  253TIP3    H122318   0.169   2.652   1.626 -2.3186  1.0366  0.1027
  253TIP3    H222319   0.204   2.606   1.486  0.7520  1.4448  0.6811
  254TIP3   OH222320   3.203   3.284   1.797  0.5957  0.0809 -0.0045
  254TIP3    H122321   3.156   3.354   1.842  2.0343  0.7754  0.4834
  254TIP3    H222322   3.259   3.330   1.734 -0.1946 -0.7875 -1.3958
  255TIP3   OH222323   4.296   4.417   0.706  0.2126  0.4117 -0.1136
  255TIP3    H122324   4.208   4.453   0.706  0.8575  2.0605  0.0278
  255TIP3    H222325   4.313   4.393   0.615 -0.7010 -0.7927  0.0133
  256TIP3   OH222326   1.776   2.380   0.718 -0.1978 -0.9610  0.6031
  256TIP3    H122327   1.711   2.323   0.677  0.8848 -1.2810 -0.7239
  256TIP3    H222328   1.794   2.448   0.653  1.9475 -1.7928  0.2460
  257TIP3   OH222329   5.831   1.666   2.406  0.2909  0.0495  0.8833
  257TIP3    H122330   5.914   1.656   2.453  1.4289  2.4156 -0.4389
  257TIP3    H222331   5.779   1.724   2.461  0.7671  1.0556  0.3023
  258TIP3   OH222332   4.736   3.207   7.629 -0.3798  0.0218  0.2158
  258TIP3    H122333   4.714   3.215   7.722  0.4783 -3.9137  0.9208
  258TIP3    H222334   4.718   3.115   7.608  3.8710 -0.4990 -2.2384
  259TIP3   OH222335   5.109   3.222   1.726 -0.1907  0.4662  0.4485
  259TIP3    H122336   5.166   3.202   1.651 -0.5392  0.2550  0.2338
  259TIP3    H222337   5.062   3.300   1.700 -0.0950  0.5656  0.5726
  260TIP3   OH222338   6.409   2.822   0.765 -0.0392 -0.2559  0.3346
  260TIP3    H122339   6.432   2.810   0.857 -2.2746 -1.0437  0.8548
  260TIP3    H222340   6.485   2.865   0.727  0.4123  1.3811  2.8482
  261TIP3   OH222341   4.102   6.740   6.958 -0.1615 -0.3247 -0.0194
  261TIP3    H122342   4.111   6.803   7.030 -2.4199  1.2244 -0.9820
  261TIP3    H222343   4.090   6.794   6.880 -1.0910 -1.9500 -1.0584
  262TIP3   OH222344   3.824   1.853   8.150 -0.1309  0.0397  0.0150
  262TIP3    H122345   3.863   1.893   8.228 -0.0228 -1.0630  0.5578
  262TIP3    H222346   3.737   1.892   8.144  0.0977  0.6053  0.3183
  263TIP3   OH222347   4.267   1.653   8.357  0.1506 -0.5190 -0.1443
  263TIP3    H122348   4.241   1.658   8.265 -0.5571 -2.0348 -0.0587
  263TIP3    H222349   4.271   1.744   8.386 -2.6426 -0.0822 -0.8613
  264TIP3   OH222350   6.745   5.322   8.276 -0.2296  0.1903  0.0608
  264TIP3    H122351   6.716   5.406   8.313  0.6067 -0.0501  1.3359
  264TIP3    H222352   6.840   5.325   8.282 -0.1306 -0.3805 -0.9889
  265TIP3   OH222353   5.040   5.869   6.179  0.0256  0.5694 -0.3837
  265TIP3    H122354   4.956   5.830   6.154  0.0645  0.0545  0.2475
  265TIP3    H222355   5.097   5.793   6.193  0.0845  0.8277  0.9393
  266TIP3   OH222356   6.213   6.208   6.238 -0.7885 -0.1936 -0.0535
  266TIP3    H122357   6.125   6.185   6.206 -0.4875 -0.0550 -1.0088
  266TIP3    H222358   6.273   6.162   6.179 -0.2158 -0.1447  0.4820
  267TIP3   OH222359   0.543   2.802   1.762  0.7216 -0.0841  0.5800
  267TIP3    H122360   0.502   2.757   1.836  0.9030 -0.0026  0.7311
  267TIP3    H222361   0.542   2.737   1.692 -0.0515  0.0629  0.4490
  268TIP3   OH222362   4.371   5.550   6.417 -0.2369 -0.1899 -0.3217
  268TIP3    H122363   4.427   5.480   6.452  0.2643 -1.2617 -3.0011
  268TIP3    H222364   4.392   5.627   6.470  0.4270 -1.6509  1.6545
  269TIP3   OH222365   2.220   2.974   7.472  0.2016 -0.2971 -0.3086
  269TIP3    H122366   2.138   2.969   7.520  0.5649  0.0851  0.3751
  269TIP3    H222367   2.252   3.063   7.487  0.4271 -0.2372 -1.0927
  270TIP3   OH222368   6.452   1.896   1.523  0.0228 -0.0242 -0.0570
  270TIP3    H122369   6.465   1.987   1.494  0.8633 -0.0713  0.1413
  270TIP3    H222370   6.430   1.849   1.443  0.8635  0.1218 -0.3881
  271TIP3   OH222371   3.483   3.094   1.078 -0.4016 -0.1421 -0.7173
  271TIP3    H122372   3.533   3.111   1.157  0.9351 -0.1994 -1.5296
  271TIP3    H222373   3.401   3.141   1.091  0.0541  0.3598  0.4263
  272TIP3   OH222374   4.076   6.005   8.206 -0.1963  0.2047 -0.2846
  272TIP3    H122375   4.059   5.963   8.122  0.5039  0.4898 -0.5720
  272TIP3    H222376   4.102   6.094   8.184 -0.5534  0.4535  0.2659
  273TIP3   OH222377   3.363   2.657   1.087 -0.5956  0.5838 -0.4994
  273TIP3    H122378   3.379   2.659   1.181  0.1733  1.5655 -0.6291
  273TIP3    H222379   3.308   2.733   1.071 -0.1392  0.8325 -0.9254
  274TIP3   OH222380   5.871   4.197   8.244  0.2518  0.5389 -0.0849
  274TIP3    H122381   5.861   4.290   8.266  0.9109  0.4710  0.5368
  274TIP3    H222382   5.958   4.191   8.205  0.2343  0.1713 -0.0732
  275TIP3   OH222383   1.518   6.376   8.248  0.2669  0.3835 -0.5580
  275TIP3    H122384   1.448   6.441   8.246 -0.5839 -0.3123  2.3054
  275TIP3    H222385   1.566   6.393   8.328  1.0779 -1.4521 -0.5847
  276TIP3   OH222386   6.409   0.757   8.454  0.7473  0.9140  0.5337
  276TIP3    H122387   6.504   0.764   8.461  1.0620 -1.6759 -0.2363
  276TIP3    H222388   6.394   0.685   8.393 -1.7253  1.3517  0.5035
  277TIP3   OH222389   4.307   0.466   1.779  0.0610 -0.0820  0.4435
  277TIP3    H122390   4.228   0.520   1.784 -0.3218 -0.4849 -0.7753
  277TIP3    H222391   4.361   0.494   1.853 -0.4632  1.4255  0.2834
  278TIP3   OH222392   5.899   0.318   8.258  0.4128 -0.2609  0.3240
  278TIP3    H122393   5.823   0.353   8.304  1.2109  0.9230  0.7955
  278TIP3    H222394   5.972   0.329   8.319  1.3860  0.7617 -0.9698
  279TIP3   OH222395   1.692   0.330   8.625 -0.2892 -0.0733  0.1511
  279TIP3    H122396   1.645   0.413   8.636  1.1476  0.8243 -0.1724
  279TIP3    H222397   1.679   0.308   8.533 -0.2309  0.0834  0.1042
  280TIP3   OH222398   0.452   0.865   7.136 -0.6258 -0.2798  0.6841
  280TIP3    H122399   0.533   0.814   7.139 -1.5057 -1.8887 -0.5986
  280TIP3    H222400   0.479   0.954   7.118  0.8654 -0.7845  0.3084
  281TIP3   OH222401   3.047   4.083   8.077 -0.2584 -0.5764  0.1499
  281TIP3    H122402   3.034   4.141   8.003  1.1064 -0.7660 -0.2697
  281TIP3    H222403   3.113   4.127   8.131 -2.4840  0.4417  2.2504
  282TIP3   OH222404   1.235   3.617   7.011  0.2210 -0.1341  0.3523
  282TIP3    H122405   1.164   3.557   7.031  0.8001 -0.3441  1.9388
  282TIP3    H222406   1.314   3.571   7.039  0.9349  0.3647 -0.7524
  283TIP3   OH222407   1.714   1.348   0.421  0.1239  0.4190  0.0255
  283TIP3    H122408   1.810   1.348   0.423  0.2131  2.5663 -1.1093
  283TIP3    H222409   1.692   1.366   0.330 -1.4013 -0.7698  0.1261
  284TIP3   OH222410   2.173   3.339   0.675 -0.3599 -0.0940 -0.5191
  284TIP3    H122411   2.086   3.301   0.660 -0.6775 -0.7455  2.3489
  284TIP3    H222412   2.156   3.421   0.721  0.5327  0.0466 -0.4273
  285TIP3   OH222413   5.720   1.394   8.549 -1.1080  0.4144  0.6417
  285TIP3    H122414   5.805   1.379   8.591 -0.0283  0.1370 -1.5184
  285TIP3    H222415   5.698   1.311   8.507  0.4333  1.8956 -3.6335
  286TIP3   OH222416   5.616   4.977   0.637  0.4150  0.8409  0.0898
  286TIP3    H122417   5.576   5.050   0.683 -0.9139  0.6354 -0.6876
  286TIP3    H222418   5.544   4.937   0.588  1.8476  1.6373 -2.9460
  287TIP3   OH222419   2.379   6.497   7.885 -0.2303  0.3788  0.1365
  287TIP3    H122420   2.337   6.542   7.958 -0.3424  1.8190 -0.7639
  287TIP3    H222421   2.471   6.488   7.913 -0.6501 -0.8297  1.2156
  288TIP3   OH222422   2.168   1.847   7.887  0.0835 -0.2172 -0.4207
  288TIP3    H122423   2.091   1.883   7.842  0.4035  2.1329  0.7651
  288TIP3    H222424   2.194   1.915   7.948  1.3901 -2.1394  1.3008
  289TIP3   OH222425   2.969   6.165   1.116 -0.0984  0.1108 -0.2837
  289TIP3    H122426   2.997   6.159   1.207  2.2988 -0.2006 -0.9614
  289TIP3    H222427   2.885   6.211   1.119 -0.4836 -0.6367  2.1178
  290TIP3   OH222428   5.820   1.534   7.745  0.0286  0.0578  0.1506
  290TIP3    H122429   5.885   1.537   7.674 -0.2219 -1.5868 -0.1882
  290TIP3    H222430   5.738   1.514   7.701 -0.1775 -0.7276  0.8731
  291TIP3   OH222431   4.283   3.814   8.456  0.3747 -0.3153  0.0222
  291TIP3    H122432   4.262   3.798   8.364  0.4966  0.2339 -0.1054
  291TIP3    H222433   4.374   3.783   8.465  0.0332 -1.3202  0.2177
  292TIP3   OH222434   0.401   6.721   2.345  0.0955  0.1953  0.6425
  292TIP3    H122435   0.466   6.783   2.378 -0.0647 -0.0799  1.4804
  292TIP3    H222436   0.425   6.637   2.383  1.1956 -0.6056 -1.6593
  293TIP3   OH222437   6.535   5.752   6.333 -0.2633  0.0701  0.0509
  293TIP3    H122438   6.593   5.768   6.407  1.0790  1.0978 -1.1661
  293TIP3    H222439   6.590   5.707   6.268 -1.4114 -0.8420 -0.3452
  294TIP3   OH222440   4.158   1.300   0.525  0.7452 -0.9798 -0.1911
  294TIP3    H122441   4.109   1.353   0.463  0.3714 -0.7608  0.2806
  294TIP3    H222442   4.210   1.240   0.471  0.9784 -0.3090 -0.7208
  295TIP3   OH222443   4.105   2.831   6.184 -0.3474  0.8103 -1.2378
  295TIP3    H122444   4.143   2.919   6.174  0.9654  0.6363  1.3316
  295TIP3    H222445   4.012   2.843   6.164  0.1030  2.3561 -2.7018
  296TIP3   OH222446   2.342   0.966   0.204 -0.2676  0.2374 -0.0366
  296TIP3    H122447   2.259   0.922   0.189  0.7136 -2.1014  0.8676
  296TIP3    H222448   2.376   0.986   0.117 -1.8333  1.4417 -0.4078
  297TIP3   OH222449   4.408   1.796   7.947 -0.4688 -0.3637 -0.2719
  297TIP3    H122450   4.361   1.821   7.867  1.4634  0.8602 -1.1104
  297TIP3    H222451   4.396   1.702   7.953 -1.8277 -0.2820 -1.2269
  298TIP3   OH222452   5.870   4.899   0.554 -0.2711 -0.1798 -0.1118
  298TIP3    H122453   5.786   4.939   0.577 -0.6022 -0.7858 -0.2526
  298TIP3    H222454   5.913   4.965   0.499  0.7454  1.5082  2.5046
  299TIP3   OH222455   3.680   3.572   8.555 -0.4047 -0.5472 -0.2302
  299TIP3    H122456   3.673   3.659   8.594 -0.9610 -0.8336  0.3377
  299TIP3    H222457   3.739   3.524   8.613 -1.2763 -0.9923  0.3042
  300TIP3   OH222458   5.665   4.470   2.012  0.0567  0.1299  0.1186
  300TIP3    H122459   5.683   4.382   1.979  0.3979  0.9056 -1.9461
  300TIP3    H222460   5.735   4.524   1.976 -0.8434  1.4565  0.2778
  301TIP3   OH222461   6.405   4.030   8.327 -0.2044  0.3050  0.2783
  301TIP3    H122462   6.370   3.963   8.268  0.7958  0.9990 -1.1782
  301TIP3    H222463   6.498   4.034   8.306  0.3920 -0.1167  2.6611
  302TIP3   OH222464   4.561   4.550   2.685  0.4938 -0.1057 -0.0745
  302TIP3    H122465   4.624   4.603   2.637  1.7285 -1.2572  0.2048
  302TIP3    H222466   4.597   4.461   2.682  0.1771 -0.3743  2.2206
  303TIP3   OH222467   2.340   1.310   1.833 -0.6868 -0.3669  0.8404
  303TIP3    H122468   2.387   1.318   1.917 -2.7797 -0.0274  2.0363
  303TIP3    H222469   2.386   1.239   1.788  0.5339 -0.5338  2.2325
  304TIP3   OH222470   3.621   4.734   8.367 -0.7378  0.2372 -0.3593
  304TIP3    H122471   3.649   4.723   8.277 -1.4011  0.5122 -0.6079
  304TIP3    H222472   3.667   4.812   8.398  0.6313 -0.6840  0.0284
  305TIP3   OH222473   5.452   4.924   0.415 -0.1923  0.5817 -0.5285
  305TIP3    H122474   5.377   4.970   0.377 -1.2014 -0.7946 -0.3026
  305TIP3    H222475   5.453   4.840   0.370  1.4273  0.6890 -0.7293
  306TIP3   OH222476   1.948   0.855   7.087  0.2703  0.1420 -0.0530
  306TIP3    H122477   1.962   0.945   7.117  1.3376 -0.5445  1.6730
  306TIP3    H222478   2.029   0.832   7.040  0.5087 -0.3008  0.5631
  307TIP3   OH222479   3.547   3.505   7.464  0.2706  0.1103  0.5128
  307TIP3    H122480   3.531   3.493   7.558 -0.9446  1.7004  0.5375
  307TIP3    H222481   3.503   3.430   7.423  2.3478 -1.6408  1.2450
  308TIP3   OH222482   3.154   6.202   7.808 -0.7053  0.2880  0.2784
  308TIP3    H122483   3.159   6.107   7.798  0.4466  0.5006 -1.9098
  308TIP3    H222484   3.211   6.221   7.882  1.1781 -0.5807 -0.8592
  309TIP3   OH222485   6.803   0.016   7.910 -0.8003  0.0447 -0.0728
  309TIP3    H122486   6.776  -0.049   7.845 -2.2002 -0.1886  0.7104
  309TIP3    H222487   6.759   0.096   7.884  1.9826  1.1595 -1.8360
  310TIP3   OH222488   2.352   0.481   1.499 -0.1946 -0.3262 -0.0204
  310TIP3    H122489   2.353   0.388   1.521  1.2881 -0.1280  0.9069
  310TIP3    H222490   2.272   0.515   1.538 -0.5771 -1.1372 -0.0768
  311TIP3   OH222491   3.615   6.502   2.603 -0.1189 -0.0617  0.1440
  311TIP3    H122492   3.602   6.407   2.598  0.0089 -0.1136  0.7056
  311TIP3    H222493   3.529   6.539   2.581 -0.4800 -0.3408  1.0247
  312TIP3   OH222494   4.053   6.116   1.320 -0.7666 -0.3582  0.1881
  312TIP3    H122495   4.002   6.062   1.260 -1.4605  0.9823 -0.4667
  312TIP3    H222496   4.135   6.133   1.273 -1.9080  1.9761 -1.1510
  313TIP3   OH222497   4.235   1.713   0.689 -0.6024 -0.0457  0.0264
  313TIP3    H122498   4.221   1.798   0.647 -0.4965 -0.4712 -0.8850
  313TIP3    H222499   4.313   1.677   0.646 -2.3684 -1.9367 -1.8230
  314TIP3   OH222500   1.046   2.171   1.107 -0.6414 -0.2276  0.3644
  314TIP3    H122501   1.013   2.082   1.116  1.0626 -0.8838  0.6174
  314TIP3    H222502   1.001   2.221   1.174 -0.2167 -1.3542  1.5274
  315TIP3   OH222503   0.656   3.458   0.324 -0.1106 -0.0735  1.0654
  315TIP3    H122504   0.658   3.379   0.377  0.1644 -0.0121  1.1479
  315TIP3    H222505   0.566   3.490   0.332 -0.2945 -0.5293  0.8048
  316TIP3   OH222506   2.572   3.701   8.580  0.6785 -0.6038 -0.4244
  316TIP3    H122507   2.517   3.779   8.591  0.7126 -0.7818  1.1389
  316TIP3    H222508   2.624   3.720   8.502  2.3259  1.9755  1.1380
  317TIP3   OH222509   1.006   3.801   0.732  0.1711  0.9304 -0.7058
  317TIP3    H122510   1.023   3.776   0.641  2.4103  1.2600 -0.4189
  317TIP3    H222511   0.923   3.849   0.727  0.0151  0.5760 -2.4962
  318TIP3   OH222512   5.708   2.224   7.173 -0.5689  0.0872  0.2784
  318TIP3    H122513   5.679   2.141   7.135 -0.3843  0.2087 -0.1345
  318TIP3    H222514   5.744   2.200   7.258  1.0767 -0.5275 -0.5307
  319TIP3   OH222515   0.199   6.276   7.740  0.7472  0.2872 -0.1176
  319TIP3    H122516   0.103   6.271   7.738  0.6107  2.0944 -0.0714
  319TIP3    H222517   0.220   6.351   7.684  2.1606 -0.2224 -0.3064
  320TIP3   OH222518   1.375   0.807   1.877 -0.1629 -0.1612 -0.1818
  320TIP3    H122519   1.368   0.730   1.934 -1.7959 -0.1068 -0.2418
  320TIP3    H222520   1.403   0.878   1.934  0.1253 -0.5260  0.1325
  321TIP3   OH222521   0.150   5.842   1.772 -0.0413  0.3354 -0.5099
  321TIP3    H122522   0.242   5.866   1.760  0.1595 -0.6475 -1.0320
  321TIP3    H222523   0.150   5.781   1.845 -0.4724  1.3897  0.4034
  322TIP3   OH222524   3.623   6.364   8.416  0.4791 -0.6196  1.1381
  322TIP3    H122525   3.709   6.405   8.400 -0.7036  1.8816  0.7583
  322TIP3    H222526   3.602   6.388   8.506 -0.1918 -0.4780  0.9467
  323TIP3   OH222527   2.459   1.958   7.083 -0.2543  0.0406 -0.5853
  323TIP3    H122528   2.439   1.876   7.037 -0.4273  0.8785 -2.0833
  323TIP3    H222529   2.546   1.943   7.121 -1.1886 -1.5794  1.0346
  324TIP3   OH222530   0.499   5.033   1.884  0.3857 -0.3525 -0.2958
  324TIP3    H122531   0.500   4.947   1.928 -0.2557  0.1497  0.7583
  324TIP3    H222532   0.575   5.032   1.827  1.2798 -1.0477  0.8534
  325TIP3   OH222533   1.503   6.884   0.033  0.6349  0.1243 -0.7452
  325TIP3    H122534   1.440   6.830   0.082  1.3019 -1.0054 -1.0840
  325TIP3    H222535   1.465   6.972   0.033 -0.7473 -0.4463 -0.5983
  326TIP3   OH222536   1.080   2.984   1.275  0.0696  0.1674  0.2641
  326TIP3    H122537   1.057   3.053   1.337 -0.1177  0.8368 -0.5228
  326TIP3    H222538   1.037   3.010   1.193 -0.9985 -1.4946  0.2413
  327TIP3   OH222539   6.766   2.507   0.115  0.2679 -0.0158 -0.3108
  327TIP3    H122540   6.824   2.573   0.152 -0.1600 -0.2903  0.9035
  327TIP3    H222541   6.683   2.553   0.102 -0.3639 -0.5573  1.5863
  328TIP3   OH222542   0.686   2.362   7.527  0.3674 -0.5477  0.2273
  328TIP3    H122543   0.645   2.318   7.602  1.6287 -0.9940  0.6735
  328TIP3    H222544   0.737   2.433   7.566 -0.4503  0.4074 -0.3806
  329TIP3   OH222545   4.133   5.042   1.517  0.2987 -0.5567 -0.1380
  329TIP3    H122546   4.144   4.952   1.486 -1.4908 -0.8721  0.0600
  329TIP3    H222547   4.046   5.044   1.557  0.7690  0.9794  0.8954
  330TIP3   OH222548   2.639   4.611   7.599  0.1259 -0.2157  0.3175
  330TIP3    H122549   2.716   4.555   7.586  0.1097 -0.3907  0.9424
  330TIP3    H222550   2.573   4.552   7.635  0.4462  0.3998  2.0292
  331TIP3   OH222551   3.561   6.451   1.722 -0.1786 -0.0579  0.1499
  331TIP3    H122552   3.598   6.485   1.641 -0.0669 -1.0225 -0.2131
  331TIP3    H222553   3.629   6.392   1.757 -0.7829 -0.7370  0.2094
  332TIP3   OH222554   0.355   1.858   1.758 -0.4495 -0.0516 -0.8462
  332TIP3    H122555   0.292   1.899   1.817 -1.3311 -0.2506 -1.6369
  332TIP3    H222556   0.426   1.830   1.816 -0.5792  1.1221 -0.0818
  333TIP3   OH222557   1.978   5.493   8.233 -0.5147  0.1923  0.1311
  333TIP3    H122558   1.913   5.561   8.213 -1.3253 -0.6409 -0.1532
  333TIP3    H222559   2.039   5.535   8.293 -0.7044  1.3320 -0.4503
  334TIP3   OH222560   1.413   5.475   1.724 -0.6492 -0.4165  0.0279
  334TIP3    H122561   1.456   5.552   1.763  0.5174 -1.0028 -0.0431
  334TIP3    H222562   1.328   5.470   1.768  0.0591 -0.2349  1.4976
  335TIP3   OH222563   3.585   5.129   6.393 -0.4456  0.4063 -0.2308
  335TIP3    H122564   3.597   5.044   6.436 -0.6627  0.8004  0.6327
  335TIP3    H222565   3.654   5.185   6.431  0.2746  0.3881 -1.4513
  336TIP3   OH222566   6.603   1.892   7.177  0.3307 -0.2706  0.3007
  336TIP3    H122567   6.513   1.921   7.189  0.6190  0.4447  0.7506
  336TIP3    H222568   6.616   1.895   7.082 -0.9142 -2.8382 -0.0489
  337TIP3   OH222569   1.995   2.598   0.279 -0.0484 -0.3647 -0.0432
  337TIP3    H122570   2.062   2.633   0.222  0.8540 -0.2850  1.0366
  337TIP3    H222571   2.009   2.503   0.278 -1.5836 -0.6348 -1.8336
  338TIP3   OH222572   4.712   5.005   0.608  0.5783 -0.2078  0.3433
  338TIP3    H122573   4.630   4.990   0.561  0.7658 -0.7099  0.1748
  338TIP3    H222574   4.760   5.068   0.554  0.4668 -0.1992  0.2533
  339TIP3   OH222575   0.814   3.772   7.174 -0.3279  0.2419 -0.5878
  339TIP3    H122576   0.850   3.842   7.228  0.0067  1.6628 -2.5341
  339TIP3    H222577   0.723   3.796   7.161 -0.8610 -0.9737  0.6348
  340TIP3   OH222578   2.647   4.355   6.465  0.0939  0.6729  0.2608
  340TIP3    H122579   2.679   4.265   6.461  0.1447  0.6517  0.9684
  340TIP3    H222580   2.724   4.410   6.452 -0.1120  0.6243 -1.3151
  341TIP3   OH222581   5.917   4.034   7.192 -0.4875  0.4421 -0.6827
  341TIP3    H122582   5.903   3.939   7.190 -0.3575  0.3973  0.2999
  341TIP3    H222583   6.005   4.046   7.154 -0.6170  0.2001 -1.0654
  342TIP3   OH222584   5.242   0.163   8.212 -0.2530  1.0857 -0.0216
  342TIP3    H122585   5.324   0.114   8.222 -2.1386 -2.0297  2.1268
  342TIP3    H222586   5.226   0.200   8.299 -1.2758  1.3366 -0.3049
  343TIP3   OH222587   1.651   1.358   6.843 -0.0649 -0.1404 -0.0002
  343TIP3    H122588   1.613   1.423   6.783  0.5013  0.2429  0.0551
  343TIP3    H222589   1.738   1.341   6.808  0.7328  0.9576  1.3560
  344TIP3   OH222590   3.752   2.158   2.299 -0.3802  0.0983  0.2936
  344TIP3    H122591   3.832   2.180   2.346 -0.6284  2.7398 -0.3654
  344TIP3    H222592   3.705   2.099   2.358  1.6743 -0.8928  1.0086
  345TIP3   OH222593   2.739   0.470   6.953  0.6478  0.1006 -0.6675
  345TIP3    H122594   2.755   0.557   6.988 -1.6911  0.3692 -0.0667
  345TIP3    H222595   2.698   0.485   6.869 -2.6191 -0.2092  0.7131
  346TIP3   OH222596   1.327   5.851   7.019  0.2174  0.3154  0.7985
  346TIP3    H122597   1.394   5.797   6.976 -0.7831 -0.2129 -0.1573
  346TIP3    H222598   1.375   5.927   7.051  1.4370 -0.5001  0.9893
  347TIP3   OH222599   5.388   3.968   1.284 -0.3661 -0.8046  0.4623
  347TIP3    H122600   5.329   3.912   1.235 -0.2409 -0.0658 -0.5665
  347TIP3    H222601   5.414   3.915   1.360 -0.1161 -2.1985 -0.5567
  348TIP3   OH222602   3.559   0.605   8.212  0.1799 -0.1246  0.0320
  348TIP3    H122603   3.597   0.654   8.285  0.0135  1.7110 -1.0443
  348TIP3    H222604   3.592   0.516   8.222  2.1656  0.6734  0.9383
  349TIP3   OH222605   3.789   5.266   8.439  0.1264 -0.0842  0.2027
  349TIP3    H122606   3.811   5.328   8.508  0.0263 -0.2353  0.3691
  349TIP3    H222607   3.704   5.295   8.407 -0.1617 -0.4475  0.6356
  350TIP3   OH222608   1.468   5.470   0.883 -0.7025 -0.1773  0.0379
  350TIP3    H122609   1.376   5.444   0.880 -0.8512  0.4262 -1.6988
  350TIP3    H222610   1.510   5.418   0.814  0.0440  0.3178  0.1112
  351TIP3   OH222611   5.640   5.606   0.568  0.0412 -0.0618 -0.0111
  351TIP3    H122612   5.709   5.659   0.609  3.0954 -3.5756 -0.1382
  351TIP3    H222613   5.619   5.653   0.487  1.5470  1.6597  0.5303
  352TIP3   OH222614   6.840   4.373   8.552  0.5361  0.0626  0.1901
  352TIP3    H122615   6.834   4.413   8.465  0.5969 -0.5895 -0.1154
  352TIP3    H222616   6.773   4.305   8.553  0.2793  0.3100  0.7934
  353TIP3   OH222617   5.067   6.718   1.519  0.0207 -0.1965 -0.2883
  353TIP3    H122618   5.107   6.777   1.456 -0.5788  0.2851 -0.2207
  353TIP3    H222619   5.142   6.674   1.561  0.4359 -0.1461 -0.9617
  354TIP3   OH222620   0.470   1.395   0.233 -0.9689 -0.0671 -0.1910
  354TIP3    H122621   0.543   1.342   0.265  0.0097  0.6749 -1.0650
  354TIP3    H222622   0.428   1.341   0.166 -1.1928 -0.4897  0.2961
  355TIP3   OH222623   5.916   1.878   7.955 -0.2625 -0.2847  0.0728
  355TIP3    H122624   5.894   1.950   8.013 -0.7656 -0.5692  0.2448
  355TIP3    H222625   6.003   1.849   7.983  0.1763  0.5943 -0.3487
  356TIP3   OH222626   2.637   5.525   1.082  0.3658  0.0185 -0.0737
  356TIP3    H122627   2.730   5.515   1.060  0.6040 -0.5942  1.1369
  356TIP3    H222628   2.634   5.604   1.137  0.4885 -1.0334  1.5025
  357TIP3   OH222629   4.809   1.235   0.756 -0.1249  0.7244  0.3126
  357TIP3    H122630   4.890   1.262   0.800  1.6260 -0.9509 -1.6310
  357TIP3    H222631   4.802   1.294   0.681 -0.8691  1.0255  0.6147
  358TIP3   OH222632   3.168   1.050   8.277 -0.6465 -0.1135 -0.1297
  358TIP3    H122633   3.261   1.038   8.259 -1.1312 -1.7907 -1.7579
  358TIP3    H222634   3.135   0.962   8.296 -1.4074  0.7407  3.4482
  359TIP3   OH222635   6.552   3.838   8.003  0.1430 -0.2525  0.8836
  359TIP3    H122636   6.520   3.914   7.954 -1.9588 -1.0657  0.8560
  359TIP3    H222637   6.639   3.821   7.968  0.3771  1.6723  0.3788
  360TIP3   OH222638   2.162   3.097   1.183  0.7205 -0.2628 -0.0631
  360TIP3    H122639   2.116   3.013   1.195 -2.1188  1.2114  0.3738
  360TIP3    H222640   2.172   3.105   1.088  2.1289 -1.5855 -0.0652
  361TIP3   OH222641   3.168   0.755   1.384  0.7123 -0.2099  0.3428
  361TIP3    H122642   3.207   0.712   1.308  1.2821  0.7150  0.0968
  361TIP3    H222643   3.244   0.778   1.439  0.3665 -0.1205  0.7886
  362TIP3   OH222644   5.220   0.550   0.509 -0.0112  0.2836  0.1882
  362TIP3    H122645   5.276   0.594   0.445 -0.7546  0.2979 -0.4720
  362TIP3    H222646   5.142   0.525   0.459 -0.9731  1.0185  1.2628
  363TIP3   OH222647   6.302   2.862   1.431  0.3833  0.0221  0.1973
  363TIP3    H122648   6.386   2.901   1.453  0.6958  0.2353 -1.2743
  363TIP3    H222649   6.298   2.782   1.483  1.8594 -0.4027 -0.3127
  364TIP3   OH222650   6.090   2.332   7.142 -0.2362  0.0542  0.5547
  364TIP3    H122651   6.180   2.364   7.142 -0.1979 -0.0112  1.5689
  364TIP3    H222652   6.067   2.327   7.235 -1.4760  0.6051  0.2908
  365TIP3   OH222653   0.994   5.895   1.356  0.4124  0.4167 -0.9124
  365TIP3    H122654   0.981   5.971   1.299 -0.2933  1.5863  0.7219
  365TIP3    H222655   0.913   5.845   1.349  0.6638  0.0857 -1.5690
  366TIP3   OH222656   4.164   3.443   8.167 -0.0858  0.1544  0.2779
  366TIP3    H122657   4.237   3.404   8.214 -0.3654  0.4446  0.9702
  366TIP3    H222658   4.090   3.385   8.184 -0.2947  0.5023  0.5836
  367TIP3   OH222659   2.069   6.399   7.792  0.0984 -1.0771 -0.3178
  367TIP3    H122660   2.087   6.426   7.702  0.4867  0.1047  0.1021
  367TIP3    H222661   1.981   6.432   7.810  0.5206 -0.1939  0.1537
  368TIP3   OH222662   4.193   1.322   0.084  0.2003  0.1933 -0.0824
  368TIP3    H122663   4.184   1.413   0.112  1.2061 -0.0106  0.9582
  368TIP3    H222664   4.284   1.316   0.053 -0.7339  0.3435 -3.2552
  369TIP3   OH222665   4.011   0.172   6.965 -0.7061  1.0265  0.3532
  369TIP3    H122666   3.969   0.111   7.026  1.2818 -1.2093 -0.3440
  369TIP3    H222667   4.029   0.250   7.018 -0.8111 -0.0850  2.0953
  370TIP3   OH222668   4.308   6.164   7.892  0.4500 -0.0938 -0.2170
  370TIP3    H122669   4.263   6.129   7.815  1.8696 -2.5087 -0.0585
  370TIP3    H222670   4.238   6.197   7.948 -0.8108 -0.5110 -1.4931
  371TIP3   OH222671   2.587   0.269   1.393  0.5081  0.5355  0.2441
  371TIP3    H122672   2.513   0.215   1.421 -0.2458  0.6577 -1.3862
  371TIP3    H222673   2.656   0.250   1.457 -0.3321 -0.9627  0.7714
  372TIP3   OH222674   6.160   5.091   0.421  0.4362 -0.2592  0.4180
  372TIP3    H122675   6.070   5.119   0.410  0.2878  0.0506  2.1748
  372TIP3    H222676   6.171   5.079   0.515  3.0992  2.7908  0.6897
  373TIP3   OH222677   6.607   6.588   7.250  0.1923 -0.1745  0.3138
  373TIP3    H122678   6.617   6.583   7.345 -0.2993 -0.3312  0.3577
  373TIP3    H222679   6.593   6.498   7.222  0.5844 -0.1613  0.0605
  374TIP3   OH222680   3.293   0.250   7.232 -0.5459 -0.1074  0.2944
  374TIP3    H122681   3.307   0.202   7.150  1.0090 -0.0568  0.5019
  374TIP3    H222682   3.353   0.209   7.294  1.2593  2.3784  0.3381
  375TIP3   OH222683   4.510   3.470   0.707  0.2699  0.0863  0.1808
  375TIP3    H122684   4.486   3.407   0.775 -0.2399  0.2244  0.1301
  375TIP3    H222685   4.603   3.454   0.692  0.1608 -0.6226  0.2073
  376TIP3   OH222686   4.181   3.781   6.923  0.0310  0.1372 -0.1091
  376TIP3    H122687   4.141   3.820   7.000 -1.3679  0.0423 -0.7544
  376TIP3    H222688   4.184   3.852   6.858  0.6802  0.0703 -0.1621
  377TIP3   OH222689   3.391   3.045   1.805 -0.2366 -0.0610 -0.4513
  377TIP3    H122690   3.417   3.039   1.896 -0.7801 -2.2021 -0.3821
  377TIP3    H222691   3.325   3.114   1.803 -0.6350 -0.3833  0.8852
  378TIP3   OH222692   0.819   5.505   7.988  0.2139  0.8109 -0.0404
  378TIP3    H122693   0.729   5.538   7.997 -0.0181 -0.1115  1.2664
  378TIP3    H222694   0.825   5.478   7.897 -1.3404 -0.4891  0.1930
  379TIP3   OH222695   6.580   1.803   8.044  0.5140 -0.3035 -0.1950
  379TIP3    H122696   6.541   1.889   8.061 -2.5279 -1.7377  0.7601
  379TIP3    H222697   6.673   1.816   8.059 -0.0885  2.3159  2.1758
  380TIP3   OH222698   2.671   5.781   1.224  0.5681  0.3984 -0.0936
  380TIP3    H122699   2.640   5.841   1.156  1.8660 -1.0022 -2.0534
  380TIP3    H222700   2.766   5.792   1.225  0.5868  0.2422  1.3838
  381TIP3   OH222701   4.154   3.029   0.251  0.1570  0.5595 -0.1457
  381TIP3    H122702   4.225   3.018   0.189 -0.6794  1.4797 -1.3016
  381TIP3    H222703   4.121   2.940   0.265  0.1880  0.3718 -1.2260
  382TIP3   OH222704   5.402   1.697   1.291  0.2281  0.4928 -0.5588
  382TIP3    H122705   5.323   1.649   1.265  0.7987 -0.7978 -0.0190
  382TIP3    H222706   5.450   1.710   1.210 -0.2342  0.7015 -0.8023
  383TIP3   OH222707   4.983   3.257   0.723  0.1389 -0.2353  0.1183
  383TIP3    H122708   5.038   3.184   0.754  0.1201 -1.2010 -1.9242
  383TIP3    H222709   4.928   3.279   0.798  0.6375 -1.8490  1.0189
  384TIP3   OH222710   4.972   5.612   0.549  0.0390 -0.8454  0.5771
  384TIP3    H122711   4.899   5.665   0.581 -1.9984 -2.7676 -0.6469
  384TIP3    H222712   5.042   5.627   0.614 -1.6326  0.5048  2.1975
  385TIP3   OH222713   2.875   3.300   1.758 -0.0521  0.3450  0.4312
  385TIP3    H122714   2.877   3.329   1.849  1.0240  1.1167  0.1758
  385TIP3    H222715   2.923   3.367   1.710 -0.3070 -0.2268 -0.6614
  386TIP3   OH222716   1.519   0.573   1.106  0.0421 -0.3571  0.6477
  386TIP3    H122717   1.560   0.492   1.137 -0.2331 -0.4548  0.7549
  386TIP3    H222718   1.426   0.561   1.123 -0.3961 -1.2159 -1.8835
  387TIP3   OH222719   3.765   4.114   6.943  0.2773 -0.6185  0.0321
  387TIP3    H122720   3.734   4.034   6.900 -1.3444 -0.0055 -0.0312
  387TIP3    H222721   3.714   4.184   6.902  1.6108  0.4615  0.1277
  388TIP3   OH222722   1.792   0.040   8.343  0.3537 -0.2267 -0.0940
  388TIP3    H122723   1.699   0.054   8.358  0.5065  0.0322  0.6430
  388TIP3    H222724   1.809   0.083   8.259 -0.1004  0.1060 -0.0224
  389TIP3   OH222725   2.783   6.383   1.492  0.4441 -0.3046 -0.0098
  389TIP3    H122726   2.717   6.321   1.522  0.8754 -0.7699 -0.0122
  389TIP3    H222727   2.867   6.338   1.506  0.8008  0.5113  0.5662
  390TIP3   OH222728   2.645   0.860   0.458  0.9903  0.2949  0.6544
  390TIP3    H122729   2.574   0.832   0.515 -0.2744  0.6767 -0.6762
  390TIP3    H222730   2.724   0.853   0.512  0.0048 -0.5309  2.0338
  391TIP3   OH222731   5.219   5.799   7.298  0.1595 -0.1457 -0.0859
  391TIP3    H122732   5.128   5.797   7.268 -0.4181 -0.6475  1.5542
  391TIP3    H222733   5.247   5.707   7.294  0.7402  0.0640 -0.9653
  392TIP3   OH222734   6.868   5.689   0.740  0.1721  0.1385 -0.0624
  392TIP3    H122735   6.948   5.741   0.744  0.2229  0.1724 -1.1520
  392TIP3    H222736   6.881   5.620   0.805  0.7526  0.5984  0.3179
  393TIP3   OH222737   4.242   2.904   2.169 -0.5515 -0.3902 -0.9680
  393TIP3    H122738   4.173   2.948   2.218 -0.9345 -1.1154 -0.8385
  393TIP3    H222739   4.237   2.813   2.198  2.1597 -0.0382  1.0593
  394TIP3   OH222740   6.548   2.601   1.430  0.2138 -0.2169  0.1596
  394TIP3    H122741   6.485   2.601   1.502  0.0602  0.6340  0.0268
  394TIP3    H222742   6.559   2.693   1.407 -1.6711 -0.5535 -2.5859
  395TIP3   OH222743   2.259   4.766   0.771 -0.0763 -0.2705  0.5017
  395TIP3    H122744   2.339   4.724   0.739 -0.8341  0.5415 -2.8472
  395TIP3    H222745   2.289   4.849   0.809  0.7549 -0.1582 -0.3596
  396TIP3   OH222746   5.489   2.322   1.453 -0.4117 -0.5795 -0.1703
  396TIP3    H122747   5.466   2.373   1.375 -0.4824 -2.7599 -1.6362
  396TIP3    H222748   5.433   2.359   1.522 -0.5613  1.2044 -1.1696
  397TIP3   OH222749   4.702   3.754   1.375  0.2166  1.1789  0.3428
  397TIP3    H122750   4.695   3.702   1.454 -1.0094 -1.9599 -1.6358
  397TIP3    H222751   4.795   3.751   1.353  0.0372 -1.6827 -0.4843
  398TIP3   OH222752   0.174   4.198   6.962  0.8366 -0.0526 -0.5462
  398TIP3    H122753   0.173   4.110   6.926  1.2469 -0.7737  1.1205
  398TIP3    H222754   0.267   4.217   6.977  0.7693  0.7499 -1.0472
  399TIP3   OH222755   4.641   3.791   7.655  0.0198  0.1713 -0.2057
  399TIP3    H122756   4.550   3.817   7.670 -0.5595 -0.2431 -2.5199
  399TIP3    H222757   4.636   3.697   7.639  0.5281  0.4260 -2.1608
  400TIP3   OH222758   2.846   0.033   7.373  0.3764 -0.0817 -0.0504
  400TIP3    H122759   2.810   0.109   7.328  1.2940  1.1051  1.1551
  400TIP3    H222760   2.778   0.009   7.436  0.6679  0.6448  0.5527
  401TIP3   OH222761   4.885   0.765   6.731  0.2827 -0.4446  0.2096
  401TIP3    H122762   4.948   0.809   6.674  0.8915 -0.6166  0.7427
  401TIP3    H222763   4.929   0.757   6.816 -0.5975 -0.2213  0.7072
  402TIP3   OH222764   1.052   6.391   7.294  0.3800  0.4730  0.6771
  402TIP3    H122765   0.997   6.357   7.364  0.1188 -2.1323 -0.6809
  402TIP3    H222766   1.140   6.397   7.332  0.0605  0.0409  1.4912
  403TIP3   OH222767   4.090   6.029   8.495 -1.3587  0.2635  0.1265
  403TIP3    H122768   4.118   5.938   8.489  0.6058  0.6737  1.9676
  403TIP3    H222769   4.077   6.056   8.404 -1.4354 -1.6781 -0.4811
  404TIP3   OH222770   3.907   5.232   0.222  0.2020  0.0124 -0.8614
  404TIP3    H122771   3.960   5.160   0.255 -1.3751 -2.1745 -2.8106
  404TIP3    H222772   3.822   5.220   0.265  0.3341  1.6840 -0.0563
  405TIP3   OH222773   6.730   4.519   0.364 -0.1233 -0.9918  0.4105
  405TIP3    H122774   6.774   4.570   0.296  1.1941 -1.5352  0.8222
  405TIP3    H222775   6.785   4.442   0.375  0.3846 -0.3548  2.9091
  406TIP3   OH222776   3.897   4.560   0.035  0.0496 -0.1343  0.1196
  406TIP3    H122777   3.813   4.606   0.046  0.2769 -0.0855  2.0466
  406TIP3    H222778   3.886   4.510  -0.045 -1.0690  1.4468 -0.7845
  407TIP3   OH222779   3.760   6.230   7.843  0.3065  0.5073  0.4109
  407TIP3    H122780   3.767   6.234   7.747  0.6899  2.8475  0.4770
  407TIP3    H222781   3.727   6.142   7.861  0.0241  0.0820 -1.8808
  408TIP3   OH222782   1.457   4.559   0.755 -0.2584  0.2131 -0.0818
  408TIP3    H122783   1.410   4.636   0.723 -1.7635  0.1732  1.8040
  408TIP3    H222784   1.397   4.486   0.741 -0.1924 -0.0789  1.0081
  409TIP3   OH222785   2.833   1.757   1.601 -1.0694  0.4238  0.0647
  409TIP3    H122786   2.786   1.836   1.574  0.7080  1.1469 -1.0904
  409TIP3    H222787   2.808   1.744   1.692 -0.8141  2.8024  0.5410
  410TIP3   OH222788   2.006   2.008   7.517 -0.4479 -0.5138 -0.2239
  410TIP3    H122789   1.986   1.917   7.496 -0.0500 -0.8485  0.8006
  410TIP3    H222790   1.921   2.052   7.513 -0.6582 -0.9395 -0.6303
  411TIP3   OH222791   4.363   3.122   1.119  0.3569 -0.1028 -0.0380
  411TIP3    H122792   4.436   3.166   1.076  0.4012 -1.3382 -1.2939
  411TIP3    H222793   4.308   3.091   1.047 -0.4472 -0.7946  0.8491
  412TIP3   OH222794   1.203   4.583   0.521  0.0904 -0.4006  0.6102
  412TIP3    H122795   1.194   4.521   0.593  1.5971  0.3430  1.4970
  412TIP3    H222796   1.209   4.668   0.563 -0.3326  0.1890 -0.4873
  413TIP3   OH222797   2.775   3.272   0.541 -0.2508 -0.0014 -0.6751
  413TIP3    H122798   2.733   3.278   0.455 -0.8078 -3.5552 -0.8221
  413TIP3    H222799   2.705   3.288   0.604 -0.8125 -1.2694 -0.9401
  414TIP3   OH222800   2.864   3.695   0.414 -0.7374 -0.0746 -0.4234
  414TIP3    H122801   2.832   3.767   0.360  0.8831  0.1964 -1.0633
  414TIP3    H222802   2.955   3.682   0.387 -0.1122 -0.4856  1.6610
  415TIP3   OH222803   2.581   1.773   1.401 -1.2402 -0.0606  0.2475
  415TIP3    H122804   2.675   1.788   1.386 -1.3008 -0.7554 -0.9873
  415TIP3    H222805   2.570   1.779   1.496  0.0043  0.2933  0.3856
  416TIP3   OH222806   6.225   5.747   7.419 -0.1351  0.2425 -0.4092
  416TIP3    H122807   6.216   5.652   7.410  0.6170 -0.0216  1.2631
  416TIP3    H222808   6.138   5.778   7.444 -0.8792  0.2938 -2.8338
  417TIP3   OH222809   4.432   2.883   0.463 -0.0433 -0.5305 -0.0191
  417TIP3    H122810   4.465   2.810   0.412 -0.3357 -0.2322 -0.6467
  417TIP3    H222811   4.482   2.880   0.545  0.8518 -0.6627 -0.5575
  418TIP3   OH222812   2.036   6.115   0.431 -0.5640 -0.4244  0.1585
  418TIP3    H122813   2.007   6.054   0.363  0.1344 -0.8762  0.2535
  418TIP3    H222814   2.131   6.115   0.425 -0.5486  0.8425  0.0148
  419TIP3   OH222815   2.973   2.120   1.457 -0.0346  0.3088  0.1532
  419TIP3    H122816   2.921   2.040   1.459 -2.7305  1.9451  0.7977
  419TIP3    H222817   3.004   2.127   1.367  0.8951 -1.7818  0.2569
  420TIP3   OH222818   3.314   6.036   0.119 -0.3400 -0.9149  0.0947
  420TIP3    H122819   3.288   6.096   0.189  3.4030  0.5824  0.4363
  420TIP3    H222820   3.293   5.949   0.153 -2.0248 -0.0404  1.4443
  421TIP3   OH222821   6.659   3.078   2.284  0.5232 -0.0587  0.3562
  421TIP3    H122822   6.645   3.077   2.378  1.4697 -0.5273  0.5009
  421TIP3    H222823   6.575   3.106   2.247 -0.5094 -1.8670  1.2156
  422TIP3   OH222824   0.956   6.295   7.532 -0.0551 -0.6415 -0.1096
  422TIP3    H122825   0.969   6.372   7.587  1.1254 -0.3116 -0.8182
  422TIP3    H222826   0.895   6.240   7.582  0.6589 -0.1775  1.3436
  423TIP3   OH222827   1.191   1.509   0.237 -0.3314 -0.6129  0.1270
  423TIP3    H122828   1.236   1.550   0.310 -0.4330 -1.5555  0.7439
  423TIP3    H222829   1.103   1.489   0.271 -0.6690 -0.2825 -0.5277
  424TIP3   OH222830   2.979   0.952   7.510  0.2290  0.8604  0.8532
  424TIP3    H122831   2.911   0.904   7.558  0.4787 -1.5642 -1.0086
  424TIP3    H222832   3.060   0.930   7.557  0.3855 -0.9313 -0.1772
  425TIP3   OH222833   5.460   0.460   7.690  0.1076  0.2823  0.0816
  425TIP3    H122834   5.533   0.434   7.747  0.8335 -0.2897 -1.0693
  425TIP3    H222835   5.421   0.378   7.662  0.5880  0.4891 -1.2712
  426TIP3   OH222836   5.646   3.619   2.549  0.3345 -0.1506 -0.3125
  426TIP3    H122837   5.651   3.525   2.568 -2.0022  0.0852  1.9516
  426TIP3    H222838   5.603   3.656   2.625  2.0172  2.9514 -0.7321
  427TIP3   OH222839   1.021   1.126   7.461 -0.2682 -0.1843 -0.1299
  427TIP3    H122840   0.934   1.129   7.501 -0.8463  0.6681 -1.4044
  427TIP3    H222841   1.059   1.044   7.493 -1.6071 -0.6658  0.2785
  428TIP3   OH222842   4.337   1.633   7.539 -0.0399 -0.0963 -0.2079
  428TIP3    H122843   4.367   1.645   7.448  0.2705  0.4397 -0.0410
  428TIP3    H222844   4.260   1.577   7.531 -0.4382  0.5189 -0.8787
  429TIP3   OH222845   2.397   6.462   0.866  0.5603  0.1847  0.4708
  429TIP3    H122846   2.302   6.470   0.855  0.6271  0.9481  0.3916
  429TIP3    H222847   2.409   6.386   0.923 -0.0746 -0.1980  0.0996
  430TIP3   OH222848   2.666   3.072   6.746 -0.2281  0.3573 -0.0759
  430TIP3    H122849   2.719   3.108   6.675  1.5655  0.3798  1.1780
  430TIP3    H222850   2.726   3.011   6.791 -1.0626  0.8534  1.7934
  431TIP3   OH222851   5.539   0.669   7.975  0.7306 -0.3770 -0.1105
  431TIP3    H122852   5.487   0.617   7.914  1.3258 -0.8887 -0.1966
  431TIP3    H222853   5.612   0.612   7.999  0.9781  0.1390  0.4030
  432TIP3   OH222854   2.521   4.110   8.216  0.3484 -0.3626  0.3406
  432TIP3    H122855   2.470   4.046   8.266  0.5910 -0.2416  0.7478
  432TIP3    H222856   2.604   4.066   8.198  0.4629 -0.2151  0.5030
  433TIP3   OH222857   4.043   5.672   1.263 -0.0586 -0.2081 -0.3289
  433TIP3    H122858   4.113   5.713   1.314  1.2602 -0.6396 -1.6938
  433TIP3    H222859   4.039   5.582   1.295  0.8281 -0.5039 -0.9964
  434TIP3   OH222860   2.534   2.105   0.728  0.1914 -0.3041  0.7107
  434TIP3    H122861   2.571   2.046   0.793  1.0262  0.5446  1.0405
  434TIP3    H222862   2.566   2.192   0.754 -0.4377  0.1995 -0.1479
  435TIP3   OH222863   4.293   2.198   1.192 -0.0501 -0.4732  0.1619
  435TIP3    H122864   4.215   2.210   1.138 -0.6908 -0.2919  1.0962
  435TIP3    H222865   4.300   2.103   1.202  1.5511 -0.6981 -2.2920
  436TIP3   OH222866   3.588   4.577   6.395 -0.7277 -0.4735  0.2658
  436TIP3    H122867   3.528   4.540   6.459 -1.5939 -0.0905 -0.2945
  436TIP3    H222868   3.633   4.501   6.358 -2.8025 -1.0926 -1.1907
  437TIP3   OH222869   0.917   6.107   1.146 -0.0968  0.1891 -0.2839
  437TIP3    H122870   0.924   6.166   1.071  0.0480 -2.3363 -2.4009
  437TIP3    H222871   0.833   6.063   1.134  0.1285 -0.5855  0.8235
  438TIP3   OH222872   0.425   3.552   0.969  0.1892  0.1038 -0.0386
  438TIP3    H122873   0.366   3.590   0.903 -0.7922 -0.0874  0.7028
  438TIP3    H222874   0.511   3.586   0.946  0.1094 -0.9367 -2.1688
  439TIP3   OH222875   6.428   4.785   7.565 -0.1722  0.0619  0.3503
  439TIP3    H122876   6.425   4.807   7.472 -1.5448 -0.0839  0.3348
  439TIP3    H222877   6.421   4.690   7.567 -1.7515  0.1568  0.6246
  440TIP3   OH222878   0.546   0.355   1.478  0.0440  0.1868 -0.0998
  440TIP3    H122879   0.565   0.442   1.442 -1.5675  0.2932 -0.7865
  440TIP3    H222880   0.537   0.369   1.572 -0.2387  0.7885 -0.2119
  441TIP3   OH222881   1.678   6.819   7.444 -0.6171 -0.0978  0.0451
  441TIP3    H122882   1.739   6.748   7.462 -1.7261 -0.7233  1.6151
  441TIP3    H222883   1.594   6.776   7.429 -1.0808  0.8248 -0.1200
  442TIP3   OH222884   4.493   1.755   1.108  0.8512 -0.1625  0.2100
  442TIP3    H122885   4.409   1.718   1.079  1.6171 -1.1493 -0.8323
  442TIP3    H222886   4.530   1.688   1.166  0.4099  0.7859  1.6462
  443TIP3   OH222887   1.234   0.179   8.402  0.5031 -0.0143  0.0920
  443TIP3    H122888   1.242   0.137   8.488  2.1282  1.7267  0.8862
  443TIP3    H222889   1.177   0.254   8.418  2.4527  1.5223  0.2272
  444TIP3   OH222890   3.982   6.259   6.500 -0.1287 -0.2670 -0.1873
  444TIP3    H122891   4.077   6.270   6.501 -0.3842  3.1356  1.3097
  444TIP3    H222892   3.966   6.185   6.559  1.5697  0.8455  1.8292
  445TIP3   OH222893   1.662   5.146   8.414  0.7615  0.3364 -0.4277
  445TIP3    H122894   1.611   5.176   8.339 -2.9468 -2.3037  0.7485
  445TIP3    H222895   1.663   5.221   8.474 -0.9460  0.8357 -0.9594
  446TIP3   OH222896   4.218   4.705   1.347  0.4913 -0.3221  0.3379
  446TIP3    H122897   4.312   4.701   1.364  0.7235  1.4073 -0.3927
  446TIP3    H222898   4.211   4.734   1.256 -0.7546  0.5373  0.6861
  447TIP3   OH222899   6.444   3.025   6.830 -0.0747  0.0634 -0.1090
  447TIP3    H122900   6.352   3.004   6.813  0.4351 -0.6741 -2.2980
  447TIP3    H222901   6.445   3.060   6.919 -2.3640 -0.5544  0.2170
  448TIP3   OH222902   1.873   3.062   6.958  0.0692 -0.4359 -0.4030
  448TIP3    H122903   1.928   3.140   6.966 -0.0237 -0.3837 -0.2634
  448TIP3    H222904   1.874   3.024   7.047  1.2813 -1.3797 -0.7817
  449TIP3   OH222905   0.724   4.348   0.380 -0.3680  0.1085  0.4289
  449TIP3    H122906   0.789   4.403   0.336 -2.0029  1.1849 -0.7463
  449TIP3    H222907   0.734   4.262   0.339 -0.6068  0.6205 -0.7285
  450TIP3   OH222908   4.706   3.525   7.688 -0.4781  0.1118  0.3899
  450TIP3    H122909   4.670   3.502   7.603 -0.2387  1.3539 -0.0649
  450TIP3    H222910   4.724   3.441   7.730  0.4043 -0.5506 -1.2200
  451TIP3   OH222911   3.733   0.630   1.286  0.1737  0.4383 -0.3968
  451TIP3    H122912   3.751   0.682   1.364  1.1114 -2.8017  1.7425
  451TIP3    H222913   3.809   0.645   1.229  1.3156  0.0618  0.9824
  452TIP3   OH222914   4.523   2.345   8.379 -0.3570 -0.2945  0.7764
  452TIP3    H122915   4.536   2.280   8.310 -1.4779  0.8416 -0.5838
  452TIP3    H222916   4.598   2.404   8.371 -0.1023 -0.5872  1.0185
  453TIP3   OH222917   0.095   1.154   1.990 -0.4630  0.3257  0.0948
  453TIP3    H122918   0.068   1.179   2.078  0.5986  0.9602  0.2523
  453TIP3    H222919   0.138   1.069   2.001 -1.3290 -0.1327  0.0118
  454TIP3   OH222920   3.326   6.780   1.025  0.1561  0.2968  0.2239
  454TIP3    H122921   3.288   6.852   0.975  3.3351  0.7972 -1.7710
  454TIP3    H222922   3.382   6.734   0.963  0.5548 -2.0958  2.1894
  455TIP3   OH222923   1.384   5.750   0.026  0.9118  0.5620  0.8499
  455TIP3    H122924   1.331   5.723  -0.049 -1.0238  1.8834  1.6587
  455TIP3    H222925   1.448   5.679   0.037 -1.4331 -1.7915  0.5171
  456TIP3   OH222926   1.072   2.602   0.715 -0.1649 -0.3902 -0.2866
  456TIP3    H122927   1.063   2.663   0.788  0.2382 -1.1131  0.3884
  456TIP3    H222928   1.019   2.526   0.741  0.2538 -0.7913 -0.5935
  457TIP3   OH222929   5.732   3.850   0.686 -0.3415  0.9170  0.1181
  457TIP3    H122930   5.707   3.784   0.621 -0.5045  1.3951 -0.3163
  457TIP3    H222931   5.819   3.878   0.657  0.5204 -0.3714  1.3247
  458TIP3   OH222932   4.253   2.237   8.515 -0.0315 -0.0166  0.2755
  458TIP3    H122933   4.305   2.311   8.482 -0.1052  0.1152  0.4537
  458TIP3    H222934   4.292   2.160   8.473  0.8193 -0.0059  1.0170
  459TIP3   OH222935   4.033   0.824   0.101  0.1302 -0.2046 -0.6418
  459TIP3    H122936   4.114   0.775   0.090 -0.2157 -1.2005  0.8970
  459TIP3    H222937   4.049   0.907   0.056  2.2906 -0.0617  0.2667
  460TIP3   OH222938   0.696   6.352   0.887 -0.1214 -0.2711 -0.2105
  460TIP3    H122939   0.664   6.442   0.889 -1.2741 -0.6626  0.0770
  460TIP3    H222940   0.692   6.324   0.979  1.6589 -0.1608 -0.0636
  461TIP3   OH222941   3.658   5.468   2.515 -0.2731  0.0925  0.0272
  461TIP3    H122942   3.638   5.561   2.511 -0.8636 -0.0304  0.0143
  461TIP3    H222943   3.631   5.441   2.603 -1.1347 -0.2865 -0.3385
  462TIP3   OH222944   1.381   5.016   8.560  0.3171 -0.2170 -0.3914
  462TIP3    H122945   1.348   4.927   8.571  0.2902 -0.3394 -1.3403
  462TIP3    H222946   1.465   5.005   8.515  1.7975  0.0800  2.0996
  463TIP3   OH222947   4.446   4.676   0.096 -0.1261 -0.1185  0.1925
  463TIP3    H122948   4.432   4.692   0.002 -0.5328 -1.8108 -0.0720
  463TIP3    H222949   4.364   4.705   0.137 -0.5443 -0.7388 -0.1745
  464TIP3   OH222950   1.534   3.436   1.502  0.2177  0.1867  0.2306
  464TIP3    H122951   1.471   3.483   1.556  0.1160 -0.0877  0.3509
  464TIP3    H222952   1.597   3.400   1.565  0.3223  0.2019  0.1350
  465TIP3   OH222953   3.706   5.055   8.080  0.2598  0.3541 -0.4091
  465TIP3    H122954   3.662   5.128   8.036  0.5764 -0.3098 -1.9034
  465TIP3    H222955   3.636   4.995   8.104  0.0557  0.8595  0.2866
  466TIP3   OH222956   6.840   2.805   8.535 -0.3465  0.3162 -0.0598
  466TIP3    H122957   6.822   2.848   8.451  0.2554 -0.2980 -0.5018
  466TIP3    H222958   6.934   2.812   8.546 -0.4503  0.5998  0.6834
  467TIP3   OH222959   5.161   1.114   7.727 -0.3464  0.1465 -0.2215
  467TIP3    H122960   5.160   1.068   7.643  1.0148  0.0046 -0.1786
  467TIP3    H222961   5.253   1.121   7.750 -0.6576  0.8349  0.9187
  468TIP3   OH222962   6.484   2.185   6.567  0.2344  0.6764  0.4281
  468TIP3    H122963   6.574   2.172   6.537  0.3354  2.0911  0.0224
  468TIP3    H222964   6.492   2.250   6.638 -0.2532 -0.8338  1.9250
  469TIP3   OH222965   5.487   1.938   2.317  0.2904  0.0473  0.1638
  469TIP3    H122966   5.407   1.971   2.359 -0.3346 -0.9377 -0.2048
  469TIP3    H222967   5.555   2.000   2.343 -0.3711  0.2893  1.4047
  470TIP3   OH222968   3.778   1.482   1.766 -0.1860 -0.1884 -0.1526
  470TIP3    H122969   3.716   1.414   1.792 -0.6910  0.0889 -0.6356
  470TIP3    H222970   3.771   1.487   1.671  1.0367 -0.5929 -0.2827
  471TIP3   OH222971   2.284   0.348   7.256  0.0298 -0.3014 -0.1634
  471TIP3    H122972   2.229   0.323   7.182 -0.8533 -1.3373  0.7986
  471TIP3    H222973   2.223   0.354   7.330  1.1158 -0.8599  0.8045
  472TIP3   OH222974   1.798   3.472   7.767 -0.4673 -0.5126  0.1264
  472TIP3    H122975   1.798   3.447   7.859  0.4139 -1.7909 -0.1863
  472TIP3    H222976   1.889   3.498   7.750 -0.4875 -0.8575 -0.5197
  473TIP3   OH222977   6.390   4.019   0.535  0.3469 -0.1861  0.3214
  473TIP3    H122978   6.402   4.049   0.625 -1.2626 -0.3371  0.6270
  473TIP3    H222979   6.417   4.093   0.480  1.7846 -0.2645  0.9017
  474TIP3   OH222980   5.093   5.442   2.257 -0.4638  0.1275 -0.1354
  474TIP3    H122981   5.024   5.507   2.246  1.2688  2.1290  0.1758
  474TIP3    H222982   5.168   5.492   2.290  0.5880 -2.2553  1.3642
  475TIP3   OH222983   5.729   6.532   1.098  0.6222  0.4789 -0.1137
  475TIP3    H122984   5.656   6.588   1.125  2.1514  1.7501  1.5475
  475TIP3    H222985   5.695   6.443   1.107 -0.7691  1.0429  0.4870
  476TIP3   OH222986   2.745   3.358   1.181 -0.3516  0.0597 -0.1414
  476TIP3    H122987   2.831   3.397   1.196 -0.8494  0.2820  2.6452
  476TIP3    H222988   2.760   3.264   1.187 -0.4992  0.1339  1.9863
  477TIP3   OH222989   1.176   0.771   8.187  1.0497 -0.1323 -0.4056
  477TIP3    H122990   1.189   0.758   8.093  1.2311 -0.3234 -0.3544
  477TIP3    H222991   1.263   0.789   8.221  0.7559  1.6919 -0.5394
  478TIP3   OH222992   0.851   6.297   6.712  0.0145  0.2374 -0.0678
  478TIP3    H122993   0.790   6.370   6.700 -0.5481 -0.5163 -2.2007
  478TIP3    H222994   0.931   6.325   6.667  1.6011  1.4331  3.1273
  479TIP3   OH222995   3.607   1.123   2.044 -0.0467 -0.5439 -0.3792
  479TIP3    H122996   3.512   1.119   2.034 -0.2402  1.0823  0.4789
  479TIP3    H222997   3.621   1.166   2.128  1.4435 -0.1926 -0.7673
  480TIP3   OH222998   3.622   1.470   7.750  0.0550  0.1955  0.3516
  480TIP3    H122999   3.579   1.402   7.698  0.8473 -1.3701  1.6662
  480TIP3    H223000   3.645   1.538   7.686 -0.4693 -0.9136 -1.0597
  481TIP3   OH223001   6.505   3.279   1.464 -0.1353  0.2808 -0.4232
  481TIP3    H123002   6.433   3.218   1.476  0.3883 -0.0823  1.0485
  481TIP3    H223003   6.512   3.326   1.547  1.9264 -0.3814 -0.1557
  482TIP3   OH223004   0.087   5.784   1.506  0.4159  0.2677  0.0022
  482TIP3    H123005   0.083   5.806   1.599  0.6132 -0.0420  0.0856
  482TIP3    H223006   0.137   5.703   1.503  0.8694  0.5540 -0.4211
  483TIP3   OH223007   1.486   3.566   7.154  0.0783 -0.3761  0.4368
  483TIP3    H123008   1.533   3.637   7.197 -0.2134 -0.5008  0.9723
  483TIP3    H223009   1.415   3.543   7.215 -0.8064 -0.0473 -0.4346
  484TIP3   OH223010   2.336   1.895   0.729 -0.1387  0.1951  0.1212
  484TIP3    H123011   2.283   1.877   0.807  0.6499 -0.9700  0.4127
  484TIP3    H223012   2.395   1.965   0.756  0.1034 -0.1747  0.5720
  485TIP3   OH223013   6.660   4.196   6.394 -0.4969 -0.1383  0.1634
  485TIP3    H123014   6.602   4.245   6.335 -1.2877 -0.2873  0.8024
  485TIP3    H223015   6.702   4.264   6.447  0.6390  0.0367 -0.9260
  486TIP3   OH223016   2.502   6.158   1.222  0.5526  0.0176 -0.2261
  486TIP3    H123017   2.482   6.090   1.286 -0.3597  0.3283 -0.1768
  486TIP3    H223018   2.594   6.181   1.239  0.4329 -0.1858  0.7023
  487TIP3   OH223019   3.108   6.438   8.436 -0.1777  0.4371  0.3337
  487TIP3    H123020   3.062   6.443   8.353 -3.2836 -3.1588  1.5302
  487TIP3    H223021   3.171   6.367   8.425 -1.1722 -0.6273  1.1522
  488TIP3   OH223022   6.180   3.980   1.442  0.0364 -0.5753 -0.3858
  488TIP3    H123023   6.171   4.061   1.392  0.7140 -0.9740 -1.1726
  488TIP3    H223024   6.092   3.961   1.472 -0.1960  0.2526 -0.5136
  489TIP3   OH223025   1.146   2.640   6.807 -0.2718 -0.0136 -0.1228
  489TIP3    H123026   1.233   2.622   6.771 -0.7523 -2.4915 -0.2470
  489TIP3    H223027   1.112   2.554   6.830 -2.1926  1.0182  1.1583
  490TIP3   OH223028   5.712   2.194   1.744  0.0408  0.2128 -0.0216
  490TIP3    H123029   5.668   2.110   1.729 -1.0666  0.1325  2.9931
  490TIP3    H223030   5.654   2.241   1.804  1.4372  2.4788 -0.3439
  491TIP3   OH223031   6.787   2.462   1.364  0.1314  0.2427  0.3322
  491TIP3    H123032   6.715   2.500   1.413 -1.0925  0.7726 -1.7601
  491TIP3    H223033   6.791   2.514   1.283  0.8289 -1.7184 -0.9576
  492TIP3   OH223034   5.761   0.835   1.256 -0.3402  0.3546 -0.2995
  492TIP3    H123035   5.767   0.929   1.275 -1.9452  0.4553 -0.1775
  492TIP3    H223036   5.711   0.799   1.329  1.4644 -0.8686  0.4021
  493TIP3   OH223037   0.414   1.195   1.036 -0.0721  0.1199 -0.5788
  493TIP3    H123038   0.480   1.207   1.104  0.1286 -1.1470 -0.5373
  493TIP3    H223039   0.355   1.128   1.070 -0.7952  0.4925 -1.0549
  494TIP3   OH223040   0.416   6.595   1.332 -0.7431  0.2937 -0.2221
  494TIP3    H123041   0.348   6.654   1.366  1.0944  1.0632  2.4266
  494TIP3    H223042   0.483   6.653   1.297 -0.2232 -0.3553 -0.3212
  495TIP3   OH223043   3.067   4.088   7.436  0.0638  0.1119  1.0573
  495TIP3    H123044   3.157   4.119   7.451  0.1177  0.4767  0.0953
  495TIP3    H223045   3.063   4.004   7.481  1.2871 -0.4922  0.1099
  496TIP3   OH223046   1.529   5.955   0.120  0.2895 -0.3534  0.1207
  496TIP3    H123047   1.482   5.872   0.123  2.3162 -1.6370 -1.2539
  496TIP3    H223048   1.460   6.021   0.107 -1.2595 -1.9120 -0.0089
  497TIP3   OH223049   3.490   1.850   0.449  0.4013 -0.4357  0.3762
  497TIP3    H123050   3.462   1.907   0.520  0.5034 -1.8442  1.6161
  497TIP3    H223051   3.467   1.897   0.369 -0.3728  0.8858  1.3337
  498TIP3   OH223052   6.015   3.174   0.840 -0.5195 -0.1545  0.0613
  498TIP3    H123053   6.089   3.233   0.828 -1.7146  0.9132 -3.0355
  498TIP3    H223054   6.006   3.165   0.935  1.1051  2.8245  0.6050
  499TIP3   OH223055   1.341   1.253   0.676 -0.2060  0.2521 -0.1002
  499TIP3    H123056   1.295   1.248   0.592 -1.6014 -0.1809  0.6450
  499TIP3    H223057   1.421   1.203   0.663 -0.2846  0.3987 -1.2420
  500TIP3   OH223058   0.079   2.785   0.616 -0.2564  0.8976 -0.3202
  500TIP3    H123059   0.099   2.848   0.547  1.0946 -0.7505 -1.4907
  500TIP3    H223060   0.022   2.720   0.575  2.2038 -1.2445 -0.6033
  501TIP3   OH223061   2.534   3.070   0.674 -0.6640  0.3394 -0.0572
  501TIP3    H123062   2.622   3.053   0.706  0.1829 -0.0832 -2.3789
  501TIP3    H223063   2.523   3.165   0.681 -0.4115  0.2874  1.1207
  502TIP3   OH223064   5.123   4.132   7.308 -0.5540 -0.0261 -0.1714
  502TIP3    H123065   5.201   4.140   7.363 -0.4563  0.2560 -0.3465
  502TIP3    H223066   5.069   4.065   7.351  0.3995 -1.2287 -0.7950
  503TIP3   OH223067   4.341   2.009   6.894  0.0242 -0.1763  0.4487
  503TIP3    H123068   4.268   2.030   6.951 -1.1221  1.8789 -1.5994
  503TIP3    H223069   4.419   2.036   6.944 -0.4701 -2.6615  2.7652
  504TIP3   OH223070   3.543   3.353   0.772  0.0132 -0.2658  0.3542
  504TIP3    H123071   3.623   3.318   0.733 -0.8082 -3.0388  0.8659
  504TIP3    H223072   3.473   3.323   0.713 -0.8227 -0.0786  1.2178
  505TIP3   OH223073   3.355   3.639   2.208  0.2313  0.1721  0.3748
  505TIP3    H123074   3.290   3.602   2.148 -0.7118  2.2331  0.0685
  505TIP3    H223075   3.389   3.715   2.163  4.0207 -1.5973 -0.1198
  506TIP3   OH223076   1.748   1.489   7.475 -0.4309 -0.3493  0.3680
  506TIP3    H123077   1.730   1.512   7.384 -0.0040 -0.5201  0.2413
  506TIP3    H223078   1.821   1.428   7.471 -0.5561 -0.5332  0.8110
  507TIP3   OH223079   0.933   2.950   6.196 -0.0533  0.1969 -0.0190
  507TIP3    H123080   0.882   2.974   6.273  0.1463 -0.4317  0.3207
  507TIP3    H223081   1.002   3.016   6.191  0.5948 -0.3761  0.9996
  508TIP3   OH223082   0.323   2.971   7.887  0.3358  0.0530 -0.2064
  508TIP3    H123083   0.342   2.922   7.968  1.0401  2.0824  0.9213
  508TIP3    H223084   0.263   3.040   7.915 -1.2278 -0.5362 -1.9085
  509TIP3   OH223085   5.254   2.679   0.919  0.0960  0.0817  0.6316
  509TIP3    H123086   5.289   2.753   0.870  1.8619 -0.7044  0.6061
  509TIP3    H223087   5.299   2.682   1.004 -1.9390  0.6608  1.7707
  510TIP3   OH223088   0.529   3.221   8.117  0.3062  0.1963 -0.1185
  510TIP3    H123089   0.522   3.315   8.130  0.6725  0.5596 -2.1850
  510TIP3    H223090   0.441   3.187   8.134  0.2989  0.8079  1.1617
  511TIP3   OH223091   6.452   4.420   7.811 -0.7333 -0.3254 -0.0912
  511TIP3    H123092   6.481   4.487   7.873 -0.4203 -1.2223  0.7658
  511TIP3    H223093   6.531   4.368   7.793 -1.3302 -1.5256  0.6331
  512TIP3   OH223094   2.089   6.868   8.421  0.3390 -0.1300  0.4648
  512TIP3    H123095   2.002   6.905   8.438  0.7907  1.5737 -0.7123
  512TIP3    H223096   2.150   6.940   8.437  1.7596 -1.7151  2.8522
  513TIP3   OH223097   0.672   3.910   6.210  0.3517 -0.5457  0.5697
  513TIP3    H123098   0.611   3.899   6.136  0.1510  0.1349  0.6289
  513TIP3    H223099   0.617   3.898   6.288  0.3976 -0.4389  0.6180
  514TIP3   OH223100   4.163   4.965   7.767  0.3638 -0.2183  0.1229
  514TIP3    H123101   4.077   4.934   7.796 -0.1073 -1.5679 -2.4546
  514TIP3    H223102   4.222   4.893   7.788  0.6142  0.0928  0.5097
  515TIP3   OH223103   3.486   3.368   8.247  0.3357 -0.2488 -0.0012
  515TIP3    H123104   3.510   3.275   8.250 -1.2635 -0.7330 -0.6826
  515TIP3    H223105   3.416   3.372   8.182  1.4746  1.7341 -1.1900
  516TIP3   OH223106   6.132   0.648   7.708  0.8239  0.0227  0.5401
  516TIP3    H123107   6.196   0.584   7.738  0.8386 -0.7156 -1.0041
  516TIP3    H223108   6.117   0.626   7.616 -1.8388  0.0022  0.9141
  517TIP3   OH223109   5.729   3.164   1.128 -0.4203 -0.2794 -0.1918
  517TIP3    H123110   5.642   3.129   1.144 -1.6816  1.9406 -1.7200
  517TIP3    H223111   5.714   3.253   1.099  2.4717  0.7046  0.9688
  518TIP3   OH223112   4.847   3.691   8.306  0.5452 -0.1010  0.6177
  518TIP3    H123113   4.812   3.760   8.362 -0.3895  0.3888 -0.5282
  518TIP3    H223114   4.893   3.738   8.237 -0.7378 -0.5583 -0.5914
  519TIP3   OH223115   2.641   3.619   1.265 -0.0559  0.4715  0.1958
  519TIP3    H123116   2.646   3.540   1.211 -0.5860  0.7918 -0.3433
  519TIP3    H223117   2.732   3.648   1.274 -0.0131  0.8897 -1.2761
  520TIP3   OH223118   2.958   3.819   1.759 -0.1078 -0.0228 -0.9984
  520TIP3    H123119   3.038   3.832   1.811 -0.0045 -0.3276 -1.0785
  520TIP3    H223120   2.989   3.776   1.679 -0.5657 -1.7393 -0.2993
  521TIP3   OH223121   5.079   3.006   1.372 -0.0919  0.0264 -0.0455
  521TIP3    H123122   5.134   3.073   1.413 -1.3882  2.0272 -1.3477
  521TIP3    H223123   5.022   2.976   1.443  0.3229  0.5189  0.5074
  522TIP3   OH223124   2.871   1.130   7.322  0.1568  0.0595 -0.2028
  522TIP3    H123125   2.926   1.073   7.377 -0.6055  0.7732  1.3764
  522TIP3    H223126   2.927   1.204   7.301  0.1758  0.2420  0.4495
  523TIP3   OH223127   2.648   1.751   7.599 -0.7429 -0.1599  0.4461
  523TIP3    H123128   2.725   1.697   7.616 -0.7652 -0.5706 -0.7187
  523TIP3    H223129   2.573   1.693   7.614 -0.7882 -0.1726  0.1814
  524TIP3   OH223130   4.160   4.798   2.152 -0.5028 -0.0144  0.1225
  524TIP3    H123131   4.195   4.887   2.148 -0.4703  0.1250  2.1069
  524TIP3    H223132   4.122   4.783   2.066  0.6874  1.4098 -0.6958
  525TIP3   OH223133   2.495   0.660   7.798  0.0149  0.3529  0.4703
  525TIP3    H123134   2.423   0.649   7.860  1.3071 -1.4556  1.7603
  525TIP3    H223135   2.568   0.692   7.852  1.0565 -0.8964 -0.1407
  526TIP3   OH223136   0.219   6.796   7.549 -0.1988 -0.2450 -0.5152
  526TIP3    H123137   0.137   6.792   7.597 -0.6124 -0.0146 -1.1879
  526TIP3    H223138   0.286   6.805   7.617 -0.7899  0.3500  0.0084
  527TIP3   OH223139   4.521   0.997   8.276 -0.6964  0.0584  1.1021
  527TIP3    H123140   4.609   1.024   8.301  0.6719 -0.7763 -2.2331
  527TIP3    H223141   4.490   1.068   8.219 -1.5783 -0.3365  1.0659
  528TIP3   OH223142   6.468   3.098   7.125  0.3272  0.5379 -0.2155
  528TIP3    H123143   6.531   3.153   7.078  0.7870  0.3027  0.1214
  528TIP3    H223144   6.386   3.147   7.119  0.5532  0.8867 -0.5885
  529TIP3   OH223145   5.579   5.984   1.656  0.6350 -0.2417  0.2085
  529TIP3    H123146   5.646   5.924   1.623  0.8810  0.8959 -1.5263
  529TIP3    H223147   5.628   6.061   1.685  0.1302  0.4847 -0.8084
  530TIP3   OH223148   1.752   0.873   0.868 -0.4147  0.6197  0.7667
  530TIP3    H123149   1.803   0.910   0.940  0.8722  0.7297 -0.1601
  530TIP3    H223150   1.720   0.950   0.820 -0.8401  0.5420  0.9211
  531TIP3   OH223151   6.112   3.497   1.603 -0.0936 -0.1575 -0.6807
  531TIP3    H123152   6.146   3.536   1.684  0.6831 -0.6576 -0.7622
  531TIP3    H223153   6.022   3.529   1.598 -0.0780  0.0663  0.2615
  532TIP3   OH223154   4.359   0.900   1.937 -0.0320  0.0068  0.0379
  532TIP3    H123155   4.263   0.903   1.930 -0.1671  1.7948  1.9186
  532TIP3    H223156   4.378   0.934   2.024  2.4148  1.1568 -0.8570
  533TIP3   OH223157   3.645   2.889   0.501 -0.0201 -0.1959 -0.1934
  533TIP3    H123158   3.619   2.938   0.423  0.2286  1.5405  0.7706
  533TIP3    H223159   3.563   2.871   0.546 -0.0163  0.6486  0.1773
  534TIP3   OH223160   1.103   5.233   1.087  0.0793 -0.0851  0.2112
  534TIP3    H123161   1.056   5.151   1.077  0.3174 -0.1860 -0.1328
  534TIP3    H223162   1.194   5.207   1.101  0.6080  0.0989 -2.2652
  535TIP3   OH223163   1.575   3.205   1.238  0.0375  0.2818  0.3206
  535TIP3    H123164   1.604   3.156   1.315 -0.4001 -0.0713  0.2634
  535TIP3    H223165   1.547   3.289   1.272  0.7160  0.4737  0.4311
  536TIP3   OH223166   5.814   5.793   0.673 -0.6770 -0.1652 -0.1400
  536TIP3    H123167   5.811   5.885   0.649 -0.2348 -0.1895 -0.2957
  536TIP3    H223168   5.906   5.775   0.689 -0.7217 -0.6596 -0.4201
  537TIP3   OH223169   6.304   3.079   1.269 -0.4929  0.6067 -0.3597
  537TIP3    H123170   6.337   2.990   1.286 -1.3668 -0.0951 -2.1180
  537TIP3    H223171   6.230   3.089   1.329 -0.3248  0.1936 -0.0755
  538TIP3   OH223172   5.290   0.401   7.074  0.9787 -0.0649 -0.1220
  538TIP3    H123173   5.360   0.341   7.047  1.0953 -0.6113  1.3022
  538TIP3    H223174   5.286   0.391   7.169 -2.2625 -1.4312 -0.2791
  539TIP3   OH223175   1.181   1.531   8.525 -0.7742 -0.4737  0.1567
  539TIP3    H123176   1.097   1.515   8.482 -0.8136  1.3896 -0.5615
  539TIP3    H223177   1.204   1.448   8.565 -0.8218 -2.3749 -3.3245
  540TIP3   OH223178   5.483   4.448   0.155 -0.0188 -0.8195  0.7339
  540TIP3    H123179   5.550   4.379   0.154 -0.0734 -0.8623 -0.2097
  540TIP3    H223180   5.473   4.474   0.064 -0.3071  0.1538  1.0309
  541TIP3   OH223181   3.602   2.759   0.992  0.1642 -0.0026 -0.2317
  541TIP3    H123182   3.655   2.697   1.042 -0.0144 -2.0481 -2.3611
  541TIP3    H223183   3.512   2.740   1.018  0.2393  1.4993  1.2868
  542TIP3   OH223184   4.156   3.362   7.409 -0.4465 -0.1025  0.8613
  542TIP3    H123185   4.068   3.354   7.446 -1.4697 -2.4787 -1.7789
  542TIP3    H223186   4.203   3.286   7.442 -0.2717 -0.3316  0.1005
  543TIP3   OH223187   0.810   4.536   6.167  0.0485 -0.2184 -0.4268
  543TIP3    H123188   0.747   4.607   6.153  0.3044  0.2360  0.6029
  543TIP3    H223189   0.871   4.571   6.233 -0.8435 -1.9926  1.4583
  544TIP3   OH223190   3.270   6.302   7.088 -0.5151 -0.3374  0.3458
  544TIP3    H123191   3.354   6.315   7.043 -0.0218 -1.7136  0.8173
  544TIP3    H223192   3.290   6.312   7.181 -1.5611  2.6200  0.3607
  545TIP3   OH223193   0.120   4.827   1.150  0.7937 -0.5243 -0.4860
  545TIP3    H123194   0.138   4.821   1.056  1.1491 -0.0296 -0.4553
  545TIP3    H223195   0.026   4.843   1.155  0.9360  0.5294 -0.8166
  546TIP3   OH223196   3.606   5.400   8.303 -0.2458 -0.3910 -0.0342
  546TIP3    H123197   3.554   5.351   8.239  0.6904 -1.4052 -0.0468
  546TIP3    H223198   3.576   5.490   8.294 -0.6684 -0.6406 -1.3781
  547TIP3   OH223199   4.837   0.077   0.323 -0.0312  0.2425  0.7127
  547TIP3    H123200   4.789   0.139   0.267 -0.8120 -0.2441  0.8236
  547TIP3    H223201   4.769   0.018   0.356  0.8413 -1.5459 -0.5044
  548TIP3   OH223202   1.751   4.027   7.937 -0.2866 -0.0197 -0.5814
  548TIP3    H123203   1.665   3.988   7.948 -0.2263 -0.3867 -1.3814
  548TIP3    H223204   1.796   3.970   7.875  0.9429 -0.4862  0.6616
  549TIP3   OH223205   5.760   0.775   0.537 -0.3148 -0.7649  0.3940
  549TIP3    H123206   5.774   0.683   0.562 -0.1288 -0.4114  1.7101
  549TIP3    H223207   5.686   0.803   0.590  1.4134  0.6210  2.2521
  550TIP3   OH223208   3.469   2.645   0.450  0.3497  0.1994  0.6865
  550TIP3    H123209   3.397   2.650   0.388  2.3706  0.0519 -1.8347
  550TIP3    H223210   3.427   2.629   0.534 -2.4145 -2.6505 -1.0238
  551TIP3   OH223211   4.174   6.586   1.991  0.2482 -0.6563 -0.3501
  551TIP3    H123212   4.219   6.501   1.985  2.4673  0.4699 -0.5989
  551TIP3    H223213   4.081   6.564   1.981  0.6878 -3.1216  0.2398
  552TIP3   OH223214   2.132   3.918   0.852  0.0141  0.5418 -0.1006
  552TIP3    H123215   2.158   3.982   0.918 -0.3564  0.4695  0.1128
  552TIP3    H223216   2.157   3.834   0.889  0.1795  0.5319 -0.2313
  553TIP3   OH223217   5.842   2.167   7.704  0.5254  0.3197  0.1975
  553TIP3    H123218   5.785   2.153   7.780  2.3991  1.4462  1.9171
  553TIP3    H223219   5.916   2.108   7.719 -0.2841 -1.4561 -2.2324
  554TIP3   OH223220   1.935   0.268   6.452 -0.8943  0.2273  0.0842
  554TIP3    H123221   1.863   0.322   6.486 -0.7030  0.7937 -0.3999
  554TIP3    H223222   2.001   0.331   6.425 -0.9925 -0.2117 -1.2475
  555TIP3   OH223223   3.439   1.113   6.637 -0.3442 -0.3294 -0.1809
  555TIP3    H123224   3.506   1.117   6.569  0.1446  1.2322  0.3304
  555TIP3    H223225   3.466   1.040   6.693  1.5789  0.8931  0.6062
  556TIP3   OH223226   3.466   5.305   7.634 -0.5092 -0.0473  0.0892
  556TIP3    H123227   3.486   5.242   7.565 -2.7726 -0.8029  0.0428
  556TIP3    H223228   3.429   5.252   7.705 -0.1727  0.9714  1.0630
  557TIP3   OH223229   3.178   0.948   0.397  0.0228  0.3763 -0.2068
  557TIP3    H123230   3.192   0.853   0.403  0.6619  0.5277  0.8920
  557TIP3    H223231   3.112   0.958   0.329  0.0562 -0.8525 -0.4385
  558TIP3   OH223232   4.931   5.221   1.390 -0.1069 -0.0161  0.3017
  558TIP3    H123233   4.861   5.157   1.382 -0.3885  0.5283 -2.5214
  558TIP3    H223234   4.998   5.177   1.442 -0.0603 -2.8463 -1.9331
  559TIP3   OH223235   4.860   2.224   7.835  0.1329  0.0734  0.0524
  559TIP3    H123236   4.944   2.262   7.810 -1.1730  3.9193  0.9394
  559TIP3    H223237   4.816   2.205   7.753 -0.7367  4.5553 -0.7414
  560TIP3   OH223238   1.666   3.748   0.844 -0.3592 -0.4997  0.2658
  560TIP3    H123239   1.578   3.711   0.832 -0.3669 -1.1931  2.1353
  560TIP3    H223240   1.671   3.768   0.937  1.2420  0.1749  0.0654
  561TIP3   OH223241   0.081   2.907   1.378  0.5353  0.3214  0.1537
  561TIP3    H123242   0.166   2.867   1.360  0.7450  1.2447 -1.0421
  561TIP3    H223243   0.085   2.993   1.335 -1.2860  0.0645 -0.6615
  562TIP3   OH223244   3.780   5.587   0.626  0.2730  0.8365  0.6179
  562TIP3    H123245   3.736   5.504   0.642 -0.8535  1.3803  0.4596
  562TIP3    H223246   3.759   5.640   0.703 -0.9060  1.7251 -0.2698
  563TIP3   OH223247   0.670   5.585   0.202  0.1493 -0.5983  0.3325
  563TIP3    H123248   0.613   5.510   0.222  1.1631 -1.5979 -0.4017
  563TIP3    H223249   0.704   5.567   0.114  1.7514 -0.1290  0.8208
  564TIP3   OH223250   0.970   4.508   0.358 -0.1923  0.2249  0.1130
  564TIP3    H123251   1.008   4.511   0.270 -1.2520  0.5112 -0.3471
  564TIP3    H223252   1.043   4.482   0.415  0.7561  1.0101 -0.7090
  565TIP3   OH223253   6.866   6.323   8.520  0.2006  0.5758  0.8642
  565TIP3    H123254   6.846   6.368   8.602  1.1167  1.5553  0.5653
  565TIP3    H223255   6.783   6.324   8.471 -0.2135  0.4417  1.5518
  566TIP3   OH223256   6.096   1.478   6.232 -0.5228  0.1996  1.6322
  566TIP3    H123257   6.098   1.516   6.320  4.9623  0.2370  1.8466
  566TIP3    H223258   6.099   1.553   6.173 -2.3292  0.1320  1.4014
  567TIP3   OH223259   6.333   5.181   7.370  0.4837 -0.0805 -0.1428
  567TIP3    H123260   6.316   5.202   7.278  1.9276 -0.2192 -0.4720
  567TIP3    H223261   6.339   5.086   7.372 -0.3428 -0.1349  0.2670
  568TIP3   OH223262   5.140   4.496   1.180 -0.2383 -0.2138  0.6610
  568TIP3    H123263   5.192   4.440   1.237  0.3064  0.8235  1.2091
  568TIP3    H223264   5.202   4.561   1.148 -0.2918 -1.3260 -1.9332
  569TIP3   OH223265   4.522   0.800   0.028  0.0787 -0.5587 -0.1926
  569TIP3    H123266   4.481   0.795  -0.058 -0.1906  0.7038 -0.1513
  569TIP3    H223267   4.591   0.734   0.026  0.6751  0.0846 -1.6997
  570TIP3   OH223268   6.572   0.947   7.996  0.4295 -0.4722  0.7757
  570TIP3    H123269   6.617   0.882   8.051  0.7968 -2.1053 -1.3283
  570TIP3    H223270   6.483   0.914   7.987  0.0537  0.3746  1.2446
  571TIP3   OH223271   1.520   6.876   8.406  0.0271  0.0985 -0.3621
  571TIP3    H123272   1.512   6.971   8.397  0.7032  0.1942 -0.0627
  571TIP3    H223273   1.475   6.855   8.488 -2.4052 -0.2065 -1.6940
  572TIP3   OH223274   0.806   0.011   1.377 -0.2091  0.4894  0.2012
  572TIP3    H123275   0.787   0.036   1.468  0.7992  2.4092 -0.0533
  572TIP3    H223276   0.896   0.040   1.363  0.9661 -3.0173 -0.3758
  573TIP3   OH223277   6.591   5.121   8.433  0.3139  0.5069  0.9008
  573TIP3    H123278   6.569   5.191   8.495  2.3341  2.5892 -0.5573
  573TIP3    H223279   6.646   5.164   8.367  0.4803 -2.1888 -0.8717
  574TIP3   OH223280   1.061   0.018   7.550 -0.1039 -0.1832 -0.3251
  574TIP3    H123281   1.087   0.001   7.460  2.4094  0.2927  0.2249
  574TIP3    H223282   1.072  -0.065   7.595  0.6397  0.0477 -0.0628
  575TIP3   OH223283   1.587   2.622   8.054 -0.0648  0.3359 -0.2717
  575TIP3    H123284   1.492   2.631   8.056 -0.5848 -3.3283 -1.8519
  575TIP3    H223285   1.605   2.543   8.105  2.1725  0.8122 -0.1940
  576TIP3   OH223286   2.206   1.767   7.103  0.8019  0.7301  0.1947
  576TIP3    H123287   2.247   1.730   7.025 -0.8020 -0.7653 -0.0113
  576TIP3    H223288   2.248   1.721   7.176  0.0785 -0.2689  0.0171
  577TIP3   OH223289   4.956   5.490   6.763  0.2958  0.0510 -0.2064
  577TIP3    H123290   4.897   5.565   6.753 -0.5688 -0.4462  0.9075
  577TIP3    H223291   4.915   5.437   6.832  1.9498 -0.4111  0.4621
  578TIP3   OH223292   1.938   1.117   7.170 -0.7780  0.6387  0.2768
  578TIP3    H123293   1.877   1.191   7.163  0.0608  1.2198 -1.2221
  578TIP3    H223294   2.011   1.151   7.221  0.1751  1.3036 -1.4224
  579TIP3   OH223295   6.398   2.701   6.786 -0.2137 -0.3864 -0.2100
  579TIP3    H123296   6.325   2.640   6.792  0.5918 -1.3774 -0.2418
  579TIP3    H223297   6.417   2.724   6.877  1.1132 -2.2063  0.0256
  580TIP3   OH223298   3.571   6.126   0.192 -0.0946 -0.1431 -0.2878
  580TIP3    H123299   3.548   6.059   0.127 -0.1438 -1.2877  0.8613
  580TIP3    H223300   3.562   6.081   0.277  0.9055  1.0196  0.4721
  581TIP3   OH223301   0.399   3.129   0.485 -0.0543  0.2843  0.1046
  581TIP3    H123302   0.344   3.208   0.486 -1.4915 -0.6484 -0.9362
  581TIP3    H223303   0.488   3.161   0.471 -0.8562  1.6464 -2.4843
  582TIP3   OH223304   4.004   3.242   0.918 -0.2941 -0.1194 -0.0873
  582TIP3    H123305   4.034   3.154   0.941  0.3555 -0.3723 -1.7412
  582TIP3    H223306   3.910   3.231   0.902 -0.0200 -0.7952 -1.3896
  583TIP3   OH223307   2.971   2.005   0.771  0.1245 -0.4408 -0.0880
  583TIP3    H123308   2.938   2.020   0.860 -1.9652  0.9502 -1.0317
  583TIP3    H223309   3.034   2.076   0.757  0.2240 -0.4790  0.1593
  584TIP3   OH223310   6.348   6.578   7.973  0.0326  0.1471  0.0574
  584TIP3    H123311   6.259   6.610   7.986 -0.4041 -0.9620 -0.0878
  584TIP3    H223312   6.390   6.588   8.059 -1.1410 -2.0072  0.9497
  585TIP3   OH223313   1.270   5.740   8.235  0.7526 -0.6790  0.3899
  585TIP3    H123314   1.286   5.684   8.159 -0.2992 -0.2473 -0.1749
  585TIP3    H223315   1.212   5.809   8.202 -0.9669 -1.3210  1.9257
  586TIP3   OH223316   1.499   4.420   2.216  0.0740  0.3422  0.3280
  586TIP3    H123317   1.536   4.450   2.298 -0.8729  1.1482  0.4782
  586TIP3    H223318   1.548   4.468   2.149 -0.0323  0.6600  0.4771
  587TIP3   OH223319   4.919   5.912   1.538  0.1776  0.4679  0.1507
  587TIP3    H123320   4.906   5.966   1.616 -0.7790 -0.2053  0.4722
  587TIP3    H223321   4.975   5.840   1.568 -0.9210 -0.2741  0.4497
  588TIP3   OH223322   0.471   0.625   7.682 -0.0832  0.3575 -0.4941
  588TIP3    H123323   0.422   0.545   7.701  1.4766 -0.0850  2.2459
  588TIP3    H223324   0.539   0.598   7.620  0.4537 -0.4900  0.4371
  589TIP3   OH223325   3.452   3.109   2.112  0.3303  0.2676  0.0259
  589TIP3    H123326   3.469   3.199   2.086  0.1927  0.7909  1.6565
  589TIP3    H223327   3.512   3.093   2.185 -1.2501 -0.1488  1.3104
  590TIP3   OH223328   6.743   1.812   0.228 -0.1127 -0.3576 -0.3863
  590TIP3    H123329   6.684   1.746   0.264 -0.6613 -0.0826 -0.7768
  590TIP3    H223330   6.831   1.775   0.242 -0.1047  0.5692  3.0215
  591TIP3   OH223331   5.674   4.006   8.362  1.0300 -0.0064  0.5817
  591TIP3    H123332   5.732   4.070   8.321  2.1816 -0.7326  1.0457
  591TIP3    H223333   5.694   4.011   8.455 -1.0742  1.1345  1.0270
  592TIP3   OH223334   2.944   4.273   7.867  0.3323  0.7988 -0.2033
  592TIP3    H123335   2.971   4.346   7.812 -1.0333  1.4609 -0.0461
  592TIP3    H223336   2.874   4.309   7.922 -0.7648 -0.7388 -0.5101
  593TIP3   OH223337   3.934   3.673   7.220 -0.0861 -0.1278 -0.0386
  593TIP3    H123338   3.981   3.740   7.270  0.7946 -1.3731  0.8383
  593TIP3    H223339   3.893   3.618   7.286  0.2678 -1.2187 -0.7114
  594TIP3   OH223340   6.424   0.726   7.347  0.1309  0.2721 -0.3875
  594TIP3    H123341   6.387   0.686   7.426 -0.4461 -0.6573 -1.1056
  594TIP3    H223342   6.504   0.676   7.330  0.2439  0.4579 -0.4107
  595TIP3   OH223343   3.138   3.197   7.207  0.4381 -0.2587 -0.0484
  595TIP3    H123344   3.105   3.268   7.153  0.3675 -0.8013 -0.7317
  595TIP3    H223345   3.094   3.119   7.174  0.0507 -0.5459  1.0883
  596TIP3   OH223346   3.624   3.615   8.267  0.8455  0.2414  0.5682
  596TIP3    H123347   3.584   3.534   8.235  1.1547  0.5503 -0.6478
  596TIP3    H223348   3.603   3.616   8.360  0.0608 -0.7851  0.4302
  597TIP3   OH223349   1.054   0.991   7.822 -0.5706  0.0848  0.4098
  597TIP3    H123350   0.958   0.985   7.823 -0.6474  1.1237  1.3808
  597TIP3    H223351   1.083   0.900   7.825 -1.5419 -0.2206  1.6406
  598TIP3   OH223352   3.741   1.007   1.226 -0.3653 -0.0563  0.4017
  598TIP3    H123353   3.743   1.035   1.134 -2.8008 -0.8760  0.0322
  598TIP3    H223354   3.673   0.940   1.229  0.4189 -0.8170  2.6250
  599TIP3   OH223355   5.941   0.222   7.986 -0.6286 -0.0192 -0.0728
  599TIP3    H123356   5.886   0.289   7.946 -2.0384 -0.5992  0.8212
  599TIP3    H223357   5.931   0.236   8.080  0.5559 -0.3141  0.1113
  600TIP3   OH223358   3.234   1.823   0.649  0.1545  0.3925 -0.1228
  600TIP3    H123359   3.239   1.742   0.598  0.1360  1.5028 -1.9756
  600TIP3    H223360   3.141   1.845   0.649  0.3229  1.1580 -0.8976
  601TIP3   OH223361   1.447   4.200   7.746 -0.9491 -0.0905 -0.6234
  601TIP3    H123362   1.486   4.241   7.668 -1.7975  0.7715 -0.6151
  601TIP3    H223363   1.356   4.186   7.723 -0.9131 -1.0581 -0.2381
  602TIP3   OH223364   5.190   4.152   0.438  0.3691 -0.1657  0.2542
  602TIP3    H123365   5.234   4.235   0.417  2.6430 -1.8208 -2.1272
  602TIP3    H223366   5.207   4.139   0.531  0.5442  1.6851  0.5235
  603TIP3   OH223367   6.325   6.197   2.270  0.4306 -0.6344 -0.4438
  603TIP3    H123368   6.321   6.292   2.270  0.8860 -0.6105  0.0396
  603TIP3    H223369   6.242   6.169   2.309  0.5260 -0.4203 -0.0825
  604TIP3   OH223370   1.180   3.441   1.291 -0.0525  0.6215 -0.3067
  604TIP3    H123371   1.215   3.520   1.249 -0.4013  0.9493  0.0091
  604TIP3    H223372   1.086   3.458   1.298 -0.3445 -0.3775 -1.4396
  605TIP3   OH223373   6.468   2.746   1.025  0.0234  0.0070 -0.2489
  605TIP3    H123374   6.528   2.782   1.090  2.1341 -0.5662 -1.7769
  605TIP3    H223375   6.446   2.659   1.059 -1.0859  0.7353  0.9818
  606TIP3   OH223376   6.609   3.529   1.705  0.1638  0.1999  0.5833
  606TIP3    H123377   6.591   3.549   1.613 -0.0489  1.1439  0.8176
  606TIP3    H223378   6.548   3.585   1.754  0.0710 -0.5100  1.2937
  607TIP3   OH223379   5.926   0.456   8.515  0.1942 -0.5501  0.1746
  607TIP3    H123380   5.983   0.512   8.463 -0.2516 -1.2731 -1.1456
  607TIP3    H223381   5.844   0.505   8.521  0.6473  0.0984  1.3184
  608TIP3   OH223382   6.491   1.790   0.018  0.1207 -0.4145 -0.6224
  608TIP3    H123383   6.399   1.772   0.003  0.4136 -0.9474 -1.9147
  608TIP3    H223384   6.506   1.764   0.109 -0.8976 -0.7152 -0.5287
  609TIP3   OH223385   4.993   4.286   1.360 -0.5322 -0.3976  0.1041
  609TIP3    H123386   5.058   4.270   1.292 -0.6418  0.7473 -0.2977
  609TIP3    H223387   4.909   4.275   1.315 -0.6044  0.4192  0.0325
  610TIP3   OH223388   6.507   4.714   7.127  0.0370  0.2507 -0.3519
  610TIP3    H123389   6.427   4.661   7.126 -0.3269  0.7730  0.2304
  610TIP3    H223390   6.532   4.722   7.035 -0.3842 -0.2051 -0.5121
  611TIP3   OH223391   3.600   6.331   7.253 -0.2004  0.6842 -0.4402
  611TIP3    H123392   3.610   6.250   7.204 -0.0437  1.8565 -2.4760
  611TIP3    H223393   3.688   6.350   7.287  0.4583  1.4096 -2.4025
  612TIP3   OH223394   1.740   3.772   7.774 -0.0868  0.4685 -0.3997
  612TIP3    H123395   1.767   3.777   7.683 -0.1319  1.0506 -0.3846
  612TIP3    H223396   1.820   3.749   7.822 -0.0192  0.3683 -0.5611
  613TIP3   OH223397   5.144   1.220   0.877 -0.1283  0.4175 -0.2013
  613TIP3    H123398   5.092   1.281   0.928  0.2525  0.3456  0.2741
  613TIP3    H223399   5.207   1.275   0.830 -0.7777  0.5283 -0.9669
  614TIP3   OH223400   3.399   0.523   8.515 -0.7337  0.0780 -0.0880
  614TIP3    H123401   3.315   0.479   8.506 -0.4195 -0.5749  0.0873
  614TIP3    H223402   3.424   0.546   8.426 -2.0051  2.0465  0.0164
  615TIP3   OH223403   3.160   1.317   8.320 -0.2916 -0.2240 -0.2004
  615TIP3    H123404   3.190   1.340   8.232 -2.2955 -0.8564 -1.1104
  615TIP3    H223405   3.157   1.221   8.320 -0.8731 -0.2143  0.3578
  616TIP3   OH223406   2.309   2.398   2.053 -0.2169 -0.2768 -0.7346
  616TIP3    H123407   2.219   2.416   2.026  0.2104  1.0927 -1.3221
  616TIP3    H223408   2.307   2.408   2.149 -1.0275 -1.9373 -0.5406
  617TIP3   OH223409   2.667   1.636   7.101  0.0236  0.4334 -0.0365
  617TIP3    H123410   2.739   1.674   7.051 -1.2834  1.0531 -1.5123
  617TIP3    H223411   2.590   1.688   7.078 -1.5470 -2.0792 -0.9378
  618TIP3   OH223412   1.328   3.088   7.952  0.4908 -0.5798  0.7034
  618TIP3    H123413   1.271   3.110   7.879  0.7707 -3.5180 -0.5642
  618TIP3    H223414   1.355   3.172   7.989 -1.1683  0.9563 -1.3736
  619TIP3   OH223415   3.024   4.184   1.596 -0.1520  0.1539  0.9739
  619TIP3    H123416   3.018   4.227   1.682 -0.3427  2.4873 -0.1346
  619TIP3    H223417   2.963   4.233   1.540  0.0595 -1.2331 -0.5335
  620TIP3   OH223418   0.659   1.289   7.599 -0.2937  0.1753 -0.4922
  620TIP3    H123419   0.719   1.216   7.586 -0.7647 -0.3577  0.2417
  620TIP3    H223420   0.705   1.365   7.562 -0.4284 -0.7230 -2.6173
  621TIP3   OH223421   1.457   1.626   1.935 -0.0550  0.0149  0.4633
  621TIP3    H123422   1.477   1.533   1.941  0.3793 -0.3838 -3.8760
  621TIP3    H223423   1.543   1.668   1.923 -0.4297  0.5839 -0.3056
  622TIP3   OH223424   1.141   2.544   8.571 -0.6067  0.1162  0.1405
  622TIP3    H123425   1.093   2.513   8.494 -0.2773  2.4381 -1.1013
  622TIP3    H223426   1.220   2.585   8.534  0.4179 -0.2051  1.8650
  623TIP3   OH223427   6.078   0.307   6.468 -0.1109 -0.0924  0.4437
  623TIP3    H123428   6.012   0.252   6.426  0.2467 -0.8968  0.9016
  623TIP3    H223429   6.145   0.320   6.400 -1.0088  1.2491 -0.2251
  624TIP3   OH223430   5.986   6.045   1.863  0.9728 -0.2769 -0.1434
  624TIP3    H123431   5.997   6.007   1.951 -0.5835  0.3923  0.3856
  624TIP3    H223432   6.060   6.105   1.854 -0.0754  1.4567  1.7651
  625TIP3   OH223433   6.710   4.741   8.525  0.1642  0.4003 -0.3441
  625TIP3    H123434   6.701   4.654   8.564 -0.6401  0.5364 -0.2115
  625TIP3    H223435   6.623   4.760   8.489  0.6205  0.6983 -1.3226
  626TIP3   OH223436   3.277   2.305   7.119  0.2732  0.3034  0.2615
  626TIP3    H123437   3.253   2.376   7.060 -1.9220 -1.4762 -1.1841
  626TIP3    H223438   3.242   2.331   7.204  1.6228  1.9676  0.3536
  627TIP3   OH223439   3.930   1.168   7.693  0.1780  0.2746  0.1717
  627TIP3    H123440   3.955   1.253   7.729 -0.5570 -0.1881  1.8892
  627TIP3    H223441   3.893   1.121   7.768 -2.7984 -0.2562 -1.5178
  628TIP3   OH223442   3.705   5.299   0.658  0.7659 -0.5431  0.1711
  628TIP3    H123443   3.651   5.233   0.700 -2.0736  1.5785  0.1702
  628TIP3    H223444   3.693   5.285   0.564 -2.1024  1.4519  0.1123
  629TIP3   OH223445   4.059   0.949   1.665 -0.3813 -0.0351  0.6167
  629TIP3    H123446   4.012   0.882   1.713 -1.4973  0.3199  0.0594
  629TIP3    H223447   4.018   1.031   1.691  0.8506  0.4381  1.1590
  630TIP3   OH223448   5.171   4.902   7.824  0.3383  0.0275 -0.1757
  630TIP3    H123449   5.174   4.807   7.811  0.6862  0.0405 -0.1793
  630TIP3    H223450   5.109   4.913   7.896  1.5732 -0.3273  0.9859
  631TIP3   OH223451   6.029   4.544   1.121  0.2931 -0.4808  0.0949
  631TIP3    H123452   6.038   4.588   1.206 -1.3851  0.3861 -0.1324
  631TIP3    H223453   6.074   4.460   1.133 -0.0013 -0.4321  1.8831
  632TIP3   OH223454   3.240   1.042   7.319 -0.5139 -0.0671 -0.3529
  632TIP3    H123455   3.179   1.106   7.283 -1.0410 -0.4118 -0.0786
  632TIP3    H223456   3.223   0.962   7.270 -1.7850 -0.7632  1.1564
  633TIP3   OH223457   3.315   1.336   7.465  0.2683 -0.1354  0.2181
  633TIP3    H123458   3.239   1.339   7.407  0.3829 -1.6851 -0.0621
  633TIP3    H223459   3.364   1.416   7.445 -1.5914  1.2526  0.8794
  634TIP3   OH223460   1.565   5.022   0.742  0.0406  0.2273 -0.2444
  634TIP3    H123461   1.584   4.966   0.667 -0.5913  0.5379 -0.6469
  634TIP3    H223462   1.589   5.110   0.713  0.4433  0.2539  0.1640
  635TIP3   OH223463   0.841   0.465   8.217 -0.3156 -0.0860  0.0072
  635TIP3    H123464   0.876   0.532   8.159  0.1319 -1.1759 -1.0136
  635TIP3    H223465   0.827   0.389   8.161  3.4611 -2.4241  1.8405
  636TIP3   OH223466   6.696   3.633   0.806  0.6446  0.3979  0.0224
  636TIP3    H123467   6.638   3.697   0.847 -2.3140 -1.8371 -0.3812
  636TIP3    H223468   6.710   3.567   0.874 -0.9428 -1.2689 -1.2025
  637TIP3   OH223469   1.494   2.731   0.304 -0.3268  0.2445  0.2395
  637TIP3    H123470   1.535   2.660   0.255  0.2610  1.2931 -0.8478
  637TIP3    H223471   1.400   2.711   0.300 -0.2355 -0.0366 -0.7712
  638TIP3   OH223472   5.824   0.232   6.406 -0.0742 -0.5038 -0.1551
  638TIP3    H123473   5.784   0.312   6.441  0.2742 -0.4902  0.2257
  638TIP3    H223474   5.756   0.192   6.352  0.2112  0.7656 -1.4901
  639TIP3   OH223475   3.681   0.638   7.131  0.7760  0.1162 -0.4537
  639TIP3    H123476   3.624   0.648   7.054  0.7644  0.6996 -0.3695
  639TIP3    H223477   3.621   0.611   7.201  0.6654  0.3230 -0.4667
  640TIP3   OH223478   6.148   5.720   8.610  0.0634 -0.0905  0.9165
  640TIP3    H123479   6.100   5.689   8.534 -0.4214 -2.3785  2.0629
  640TIP3    H223480   6.217   5.775   8.574 -3.1502  3.2337 -0.8273
  641TIP3   OH223481   1.204   0.039   2.582  0.1222 -0.5561  0.3015
  641TIP3    H123482   1.269   0.107   2.566  0.2779 -0.7959 -0.1004
  641TIP3    H223483   1.131   0.085   2.624  0.2703 -0.1641  0.1353
  642TIP3   OH223484   4.530   5.853   0.146  0.8592 -0.0955  0.3970
  642TIP3    H123485   4.586   5.780   0.118 -0.3804 -0.5714 -0.9098
  642TIP3    H223486   4.480   5.877   0.068  0.8862  1.8606  0.9271
  643TIP3   OH223487   4.286   3.597   7.529  0.8147 -0.0655 -0.5078
  643TIP3    H123488   4.232   3.620   7.604 -1.7613  1.0958 -2.5534
  643TIP3    H223489   4.247   3.517   7.494  2.6922 -1.2564 -0.0484
  644TIP3   OH223490   2.693   5.287   2.058 -0.0427  0.0005  0.5341
  644TIP3    H123491   2.707   5.376   2.025  0.9040 -0.5064 -0.4888
  644TIP3    H223492   2.644   5.299   2.139 -0.8006  1.4008 -0.0941
  645TIP3   OH223493   5.456   3.742   2.003 -0.0787  0.3484  0.4205
  645TIP3    H123494   5.464   3.825   1.955  1.9207  0.5447  0.9867
  645TIP3    H223495   5.486   3.675   1.941  0.0293  0.2804  0.5455
  646TIP3   OH223496   3.104   4.835   7.852 -0.2145  0.1248  0.6593
  646TIP3    H123497   3.157   4.809   7.928  0.7813 -3.0841 -0.9477
  646TIP3    H223498   3.166   4.880   7.794 -0.4911  0.7917  0.8725
  647TIP3   OH223499   6.401   1.397   1.718 -0.2575  0.1533 -0.4417
  647TIP3    H123500   6.347   1.475   1.712  0.4983  0.6481 -1.0648
  647TIP3    H223501   6.481   1.426   1.763 -0.2055 -0.3921 -0.1691
  648TIP3   OH223502   2.422   5.861   8.074  0.5543  0.0645 -0.5066
  648TIP3    H123503   2.511   5.869   8.109  0.9389  1.2150 -1.6763
  648TIP3    H223504   2.366   5.895   8.144  0.9194 -1.6380  0.6496
  649TIP3   OH223505   5.667   0.475   8.329  0.0271 -0.5128  0.2312
  649TIP3    H123506   5.686   0.549   8.386  0.6972  0.5656 -1.3131
  649TIP3    H223507   5.580   0.446   8.355 -1.2252  2.2238 -0.4876
  650TIP3   OH223508   6.103   6.183   7.454 -0.7605 -0.2382 -0.5619
  650TIP3    H123509   6.166   6.118   7.485  0.2032  0.1577 -1.6100
  650TIP3    H223510   6.157   6.256   7.424 -1.7778  0.5906 -0.4437
  651TIP3   OH223511   2.823   4.412   1.561  0.5287  0.9697  0.3503
  651TIP3    H123512   2.908   4.448   1.537  0.6240  0.3509 -0.2892
  651TIP3    H223513   2.760   4.475   1.527  0.7098  0.8274 -0.2765
  652TIP3   OH223514   3.645   5.579   1.953  0.1053  0.3061 -0.6295
  652TIP3    H123515   3.628   5.642   2.024 -1.2664 -1.3262  0.5610
  652TIP3    H223516   3.699   5.628   1.891  0.7101  2.0576  1.1515
  653TIP3   OH223517   6.462   5.552   0.041  0.1480  0.1584 -0.5244
  653TIP3    H123518   6.511   5.633   0.032 -2.4926  1.9053 -0.3033
  653TIP3    H223519   6.440   5.547   0.134 -0.5389 -0.2758 -0.7018
  654TIP3   OH223520   3.901   2.299   8.507  0.0192 -0.4482 -0.2141
  654TIP3    H123521   3.924   2.341   8.589  1.7310  1.5193 -1.6144
  654TIP3    H223522   3.823   2.347   8.477  1.8999  1.8472 -1.7513
  655TIP3   OH223523   6.597   6.725   0.060  0.3708  0.1653  0.2847
  655TIP3    H123524   6.579   6.736   0.154 -0.3630 -0.4085  0.2211
  655TIP3    H223525   6.540   6.653   0.033  2.4936 -1.4744 -0.0328
  656TIP3   OH223526   2.317   4.010   0.652 -0.3531  0.0388  0.1794
  656TIP3    H123527   2.275   3.977   0.732  0.7701  0.7905  1.1193
  656TIP3    H223528   2.384   4.071   0.684  0.0380  0.4531 -1.3546
  657TIP3   OH223529   0.157   5.823   6.393 -0.5451  0.3142  0.4006
  657TIP3    H123530   0.237   5.791   6.351 -0.8868  1.2187 -1.0085
  657TIP3    H223531   0.114   5.744   6.426  1.1532 -0.1505  1.6456
  658TIP3   OH223532   3.195   2.229   0.074 -0.0150  0.2400  0.1663
  658TIP3    H123533   3.152   2.301   0.028  0.6487  0.2938 -0.3810
  658TIP3    H223534   3.154   2.150   0.040 -0.1571  0.3228  0.1463
  659TIP3   OH223535   1.920   3.429   8.650 -0.5577 -0.4208 -0.6230
  659TIP3    H123536   2.004   3.451   8.611 -0.6263 -0.0434 -0.5676
  659TIP3    H223537   1.898   3.343   8.615 -0.2789 -0.3997 -0.8507
  660TIP3   OH223538   2.469   1.538   8.125  0.2032 -0.7009  0.2332
  660TIP3    H123539   2.565   1.539   8.125  0.2764 -1.0090  2.7939
  660TIP3    H223540   2.444   1.620   8.167 -0.7982  0.3083 -2.1274
  661TIP3   OH223541   0.856   1.946   1.140 -0.2735 -0.1920  0.2065
  661TIP3    H123542   0.848   1.923   1.047 -0.7032 -0.3482  0.2788
  661TIP3    H223543   0.767   1.937   1.174 -0.5903  2.0821  0.1226
  662TIP3   OH223544   3.295   5.269   7.322 -0.4183  0.4095  0.4104
  662TIP3    H123545   3.318   5.362   7.329 -1.6753  0.7411  0.4397
  662TIP3    H223546   3.300   5.249   7.229  1.2796  0.0963  0.5369
  663TIP3   OH223547   4.152   5.293   1.013 -0.4713  0.7844 -0.1898
  663TIP3    H123548   4.094   5.303   0.937 -0.4391  1.5299 -0.1225
  663TIP3    H223549   4.156   5.381   1.051 -0.1446  0.5032  0.4250
  664TIP3   OH223550   0.832   2.153   1.732 -0.0204 -0.9037 -0.3993
  664TIP3    H123551   0.746   2.123   1.764  0.6083 -0.8786  1.3805
  664TIP3    H223552   0.892   2.083   1.757  0.7444 -0.1777 -0.1979
  665TIP3   OH223553   1.403   6.661   0.419 -0.4584 -0.4015  1.0267
  665TIP3    H123554   1.352   6.594   0.465  0.0487  0.1012  2.3981
  665TIP3    H223555   1.477   6.677   0.477  0.4548 -0.0382 -0.2185
  666TIP3   OH223556   1.875   6.187   0.674  0.3021 -0.2126  0.3770
  666TIP3    H123557   1.826   6.110   0.700  0.2226 -0.0767  0.6305
  666TIP3    H223558   1.934   6.156   0.605 -0.4408 -0.2867 -0.2383
  667TIP3   OH223559   5.767   1.881   1.688 -0.0468  0.5871 -0.3762
  667TIP3    H123560   5.784   1.910   1.599  0.4777  1.6300  0.0439
  667TIP3    H223561   5.675   1.856   1.688  0.1347 -0.1186 -1.3841
  668TIP3   OH223562   5.154   1.554   6.640 -0.0832  0.3542 -0.3293
  668TIP3    H123563   5.190   1.468   6.617  0.6307 -0.3127  2.8117
  668TIP3    H223564   5.062   1.537   6.662 -0.8450  1.0308 -2.7337
  669TIP3   OH223565   5.081   3.301   2.159  0.1251  0.0257  0.2094
  669TIP3    H123566   5.128   3.257   2.230 -0.2487 -0.3678  0.2161
  669TIP3    H223567   5.052   3.384   2.197  0.1707 -0.0574  0.4254
  670TIP3   OH223568   1.089   5.969   6.924  0.6142  0.5359  0.6404
  670TIP3    H123569   1.164   5.931   6.971  2.9061  3.0736 -0.7170
  670TIP3    H223570   1.098   5.937   6.835 -1.4969 -1.1467  0.9350
  671TIP3   OH223571   2.016   2.941   7.225  0.4305  0.5793  0.3129
  671TIP3    H123572   2.032   2.942   7.319  1.1624 -0.0673  0.2067
  671TIP3    H223573   2.096   2.979   7.188  1.2606 -1.5090 -0.1736
  672TIP3   OH223574   0.853   6.483   7.790  0.4577  0.1324  0.0076
  672TIP3    H123575   0.759   6.477   7.810  0.5489  0.5956  0.6052
  672TIP3    H223576   0.896   6.480   7.876  1.0156 -0.4599 -0.2832
  673TIP3   OH223577   1.046   2.135   8.105 -0.2256 -0.3033 -0.2946
  673TIP3    H123578   1.066   2.081   8.028  3.2210 -0.1908  0.3880
  673TIP3    H223579   1.119   2.197   8.111 -1.1289  0.6417  2.2784
  674TIP3   OH223580   6.666   3.957   0.666  0.1993  0.2628  0.2109
  674TIP3    H123581   6.697   3.906   0.741 -2.5647 -2.0828 -0.0463
  674TIP3    H223582   6.610   4.024   0.705  0.0480  0.0658  0.3366
  675TIP3   OH223583   5.374   2.158   7.197  0.2061 -0.2255  0.4347
  675TIP3    H123584   5.321   2.082   7.219 -2.2418  1.4897  0.9357
  675TIP3    H223585   5.439   2.126   7.134 -1.2740 -2.5288 -0.0196
  676TIP3   OH223586   0.562   0.035   2.416  0.0373  0.4386 -0.4382
  676TIP3    H123587   0.548   0.032   2.511 -1.8378  0.4324 -0.6743
  676TIP3    H223588   0.656   0.017   2.405  0.0227 -1.0725  1.3352
  677TIP3   OH223589   0.882   2.381   7.138  0.6263  0.2641 -0.0304
  677TIP3    H123590   0.788   2.361   7.148  0.9764 -1.0907  0.8435
  677TIP3    H223591   0.901   2.360   7.047 -0.1896  1.8770 -0.6180
  678TIP3   OH223592   0.477   1.078   6.846 -0.3173 -0.1970 -0.0022
  678TIP3    H123593   0.496   1.006   6.787 -0.1128 -1.2878  1.3513
  678TIP3    H223594   0.457   1.036   6.930  2.3947  1.3608  1.5448
  679TIP3   OH223595   0.905   2.528   0.231 -0.0381 -0.1225  0.0597
  679TIP3    H123596   0.952   2.445   0.233 -2.2176 -1.4439  0.2115
  679TIP3    H223597   0.923   2.568   0.317  2.5660  0.5738 -0.7138
  680TIP3   OH223598   1.147   2.103   7.144 -0.0012 -0.1557  0.0592
  680TIP3    H123599   1.111   2.125   7.058  2.1665  1.9025 -0.4047
  680TIP3    H223600   1.238   2.081   7.128 -0.4624 -3.6932  1.4136
  681TIP3   OH223601   1.011   0.382   7.219 -0.3623  0.7698  0.2466
  681TIP3    H123602   0.978   0.292   7.216  1.3359  0.1140 -2.7707
  681TIP3    H223603   0.955   0.430   7.158  1.1967  0.7166 -1.3111
  682TIP3   OH223604   3.143   0.032   2.084 -0.0240 -0.0973  0.2533
  682TIP3    H123605   3.071  -0.013   2.041  0.3570 -1.3009  0.8460
  682TIP3    H223606   3.154   0.113   2.034  0.6641 -1.6016 -2.1938
  683TIP3   OH223607   2.170   1.640   1.884 -0.1041  0.1346 -0.3640
  683TIP3    H123608   2.257   1.602   1.885  0.0780  0.5270 -1.0806
  683TIP3    H223609   2.149   1.651   1.791 -0.0958  1.8891 -0.2022
  684TIP3   OH223610   5.997   6.693   7.099 -0.1626  0.0232  0.8848
  684TIP3    H123611   6.065   6.700   7.032 -0.0413  1.4268  1.1218
  684TIP3    H223612   5.951   6.777   7.095 -2.0865 -0.9955  0.5347
  685TIP3   OH223613   5.606   0.531   0.935 -0.2081  0.1216 -0.1792
  685TIP3    H123614   5.526   0.568   0.899 -1.1222 -0.1024  1.5161
  685TIP3    H223615   5.627   0.457   0.879 -1.6322 -0.2815 -0.1981
  686TIP3   OH223616   2.263   3.990   1.114  0.0605  0.3245 -0.3465
  686TIP3    H123617   2.187   4.015   1.166  0.6170 -0.0906  0.6787
  686TIP3    H223618   2.323   4.064   1.120  1.1059 -0.6121  1.5331
  687TIP3   OH223619   6.099   2.629   2.189  1.1609 -0.3666 -0.4536
  687TIP3    H123620   6.085   2.691   2.261  1.3304 -0.6740 -0.1535
  687TIP3    H223621   6.095   2.543   2.230  0.8985 -0.5559 -0.8758
  688TIP3   OH223622   6.446   0.460   8.004  0.2218 -0.2015 -0.7699
  688TIP3    H123623   6.399   0.376   8.005  0.0541 -0.1185  0.4270
  688TIP3    H223624   6.533   0.439   8.037 -0.1945  0.2626  0.7293
  689TIP3   OH223625   0.758   1.408   2.517  0.2318 -0.6374  0.2325
  689TIP3    H123626   0.678   1.442   2.478  1.5615  1.5294 -0.8210
  689TIP3    H223627   0.751   1.313   2.509 -1.1112 -0.4069 -2.1373
  690TIP3   OH223628   5.439   0.799   6.146 -0.0296 -0.1983  0.9055
  690TIP3    H123629   5.446   0.729   6.210 -0.5844 -0.6424  0.4952
  690TIP3    H223630   5.469   0.760   6.064 -0.0842  0.1217  0.7300
  691TIP3   OH223631   2.951   0.759   0.109 -0.9187 -0.1204  0.2320
  691TIP3    H123632   2.915   0.788   0.193 -1.7593 -1.3105  0.3148
  691TIP3    H223633   3.025   0.702   0.132 -0.9798 -0.2289  0.1638
  692TIP3   OH223634   2.067   6.595   7.011 -0.2383 -0.5708 -0.3480
  692TIP3    H123635   2.111   6.510   7.003 -2.6850 -2.0416  0.5997
  692TIP3    H223636   2.023   6.607   6.927  0.0137 -0.2750 -0.4403
  693TIP3   OH223637   1.043   6.483   2.664 -0.2824  0.4171 -0.2647
  693TIP3    H123638   0.997   6.427   2.727 -0.1104 -0.5756 -1.0040
  693TIP3    H223639   1.002   6.463   2.580  0.2490  0.9080 -0.6482
  694TIP3   OH223640   0.432   1.446   7.570  0.1835  0.0561 -0.8832
  694TIP3    H123641   0.488   1.377   7.605  0.4146  0.5400 -0.2706
  694TIP3    H223642   0.358   1.449   7.631  0.8689  1.3000 -0.0729
  695TIP3   OH223643   3.383   6.037   7.927  0.9662 -0.0378 -0.4201
  695TIP3    H123644   3.388   6.130   7.947  0.0274 -0.0662 -0.0360
  695TIP3    H223645   3.475   6.009   7.923  1.2361  0.7174  0.2802
  696TIP3   OH223646   5.378   3.345   1.231 -0.2224  0.1192 -0.0934
  696TIP3    H123647   5.373   3.421   1.173 -0.3620  1.0098  1.0452
  696TIP3    H223648   5.458   3.359   1.281 -0.2346 -0.4972  0.0992
  697TIP3   OH223649   3.950   2.151   8.156 -0.6465  0.4065  0.0816
  697TIP3    H123650   3.975   2.096   8.230 -0.0675 -1.5657 -1.4875
  697TIP3    H223651   3.857   2.133   8.143 -0.8622  1.1094  0.5827
  698TIP3   OH223652   2.092   0.029   6.971  0.1041 -0.4892 -0.4626
  698TIP3    H123653   2.142  -0.030   7.027 -1.1196 -0.9083  0.2305
  698TIP3    H223654   2.097  -0.011   6.884 -0.2647 -1.3445 -0.1036
  699TIP3   OH223655   1.682   1.418   0.839 -0.5788 -0.6034  0.0321
  699TIP3    H123656   1.764   1.451   0.876 -0.1994 -1.2524 -0.2133
  699TIP3    H223657   1.614   1.471   0.880  0.0901  1.7047 -1.6248
  700TIP3   OH223658   3.643   3.945   1.249  0.0862 -0.3790  0.4239
  700TIP3    H123659   3.615   3.855   1.233  1.9808 -0.7104 -1.4571
  700TIP3    H223660   3.734   3.938   1.277 -0.0645  0.9068  1.2984
  701TIP3   OH223661   0.101   3.850   7.611  0.7903 -0.2826 -0.0695
  701TIP3    H123662   0.157   3.911   7.659  1.3703 -1.1109  0.3218
  701TIP3    H223663   0.159   3.778   7.587  0.5997  0.2198 -2.2753
  702TIP3   OH223664   1.383   6.390   7.637  0.3453  0.0347 -0.0263
  702TIP3    H123665   1.417   6.307   7.671  0.0766 -0.3748 -0.7276
  702TIP3    H223666   1.342   6.432   7.712 -0.9727 -1.2232  0.0173
  703TIP3   OH223667   6.877   0.930   8.274  0.8348  0.0642  0.0021
  703TIP3    H123668   6.956   0.889   8.237  1.4547  0.1118  1.2296
  703TIP3    H223669   6.806   0.900   8.218  1.9528  1.7589 -2.5039
  704TIP3   OH223670   3.915   1.664   1.940 -0.2497 -0.1730 -0.3028
  704TIP3    H123671   3.831   1.681   1.984 -0.5558  0.9992 -1.2982
  704TIP3    H223672   3.898   1.587   1.885  0.0945 -1.5713  1.4268
  705TIP3   OH223673   6.660   0.229   7.768 -0.4971  0.5358  0.3566
  705TIP3    H123674   6.653   0.244   7.674 -0.7120  0.8867  0.4310
  705TIP3    H223675   6.591   0.165   7.788  1.8178 -2.4380 -0.3558
  706TIP3   OH223676   3.469   0.596   6.962 -0.6259 -0.3692  0.5090
  706TIP3    H123677   3.410   0.545   6.908 -1.0821  2.7120 -2.2436
  706TIP3    H223678   3.417   0.671   6.991  1.0346  0.7787  0.7093
  707TIP3   OH223679   3.503   1.645   2.256  0.5247  0.0792 -0.6280
  707TIP3    H123680   3.429   1.605   2.211  0.5482 -0.7625  0.0652
  707TIP3    H223681   3.470   1.730   2.284 -0.0340 -0.1081 -0.7058
  708TIP3   OH223682   6.224   3.910   0.979  0.1468  0.2683  0.5945
  708TIP3    H123683   6.191   3.850   0.912  0.6587  0.2360  0.3679
  708TIP3    H223684   6.235   3.855   1.057 -0.9810  0.4189  0.8775
  709TIP3   OH223685   4.352   3.869   6.615 -0.0988  0.1262  0.4477
  709TIP3    H123686   4.330   3.934   6.681  0.0322  0.7482 -0.1086
  709TIP3    H223687   4.287   3.882   6.546 -0.4190 -0.7183  0.5780
  710TIP3   OH223688   5.186   4.739   1.399 -0.0601  0.0463  0.0195
  710TIP3    H123689   5.266   4.732   1.347 -1.2241 -2.9000 -1.6247
  710TIP3    H223690   5.195   4.671   1.466 -1.0274 -0.1063  0.0128
  711TIP3   OH223691   1.816   6.470   7.859 -0.0333  0.3820  0.2948
  711TIP3    H123692   1.760   6.480   7.936 -2.3507 -1.2201 -1.0507
  711TIP3    H223693   1.757   6.476   7.785  1.7096 -0.6078 -1.2750
  712TIP3   OH223694   6.228   4.601   7.968  0.3594  0.0179 -0.0406
  712TIP3    H123695   6.317   4.591   7.935 -0.1814 -1.8369 -1.0782
  712TIP3    H223696   6.192   4.512   7.968 -2.0403  0.8984 -1.2773
  713TIP3   OH223697   0.656   2.301   0.756  0.2048  0.6420 -0.0717
  713TIP3    H123698   0.610   2.355   0.692  1.5054 -0.6235 -2.2047
  713TIP3    H223699   0.592   2.286   0.826 -2.2010  0.0420 -2.2475
  714TIP3   OH223700   6.462   4.486   0.319  0.1412 -0.0105  0.2595
  714TIP3    H123701   6.550   4.501   0.354 -0.0430 -1.6931  1.5818
  714TIP3    H223702   6.476   4.441   0.236  0.5309 -0.5675  0.6223
  715TIP3   OH223703   6.516   6.615   8.207 -0.0996  0.2980  0.4217
  715TIP3    H123704   6.608   6.639   8.207 -0.2865  1.0987  1.5258
  715TIP3    H223705   6.510   6.539   8.265 -0.1302  0.1989  0.2907
  716TIP3   OH223706   6.385   0.563   8.253  0.7209  0.1857 -0.6488
  716TIP3    H123707   6.475   0.543   8.277  0.3257 -2.8085 -1.3275
  716TIP3    H223708   6.385   0.562   8.158 -0.2655 -1.2112 -0.6526
  717TIP3   OH223709   4.035   5.795   1.986  0.0894 -0.5699  0.3244
  717TIP3    H123710   4.043   5.731   2.057 -0.5616 -0.8101  0.1962
  717TIP3    H223711   4.121   5.797   1.946  0.6415  0.0073  1.4820
  718TIP3   OH223712   0.561   2.239   0.242 -0.0636 -0.0461 -0.0613
  718TIP3    H123713   0.535   2.326   0.210 -0.7983  0.3173  1.4262
  718TIP3    H223714   0.645   2.223   0.201  1.1581  2.3618  1.2559
  719TIP3   OH223715   1.926   6.064   1.683 -0.0149 -0.0688  0.0355
  719TIP3    H123716   1.833   6.063   1.661  0.1288  1.3492 -0.7504
  719TIP3    H223717   1.942   6.151   1.720  0.7798 -0.6901  1.2323
  720TIP3   OH223718   2.055   5.263   2.342  0.4492 -0.1100 -0.4361
  720TIP3    H123719   2.064   5.310   2.259  1.3727  1.0427  0.2884
  720TIP3    H223720   2.052   5.171   2.318 -0.6798  0.2565 -1.8482
  721TIP3   OH223721   3.905   3.569   0.332 -0.0562 -0.3350 -0.2067
  721TIP3    H123722   3.992   3.531   0.339  0.5050  1.1409  1.3811
  721TIP3    H223723   3.883   3.595   0.421 -1.4502  0.7823 -0.8418
  722TIP3   OH223724   5.616   1.165   8.121 -0.7108 -0.2026 -0.6119
  722TIP3    H123725   5.615   1.080   8.076 -0.4945 -0.2022 -0.6162
  722TIP3    H223726   5.637   1.228   8.052  1.5856 -0.4121 -0.1515
  723TIP3   OH223727   1.173   3.055   0.648 -0.1572  0.5882 -0.0274
  723TIP3    H123728   1.232   3.078   0.719  0.2432  2.1835 -0.8265
  723TIP3    H223729   1.219   2.988   0.598  0.8456  1.5385 -0.4178
  724TIP3   OH223730   6.490   0.394   1.384  0.6867 -0.2979 -0.1696
  724TIP3    H123731   6.452   0.471   1.342 -2.5002 -2.7251 -2.2144
  724TIP3    H223732   6.486   0.413   1.478 -1.9982  1.2765 -0.4982
  725TIP3   OH223733   3.971   4.959   1.260 -0.1042 -0.2250 -0.4555
  725TIP3    H123734   3.911   5.013   1.312  0.6912  0.7276 -0.5021
  725TIP3    H223735   4.001   4.891   1.321 -3.3080 -2.5112 -1.1239
  726TIP3   OH223736   1.112   2.712   1.517  0.2046 -0.3968 -0.1157
  726TIP3    H123737   1.199   2.732   1.551  0.1003  0.2577 -0.2231
  726TIP3    H223738   1.113   2.617   1.502  0.5338 -0.5646  0.9057
  727TIP3   OH223739   0.697   4.031   7.012 -0.1538  0.0468  0.4907
  727TIP3    H123740   0.661   3.944   6.994  0.2408  0.2603 -1.5752
  727TIP3    H223741   0.732   4.060   6.928  0.3319  1.9348  1.2987
  728TIP3   OH223742   4.645   3.162   1.970 -0.0541 -0.0257  0.3671
  728TIP3    H123743   4.596   3.127   2.045 -0.7200 -1.8593 -0.8573
  728TIP3    H223744   4.642   3.093   1.905  0.0158  1.7143 -1.6017
  729TIP3   OH223745   3.446   0.398   1.142  0.1529  0.2647  0.3994
  729TIP3    H123746   3.499   0.319   1.137  0.7773  0.5048  2.3291
  729TIP3    H223747   3.373   0.374   1.200 -1.2548  0.2939 -1.2664
  730TIP3   OH223748   4.921   2.589   0.680 -0.1307 -0.4198 -0.0718
  730TIP3    H123749   4.919   2.655   0.749  0.6893  0.9776 -1.3237
  730TIP3    H223750   4.860   2.521   0.710 -3.5469  2.3246 -0.1139
  731TIP3   OH223751   6.352   0.898   7.150 -0.4562 -0.3663  0.2971
  731TIP3    H123752   6.409   0.960   7.104  1.0146 -0.7299  1.5309
  731TIP3    H223753   6.411   0.852   7.210 -1.3808 -3.2397 -0.8054
  732TIP3   OH223754   2.353   2.572   1.252 -0.5128 -0.1316 -0.2370
  732TIP3    H123755   2.264   2.576   1.287 -0.5495 -0.0637 -0.3373
  732TIP3    H223756   2.361   2.651   1.199 -0.7608 -0.6712 -1.1021
  733TIP3   OH223757   2.832   0.797   7.331 -0.5435  0.4093  0.3387
  733TIP3    H123758   2.773   0.722   7.334 -2.8654  2.1325  0.5563
  733TIP3    H223759   2.822   0.839   7.417  0.8544  0.8773  0.2958
  734TIP3   OH223760   3.773   2.768   6.805 -0.5460 -0.1509  0.2736
  734TIP3    H123761   3.735   2.718   6.732  2.7773 -0.9184 -1.1220
  734TIP3    H223762   3.858   2.727   6.820  1.1278  3.2830  1.0585
  735TIP3   OH223763   1.569   1.665   1.009 -0.5644 -0.6283  0.0950
  735TIP3    H123764   1.596   1.749   1.046  0.8897 -1.5223  1.2248
  735TIP3    H223765   1.577   1.676   0.915  1.0342  0.0994  0.2754
  736TIP3   OH223766   3.675   5.973   8.437 -0.3197  0.0045 -0.9051
  736TIP3    H123767   3.737   5.901   8.433 -0.2050 -0.1312  1.7803
  736TIP3    H223768   3.601   5.939   8.488 -0.9987  1.2595 -1.0059
  737TIP3   OH223769   1.456   0.973   1.038  0.2223 -0.0849 -0.1386
  737TIP3    H123770   1.440   0.891   0.991 -1.1357  0.0790  0.0227
  737TIP3    H223771   1.428   0.955   1.128 -3.1828  1.4601 -0.7397
  738TIP3   OH223772   3.758   5.025   0.547 -0.1886 -0.1865  0.8207
  738TIP3    H123773   3.850   5.024   0.573  0.4223 -1.7668 -1.1256
  738TIP3    H223774   3.720   4.949   0.591 -0.0603 -0.6802  0.0953
  739TIP3   OH223775   6.624   0.896   1.138 -0.3110  0.0536 -0.2522
  739TIP3    H123776   6.528   0.898   1.130 -0.2306 -1.1251 -1.8239
  739TIP3    H223777   6.642   0.958   1.209 -2.2976 -0.4439  0.7768
  740TIP3   OH223778   3.928   3.285   0.496  0.2552 -0.3336 -0.5474
  740TIP3    H123779   3.991   3.334   0.548  0.6118  0.0206 -1.2870
  740TIP3    H223780   3.883   3.229   0.558  0.3174  0.4423  0.2112
  741TIP3   OH223781   0.682   4.834   0.408  0.2516  0.6824 -0.0106
  741TIP3    H123782   0.646   4.889   0.338  0.0169 -1.7560 -1.9383
  741TIP3    H223783   0.776   4.832   0.391  0.3523  1.0533  0.4924
  742TIP3   OH223784   3.791   0.243   7.416  0.2732 -0.2011  0.0964
  742TIP3    H123785   3.766   0.167   7.468  0.9040 -0.8340 -0.5050
  742TIP3    H223786   3.879   0.223   7.384 -0.6626 -0.5905 -2.5538
  743TIP3   OH223787   5.719   2.485   7.307  0.3915  0.0881 -0.2599
  743TIP3    H123788   5.693   2.432   7.231  1.9690  0.1515 -0.8791
  743TIP3    H223789   5.727   2.421   7.378 -1.1128  0.0296 -0.1125
  744TIP3   OH223790   0.232   0.308   1.820  0.6402  0.4556  0.6300
  744TIP3    H123791   0.210   0.248   1.749  0.1316 -1.1290  2.0430
  744TIP3    H223792   0.183   0.387   1.800 -0.8522 -0.5619  0.0630
  745TIP3   OH223793   1.925   5.952   8.412  0.5869 -0.5057  0.3298
  745TIP3    H123794   2.009   5.940   8.454  0.1211  0.1916  1.5110
  745TIP3    H223795   1.930   6.038   8.371  0.9209 -1.0416 -0.7804
  746TIP3   OH223796   5.100   3.126   8.448  0.5114 -0.1935  0.1033
  746TIP3    H123797   5.014   3.136   8.407  0.1502  0.2682  0.9402
  746TIP3    H223798   5.135   3.215   8.453  0.2162 -0.1328  1.4634
  747TIP3   OH223799   4.950   5.534   7.388  0.2089  0.1227 -0.3949
  747TIP3    H123800   4.924   5.624   7.365 -0.8299 -0.2132 -0.5862
  747TIP3    H223801   5.028   5.545   7.443  0.7974  1.0899 -1.3726
  748TIP3   OH223802   6.253   4.733   6.872  0.0053 -0.2183 -0.0645
  748TIP3    H123803   6.258   4.744   6.967 -1.3180  2.7042 -0.2343
  748TIP3    H223804   6.330   4.778   6.838 -0.9476  1.1740 -0.4522
  749TIP3   OH223805   1.034   2.895   6.864 -0.1487  0.3904  0.2888
  749TIP3    H123806   1.081   2.959   6.811 -0.9523 -1.2707 -2.6934
  749TIP3    H223807   1.070   2.810   6.838 -0.5398 -0.5607  2.5516
  750TIP3   OH223808   0.866   2.314   1.254  0.0489 -0.0931  0.4085
  750TIP3    H123809   0.816   2.248   1.303 -0.8211 -0.3536 -0.7793
  750TIP3    H223810   0.850   2.396   1.301  1.1721 -0.7047  1.9233
  751TIP3   OH223811   2.910   3.334   0.924  0.0497 -0.3476 -0.5930
  751TIP3    H123812   2.862   3.416   0.906  1.8236  0.6548 -0.9553
  751TIP3    H223813   3.002   3.360   0.924  0.5920 -2.1221  0.6023
  752TIP3   OH223814   4.782   1.685   7.879 -0.1451 -0.5950  0.6575
  752TIP3    H123815   4.842   1.611   7.880 -1.1460 -1.4521 -0.2122
  752TIP3    H223816   4.778   1.714   7.971  1.1060 -0.8966  0.8205
  753TIP3   OH223817   0.737   3.221   6.639  0.3510 -0.4244  0.1294
  753TIP3    H123818   0.647   3.246   6.659  0.0707 -1.7535  0.6236
  753TIP3    H223819   0.787   3.302   6.650 -0.7350  0.2665  0.1239
  754TIP3   OH223820   0.363   0.723   0.059 -0.7484  0.0125  0.3047
  754TIP3    H123821   0.406   0.777   0.126  0.7729 -1.3463  0.4853
  754TIP3    H223822   0.427   0.717  -0.012 -1.2774 -0.7533 -0.1182
  755TIP3   OH223823   1.990   5.407   8.661 -0.4457  0.5204 -0.3388
  755TIP3    H123824   1.938   5.367   8.731  0.5509  0.6967  0.5207
  755TIP3    H223825   1.959   5.497   8.657 -0.7235  0.4265 -0.3418
  756TIP3   OH223826   4.488   1.643   7.297 -0.0229  0.0557  0.7813
  756TIP3    H123827   4.493   1.549   7.278 -0.9860 -0.0997  1.2389
  756TIP3    H223828   4.545   1.684   7.232  0.1218 -0.8106  0.3480
  757TIP3   OH223829   2.200   3.367   1.922 -0.0676 -0.5407  0.2111
  757TIP3    H123830   2.244   3.341   1.841  1.3080 -0.5869  0.9411
  757TIP3    H223831   2.107   3.364   1.901  0.2343 -1.3899 -1.1121
  758TIP3   OH223832   3.369   0.662   0.108 -0.1340 -0.2033  0.1231
  758TIP3    H123833   3.452   0.710   0.099 -0.2797  0.3451  1.4540
  758TIP3    H223834   3.368   0.603   0.033 -0.1585  2.1826 -1.9157
  759TIP3   OH223835   3.507   6.404   0.007  0.3451  0.1708 -0.0262
  759TIP3    H123836   3.527   6.328   0.062  1.5658  0.9064  0.5925
  759TIP3    H223837   3.440   6.452   0.055  0.7881  0.3589  0.4077
  760TIP3   OH223838   2.836   1.405   1.739  0.3029  0.1912 -0.0761
  760TIP3    H123839   2.763   1.460   1.768 -0.0645  0.2983 -1.1494
  760TIP3    H223840   2.911   1.435   1.791 -0.3078  0.3954  0.7139
  761TIP3   OH223841   6.215   0.900   7.400  0.0377  0.0447 -1.1017
  761TIP3    H123842   6.259   0.840   7.341  0.0924 -1.4634  0.3816
  761TIP3    H223843   6.266   0.896   7.481 -0.7344  1.0713 -0.5391
  762TIP3   OH223844   5.663   6.521   7.574 -0.1305  0.0466 -0.5707
  762TIP3    H123845   5.720   6.445   7.586 -0.6176 -0.7532 -2.7793
  762TIP3    H223846   5.574   6.486   7.583 -0.3376  0.5973 -0.4420
  763TIP3   OH223847   3.080   2.592   7.848 -0.1961  0.0818 -0.4592
  763TIP3    H123848   3.170   2.580   7.817 -0.1002 -0.2333 -0.0649
  763TIP3    H223849   3.082   2.565   7.940 -0.1017  2.6675  0.3516
  764TIP3   OH223850   3.910   2.773   0.164  0.5436 -0.4230 -0.6142
  764TIP3    H123851   3.966   2.764   0.241 -0.7423  0.0262  0.4154
  764TIP3    H223852   3.829   2.812   0.198 -0.4767 -1.2338 -2.0018
  765TIP3   OH223853   1.657   4.559   1.999 -0.6228  0.4348 -0.0250
  765TIP3    H123854   1.698   4.631   2.049 -1.0666 -0.8781  2.3841
  765TIP3    H223855   1.731   4.518   1.954  0.0746  0.7710  0.7567
  766TIP3   OH223856   2.782   0.543   8.529  0.1337  0.4856  0.5811
  766TIP3    H123857   2.717   0.603   8.492  0.0700  0.8635  1.2921
  766TIP3    H223858   2.866   0.584   8.508  0.1438  0.0655 -0.2215
  767TIP3   OH223859   1.104   5.416   8.478 -0.0314 -0.5504  0.2394
  767TIP3    H123860   1.115   5.510   8.493 -1.5067 -0.2199 -0.4994
  767TIP3    H223861   1.010   5.402   8.489 -0.7331 -0.9888 -4.2105
  768TIP3   OH223862   2.240   5.475   7.777 -0.0945  0.3740  0.2990
  768TIP3    H123863   2.189   5.494   7.698 -0.3498  1.1274  0.6455
  768TIP3    H223864   2.308   5.542   7.778  0.5805 -0.2938  0.1375
  769TIP3   OH223865   3.226   4.469   1.524 -0.2267 -0.2827 -0.0048
  769TIP3    H123866   3.227   4.467   1.620  0.8665  1.3541  0.0614
  769TIP3    H223867   3.144   4.514   1.501 -0.4107 -0.5308  0.1696
  770TIP3   OH223868   3.994   4.793   8.149  0.0916 -0.2171  0.4212
  770TIP3    H123869   4.078   4.782   8.103 -0.5141 -0.5621 -0.6335
  770TIP3    H223870   4.019   4.829   8.234  1.5295 -2.5081  1.0668
  771TIP3   OH223871   0.585   5.949   1.410 -0.1958 -0.2931 -0.1760
  771TIP3    H123872   0.550   5.872   1.454  0.3067 -0.8914 -0.8066
  771TIP3    H223873   0.656   5.978   1.466  0.7853 -1.3649 -0.8255
  772TIP3   OH223874   2.863   3.437   0.166 -0.0036  0.7480  0.3711
  772TIP3    H123875   2.813   3.456   0.245  0.3962  0.5848  0.6708
  772TIP3    H223876   2.800   3.444   0.094 -0.9105 -1.2530  0.8936
  773TIP3   OH223877   0.910   6.412   0.446 -0.1600  1.0088  0.0624
  773TIP3    H123878   0.964   6.489   0.431  0.0695  1.1243  1.3875
  773TIP3    H223879   0.951   6.367   0.520  0.3984 -1.0281 -1.3832
  774TIP3   OH223880   0.261   6.221   7.009  0.3031  0.2951  1.0128
  774TIP3    H123881   0.217   6.303   7.032 -2.2076 -1.0417  1.3142
  774TIP3    H223882   0.295   6.235   6.921 -0.4210  1.5396  0.9171
  775TIP3   OH223883   4.072   1.291   1.741  0.1844 -0.1060  0.1973
  775TIP3    H123884   4.006   1.360   1.747  0.4467  0.3517 -1.5597
  775TIP3    H223885   4.132   1.308   1.814 -0.2694  0.9528  0.3426
  776TIP3   OH223886   0.566   4.324   1.498  0.1274  0.1444  0.2296
  776TIP3    H123887   0.581   4.340   1.591 -0.4086 -1.5749  0.6330
  776TIP3    H223888   0.474   4.345   1.484  0.4641  1.4891 -0.1990
  777TIP3   OH223889   4.838   1.416   0.573  0.0285 -0.2211 -0.7722
  777TIP3    H123890   4.822   1.505   0.604  1.0021 -0.1003 -0.5940
  777TIP3    H223891   4.928   1.417   0.541  0.4856 -1.4589  0.3658
  778TIP3   OH223892   3.419   3.149   6.243  0.2571 -0.2271 -0.2143
  778TIP3    H123893   3.381   3.206   6.176 -0.7100 -0.3647  0.2057
  778TIP3    H223894   3.345   3.099   6.277  1.4480 -4.2363 -2.8687
  779TIP3   OH223895   0.060   5.080   1.938 -0.4267  0.4657  0.1180
  779TIP3    H123896   0.009   5.153   1.972 -0.8926  0.3514 -0.3336
  779TIP3    H223897  -0.003   5.027   1.889  0.0237  0.0648 -0.0324
  780TIP3   OH223898   5.554   5.646   2.004 -0.6358 -0.1644  0.2186
  780TIP3    H123899   5.644   5.657   2.036  0.1396 -3.5443 -0.3875
  780TIP3    H223900   5.527   5.561   2.037 -3.2562  0.2885 -0.5276
  781TIP3   OH223901   4.549   6.693   6.722 -0.0113 -0.6497 -0.4473
  781TIP3    H123902   4.549   6.636   6.645  2.4802 -0.4535 -0.6722
  781TIP3    H223903   4.609   6.764   6.699  1.6952 -1.1637  2.0092
  782TIP3   OH223904   1.369   6.001   7.708 -0.0292  0.0473  0.3123
  782TIP3    H123905   1.316   6.057   7.652 -0.8749 -0.0904  0.9499
  782TIP3    H223906   1.328   5.915   7.703  0.1605 -0.0751  0.7804
  783TIP3   OH223907   5.503   4.719   7.455  0.4060  0.3730 -0.0665
  783TIP3    H123908   5.450   4.664   7.512 -2.1054  0.8971 -1.7347
  783TIP3    H223909   5.540   4.658   7.391  2.0144 -0.0075  1.1582
  784TIP3   OH223910   4.766   2.202   6.865  0.8829 -0.2094 -0.1136
  784TIP3    H123911   4.733   2.200   6.775  2.9715  0.1395 -0.9496
  784TIP3    H223912   4.821   2.125   6.872  1.0194 -0.0411  0.7603
  785TIP3   OH223913   1.050   0.124   1.377 -0.1366 -0.4942 -0.6641
  785TIP3    H123914   1.128   0.153   1.329  0.8061 -1.0337  0.5135
  785TIP3    H223915   1.083   0.093   1.461 -1.7060  0.0112  0.1831
  786TIP3   OH223916   0.464   5.676   1.250  0.0225  0.3924 -0.2439
  786TIP3    H123917   0.446   5.678   1.344 -1.4455 -1.9419 -0.4145
  786TIP3    H223918   0.392   5.725   1.210 -1.1061 -1.2531 -0.3116
  787TIP3   OH223919   3.928   1.217   0.718 -0.2375 -0.0711 -0.4602
  787TIP3    H123920   4.004   1.204   0.663 -1.1974 -0.9385 -1.6187
  787TIP3    H223921   3.902   1.308   0.702 -0.2449 -0.1835 -1.0778
  788TIP3   OH223922   6.794   3.835   1.807 -0.1778 -0.1604 -0.0749
  788TIP3    H123923   6.790   3.758   1.865  0.3392  0.2471  0.5173
  788TIP3    H223924   6.886   3.862   1.810 -0.7502  1.7915  1.4806
  789TIP3   OH223925   4.440   5.884   0.885 -0.5115  0.4287  0.1068
  789TIP3    H123926   4.360   5.877   0.938 -0.2199  1.4660  0.7321
  789TIP3    H223927   4.447   5.978   0.866 -0.4315  0.1179 -1.5223
  790TIP3   OH223928   2.848   2.369   7.361 -0.0894 -0.4707 -0.4267
  790TIP3    H123929   2.762   2.340   7.330  0.0369  0.2638 -1.5123
  790TIP3    H223930   2.901   2.289   7.364 -0.2788 -0.6482 -1.5507
  791TIP3   OH223931   2.087   0.906   0.173  0.3733  0.1434 -0.5908
  791TIP3    H123932   2.046   0.820   0.184  0.9135 -0.0698 -0.1620
  791TIP3    H223933   2.026   0.968   0.212  0.5307 -0.1913  0.2114
  792TIP3   OH223934   3.046   0.579   8.445  0.1834 -1.0257 -0.0292
  792TIP3    H123935   2.996   0.498   8.453 -0.8634 -0.6111 -1.7955
  792TIP3    H223936   3.115   0.557   8.382  0.2218 -0.6960 -0.0999
  793TIP3   OH223937   2.492   2.161   0.219  0.0875  0.4888  0.0656
  793TIP3    H123938   2.570   2.207   0.252 -0.0501 -0.3003  1.5720
  793TIP3    H223939   2.421   2.225   0.227 -0.0080  0.2240  1.6959
  794TIP3   OH223940   4.661   1.400   1.819  0.0221  0.0820  0.5601
  794TIP3    H123941   4.613   1.378   1.739  0.6418  1.0541 -0.1019
  794TIP3    H223942   4.627   1.339   1.885 -0.4794 -0.7555 -0.4406
  795TIP3   OH223943   2.346   5.440   0.748  0.3118 -0.0888  0.3345
  795TIP3    H123944   2.334   5.483   0.833  1.4969  3.3725 -1.0946
  795TIP3    H223945   2.258   5.436   0.710  0.1522  1.0723  0.5462
  796TIP3   OH223946   2.321   1.760   8.215 -0.3198 -0.2132 -0.2422
  796TIP3    H123947   2.234   1.738   8.250 -0.6248  1.7488  0.4025
  796TIP3    H223948   2.306   1.842   8.168  1.1025 -0.1114 -0.5357
  797TIP3   OH223949   3.489   3.275   7.308  0.1652 -1.1582 -0.0935
  797TIP3    H123950   3.433   3.312   7.240 -2.4004  0.0909  2.4975
  797TIP3    H223951   3.473   3.181   7.305 -1.0988 -0.9473 -0.2626
  798TIP3   OH223952   6.020   2.207   1.386 -0.0038 -0.1494  0.1308
  798TIP3    H123953   6.045   2.128   1.337 -0.5977  0.0794 -0.5530
  798TIP3    H223954   5.926   2.198   1.399  0.5385 -2.1534  4.6843
  799TIP3   OH223955   6.224   3.315   0.403  0.7344 -0.0162 -0.3818
  799TIP3    H123956   6.263   3.392   0.443  1.3425 -0.3909 -0.2346
  799TIP3    H223957   6.139   3.304   0.447  0.4088  0.8588 -0.7720
  800TIP3   OH223958   6.875   3.557   1.372 -0.4242  0.2294 -0.1246
  800TIP3    H123959   6.844   3.635   1.326 -1.1715  1.0526  1.6801
  800TIP3    H223960   6.813   3.489   1.347 -0.1383  0.3447 -1.2174
  801TIP3   OH223961   5.679   5.974   0.216 -0.7984 -0.1384 -0.2318
  801TIP3    H123962   5.687   6.063   0.249 -0.8608 -0.3474  0.3718
  801TIP3    H223963   5.652   5.984   0.125 -0.6544  0.4579 -0.2126
  802TIP3   OH223964   3.432   3.476   0.082  0.2226 -0.3644 -0.2013
  802TIP3    H123965   3.451   3.434  -0.002  0.2340 -1.0082  0.1142
  802TIP3    H223966   3.518   3.496   0.118  0.2036  0.4521 -0.6087
  803TIP3   OH223967   4.023   0.518   6.858 -0.5077  0.3028 -0.2291
  803TIP3    H123968   3.972   0.460   6.803 -0.0045 -1.0143  0.6476
  803TIP3    H223969   4.092   0.552   6.801 -0.2826 -0.6556 -0.5377
  804TIP3   OH223970   2.278   5.674   6.520 -0.3439  0.0336  0.2821
  804TIP3    H123971   2.214   5.745   6.511 -0.4224 -0.2900 -2.7955
  804TIP3    H223972   2.227   5.594   6.509  0.4161 -0.2689 -1.1505
  805TIP3   OH223973   1.626   2.816   1.307  0.2540  0.4112  0.1689
  805TIP3    H123974   1.704   2.836   1.255  0.3028  3.4451  1.2081
  805TIP3    H223975   1.658   2.812   1.397 -0.5141 -0.4125  0.4284
  806TIP3   OH223976   0.282   3.651   7.479  0.7800 -0.1408 -0.5518
  806TIP3    H123977   0.271   3.739   7.444  2.2428  0.7403  1.0715
  806TIP3    H223978   0.242   3.594   7.412  0.0979  1.6878 -1.7928
  807TIP3   OH223979   2.159   4.130   8.620 -0.4536  0.6913 -0.3589
  807TIP3    H123980   2.144   4.067   8.549 -1.0849  0.6833 -0.2206
  807TIP3    H223981   2.106   4.097   8.692  1.2410 -0.0680  0.5864
  808TIP3   OH223982   4.023   1.396   7.786 -0.1053 -0.4178 -0.2078
  808TIP3    H123983   4.060   1.449   7.716 -0.7525  0.8148  0.3339
  808TIP3    H223984   4.098   1.356   7.829  0.4215  0.1326 -0.5969
  809TIP3   OH223985   3.928   4.102   6.542 -0.0522  0.4744  0.0245
  809TIP3    H123986   3.843   4.060   6.554  0.6719 -2.3926 -3.2667
  809TIP3    H223987   3.913   4.169   6.476  0.2724 -0.4113 -0.9761
  810TIP3   OH223988   3.231   5.160   0.740  0.0068  0.2871  0.5277
  810TIP3    H123989   3.238   5.229   0.806  0.3689  0.3674  0.4070
  810TIP3    H223990   3.241   5.205   0.656  0.0539  0.1157  0.4405
  811TIP3   OH223991   3.349   2.266   1.366  0.6578 -0.3236 -0.0085
  811TIP3    H123992   3.382   2.354   1.351  0.1292 -0.1487 -0.1764
  811TIP3    H223993   3.400   2.234   1.440 -0.4448  0.8483  1.3171
  812TIP3   OH223994   3.207   2.888   1.044 -0.0155  0.6414  0.2955
  812TIP3    H123995   3.249   2.916   1.125  1.0515 -0.5313  0.1824
  812TIP3    H223996   3.257   2.931   0.974 -0.6801  1.3303  0.2345
  813TIP3   OH223997   5.484   1.459   0.426  0.1792 -0.0250  0.3821
  813TIP3    H123998   5.530   1.407   0.359  0.3704 -1.4803  1.6004
  813TIP3    H223999   5.403   1.487   0.382 -0.8536 -2.9372  0.1755
  814TIP3   OH224000   0.402   1.412   0.638 -0.3537  0.2849  0.4799
  814TIP3    H124001   0.383   1.364   0.558  0.4186 -1.4845  1.2917
  814TIP3    H224002   0.326   1.470   0.651 -0.6385  0.3485 -1.3067
  815TIP3   OH224003   5.227   6.844   2.406 -0.3458 -0.7186 -0.2273
  815TIP3    H124004   5.158   6.874   2.346  1.8104  0.5836 -2.2038
  815TIP3    H224005   5.225   6.906   2.478 -0.3124  0.1898 -0.9900
  816TIP3   OH224006   4.605   3.838   0.372 -0.3396 -0.3748 -0.8466
  816TIP3    H124007   4.562   3.847   0.457 -0.3827  0.1861 -0.9227
  816TIP3    H224008   4.568   3.758   0.334 -0.3004 -0.6435 -0.3303
  817TIP3   OH224009   0.915   5.504   1.936 -0.8566 -0.1169 -0.8670
  817TIP3    H124010   0.959   5.529   2.017 -1.1269 -0.4132 -0.6256
  817TIP3    H224011   0.837   5.560   1.933 -1.7647 -1.3037 -0.0370
  818TIP3   OH224012   2.564   0.046   0.737  0.4356  0.5457 -0.1432
  818TIP3    H124013   2.588   0.110   0.803 -0.7829 -0.3231  1.2089
  818TIP3    H224014   2.480   0.010   0.767  0.3749 -0.6629 -1.5902
  819TIP3   OH224015   6.039   0.404   1.494 -0.0843  0.0288  0.2770
  819TIP3    H124016   5.951   0.393   1.531 -0.5328  0.5157 -0.6254
  819TIP3    H224017   6.079   0.317   1.502 -1.1622 -0.5752 -0.6176
  820TIP3   OH224018   4.072   5.399   1.320 -0.0555  0.5164 -0.1566
  820TIP3    H124019   4.104   5.374   1.406 -2.0277 -0.7243  0.2747
  820TIP3    H224020   4.067   5.317   1.271  1.2123  1.2243 -1.5490
  821TIP3   OH224021   2.087   2.702   0.541  0.0370  0.2767  0.6344
  821TIP3    H124022   1.993   2.684   0.550  0.4921 -1.9370  1.6454
  821TIP3    H224023   2.093   2.759   0.464 -2.0721 -0.2110  0.0297
  822TIP3   OH224024   5.492   0.798   7.671  0.5792  0.0662 -0.2211
  822TIP3    H124025   5.517   0.752   7.591  2.7986 -2.4265  1.7390
  822TIP3    H224026   5.565   0.782   7.732 -1.0827  1.6656  2.3967
  823TIP3   OH224027   0.073   4.444   2.368  0.0850  0.0211  0.2359
  823TIP3    H124028  -0.012   4.427   2.408 -1.0126 -0.4637 -2.0956
  823TIP3    H224029   0.061   4.526   2.320  0.5444 -0.6192 -1.0294
  824TIP3   OH224030   5.499   1.073   7.741  0.1348  0.3839  0.7436
  824TIP3    H124031   5.521   1.073   7.834 -0.9508  2.7797  1.0797
  824TIP3    H224032   5.500   0.981   7.715  0.0078 -0.3719  3.2415
  825TIP3   OH224033   4.214   1.623   7.814  0.2813  0.5002 -0.2303
  825TIP3    H124034   4.145   1.663   7.761 -1.1476 -2.2398 -0.6252
  825TIP3    H224035   4.277   1.590   7.750  0.1731 -0.0304 -0.0670
  826TIP3   OH224036   0.890   2.639   8.444 -0.1237  0.3274  0.7193
  826TIP3    H124037   0.939   2.678   8.372  0.0463 -2.0039 -0.5568
  826TIP3    H224038   0.923   2.681   8.523 -1.1082  3.8007 -0.5403
  827TIP3   OH224039   2.926   5.671   1.826 -0.5871 -0.0075  0.0077
  827TIP3    H124040   2.850   5.632   1.870 -1.6131 -0.4180 -1.9966
  827TIP3    H224041   2.889   5.713   1.749  1.3621 -1.7185 -2.0041
  828TIP3   OH224042   2.424   5.580   2.372  0.3051  0.4556 -0.7905
  828TIP3    H124043   2.429   5.508   2.309  1.9777 -1.3122  1.2466
  828TIP3    H224044   2.332   5.580   2.401 -0.2457  0.6655 -2.4208
  829TIP3   OH224045   5.459   2.255   1.118 -0.5266  0.5525  0.0003
  829TIP3    H124046   5.379   2.280   1.164 -0.7073 -1.1770  0.6822
  829TIP3    H224047   5.478   2.330   1.060 -2.0798  1.3871  0.5263
  830TIP3   OH224048   6.015   6.425   1.060  0.2949 -0.1731 -0.2472
  830TIP3    H124049   6.007   6.331   1.070  0.0944  0.0690  2.8079
  830TIP3    H224050   5.925   6.457   1.057  0.3532  0.0007 -0.1835
  831TIP3   OH224051   5.414   6.053   1.422  0.3945  0.0445  0.1590
  831TIP3    H124052   5.473   6.012   1.358 -0.3628  0.8669 -1.1238
  831TIP3    H224053   5.457   6.040   1.506  1.4847 -0.9979 -0.5244
  832TIP3   OH224054   2.207   2.554   8.279 -0.0251  0.7082  0.4184
  832TIP3    H124055   2.155   2.498   8.337  3.1005 -2.3600  0.6569
  832TIP3    H224056   2.208   2.507   8.196  0.2313  2.0618 -0.3655
  833TIP3   OH224057   6.562   1.386   7.259  0.0260 -0.2286  0.2417
  833TIP3    H124058   6.559   1.343   7.345 -0.6788 -1.6825 -0.4704
  833TIP3    H224059   6.650   1.422   7.254 -0.4378  1.4118  2.2554
  834TIP3   OH224060   5.658   0.543   1.249  0.0056 -0.0154 -0.0465
  834TIP3    H124061   5.616   0.533   1.163  0.6677  0.8906 -0.5081
  834TIP3    H224062   5.752   0.542   1.229  0.1617  0.9333  0.5518
  835TIP3   OH224063   3.017   6.670   1.523 -0.2927 -0.7976  0.2306
  835TIP3    H124064   3.111   6.673   1.539 -0.4355  0.8256  0.9786
  835TIP3    H224065   2.978   6.706   1.602 -1.3668  1.4370 -1.2186
  836TIP3   OH224066   0.112   0.313   0.541 -0.3355  0.2003  0.1537
  836TIP3    H124067   0.065   0.380   0.493  2.5232  2.6102  0.4323
  836TIP3    H224068   0.163   0.267   0.475 -1.8088 -1.4129  0.0526
  837TIP3   OH224069   5.774   6.862   8.310 -0.1286 -0.3111  0.1618
  837TIP3    H124070   5.820   6.779   8.297  1.0968  0.4274 -0.4462
  837TIP3    H224071   5.793   6.886   8.400  0.4225 -0.1960  0.0259
  838TIP3   OH224072   1.045   3.747   7.596 -0.0759  0.4812  0.1464
  838TIP3    H124073   1.024   3.840   7.592 -0.8435  0.2974 -0.2642
  838TIP3    H224074   1.116   3.736   7.532 -0.7146  0.6010 -0.5955
  839TIP3   OH224075   0.136   0.077   6.533  0.8456 -0.1169 -0.7213
  839TIP3    H124076   0.095   0.015   6.472 -1.9099  2.2098 -1.4363
  839TIP3    H224077   0.186   0.136   6.478 -0.2247  0.9395 -0.5981
  840TIP3   OH224078   5.388   2.046   0.226 -0.4554 -0.4094 -0.4684
  840TIP3    H124079   5.361   2.137   0.240  1.2203 -0.1624  1.7693
  840TIP3    H224080   5.388   2.035   0.131  0.5399  2.3638 -0.8739
  841TIP3   OH224081   0.870   5.758   1.708  0.6522  0.9236 -0.1778
  841TIP3    H124082   0.797   5.746   1.648  0.2063  0.6923  0.4042
  841TIP3    H224083   0.829   5.777   1.792  1.2753  2.2116 -0.1395
  842TIP3   OH224084   0.577   6.761   0.599 -0.5549 -0.0008 -0.0556
  842TIP3    H124085   0.612   6.673   0.617  1.8017  0.7862 -0.4652
  842TIP3    H224086   0.520   6.780   0.674  1.2322 -0.7217  1.5816
  843TIP3   OH224087   4.364   1.957   0.311  0.0940 -0.0997  0.1272
  843TIP3    H124088   4.277   1.935   0.278 -0.5282  0.0772  1.5556
  843TIP3    H224089   4.414   1.876   0.301 -0.8962 -0.8994  1.2896
  844TIP3   OH224090   6.664   6.460   7.983  0.1189  0.7140  0.6051
  844TIP3    H124091   6.632   6.372   7.963  0.5802  0.4224  1.1190
  844TIP3    H224092   6.611   6.489   8.057  1.0763  0.1901  1.5223
  845TIP3   OH224093   1.194   3.882   8.146 -0.0563  0.2109  0.0800
  845TIP3    H124094   1.103   3.909   8.159 -0.2260 -0.2951 -0.0168
  845TIP3    H224095   1.227   3.941   8.078  0.8547  2.9005  2.6565
  846TIP3   OH224096   0.316   1.254   7.354  0.2206 -0.6840  0.0710
  846TIP3    H124097   0.276   1.283   7.437 -1.1928 -1.9234 -0.1346
  846TIP3    H224098   0.306   1.159   7.354  0.4691 -0.7376 -1.3851
  847TIP3   OH224099   6.651   5.565   8.398 -0.3106  0.4693  0.6027
  847TIP3    H124100   6.696   5.526   8.473  0.8363  1.7498  0.6099
  847TIP3    H224101   6.677   5.657   8.399 -2.9801  1.2989  0.6118
  848TIP3   OH224102   6.019   0.778   6.747 -0.7937 -0.6229  0.6133
  848TIP3    H124103   6.109   0.760   6.718 -0.3196  2.1485 -0.0213
  848TIP3    H224104   5.989   0.847   6.687 -1.7921  1.4798  3.3398
  849TIP3   OH224105   1.812   0.474   8.311 -0.0002  0.4282 -0.3012
  849TIP3    H124106   1.759   0.540   8.357  0.8077  0.2864  0.8809
  849TIP3    H224107   1.842   0.518   8.232 -2.5051  0.2720 -1.4518
  850TIP3   OH224108   2.938   0.861   7.897  0.1600 -0.3215  0.0024
  850TIP3    H124109   2.916   0.805   7.972  0.4824  0.5634  0.7780
  850TIP3    H224110   3.026   0.894   7.917  0.9386 -1.3054 -1.5321
  851TIP3   OH224111   0.430   3.899   8.618 -0.9296  0.1837 -0.3054
  851TIP3    H124112   0.352   3.888   8.672 -0.3821 -2.0430  0.1475
  851TIP3    H224113   0.421   3.833   8.549  0.8648 -0.6231  0.1794
  852TIP3   OH224114   0.796   4.166   1.397  0.8340  0.2656 -0.4480
  852TIP3    H124115   0.724   4.227   1.411 -0.7007 -0.8185 -2.8778
  852TIP3    H224116   0.754   4.080   1.394  2.2828 -0.4433 -1.5012
  853TIP3   OH224117   2.351   2.853   6.922 -0.4972  0.2186  0.0116
  853TIP3    H124118   2.333   2.946   6.908 -0.0051  0.4113  0.5890
  853TIP3    H224119   2.276   2.807   6.885 -0.1453  0.7777 -1.4878
  854TIP3   OH224120   0.808   4.942   8.342  0.7833 -0.2121  0.0737
  854TIP3    H124121   0.888   4.913   8.298 -0.0401  2.5755 -3.7668
  854TIP3    H224122   0.838   5.008   8.405  1.6432 -0.9255  0.4376
  855TIP3   OH224123   3.342   2.082   0.639 -0.3928 -0.1812 -0.9157
  855TIP3    H124124   3.330   2.132   0.719 -1.4822  0.3515 -1.4010
  855TIP3    H224125   3.338   1.990   0.667 -0.6559 -0.0028 -0.3552
  856TIP3   OH224126   6.389   3.204   7.979 -0.1233 -0.1963  0.0868
  856TIP3    H124127   6.478   3.229   8.003 -0.0998 -1.4404  1.4412
  856TIP3    H224128   6.332   3.264   8.027 -0.0298 -0.7999  0.9707
  857TIP3   OH224129   0.229   5.649   1.979 -0.0342 -0.1604  0.2108
  857TIP3    H124130   0.291   5.655   2.051  0.7883 -1.3045 -0.3758
  857TIP3    H224131   0.143   5.659   2.021  0.5062  1.0902  1.0735
  858TIP3   OH224132   5.303   4.257   6.985 -0.2441 -0.2307  0.7480
  858TIP3    H124133   5.350   4.277   7.067 -2.2907 -1.9723  2.4548
  858TIP3    H224134   5.261   4.340   6.962 -0.4835  0.0530  2.0833
  859TIP3   OH224135   3.375   5.765   1.815  0.1695  0.0722  0.5353
  859TIP3    H124136   3.352   5.829   1.882 -0.4662 -1.8133  2.1822
  859TIP3    H224137   3.440   5.811   1.760  2.0812  1.1432  3.4531
  860TIP3   OH224138   0.709   3.558   8.481  0.2319 -0.0831 -0.1367
  860TIP3    H124139   0.739   3.542   8.570  0.4858 -1.8321 -0.4984
  860TIP3    H224140   0.720   3.474   8.436  1.8338  1.1729 -2.3239
  861TIP3   OH224141   1.732   6.386   0.496 -0.0856 -0.3911 -0.8417
  861TIP3    H124142   1.637   6.399   0.503 -0.0638  0.4466 -1.8560
  861TIP3    H224143   1.742   6.292   0.481 -0.9377 -0.2158 -2.9298
  862TIP3   OH224144   2.503   0.337   6.658  0.0921  0.0770  0.2644
  862TIP3    H124145   2.414   0.341   6.693  0.0049  1.7860 -0.0747
  862TIP3    H224146   2.531   0.428   6.653  1.4484 -0.3582 -0.6983
  863TIP3   OH224147   1.875   0.613   1.871 -0.4593 -0.0177  0.2679
  863TIP3    H124148   1.816   0.619   1.947  1.8981  0.3526  2.1767
  863TIP3    H224149   1.868   0.522   1.843 -1.8314 -0.0133  0.5137
  864TIP3   OH224150   4.417   0.778   8.404 -0.2500  0.6230 -0.6817
  864TIP3    H124151   4.502   0.742   8.380 -0.1071  0.8515 -0.5236
  864TIP3    H224152   4.407   0.856   8.349 -0.7210  0.1565 -1.2922
  865TIP3   OH224153   3.463   0.958   7.468 -0.9367  0.4020 -0.3548
  865TIP3    H124154   3.472   0.876   7.420 -2.4588 -0.6750  1.1084
  865TIP3    H224155   3.387   1.001   7.428 -0.4680  0.8789 -0.7606
  866TIP3   OH224156   2.499   4.209   8.478 -0.4283 -0.6603  0.0212
  866TIP3    H124157   2.503   4.186   8.385  1.3823 -0.6471  0.0565
  866TIP3    H224158   2.414   4.251   8.489  0.0430  0.9922 -2.0369
  867TIP3   OH224159   2.307   5.953   1.012 -0.4811  0.3682 -0.3948
  867TIP3    H124160   2.300   6.014   1.086 -1.5402  0.2766 -0.3934
  867TIP3    H224161   2.294   5.867   1.051 -0.2568  0.2524 -0.5794
  868TIP3   OH224162   1.424   4.565   8.253  0.6421 -0.0191  0.0500
  868TIP3    H124163   1.424   4.545   8.160  4.0692  0.6278 -0.2025
  868TIP3    H224164   1.499   4.516   8.288  1.7337  2.6167  1.6870
  869TIP3   OH224165   3.447   1.757   1.555  0.3897  0.2387  0.4583
  869TIP3    H124166   3.540   1.771   1.537 -0.1160  2.6277 -0.6549
  869TIP3    H224167   3.427   1.673   1.513  1.8186  0.1671 -0.1365
  870TIP3   OH224168   2.580   3.626   7.947  0.0670  0.1886  0.0173
  870TIP3    H124169   2.592   3.531   7.944 -0.7233  0.0980 -1.5492
  870TIP3    H224170   2.491   3.641   7.914 -0.2952  1.4152  1.4373
  871TIP3   OH224171   6.561   4.877   0.835  0.0408 -0.3380 -0.3447
  871TIP3    H124172   6.646   4.832   0.837  0.3758  0.2714 -0.5910
  871TIP3    H224173   6.517   4.841   0.758  0.3286 -0.2180 -0.5690
  872TIP3   OH224174   0.248   6.073   0.125  0.1183 -0.5976  0.5000
  872TIP3    H124175   0.265   6.015   0.199 -0.0997  0.4123  1.3616
  872TIP3    H224176   0.152   6.074   0.117  0.1818 -2.0289 -0.8995
  873TIP3   OH224177   3.981   0.089   1.597 -0.1504  0.5113 -0.3485
  873TIP3    H124178   4.072   0.073   1.571 -0.0876 -0.6406  0.4683
  873TIP3    H224179   3.970   0.183   1.591  1.9523  1.0241  2.0924
  874TIP3   OH224180   2.957   6.853   1.168 -0.0172  0.0340  0.1771
  874TIP3    H124181   2.870   6.859   1.209 -0.3306 -1.0442 -0.3064
  874TIP3    H224182   2.946   6.896   1.083 -0.4572 -1.2750 -0.4515
  875TIP3   OH224183   4.006   4.036   6.976 -0.3263  0.4528  0.0107
  875TIP3    H124184   3.917   4.059   6.949 -0.8247 -1.9776 -0.6755
  875TIP3    H224185   4.057   4.038   6.894  0.2864  1.7405  0.3856
  876TIP3   OH224186   5.971   0.772   7.393 -0.0200 -0.2688 -0.4931
  876TIP3    H124187   6.017   0.689   7.400 -0.1176 -0.5465 -2.5024
  876TIP3    H224188   6.041   0.837   7.385  0.0442 -0.2039  0.4394
  877TIP3   OH224189   1.105   2.548   7.192 -0.6667 -0.1135  0.0674
  877TIP3    H124190   1.183   2.499   7.166  0.0468  0.3044  1.3478
  877TIP3    H224191   1.032   2.488   7.176  0.0350 -0.9645  0.0288
  878TIP3   OH224192   1.429   3.742   6.809 -0.8115  0.2889 -0.2059
  878TIP3    H124193   1.455   3.679   6.876 -1.5421 -0.1743 -0.3423
  878TIP3    H224194   1.487   3.816   6.822  0.4822 -0.6545 -0.4346
  879TIP3   OH224195   2.328   4.939   7.597  0.4127  0.0575 -0.0806
  879TIP3    H124196   2.379   4.965   7.520 -1.7854 -0.3805 -1.8192
  879TIP3    H224197   2.297   5.022   7.634 -0.0278  0.2315 -0.8126
  880TIP3   OH224198   1.280   1.787   1.812  0.0631 -0.2878  0.2941
  880TIP3    H124199   1.296   1.810   1.720 -2.1823 -0.5031 -0.2211
  880TIP3    H224200   1.333   1.710   1.827  0.9051  0.0827 -0.6431
  881TIP3   OH224201   0.601   3.394   1.405  0.2514  0.2796  0.1028
  881TIP3    H124202   0.619   3.362   1.316 -0.9421 -0.0807 -0.0338
  881TIP3    H224203   0.513   3.363   1.424  0.5179  0.2893  1.4602
  882TIP3   OH224204   1.514   2.458   2.162  0.1111  0.1705  0.5130
  882TIP3    H124205   1.449   2.523   2.135  1.9604  1.5544 -0.8744
  882TIP3    H224206   1.473   2.413   2.236 -2.4623  0.8440 -0.3908
  883TIP3   OH224207   6.712   1.046   1.341  0.2774 -0.1686  0.2768
  883TIP3    H124208   6.730   1.028   1.433  1.6506 -2.4707 -0.3773
  883TIP3    H224209   6.794   1.084   1.308  1.3780 -3.3049 -0.8963
  884TIP3   OH224210   0.159   1.091   0.637  0.1582  0.1419 -1.3753
  884TIP3    H124211   0.163   1.165   0.698 -1.5672 -0.7154 -0.1405
  884TIP3    H224212   0.250   1.065   0.624  0.5516 -0.9284  2.4734
  885TIP3   OH224213   2.126   5.804   7.822 -0.1015  0.4262 -0.1272
  885TIP3    H124214   2.177   5.881   7.847  0.1710  0.5988 -1.1872
  885TIP3    H224215   2.165   5.732   7.873 -1.0667  1.1376  1.7131
  886TIP3   OH224216   1.374   3.322   7.211 -0.1054 -0.4110  0.3314
  886TIP3    H124217   1.441   3.348   7.148 -0.4726  2.5936  1.0667
  886TIP3    H224218   1.294   3.316   7.159  0.1006 -0.7986  0.0443
  887TIP3   OH224219   6.077   5.900   1.155 -0.1309 -0.5321 -0.6827
  887TIP3    H124220   6.053   5.872   1.244  0.5646 -0.3995 -0.4445
  887TIP3    H224221   6.172   5.910   1.159 -0.3923  3.0226 -0.3858
  888TIP3   OH224222   2.780   6.607   1.910  0.2430 -0.1461  0.4204
  888TIP3    H124223   2.838   6.556   1.966 -1.0629 -1.4640  0.6411
  888TIP3    H224224   2.726   6.657   1.972  1.2885  1.2787  0.2140
  889TIP3   OH224225   5.025   6.329   7.822  0.0014 -0.4370  0.0304
  889TIP3    H124226   5.008   6.246   7.778  0.8479  0.0741 -1.3022
  889TIP3    H224227   5.021   6.307   7.916 -0.5092 -1.8161 -0.2875
  890TIP3   OH224228   2.110   0.678   1.462  0.4899  0.3143  0.0373
  890TIP3    H124229   2.103   0.771   1.441  1.2876  0.5899  0.8990
  890TIP3    H224230   2.111   0.676   1.558  0.2729 -0.6045  0.0292
  891TIP3   OH224231   1.821   6.201   6.989  0.3725  0.7654 -0.0109
  891TIP3    H124232   1.809   6.111   6.956 -1.3277  1.3188 -1.0538
  891TIP3    H224233   1.796   6.256   6.915  2.8124  2.1622  0.1145
  892TIP3   OH224234   4.830   4.665   0.503 -0.2182  0.0611  1.0685
  892TIP3    H124235   4.751   4.696   0.458  0.5144 -0.3777 -0.5799
  892TIP3    H224236   4.811   4.575   0.528  0.6827 -1.0471 -1.8476
  893TIP3   OH224237   5.261   5.118   1.177  0.5703 -0.0549 -0.3173
  893TIP3    H124238   5.184   5.082   1.133  1.4980 -0.0604 -2.0220
  893TIP3    H224239   5.238   5.208   1.197  0.4570  0.2547 -1.7594
  894TIP3   OH224240   0.995   2.628   7.483  0.5042 -0.4025 -0.4480
  894TIP3    H124241   1.050   2.703   7.508  0.7242 -0.3112 -1.2007
  894TIP3    H224242   1.044   2.585   7.413  0.1650 -1.0000 -0.3214
  895TIP3   OH224243   4.517   2.313   1.287 -0.1216  0.1334  0.2339
  895TIP3    H124244   4.503   2.323   1.381 -0.1296 -1.0044  0.3743
  895TIP3    H224245   4.432   2.283   1.254 -0.4290  1.5330 -0.3203
  896TIP3   OH224246   3.941   2.003   8.411 -0.0476  0.0883 -0.2459
  896TIP3    H124247   3.916   2.090   8.443  1.2639  0.1906  0.5788
  896TIP3    H224248   4.016   1.978   8.466 -0.0278 -1.3061 -0.8723
  897TIP3   OH224249   6.744   2.837   0.910 -0.4225 -0.4194  0.3873
  897TIP3    H124250   6.809   2.774   0.879 -0.1635 -0.6592  1.3981
  897TIP3    H224251   6.691   2.856   0.832  1.3186  0.3937 -0.6637
  898TIP3   OH224252   2.560   2.444   0.286  0.2228 -0.1520  0.0397
  898TIP3    H124253   2.470   2.470   0.268  0.4890  0.6148 -0.2509
  898TIP3    H224254   2.569   2.452   0.381 -0.2675 -1.1082  0.1753
  899TIP3   OH224255   2.912   6.659   6.444 -0.1172  0.2702 -0.5793
  899TIP3    H124256   2.877   6.732   6.495  0.1656  1.9575 -2.6599
  899TIP3    H224257   2.989   6.696   6.400  0.6776 -1.6121 -0.8381
  900TIP3   OH224258   3.736   4.830   1.627  0.7900  0.7236  0.5422
  900TIP3    H124259   3.700   4.871   1.706 -0.0114 -0.1299  0.6392
  900TIP3    H224260   3.689   4.747   1.620  0.9066  0.7542 -0.8033
  901TIP3   OH224261   0.387   6.836   0.785  0.2743  0.2237  0.4862
  901TIP3    H124262   0.297   6.838   0.755  0.3229  1.7987  0.4020
  901TIP3    H224263   0.384   6.868   0.875  0.4916 -1.8237  1.2777
  902TIP3   OH224264   0.226   3.323   0.623 -0.3934 -0.1820 -0.1345
  902TIP3    H124265   0.165   3.386   0.662  0.2266  0.0067  0.5423
  902TIP3    H224266   0.307   3.335   0.671 -0.3030 -1.6346  0.1144
  903TIP3   OH224267   5.757   4.552   0.245  0.0428  0.0020 -0.5821
  903TIP3    H124268   5.756   4.461   0.273 -0.5263  0.6565  1.7903
  903TIP3    H224269   5.665   4.575   0.235  0.1480  0.5109 -0.4073
  904TIP3   OH224270   5.768   0.595   8.107 -1.1636  0.2336 -0.6381
  904TIP3    H124271   5.842   0.634   8.152 -1.2580 -0.7536  0.4185
  904TIP3    H224272   5.728   0.536   8.172 -1.4449 -1.0574 -1.9281
  905TIP3   OH224273   4.453   0.196   0.273 -0.2843  0.0555 -0.2646
  905TIP3    H124274   4.505   0.195   0.192  0.6811  0.5868  0.3193
  905TIP3    H224275   4.445   0.104   0.297 -0.6689 -0.1118 -1.0196
  906TIP3   OH224276   0.357   1.358   6.844  0.1376 -0.0862  0.3840
  906TIP3    H124277   0.384   1.266   6.855 -0.5583 -0.1556  1.7579
  906TIP3    H224278   0.370   1.397   6.931 -1.9638  0.4409  0.5293
  907TIP3   OH224279   4.339   3.991   6.120 -0.3872 -0.2172 -0.3009
  907TIP3    H124280   4.297   4.042   6.189  0.2182 -1.0014  0.6763
  907TIP3    H224281   4.282   3.914   6.110 -1.5117  0.7765 -2.0406
  908TIP3   OH224282   1.724   2.198   0.416  0.1280 -0.1812  0.5248
  908TIP3    H124283   1.764   2.111   0.423 -0.0636 -0.3864 -0.8250
  908TIP3    H224284   1.796   2.254   0.387 -0.4155 -0.4755 -1.5220
  909TIP3   OH224285   3.641   4.344   6.959 -0.0169  0.1102  0.3732
  909TIP3    H124286   3.625   4.409   6.891  1.2738  0.6930  0.5887
  909TIP3    H224287   3.577   4.364   7.027 -0.3759  0.4276 -0.0561
  910TIP3   OH224288   0.357   6.697   6.552 -0.0749  0.0315  0.0168
  910TIP3    H124289   0.300   6.774   6.545  0.1237  0.0448 -2.4973
  910TIP3    H224290   0.435   6.729   6.598 -1.1310  0.5654  1.5201
  911TIP3   OH224291   4.042   4.084   8.312  0.1446  0.1172  0.0513
  911TIP3    H124292   4.082   4.079   8.399  0.7855 -0.6060 -0.2742
  911TIP3    H224293   3.957   4.124   8.328 -0.0306 -0.6224  1.1198
  912TIP3   OH224294   1.637   5.683   0.689 -0.3349  0.2071  0.2448
  912TIP3    H124295   1.685   5.676   0.771  0.6664  1.5389 -0.1974
  912TIP3    H224296   1.546   5.665   0.713  0.0802 -0.4268  1.4469
  913TIP3   OH224297   6.888   6.467   0.856  0.3306  0.0148 -0.7748
  913TIP3    H124298   6.841   6.539   0.898  0.1479  0.5123 -1.8021
  913TIP3    H224299   6.895   6.400   0.925  0.9167  1.1762  0.3380
  914TIP3   OH224300   5.806   1.314   1.495  0.2428  0.2495 -0.4258
  914TIP3    H124301   5.736   1.337   1.434 -0.2175 -0.3208 -0.1154
  914TIP3    H224302   5.852   1.397   1.511 -1.1371  0.8988  0.3584
  915TIP3   OH224303   0.485   4.871   6.097  0.2952 -0.9101 -0.4494
  915TIP3    H124304   0.414   4.815   6.065  0.0851 -1.3021  0.6458
  915TIP3    H224305   0.450   4.910   6.177  1.1143 -0.6547 -0.2091
  916TIP3   OH224306   5.928   2.514   0.297 -0.2262  0.0312  0.2309
  916TIP3    H124307   5.924   2.478   0.385 -0.6734 -0.7519 -0.0984
  916TIP3    H224308   5.915   2.609   0.309  2.8902  0.4541  1.3109
  917TIP3   OH224309   1.930   2.081   0.014 -0.8218 -0.3471  0.3374
  917TIP3    H124310   1.890   1.998   0.041 -1.6677  0.0927  0.4605
  917TIP3    H224311   1.972   2.061  -0.070 -0.1218 -1.1523  0.8686
  918TIP3   OH224312   3.811   5.952   2.218 -0.2291  0.3809 -0.2307
  918TIP3    H124313   3.888   5.922   2.267  0.2855 -0.9714 -1.7484
  918TIP3    H224314   3.833   6.042   2.193 -0.0544  0.7248  1.0864
  919TIP3   OH224315   1.410   3.366   6.921 -0.0480 -0.0579 -0.3374
  919TIP3    H124316   1.386   3.332   6.835 -0.3343 -0.4441 -0.1078
  919TIP3    H224317   1.503   3.345   6.930  0.2730  1.0013 -1.0214
  920TIP3   OH224318   6.715   3.198   1.900 -0.4943  0.2331  0.0130
  920TIP3    H124319   6.796   3.175   1.947  1.2813  2.0538 -1.9420
  920TIP3    H224320   6.692   3.284   1.934 -1.7966 -0.3577  0.6959
  921TIP3   OH224321   2.223   6.188   1.179  0.2602  0.2481  0.1353
  921TIP3    H124322   2.204   6.263   1.235  3.0552  0.0558  1.5052
  921TIP3    H224323   2.315   6.167   1.197 -0.0128 -2.6393 -1.2461
  922TIP3   OH224324   1.843   6.682   8.272 -0.5039  0.0584 -0.7478
  922TIP3    H124325   1.920   6.696   8.217  1.1111 -1.1386  1.0248
  922TIP3    H224326   1.815   6.770   8.297 -0.9677  0.5902 -3.0025
  923TIP3   OH224327   3.809   0.386   0.548 -0.0619 -0.2421  0.2264
  923TIP3    H124328   3.835   0.337   0.626 -0.9164 -1.2427 -0.0968
  923TIP3    H224329   3.726   0.427   0.571 -0.6524 -1.0896 -0.3746
  924TIP3   OH224330   3.802   3.277   1.351  0.0476  0.0505 -0.0049
  924TIP3    H124331   3.854   3.212   1.305  0.2563  0.2657 -0.0744
  924TIP3    H224332   3.828   3.361   1.312 -1.2295  0.0574 -0.8897
  925TIP3   OH224333   2.549   1.009   6.592  0.2190 -0.0312  0.3233
  925TIP3    H124334   2.591   0.938   6.641  1.1637  1.2847  1.4975
  925TIP3    H224335   2.620   1.050   6.543 -0.5211 -0.5740 -1.2562
  926TIP3   OH224336   1.936   3.716   7.062  0.0921 -0.1045  0.1573
  926TIP3    H124337   1.978   3.637   7.027 -3.2112 -1.1743 -1.8755
  926TIP3    H224338   1.924   3.773   6.986 -1.2649  0.5269  0.8091
  927TIP3   OH224339   4.408   0.290   8.407 -0.7353  0.2942 -0.0577
  927TIP3    H124340   4.404   0.194   8.403  1.2387  0.2154 -1.6592
  927TIP3    H224341   4.421   0.317   8.316 -0.5946  2.0616  0.4526
  928TIP3   OH224342   5.554   4.269   7.383  0.0045  0.3906 -0.2521
  928TIP3    H124343   5.607   4.315   7.449  1.1711 -0.3447 -0.6470
  928TIP3    H224344   5.494   4.214   7.434 -0.6075  1.4603  0.2058
  929TIP3   OH224345   1.998   6.339   6.184 -0.0959  0.3099 -0.0953
  929TIP3    H124346   2.060   6.283   6.230 -0.4561 -0.0775 -0.0766
  929TIP3    H224347   2.033   6.427   6.195 -0.3203  0.2501  1.1445
  930TIP3   OH224348   0.643   6.242   6.455 -0.0389  0.4104 -0.0294
  930TIP3    H124349   0.572   6.268   6.396 -0.4384  0.3189  0.4143
  930TIP3    H224350   0.715   6.302   6.433 -0.8436  1.7136  0.7589
  931TIP3   OH224351   4.388   0.834   1.645  0.2843 -0.5178 -0.4791
  931TIP3    H124352   4.424   0.825   1.734  1.7708 -1.3556 -1.1212
  931TIP3    H224353   4.293   0.836   1.658  0.3931 -2.1712  1.0469
  932TIP3   OH224354   3.423   4.443   1.229 -0.2075 -0.4892 -0.4637
  932TIP3    H124355   3.511   4.472   1.250  0.8782 -2.3008 -2.1716
  932TIP3    H224356   3.425   4.348   1.240 -1.5455 -0.7177 -1.8058
  933TIP3   OH224357   5.381   3.209   0.996  0.0326  0.6313  0.2688
  933TIP3    H124358   5.357   3.226   1.087  0.2405  2.4548  0.0176
  933TIP3    H224359   5.419   3.291   0.965  2.7355 -0.8219 -0.6004
  934TIP3   OH224360   2.943   6.510   2.325 -0.3105  0.3622  0.1343
  934TIP3    H124361   2.982   6.431   2.287 -0.2986  1.0894 -1.4598
  934TIP3    H224362   2.888   6.478   2.397  3.0402 -0.7143  2.4114
  935TIP3   OH224363   5.156   2.713   8.312 -0.2646 -0.5589  0.1868
  935TIP3    H124364   5.195   2.797   8.337  0.5465 -0.8686 -0.0120
  935TIP3    H224365   5.210   2.647   8.357 -0.1888 -1.0175 -0.5556
  936TIP3   OH224366   2.145   1.395   1.263  0.2977  0.1053  0.3347
  936TIP3    H124367   2.056   1.383   1.294  0.5564 -0.9910  0.7061
  936TIP3    H224368   2.200   1.378   1.339  0.9080 -1.9668 -0.4971
  937TIP3   OH224369   2.121   6.231   8.461  0.5879 -0.4500  0.3126
  937TIP3    H124370   2.101   6.322   8.439  1.1039 -0.3448  0.2718
  937TIP3    H224371   2.090   6.180   8.386 -1.0718 -0.4671  0.9650
  938TIP3   OH224372   3.150   0.000   7.797 -0.2024 -0.2331 -0.0502
  938TIP3    H124373   3.105   0.057   7.734  0.5567  0.5544  0.1057
  938TIP3    H224374   3.148  -0.087   7.757 -0.3446  0.1235 -0.8264
  939TIP3   OH224375   3.073   4.553   2.162 -0.2237  0.3954  0.1226
  939TIP3    H124376   3.084   4.468   2.203  1.5419  0.9782  0.9540
  939TIP3    H224377   2.986   4.549   2.121 -0.9707 -1.1128  1.7240
  940TIP3   OH224378   4.480   2.403   7.735  0.2962 -0.7059  0.3692
  940TIP3    H124379   4.441   2.395   7.822  0.0251  2.0803  0.5774
  940TIP3    H224380   4.548   2.469   7.745 -0.0443  0.0179 -1.6016
  941TIP3   OH224381   1.332   6.727   6.949 -0.5192  0.0889 -0.0702
  941TIP3    H124382   1.259   6.678   6.985 -0.3546 -1.8026 -2.1117
  941TIP3    H224383   1.391   6.741   7.023 -2.0153 -0.0743  1.1829
  942TIP3   OH224384   6.140   0.492   2.800 -0.8110 -0.1070 -0.0179
  942TIP3    H124385   6.164   0.545   2.876 -0.9304  1.1700 -0.8394
  942TIP3    H224386   6.218   0.492   2.745 -0.5663 -1.4310  0.3048
  943TIP3   OH224387   6.815   0.458   6.745 -0.1168  0.4719  0.1993
  943TIP3    H124388   6.802   0.511   6.667  0.0084 -0.7605 -0.6835
  943TIP3    H224389   6.797   0.368   6.717 -0.3739  0.0365  1.6654
  944TIP3   OH224390   1.102   0.541   0.412  0.2411 -0.2191  0.0516
  944TIP3    H124391   1.065   0.521   0.326  0.4755 -0.0174 -0.0977
  944TIP3    H224392   1.044   0.608   0.448 -0.7934 -1.4320  0.7312
  945TIP3   OH224393   3.253   0.272   0.052  0.3374 -0.4061  0.1298
  945TIP3    H124394   3.160   0.288   0.040 -0.3768 -3.5136  0.4599
  945TIP3    H224395   3.262   0.254   0.146  1.2506 -0.1825  0.0918
  946TIP3   OH224396   4.291   6.619   0.910 -0.9378  0.2577 -0.4541
  946TIP3    H124397   4.271   6.531   0.880 -2.0191 -0.0572  1.1280
  946TIP3    H224398   4.366   6.608   0.968 -0.4445  0.5408 -1.0163
  947TIP3   OH224399   1.365   2.073   7.518  0.4534  0.2088 -0.1437
  947TIP3    H124400   1.425   2.109   7.452 -1.2140 -1.8135 -3.0249
  947TIP3    H224401   1.373   1.978   7.507 -2.0253 -0.1386  0.4807
  948TIP3   OH224402   1.018   2.272   0.197  0.5070  0.4060  0.1013
  948TIP3    H124403   1.110   2.278   0.171  0.5337  1.8261  0.4482
  948TIP3    H224404   0.990   2.186   0.166  2.1024 -0.2894  0.4829
  949TIP3   OH224405   0.123   5.490   8.268 -0.4632  0.6504 -0.1827
  949TIP3    H124406   0.174   5.549   8.324  2.4019 -1.4739 -0.3224
  949TIP3    H224407   0.134   5.525   8.180  1.7666 -0.2977 -0.3512
  950TIP3   OH224408   2.303   6.790   6.765 -0.5807 -0.2290  0.0166
  950TIP3    H124409   2.219   6.819   6.729 -0.0052  0.8069 -0.5301
  950TIP3    H224410   2.357   6.773   6.688 -0.1100 -0.3424  0.3710
  951TIP3   OH224411   4.100   6.848   6.636  0.0519  0.1602  0.5503
  951TIP3    H124412   4.046   6.779   6.597 -1.8419  1.2229  1.1629
  951TIP3    H224413   4.166   6.867   6.570  0.1967 -1.7502  0.0939
  952TIP3   OH224414   1.689   5.510   8.079 -0.0231 -0.0664 -1.1999
  952TIP3    H124415   1.754   5.464   8.025 -1.1043 -0.0367 -2.5720
  952TIP3    H224416   1.666   5.447   8.147  1.3582 -0.1068 -0.7367
  953TIP3   OH224417   2.547   4.586   0.761 -0.0329 -0.7020 -0.2833
  953TIP3    H124418   2.617   4.649   0.780 -0.6234 -0.7177  2.4076
  953TIP3    H224419   2.591   4.500   0.764 -0.0548 -0.6864  0.9892
  954TIP3   OH224420   2.071   1.028   2.222  0.0386 -0.6523  0.0131
  954TIP3    H124421   2.089   1.088   2.294 -2.9500  2.4688 -1.4932
  954TIP3    H224422   2.010   0.965   2.258 -1.3420  0.8079  0.3591
  955TIP3   OH224423   2.273   1.563   0.828  0.4150  0.1995 -0.1738
  955TIP3    H124424   2.344   1.541   0.768  1.2252  1.6352  0.2160
  955TIP3    H224425   2.224   1.481   0.839  2.1182 -0.8716 -0.2863
  956TIP3   OH224426   1.263   5.703   7.744  0.0424  0.2501 -0.2783
  956TIP3    H124427   1.356   5.691   7.723  0.0416  2.7713 -2.2504
  956TIP3    H224428   1.255   5.674   7.835  2.3244 -1.7899 -0.6288
  957TIP3   OH224429   5.458   4.452   1.745  0.3260  0.5371  0.2495
  957TIP3    H124430   5.503   4.500   1.675  1.6722 -0.0259  0.6932
  957TIP3    H224431   5.528   4.429   1.807 -0.8083  0.8604  1.6966
  958TIP3   OH224432   0.472   0.502   1.706 -0.1103 -0.2772 -0.1465
  958TIP3    H124433   0.420   0.541   1.776  2.0337 -0.8940  1.9407
  958TIP3    H224434   0.501   0.576   1.653 -2.4671  0.1216 -0.9735
  959TIP3   OH224435   4.590   0.843   1.046 -0.0485  0.7611  0.3423
  959TIP3    H124436   4.561   0.868   0.959 -3.1734 -1.0552  0.7008
  959TIP3    H224437   4.679   0.809   1.034 -0.6172  0.0212 -2.2375
  960TIP3   OH224438   6.366   1.517   0.507 -0.4748 -0.7665 -0.6170
  960TIP3    H124439   6.329   1.590   0.555 -0.3408  0.3731 -2.1759
  960TIP3    H224440   6.306   1.503   0.434  0.4818 -0.9683 -1.3890
  961TIP3   OH224441   5.786   2.451   7.699  0.0779 -0.0756  0.0014
  961TIP3    H124442   5.846   2.495   7.639  0.4172 -0.5773 -0.0361
  961TIP3    H224443   5.832   2.371   7.725 -0.6652 -0.5856 -0.2038
  962TIP3   OH224444   3.761   5.741   0.037 -0.0379  0.1768  0.3709
  962TIP3    H124445   3.762   5.836   0.050  1.0370  0.6249 -2.3301
  962TIP3    H224446   3.811   5.707   0.111  3.9251  2.2539 -1.0048
  963TIP3   OH224447   4.006   4.256   1.195 -0.3878  0.0554 -0.2862
  963TIP3    H124448   4.079   4.254   1.257 -0.1080  1.2164 -0.5617
  963TIP3    H224449   4.047   4.267   1.109 -0.7831 -1.3643 -0.6845
  964TIP3   OH224450   0.294   2.613   0.387 -0.5298 -0.1233  0.5149
  964TIP3    H124451   0.200   2.605   0.375 -1.0001  0.2571  3.2367
  964TIP3    H224452   0.307   2.704   0.415  0.6782 -0.1090 -0.0434
  965TIP3   OH224453   5.185   1.146   1.175 -0.5510  0.1432 -0.1849
  965TIP3    H124454   5.100   1.112   1.147 -0.2670 -1.8366  1.1453
  965TIP3    H224455   5.182   1.144   1.271  0.6000  1.1083 -0.1026
  966TIP3   OH224456   3.654   3.564   6.582  0.1603 -0.2733 -0.1065
  966TIP3    H124457   3.688   3.536   6.667  0.2332  0.1101 -0.0098
  966TIP3    H224458   3.709   3.639   6.557 -1.3187  1.0804  0.5661
  967TIP3   OH224459   5.073   3.847   2.645 -0.3834  0.1392  0.6791
  967TIP3    H124460   5.078   3.752   2.656  0.2962 -0.3690 -2.9580
  967TIP3    H224461   4.981   3.865   2.626  0.0424 -0.4795 -2.5488
  968TIP3   OH224462   1.656   2.710   1.885  0.3188 -0.1806 -0.0477
  968TIP3    H124463   1.570   2.690   1.923  1.2861 -4.2960  0.4934
  968TIP3    H224464   1.649   2.677   1.795  0.5882  1.9120 -0.8805
  969TIP3   OH224465   1.921   4.374   6.971 -0.3517 -0.0518  0.4853
  969TIP3    H124466   1.865   4.323   7.030 -0.6372  1.1645  1.3041
  969TIP3    H224467   2.002   4.387   7.020  0.3725 -1.1113 -0.3793
  970TIP3   OH224468   4.332   3.565   1.087  0.7869 -0.3600  0.4469
  970TIP3    H124469   4.275   3.488   1.084  1.2137 -0.7177  1.1538
  970TIP3    H224470   4.348   3.579   1.181  1.6482 -0.1181  0.2736
  971TIP3   OH224471   6.406   5.009   0.147  0.0380  0.0295  0.2310
  971TIP3    H124472   6.367   5.062   0.077  0.6200  0.1495 -0.0109
  971TIP3    H224473   6.490   4.980   0.111  0.1981 -0.1789  0.7622
  972TIP3   OH224474   1.064   5.102   6.838 -0.6804  0.3865  0.6868
  972TIP3    H124475   1.157   5.126   6.833 -0.5710 -0.2579 -1.8243
  972TIP3    H224476   1.017   5.185   6.831 -0.3124  0.6488  1.2414
  973TIP3   OH224477   1.923   5.220   7.594  0.8146  0.0649  0.5803
  973TIP3    H124478   1.909   5.161   7.668  0.4823  0.8667  1.1737
  973TIP3    H224479   1.971   5.167   7.530 -1.1683 -1.4701  0.2670
  974TIP3   OH224480   4.502   3.824   6.347  0.2997 -0.4579  0.6500
  974TIP3    H124481   4.450   3.861   6.418  1.3640  0.2349  1.0966
  974TIP3    H224482   4.484   3.730   6.351 -2.7268 -0.0754 -0.7317
  975TIP3   OH224483   0.969   4.621   8.533 -0.5824 -0.0033  0.2201
  975TIP3    H124484   1.047   4.566   8.538  0.0366  0.9200  0.7484
  975TIP3    H224485   0.938   4.610   8.443  0.5250  0.1451 -0.1882
  976TIP3   OH224486   0.656   1.042   1.996  0.6590 -0.0329  0.4007
  976TIP3    H124487   0.719   1.028   1.925 -0.2329  1.6183 -0.7745
  976TIP3    H224488   0.709   1.052   2.074  1.8152  0.4187 -0.4222
  977TIP3   OH224489   2.930   4.551   7.148  0.6128  0.2603 -0.5930
  977TIP3    H124490   2.967   4.617   7.206 -0.5912  0.0225  0.5111
  977TIP3    H224491   2.858   4.512   7.199  1.7455 -2.4566 -0.8878
  978TIP3   OH224492   5.510   3.973   0.824  0.5711  0.3527  0.0649
  978TIP3    H124493   5.563   3.925   0.761  0.7403 -0.2531  0.6566
  978TIP3    H224494   5.568   4.042   0.857  1.1637 -0.5869  1.0456
  979TIP3   OH224495   0.875   2.112   0.636  0.2231 -0.2198 -0.4755
  979TIP3    H124496   0.896   2.028   0.678  0.5997  0.2202  0.2442
  979TIP3    H224497   0.803   2.146   0.688  2.7326  1.8505  2.0169
  980TIP3   OH224498   6.547   0.827   0.416  0.1495 -0.0461  0.2208
  980TIP3    H124499   6.596   0.852   0.495  1.2123 -1.7474  0.1374
  980TIP3    H224500   6.614   0.816   0.349 -0.4093 -1.5368 -0.1292
  981TIP3   OH224501   5.041   2.892   8.628  0.6047  0.0303 -0.0225
  981TIP3    H124502   5.056   2.939   8.546  0.8174  1.7658  0.9625
  981TIP3    H224503   5.106   2.822   8.628  1.0624  0.4324 -1.0206
  982TIP3   OH224504   3.650   2.029   7.801  0.5312 -0.2588 -0.0447
  982TIP3    H124505   3.736   2.014   7.761  1.3109  0.5283  1.2633
  982TIP3    H224506   3.589   1.978   7.748  1.5702  0.3995 -1.9596
  983TIP3   OH224507   6.311   1.421   8.039  0.3017  0.0152  0.2204
  983TIP3    H124508   6.308   1.388   7.949  0.0264 -0.9314  0.5687
  983TIP3    H224509   6.393   1.470   8.043 -0.5391  1.6461 -1.0634
  984TIP3   OH224510   0.553   4.085   7.272 -0.4600 -0.3130 -0.3814
  984TIP3    H124511   0.541   4.079   7.177 -2.4693 -0.7063 -0.1434
  984TIP3    H224512   0.565   3.994   7.301 -1.8734 -0.4211 -0.0612
  985TIP3   OH224513   5.854   3.751   8.277  0.2473 -0.3882 -0.0370
  985TIP3    H124514   5.780   3.765   8.218 -0.5198 -0.8830  0.7690
  985TIP3    H224515   5.913   3.693   8.229  0.6618  0.8952 -1.1179
  986TIP3   OH224516   5.749   1.298   2.560 -0.3112 -0.6004 -0.2230
  986TIP3    H124517   5.783   1.210   2.541 -0.4637 -0.4537 -1.1995
  986TIP3    H224518   5.827   1.349   2.580 -0.0324 -0.5258 -1.4213
  987TIP3   OH224519   3.939   4.569   1.036 -0.3797 -0.3896  0.1019
  987TIP3    H124520   3.959   4.662   1.025 -1.9449 -0.0397  0.0820
  987TIP3    H224521   3.958   4.552   1.128  1.6224 -0.5132 -0.2920
  988TIP3   OH224522   5.505   4.196   1.570  0.2672  0.2402  0.2761
  988TIP3    H124523   5.439   4.187   1.639  1.2571  1.7944  1.5039
  988TIP3    H224524   5.583   4.228   1.615  0.8371  1.7299 -1.6170
  989TIP3   OH224525   0.444   6.295   6.264  0.4451 -0.1113  0.7054
  989TIP3    H124526   0.422   6.288   6.171 -0.3695  1.8955  0.7025
  989TIP3    H224527   0.388   6.365   6.297  1.1930 -0.3325  2.5751
  990TIP3   OH224528   1.506   1.728   1.328  0.3728  0.2874  0.1970
  990TIP3    H124529   1.465   1.807   1.294  0.0254 -0.0831 -0.2572
  990TIP3    H224530   1.571   1.704   1.262  0.3478  0.0871  0.2423
  991TIP3   OH224531   2.755   3.985   0.992 -0.4444 -0.4591 -0.0529
  991TIP3    H124532   2.673   4.001   1.038 -0.8831 -0.0355 -0.9479
  991TIP3    H224533   2.732   3.923   0.923  0.3234 -1.5415  0.6431
  992TIP3   OH224534   6.666   3.392   1.003 -0.8472  0.1661 -0.6371
  992TIP3    H124535   6.610   3.320   0.975 -0.2910 -0.9449  0.9739
  992TIP3    H224536   6.697   3.366   1.090  1.6892  0.9886 -1.2104
  993TIP3   OH224537   0.028   6.629   1.482  0.1122 -0.4351 -0.0887
  993TIP3    H124538  -0.029   6.701   1.455  0.2165 -0.0025  0.8026
  993TIP3    H224539   0.117   6.661   1.463  0.1222 -0.5991 -0.3159
  994TIP3   OH224540   3.866   3.037   1.959 -0.2866  0.0222  1.1935
  994TIP3    H124541   3.865   2.941   1.966  0.6634 -0.3656 -2.1623
  994TIP3    H224542   3.953   3.063   1.990  1.2999 -0.8202 -2.1597
  995TIP3   OH224543   3.424   3.350   8.505  0.3964 -0.2620  0.0302
  995TIP3    H124544   3.369   3.374   8.430 -0.3046 -0.7890  0.3567
  995TIP3    H224545   3.513   3.356   8.472  0.1437  0.5191 -0.5457
  996TIP3   OH224546   6.649   1.449   0.673 -0.4113  0.2931  0.5076
  996TIP3    H124547   6.590   1.477   0.603  0.0255 -1.2651 -0.5507
  996TIP3    H224548   6.733   1.489   0.651 -0.0168 -0.9984 -0.4893
  997TIP3   OH224549   1.165   1.545   8.113 -0.3995  0.3043  0.2194
  997TIP3    H124550   1.133   1.516   8.198 -0.2677 -1.7626 -0.3684
  997TIP3    H224551   1.086   1.571   8.065 -0.7882 -0.9399  0.1431
  998TIP3   OH224552   4.835   4.976   0.295 -0.3999 -0.5925 -0.3461
  998TIP3    H124553   4.849   5.060   0.339 -1.3530 -0.5560 -0.0928
  998TIP3    H224554   4.752   4.987   0.248 -1.5415 -1.9713  1.1956
  999TIP3   OH224555   6.169   0.101   0.441  0.0916 -0.6749 -0.0515
  999TIP3    H124556   6.255   0.059   0.438  0.0149 -0.8308 -0.1186
  999TIP3    H224557   6.110   0.038   0.399  0.0114 -0.4103 -0.3388
 1000TIP3   OH224558   6.463   5.447   0.438  0.1594 -0.4134 -0.0815
 1000TIP3    H124559   6.389   5.388   0.422  0.4064 -0.7003 -0.1770
 1000TIP3    H224560   6.531   5.417   0.377  0.2993 -0.0510 -0.1044
 1001TIP3   OH224561   1.630   3.173   8.472 -0.5801 -0.2160  0.0998
 1001TIP3    H124562   1.551   3.197   8.521  0.5830  1.5470  1.2077
 1001TIP3    H224563   1.645   3.246   8.412 -0.0673 -0.7682 -0.4571
 1002TIP3   OH224564   6.621   5.082   7.214  0.2173 -0.3678  0.3983
 1002TIP3    H124565   6.602   5.176   7.205  2.6576  0.2700  1.2554
 1002TIP3    H224566   6.637   5.052   7.125 -0.2285  0.0909  0.1577
 1003TIP3   OH224567   3.010   0.558   6.858 -0.5006 -0.1559 -0.9958
 1003TIP3    H124568   2.960   0.495   6.910  0.7889 -0.7410 -0.4226
 1003TIP3    H224569   2.951   0.580   6.786 -2.1930  0.3829  0.4630
 1004TIP3   OH224570   2.533   0.865   1.341 -0.7478  0.0928 -0.2101
 1004TIP3    H124571   2.590   0.791   1.361  0.5704  0.9463 -0.7084
 1004TIP3    H224572   2.494   0.888   1.426  1.4189  0.9263  0.6130
 1005TIP3   OH224573   5.424   6.810   1.764  0.0510  1.0696  0.5017
 1005TIP3    H124574   5.449   6.854   1.845  1.1821  0.0926  0.7222
 1005TIP3    H224575   5.350   6.754   1.789  0.8109  0.2738  1.0503
 1006TIP3   OH224576   0.071   1.217   7.077 -0.1008  0.3144  0.2348
 1006TIP3    H124577   0.087   1.309   7.054  2.0140 -0.4895 -2.0331
 1006TIP3    H224578  -0.024   1.207   7.074 -0.3404  2.3125  0.0026
 1007TIP3   OH224579   0.769   4.636   8.040  0.0335  0.2483 -0.1398
 1007TIP3    H124580   0.787   4.573   7.970 -1.4010 -0.1495 -0.1753
 1007TIP3    H224581   0.687   4.678   8.014 -0.1879  0.5440  0.9944
 1008TIP3   OH224582   5.050   1.400   7.629  0.3273  0.7344 -0.1095
 1008TIP3    H124583   5.133   1.424   7.588  1.0452 -0.6486  0.4790
 1008TIP3    H224584   5.067   1.316   7.671 -1.1349  0.8323  0.7590
 1009TIP3   OH224585   4.273   5.271   1.519  0.1175 -0.2931  0.7748
 1009TIP3    H124586   4.368   5.263   1.506  0.1497 -1.9253  1.8011
 1009TIP3    H224587   4.241   5.181   1.514 -1.3532  0.2192  0.7136
 1010TIP3   OH224588   1.182   0.389   7.898  0.1969 -0.1504 -0.0604
 1010TIP3    H124589   1.175   0.404   7.993 -0.5402 -0.5440 -0.0416
 1010TIP3    H224590   1.186   0.477   7.860 -0.9671  0.0486  0.2448
 1011TIP3   OH224591   4.197   1.685   1.680 -0.6114  0.2127 -0.3722
 1011TIP3    H124592   4.104   1.682   1.656 -0.6602  2.0696 -0.5482
 1011TIP3    H224593   4.241   1.634   1.612 -1.5030 -0.7575 -0.2432
 1012TIP3   OH224594   4.393   2.592   8.571 -0.2196  0.2654 -0.0085
 1012TIP3    H124595   4.337   2.523   8.607 -1.2070  0.6146 -0.8318
 1012TIP3    H224596   4.482   2.558   8.579 -0.4512 -0.0052  2.0134
 1013TIP3   OH224597   5.006   4.532   6.903 -0.1751 -0.5337 -0.3617
 1013TIP3    H124598   5.079   4.509   6.845 -0.3447  0.0492 -0.8123
 1013TIP3    H224599   5.047   4.568   6.981  0.0299  2.1171 -1.5761
 1014TIP3   OH224600   0.940   1.576   1.387 -0.1239 -0.1009  0.1244
 1014TIP3    H124601   0.960   1.626   1.466 -0.7730 -0.6641  0.6479
 1014TIP3    H224602   0.980   1.627   1.316 -1.1737  1.4303  0.5871
 1015TIP3   OH224603   6.216   4.156   0.857 -0.2516  0.0128 -0.0841
 1015TIP3    H124604   6.307   4.143   0.832  0.6638  1.0430  2.3588
 1015TIP3    H224605   6.198   4.084   0.918 -0.4855  0.7647  0.7555
 1016TIP3   OH224606   3.231   6.413   1.457  0.4047  0.1512 -0.1578
 1016TIP3    H124607   3.258   6.480   1.520  0.3742 -0.4262  0.4892
 1016TIP3    H224608   3.197   6.462   1.382  1.8831  0.8708 -0.3855
 1017TIP3   OH224609   4.932   4.638   7.543  0.2954 -0.2009  0.3890
 1017TIP3    H124610   4.914   4.725   7.577  1.5098  0.3923 -0.4343
 1017TIP3    H224611   4.881   4.634   7.461  2.3775  0.8396 -1.0484
 1018TIP3   OH224612   5.596   5.728   0.299 -0.2379 -0.6208 -0.5294
 1018TIP3    H124613   5.505   5.742   0.323 -0.4452 -0.9002 -1.1291
 1018TIP3    H224614   5.622   5.809   0.254  0.4015  0.2482  1.2882
 1019TIP3   OH224615   3.820   3.221   7.244 -0.2967  0.2628  0.1425
 1019TIP3    H124616   3.817   3.126   7.232  0.2450  0.2082  0.4190
 1019TIP3    H224617   3.903   3.237   7.290 -0.0219  0.9402 -0.5642
 1020TIP3   OH224618   1.431   2.925   8.339 -0.0673  0.4587 -0.0243
 1020TIP3    H124619   1.374   2.988   8.382  1.8373  0.8663  2.1007
 1020TIP3    H224620   1.507   2.918   8.397  0.0741 -3.4188 -0.4266
 1021TIP3   OH224621   5.301   1.880   6.647  0.0938 -0.6765  0.0661
 1021TIP3    H124622   5.311   1.792   6.611 -0.6916 -1.0482  0.7049
 1021TIP3    H224623   5.214   1.908   6.619  0.7592  0.3451 -1.0335
 1022TIP3   OH224624   0.575   5.896   0.008  0.3155  0.3906 -0.7205
 1022TIP3    H124625   0.600   5.810  -0.026  1.2735 -0.1945  1.2566
 1022TIP3    H224626   0.550   5.879   0.099  2.5377  2.4406  0.3882
 1023TIP3   OH224627   6.476   4.854   7.839  0.1411  0.2726  0.1735
 1023TIP3    H124628   6.449   4.859   7.747  0.2200  3.9114  0.2168
 1023TIP3    H224629   6.559   4.902   7.843 -0.4761  1.3092  2.2949
 1024TIP3   OH224630   2.440   4.845   1.424 -0.8113 -1.2352  0.3818
 1024TIP3    H124631   2.457   4.830   1.517 -1.4482 -1.1137  0.5213
 1024TIP3    H224632   2.502   4.914   1.399 -0.5618 -1.3468  0.6869
 1025TIP3   OH224633   5.410   1.677   2.003 -0.4651  0.0017 -0.4365
 1025TIP3    H124634   5.499   1.686   2.037 -0.9773  0.8423  0.7574
 1025TIP3    H224635   5.354   1.714   2.072 -1.6842  0.2051 -1.4909
 1026TIP3   OH224636   0.641   6.295   1.165 -0.6551 -0.0471  0.0926
 1026TIP3    H124637   0.556   6.300   1.209  0.1239 -2.1157  2.0884
 1026TIP3    H224638   0.663   6.201   1.168  2.5858  0.6189  1.5706
 1027TIP3   OH224639   2.233   5.668   8.032 -0.1650  0.0653 -0.8976
 1027TIP3    H124640   2.286   5.748   8.033  1.5252 -0.9918  0.3915
 1027TIP3    H224641   2.202   5.658   8.122 -1.0731 -0.3111 -1.2372
 1028TIP3   OH224642   0.746   0.780   1.554  0.3426  0.0904  0.0876
 1028TIP3    H124643   0.706   0.810   1.635  1.9291  0.2740  0.8318
 1028TIP3    H224644   0.731   0.851   1.492  3.4122  2.2705  1.6173
 1029TIP3   OH224645   1.754   0.922   1.420 -0.5347  0.5796  0.7215
 1029TIP3    H124646   1.746   0.907   1.514 -0.4029  1.4190  0.8664
 1029TIP3    H224647   1.675   0.883   1.383  0.5177 -1.9407  0.9052
 1030TIP3   OH224648   2.498   0.091   1.937 -0.2827  0.3278 -0.3633
 1030TIP3    H124649   2.511   0.171   1.988  1.0889  0.0002 -0.1793
 1030TIP3    H224650   2.485   0.022   2.003 -1.4097  0.3684 -0.5196
 1031TIP3   OH224651   5.258   2.858   6.526  0.0066 -0.2659 -0.2268
 1031TIP3    H124652   5.317   2.907   6.584 -0.3139  0.1505 -0.2525
 1031TIP3    H224653   5.171   2.892   6.546 -0.5257 -2.3112  1.3221
 1032TIP3   OH224654   2.433   0.085   6.540  0.4025 -0.0749 -0.3680
 1032TIP3    H124655   2.467   0.170   6.568 -1.2819  0.7026 -0.5579
 1032TIP3    H224656   2.338   0.094   6.545  0.1547 -2.5328  1.3114
 1033TIP3   OH224657   1.326   0.757   0.032 -0.0736  0.0073  0.0570
 1033TIP3    H124658   1.271   0.682   0.054  0.5362 -0.4164  0.1776
 1033TIP3    H224659   1.275   0.833   0.059 -0.7550 -0.3574 -0.1792
 1034TIP3   OH224660   2.892   3.189   7.484 -0.1391 -0.4620 -0.2576
 1034TIP3    H124661   2.869   3.166   7.574  0.0206  1.6040  0.3758
 1034TIP3    H224662   2.852   3.121   7.430 -1.0623 -1.2098  1.3236
 1035TIP3   OH224663   4.853   1.712   8.508 -0.4614  0.2782  0.3008
 1035TIP3    H124664   4.938   1.676   8.534 -1.8815 -2.9412  1.0770
 1035TIP3    H224665   4.827   1.768   8.581  0.6733  0.7694  0.3484
 1036TIP3   OH224666   1.243   1.688   7.499  0.4362 -0.4760 -0.9505
 1036TIP3    H124667   1.233   1.777   7.534  2.0739 -0.4035 -0.5472
 1036TIP3    H224668   1.208   1.693   7.410 -1.8120 -0.0999 -0.1043
 1037TIP3   OH224669   6.678   0.808   2.155  0.1861 -0.4365  0.6373
 1037TIP3    H124670   6.613   0.877   2.141  1.5897  1.2569  2.0895
 1037TIP3    H224671   6.711   0.789   2.067  0.4697  1.5068  0.2695
 1038TIP3   OH224672   1.752   4.688   8.151 -0.0359  0.1190 -0.2406
 1038TIP3    H124673   1.717   4.718   8.067  0.5131  1.0595 -0.1457
 1038TIP3    H224674   1.749   4.765   8.208 -2.0868 -0.9081  1.1989
 1039TIP3   OH224675   3.248   0.468   0.465 -0.1038  0.3344  0.5220
 1039TIP3    H124676   3.320   0.415   0.432  0.4575  0.8483  0.9082
 1039TIP3    H224677   3.184   0.405   0.498 -0.7162 -0.2187 -1.5447
 1040TIP3   OH224678   3.343   5.507   7.950 -0.6514  0.1421  0.0930
 1040TIP3    H124679   3.317   5.472   7.864 -0.4208 -0.2421  0.1803
 1040TIP3    H224680   3.261   5.512   7.999 -1.1854  2.4861 -0.8840
 1041TIP3   OH224681   0.597   0.370   2.607 -0.0597 -0.4380  0.2753
 1041TIP3    H124682   0.654   0.344   2.535  0.2921  1.6976 -0.2943
 1041TIP3    H224683   0.654   0.370   2.684  0.1209 -0.5981  0.1415
 1042TIP3   OH224684   3.000   2.000   8.593  0.1791 -0.2930  0.1659
 1042TIP3    H124685   2.960   2.086   8.581 -0.5712 -0.6181  0.2584
 1042TIP3    H224686   3.036   1.978   8.507 -0.8774 -0.4944 -0.2423
 1043TIP3   OH224687   5.517   1.763   1.718 -0.0553 -0.4804  0.6867
 1043TIP3    H124688   5.551   1.687   1.764 -1.8711 -0.1840  2.6413
 1043TIP3    H224689   5.422   1.750   1.715 -0.4356  1.7062  1.1473
 1044TIP3   OH224690   2.379   2.957   0.490 -1.0318 -0.2632  0.0279
 1044TIP3    H124691   2.434   2.951   0.411  0.0967  0.5362  0.7287
 1044TIP3    H224692   2.441   2.962   0.562 -1.9722  2.0440  0.7626
 1045TIP3   OH224693   0.664   6.019   1.133 -0.5528 -0.2245  0.1562
 1045TIP3    H124694   0.636   5.972   1.211  0.2975 -0.7176  0.1810
 1045TIP3    H224695   0.609   5.983   1.063 -0.3908 -0.7575  0.2971
 1046TIP3   OH224696   3.388   6.842   7.019  0.1601 -0.0355  0.4746
 1046TIP3    H124697   3.338   6.761   7.035 -0.7276  0.6807  1.5118
 1046TIP3    H224698   3.321   6.908   7.004  0.8446  0.6869  0.5471
 1047TIP3   OH224699   0.280   5.010   1.664 -0.5237  0.1244  0.0748
 1047TIP3    H124700   0.357   4.976   1.618 -0.7577  0.4755 -0.5767
 1047TIP3    H224701   0.217   5.030   1.595 -0.9244  0.5379  0.5551
 1048TIP3   OH224702   0.803   0.357   2.783  0.3795 -0.3025  0.2724
 1048TIP3    H124703   0.775   0.274   2.821 -0.0130 -1.1429 -1.7351
 1048TIP3    H224704   0.884   0.336   2.736 -0.5768  0.0316 -1.6202
 1049TIP3   OH224705   0.391   2.379   2.002  0.3094 -0.0433 -0.0217
 1049TIP3    H124706   0.412   2.290   2.030 -1.4160 -0.5526 -0.2798
 1049TIP3    H224707   0.299   2.376   1.978  0.4805  1.5738 -1.0234
 1050TIP3   OH224708   5.537   1.689   7.400  0.0919  0.0021  0.1610
 1050TIP3    H124709   5.605   1.731   7.347  0.3541 -0.4274  0.1502
 1050TIP3    H224710   5.489   1.761   7.439  1.0321  0.3212  0.7774
 1051TIP3   OH224711   3.347   6.366   7.349 -0.0961 -0.3021  0.4184
 1051TIP3    H124712   3.338   6.381   7.443 -0.0452  2.7732  0.0322
 1051TIP3    H224713   3.441   6.373   7.332 -0.3228  3.5156 -0.2888
 1052TIP3   OH224714   2.731   0.993   8.568  0.3456  0.3092 -0.2140
 1052TIP3    H124715   2.744   0.907   8.529 -0.8172 -0.1281  0.3097
 1052TIP3    H224716   2.750   0.981   8.661  2.5238  1.2065 -0.4927
 1053TIP3   OH224717   2.556   0.671   0.234  0.0355  0.0552  0.5466
 1053TIP3    H124718   2.600   0.738   0.286  0.4133 -1.1394  1.8414
 1053TIP3    H224719   2.495   0.630   0.295  0.9255 -1.7988  0.2684
 1054TIP3   OH224720   6.605   3.747   8.414 -0.3011 -0.3173  0.0800
 1054TIP3    H124721   6.625   3.837   8.390 -0.9886 -0.1037  0.2958
 1054TIP3    H224722   6.603   3.700   8.331 -1.9652  0.2760 -0.2480
 1055TIP3   OH224723   5.096   5.875   1.280  0.1880  0.3603  0.2938
 1055TIP3    H124724   5.124   5.966   1.294 -0.8165  1.2169 -2.4184
 1055TIP3    H224725   5.001   5.880   1.276  0.0209 -1.1556  1.8258
 1056TIP3   OH224726   2.098   3.672   1.851  0.5017 -0.1531  0.0769
 1056TIP3    H124727   2.139   3.605   1.905  0.4079 -0.5158 -0.2933
 1056TIP3    H224728   2.062   3.623   1.776 -0.1353  0.2245  0.1328
 1057TIP3   OH224729   3.835   2.538   7.582 -0.3683  0.6982 -0.0537
 1057TIP3    H124730   3.824   2.560   7.674 -2.1717  0.6754 -0.2318
 1057TIP3    H224731   3.892   2.606   7.547 -0.6648  1.4082  0.8184
 1058TIP3   OH224732   3.898   1.008   7.905 -0.6588 -0.4974  0.0222
 1058TIP3    H124733   3.862   0.927   7.939 -0.0095 -1.1705 -0.8424
 1058TIP3    H224734   3.989   1.008   7.936 -0.8449  0.2510  0.5989
 1059TIP3   OH224735   3.634   6.459   7.962 -0.2675 -0.1773  0.0400
 1059TIP3    H124736   3.679   6.465   8.046  0.5558  0.4083 -0.4322
 1059TIP3    H224737   3.673   6.384   7.918 -0.4732 -0.2878  0.0423
 1060TIP3   OH224738   0.866   6.445   1.679 -0.1293 -0.3743  0.5690
 1060TIP3    H124739   0.887   6.433   1.587  0.6023  1.3122  0.4798
 1060TIP3    H224740   0.824   6.531   1.683  1.4285  0.3702  2.0227
 1061TIP3   OH224741   5.337   6.517   1.401 -0.0339 -0.4111  0.3665
 1061TIP3    H124742   5.293   6.490   1.481 -0.7380  0.5424  0.3075
 1061TIP3    H224743   5.424   6.546   1.430  0.3187 -1.6017  0.5679
 1062TIP3   OH224744   0.745   0.209   0.412  0.1882 -0.1707  0.0319
 1062TIP3    H124745   0.837   0.232   0.424  0.4237 -0.4865 -1.0991
 1062TIP3    H224746   0.706   0.224   0.498  1.6144 -1.5774  0.9880
 1063TIP3   OH224747   4.819   0.382   2.003  0.1647 -0.8667 -0.1590
 1063TIP3    H124748   4.751   0.371   1.936  1.8223 -0.5569 -1.9783
 1063TIP3    H224749   4.829   0.477   2.011  0.3943 -0.9104  0.0786
 1064TIP3   OH224750   1.257   5.322   8.003 -0.4231  0.0479 -0.6358
 1064TIP3    H124751   1.212   5.338   8.086  1.1327 -0.7993  0.4212
 1064TIP3    H224752   1.243   5.402   7.952 -0.7210  0.9152  0.7692
 1065TIP3   OH224753   4.831   3.478   8.055  0.8224  0.2427  0.0232
 1065TIP3    H124754   4.775   3.471   8.132 -0.2050 -0.6321 -0.7567
 1065TIP3    H224755   4.792   3.548   8.003  0.8090  0.0559 -0.2248
 1066TIP3   OH224756   4.139   2.328   6.911  0.1138 -0.1016 -0.0015
 1066TIP3    H124757   4.143   2.245   6.863  0.4355 -0.6401  0.9237
 1066TIP3    H224758   4.222   2.333   6.958 -1.1382 -0.8417  2.4882
 1067TIP3   OH224759   2.980   2.866   8.533 -0.2586  0.3797  0.1186
 1067TIP3    H124760   2.900   2.851   8.584 -1.4333  1.4939 -1.3214
 1067TIP3    H224761   3.051   2.860   8.598 -1.2712 -2.5650  1.1413
 1068TIP3   OH224762   3.251   2.740   7.469  0.1080 -0.1281 -0.6113
 1068TIP3    H124763   3.343   2.715   7.481 -0.2934 -0.6441  1.7211
 1068TIP3    H224764   3.253   2.835   7.460  0.9735 -0.2574 -2.2889
 1069TIP3   OH224765   0.797   4.418   7.548  0.0058  0.0206  0.6272
 1069TIP3    H124766   0.725   4.362   7.519 -2.1578  2.0369  1.7033
 1069TIP3    H224767   0.795   4.492   7.488  1.4145 -0.0061  0.5149
 1070TIP3   OH224768   2.806   3.745   8.366  0.0831  0.0207 -0.3380
 1070TIP3    H124769   2.884   3.695   8.391 -0.0577 -0.6127 -1.1375
 1070TIP3    H224770   2.772   3.699   8.290 -2.2277 -0.9261  1.1591
 1071TIP3   OH224771   1.897   0.956   1.093 -0.1793  0.1204  0.2655
 1071TIP3    H124772   1.987   0.987   1.082 -0.3903  1.0119  0.9208
 1071TIP3    H224773   1.894   0.926   1.184 -0.6175  0.3893  0.3430
 1072TIP3   OH224774   6.349   6.126   0.730 -0.1978  0.1623 -0.0760
 1072TIP3    H124775   6.335   6.188   0.802  0.7121 -1.0406  1.1822
 1072TIP3    H224776   6.319   6.042   0.765 -1.7282 -0.1088 -1.8632
 1073TIP3   OH224777   5.270   4.348   0.802  0.2290  0.4011  0.8869
 1073TIP3    H124778   5.317   4.432   0.799  1.1525 -0.1154  0.6024
 1073TIP3    H224779   5.268   4.325   0.895  1.4586 -0.0599  0.8215
 1074TIP3   OH224780   6.628   1.180   0.695  0.0648  0.3631  0.1686
 1074TIP3    H124781   6.532   1.181   0.700  0.1097  0.8719  1.1309
 1074TIP3    H224782   6.653   1.272   0.687  0.5394  0.4198  1.8621
 1075TIP3   OH224783   1.323   5.216   0.318 -0.1602 -0.1167 -0.3299
 1075TIP3    H124784   1.324   5.237   0.411 -0.6436 -1.6473  0.0445
 1075TIP3    H224785   1.277   5.290   0.277  1.3439  1.3011  0.4116
 1076TIP3   OH224786   6.360   6.711   1.014 -0.2571  0.3874 -0.2527
 1076TIP3    H124787   6.444   6.705   0.969 -0.5975  0.4123 -0.9045
 1076TIP3    H224788   6.351   6.627   1.060  1.2482  1.3201  1.8790
 1077TIP3   OH224789   0.646   6.124   6.699 -0.5681 -0.2311 -0.4327
 1077TIP3    H124790   0.725   6.159   6.740 -2.7882  2.3618  2.0878
 1077TIP3    H224791   0.645   6.165   6.612  0.7334 -0.1424 -0.4235
 1078TIP3   OH224792   4.356   0.052   0.628  0.7399 -0.0749 -0.7888
 1078TIP3    H124793   4.419  -0.009   0.666 -0.0456 -1.0690 -1.0055
 1078TIP3    H224794   4.310   0.000   0.562  0.2973  0.8737 -1.2444
 1079TIP3   OH224795   2.356   5.453   2.137  0.3678 -1.0147 -0.4245
 1079TIP3    H124796   2.417   5.493   2.075  0.1435  1.3303  0.7267
 1079TIP3    H224797   2.269   5.482   2.107 -0.0664 -2.7763 -0.9780
 1080TIP3   OH224798   5.722   2.784   7.762  1.0957  0.3762 -0.2311
 1080TIP3    H124799   5.708   2.742   7.847  0.6918 -0.2857 -0.6192
 1080TIP3    H224800   5.786   2.728   7.719  1.7451  1.0346 -0.1455
 1081TIP3   OH224801   4.725   6.774   8.625 -0.0642 -0.0841 -0.3162
 1081TIP3    H124802   4.773   6.801   8.546 -0.3987 -0.1839 -0.5573
 1081TIP3    H224803   4.789   6.783   8.696  0.3327 -0.2895 -0.6429
 1082TIP3   OH224804   6.071   0.126   1.065  0.4359  0.1343  0.2480
 1082TIP3    H124805   6.015   0.187   1.017 -0.5282 -0.8934  0.0430
 1082TIP3    H224806   6.159   0.143   1.031  0.2405  1.5748  0.3753
 1083TIP3   OH224807   6.160   1.186   1.130 -0.4056  0.0099 -0.1596
 1083TIP3    H124808   6.097   1.255   1.108 -0.3271 -0.0387 -0.5354
 1083TIP3    H224809   6.149   1.173   1.224  0.8744  1.8245  0.2733
 1084TIP3   OH224810   1.962   6.443   8.348 -0.2482  0.0413 -0.3086
 1084TIP3    H124811   1.941   6.508   8.281 -3.0674  1.5966  1.8632
 1084TIP3    H224812   1.975   6.495   8.428 -1.8723 -1.9457  1.3787
 1085TIP3   OH224813   6.415   1.163   7.044  0.3370  0.2688 -0.2623
 1085TIP3    H124814   6.337   1.199   7.000  0.1693  0.8255  0.4558
 1085TIP3    H224815   6.393   1.167   7.137  0.9072 -0.3487 -0.0990
 1086TIP3   OH224816   3.690   3.861   6.635 -0.3789  0.1005  0.1821
 1086TIP3    H124817   3.770   3.824   6.598 -0.4688  2.6154 -2.9360
 1086TIP3    H224818   3.705   3.860   6.730  2.6625 -0.9398 -0.2035
 1087TIP3   OH224819   5.398   5.278   6.331 -0.0734 -0.0954  0.1334
 1087TIP3    H124820   5.417   5.189   6.361 -1.4502 -0.4339  0.0599
 1087TIP3    H224821   5.464   5.295   6.264 -0.0675 -1.2336 -0.1689
 1088TIP3   OH224822   0.356   4.501   0.703  0.1088 -0.6385 -0.2843
 1088TIP3    H124823   0.383   4.575   0.649  0.6005 -1.1504 -0.7708
 1088TIP3    H224824   0.436   4.475   0.750  0.2623 -1.5995 -1.0355
 1089TIP3   OH224825   2.220   4.597   1.385 -0.2974 -0.3934 -0.0339
 1089TIP3    H124826   2.232   4.554   1.470 -2.4741 -0.1725  0.4462
 1089TIP3    H224827   2.153   4.545   1.341  0.1420  0.0380 -1.2507
 1090TIP3   OH224828   2.359   5.913   8.386  0.0558 -0.0652  0.5006
 1090TIP3    H124829   2.418   5.975   8.428  0.1799  0.4860 -0.4438
 1090TIP3    H224830   2.298   5.968   8.336 -0.0331 -0.6923 -0.0948
 1091TIP3   OH224831   5.476   0.893   1.330 -0.4358  0.1723 -0.4200
 1091TIP3    H124832   5.535   0.837   1.381  2.9666  3.5051 -0.2431
 1091TIP3    H224833   5.418   0.932   1.395 -0.4388 -0.4421 -0.0438
 1092TIP3   OH224834   0.109   2.093   7.489  0.1023 -0.7099  0.2074
 1092TIP3    H124835   0.037   2.143   7.528 -0.0410 -0.3976 -0.4454
 1092TIP3    H224836   0.067   2.040   7.421  0.5476 -0.2139 -0.4620
 1093TIP3   OH224837   0.421   5.728   0.226  0.3895  0.0560 -0.3354
 1093TIP3    H124838   0.394   5.689   0.143  0.6911 -0.6033 -0.1262
 1093TIP3    H224839   0.507   5.690   0.244  0.2805  0.1132  0.3338
 1094TIP3   OH224840   2.210   3.060   8.099  0.0602 -0.2680 -0.9420
 1094TIP3    H124841   2.226   2.982   8.153 -0.7461 -0.1680 -0.5307
 1094TIP3    H224842   2.269   3.051   8.025  0.2426 -1.0892 -0.7079
 1095TIP3   OH224843   2.604   6.850   6.381 -0.3792 -0.0732  0.3598
 1095TIP3    H124844   2.674   6.848   6.447  0.0412  1.6017  0.0038
 1095TIP3    H224845   2.544   6.918   6.412  0.8292  2.1759 -1.8691
 1096TIP3   OH224846   4.398   1.460   6.719  0.5303  0.2014  0.4411
 1096TIP3    H124847   4.346   1.489   6.644  1.2868 -0.0007 -0.1637
 1096TIP3    H224848   4.471   1.522   6.723 -0.9295  1.9852  2.7245
 1097TIP3   OH224849   2.910   3.114   1.498 -0.1407  0.2389  0.1291
 1097TIP3    H124850   2.975   3.094   1.566  1.9164  0.4297 -1.6638
 1097TIP3    H224851   2.952   3.182   1.445 -3.5269  3.5067  1.2175
 1098TIP3   OH224852   5.028   4.374   7.216  0.1491  0.0685 -0.5999
 1098TIP3    H124853   5.066   4.287   7.231 -0.3626 -0.1919 -0.7726
 1098TIP3    H224854   5.090   4.435   7.256  0.2239 -0.4162  0.0372
 1099TIP3   OH224855   1.100   3.701   1.789  0.8095  0.2136 -0.4408
 1099TIP3    H124856   1.147   3.783   1.773  0.0908  0.9775  1.1910
 1099TIP3    H224857   1.162   3.647   1.837  0.7224  0.4514 -0.0543
 1100TIP3   OH224858   3.914   1.284   7.434 -0.1948 -0.4190  0.2559
 1100TIP3    H124859   3.965   1.214   7.394 -0.6502 -0.2385 -0.6594
 1100TIP3    H224860   3.886   1.249   7.519 -0.3403 -1.3051 -0.1560
 1101TIP3   OH224861   3.840   6.232   2.184  0.2785 -0.1606  0.4962
 1101TIP3    H124862   3.810   6.322   2.195  0.1587 -0.1835  0.3678
 1101TIP3    H224863   3.929   6.240   2.151 -0.0120 -0.0792 -0.3010
 1102TIP3   OH224864   6.383   5.695   0.456  0.0676 -0.1327  0.7575
 1102TIP3    H124865   6.340   5.685   0.371 -0.3638  0.8447  0.8620
 1102TIP3    H224866   6.425   5.609   0.471  1.1343  0.0293 -0.9772
 1103TIP3   OH224867   6.678   1.213   8.013  0.0434  0.3530 -0.0301
 1103TIP3    H124868   6.689   1.201   8.108  1.6777 -0.9755 -0.3312
 1103TIP3    H224869   6.637   1.132   7.984 -0.7164  0.8775 -0.4380
 1104TIP3   OH224870   1.935   4.456   1.968  0.5092 -0.6441  0.3582
 1104TIP3    H124871   2.015   4.503   1.990  1.3590 -0.6631 -2.4175
 1104TIP3    H224872   1.958   4.364   1.975  0.5792 -0.6485  0.0768
 1105TIP3   OH224873   4.592   4.798   8.474  0.5580  0.4657  0.1341
 1105TIP3    H124874   4.500   4.772   8.468 -0.0977  2.4790  0.6805
 1105TIP3    H224875   4.632   4.765   8.394 -0.0909 -2.2879  0.8199
 1106TIP3   OH224876   0.273   3.593   8.166  0.2541 -0.3960 -0.1622
 1106TIP3    H124877   0.249   3.561   8.079 -2.8787  1.5578 -0.1794
 1106TIP3    H224878   0.275   3.688   8.157 -2.7994  0.0715  2.3264
 1107TIP3   OH224879   5.559   6.001   8.622 -0.0051  0.5020  0.1823
 1107TIP3    H124880   5.640   6.036   8.586 -0.7721  1.5444 -0.5793
 1107TIP3    H224881   5.490   6.033   8.564 -0.9973 -0.1578  0.9468
 1108TIP3   OH224882   2.977   5.960   0.948  0.9690  0.5226 -0.0496
 1108TIP3    H124883   2.993   6.042   0.995  2.3138 -0.1335  0.7130
 1108TIP3    H224884   3.042   5.959   0.878  1.4205 -0.1855  0.3617
 1109TIP3   OH224885   3.704   4.749   0.529 -0.5907 -0.4500  0.1446
 1109TIP3    H124886   3.789   4.730   0.490 -0.7092 -0.3079 -0.1899
 1109TIP3    H224887   3.676   4.667   0.568 -1.0805 -0.9682 -1.2446
 1110TIP3   OH224888   1.769   0.278   0.219 -0.0589  0.0811  0.0614
 1110TIP3    H124889   1.719   0.352   0.255  0.2904  1.1629 -1.5642
 1110TIP3    H224890   1.758   0.286   0.125 -0.3350 -2.2179 -0.1395
 1111TIP3   OH224891   0.206   0.670   1.640  0.3991 -0.2210 -0.1308
 1111TIP3    H124892   0.224   0.668   1.734  0.0140  1.8755  0.0282
 1111TIP3    H224893   0.186   0.762   1.621  0.9829 -0.4931 -2.3696
 1112TIP3   OH224894   6.291   1.172   7.608  0.2460 -0.0989  0.1443
 1112TIP3    H124895   6.252   1.085   7.614 -1.5723  0.6469 -0.1809
 1112TIP3    H224896   6.361   1.162   7.543 -0.5461 -1.1282 -0.5926
 1113TIP3   OH224897   2.226   0.950   8.139  0.4684  0.3924 -0.4262
 1113TIP3    H124898   2.245   0.910   8.054  1.3646 -1.4241  0.5696
 1113TIP3    H224899   2.306   0.936   8.190  0.1665  1.9959  0.5323
 1114TIP3   OH224900   1.387   4.902   1.833  0.0313  0.2147  0.3809
 1114TIP3    H124901   1.374   4.968   1.901  2.8472 -0.0027  1.2367
 1114TIP3    H224902   1.376   4.818   1.878 -0.1454  0.0779  0.0854
 1115TIP3   OH224903   4.017   2.172   0.328 -0.4342  1.1563  0.3539
 1115TIP3    H124904   4.005   2.151   0.235 -1.3510 -5.5788  1.4474
 1115TIP3    H224905   3.928   2.176   0.363 -0.1808 -0.7670  1.3927
 1116TIP3   OH224906   5.443   4.943   6.615  0.0955 -0.4258  0.2475
 1116TIP3    H124907   5.379   4.915   6.681  0.4508  0.6430  1.0696
 1116TIP3    H224908   5.524   4.897   6.640 -0.0247 -0.7836 -0.0268
 1117TIP3   OH224909   2.307   5.897   0.167  0.5496  0.2005  0.2387
 1117TIP3    H124910   2.385   5.870   0.118 -0.6233  1.1271 -2.2778
 1117TIP3    H224911   2.259   5.816   0.183  1.3367 -0.2080  0.6057
 1118TIP3   OH224912   5.553   5.670   1.052  0.0321 -0.4442 -0.1369
 1118TIP3    H124913   5.501   5.726   0.994  2.2093  0.2578 -1.5455
 1118TIP3    H224914   5.604   5.615   0.992 -0.5085 -2.5005  1.2124
 1119TIP3   OH224915   0.949   0.435   6.571  0.8801 -0.2345 -0.3454
 1119TIP3    H124916   0.898   0.454   6.492  1.3330 -1.0237 -0.8415
 1119TIP3    H224917   0.891   0.460   6.643  0.1893 -0.1627 -0.9105
 1120TIP3   OH224918   3.631   6.441   0.499  0.5107  0.2310 -0.2470
 1120TIP3    H124919   3.625   6.533   0.525 -0.5366  0.3027 -0.7037
 1120TIP3    H224920   3.645   6.444   0.404  0.7045 -0.0802 -0.2288
 1121TIP3   OH224921   3.119   0.483   8.022 -0.1816 -0.6123  0.0941
 1121TIP3    H124922   3.105   0.392   7.996  2.7798 -2.0681  2.9357
 1121TIP3    H224923   3.142   0.527   7.940 -1.0688 -2.5108 -1.2720
 1122TIP3   OH224924   1.941   5.543   7.687 -0.0876  0.2767  0.0155
 1122TIP3    H124925   1.996   5.529   7.609 -0.8265 -0.1140 -0.4465
 1122TIP3    H224926   1.968   5.628   7.720  0.0322  0.5899 -0.8497
 1123TIP3   OH224927   1.150   1.011   0.704 -0.2195 -0.1891 -0.1708
 1123TIP3    H124928   1.096   0.938   0.675 -0.4757  0.0049 -0.1873
 1123TIP3    H224929   1.238   0.990   0.673  0.0368 -1.2707  1.1811
 1124TIP3   OH224930   4.670   3.099   1.467  0.1003 -0.2372 -0.0219
 1124TIP3    H124931   4.673   3.059   1.554  0.1082 -0.8710 -0.3120
 1124TIP3    H224932   4.688   3.027   1.407 -2.4297 -0.3548 -0.7207
 1125TIP3   OH224933   0.659   2.661   8.205  0.2428  0.1111 -0.1307
 1125TIP3    H124934   0.752   2.641   8.195  0.1382 -0.7756  0.5863
 1125TIP3    H224935   0.619   2.578   8.230 -1.3187 -0.4095 -3.7580
 1126TIP3   OH224936   0.707   3.923   7.609 -0.1975 -0.0474  0.2171
 1126TIP3    H124937   0.645   3.904   7.539 -0.5334 -0.1505  0.5405
 1126TIP3    H224938   0.774   3.977   7.567 -0.2356 -0.3576 -0.2546
 1127TIP3   OH224939   0.009   4.322   2.138  0.5661  0.1506  0.3255
 1127TIP3    H124940   0.026   4.337   2.231 -0.6432 -2.0497  0.9678
 1127TIP3    H224941  -0.071   4.373   2.120  1.2389  1.2090  0.2596
 1128TIP3   OH224942   3.986   2.346   1.370 -0.3492  0.2109  0.2887
 1128TIP3    H124943   4.019   2.371   1.283  0.2832  0.0444  0.4743
 1128TIP3    H224944   4.064   2.316   1.417 -1.0091 -1.7005  0.2349
 1129TIP3   OH224945   3.457   1.125   8.244  0.3000 -1.3613  0.5185
 1129TIP3    H124946   3.443   1.137   8.338  0.1300  1.0061  0.2705
 1129TIP3    H224947   3.552   1.133   8.233  0.2151 -0.2586  0.3925
 1130TIP3   OH224948   6.683   5.601   7.960 -0.6363  0.4453  0.4145
 1130TIP3    H124949   6.619   5.547   8.006 -0.7410  0.8068  0.6924
 1130TIP3    H224950   6.660   5.691   7.983 -1.1369  0.6850 -0.8883
 1131TIP3   OH224951   4.817   1.446   7.456  0.1383  0.0613 -0.1888
 1131TIP3    H124952   4.743   1.502   7.476  0.1707  0.1017 -0.1812
 1131TIP3    H224953   4.891   1.486   7.503  0.5102  0.9341 -1.4684
 1132TIP3   OH224954   6.545   0.248   7.026 -0.1465  0.0806 -0.1681
 1132TIP3    H124955   6.490   0.231   7.103  0.4877 -0.8722  0.0990
 1132TIP3    H224956   6.485   0.284   6.961 -1.2817 -1.6250 -0.1470
 1133TIP3   OH224957   5.751   0.482   7.401 -0.1186 -0.4182 -0.1125
 1133TIP3    H124958   5.837   0.439   7.407  0.0211 -0.0092  1.1651
 1133TIP3    H224959   5.756   0.534   7.320  0.7741 -0.5502 -0.1561
 1134TIP3   OH224960   3.971   1.755   2.730  0.3054  0.1560 -0.4879
 1134TIP3    H124961   3.897   1.746   2.670 -1.1739 -1.6334  1.4352
 1134TIP3    H224962   4.023   1.676   2.715  0.3415  0.0815  0.0031
 1135TIP3   OH224963   5.156   0.256   1.367  0.3340 -0.6457  0.2259
 1135TIP3    H124964   5.098   0.281   1.439  0.0110 -0.3317 -0.1354
 1135TIP3    H224965   5.227   0.320   1.370 -0.3450  0.1663 -0.5210
 1136TIP3   OH224966   6.366   3.742   2.445 -0.3263 -0.0675  0.4563
 1136TIP3    H124967   6.353   3.648   2.460 -0.2822  0.0459  1.2100
 1136TIP3    H224968   6.306   3.763   2.373 -0.1185 -0.7303  0.0831
 1137TIP3   OH224969   4.628   5.186   0.046 -0.1033  0.1172  0.1186
 1137TIP3    H124970   4.718   5.217   0.037  0.3480 -0.4969  2.0584
 1137TIP3    H224971   4.611   5.137  -0.034  1.4402 -0.0918 -0.1061
 1138TIP3   OH224972   0.192   0.603   7.971 -0.1914  0.1993  0.5079
 1138TIP3    H124973   0.190   0.597   7.875 -0.2419 -2.2125  0.6023
 1138TIP3    H224974   0.280   0.574   7.995 -0.3667  0.2391  1.2184
 1139TIP3   OH224975   4.544   5.900   0.608  0.0573  0.6377 -0.3060
 1139TIP3    H124976   4.500   5.883   0.691  1.6091  0.8810  0.5947
 1139TIP3    H224977   4.497   5.975   0.571 -1.8820 -0.6485 -0.6288
 1140TIP3   OH224978   0.231   2.741   0.841  0.5273  0.0179  0.2779
 1140TIP3    H124979   0.167   2.737   0.770 -0.8381  0.8127  1.4352
 1140TIP3    H224980   0.310   2.776   0.799 -0.3775  0.8834 -0.7733
 1141TIP3   OH224981   3.542   5.938   1.608 -0.1489  0.1128  0.0419
 1141TIP3    H124982   3.598   6.016   1.616  1.2688 -0.7822 -0.8179
 1141TIP3    H224983   3.566   5.900   1.524 -2.7033  0.1435 -0.7755
 1142TIP3   OH224984   2.250   6.160   0.236  0.0074  0.3401 -0.0406
 1142TIP3    H124985   2.292   6.077   0.215  0.1187  0.4782 -0.3739
 1142TIP3    H224986   2.164   6.155   0.193 -0.9038 -0.5084  1.7762
 1143TIP3   OH224987   6.709   1.360   1.580  0.3093  0.3266  0.2453
 1143TIP3    H124988   6.686   1.380   1.489  0.5962 -0.9944 -0.1291
 1143TIP3    H224989   6.773   1.428   1.603 -0.6342  1.3765 -0.1393
 1144TIP3   OH224990   2.352   4.499   7.582  0.0835  0.1971  0.4846
 1144TIP3    H124991   2.301   4.427   7.622 -0.1532 -0.4968 -1.0144
 1144TIP3    H224992   2.333   4.493   7.489  1.4259  1.1553  0.1247
 1145TIP3   OH224993   6.009   5.567   0.501  0.1558 -0.3489  0.0586
 1145TIP3    H124994   5.967   5.616   0.431 -0.8635  0.5536  1.2445
 1145TIP3    H224995   6.092   5.614   0.516 -0.0849  0.0594  0.1228
 1146TIP3   OH224996   2.559   3.069   1.078 -0.1625  0.1807 -0.0170
 1146TIP3    H124997   2.630   3.092   1.138 -0.8083 -0.3010  0.9513
 1146TIP3    H224998   2.589   2.989   1.035 -0.2695 -0.2310  0.6658
 1147TIP3   OH224999   5.858   1.442   7.025  0.5687 -0.4535 -0.4389
 1147TIP3    H125000   5.776   1.478   6.992  0.4449 -0.2215  0.1033
 1147TIP3    H225001   5.898   1.400   6.949  0.2920  0.0550 -0.8734
 1148TIP3   OH225002   3.452   4.968   7.699 -0.3912 -0.3073 -0.1184
 1148TIP3    H125003   3.499   4.913   7.762 -0.5493 -2.0354 -1.4397
 1148TIP3    H225004   3.517   4.987   7.632 -0.2710  1.3881  0.4182
 1149TIP3   OH225005   2.219   4.009   7.120 -0.3602 -0.8778 -0.1396
 1149TIP3    H125006   2.224   4.070   7.046  0.1927 -0.2479  0.4099
 1149TIP3    H225007   2.231   3.922   7.080 -1.3505 -0.6607 -0.9546
 1150TIP3   OH225008   2.914   2.788   8.051  0.4497 -0.1268  0.0037
 1150TIP3    H125009   2.950   2.801   7.963  0.0231  0.2440 -0.1193
 1150TIP3    H225010   2.831   2.835   8.050  1.0813  1.0578  1.0321
 1151TIP3   OH225011   0.697   2.239   0.020 -0.6172 -0.0679  0.5252
 1151TIP3    H125012   0.706   2.327  -0.017  0.2647 -0.6277 -0.6450
 1151TIP3    H225013   0.666   2.186  -0.053 -2.0689 -0.5692  1.4677
 1152TIP3   OH225014   0.422   0.488   8.039  0.3301  0.6546 -0.0329
 1152TIP3    H125015   0.468   0.528   8.113  1.6473  1.0808 -1.0451
 1152TIP3    H225016   0.489   0.437   7.994  0.0186  1.8365 -1.9455
 1153TIP3   OH225017   0.583   5.329   0.518  0.4238 -0.0667 -0.2950
 1153TIP3    H125018   0.633   5.254   0.551  0.6572 -0.4091 -1.3846
 1153TIP3    H225019   0.561   5.379   0.596 -0.4640 -1.7161  0.5534
 1154TIP3   OH225020   4.828   0.535   0.275  0.4488 -0.0136 -0.1071
 1154TIP3    H125021   4.779   0.579   0.345  0.1736  0.8853 -0.8448
 1154TIP3    H225022   4.862   0.455   0.316 -0.4005  0.0796  0.8235
 1155TIP3   OH225023   0.197   1.562   8.253  0.2504 -0.2608 -0.3895
 1155TIP3    H125024   0.260   1.620   8.296 -0.4047 -0.7650  1.3382
 1155TIP3    H225025   0.250   1.488   8.222  0.7824  0.2793 -0.7963
 1156TIP3   OH225026   1.926   6.672   0.141 -0.2246  0.3585  0.1915
 1156TIP3    H125027   1.867   6.627   0.202  0.0118 -2.0561 -1.2227
 1156TIP3    H225028   1.868   6.728   0.089 -1.3225 -1.6648 -0.9071
 1157TIP3   OH225029   5.975   5.926   6.304  0.0229  0.4173  0.5711
 1157TIP3    H125030   5.923   5.991   6.352 -2.4365 -0.3170 -0.9039
 1157TIP3    H225031   5.980   5.960   6.215  2.0200  0.3680  0.6294
 1158TIP3   OH225032   2.849   2.850   0.285 -0.3136  0.0449 -0.1318
 1158TIP3    H125033   2.924   2.898   0.250 -0.6386 -0.8499 -2.1612
 1158TIP3    H225034   2.817   2.905   0.357  2.6971  0.1093  1.3057
 1159TIP3   OH225035   1.053   1.938   8.386 -0.0395  0.4467 -0.3057
 1159TIP3    H125036   1.003   1.997   8.329 -1.0844 -0.7761 -0.7069
 1159TIP3    H225037   1.125   1.907   8.331 -1.2562 -1.0217 -1.1649
 1160TIP3   OH225038   5.429   6.626   1.147 -0.5420  0.4411  0.4769
 1160TIP3    H125039   5.441   6.714   1.183 -0.3239 -0.3474  2.4950
 1160TIP3    H225040   5.407   6.572   1.223 -0.0166 -1.3797 -0.5936
 1161TIP3   OH225041   5.309   0.706   1.181  0.4540  0.0750  0.2059
 1161TIP3    H125042   5.371   0.774   1.205  2.5914 -1.7166  0.1418
 1161TIP3    H225043   5.227   0.730   1.225  1.4593  2.0341  1.1009
 1162TIP3   OH225044   2.715   3.023   7.335  0.7267 -0.0136  1.0650
 1162TIP3    H125045   2.742   2.941   7.294 -2.0239 -0.6860  0.4474
 1162TIP3    H225046   2.695   3.081   7.262  1.0170  0.6419  1.5010
 1163TIP3   OH225047   6.387   5.561   6.588  0.2135  0.1445 -0.4002
 1163TIP3    H125048   6.386   5.640   6.642  1.3983  0.3360 -0.6353
 1163TIP3    H225049   6.344   5.494   6.642 -0.9741  0.9747 -0.2703
 1164TIP3   OH225050   5.497   6.863   1.281 -0.9930  0.0572  0.1691
 1164TIP3    H125051   5.491   6.929   1.213  1.0803 -0.9060 -1.0585
 1164TIP3    H225052   5.538   6.907   1.355 -2.2941  0.8385  0.4523
 1165TIP3   OH225053   1.951   4.535   6.256  0.5910  0.3982  0.0631
 1165TIP3    H125054   1.866   4.519   6.215  0.5440  2.4225 -0.7570
 1165TIP3    H225055   2.006   4.566   6.184  1.8084 -0.1398  0.7420
 1166TIP3   OH225056   3.227   3.029   8.044  0.0982  0.4949  0.1467
 1166TIP3    H125057   3.204   2.990   7.959  0.8717  0.0487  0.1226
 1166TIP3    H225058   3.170   2.986   8.107 -2.3738  2.7238 -0.4308
 1167TIP3   OH225059   0.051   5.795   8.607 -0.3919  0.1137 -0.2483
 1167TIP3    H125060   0.067   5.888   8.620 -0.4888  0.1875 -0.6429
 1167TIP3    H225061  -0.037   5.791   8.568 -0.8296 -0.2052  0.7320
 1168TIP3   OH225062   4.207   0.151   6.260 -0.2533 -0.0774 -0.1750
 1168TIP3    H125063   4.295   0.178   6.286 -0.3540  0.0846  0.0074
 1168TIP3    H225064   4.171   0.228   6.215 -0.6220  0.1863  0.5417
 1169TIP3   OH225065   6.051   4.861   1.192  0.0788 -0.3966 -0.7486
 1169TIP3    H125066   6.051   4.802   1.267  0.7761  0.1010 -0.3466
 1169TIP3    H225067   5.961   4.892   1.185  0.2109  0.3125  0.4926
 1170TIP3   OH225068   6.378   2.923   7.533  0.1567  0.6805 -0.2871
 1170TIP3    H125069   6.348   2.868   7.461 -0.8166 -0.9108  1.2377
 1170TIP3    H225070   6.310   2.989   7.544  0.3022  0.9184 -0.8037
 1171TIP3   OH225071   2.517   2.142   8.262  0.2308  0.7031  0.2273
 1171TIP3    H125072   2.497   2.233   8.285 -1.0433  0.8211 -1.1834
 1171TIP3    H225073   2.496   2.136   8.169 -0.3223 -1.1895  0.4368
 1172TIP3   OH225074   0.638   5.848   6.852  0.4607 -0.0783 -0.3735
 1172TIP3    H125075   0.638   5.910   6.779  1.1833 -0.1082 -0.4022
 1172TIP3    H225076   0.558   5.868   6.900  0.3777  0.4653 -0.7307
 1173TIP3   OH225077   5.017   6.231   8.081  0.5348 -0.0090  0.7750
 1173TIP3    H125078   5.068   6.151   8.075  1.7138  0.8075 -0.6314
 1173TIP3    H225079   4.930   6.202   8.108  0.8490 -1.7813 -0.0249
 1174TIP3   OH225080   1.678   1.623   8.468 -0.0065  0.1823 -0.0238
 1174TIP3    H125081   1.677   1.624   8.564  0.9182  1.2261 -0.0077
 1174TIP3    H225082   1.585   1.628   8.444 -0.3569 -1.6531  0.7892
 1175TIP3   OH225083   0.119   0.180   7.626 -0.3216  0.0534 -0.1380
 1175TIP3    H125084   0.150   0.134   7.704 -1.3212  0.3189  0.4235
 1175TIP3    H225085   0.196   0.183   7.568 -0.4822 -3.4132 -0.7593
 1176TIP3   OH225086   0.034   0.438   7.271 -0.1573  0.2248 -0.3565
 1176TIP3    H125087   0.010   0.352   7.305 -0.0859  0.5099  0.4385
 1176TIP3    H225088  -0.021   0.448   7.193 -0.1816 -0.5263 -0.4479
 1177TIP3   OH225089   3.093   1.305   6.556 -0.1000  0.0599 -0.4830
 1177TIP3    H125090   3.140   1.266   6.629  0.1048  0.3017 -0.4833
 1177TIP3    H225091   3.011   1.336   6.595  0.6806  1.6574  0.0240
 1178TIP3   OH225092   6.478   2.589   8.002 -0.3096  0.7148  0.3265
 1178TIP3    H125093   6.455   2.625   8.087 -0.1476 -1.5895  1.4185
 1178TIP3    H225094   6.423   2.511   7.993  0.4140  0.3455 -1.2080
 1179TIP3   OH225095   0.987   5.888   8.478  0.0508  1.0385  0.7059
 1179TIP3    H125096   0.966   5.970   8.522  1.9542  1.1498  1.5138
 1179TIP3    H225097   1.008   5.914   8.388  0.0886  1.3737  0.8114
 1180TIP3   OH225098   2.017   1.214   8.523  0.0580  0.1351  0.1004
 1180TIP3    H125099   2.105   1.176   8.520  0.5893  1.3613 -1.7167
 1180TIP3    H225100   1.997   1.221   8.616  2.2102  0.5395  0.5985
 1181TIP3   OH225101   6.775   3.161   0.091 -0.3938  0.3301  0.1415
 1181TIP3    H125102   6.805   3.242   0.049  0.6556 -0.2520 -0.2393
 1181TIP3    H225103   6.848   3.100   0.083 -0.8876 -0.4174  1.1222
 1182TIP3   OH225104   0.961   6.396   7.047 -0.5348 -0.2956  0.0864
 1182TIP3    H125105   0.914   6.321   7.011 -0.1434 -1.2610  1.5078
 1182TIP3    H225106   0.972   6.375   7.140 -0.4498  1.5471  0.5330
 1183TIP3   OH225107   4.896   0.747   8.011 -0.1382 -0.1441 -0.1579
 1183TIP3    H125108   4.866   0.787   7.930  0.9454  1.0022 -0.0195
 1183TIP3    H225109   4.957   0.679   7.983  0.7299  0.6786 -0.3043
 1184TIP3   OH225110   4.876   3.134   8.264 -0.4579 -0.1786  0.1812
 1184TIP3    H125111   4.885   3.092   8.178 -1.5192 -0.2261  0.0826
 1184TIP3    H225112   4.782   3.133   8.281 -0.2712  0.0366  1.2496
 1185TIP3   OH225113   5.367   4.111   0.184 -0.5293 -0.1496  0.3282
 1185TIP3    H125114   5.382   4.157   0.267 -0.9132  0.0075  0.3091
 1185TIP3    H225115   5.317   4.173   0.131 -1.3032 -0.6962  0.4064
 1186TIP3   OH225116   2.339   2.421   8.037  0.1802  0.4785 -0.1988
 1186TIP3    H125117   2.277   2.350   8.054  1.1765 -0.2021  0.7489
 1186TIP3    H225118   2.370   2.405   7.948  3.1993 -2.6322  1.1639
 1187TIP3   OH225119   2.075   4.415   7.552  0.1188 -0.1711 -0.1987
 1187TIP3    H125120   2.049   4.481   7.616  1.2006  0.4624 -0.3855
 1187TIP3    H225121   2.105   4.466   7.476  1.6942 -0.8317 -0.0636
 1188TIP3   OH225122   1.423   0.634   7.639 -0.0918  0.0557 -0.2600
 1188TIP3    H125123   1.353   0.678   7.688 -0.6213 -2.1788  1.1728
 1188TIP3    H225124   1.401   0.541   7.646  2.8665 -0.7124 -0.0628
 1189TIP3   OH225125   4.952   1.387   6.952  0.3112 -0.3760 -0.2152
 1189TIP3    H125126   4.961   1.407   6.859 -1.4121  1.7607  0.0207
 1189TIP3    H225127   4.948   1.472   6.995  2.2656 -1.3030  2.0085
 1190TIP3   OH225128   0.751   4.888   6.111  0.4594  0.1369 -0.1720
 1190TIP3    H125129   0.788   4.850   6.032  1.4686  1.5115 -0.4038
 1190TIP3    H225130   0.656   4.887   6.097  0.5694 -0.6836 -0.8923
 1191TIP3   OH225131   0.958   0.431   1.030  0.0413 -0.4264 -0.0335
 1191TIP3    H125132   0.873   0.436   0.986  0.9740  3.6357 -1.8979
 1191TIP3    H225133   0.938   0.404   1.120 -3.1010 -0.2730 -0.6008
 1192TIP3   OH225134   1.143   0.182   0.775 -0.3447 -1.1425  0.1247
 1192TIP3    H125135   1.194   0.195   0.855  2.0894  1.3100 -1.6353
 1192TIP3    H225136   1.081   0.255   0.774  1.6497  0.6684 -1.5063
 1193TIP3   OH225137   5.442   3.372   0.073  1.0386  0.2250 -0.3729
 1193TIP3    H125138   5.513   3.374   0.138  1.1719  3.9174 -0.4272
 1193TIP3    H225139   5.487   3.384  -0.011  0.5195 -0.2586 -0.7260
 1194TIP3   OH225140   1.164   4.755   2.305 -0.1349 -0.4672 -0.2277
 1194TIP3    H125141   1.130   4.841   2.279  0.6143  0.2777  1.1355
 1194TIP3    H225142   1.254   4.754   2.272 -1.0991 -2.1061 -3.1202
 1195TIP3   OH225143   6.331   0.866   7.632 -0.7203 -0.0461 -0.1117
 1195TIP3    H125144   6.294   0.785   7.669 -0.3344 -0.7489 -1.2207
 1195TIP3    H225145   6.424   0.846   7.619 -0.5916  0.6316 -0.2556
 1196TIP3   OH225146   5.623   2.226   0.283 -0.2530 -0.0789 -0.1577
 1196TIP3    H125147   5.552   2.183   0.235  0.9205 -0.3555 -1.7157
 1196TIP3    H225148   5.653   2.295   0.223  0.0777  0.7550  0.9422
 1197TIP3   OH225149   1.327   1.433   1.776  0.4966  0.1515 -0.0655
 1197TIP3    H125150   1.360   1.492   1.709 -0.2849 -0.9113 -1.4490
 1197TIP3    H225151   1.239   1.411   1.748  0.4618 -1.0126  0.8428
 1198TIP3   OH225152   1.024   0.835   1.389  0.0228 -0.0944 -0.8205
 1198TIP3    H125153   0.955   0.825   1.454  1.0197 -0.4768  0.2241
 1198TIP3    H225154   0.983   0.811   1.306 -1.4027  0.8704 -0.4229
 1199TIP3   OH225155   0.656   1.018   6.531  0.0796  0.2947  0.0118
 1199TIP3    H125156   0.576   0.966   6.525 -0.2504  0.5443  1.8005
 1199TIP3    H225157   0.725   0.955   6.554  0.3587  0.1412 -1.1607
 1200TIP3   OH225158   2.100   5.675   0.649 -0.3230 -0.3043  0.4910
 1200TIP3    H125159   2.060   5.694   0.734  0.5996  2.1666  0.4695
 1200TIP3    H225160   2.183   5.722   0.651  0.6242 -1.8153 -1.0654
 1201TIP3   OH225161   3.403   1.997   0.974  0.0372  0.5314 -0.2527
 1201TIP3    H125162   3.421   1.954   0.891 -1.1937  2.4496 -1.5806
 1201TIP3    H225163   3.309   2.013   0.973  0.1089  1.2062  1.2146
 1202TIP3   OH225164   4.198   6.084   0.880 -0.3125 -0.7948  0.5636
 1202TIP3    H125165   4.191   6.018   0.950  1.9219 -1.2377  0.4300
 1202TIP3    H225166   4.127   6.061   0.820  0.5306 -3.3256  0.3826
 1203TIP3   OH225167   1.620   0.391   0.432  0.0739 -0.4853 -0.7085
 1203TIP3    H125168   1.634   0.436   0.515 -2.9529 -1.3774  0.3973
 1203TIP3    H225169   1.530   0.410   0.407 -0.6601 -3.9654 -1.3281
 1204TIP3   OH225170   0.314   2.883   8.545 -0.2248 -0.0126  0.2670
 1204TIP3    H125171   0.402   2.896   8.579 -0.2635  1.9936 -0.2611
 1204TIP3    H225172   0.325   2.871   8.451 -0.4994  0.1580  0.2092
 1205TIP3   OH225173   0.666   4.850   7.201 -0.1847  0.4822 -0.0792
 1205TIP3    H125174   0.723   4.844   7.277  0.1667  0.2277 -0.3557
 1205TIP3    H225175   0.649   4.943   7.190 -0.1421  0.5277  0.2393
 1206TIP3   OH225176   4.819   0.786   7.364 -0.1353 -0.0538 -0.3936
 1206TIP3    H125177   4.811   0.774   7.459 -2.0677  0.5236 -0.4359
 1206TIP3    H225178   4.818   0.698   7.328  0.3250 -0.2656  0.1057
 1207TIP3   OH225179   5.386   6.465   7.522 -0.0439  0.5556 -0.3352
 1207TIP3    H125180   5.314   6.430   7.470  0.3716  1.5987 -1.6793
 1207TIP3    H225181   5.353   6.464   7.612 -1.0973 -0.5229 -0.6980
 1208TIP3   OH225182   6.855   5.040   8.136 -0.0897 -0.4255 -0.1143
 1208TIP3    H125183   6.900   5.113   8.177 -0.5600  0.4474 -1.1041
 1208TIP3    H225184   6.762   5.060   8.147 -0.2277 -1.1138  0.0215
 1209TIP3   OH225185   2.553   2.155   1.362  0.1054  0.3509 -0.3635
 1209TIP3    H125186   2.516   2.237   1.394  0.0140  0.4001 -0.5991
 1209TIP3    H225187   2.563   2.168   1.268  0.4401  0.2276 -0.3446
 1210TIP3   OH225188   2.400   3.505   1.424  0.0473 -0.8672  0.4505
 1210TIP3    H125189   2.457   3.545   1.358 -0.5636 -1.4091 -0.4314
 1210TIP3    H225190   2.370   3.423   1.383 -1.1573 -0.7151  0.9864
 1211TIP3   OH225191   1.474   0.321   0.706 -0.5965 -0.3077 -0.2296
 1211TIP3    H125192   1.470   0.409   0.744  1.8696  0.1666 -0.8740
 1211TIP3    H225193   1.400   0.318   0.645 -0.2962  1.6425 -0.7645
 1212TIP3   OH225194   4.712   3.451   8.302 -0.0585  0.2066 -0.0662
 1212TIP3    H125195   4.737   3.407   8.384 -2.1180  2.4881  1.9648
 1212TIP3    H225196   4.747   3.539   8.310  0.0337  0.3677 -1.8733
 1213TIP3   OH225197   4.269   5.632   0.122 -0.3421 -0.2221 -0.9292
 1213TIP3    H125198   4.242   5.589   0.041 -2.0321 -1.5710  0.2896
 1213TIP3    H225199   4.336   5.574   0.158 -0.4150 -0.2254 -0.7989
 1214TIP3   OH225200   3.598   4.546   6.802 -0.9674  0.5481  0.1418
 1214TIP3    H125201   3.559   4.622   6.844  2.0605  2.4515 -0.1706
 1214TIP3    H225202   3.550   4.536   6.719 -1.6752  1.8712  0.3706
 1215TIP3   OH225203   3.824   6.632   2.473  0.2211  0.4922 -0.1050
 1215TIP3    H125204   3.765   6.588   2.534  0.2807  0.6741  0.0844
 1215TIP3    H225205   3.869   6.697   2.526 -1.4785  2.3461 -0.8332
 1216TIP3   OH225206   0.887   2.558   7.858  0.3136  0.0487 -1.0747
 1216TIP3    H125207   0.852   2.481   7.903 -0.2285 -0.1353 -1.7947
 1216TIP3    H225208   0.824   2.575   7.788 -0.6219  2.3331  0.2441
 1217TIP3   OH225209   1.032   1.663   7.702  0.7819 -0.2563  0.1564
 1217TIP3    H125210   1.105   1.617   7.743  1.5459  0.7329 -0.0524
 1217TIP3    H225211   1.067   1.691   7.617 -0.5154 -1.5851 -0.8505
 1218TIP3   OH225212   5.659   0.086   0.114  0.2202 -0.1848 -0.1041
 1218TIP3    H125213   5.708   0.085   0.032 -0.6290  3.7614 -0.8345
 1218TIP3    H225214   5.573   0.051   0.092  0.0766  0.6343 -0.8844
 1219TIP3   OH225215   2.267   1.915   0.157  0.3450 -0.1869  0.5606
 1219TIP3    H125216   2.283   2.000   0.198  1.1664 -0.4618  0.8474
 1219TIP3    H225217   2.240   1.935   0.068  1.5367  0.3634  0.3067
 1220TIP3   OH225218   4.491   1.209   1.665 -0.0936 -0.3538 -0.1392
 1220TIP3    H125219   4.566   1.151   1.683 -0.8164 -1.0399  0.8134
 1220TIP3    H225220   4.459   1.233   1.752 -0.5606  0.5066 -0.5390
 1221TIP3   OH225221   5.051   0.031   8.052 -0.0796  0.1796 -0.2851
 1221TIP3    H125222   5.097  -0.041   8.008  0.7790 -0.4344  1.5486
 1221TIP3    H225223   5.120   0.089   8.083 -0.6727  0.6806  0.1306
 1222TIP3   OH225224   1.559   2.867   6.277 -1.3858 -0.0201  0.0181
 1222TIP3    H125225   1.582   2.880   6.185 -2.5049 -0.6602 -0.3686
 1222TIP3    H225226   1.609   2.934   6.324  0.0591 -0.4036 -0.9218
 1223TIP3   OH225227   0.692   1.527   8.210  0.2439  0.2677 -0.1516
 1223TIP3    H125228   0.679   1.437   8.180  0.0593  0.0982  0.4258
 1223TIP3    H225229   0.679   1.523   8.305  0.5918  0.8347 -0.0729
 1224TIP3   OH225230   4.160   4.115   6.291 -0.4170 -0.0036 -0.3034
 1224TIP3    H125231   4.166   4.156   6.205 -1.1037  0.9440  0.0801
 1224TIP3    H225232   4.091   4.164   6.336 -0.5151 -0.8986  0.5630
 1225TIP3   OH225233   0.396   1.360   1.513  0.6770 -0.0373 -0.6744
 1225TIP3    H125234   0.397   1.430   1.579  1.3910  0.8856 -1.6256
 1225TIP3    H225235   0.341   1.292   1.551  0.2112  0.9138  0.4224
 1226TIP3   OH225236   5.255   2.002   6.266 -0.6618 -0.2927  0.1029
 1226TIP3    H125237   5.228   1.913   6.285 -0.4593 -0.1791  0.9601
 1226TIP3    H225238   5.174   2.053   6.266 -0.6298 -0.2322  1.0536
 1227TIP3   OH225239   5.213   1.476   0.299  0.2381  0.2953 -0.0174
 1227TIP3    H125240   5.174   1.559   0.273 -2.6080 -0.2891  1.8869
 1227TIP3    H225241   5.193   1.416   0.227 -0.2187  0.6049 -0.1526
 1228TIP3   OH225242   3.417   3.391   7.076  0.1860 -0.1623  0.0981
 1228TIP3    H125243   3.322   3.397   7.074 -0.0594 -2.8016 -0.8782
 1228TIP3    H225244   3.446   3.452   7.008 -0.9710 -0.8519 -1.0587
 1229TIP3   OH225245   3.830   5.838   7.425 -0.2289  0.2361  0.1272
 1229TIP3    H125246   3.868   5.876   7.346  0.5920 -0.8146 -0.0111
 1229TIP3    H225247   3.886   5.763   7.444 -0.9976 -0.0937  1.1592
 1230TIP3   OH225248   3.160   0.558   0.726 -0.0652 -0.1765  0.6342
 1230TIP3    H125249   3.180   0.568   0.633 -0.4833 -0.3981  0.5181
 1230TIP3    H225250   3.126   0.469   0.734 -1.0073  0.1871  0.8190
 1231TIP3   OH225251   0.931   2.026   7.320 -0.2512 -0.0292 -0.0045
 1231TIP3    H125252   1.000   2.062   7.264 -0.0643 -0.2255  0.0995
 1231TIP3    H225253   0.912   2.097   7.382  1.2838 -0.6807  1.2553
 1232TIP3   OH225254   1.064   1.283   1.165 -0.1143  0.0838 -1.1392
 1232TIP3    H125255   1.132   1.336   1.205  0.5884 -0.8880 -1.0151
 1232TIP3    H225256   1.078   1.293   1.071  1.2171 -1.3557 -1.1186
 1233TIP3   OH225257   3.174   3.418   7.695  0.3848  0.2064  0.1190
 1233TIP3    H125258   3.138   3.402   7.608 -0.4961  1.1947  0.2730
 1233TIP3    H225259   3.173   3.332   7.737 -1.1664  0.0607 -0.1388
 1234TIP3   OH225260   4.475   2.073   7.854 -0.3257  0.6499 -0.5862
 1234TIP3    H125261   4.446   1.994   7.899  1.6562  1.2120  1.8913
 1234TIP3    H225262   4.430   2.144   7.898  2.2870  1.2812  1.2831
 1235TIP3   OH225263   6.311   5.358   8.191  0.2869  0.1779 -0.6032
 1235TIP3    H125264   6.364   5.393   8.120  1.5764 -1.4225 -0.5003
 1235TIP3    H225265   6.348   5.398   8.270  0.5826 -0.0262 -0.6339
 1236TIP3   OH225266   1.955   4.452   1.271  0.1405 -0.4350  0.1040
 1236TIP3    H125267   1.929   4.428   1.183 -0.4203 -2.1357  0.7076
 1236TIP3    H225268   1.881   4.501   1.306  0.1429 -0.2354 -0.1663
 1237TIP3   OH225269   5.290   4.629   8.558 -0.0088  0.9393 -0.2397
 1237TIP3    H125270   5.245   4.613   8.641 -0.0006 -3.0441 -0.7936
 1237TIP3    H225271   5.224   4.613   8.491  0.7978  0.8233 -1.0317
 1238TIP3   OH225272   5.641   6.315   2.396  0.0995 -0.0277 -0.0109
 1238TIP3    H125273   5.648   6.243   2.459  1.0231 -0.6349 -0.7697
 1238TIP3    H225274   5.604   6.275   2.317 -0.1855  0.5176 -0.1571
 1239TIP3   OH225275   4.193   2.996   6.958 -0.1910  0.0421  0.1606
 1239TIP3    H125276   4.226   3.046   6.884  1.7471 -0.9793  0.2840
 1239TIP3    H225277   4.237   3.034   7.034 -0.9008  0.0028  0.6035
 1240TIP3   OH225278   5.252   5.891   1.651  0.7879  0.1285 -0.0816
 1240TIP3    H125279   5.282   5.972   1.693 -1.7088  2.1130 -1.7750
 1240TIP3    H225280   5.248   5.912   1.558 -0.6919 -1.6860 -0.4979
 1241TIP3   OH225281   1.321   4.227   8.282 -0.0642  0.4674  0.4819
 1241TIP3    H125282   1.361   4.173   8.214  0.7449  3.3963 -1.5510
 1241TIP3    H225283   1.395   4.272   8.324 -0.6800 -0.1717  2.3577
 1242TIP3   OH225284   1.662   6.533   7.618 -0.0742 -0.1745  0.0552
 1242TIP3    H125285   1.750   6.560   7.588 -1.0064  1.6444 -1.3074
 1242TIP3    H225286   1.646   6.451   7.572  0.6512 -0.1620 -0.2478
 1243TIP3   OH225287   5.013   4.171   1.933 -0.0576 -0.0069 -0.7214
 1243TIP3    H125288   4.931   4.167   1.983 -0.1457  2.3027 -0.6155
 1243TIP3    H225289   5.072   4.112   1.980  0.1193  2.6134  2.6853
 1244TIP3   OH225290   1.451   5.585   0.354 -0.1899  0.6735  0.1525
 1244TIP3    H125291   1.407   5.527   0.417 -0.8600  0.7256 -0.2569
 1244TIP3    H225292   1.416   5.672   0.374 -0.5865  0.6532 -0.4430
 1245TIP3   OH225293   2.160   4.544   6.905 -0.2413 -0.6182  0.0818
 1245TIP3    H125294   2.164   4.489   6.827 -0.7970  1.7409 -1.7184
 1245TIP3    H225295   2.251   4.553   6.931  0.0103 -0.9963 -0.6150
 1246TIP3   OH225296   0.316   0.232   6.379  0.2745  0.0271 -0.5543
 1246TIP3    H125297   0.336   0.326   6.379  1.0283 -0.0848  1.2786
 1246TIP3    H225298   0.399   0.190   6.361 -0.3167 -0.3197 -2.7454
 1247TIP3   OH225299   0.876   6.143   0.545  0.1539  0.2376  0.0318
 1247TIP3    H125300   0.870   6.047   0.550 -2.0897  0.3580  0.9341
 1247TIP3    H225301   0.835   6.166   0.462  0.6039  0.4331 -0.1396
 1248TIP3   OH225302   1.656   6.892   1.212  0.1365  0.2693 -0.0648
 1248TIP3    H125303   1.706   6.966   1.246 -0.6253  0.5998  0.3656
 1248TIP3    H225304   1.712   6.855   1.143 -0.1706  2.2272 -1.4393
 1249TIP3   OH225305   3.948   4.835   6.067 -0.0318  0.1318  0.0244
 1249TIP3    H125306   3.894   4.914   6.080 -0.2975 -0.2399  1.3744
 1249TIP3    H225307   4.035   4.869   6.048 -0.1338  0.7651  0.6226
 1250TIP3   OH225308   5.156   4.033   7.822  0.2401  0.0889 -0.2073
 1250TIP3    H125309   5.186   3.972   7.890  0.9578  0.9436  0.2663
 1250TIP3    H225310   5.192   3.999   7.741 -1.6533 -1.6479 -0.3910
 1251TIP3   OH225311   6.796   5.485   8.615  0.4005 -0.3975 -0.8497
 1251TIP3    H125312   6.791   5.551   8.684  0.0006 -0.1445 -1.1121
 1251TIP3    H225313   6.866   5.426   8.643 -1.9704 -2.3593  1.6048
 1252TIP3   OH225314   2.361   5.013   0.505 -0.5555  0.4067  0.7689
 1252TIP3    H125315   2.279   4.984   0.467 -0.7806  2.3689 -0.3689
 1252TIP3    H225316   2.335   5.071   0.577 -0.2747  2.5014 -0.7316
 1253TIP3   OH225317   0.734   4.219   0.624  0.2332  0.1114  0.4152
 1253TIP3    H125318   0.829   4.207   0.630  0.2904  1.2276  2.1981
 1253TIP3    H225319   0.722   4.272   0.545  1.1584  0.5687  0.5616
 1254TIP3   OH225320   1.154   4.838   7.757  0.5874  0.1481 -0.1175
 1254TIP3    H125321   1.133   4.808   7.845 -0.0380  1.4220  0.1930
 1254TIP3    H225322   1.182   4.929   7.768 -0.3674  0.6212 -1.3094
 1255TIP3   OH225323   3.732   3.402   8.014 -0.3050 -0.5848 -0.1768
 1255TIP3    H125324   3.786   3.336   8.057  0.8953  0.5533  0.1265
 1255TIP3    H225325   3.756   3.484   8.057 -2.3424 -0.0409 -0.0009
 1256TIP3   OH225326   6.076   6.719   8.516 -0.2474  0.0914  0.0255
 1256TIP3    H125327   6.100   6.809   8.538 -0.1140 -0.0544  0.4832
 1256TIP3    H225328   6.007   6.696   8.578 -1.8438  0.6122 -1.4899
 1257TIP3   OH225329   5.543   0.290   7.018 -0.3707  0.5252  0.0927
 1257TIP3    H125330   5.629   0.331   7.019 -0.5766  1.0968  2.6860
 1257TIP3    H225331   5.549   0.220   7.084 -1.3899 -0.5968 -0.9447
 1258TIP3   OH225332   2.418   3.046   1.322  0.1116  0.2815 -0.1620
 1258TIP3    H125333   2.458   3.024   1.238  1.2345  1.5208  0.0191
 1258TIP3    H225334   2.364   3.124   1.303 -1.5984 -0.8638 -0.2207
 1259TIP3   OH225335   0.960   3.501   0.737  0.1041 -0.5902  0.2445
 1259TIP3    H125336   0.948   3.595   0.743  0.6911 -0.4742 -0.3429
 1259TIP3    H225337   0.875   3.468   0.706  0.8694  0.1303 -2.9378
 1260TIP3   OH225338   5.452   1.434   1.624 -0.5888  0.2528  0.1034
 1260TIP3    H125339   5.537   1.405   1.657 -0.8914  0.0679  0.7451
 1260TIP3    H225340   5.394   1.431   1.700 -1.8982 -2.4615 -0.8286
 1261TIP3   OH225341   5.928   5.504   2.298  0.4649  0.3496  0.5521
 1261TIP3    H125342   5.920   5.427   2.355 -0.0412 -0.9387 -1.1740
 1261TIP3    H225343   5.838   5.537   2.289  0.7549  1.5409  1.7563
 1262TIP3   OH225344   1.222   2.778   7.536  0.0648 -0.2908 -0.2481
 1262TIP3    H125345   1.266   2.698   7.566  0.5397 -0.3598 -1.0810
 1262TIP3    H225346   1.269   2.802   7.456  0.0825  0.9565  0.1139
 1263TIP3   OH225347   3.318   3.061   8.649 -0.5253  0.6508 -0.4349
 1263TIP3    H125348   3.354   3.039   8.563  1.6123 -0.3836  0.6608
 1263TIP3    H225349   3.303   3.156   8.645 -1.1775  0.5079 -2.1632
 1264TIP3   OH225350   6.109   5.122   8.417  0.0290 -0.2462  0.1700
 1264TIP3    H125351   6.052   5.117   8.493  0.4386  0.0161  0.4963
 1264TIP3    H225352   6.062   5.178   8.355 -0.7508 -1.2393 -0.1674
 1265TIP3   OH225353   1.831   4.564   8.442  0.2502  0.0123  0.4072
 1265TIP3    H125354   1.758   4.619   8.471  0.3909  1.4257 -1.6785
 1265TIP3    H225355   1.807   4.538   8.353  1.3382 -1.2829  0.4596
 1266TIP3   OH225356   1.924   2.807   2.224  0.6793  0.1147  0.3416
 1266TIP3    H125357   1.929   2.772   2.313  1.6076 -0.5656  0.0415
 1266TIP3    H225358   2.001   2.864   2.217  0.9761 -0.3398 -0.2226
 1267TIP3   OH225359   6.475   5.654   2.043  0.1227 -0.2422 -0.0015
 1267TIP3    H125360   6.479   5.721   2.111  1.0189  1.8116 -1.9389
 1267TIP3    H225361   6.410   5.591   2.074  0.3800  0.6883  2.6280
 1268TIP3   OH225362   4.173   2.913   8.127 -0.1072  0.1784  0.4015
 1268TIP3    H125363   4.120   2.847   8.173  2.5258 -1.7955  0.8296
 1268TIP3    H225364   4.152   2.901   8.035 -1.4571  0.4856  0.6421
 1269TIP3   OH225365   3.306   1.602   8.588 -0.4157 -0.1677 -0.3004
 1269TIP3    H125366   3.300   1.520   8.636  1.6610 -0.5904 -0.6757
 1269TIP3    H225367   3.241   1.659   8.630 -1.2593 -1.6971  0.5418
 1270TIP3   OH225368   2.263   5.017   1.321  0.2250  0.4951  0.2061
 1270TIP3    H125369   2.271   5.079   1.393 -3.3947 -0.5201  1.7203
 1270TIP3    H225370   2.311   4.939   1.351 -2.2114 -0.3514  2.2406
 1271TIP3   OH225371   6.519   0.370   0.735 -0.4425 -0.1928  0.0430
 1271TIP3    H125372   6.581   0.444   0.736 -0.1193 -0.4321 -0.9676
 1271TIP3    H225373   6.459   0.390   0.663 -0.0936 -1.1100 -0.5169
 1272TIP3   OH225374   2.186   4.864   7.954  0.2525  0.0458  0.0515
 1272TIP3    H125375   2.131   4.819   8.018  0.6739 -0.0921  0.3227
 1272TIP3    H225376   2.205   4.798   7.888  0.8478 -0.1704  0.4347
 1273TIP3   OH225377   2.806   5.036   7.707  0.0704  0.3479 -0.0047
 1273TIP3    H125378   2.742   4.965   7.713 -0.5504  0.7645 -1.3136
 1273TIP3    H225379   2.759   5.113   7.740  0.5647  0.2776  0.8974
 1274TIP3   OH225380   4.466   3.337   1.388  0.4963 -0.3558  0.2615
 1274TIP3    H125381   4.520   3.259   1.382 -0.5473 -0.9917 -3.5110
 1274TIP3    H225382   4.376   3.305   1.387  0.0395  0.8437  0.3652
 1275TIP3   OH225383   6.663   5.701   7.669  0.9100 -0.0671  0.2507
 1275TIP3    H125384   6.611   5.630   7.707 -1.2005  1.9684  1.4076
 1275TIP3    H225385   6.613   5.730   7.593  1.9429 -0.0366 -0.4333
 1276TIP3   OH225386   0.201   5.401   2.153  0.3243 -0.5826 -0.0053
 1276TIP3    H125387   0.263   5.473   2.152  1.1749 -1.2604  1.0295
 1276TIP3    H225388   0.254   5.323   2.134 -0.2692 -1.1186  0.4607
 1277TIP3   OH225389   5.575   3.712   1.117  0.0535  0.6577  0.5264
 1277TIP3    H125390   5.586   3.806   1.131  0.6774  0.5989  0.4516
 1277TIP3    H225391   5.491   3.691   1.157  0.3437  1.0800  1.3637
 1278TIP3   OH225392   4.434   5.017   1.329  0.4197  0.8362 -0.5159
 1278TIP3    H125393   4.427   4.922   1.338  1.9475  0.7122 -0.3397
 1278TIP3    H225394   4.365   5.041   1.268 -1.1847 -0.1330  0.8220
 1279TIP3   OH225395   0.106   2.456   1.984  0.3138  0.0865 -0.1135
 1279TIP3    H125396   0.056   2.523   2.030  0.2259  0.2893 -0.5077
 1279TIP3    H225397   0.040   2.398   1.946  0.2724  1.6978 -2.6997
 1280TIP3   OH225398   2.781   1.909   7.429  0.1101 -0.0526 -0.8900
 1280TIP3    H125399   2.712   1.864   7.477 -0.2085 -0.8386 -2.0599
 1280TIP3    H225400   2.786   1.995   7.471  0.4596 -0.9986  1.1174
 1281TIP3   OH225401   5.837   3.543   7.785  0.4554 -0.8191 -0.0383
 1281TIP3    H125402   5.862   3.634   7.803  1.3607 -1.0651  0.0096
 1281TIP3    H225403   5.742   3.546   7.773  0.2787 -0.0896  1.3207
 1282TIP3   OH225404   4.107   5.847   0.230 -0.0633  0.0299  0.1977
 1282TIP3    H125405   4.079   5.835   0.321 -0.2566  0.9689  0.2677
 1282TIP3    H225406   4.175   5.780   0.217 -1.3037 -1.3390  0.4584
 1283TIP3   OH225407   4.864   0.884   8.476 -0.1603 -0.5721  0.3284
 1283TIP3    H125408   4.832   0.919   8.560  2.3630  1.8765  0.4070
 1283TIP3    H225409   4.934   0.943   8.451 -0.8737 -1.1768 -3.6306
 1284TIP3   OH225410   4.514   2.685   8.326  0.2216 -0.5518  0.7255
 1284TIP3    H125411   4.476   2.658   8.410 -0.2779 -1.1803  0.3006
 1284TIP3    H225412   4.531   2.604   8.280 -1.4406 -0.1893 -0.6285
 1285TIP3   OH225413   0.882   6.123   2.592 -0.2523  0.5019  0.2148
 1285TIP3    H125414   0.974   6.120   2.564 -0.1009  1.7352  0.5133
 1285TIP3    H225415   0.856   6.215   2.579 -1.5779  0.0741 -0.2701
 1286TIP3   OH225416   1.169   1.986   0.865 -0.1424  0.1503  0.2626
 1286TIP3    H125417   1.168   2.081   0.853  0.1037  0.5052  2.5800
 1286TIP3    H225418   1.083   1.957   0.836  0.2474  0.8354 -1.7951
 1287TIP3   OH225419   4.061   5.801   0.536  0.1160 -0.6245 -0.0344
 1287TIP3    H125420   4.151   5.782   0.560  0.7341 -0.3000 -1.9728
 1287TIP3    H225421   4.029   5.858   0.606  1.6061 -0.2417  0.3519
 1288TIP3   OH225422   5.091   4.573   8.374  0.0841  0.1625 -0.1669
 1288TIP3    H125423   5.146   4.516   8.319 -1.6868  0.2553 -2.1486
 1288TIP3    H225424   5.017   4.518   8.399 -0.2372  0.7925  0.2897
 1289TIP3   OH225425   0.694   1.938   2.721  0.1659 -0.4833  0.0503
 1289TIP3    H125426   0.659   1.900   2.641 -0.0453 -0.6531  0.2253
 1289TIP3    H225427   0.693   1.867   2.785 -3.1481  0.5174  1.3095
 1290TIP3   OH225428   1.555   1.204   1.301  0.6000  0.2181  0.0331
 1290TIP3    H125429   1.624   1.193   1.236  0.4003  1.0903 -0.3445
 1290TIP3    H225430   1.474   1.206   1.251  0.4212  0.6208  0.3313
 1291TIP3   OH225431   3.211   0.247   0.852 -0.9275  0.2038 -0.2320
 1291TIP3    H125432   3.266   0.179   0.813 -0.9529 -0.1860  0.4003
 1291TIP3    H225433   3.192   0.215   0.941 -0.4414  1.3128  0.2899
 1292TIP3   OH225434   0.660   1.459   0.529  0.2706  0.3287  0.3660
 1292TIP3    H125435   0.576   1.476   0.570 -0.4237 -1.1460 -0.3808
 1292TIP3    H225436   0.673   1.364   0.537  1.1608  0.3187 -0.8059
 1293TIP3   OH225437   1.712   6.484   6.582  0.1069  0.1281  0.2557
 1293TIP3    H125438   1.726   6.576   6.605  0.4079 -0.1832  1.3582
 1293TIP3    H225439   1.618   6.476   6.570  0.2306  1.0148 -1.8600
 1294TIP3   OH225440   4.169   3.776   6.061 -0.1517  0.6906  0.3484
 1294TIP3    H125441   4.124   3.753   6.142 -0.2721 -1.1026 -0.1988
 1294TIP3    H225442   4.195   3.693   6.023 -1.0445  1.4043 -2.0004
 1295TIP3   OH225443   4.832   0.987   0.990 -0.7699 -0.0343 -0.2614
 1295TIP3    H125444   4.883   1.003   1.069  0.1288 -0.1393 -0.8102
 1295TIP3    H225445   4.796   1.073   0.966 -1.5781 -0.1116  0.5986
 1296TIP3   OH225446   5.772   4.462   8.266 -0.1521  0.4709 -0.1506
 1296TIP3    H125447   5.680   4.472   8.291  0.1796  1.8665  0.6052
 1296TIP3    H225448   5.784   4.521   8.192  0.1509  0.3161 -0.2272
 1297TIP3   OH225449   6.611   2.704   8.643  0.1777  1.3611  0.0657
 1297TIP3    H125450   6.699   2.739   8.632  0.2028  0.9138 -1.3282
 1297TIP3    H225451   6.563   2.734   8.566  0.0739 -1.1984 -0.9585
 1298TIP3   OH225452   5.620   5.242   1.014 -0.3705  0.2027  0.2566
 1298TIP3    H125453   5.537   5.288   0.997 -0.5882  0.0822  0.9283
 1298TIP3    H225454   5.669   5.250   0.933 -0.8783  0.6318 -0.0189
 1299TIP3   OH225455   4.802   0.518   7.280 -0.0161 -0.2048  0.2215
 1299TIP3    H125456   4.720   0.516   7.330  0.0940 -2.6516  0.3988
 1299TIP3    H225457   4.775   0.512   7.189 -0.0798  1.2660  0.1120
 1300TIP3   OH225458   4.506   1.016   0.532 -0.1319 -0.0856  0.1450
 1300TIP3    H125459   4.514   1.001   0.627 -0.6857 -1.0171  0.0627
 1300TIP3    H225460   4.531   1.107   0.520 -1.4979  0.4920  1.3894
 1301TIP3   OH225461   1.238   1.787   8.220 -0.3275  0.3391 -0.8100
 1301TIP3    H125462   1.244   1.816   8.129  0.2058  0.0295 -0.8775
 1301TIP3    H225463   1.207   1.697   8.215 -1.0805  0.5861 -0.6445
 1302TIP3   OH225464   0.279   6.501   6.372 -0.4288  0.7292  0.3633
 1302TIP3    H125465   0.198   6.518   6.323 -0.6383 -0.0543  0.4117
 1302TIP3    H225466   0.291   6.578   6.426 -0.8322  1.1068 -0.0697
 1303TIP3   OH225467   0.912   1.926   1.401  0.5216 -0.0579  0.0765
 1303TIP3    H125468   0.896   1.947   1.309  1.5368 -1.0625 -0.3525
 1303TIP3    H225469   1.004   1.948   1.415  0.1534  0.9386  1.1219
 1304TIP3   OH225470   1.324   4.958   0.184 -0.2933 -0.0823 -0.1015
 1304TIP3    H125471   1.298   5.049   0.198  0.5467  0.1104  0.3033
 1304TIP3    H225472   1.382   4.960   0.108 -0.3496 -0.2938 -0.1521
 1305TIP3   OH225473   0.292   4.933   2.123 -0.3303  0.2427  0.2144
 1305TIP3    H125474   0.212   4.891   2.091  0.1186  1.1249 -2.3063
 1305TIP3    H225475   0.346   4.861   2.155 -0.4137 -0.9628 -2.1011
 1306TIP3   OH225476   6.579   1.742   0.592  0.2385 -0.4067 -0.6331
 1306TIP3    H125477   6.603   1.765   0.681 -0.0545  0.8041 -0.8504
 1306TIP3    H225478   6.648   1.682   0.563 -0.3937 -1.9465  0.8559
 1307TIP3   OH225479   3.511   5.803   7.288 -0.8672 -0.2178  0.3943
 1307TIP3    H125480   3.455   5.762   7.355 -0.0516  0.3655  1.4794
 1307TIP3    H225481   3.582   5.740   7.276 -1.7374 -0.9730 -1.0054
 1308TIP3   OH225482   3.721   1.644   7.537  0.5711  0.2715  0.7013
 1308TIP3    H125483   3.706   1.567   7.483  2.2764  0.5366 -0.2325
 1308TIP3    H225484   3.690   1.718   7.485  2.2662  0.5329 -0.0201
 1309TIP3   OH225485   4.312   3.129   0.656 -0.2146  0.7234 -0.3060
 1309TIP3    H125486   4.354   3.090   0.733 -2.6540 -1.5819  0.0045
 1309TIP3    H225487   4.320   3.223   0.671 -1.8007  0.4537  3.5890
 1310TIP3   OH225488   0.028   6.202   0.978  0.6925 -0.8113  0.3684
 1310TIP3    H125489  -0.027   6.149   0.920 -0.5876  1.4378 -0.6142
 1310TIP3    H225490  -0.018   6.201   1.062 -0.2930  0.0959 -0.1283
 1311TIP3   OH225491   4.615   2.472   8.654  0.4315 -0.0312 -0.4762
 1311TIP3    H125492   4.605   2.378   8.669 -1.8194  0.0216 -1.3131
 1311TIP3    H225493   4.706   2.482   8.625  1.2447 -1.6828  1.2885
 1312TIP3   OH225494   2.606   2.678   1.160  0.6822 -0.3109 -0.2873
 1312TIP3    H125495   2.625   2.750   1.099  0.0631  1.3661  1.3888
 1312TIP3    H225496   2.513   2.659   1.147  1.0361 -1.4342 -1.3197
 1313TIP3   OH225497   4.698   2.164   1.140 -0.0416 -0.1499  0.5847
 1313TIP3    H125498   4.675   2.149   1.048  2.1029  0.9407 -0.1960
 1313TIP3    H225499   4.627   2.219   1.173  1.2306  3.2841 -1.7743
 1314TIP3   OH225500   6.570   3.513   8.266 -0.1373 -0.4408 -0.2962
 1314TIP3    H125501   6.585   3.434   8.214  0.3372  0.5793 -1.7932
 1314TIP3    H225502   6.496   3.555   8.224  0.8557  0.8933 -0.7831
 1315TIP3   OH225503   2.238   6.775   7.146  0.3358 -0.4327 -0.1526
 1315TIP3    H125504   2.256   6.808   7.234 -1.5471 -0.2802  0.2207
 1315TIP3    H225505   2.207   6.686   7.159 -0.1551 -0.3384 -0.6408
 1316TIP3   OH225506   3.856   3.957   2.429 -0.8993  0.4035 -0.2103
 1316TIP3    H125507   3.895   3.949   2.342  0.5460  1.9001  0.2374
 1316TIP3    H225508   3.767   3.987   2.412 -1.3708 -1.4521 -1.2157
 1317TIP3   OH225509   4.359   4.410   1.333 -0.1042  0.4747 -0.0553
 1317TIP3    H125510   4.369   4.456   1.249  2.8323 -1.9997 -1.3019
 1317TIP3    H225511   4.354   4.318   1.308  2.3578 -0.4716  2.4710
 1318TIP3   OH225512   3.619   3.782   7.433 -0.1151  0.2073  0.0394
 1318TIP3    H125513   3.593   3.795   7.525  0.4486  0.5420  0.1530
 1318TIP3    H225514   3.610   3.687   7.420  0.0727  0.1168  0.5256
 1319TIP3   OH225515   0.142   2.835   8.253 -0.1116  0.2457  0.8686
 1319TIP3    H125516   0.140   2.750   8.295 -1.1437  0.6219  1.6092
 1319TIP3    H225517   0.053   2.868   8.259 -0.2551  0.4570 -1.3776
 1320TIP3   OH225518   2.459   6.849   0.372  0.5239 -0.3454  0.7828
 1320TIP3    H125519   2.415   6.904   0.436 -1.2188  1.3081 -1.6657
 1320TIP3    H225520   2.434   6.760   0.395 -0.9551  0.2915  1.7569
 1321TIP3   OH225521   0.136   6.263   6.504 -0.4795 -0.2253 -0.0766
 1321TIP3    H125522   0.205   6.279   6.440 -0.2217  0.2679  0.3320
 1321TIP3    H225523   0.061   6.314   6.472 -0.4618 -0.2571 -0.1691
 1322TIP3   OH225524   2.449   4.190   0.831  0.5951  0.1317 -0.6557
 1322TIP3    H125525   2.452   4.236   0.916 -0.0339  0.7389 -0.9513
 1322TIP3    H225526   2.541   4.187   0.803  0.5296  3.0189 -1.5433
 1323TIP3   OH225527   6.620   5.995   7.819  0.7563 -0.1336  0.1781
 1323TIP3    H125528   6.586   6.023   7.734  0.5744  0.1803  0.3519
 1323TIP3    H225529   6.677   5.920   7.799 -1.5252 -1.9440  0.0499
 1324TIP3   OH225530   2.774   6.666   7.750  0.9046  0.3044  0.1188
 1324TIP3    H125531   2.793   6.573   7.764 -0.9432 -0.0797  0.3957
 1324TIP3    H225532   2.803   6.709   7.830  0.9732 -0.1724  0.3556
 1325TIP3   OH225533   4.205   6.056   6.311 -0.3753  0.8689 -0.3790
 1325TIP3    H125534   4.265   6.005   6.256 -1.2630 -0.1825 -0.3955
 1325TIP3    H225535   4.262   6.120   6.355  0.8104 -0.2970 -0.1512
 1326TIP3   OH225536   3.756   0.493   1.569  0.4242 -0.4953 -0.3257
 1326TIP3    H125537   3.756   0.436   1.492 -0.7597  1.0090 -1.4892
 1326TIP3    H225538   3.744   0.581   1.534 -0.9616  0.1613  1.6395
 1327TIP3   OH225539   6.114   3.006   0.532  0.6926 -0.0488 -0.3599
 1327TIP3    H125540   6.075   2.975   0.450  2.4522  0.1941 -1.3347
 1327TIP3    H225541   6.206   3.022   0.511  0.7677  1.9682  1.1333
 1328TIP3   OH225542   1.099   0.519   0.809 -0.4821 -0.1281 -0.3529
 1328TIP3    H125543   1.055   0.487   0.888 -1.5570 -0.4094 -1.0432
 1328TIP3    H225544   1.028   0.546   0.751  0.1390 -2.1474 -2.1896
 1329TIP3   OH225545   6.727   3.201   7.032  0.3909 -0.5470  0.3346
 1329TIP3    H125546   6.742   3.219   6.939 -0.3830 -0.3122  0.2518
 1329TIP3    H225547   6.808   3.158   7.061  0.9364  0.0483 -0.2654
 1330TIP3   OH225548   0.971   6.738   1.613  0.2552  0.6281  0.1303
 1330TIP3    H125549   0.946   6.774   1.698 -1.8407 -1.7046  0.6208
 1330TIP3    H225550   1.038   6.673   1.633 -0.5814 -0.2635  0.0991
 1331TIP3   OH225551   6.734   1.146   8.436 -0.0515 -0.1089  0.0984
 1331TIP3    H125552   6.783   1.073   8.399  0.8217 -0.8206  2.4772
 1331TIP3    H225553   6.690   1.110   8.513 -1.6766  1.3075 -0.0819
 1332TIP3   OH225554   5.318   2.493   7.187  0.3615  0.0898 -0.4290
 1332TIP3    H125555   5.348   2.447   7.108 -1.3355  0.3589 -1.2812
 1332TIP3    H225556   5.250   2.435   7.223 -0.5118  1.0508 -0.4959
 1333TIP3   OH225557   2.220   3.247   7.477 -0.2129  0.3666  0.0712
 1333TIP3    H125558   2.150   3.261   7.541 -1.0701 -1.7922 -0.3000
 1333TIP3    H225559   2.291   3.304   7.506 -1.5813  1.5178  1.3190
 1334TIP3   OH225560   3.828   3.277   8.370 -0.4466  0.3358 -0.0730
 1334TIP3    H125561   3.848   3.339   8.440  0.5104 -1.8561  1.7012
 1334TIP3    H225562   3.797   3.199   8.415  0.2200 -1.1632 -2.0878
 1335TIP3   OH225563   1.304   0.327   7.019  0.3755 -0.3163 -0.4974
 1335TIP3    H125564   1.332   0.389   6.952  0.8995 -0.2621 -0.2380
 1335TIP3    H225565   1.290   0.245   6.972  0.9843 -0.3464 -0.6448
 1336TIP3   OH225566   4.339   3.657   1.632  0.0331  1.0039 -0.1432
 1336TIP3    H125567   4.427   3.686   1.655  0.4869  0.7394 -1.4442
 1336TIP3    H225568   4.283   3.691   1.701  1.1433  1.2705  0.6406
 1337TIP3   OH225569   2.200   2.189   0.845  0.0126  0.0242  0.3995
 1337TIP3    H125570   2.223   2.206   0.754  0.6197 -0.8693  0.3802
 1337TIP3    H225571   2.274   2.223   0.896 -0.4953  0.8740  0.6003
 1338TIP3   OH225572   6.741   3.777   1.543  0.2576 -0.2266 -0.0852
 1338TIP3    H125573   6.658   3.736   1.519  0.0430  1.5709 -2.7964
 1338TIP3    H225574   6.733   3.795   1.637 -2.5307  0.1828 -0.3388
 1339TIP3   OH225575   0.417   3.124   0.167  0.2097  0.6609 -0.0719
 1339TIP3    H125576   0.461   3.053   0.214  3.0362  1.4890 -1.3138
 1339TIP3    H225577   0.465   3.133   0.085 -0.5630  3.5072 -0.3158
 1340TIP3   OH225578   0.470   0.088   1.411  1.2317 -0.1332 -0.0343
 1340TIP3    H125579   0.481   0.177   1.444 -0.7115  0.5663 -1.0968
 1340TIP3    H225580   0.460   0.099   1.316 -1.3211 -1.1880  0.0481
 1341TIP3   OH225581   5.656   4.246   0.202 -0.1269  0.3058  0.8022
 1341TIP3    H125582   5.682   4.272   0.290 -0.1716 -0.0697  0.9305
 1341TIP3    H225583   5.673   4.152   0.199 -0.0713  0.3271  0.3900
 1342TIP3   OH225584   5.560   5.625   8.478  0.2613  0.1583  0.4891
 1342TIP3    H125585   5.534   5.714   8.456  1.7203  0.5985  0.4757
 1342TIP3    H225586   5.610   5.633   8.559 -0.4905 -0.7988  1.0821
 1343TIP3   OH225587   0.465   0.129   1.822  0.0104  0.0527  0.5052
 1343TIP3    H125588   0.416   0.204   1.790 -0.8875 -0.6729  0.1629
 1343TIP3    H225589   0.403   0.057   1.821  1.5930 -1.4035 -1.9196
 1344TIP3   OH225590   3.460   6.690   6.739 -0.3328  0.2085  0.7611
 1344TIP3    H125591   3.517   6.765   6.724 -0.4850  0.2251  0.2349
 1344TIP3    H225592   3.514   6.628   6.787 -0.4526  0.9741  1.9131
 1345TIP3   OH225593   0.329   6.233   6.032 -0.2497  0.4420 -0.3518
 1345TIP3    H125594   0.257   6.261   5.974 -1.3986  0.0067  0.8042
 1345TIP3    H225595   0.310   6.141   6.051  0.4688  0.3958  0.1917
 1346TIP3   OH225596   4.927   6.610   7.778 -0.7142 -0.2459 -0.0851
 1346TIP3    H125597   4.873   6.670   7.830  0.3797  0.4650  0.2670
 1346TIP3    H225598   4.945   6.659   7.697  0.2292 -0.0525  0.2275
 1347TIP3   OH225599   1.299   3.538   7.396  0.4019 -0.8046 -0.2492
 1347TIP3    H125600   1.297   3.457   7.345  3.2591 -0.2187 -1.5322
 1347TIP3    H225601   1.326   3.510   7.484  0.1072 -1.3595 -0.3306
 1348TIP3   OH225602   5.505   1.846   8.398  0.0051 -0.0334 -0.4767
 1348TIP3    H125603   5.411   1.840   8.377  0.0535 -1.3162 -0.4158
 1348TIP3    H225604   5.538   1.757   8.385  1.0909  0.2655  0.1220
 1349TIP3   OH225605   4.640   0.132   0.087 -1.0862  0.2963  0.1036
 1349TIP3    H125606   4.715   0.180   0.052 -1.1972  0.5261  0.1768
 1349TIP3    H225607   4.640   0.049   0.039  0.8928 -0.9489  2.0521
 1350TIP3   OH225608   1.292   1.162   8.360  0.4637 -0.0249  0.0868
 1350TIP3    H125609   1.361   1.180   8.424 -0.7150 -0.0394  1.4086
 1350TIP3    H225610   1.329   1.191   8.276  1.7587  0.7161  0.8749
 1351TIP3   OH225611   4.511   1.327   7.310 -0.3476 -0.3102 -0.0352
 1351TIP3    H125612   4.589   1.313   7.255 -1.1259 -0.7478 -1.0543
 1351TIP3    H225613   4.439   1.333   7.248 -1.0212  1.0908  0.8377
 1352TIP3   OH225614   2.621   1.959   7.785  0.5426 -0.2981 -0.1679
 1352TIP3    H125615   2.620   1.879   7.732 -0.8223 -0.5412  0.2065
 1352TIP3    H225616   2.660   1.932   7.868  1.5256 -0.2001 -0.5827
 1353TIP3   OH225617   0.268   6.654   7.327  0.7967  0.2354 -0.0689
 1353TIP3    H125618   0.248   6.689   7.414 -1.9467 -0.9607 -0.1006
 1353TIP3    H225619   0.199   6.689   7.271  0.9338 -1.1455 -1.1635
 1354TIP3   OH225620   1.249   5.031   7.969 -0.2602  0.1873  0.1269
 1354TIP3    H125621   1.265   5.125   7.970  1.0596 -0.0195  1.2637
 1354TIP3    H225622   1.173   5.020   8.027  0.1854  0.4625  0.7729
 1355TIP3   OH225623   2.186   1.590   6.519 -0.2848 -0.2625  0.3285
 1355TIP3    H125624   2.226   1.640   6.448 -1.1867 -0.8129 -0.6100
 1355TIP3    H225625   2.094   1.617   6.518 -0.8989 -2.1949 -0.5056
 1356TIP3   OH225626   0.204   2.637   7.988  0.0083  0.2254 -0.3101
 1356TIP3    H125627   0.250   2.574   8.043  0.6320  1.7420  0.9932
 1356TIP3    H225628   0.216   2.721   8.033 -2.4656  0.9743 -0.9178
 1357TIP3   OH225629   1.972   0.946   1.919 -0.1858 -0.4098  0.6771
 1357TIP3    H125630   2.013   0.976   2.000  0.3983  0.6370  0.0094
 1357TIP3    H225631   1.923   0.867   1.945 -1.2127  0.7048  2.3446
 1358TIP3   OH225632   3.443   0.126   1.223  0.0727  0.2167  0.7196
 1358TIP3    H125633   3.457   0.098   1.133 -0.6814  0.1984  0.5992
 1358TIP3    H225634   3.408   0.048   1.267 -0.9494  0.6340  0.6658
 1359TIP3   OH225635   1.104   5.918   7.423  0.1158 -0.2848 -0.7188
 1359TIP3    H125636   1.127   5.965   7.343  0.0808  0.1957 -0.4518
 1359TIP3    H225637   1.089   5.987   7.488  0.3510 -0.6756 -0.2433
 1360TIP3   OH225638   2.681   4.917   7.231  0.4495 -0.3781  0.1338
 1360TIP3    H125639   2.733   4.970   7.291  0.8527 -1.5501  0.8513
 1360TIP3    H225640   2.710   4.827   7.247 -1.0246 -0.9477 -0.2239
 1361TIP3   OH225641   3.599   6.696   0.072 -0.4834 -0.3031 -0.1096
 1361TIP3    H125642   3.530   6.640   0.105  0.0978 -0.4452  0.9287
 1361TIP3    H225643   3.570   6.724  -0.015 -1.4523 -1.0042 -0.0131
 1362TIP3   OH225644   6.107   6.381   6.759  0.3751  0.2540  0.4128
 1362TIP3    H125645   6.122   6.476   6.761  0.4559  0.2983 -1.0810
 1362TIP3    H225646   6.036   6.370   6.696  1.6179 -0.8047 -0.8747
 1363TIP3   OH225647   5.346   0.637   1.955  0.2968 -0.5670  0.3127
 1363TIP3    H125648   5.276   0.664   2.014  0.8420 -1.3477  1.3509
 1363TIP3    H225649   5.426   0.673   1.995  0.5765 -0.2518 -0.5001
 1364TIP3   OH225650   6.889   3.469   7.017 -0.0992 -0.5330  0.1549
 1364TIP3    H125651   6.901   3.387   6.969 -0.0767  0.0127 -0.8093
 1364TIP3    H225652   6.809   3.507   6.981  1.3292  1.1735 -1.4164
 1365TIP3   OH225653   5.246   5.894   0.003 -0.1853  0.3751 -0.1875
 1365TIP3    H125654   5.305   5.940  -0.058 -1.4499  0.1951 -1.6178
 1365TIP3    H225655   5.178   5.857  -0.054 -0.7098 -0.9132  1.2349
 1366TIP3   OH225656   3.169   1.530   6.452  0.1860  0.5442  0.7228
 1366TIP3    H125657   3.158   1.443   6.489  0.8634  0.1761  0.0876
 1366TIP3    H225658   3.091   1.578   6.479 -0.0865 -0.1903  1.2625
 1367TIP3   OH225659   1.400   4.620   1.918  0.0676  0.1913 -0.8429
 1367TIP3    H125660   1.375   4.593   2.006 -1.6416 -0.2657 -1.4198
 1367TIP3    H225661   1.484   4.577   1.902  0.3066  0.1378  0.4834
 1368TIP3   OH225662   0.013   5.745   0.315  0.1448  0.9197 -0.0881
 1368TIP3    H125663   0.090   5.800   0.333 -0.9722  1.6659  3.1453
 1368TIP3    H225664  -0.046   5.762   0.389 -1.8386 -1.9419 -0.8452
 1369TIP3   OH225665   1.533   4.230   7.399  0.3222 -0.0496  0.4706
 1369TIP3    H125666   1.473   4.272   7.337  2.3285  2.8613  0.3324
 1369TIP3    H225667   1.553   4.298   7.463  0.9207 -1.9806  2.4538
 1370TIP3   OH225668   6.359   2.154   1.432  0.4829 -0.3268 -0.0163
 1370TIP3    H125669   6.338   2.216   1.503  1.6848  0.0924  0.0009
 1370TIP3    H225670   6.382   2.210   1.358 -2.6313 -0.7131 -1.4400
 1371TIP3   OH225671   2.781   2.728   7.520 -0.6635 -0.1056 -0.1657
 1371TIP3    H125672   2.757   2.820   7.535  1.0704  0.3604 -0.0998
 1371TIP3    H225673   2.852   2.732   7.456 -0.6970 -1.4344 -0.3055
 1372TIP3   OH225674   2.427   6.687   7.687  0.3810  0.2547  0.2796
 1372TIP3    H125675   2.503   6.665   7.634  0.1075  1.2203 -0.5305
 1372TIP3    H225676   2.413   6.609   7.742  0.8816 -0.6299 -0.8062
 1373TIP3   OH225677   5.905   4.220   1.440 -0.1957 -0.1059  0.3021
 1373TIP3    H125678   5.823   4.201   1.394  0.6772 -0.9771 -0.9524
 1373TIP3    H225679   5.878   4.265   1.520 -2.0292 -2.0528  0.8562
 1374TIP3   OH225680   4.704   2.438   7.005 -0.2375  0.2925  0.2643
 1374TIP3    H125681   4.668   2.510   6.953 -2.6168 -1.0511 -0.1124
 1374TIP3    H225682   4.721   2.368   6.941 -1.4010 -0.7178  1.0070
 1375TIP3   OH225683   5.986   0.766   0.716  0.1957  0.0462  0.2639
 1375TIP3    H125684   5.915   0.775   0.652 -0.5694 -1.9339  0.7520
 1375TIP3    H225685   5.942   0.745   0.798  1.2985  0.0902  0.8881
 1376TIP3   OH225686   5.673   4.131   1.352 -0.2349  0.6476  0.0636
 1376TIP3    H125687   5.670   4.066   1.281  0.0366 -1.8139  2.1778
 1376TIP3    H225688   5.598   4.110   1.407  0.1714  1.8242  1.0994
 1377TIP3   OH225689   3.126   3.149   0.401  0.2187  0.2192  0.2399
 1377TIP3    H125690   3.132   3.224   0.342 -1.4580 -0.1559 -0.4575
 1377TIP3    H225691   3.098   3.186   0.485  0.0850  0.4577  0.0905
 1378TIP3   OH225692   3.200   4.425   7.259  0.3572  0.3994  0.3122
 1378TIP3    H125693   3.138   4.413   7.188 -0.4744  0.4193  1.0235
 1378TIP3    H225694   3.269   4.360   7.242 -0.0602  0.0961 -0.2516
 1379TIP3   OH225695   4.533   4.146   8.050 -0.5765  0.5446 -0.2340
 1379TIP3    H125696   4.600   4.085   8.079 -0.5408  0.6033 -0.1924
 1379TIP3    H225697   4.543   4.150   7.955  0.2470  1.4413 -0.1302
 1380TIP3   OH225698   4.686   0.879   1.603  0.4484  0.3686 -0.0799
 1380TIP3    H125699   4.738   0.801   1.589  1.0275  0.5860  0.8203
 1380TIP3    H225700   4.606   0.864   1.553  0.6841 -0.6582 -0.1538
 1381TIP3   OH225701   1.338   2.044   0.645  0.1593  0.0501 -0.1282
 1381TIP3    H125702   1.300   1.969   0.690  1.9636  0.8497  3.0072
 1381TIP3    H225703   1.302   2.120   0.689  3.2238  0.8507  1.2200
 1382TIP3   OH225704   3.119   3.979   6.362 -0.1657  0.2598  0.2715
 1382TIP3    H125705   3.180   4.047   6.333 -0.7133  0.2181 -1.0026
 1382TIP3    H225706   3.164   3.897   6.345  1.1263  0.2293  3.1657
 1383TIP3   OH225707   3.985   4.876   8.409  0.3681 -0.1471 -0.2008
 1383TIP3    H125708   3.982   4.794   8.457 -0.2486  0.3232  0.5949
 1383TIP3    H225709   3.894   4.905   8.405  0.7070  1.1115  0.6420
 1384TIP3   OH225710   5.854   3.643   7.469  0.1367 -0.5920  0.2466
 1384TIP3    H125711   5.814   3.567   7.512 -2.1908 -1.1272 -2.5648
 1384TIP3    H225712   5.792   3.714   7.483  0.1656 -0.3579 -0.7682
 1385TIP3   OH225713   2.235   6.229   6.264  0.4277  0.0771  0.0839
 1385TIP3    H125714   2.221   6.135   6.260  0.0030  0.1282  0.3022
 1385TIP3    H225715   2.314   6.244   6.212 -0.0323 -0.2884 -0.7415
 1386TIP3   OH225716   2.366   2.353   1.040 -0.4118  0.3629 -0.0446
 1386TIP3    H125717   2.361   2.445   1.016  1.5286  0.0918 -1.7910
 1386TIP3    H225718   2.458   2.338   1.059 -0.2942 -1.5824 -1.7241
 1387TIP3   OH225719   3.456   6.241   0.553 -0.6300 -0.2576 -0.3198
 1387TIP3    H125720   3.520   6.312   0.553 -1.4772  0.5153  0.2158
 1387TIP3    H225721   3.496   6.175   0.610  0.1984 -0.2701 -0.8870
 1388TIP3   OH225722   4.835   4.583   7.270 -0.3226  0.3487 -0.1353
 1388TIP3    H125723   4.892   4.511   7.241 -2.3612 -0.9756 -1.0872
 1388TIP3    H225724   4.861   4.658   7.217  0.3128 -0.3123 -0.7692
 1389TIP3   OH225725   3.214   5.313   0.515  0.6531 -0.0456 -0.3679
 1389TIP3    H125726   3.132   5.281   0.477  1.1399 -0.9543 -0.7005
 1389TIP3    H225727   3.281   5.283   0.454  1.2870  0.0774  0.2643
 1390TIP3   OH225728   2.100   1.122   1.024  0.1305  0.6941  0.4878
 1390TIP3    H125729   2.089   1.200   0.970 -1.6866  0.2705  0.1784
 1390TIP3    H225730   2.176   1.141   1.079  0.1372  2.3932 -0.0592
 1391TIP3   OH225731   5.669   3.105   0.131  0.0142  0.5296  0.0270
 1391TIP3    H125732   5.579   3.093   0.101 -0.1480  1.3101  0.1742
 1391TIP3    H225733   5.665   3.090   0.226 -0.1546  1.4360  0.1828
 1392TIP3   OH225734   1.704   5.811   8.017  0.5450  0.1818 -0.2451
 1392TIP3    H125735   1.697   5.719   7.994  0.8378  0.1638 -0.2600
 1392TIP3    H225736   1.634   5.854   7.967 -1.2275 -0.3671  1.6245
 1393TIP3   OH225737   6.411   6.672   7.035 -0.5045  0.1012  0.0153
 1393TIP3    H125738   6.490   6.670   7.089 -0.8482 -0.0752  0.5152
 1393TIP3    H225739   6.426   6.745   6.975 -0.8427  1.4029  1.4679
 1394TIP3   OH225740   3.057   6.530   7.363 -0.4501  0.0958  0.0318
 1394TIP3    H125741   3.148   6.500   7.362 -0.3601  0.3629 -0.6570
 1394TIP3    H225742   3.060   6.616   7.321 -0.6114  1.3630  2.4408
 1395TIP3   OH225743   2.268   2.830   8.266  0.0750 -0.2323 -0.3993
 1395TIP3    H125744   2.226   2.744   8.274  2.2889 -1.3765 -0.1542
 1395TIP3    H225745   2.361   2.810   8.257  0.6143  2.1545 -0.8410
 1396TIP3   OH225746   0.739   4.275   7.191  0.2328  0.2370  0.1714
 1396TIP3    H125747   0.762   4.198   7.140 -2.2604 -1.1862  1.0217
 1396TIP3    H225748   0.664   4.247   7.244 -0.5421  3.1466  0.7772
 1397TIP3   OH225749   5.190   4.217   8.637 -0.2950  0.3936 -0.5910
 1397TIP3    H125750   5.177   4.295   8.690  1.7960  0.6092 -0.2972
 1397TIP3    H225751   5.123   4.222   8.569 -1.9243  1.0011  1.0005
 1398TIP3   OH225752   5.515   5.195   1.499 -0.1909 -0.8846  0.2301
 1398TIP3    H125753   5.531   5.286   1.527  0.0014 -1.1068  0.8479
 1398TIP3    H225754   5.579   5.181   1.429  0.3214 -0.7953  0.6666
 1399TIP3   OH225755   6.330   4.862   1.541 -0.0631 -0.3996  0.5838
 1399TIP3    H125756   6.352   4.776   1.579 -0.8390 -0.9407 -0.1640
 1399TIP3    H225757   6.252   4.890   1.589 -0.1455 -0.3708  0.4309
 1400TIP3   OH225758   5.433   2.008   1.818 -0.1024  0.4323  0.1278
 1400TIP3    H125759   5.484   2.002   1.898  0.2550  0.6675 -0.0793
 1400TIP3    H225760   5.452   1.926   1.771 -0.4060  0.2397  0.3331
 1401TIP3   OH225761   4.364   4.976   0.091  0.5178 -0.1163 -0.4224
 1401TIP3    H125762   4.348   5.065   0.122 -1.4411 -0.2127 -1.0627
 1401TIP3    H225763   4.359   4.922   0.170 -1.6890 -0.0260 -0.4427
 1402TIP3   OH225764   4.959   2.834   1.563  0.1933  0.5881 -0.0129
 1402TIP3    H125765   4.887   2.771   1.559  1.7896 -1.2597 -3.0794
 1402TIP3    H225766   5.016   2.802   1.633 -0.3664  0.2524  0.3001
 1403TIP3   OH225767   4.489   0.713   7.429 -0.5278  0.4779 -0.0282
 1403TIP3    H125768   4.541   0.684   7.355  0.6050 -1.7304  1.5220
 1403TIP3    H225769   4.399   0.716   7.396 -0.2489 -1.8040 -1.1758
 1404TIP3   OH225770   3.642   6.141   8.194  0.2818  0.3988 -0.8618
 1404TIP3    H125771   3.655   6.066   8.253  1.4951  0.6294 -0.8131
 1404TIP3    H225772   3.623   6.214   8.252  1.3661  0.6020 -0.7358
 1405TIP3   OH225773   5.656   0.233   1.362 -0.2248 -0.4132 -0.3511
 1405TIP3    H125774   5.739   0.194   1.337 -0.2125 -1.2895  0.9467
 1405TIP3    H225775   5.635   0.293   1.291  1.5986 -0.0308 -0.6024
 1406TIP3   OH225776   1.366   1.535   0.695 -0.1811 -0.4825 -0.2622
 1406TIP3    H125777   1.281   1.579   0.688 -0.3599 -1.0611 -3.3638
 1406TIP3    H225778   1.345   1.442   0.707  0.0101 -0.5327 -0.3006
 1407TIP3   OH225779   1.252   0.914   1.533 -0.6575  0.4786 -0.1217
 1407TIP3    H125780   1.268   1.007   1.519 -0.9182  0.4408 -0.7135
 1407TIP3    H225781   1.190   0.890   1.464  1.6673 -0.7997 -1.9261
 1408TIP3   OH225782   3.640   2.829   7.342  0.2881  0.6991  0.3653
 1408TIP3    H125783   3.681   2.853   7.425 -0.1705  1.4507  0.3766
 1408TIP3    H225784   3.708   2.780   7.295 -0.2641 -2.1042  2.2539
 1409TIP3   OH225785   6.188   4.479   0.104 -0.4102  0.2099 -0.2627
 1409TIP3    H125786   6.128   4.405   0.103  1.6084 -1.5917  1.6657
 1409TIP3    H225787   6.259   4.453   0.044  0.1538  0.7251  0.1661
 1410TIP3   OH225788   2.518   1.718   0.614 -0.4410  0.2949  0.3967
 1410TIP3    H125789   2.588   1.783   0.614 -0.3888  0.2432  1.0344
 1410TIP3    H225790   2.439   1.766   0.637 -0.8212  0.5518 -1.3504
 1411TIP3   OH225791   3.763   0.767   8.038 -0.0193  0.4948 -0.0112
 1411TIP3    H125792   3.724   0.701   8.095 -1.6682  1.1303 -0.3352
 1411TIP3    H225793   3.834   0.721   7.993  0.7433 -0.2484  1.8589
 1412TIP3   OH225794   0.109   6.025   7.098  0.1293  0.3788  0.1880
 1412TIP3    H125795   0.043   6.044   7.031 -0.1308 -0.2485  0.2655
 1412TIP3    H225796   0.184   6.080   7.073 -0.6015  1.5127  0.4010
 1413TIP3   OH225797   4.668   2.976   7.544  0.2556  0.2674 -0.4172
 1413TIP3    H125798   4.658   2.945   7.454  1.9790 -1.6663 -0.0378
 1413TIP3    H225799   4.706   2.901   7.591  1.4719  1.9167  1.4167
 1414TIP3   OH225800   2.485   2.169   7.990 -0.3912  0.2419 -0.4612
 1414TIP3    H125801   2.502   2.256   7.952  0.2304  1.0910  1.5867
 1414TIP3    H225802   2.526   2.108   7.929  0.5951  1.5237 -1.1393
 1415TIP3   OH225803   3.044   6.436   0.558 -0.4582 -0.3082  0.3422
 1415TIP3    H125804   3.010   6.347   0.561 -0.2975 -0.3520  1.0638
 1415TIP3    H225805   3.022   6.473   0.643  0.0188  0.1363  0.2783
 1416TIP3   OH225806   5.913   2.386   2.746  0.0933 -0.2322 -0.1036
 1416TIP3    H125807   5.850   2.445   2.707  0.2472 -1.0882 -1.7376
 1416TIP3    H225808   5.864   2.340   2.814  0.0286  1.8422  1.3503
 1417TIP3   OH225809   5.786   1.721   6.591  0.6051 -0.5420  0.2020
 1417TIP3    H125810   5.859   1.746   6.648 -0.1803 -2.9436  2.4260
 1417TIP3    H225811   5.708   1.756   6.635  0.0642 -1.5614  0.0683
 1418TIP3   OH225812   1.966   5.925   8.009 -0.0513  0.4345  0.7341
 1418TIP3    H125813   2.003   5.865   7.944  2.3504  0.2188  2.1738
 1418TIP3    H225814   1.878   5.891   8.024  0.8222 -2.1113  0.6703
 1419TIP3   OH225815   0.326   0.965   7.373  0.0112  0.6543 -0.1864
 1419TIP3    H125816   0.293   0.883   7.408  3.1593 -0.5956  0.1865
 1419TIP3    H225817   0.345   0.946   7.281  1.5211  0.6422  0.1020
 1420TIP3   OH225818   4.966   1.052   7.450  0.2381 -0.1256 -0.3062
 1420TIP3    H125819   4.941   0.960   7.448  0.3089 -0.1486 -0.1595
 1420TIP3    H225820   5.060   1.050   7.470  0.3290 -0.0371 -0.7260
 1421TIP3   OH225821   2.913   5.186   1.383 -0.2051  0.3175 -0.5919
 1421TIP3    H125822   2.961   5.263   1.352  0.3336  0.6797  1.0248
 1421TIP3    H225823   2.878   5.212   1.469  0.2855 -1.3305  0.1557
 1422TIP3   OH225824   4.279   5.683   0.679 -0.2489  0.0759  0.3195
 1422TIP3    H125825   4.309   5.645   0.761  0.2149  0.3475  0.2788
 1422TIP3    H225826   4.354   5.677   0.620  0.3219  2.2897  0.7280
 1423TIP3   OH225827   3.168   6.148   2.799 -0.2151 -0.3154  0.5358
 1423TIP3    H125828   3.178   6.099   2.718 -2.7514  0.4266 -0.3111
 1423TIP3    H225829   3.123   6.088   2.858 -2.1273  0.4582 -0.0607
 1424TIP3   OH225830   0.317   3.378   8.494 -0.0431  0.2072 -0.6368
 1424TIP3    H125831   0.287   3.463   8.460 -2.9606 -0.3656  0.2203
 1424TIP3    H225832   0.330   3.324   8.415  0.9546  1.1300 -1.1367
 1425TIP3   OH225833   2.249   4.357   8.495  0.0950 -0.3111 -0.6383
 1425TIP3    H125834   2.258   4.436   8.548  0.5723 -1.6133  1.3204
 1425TIP3    H225835   2.212   4.292   8.555 -0.9778 -1.3977 -2.3907
 1426TIP3   OH225836   5.274   3.017   8.137  0.2198  0.1401 -0.0349
 1426TIP3    H125837   5.212   2.944   8.137 -0.5430  0.7176  1.8778
 1426TIP3    H225838   5.231   3.086   8.087  0.3865 -0.2800 -0.7648
 1427TIP3   OH225839   0.877   6.427   2.409 -0.0267 -0.4992 -0.4133
 1427TIP3    H125840   0.812   6.364   2.378  1.1577 -1.2471 -1.4648
 1427TIP3    H225841   0.868   6.503   2.351  0.6517 -0.9831 -1.1698
 1428TIP3   OH225842   3.158   6.375   0.263 -0.0054 -0.4382  0.0328
 1428TIP3    H125843   3.097   6.406   0.329 -0.3698  0.6941 -0.7967
 1428TIP3    H225844   3.177   6.284   0.288 -0.6188 -0.2361  1.3107
 1429TIP3   OH225845   4.231   6.514   7.039  0.1983 -0.2817 -0.0090
 1429TIP3    H125846   4.324   6.529   7.022  0.1080  1.4875  0.8690
 1429TIP3    H225847   4.187   6.591   7.005 -0.9215 -0.8796  0.0296
 1430TIP3   OH225848   5.604   2.458   6.876 -0.0695 -0.1976  0.4968
 1430TIP3    H125849   5.598   2.493   6.787 -1.1306 -0.8181  0.3216
 1430TIP3    H225850   5.654   2.525   6.924  0.1581  0.3316 -0.4548
 1431TIP3   OH225851   2.362   1.803   7.708 -0.2522 -0.0732  0.0892
 1431TIP3    H125852   2.290   1.805   7.772 -1.1024 -0.5890 -0.8154
 1431TIP3    H225853   2.356   1.887   7.663 -0.3487 -0.1490 -0.0412
 1432TIP3   OH225854   5.308   5.989   6.986  0.3038  0.1129  0.1363
 1432TIP3    H125855   5.384   5.965   7.040  0.6679  0.0289 -0.4076
 1432TIP3    H225856   5.290   5.911   6.934  0.5531  0.5113 -0.5561
 1433TIP3   OH225857   5.834   5.362   0.228  0.7580 -0.3026  0.0613
 1433TIP3    H125858   5.878   5.419   0.165  0.6164 -2.4809 -2.1485
 1433TIP3    H225859   5.760   5.326   0.180  0.9381 -2.4490  1.2947
 1434TIP3   OH225860   5.411   1.274   8.448 -0.2240  0.1908  0.2922
 1434TIP3    H125861   5.394   1.316   8.364 -1.4890 -1.3748 -0.2950
 1434TIP3    H225862   5.424   1.181   8.426 -1.6599 -0.4462  1.8891
 1435TIP3   OH225863   1.359   4.602   0.291 -0.8177 -0.1292  0.3686
 1435TIP3    H125864   1.304   4.667   0.248  1.0394  0.4163 -1.3712
 1435TIP3    H225865   1.312   4.578   0.370 -2.7509  1.4574 -0.2355
 1436TIP3   OH225866   3.165   5.231   5.768 -0.4411  0.5499  0.5881
 1436TIP3    H125867   3.070   5.240   5.759 -0.4797  0.1862  0.6221
 1436TIP3    H225868   3.192   5.312   5.812 -0.6792  0.8413  0.2084
 1437TIP3   OH225869   5.963   6.433   0.681 -0.3407 -0.1480  0.3474
 1437TIP3    H125870   5.939   6.487   0.606  1.1891  1.2946  0.8557
 1437TIP3    H225871   5.904   6.462   0.751 -0.5423 -0.2155  0.2065
 1438TIP3   OH225872   3.369   0.216   0.318  0.1270  0.0295  0.0519
 1438TIP3    H125873   3.442   0.195   0.259 -0.1552  0.1273 -0.3335
 1438TIP3    H225874   3.320   0.134   0.325 -0.4139  0.2916 -0.6602
 1439TIP3   OH225875   5.427   5.384   7.840 -0.5155  0.4378 -0.8313
 1439TIP3    H125876   5.346   5.336   7.826  0.2435 -0.7970 -1.1116
 1439TIP3    H225877   5.479   5.368   7.761  1.3965 -1.6531  0.7217
 1440TIP3   OH225878   3.890   0.771   1.805  0.4573 -0.3001 -0.2946
 1440TIP3    H125879   3.854   0.688   1.837  1.3919  0.0658  1.8419
 1440TIP3    H225880   3.863   0.836   1.869  2.9445  0.3614  0.1846
 1441TIP3   OH225881   0.736   3.897   1.390  0.3282 -0.3781  0.4277
 1441TIP3    H125882   0.664   3.861   1.339  0.1347 -0.6131  0.8710
 1441TIP3    H225883   0.788   3.821   1.416 -0.4306 -0.4110  1.9006
 1442TIP3   OH225884   3.194   3.064   2.057  0.3523 -0.3199 -0.0772
 1442TIP3    H125885   3.209   3.007   2.133 -0.7342  1.1702  1.3073
 1442TIP3    H225886   3.278   3.108   2.043 -0.6157  3.1829  3.5768
 1443TIP3   OH225887   4.184   5.033   7.479 -0.2193  0.8138  0.1556
 1443TIP3    H125888   4.265   5.083   7.486  2.5339 -3.3390  2.2883
 1443TIP3    H225889   4.172   4.993   7.565 -1.8019 -2.4151 -1.3606
 1444TIP3   OH225890   0.600   0.353   6.426  0.1284  0.5896  0.1865
 1444TIP3    H125891   0.604   0.268   6.382 -0.3546 -0.7247  2.5409
 1444TIP3    H225892   0.562   0.334   6.512 -0.5556  3.3027  0.5627
 1445TIP3   OH225893   5.177   6.291   0.594  0.3620  0.6537 -0.7644
 1445TIP3    H125894   5.228   6.235   0.653  0.2479  1.5889  0.2445
 1445TIP3    H225895   5.116   6.231   0.551  1.0641 -0.1894 -0.6183
 1446TIP3   OH225896   5.668   1.363   1.816 -0.1921  0.8870  0.0154
 1446TIP3    H125897   5.669   1.356   1.911  2.0475 -1.1372 -0.0320
 1446TIP3    H225898   5.736   1.428   1.796 -0.8418  1.5032 -0.2053
 1447TIP3   OH225899   6.765   6.388   0.197  0.1069 -0.1809  0.0100
 1447TIP3    H125900   6.670   6.398   0.189 -0.0085 -0.2843  1.0818
 1447TIP3    H225901   6.797   6.476   0.216  0.3889  0.0896 -1.5943
 1448TIP3   OH225902   1.895   6.113   7.473 -0.4230 -0.2299  0.7290
 1448TIP3    H125903   1.848   6.035   7.501 -0.1464 -0.2380  1.1848
 1448TIP3    H225904   1.986   6.085   7.465 -0.3576 -0.0088  0.6804
 1449TIP3   OH225905   5.696   5.557   8.241 -0.9939 -0.0726 -0.9077
 1449TIP3    H125906   5.763   5.614   8.204 -0.8548 -1.6515 -3.2675
 1449TIP3    H225907   5.667   5.602   8.321  1.1044  1.8361 -1.1493
 1450TIP3   OH225908   1.306   5.135   1.436  0.2181  0.1546  0.1974
 1450TIP3    H125909   1.219   5.169   1.454  0.4676  0.3925  1.0179
 1450TIP3    H225910   1.294   5.041   1.423 -0.2223  0.2642 -0.2069
 1451TIP3   OH225911   5.968   3.428   7.042  0.6414  0.1843 -0.5811
 1451TIP3    H125912   6.008   3.468   7.119  1.2969  1.1403 -1.3886
 1451TIP3    H225913   5.876   3.452   7.047  0.7095  0.3722 -0.1861
 1452TIP3   OH225914   1.650   4.869   7.988 -0.3796 -0.0724  0.2922
 1452TIP3    H125915   1.673   4.894   7.899 -2.3046  0.3656 -0.1171
 1452TIP3    H225916   1.667   4.947   8.040 -1.1717  0.3397 -0.0518
 1453TIP3   OH225917   6.139   5.756   2.167  0.2953 -0.0549  0.7667
 1453TIP3    H125918   6.058   5.806   2.165  0.3968  0.2279  2.3620
 1453TIP3    H225919   6.208   5.821   2.154  0.3557 -0.0053  1.3318
 1454TIP3   OH225920   0.680   0.897   0.674 -0.5581  0.1828 -0.1875
 1454TIP3    H125921   0.667   0.973   0.730  0.4230  1.1055 -1.1671
 1454TIP3    H225922   0.774   0.879   0.679 -0.7653 -0.9282 -0.0247
 1455TIP3   OH225923   1.366   5.960   0.776  0.5166 -0.0193  0.1572
 1455TIP3    H125924   1.415   5.899   0.831 -1.6569  0.5283  2.9598
 1455TIP3    H225925   1.367   6.042   0.825  0.8993  1.4003 -2.0943
 1456TIP3   OH225926   1.797   4.562   0.318  0.7720  0.3696  0.3749
 1456TIP3    H125927   1.890   4.557   0.340  1.3168  0.5787 -1.6982
 1456TIP3    H225928   1.754   4.508   0.384  2.5730 -1.2653  0.3071
 1457TIP3   OH225929   6.344   1.620   7.589 -0.1066 -0.0276 -0.7683
 1457TIP3    H125930   6.396   1.633   7.510  2.1323  0.8981  0.7355
 1457TIP3    H225931   6.390   1.671   7.656  0.1717 -3.4455  1.9417
 1458TIP3   OH225932   2.927   5.495   0.625 -0.6750  0.6500 -0.5670
 1458TIP3    H125933   2.970   5.543   0.695 -0.4768 -0.0118 -0.2205
 1458TIP3    H225934   2.834   5.503   0.643 -0.6117  0.1715 -0.0070
 1459TIP3   OH225935   3.068   3.619   0.724 -0.7314 -0.1460  0.0168
 1459TIP3    H125936   3.130   3.661   0.664  0.2023 -2.2081 -0.5431
 1459TIP3    H225937   2.990   3.675   0.721  0.4559  1.5586 -0.6091
 1460TIP3   OH225938   3.000   0.998   1.410  0.1138 -0.0444 -0.7435
 1460TIP3    H125939   2.910   0.973   1.432  0.2208  1.2037  1.3193
 1460TIP3    H225940   3.051   0.918   1.423 -0.0656  0.2406  2.4686
 1461TIP3   OH225941   2.417   5.598   7.294 -0.3873 -0.5324 -0.4545
 1461TIP3    H125942   2.422   5.550   7.377 -2.4022  0.2621  0.1705
 1461TIP3    H225943   2.336   5.566   7.253  0.1381 -0.2823 -1.7270
 1462TIP3   OH225944   0.030   4.524   8.139 -0.0006  0.1165  0.0962
 1462TIP3    H125945  -0.032   4.507   8.210 -0.5995  1.3250 -0.1152
 1462TIP3    H225946  -0.009   4.595   8.089  0.3859 -0.7385 -1.4956
 1463TIP3   OH225947   0.617   4.502   0.789  0.2673  0.3667  0.1115
 1463TIP3    H125948   0.672   4.539   0.720  0.5133 -1.1329 -0.5262
 1463TIP3    H225949   0.674   4.501   0.866 -0.1720  2.5438  0.5542
 1464TIP3   OH225950   5.337   1.682   0.707 -0.4305  0.0444  0.1484
 1464TIP3    H125951   5.412   1.721   0.661 -1.0351  1.6086  0.4092
 1464TIP3    H225952   5.349   1.588   0.697  0.2202  0.3025 -1.9994
 1465TIP3   OH225953   0.057   4.423   7.240  0.3272  0.0076 -0.4899
 1465TIP3    H125954  -0.025   4.472   7.244  0.0537 -0.3926 -0.9572
 1465TIP3    H225955   0.112   4.460   7.309 -0.2961  0.1945 -0.0909
 1466TIP3   OH225956   4.069   1.969   0.802 -0.2815 -0.3738  0.1308
 1466TIP3    H125957   4.107   1.971   0.714  0.3847 -0.0616  0.4171
 1466TIP3    H225958   3.992   2.026   0.797  0.4864  0.6985  0.0684
 1467TIP3   OH225959   2.938   5.053   7.965  0.2240 -0.1209  0.3659
 1467TIP3    H125960   2.923   5.044   7.871  3.3636  0.7095 -0.3483
 1467TIP3    H225961   2.966   4.966   7.993  0.4051 -0.1041  0.2450
 1468TIP3   OH225962   6.628   0.477   8.647  0.2973 -0.2338  0.3402
 1468TIP3    H125963   6.627   0.548   8.712  2.1569 -0.4242  0.6085
 1468TIP3    H225964   6.572   0.409   8.685  0.2530  0.2124  1.0911
 1469TIP3   OH225965   4.740   6.474   0.546 -0.1997 -0.9897  0.2536
 1469TIP3    H125966   4.682   6.413   0.501 -0.8353  0.8004 -1.5456
 1469TIP3    H225967   4.822   6.426   0.557 -0.3116 -1.8565 -2.0660
 1470TIP3   OH225968   4.703   3.903   8.461 -0.5967 -0.4213 -0.5765
 1470TIP3    H125969   4.726   3.996   8.469  1.7374 -0.8725 -1.0588
 1470TIP3    H225970   4.730   3.865   8.544  1.6253 -1.1632 -1.5499
 1471TIP3   OH225971   6.412   0.455   1.635 -0.3840  0.2307 -0.4801
 1471TIP3    H125972   6.461   0.530   1.668 -0.4744  0.1893 -0.2499
 1471TIP3    H225973   6.320   0.480   1.646 -0.5216  1.4718 -3.4147
 1472TIP3   OH225974   1.143   2.581   1.950 -0.4774  0.2820  0.4040
 1472TIP3    H125975   1.063   2.528   1.944 -0.2948  0.1222 -0.9969
 1472TIP3    H225976   1.211   2.519   1.977 -0.2331 -0.2842 -1.3754
 1473TIP3   OH225977   1.706   5.138   7.367  0.0564  0.5976  0.1403
 1473TIP3    H125978   1.647   5.187   7.310 -0.7002  0.4969  0.8315
 1473TIP3    H225979   1.715   5.193   7.445 -1.2882 -0.6056  1.1994
 1474TIP3   OH225980   1.506   6.826   7.162 -0.3088 -0.2644  0.2737
 1474TIP3    H125981   1.496   6.914   7.196 -0.1883 -0.6286  1.2875
 1474TIP3    H225982   1.475   6.769   7.232  0.1212 -1.0447 -0.1508
 1475TIP3   OH225983   4.218   1.111   7.025  0.1818 -0.4742  0.3265
 1475TIP3    H125984   4.209   1.197   6.983  0.0361 -0.6782 -0.0609
 1475TIP3    H225985   4.311   1.105   7.045  0.3305 -0.5463 -0.3473
 1476TIP3   OH225986   0.918   6.572   8.540  0.3099  0.6200  0.4898
 1476TIP3    H125987   0.995   6.529   8.502  0.3747 -0.4300  1.7224
 1476TIP3    H225988   0.848   6.555   8.477 -0.1583 -3.1487  1.7787
 1477TIP3   OH225989   3.444   3.328   1.552  0.1682 -0.4333 -0.1134
 1477TIP3    H125990   3.430   3.417   1.521 -0.9387  0.3864  2.4465
 1477TIP3    H225991   3.533   3.328   1.587 -0.5147  0.3703  1.7740
 1478TIP3   OH225992   3.685   1.438   7.339  0.2680  0.1291  0.0223
 1478TIP3    H125993   3.754   1.384   7.377 -0.6305 -1.2841 -0.2930
 1478TIP3    H225994   3.690   1.420   7.245 -0.5116  0.0317 -0.0026
 1479TIP3   OH225995   0.098   5.385   6.970  0.4899  0.2700  0.2664
 1479TIP3    H125996   0.049   5.464   6.995 -0.4746 -0.4636  0.7633
 1479TIP3    H225997   0.182   5.394   7.014  1.1442  1.9061 -1.1655
 1480TIP3   OH225998   4.079   5.315   8.113 -0.8097  0.0531  0.4806
 1480TIP3    H125999   4.082   5.262   8.193 -0.8305 -1.0016 -0.2087
 1480TIP3    H226000   3.994   5.358   8.117 -1.1385 -0.5925  0.6559
 1481TIP3   OH226001   1.580   1.282   1.569 -0.2449 -0.3941 -0.1818
 1481TIP3    H126002   1.582   1.229   1.489 -3.1062 -1.9854  0.6764
 1481TIP3    H226003   1.616   1.224   1.637  0.0295  0.1095  0.1093
 1482TIP3   OH226004   0.525   2.302   1.550 -0.1379  0.3748  0.9745
 1482TIP3    H126005   0.522   2.206   1.556 -1.2715  0.2894 -0.4078
 1482TIP3    H226006   0.618   2.323   1.543  0.0895 -0.6758  0.6740
 1483TIP3   OH226007   0.231   0.644   2.561  0.2163  0.1395  0.0669
 1483TIP3    H126008   0.246   0.551   2.543 -0.4299 -0.3167  1.7233
 1483TIP3    H226009   0.145   0.662   2.524 -1.0416 -0.7549  2.3620
 1484TIP3   OH226010   3.690   6.154   6.637  0.1491  0.6302 -0.0572
 1484TIP3    H126011   3.772   6.105   6.648  0.4601  1.2490  0.4602
 1484TIP3    H226012   3.668   6.185   6.724 -0.3885  0.8719 -0.2729
 1485TIP3   OH226013   2.633   0.229   0.949  0.5668  0.1008 -0.2673
 1485TIP3    H126014   2.680   0.288   1.009  1.6310 -1.8975  0.9638
 1485TIP3    H226015   2.611   0.285   0.874  3.5515  1.5632 -0.2284
 1486TIP3   OH226016   2.142   3.240   1.629 -0.4393  0.0436 -0.4073
 1486TIP3    H126017   2.218   3.214   1.682  0.1510  2.5368  0.0750
 1486TIP3    H226018   2.066   3.219   1.683  0.0932  1.0550  0.7790
 1487TIP3   OH226019   4.911   4.221   8.514  0.0586  0.5012  0.7334
 1487TIP3    H126020   4.885   4.310   8.539  1.4282  1.4237 -0.8477
 1487TIP3    H226021   4.905   4.222   8.418  0.1179 -1.1192  0.6984
 1488TIP3   OH226022   3.548   4.486   7.827  0.4460 -0.0726 -0.1286
 1488TIP3    H126023   3.551   4.395   7.800  2.5368 -0.6591  1.7601
 1488TIP3    H226024   3.571   4.484   7.920  0.0119  2.3431  0.0959
 1489TIP3   OH226025   2.986   4.921   6.793 -0.0067 -0.0712 -0.3614
 1489TIP3    H126026   2.930   4.876   6.857  0.9294 -0.3234  0.3047
 1489TIP3    H226027   2.957   4.887   6.708 -0.4596 -0.6571  0.0169
 1490TIP3   OH226028   1.741   2.024   1.344 -0.1459 -0.0645  0.4751
 1490TIP3    H126029   1.790   1.993   1.421 -0.4801 -1.0138  0.3280
 1490TIP3    H226030   1.793   2.097   1.310  0.0447  0.3210  1.5534
 1491TIP3   OH226031   5.872   1.098   1.345  0.2293 -0.1480 -0.0235
 1491TIP3    H126032   5.925   1.149   1.284  1.9913  0.4426  1.8581
 1491TIP3    H226033   5.848   1.161   1.414 -0.4847 -1.0855  0.6108
 1492TIP3   OH226034   2.991   0.533   1.224  0.4069  0.0625  0.0744
 1492TIP3    H126035   3.051   0.459   1.235 -0.2054 -0.6553 -1.2226
 1492TIP3    H226036   3.044   0.610   1.245  1.8457 -0.5346 -1.1588
 1493TIP3   OH226037   3.320   1.539   8.337  0.4990 -0.0619 -0.5292
 1493TIP3    H126038   3.298   1.561   8.428 -0.3394 -0.4268 -0.6350
 1493TIP3    H226039   3.281   1.453   8.323  0.4687  0.0730 -1.2966
 1494TIP3   OH226040   2.368   1.208   1.492  0.5384  0.4503  0.1244
 1494TIP3    H126041   2.464   1.203   1.487  0.5529  1.2466 -0.6044
 1494TIP3    H226042   2.348   1.300   1.478 -0.4250  0.0064 -1.7910
 1495TIP3   OH226043   0.912   4.858   8.658  0.1693  0.1786  0.0446
 1495TIP3    H126044   0.949   4.920   8.595 -2.2722 -0.7070 -2.4594
 1495TIP3    H226045   0.913   4.774   8.613 -3.9716 -0.0507  0.0169
 1496TIP3   OH226046   5.761   1.039   2.403 -0.2231 -0.2865 -0.1844
 1496TIP3    H126047   5.851   1.026   2.373 -0.0103  1.3098 -0.3295
 1496TIP3    H226048   5.714   0.962   2.371  0.9489 -0.8316 -0.6734
 1497TIP3   OH226049   6.661   5.334   0.866  0.0732  0.4426 -0.4022
 1497TIP3    H126050   6.715   5.270   0.913  1.2598  0.7039 -1.3418
 1497TIP3    H226051   6.676   5.416   0.913 -0.1810  0.3515 -0.1583
 1498TIP3   OH226052   0.311   4.971   7.660 -0.5466  0.4104 -0.1027
 1498TIP3    H126053   0.401   4.943   7.641 -0.9100 -2.6431  1.9560
 1498TIP3    H226054   0.272   4.982   7.573  1.3497  0.2071 -1.0564
 1499TIP3   OH226055   1.786   6.857   0.357  0.0162  0.4706 -0.4021
 1499TIP3    H126056   1.864   6.860   0.302  1.1497  2.1412  1.1714
 1499TIP3    H226057   1.764   6.764   0.362  1.2253  0.0663 -1.7663
 1500TIP3   OH226058   0.137   3.993   6.786  0.1069 -0.6731  0.2356
 1500TIP3    H126059   0.177   3.908   6.769  0.8948 -0.4915  1.0933
 1500TIP3    H226060   0.059   3.973   6.838  0.7026 -0.8449  1.0936
 1501TIP3   OH226061   4.109   2.936   0.556  0.2264  0.0438  0.1238
 1501TIP3    H126062   4.032   2.885   0.579  0.9301 -0.3341  1.8310
 1501TIP3    H226063   4.114   3.003   0.625  1.8363 -0.4366  0.5208
 1502TIP3   OH226064   3.497   3.834   7.707  0.2104 -0.0931  0.2705
 1502TIP3    H126065   3.418   3.872   7.744  0.4198 -0.2255  0.8601
 1502TIP3    H226066   3.533   3.779   7.777 -0.2376 -1.6216 -0.6303
 1503TIP3   OH226067   4.382   3.953   0.022  0.0558 -0.5916  0.0480
 1503TIP3    H126068   4.472   3.922   0.032  0.1926 -0.7429 -1.3833
 1503TIP3    H226069   4.342   3.890  -0.039 -1.0731 -0.6224  0.8039
 1504TIP3   OH226070   1.201   5.999   0.048  0.3166 -0.2210 -0.5067
 1504TIP3    H126071   1.230   6.043  -0.032  2.6677 -1.2550 -0.3116
 1504TIP3    H226072   1.206   5.906   0.027 -0.7576 -0.4742  0.3126
 1505TIP3   OH226073   3.080   5.935   8.441  0.1384  0.3745 -0.3991
 1505TIP3    H126074   3.075   5.846   8.408 -1.1454 -0.4227  1.7856
 1505TIP3    H226075   3.170   5.962   8.423  1.2945 -2.2240  0.9880
 1506TIP3   OH226076   0.499   6.029   7.488  0.4046  0.1869  0.0627
 1506TIP3    H126077   0.524   6.071   7.570  0.6948  1.3888 -0.6147
 1506TIP3    H226078   0.409   6.057   7.472  0.5934  0.5526 -0.3844
 1507TIP3   OH226079   3.030   5.539   1.557  0.1810  0.0169 -0.2276
 1507TIP3    H126080   3.019   5.523   1.650  1.8343 -2.1532 -0.3348
 1507TIP3    H226081   2.947   5.579   1.530 -1.3190 -1.5696  1.6945
 1508TIP3   OH226082   6.132   2.895   1.130 -0.3455  0.2720  0.0486
 1508TIP3    H126083   6.201   2.914   1.067 -1.7247 -1.5594 -2.1759
 1508TIP3    H226084   6.064   2.960   1.113 -0.2829  0.4253  0.3780
 1509TIP3   OH226085   5.123   1.355   0.536 -0.0156 -0.2442  0.3401
 1509TIP3    H126086   5.169   1.387   0.458  0.4187 -0.0739  0.6560
 1509TIP3    H226087   5.187   1.367   0.607 -0.8190  0.7466  0.9326
 1510TIP3   OH226088   1.775   1.980   7.923 -0.1573 -0.5280 -0.1172
 1510TIP3    H126089   1.693   1.931   7.922  0.5222 -1.8057  1.4600
 1510TIP3    H226090   1.841   1.915   7.949  1.1271  0.7744  0.0229
 1511TIP3   OH226091   1.633   6.280   7.163 -0.1205 -0.2411  0.1226
 1511TIP3    H126092   1.594   6.343   7.102 -1.1098  0.8109  1.7542
 1511TIP3    H226093   1.701   6.236   7.112 -0.1119  1.4144 -1.4020
 1512TIP3   OH226094   2.442   0.785   0.002  0.1179  0.5468 -0.0782
 1512TIP3    H126095   2.465   0.725  -0.068 -0.4641 -0.6380  0.7157
 1512TIP3    H226096   2.488   0.753   0.079 -0.5054  0.8804  0.4520
 1513TIP3   OH226097   2.847   3.502   7.113  0.5958 -0.4229 -0.4868
 1513TIP3    H126098   2.900   3.540   7.183 -0.5908 -0.0560  0.2456
 1513TIP3    H226099   2.881   3.542   7.033  1.5065 -0.3096 -0.0545
 1514TIP3   OH226100   4.427   4.434   0.324 -0.2748  0.4833 -0.0633
 1514TIP3    H126101   4.418   4.367   0.257 -0.5739 -0.2940  0.7365
 1514TIP3    H226102   4.408   4.516   0.279  0.1904  0.0529 -1.0773
 1515TIP3   OH226103   2.175   0.492   2.070 -0.0703  0.0326 -0.0715
 1515TIP3    H126104   2.122   0.500   2.150 -0.4981 -0.1286 -0.3369
 1515TIP3    H226105   2.161   0.575   2.024 -1.3452 -0.6144 -0.8967
 1516TIP3   OH226106   5.905   6.162   7.037  0.4910  0.4667  0.1140
 1516TIP3    H126107   5.889   6.255   7.052 -0.1947  0.1162  1.7692
 1516TIP3    H226108   5.820   6.126   7.012  0.8087  0.2999 -0.8061
 1517TIP3   OH226109   5.547   6.236   6.874 -0.4248 -0.3908 -0.3112
 1517TIP3    H126110   5.572   6.221   6.783 -1.3144  0.3737 -0.6983
 1517TIP3    H226111   5.599   6.173   6.924  1.5082  0.4505 -1.1626
 1518TIP3   OH226112   5.291   2.597   1.537 -1.0029 -0.1607 -0.5774
 1518TIP3    H126113   5.216   2.554   1.496 -1.3709 -0.5514  0.4763
 1518TIP3    H226114   5.253   2.671   1.584 -0.7967 -0.5835  0.2778
 1519TIP3   OH226115   6.707   5.936   7.313  0.1064 -0.2185  0.0448
 1519TIP3    H126116   6.704   5.897   7.400  0.2004 -0.1514  0.0786
 1519TIP3    H226117   6.741   6.024   7.327 -2.9776  1.0324  0.3709
 1520TIP3   OH226118   1.129   6.123   2.498 -0.2574 -0.5153 -0.2353
 1520TIP3    H126119   1.180   6.169   2.565 -0.5050 -0.4125 -0.1126
 1520TIP3    H226120   1.193   6.070   2.451  0.0623  0.0986 -0.4996
 1521TIP3   OH226121   5.299   5.699   1.219  0.0974 -0.2658  0.5751
 1521TIP3    H126122   5.239   5.774   1.223  0.4023 -0.0375  0.8681
 1521TIP3    H226123   5.287   5.654   1.303  3.3619  2.1217  2.5676
 1522TIP3   OH226124   4.947   6.341   7.082 -0.1473 -0.1762  0.3063
 1522TIP3    H126125   4.907   6.364   6.998  0.1062  1.5663  0.6125
 1522TIP3    H226126   5.031   6.301   7.059 -0.3836 -0.3431 -0.2772
 1523TIP3   OH226127   0.418   5.938   7.028 -0.9196  0.4892 -0.2284
 1523TIP3    H126128   0.498   5.951   7.079  0.4281 -1.8989 -1.5362
 1523TIP3    H226129   0.376   6.024   7.027  1.1951  1.6370  1.1836
 1524TIP3   OH226130   1.343   1.424   6.435  0.3825 -0.3126  0.1969
 1524TIP3    H126131   1.359   1.507   6.390 -0.7342 -0.4984 -0.5609
 1524TIP3    H226132   1.289   1.374   6.375 -1.1236 -0.5871  1.7165
 1525TIP3   OH226133   6.600   1.406   7.807 -0.3366  0.9039  0.5986
 1525TIP3    H126134   6.505   1.420   7.809 -0.0970  3.1275 -0.7757
 1525TIP3    H226135   6.615   1.336   7.871 -2.9038  0.3469  0.6931
 1526TIP3   OH226136   6.742   3.955   6.521 -0.2977 -0.2221 -0.8745
 1526TIP3    H126137   6.733   4.030   6.462  4.2543  2.8293  1.5910
 1526TIP3    H226138   6.797   3.893   6.474 -0.3146  0.1270 -1.3590
 1527TIP3   OH226139   6.412   0.117   7.271 -0.1307 -0.5478  0.0615
 1527TIP3    H126140   6.365   0.053   7.325 -0.8448 -1.1825 -1.2602
 1527TIP3    H226141   6.364   0.118   7.188  0.9994  0.3242 -0.6104
 1528TIP3   OH226142   1.177   5.691   8.493  0.2268  0.4870  0.4480
 1528TIP3    H126143   1.121   5.766   8.513 -0.9626 -0.7574  2.0613
 1528TIP3    H226144   1.220   5.714   8.411 -2.5561  1.5627 -0.8223
 1529TIP3   OH226145   0.806   5.985   6.382  0.0830  0.0999 -0.1989
 1529TIP3    H126146   0.726   6.007   6.430 -0.4029  0.1669 -1.0107
 1529TIP3    H226147   0.873   6.042   6.419  0.4272 -1.7868  2.3497
 1530TIP3   OH226148   0.084   1.669   0.283 -0.1524  0.3994  0.0646
 1530TIP3    H126149   0.055   1.638   0.197 -1.7287  0.9566  0.3572
 1530TIP3    H226150   0.060   1.599   0.343 -2.0684  1.3383  0.4717
 1531TIP3   OH226151   5.136   1.401   8.251 -0.2368  0.0577  0.4069
 1531TIP3    H126152   5.102   1.419   8.163 -0.7492  1.1110  0.7914
 1531TIP3    H226153   5.228   1.427   8.247 -0.8832  2.7111  0.8584
 1532TIP3   OH226154   1.051   4.336   7.957 -0.4720 -0.9568  0.5218
 1532TIP3    H126155   1.106   4.386   7.898 -0.7840 -1.2672 -0.0369
 1532TIP3    H226156   0.994   4.284   7.900 -1.6150 -0.3534  1.0624
 1533TIP3   OH226157   2.572   1.366   1.286 -0.0923 -0.1806  0.0402
 1533TIP3    H126158   2.608   1.447   1.320 -0.0981 -0.3552  0.4627
 1533TIP3    H226159   2.649   1.309   1.275  0.1783  0.5059 -2.0457
 1534TIP3   OH226160   2.562   1.060   1.857  0.1687 -0.0008 -0.3713
 1534TIP3    H126161   2.532   1.118   1.927 -1.1676  2.4767 -2.8239
 1534TIP3    H226162   2.643   1.021   1.891 -0.5864  0.8167  2.6260
 1535TIP3   OH226163   1.142   1.111   2.040 -0.0497  0.5480  0.0408
 1535TIP3    H126164   1.067   1.168   2.021  0.1298  0.6915 -0.2330
 1535TIP3    H226165   1.186   1.099   1.956  0.0919  0.2561  0.1546
 1536TIP3   OH226166   2.093   3.370   1.216  0.2811 -0.0292 -0.8992
 1536TIP3    H126167   2.029   3.337   1.279 -0.7555  2.5161 -0.4928
 1536TIP3    H226168   2.148   3.294   1.195  0.6531 -1.0489  3.0087
 1537TIP3   OH226169   6.505   1.767   7.777 -0.5503  0.8852 -0.3115
 1537TIP3    H126170   6.585   1.792   7.729 -0.1923 -0.9044 -0.7334
 1537TIP3    H226171   6.530   1.771   7.869 -0.9590  3.4230 -0.2406
 1538TIP3   OH226172   2.096   2.524   8.633  0.0090 -0.3035 -0.1060
 1538TIP3    H126173   2.180   2.479   8.623 -0.5934 -1.7934  1.1941
 1538TIP3    H226174   2.115   2.596   8.692  0.1945 -1.2250  0.9877
 1539TIP3   OH226175   3.899   2.085   6.938  0.2129  0.3550  0.0248
 1539TIP3    H126176   3.886   2.066   6.845 -0.0105  0.4146  0.0416
 1539TIP3    H226177   3.811   2.080   6.975  0.4613 -0.8359  0.4609
 1540TIP3   OH226178   2.778   0.246   1.579  0.0879 -0.4613 -0.4492
 1540TIP3    H126179   2.829   0.311   1.629  0.2478 -0.7749 -0.2000
 1540TIP3    H226180   2.746   0.186   1.646 -0.4658 -0.3638 -0.6288
 1541TIP3   OH226181   2.688   5.600   6.986 -0.2450 -0.5217 -0.9881
 1541TIP3    H126182   2.669   5.690   7.011  2.1231  0.3298 -1.9540
 1541TIP3    H226183   2.712   5.556   7.068  3.7267  1.2244 -0.9926
 1542TIP3   OH226184   5.873   0.922   0.340 -0.2773  0.6435  0.3330
 1542TIP3    H126185   5.879   0.865   0.263 -2.3728  2.3027 -1.1688
 1542TIP3    H226186   5.803   0.885   0.393 -3.2683  2.8571 -1.7688
 1543TIP3   OH226187   5.892   3.911   1.419 -0.3876 -0.3449 -1.0220
 1543TIP3    H126188   5.888   4.006   1.420  1.5069 -0.2235  0.0849
 1543TIP3    H226189   5.893   3.888   1.326 -2.6333  0.5546 -1.3290
 1544TIP3   OH226190   3.870   0.203   0.192  0.7061  0.0811  0.2123
 1544TIP3    H126191   3.831   0.116   0.202  1.3953 -0.0825  1.6555
 1544TIP3    H226192   3.926   0.194   0.114 -2.2764  0.4361 -2.1641
 1545TIP3   OH226193   3.177   0.536   7.197  0.2316 -0.2027  0.0052
 1545TIP3    H126194   3.231   0.583   7.133  2.6136 -1.9231  0.5768
 1545TIP3    H226195   3.231   0.461   7.222 -2.5783 -2.1851  0.5415
 1546TIP3   OH226196   1.480   3.994   0.660  0.6006 -0.3565  0.0388
 1546TIP3    H126197   1.479   4.010   0.754  0.0078 -0.7900  0.1075
 1546TIP3    H226198   1.482   3.899   0.652 -2.7526 -0.4985 -0.3789
 1547TIP3   OH226199   6.536   1.675   7.403  0.4169  0.0675 -0.1798
 1547TIP3    H126200   6.625   1.673   7.439  0.1618  2.1768  0.7230
 1547TIP3    H226201   6.546   1.713   7.316  0.4910 -0.5980 -0.4680
 1548TIP3   OH226202   2.722   0.541   7.563 -0.6825 -0.0883 -0.0421
 1548TIP3    H126203   2.714   0.534   7.468  0.1200  0.8946 -0.2039
 1548TIP3    H226204   2.634   0.519   7.596 -0.6174 -1.7660 -0.8993
 1549TIP3   OH226205   1.026   2.272   7.754  0.2667  0.6250 -0.2108
 1549TIP3    H126206   1.049   2.339   7.819 -0.8494  0.0610  0.7944
 1549TIP3    H226207   1.027   2.190   7.802 -1.1134  0.2592 -0.7570
 1550TIP3   OH226208   2.819   6.195   2.377 -0.1475  0.3453 -0.3732
 1550TIP3    H126209   2.814   6.135   2.451 -1.1522  0.5674 -0.2526
 1550TIP3    H226210   2.912   6.218   2.371 -0.1268  0.7401  1.1486
 1551TIP3   OH226211   0.284   1.464   7.957 -0.0068  0.2766  0.5999
 1551TIP3    H126212   0.239   1.379   7.958  1.1233 -0.3439  1.2255
 1551TIP3    H226213   0.377   1.441   7.955  0.3118  1.5139 -2.0170
 1552TIP3   OH226214   2.485   3.967   6.423 -0.0562 -0.7963  0.3725
 1552TIP3    H126215   2.420   4.031   6.394  0.7468 -1.0853 -2.2961
 1552TIP3    H226216   2.565   4.019   6.434  0.1523 -1.0296 -0.0224
 1553TIP3   OH226217   4.251   6.083   7.079 -0.2739  0.4457  0.2310
 1553TIP3    H126218   4.207   6.142   7.018 -0.7915 -1.2871 -1.1718
 1553TIP3    H226219   4.316   6.038   7.025 -0.7091 -1.1094  0.9573
 1554TIP3   OH226220   3.928   2.480   0.399 -0.1822 -0.3484  0.4558
 1554TIP3    H126221   3.921   2.575   0.395  1.9399 -0.1331  0.6491
 1554TIP3    H226222   4.019   2.462   0.374 -0.2312 -2.2437  1.4789
 1555TIP3   OH226223   5.708   1.345   7.911 -0.1482 -0.1298  0.0865
 1555TIP3    H126224   5.797   1.348   7.874 -0.0944 -1.5303  0.0507
 1555TIP3    H226225   5.701   1.425   7.963  0.9870  0.2049 -0.2445
 1556TIP3   OH226226   5.749   0.336   0.157 -0.9004  0.1548 -0.3712
 1556TIP3    H126227   5.719   0.245   0.157  0.4839 -0.3557  1.3775
 1556TIP3    H226228   5.817   0.339   0.224  0.1094  2.1603 -1.3859
 1557TIP3   OH226229   3.463   6.016   6.834  0.6514  0.0102  0.0392
 1557TIP3    H126230   3.494   5.942   6.886  1.2999  0.1681 -0.1127
 1557TIP3    H226231   3.426   5.977   6.755  0.7030 -0.1680  0.1048
 1558TIP3   OH226232   2.724   2.481   8.420 -0.5570 -0.4810 -0.3867
 1558TIP3    H126233   2.810   2.516   8.397  0.3004 -2.7111 -0.8664
 1558TIP3    H226234   2.723   2.479   8.516 -1.8028  3.3614 -0.1469
 1559TIP3   OH226235   2.090   2.709   1.757 -0.2487  0.3702  0.1817
 1559TIP3    H126236   2.131   2.796   1.765 -1.6257  1.0653  0.0410
 1559TIP3    H226237   2.033   2.702   1.833 -1.0609  0.1131 -0.4293
 1560TIP3   OH226238   1.052   3.301   8.578 -0.1363  0.3827  0.3979
 1560TIP3    H126239   1.097   3.351   8.647  0.3897  0.0439  0.3054
 1560TIP3    H226240   1.113   3.230   8.556 -0.3947  0.3586 -0.2648
 1561TIP3   OH226241   2.933   4.859   6.541 -0.1977  0.8510  0.2235
 1561TIP3    H126242   2.844   4.823   6.542  1.1483 -2.9494 -1.0712
 1561TIP3    H226243   2.931   4.926   6.473 -1.2629 -1.9468 -2.7466
 1562TIP3   OH226244   0.743   0.802   8.390 -0.2710 -0.3335  0.6594
 1562TIP3    H126245   0.836   0.794   8.408  0.0158 -1.6427 -1.1059
 1562TIP3    H226246   0.738   0.816   8.295 -1.8473  0.4703  0.8259
 1563TIP3   OH226247   2.117   6.320   7.027  0.4263 -0.3405  0.3109
 1563TIP3    H126248   2.196   6.331   7.079 -0.6930  1.0372  1.8589
 1563TIP3    H226249   2.056   6.276   7.086 -0.1211 -0.9367 -0.6803
 1564TIP3   OH226250   4.375   1.709   1.952 -0.1407 -0.0489 -0.3877
 1564TIP3    H126251   4.281   1.708   1.972  0.0882 -0.6005  0.7366
 1564TIP3    H226252   4.415   1.756   2.025  0.5825 -0.9073 -0.2133
 1565TIP3   OH226253   6.543   2.268   1.275 -0.2661  0.2833 -0.0821
 1565TIP3    H126254   6.572   2.197   1.217 -2.1533 -0.0648 -0.6378
 1565TIP3    H226255   6.624   2.314   1.298  0.7534 -0.7877 -1.3747
 1566TIP3   OH226256   4.649   2.448   1.750  0.0972  0.1643  0.4803
 1566TIP3    H126257   4.730   2.441   1.800  0.4430 -1.2396 -0.2347
 1566TIP3    H226258   4.580   2.448   1.817  0.5730 -1.2063  1.0027
 1567TIP3   OH226259   1.434   1.452   0.102 -0.4014 -0.0548  0.4552
 1567TIP3    H126260   1.407   1.402   0.025  0.8898 -2.0082  1.1818
 1567TIP3    H226261   1.351   1.475   0.145 -1.0925  0.0409 -0.8735
 1568TIP3   OH226262   3.386   5.827   1.053 -0.4298  0.1866  0.0337
 1568TIP3    H126263   3.390   5.921   1.071 -0.2828  0.3160 -0.6240
 1568TIP3    H226264   3.423   5.819   0.965  2.7126 -0.8681  1.3388
 1569TIP3   OH226265   0.030   0.963   1.743  0.0320 -0.8373 -0.0368
 1569TIP3    H126266   0.006   0.953   1.651 -1.4150 -2.7389  0.4753
 1569TIP3    H226267  -0.006   1.048   1.768 -0.4120 -0.7267 -0.9935
 1570TIP3   OH226268   6.764   6.279   2.081  0.6095 -0.2583 -0.0113
 1570TIP3    H126269   6.823   6.298   2.009  1.1449 -0.5941  0.3284
 1570TIP3    H226270   6.817   6.292   2.160 -0.3081  1.3343  0.3882
 1571TIP3   OH226271   0.575   4.484   6.905 -0.5810 -0.1215  0.1128
 1571TIP3    H126272   0.520   4.418   6.948  0.2919 -0.6470  0.4379
 1571TIP3    H226273   0.624   4.525   6.976  1.3724 -1.4536 -0.3863
 1572TIP3   OH226274   4.582   2.968   6.898  0.3733 -0.1291 -0.3971
 1572TIP3    H126275   4.535   2.887   6.877 -0.3325  0.4135 -0.9923
 1572TIP3    H226276   4.528   3.010   6.965 -0.2419  0.6798 -1.3545
 1573TIP3   OH226277   1.625   6.359   0.898  0.1180 -0.0406  0.1006
 1573TIP3    H126278   1.601   6.266   0.899  2.2069 -0.9235 -4.4597
 1573TIP3    H226279   1.715   6.361   0.931  0.3597  0.2226 -0.5681
 1574TIP3   OH226280   6.341   0.444   0.550 -0.0029  0.0972  0.4761
 1574TIP3    H126281   6.265   0.395   0.518  0.2318  0.3735 -0.5519
 1574TIP3    H226282   6.306   0.528   0.579 -0.3392 -0.4663  1.7878
 1575TIP3   OH226283   4.733   5.718   1.242  0.1604  0.0514 -0.3974
 1575TIP3    H126284   4.683   5.728   1.324  0.2328 -1.0692 -0.1899
 1575TIP3    H226285   4.814   5.674   1.269  0.9467  1.1928 -0.8418
 1576TIP3   OH226286   6.823   0.839   0.841 -0.4991 -0.3559  0.4925
 1576TIP3    H126287   6.802   0.880   0.757 -0.2369  0.3381  0.7555
 1576TIP3    H226288   6.911   0.804   0.830 -0.5943 -0.5551  0.3710
 1577TIP3   OH226289   3.808   4.313   0.880  0.1645  0.2688 -0.3473
 1577TIP3    H126290   3.761   4.285   0.958 -0.2753 -0.4288 -0.8434
 1577TIP3    H226291   3.850   4.395   0.905 -1.0209  0.7285  0.2298
 1578TIP3   OH226292   5.709   4.882   7.539 -0.1114  0.0985  0.6936
 1578TIP3    H126293   5.656   4.804   7.529  1.5391 -1.0492  0.5335
 1578TIP3    H226294   5.717   4.894   7.634 -0.2291 -0.0174  0.7176
 1579TIP3   OH226295   5.542   4.215   6.568  0.0697 -0.0257  0.1340
 1579TIP3    H126296   5.547   4.156   6.493 -0.0042 -1.2179  1.0154
 1579TIP3    H226297   5.453   4.203   6.601  0.4739 -0.4586  1.1142
 1580TIP3   OH226298   6.097   2.892   1.846  0.7188 -0.0878  0.1643
 1580TIP3    H126299   6.167   2.912   1.907 -0.0180 -0.0764  1.0373
 1580TIP3    H226300   6.089   2.796   1.849  2.6592 -0.4382 -2.2140
 1581TIP3   OH226301   5.555   0.440   0.377 -0.6036 -0.3854  0.2303
 1581TIP3    H126302   5.612   0.416   0.305 -1.9500  0.1156 -1.0441
 1581TIP3    H226303   5.544   0.359   0.427 -0.5283 -1.0054 -0.7437
 1582TIP3   OH226304   6.729   2.635   7.309 -0.3385 -0.0810 -0.2413
 1582TIP3    H126305   6.798   2.612   7.371  0.5333 -0.8416 -1.4611
 1582TIP3    H226306   6.729   2.731   7.308  1.0120 -0.0674 -0.5554
 1583TIP3   OH226307   5.170   6.120   1.343  0.4535 -0.1918  0.3401
 1583TIP3    H126308   5.134   6.143   1.428  2.0138  0.8414  0.7677
 1583TIP3    H226309   5.259   6.091   1.361  1.2347  1.1998 -1.0030
 1584TIP3   OH226310   4.179   1.664   6.613 -0.4148  0.3845  0.8917
 1584TIP3    H126311   4.093   1.652   6.572 -0.1155 -1.1914  0.7006
 1584TIP3    H226312   4.168   1.629   6.702  0.1275 -0.1730  0.7431
 1585TIP3   OH226313   0.443   2.144   2.140 -0.1751  0.4723  0.2393
 1585TIP3    H126314   0.494   2.090   2.080  0.3319  1.5350 -0.3016
 1585TIP3    H226315   0.447   2.097   2.224  1.1864  0.2309  0.0610
 1586TIP3   OH226316   2.410   1.382   2.453  0.6732  0.2543  0.1577
 1586TIP3    H126317   2.461   1.440   2.396 -0.0555  0.4135 -0.3567
 1586TIP3    H226318   2.323   1.380   2.413  0.7870 -1.5325 -0.0884
 1587TIP3   OH226319   0.469   6.413   0.026  0.2776 -0.0309  0.1520
 1587TIP3    H126320   0.425   6.476  -0.031  0.2912  1.5812  1.8228
 1587TIP3    H226321   0.546   6.384  -0.024  0.6919  1.8672 -0.3857
 1588TIP3   OH226322   3.968   3.597   6.962  0.2274  0.4652 -0.0929
 1588TIP3    H126323   3.966   3.582   7.056 -1.0622  3.0899  0.3892
 1588TIP3    H226324   4.046   3.651   6.948  1.7490 -1.7949 -0.9644
 1589TIP3   OH226325   0.655   3.804   0.128 -0.1433  0.0757 -0.5317
 1589TIP3    H126326   0.642   3.779   0.037  0.3304  0.0969 -0.6087
 1589TIP3    H226327   0.567   3.821   0.162 -0.4878 -1.6730 -0.4688
 1590TIP3   OH226328   4.162   6.836   7.647  0.0777  0.0985 -0.1191
 1590TIP3    H126329   4.244   6.874   7.678 -0.9643  0.3020  2.6133
 1590TIP3    H226330   4.095   6.873   7.704 -1.8207 -0.7870 -1.6659
 1591TIP3   OH226331   1.803   5.208   0.138 -0.2776  0.3130  0.4889
 1591TIP3    H126332   1.721   5.239   0.177 -0.3878 -0.8903  1.2753
 1591TIP3    H226333   1.778   5.183   0.049 -0.5085  1.0292  0.3472
 1592TIP3   OH226334   2.436   5.504   0.008 -0.1497 -0.1891 -0.9277
 1592TIP3    H126335   2.493   5.552   0.068 -0.6332 -0.6629 -0.0619
 1592TIP3    H226336   2.414   5.567  -0.061  0.8058  0.2197 -0.8751
 1593TIP3   OH226337   1.558   2.243   0.622 -0.2410  0.5046  0.7099
 1593TIP3    H126338   1.593   2.213   0.538  0.7952 -0.4388  1.4439
 1593TIP3    H226339   1.491   2.178   0.644  0.6353 -0.2083  1.3671
 1594TIP3   OH226340   0.010   1.050   7.327  0.0767 -0.4779 -0.7358
 1594TIP3    H126341   0.059   1.091   7.255 -1.1532 -0.3097 -1.5103
 1594TIP3    H226342   0.060   1.072   7.406  1.1316 -0.1563 -1.4734
 1595TIP3   OH226343   5.741   1.037   8.600 -0.1089 -0.0087 -0.0324
 1595TIP3    H126344   5.665   1.076   8.642  0.9047  1.4145  0.5522
 1595TIP3    H226345   5.739   1.070   8.510 -0.0548  0.2085  0.0463
 1596TIP3   OH226346   6.068   1.682   8.141  0.2439 -0.6834 -0.2285
 1596TIP3    H126347   6.009   1.736   8.193 -1.8240 -1.1891 -1.8813
 1596TIP3    H226348   6.032   1.594   8.148 -0.3028 -0.7307 -2.6047
 1597TIP3   OH226349   1.801   4.284   7.844 -0.8399  0.2246  0.2852
 1597TIP3    H126350   1.751   4.208   7.876 -0.6747 -0.4366 -0.9631
 1597TIP3    H226351   1.892   4.262   7.860 -0.5863 -1.0196 -2.3062
 1598TIP3   OH226352   1.122   1.821   7.038  0.3177 -0.5459 -0.0268
 1598TIP3    H126353   1.133   1.847   7.129  0.9653  2.7350 -0.9117
 1598TIP3    H226354   1.123   1.903   6.989 -1.3324 -2.0617 -2.9073
 1599TIP3   OH226355   4.638   3.908   0.102  0.0211  0.0501  0.1607
 1599TIP3    H126356   4.724   3.948   0.093  0.2011 -0.4499 -0.4388
 1599TIP3    H226357   4.637   3.873   0.191  0.1990  0.5971  0.3814
 1600TIP3   OH226358   4.246   0.378   8.593 -0.0327 -0.3449 -0.4216
 1600TIP3    H126359   4.307   0.346   8.526 -0.8269  1.3948 -2.0796
 1600TIP3    H226360   4.224   0.301   8.645 -0.8847 -2.2655 -3.3671
 1601TIP3   OH226361   1.854   3.282   1.014  0.4899  0.3579 -0.0552
 1601TIP3    H126362   1.927   3.235   0.974 -0.2792  0.3806 -1.5281
 1601TIP3    H226363   1.863   3.371   0.982  0.1578  0.4988  0.2452
 1602TIP3   OH226364   2.073   3.540   7.705 -0.1409 -0.0804  0.1766
 1602TIP3    H126365   2.086   3.576   7.617 -0.5492  0.4250  0.3184
 1602TIP3    H226366   2.134   3.589   7.760 -0.5731  0.2834  0.3395
 1603TIP3   OH226367   2.831   4.754   7.910 -0.3333  0.2389  0.9320
 1603TIP3    H126368   2.759   4.808   7.879 -1.3986 -1.5856  0.0657
 1603TIP3    H226369   2.907   4.785   7.861 -1.2219 -0.0241 -0.6705
 1604TIP3   OH226370   2.299   6.658   0.539 -0.5284  0.5617  0.0250
 1604TIP3    H126371   2.241   6.649   0.464  0.6799 -0.3178 -0.8511
 1604TIP3    H226372   2.356   6.581   0.535 -0.1403  0.7241  1.5915
 1605TIP3   OH226373   1.755   1.232   1.084  0.6903 -0.1364  0.2795
 1605TIP3    H126374   1.817   1.160   1.096 -0.3524 -0.8674  1.5091
 1605TIP3    H226375   1.737   1.232   0.990  0.8832 -1.3393  0.2292
 1606TIP3   OH226376   2.507   2.631   8.166  0.1649 -0.1999 -0.2073
 1606TIP3    H126377   2.496   2.562   8.100  2.0101  0.0842 -0.8858
 1606TIP3    H226378   2.543   2.705   8.117  2.9861 -0.4519  1.2646
 1607TIP3   OH226379   4.987   2.682   6.946  0.7455 -0.0055  0.2330
 1607TIP3    H126380   4.937   2.713   6.871  1.9934 -2.1573 -1.6361
 1607TIP3    H226381   5.068   2.733   6.944  0.2288  0.8660  0.9692
 1608TIP3   OH226382   6.567   0.298   1.781 -0.3274 -0.7807 -0.0994
 1608TIP3    H126383   6.534   0.375   1.735 -1.5649 -0.8006  0.7020
 1608TIP3    H226384   6.595   0.331   1.867  1.9873 -0.7395 -0.7968
 1609TIP3   OH226385   1.620   1.567   7.256  0.9191  0.0971 -0.4865
 1609TIP3    H126386   1.570   1.540   7.179 -1.5032 -1.4476  1.4622
 1609TIP3    H226387   1.577   1.648   7.286 -1.2320 -1.7000  1.6998
 1610TIP3   OH226388   5.328   1.002   1.512  0.2002 -0.0989 -0.0989
 1610TIP3    H126389   5.262   1.070   1.502 -0.5492 -0.4459  1.9572
 1610TIP3    H226390   5.310   0.964   1.598  1.8543 -1.5459 -0.3382
 1611TIP3   OH226391   1.566   6.719   6.686  0.4353  0.3189  0.0723
 1611TIP3    H126392   1.649   6.765   6.698  1.0929 -0.3461 -1.6619
 1611TIP3    H226393   1.521   6.767   6.617 -0.3858  0.3309  0.5994
 1612TIP3   OH226394   4.360   4.010   0.279  0.1874 -0.3708  0.2326
 1612TIP3    H126395   4.355   3.983   0.187 -3.4722 -0.1623  0.2297
 1612TIP3    H226396   4.366   3.928   0.328  2.7047 -0.4695 -0.0889
 1613TIP3   OH226397   6.285   0.460   0.890  0.5886  0.6018  0.1588
 1613TIP3    H126398   6.274   0.378   0.842  3.1727  1.3440 -1.9216
 1613TIP3    H226399   6.203   0.471   0.938  0.2411 -3.2868  0.7373
 1614TIP3   OH226400   3.763   3.923   7.677  0.0540 -0.5900  0.3474
 1614TIP3    H126401   3.773   4.000   7.621  1.6831  1.2231  2.9280
 1614TIP3    H226402   3.669   3.920   7.696 -0.2987 -0.3781 -1.2392
 1615TIP3   OH226403   1.664   4.702   1.497 -0.3107 -0.4114  0.5985
 1615TIP3    H126404   1.754   4.673   1.510 -0.6328 -0.5685  2.9716
 1615TIP3    H226405   1.617   4.625   1.467  0.2671 -0.4055 -0.3465
 1616TIP3   OH226406   2.851   5.874   7.301 -0.9809  0.1464 -0.3138
 1616TIP3    H126407   2.876   5.783   7.319  0.5358  0.3373 -1.2985
 1616TIP3    H226408   2.763   5.867   7.263 -1.6277 -0.7415  1.2610
 1617TIP3   OH226409   5.859   1.546   1.767 -0.5029 -0.1134  0.2085
 1617TIP3    H126410   5.879   1.563   1.674 -0.0549  1.2572  0.5343
 1617TIP3    H226411   5.904   1.616   1.814 -0.0021 -1.3031  1.5438
 1618TIP3   OH226412   2.935   2.392   1.543 -0.2127  0.0099  0.0850
 1618TIP3    H126413   2.934   2.299   1.519  0.5487 -0.4940  1.8291
 1618TIP3    H226414   2.918   2.392   1.637  1.6029  1.4795  0.4722
 1619TIP3   OH226415   6.617   5.707   1.643 -0.2948 -0.1907 -0.0281
 1619TIP3    H126416   6.677   5.781   1.654  0.2643 -0.6538  0.0616
 1619TIP3    H226417   6.565   5.707   1.723  1.0244 -1.0737  0.8597
 1620TIP3   OH226418   2.052   0.464   0.681  0.1212 -1.0658  0.2342
 1620TIP3    H126419   2.086   0.506   0.602  0.3586 -0.8870  0.4318
 1620TIP3    H226420   2.104   0.384   0.689 -0.9466 -1.8798 -0.6578
 1621TIP3   OH226421   1.951   3.204   8.364 -0.1262 -0.1479 -0.1123
 1621TIP3    H126422   1.862   3.194   8.329 -0.7944  1.5329  0.9804
 1621TIP3    H226423   1.969   3.121   8.408 -1.6964 -0.0494  0.7781
 1622TIP3   OH226424   5.722   1.839   7.243  0.6115 -0.7381 -0.5097
 1622TIP3    H126425   5.696   1.896   7.171 -0.1502 -0.0185  0.3064
 1622TIP3    H226426   5.801   1.794   7.212  1.5123  1.1106 -1.0057
 1623TIP3   OH226427   4.357   3.066   7.359 -0.1512  0.0205  0.5197
 1623TIP3    H126428   4.292   2.996   7.351  0.7483 -0.9136  1.1785
 1623TIP3    H226429   4.439   3.026   7.332 -0.0843  1.6920 -2.0757
 1624TIP3   OH226430   6.590   4.050   1.658 -0.3819 -0.3045 -0.5232
 1624TIP3    H126431   6.559   4.140   1.655 -0.7115 -0.4250 -0.8974
 1624TIP3    H226432   6.510   3.998   1.669 -0.3875 -0.6534 -1.9781
 1625TIP3   OH226433   5.602   1.787   0.810 -0.1740 -0.1654  0.2315
 1625TIP3    H126434   5.697   1.781   0.823 -0.2640 -2.3895  0.2604
 1625TIP3    H226435   5.586   1.738   0.730 -1.2709  0.6850 -0.0939
 1626TIP3   OH226436   4.502   5.603   2.338 -0.5546 -0.0235 -0.1960
 1626TIP3    H126437   4.563   5.607   2.264 -2.1734  0.3868 -1.5652
 1626TIP3    H226438   4.488   5.510   2.353 -1.3239 -0.1139 -1.3822
 1627TIP3   OH226439   2.803   3.107   0.811  0.0838  0.3349  0.2735
 1627TIP3    H126440   2.769   3.049   0.879  1.3215  1.1576  1.6573
 1627TIP3    H226441   2.804   3.194   0.852 -1.9121  1.4744 -1.7954
 1628TIP3   OH226442   6.051   2.077   0.819  0.0423 -0.3257  0.0559
 1628TIP3    H126443   6.058   2.114   0.731  0.5312 -2.3920 -0.8207
 1628TIP3    H226444   6.137   2.093   0.858  0.3478 -0.8145 -0.4195
 1629TIP3   OH226445   5.766   3.892   1.658 -0.1477  0.1893  0.3900
 1629TIP3    H126446   5.681   3.895   1.614  0.6217  0.6752 -1.1339
 1629TIP3    H226447   5.830   3.894   1.587  1.1613 -1.9315  1.3978
 1630TIP3   OH226448   4.573   3.729   6.684 -0.1826 -0.2355  0.2800
 1630TIP3    H126449   4.499   3.757   6.629  0.2401  0.3115 -0.0324
 1630TIP3    H226450   4.549   3.643   6.716 -0.7324 -0.2810 -0.2415
 1631TIP3   OH226451   4.132   0.646   1.838  0.2438 -0.2542 -0.5139
 1631TIP3    H126452   4.055   0.702   1.823  1.1912  0.7880 -1.6604
 1631TIP3    H226453   4.140   0.642   1.933 -1.4562 -0.7109 -0.3560
 1632TIP3   OH226454   6.672   3.994   1.378  0.2253  0.0202  0.4585
 1632TIP3    H126455   6.706   3.921   1.429 -0.0529  1.0968  2.2825
 1632TIP3    H226456   6.744   4.018   1.320  0.1361 -1.9905 -0.5789
 1633TIP3   OH226457   3.945   2.760   1.989 -0.2655 -0.3040  0.0227
 1633TIP3    H126458   3.990   2.714   1.919  0.6349  2.7990 -1.6030
 1633TIP3    H226459   3.942   2.697   2.061  0.0107 -3.1488 -2.2737
 1634TIP3   OH226460   3.482   4.644   7.161  0.3113 -0.8261  0.4313
 1634TIP3    H126461   3.400   4.635   7.113 -0.8160  0.9870  1.8571
 1634TIP3    H226462   3.479   4.575   7.227  0.4574 -1.4481 -0.2082
 1635TIP3   OH226463   0.832   1.308   1.292 -0.1477  0.7971 -0.2455
 1635TIP3    H126464   0.915   1.288   1.249  0.5481 -1.3345  1.8948
 1635TIP3    H226465   0.852   1.382   1.350  0.1386  0.6107 -0.1045
 1636TIP3   OH226466   2.024   5.694   1.255 -0.2225  0.4343  0.6252
 1636TIP3    H126467   2.032   5.741   1.338 -0.2720  0.6835  0.4910
 1636TIP3    H226468   2.001   5.605   1.280 -3.4853  1.1986  0.8180
 1637TIP3   OH226469   5.332   0.949   7.185  0.1491  0.3179  0.6946
 1637TIP3    H126470   5.328   0.856   7.208  0.6561 -0.2384 -1.2422
 1637TIP3    H226471   5.241   0.977   7.184  0.0212 -0.0022  1.8065
 1638TIP3   OH226472   2.024   2.103   1.734  0.2717  0.4258  0.2090
 1638TIP3    H126473   2.075   2.171   1.690  0.9116 -0.1355  0.0730
 1638TIP3    H226474   2.027   2.127   1.827  0.5965  0.5219  0.1754
 1639TIP3   OH226475   1.502   2.148   7.309  0.0954 -0.2263  0.3486
 1639TIP3    H126476   1.577   2.208   7.307  0.2387 -0.4137  0.1262
 1639TIP3    H226477   1.478   2.136   7.217 -0.7008  0.4444  0.4492
 1640TIP3   OH226478   1.725   5.710   1.203 -0.0208  0.5888  0.0252
 1640TIP3    H126479   1.809   5.757   1.197 -0.7384  1.7291 -2.0250
 1640TIP3    H226480   1.698   5.722   1.294  1.9788  0.2459  0.7289
 1641TIP3   OH226481   4.009   0.887   1.250  0.0909  0.3291 -0.6270
 1641TIP3    H126482   4.063   0.955   1.292  0.6257  0.5689 -1.6868
 1641TIP3    H226483   3.930   0.934   1.222  0.2506  0.4195 -0.9317
 1642TIP3   OH226484   3.866   6.500   8.408  0.3050  0.2794 -0.2902
 1642TIP3    H126485   3.923   6.466   8.477 -0.2184 -0.4345 -0.2004
 1642TIP3    H226486   3.908   6.472   8.327 -0.3169 -0.9310 -0.2112
 1643TIP3   OH226487   2.533   2.831   1.808  0.5856 -0.1298 -0.8107
 1643TIP3    H126488   2.476   2.869   1.874  2.3304  0.4628  0.4100
 1643TIP3    H226489   2.610   2.887   1.806  0.2475  0.4531 -4.0469
 1644TIP3   OH226490   2.463   5.728   6.309  0.6720  1.0657 -0.5735
 1644TIP3    H126491   2.387   5.672   6.297  2.5197 -1.4388 -1.5558
 1644TIP3    H226492   2.503   5.697   6.391  0.0614  3.1611  0.5807
 1645TIP3   OH226493   4.874   1.505   8.273  0.4549  0.1642  0.0733
 1645TIP3    H126494   4.853   1.597   8.287  0.9586  0.3850 -0.5581
 1645TIP3    H226495   4.964   1.496   8.304  0.8449  0.1798 -1.0100
 1646TIP3   OH226496   4.220   6.470   8.634  0.0891  0.0347  0.8275
 1646TIP3    H126497   4.287   6.430   8.579  0.2452  1.3588 -0.0014
 1646TIP3    H226498   4.147   6.408   8.634 -0.3134  0.4189 -1.7143
 1647TIP3   OH226499   2.600   4.568   1.544 -0.3162  1.1010 -0.2476
 1647TIP3    H126500   2.538   4.497   1.557  0.6708  0.4536  1.1807
 1647TIP3    H226501   2.595   4.588   1.450  0.7901 -2.1883 -1.1353
 1648TIP3   OH226502   5.770   4.583   0.944 -0.3525 -0.5436  0.3515
 1648TIP3    H126503   5.749   4.677   0.940 -0.3516 -0.4247  2.2125
 1648TIP3    H226504   5.712   4.549   1.012  0.0628 -1.7728  0.1052
 1649TIP3   OH226505   6.858   0.178   7.083  0.0882  0.6244  0.1784
 1649TIP3    H126506   6.771   0.146   7.108 -0.8436  2.4067 -0.5751
 1649TIP3    H226507   6.917   0.139   7.147 -1.2392 -0.7627  0.6155
 1650TIP3   OH226508   3.713   5.741   0.839 -0.4112 -0.0055 -0.4300
 1650TIP3    H126509   3.627   5.776   0.816 -0.3557  0.3300 -0.1475
 1650TIP3    H226510   3.698   5.690   0.918 -0.4749 -0.5489 -0.7892
 1651TIP3   OH226511   4.433   2.489   6.401 -0.7870  0.4037  0.2565
 1651TIP3    H126512   4.447   2.522   6.490 -0.8358  2.0566 -0.3324
 1651TIP3    H226513   4.371   2.549   6.361  0.0743  0.3452 -1.2614
 1652TIP3   OH226514   3.523   0.469   2.140  0.3693 -0.3964  0.1197
 1652TIP3    H126515   3.575   0.393   2.113 -0.0890 -0.8687  0.5201
 1652TIP3    H226516   3.511   0.458   2.234  3.1869  2.0020  0.8932
 1653TIP3   OH226517   5.884   5.690   0.255 -0.2093 -0.4227 -0.0578
 1653TIP3    H126518   5.790   5.699   0.265 -0.2785  0.5509 -1.3174
 1653TIP3    H226519   5.896   5.648   0.170  0.4928 -0.8166  0.2245
 1654TIP3   OH226520   6.080   5.347   2.003  0.8371 -0.1893 -0.0325
 1654TIP3    H126521   6.104   5.265   2.046 -1.5542 -2.2888 -2.3479
 1654TIP3    H226522   6.035   5.320   1.923  0.5282  3.4344 -1.2756
 1655TIP3   OH226523   0.343   1.950   7.652  0.2791 -0.2784 -0.2682
 1655TIP3    H126524   0.394   1.918   7.577 -0.0164 -0.2495 -0.4825
 1655TIP3    H226525   0.296   2.026   7.617 -1.1127 -1.2200 -0.4943
 1656TIP3   OH226526   0.531   4.137   0.448 -0.1247  0.2990 -0.3743
 1656TIP3    H126527   0.532   4.200   0.376  0.1316  0.1357 -0.5155
 1656TIP3    H226528   0.568   4.185   0.523  1.0816 -0.0019 -0.7555
 1657TIP3   OH226529   4.501   1.561   8.264  0.0460 -0.1055 -0.1214
 1657TIP3    H126530   4.419   1.590   8.303  0.8742  0.7689  1.0617
 1657TIP3    H226531   4.556   1.537   8.338  0.5244 -1.6750 -0.9416
 1658TIP3   OH226532   1.985   5.924   7.146 -0.1893  0.3344 -0.0834
 1658TIP3    H126533   2.029   6.009   7.141 -1.7998  1.2831  0.7921
 1658TIP3    H226534   2.007   5.880   7.064  0.0881  1.9049 -0.8907
 1659TIP3   OH226535   2.915   4.045   7.043  0.1575 -0.2628 -0.3794
 1659TIP3    H126536   2.914   3.986   7.118  0.4156 -0.2179 -0.3406
 1659TIP3    H226537   2.828   4.085   7.043  0.0531 -0.4903 -0.2858
 1660TIP3   OH226538   4.861   1.948   7.737 -0.1808 -0.1585  0.2735
 1660TIP3    H126539   4.949   1.971   7.708 -0.2720 -2.0953 -1.8588
 1660TIP3    H226540   4.870   1.861   7.775 -0.9842  0.1863  1.3216
 1661TIP3   OH226541   1.828   5.729   8.268  0.0994  0.1109 -0.4101
 1661TIP3    H126542   1.898   5.783   8.303 -1.0768  0.5874  1.3668
 1661TIP3    H226543   1.769   5.790   8.224  0.3040 -0.1515 -1.0574
 1662TIP3   OH226544   1.329   6.047   6.609  0.3060  0.2211 -0.3927
 1662TIP3    H126545   1.336   6.107   6.683 -0.3977  0.0779 -0.1953
 1662TIP3    H226546   1.416   6.045   6.570  0.5961  0.5531  0.2337
 1663TIP3   OH226547   2.481   0.871   7.193  0.5396  0.1062  1.3374
 1663TIP3    H126548   2.506   0.958   7.160 -0.0084 -0.3366 -0.3210
 1663TIP3    H226549   2.543   0.811   7.152 -0.5298 -0.5303  0.6190
 1664TIP3   OH226550   1.703   1.139   0.792 -0.4722  0.1893  0.4637
 1664TIP3    H126551   1.701   1.234   0.806 -2.0369 -0.0676  2.4718
 1664TIP3    H226552   1.648   1.125   0.715  0.6507  0.9619 -0.5162
 1665TIP3   OH226553   3.564   4.090   0.727  0.3048  0.1297  0.7566
 1665TIP3    H126554   3.550   4.166   0.670  0.4760 -1.9295 -2.2482
 1665TIP3    H226555   3.646   4.051   0.695  0.8244 -0.7517  2.9748
 1666TIP3   OH226556   0.482   3.345   0.750  0.4569 -0.0665  0.9177
 1666TIP3    H126557   0.452   3.370   0.838 -0.1107 -0.2349  0.7700
 1666TIP3    H226558   0.517   3.256   0.761 -0.5236 -0.4745  0.7720
 1667TIP3   OH226559   6.160   3.772   0.742 -0.1065  0.6268  0.4440
 1667TIP3    H126560   6.251   3.750   0.723 -0.5417  0.2645 -1.3494
 1667TIP3    H226561   6.114   3.688   0.735 -1.3224  1.4534 -3.5717
 1668TIP3   OH226562   5.533   5.606   7.331 -0.5134 -0.2061 -0.7274
 1668TIP3    H126563   5.515   5.686   7.378 -0.8040 -0.6463 -0.0777
 1668TIP3    H226564   5.600   5.630   7.266  0.0309  0.3591  0.0342
 1669TIP3   OH226565   2.922   0.399   8.246  0.5065 -0.4846  0.5948
 1669TIP3    H126566   2.960   0.367   8.165  1.5678  1.9424  0.0495
 1669TIP3    H226567   2.839   0.352   8.254  0.5398 -1.0448 -1.6940
 1670TIP3   OH226568   4.661   5.674   7.507  0.3472  0.3069  0.0027
 1670TIP3    H126569   4.600   5.724   7.454  1.7022  0.2499 -1.6940
 1670TIP3    H226570   4.719   5.739   7.546  0.4920  0.2316 -0.0854
 1671TIP3   OH226571   1.970   3.019   7.613  0.5305  0.1637 -0.1422
 1671TIP3    H126572   1.994   3.100   7.658  1.6042 -1.4319  2.3870
 1671TIP3    H226573   1.973   2.952   7.681 -0.4770 -2.0103 -2.0967
 1672TIP3   OH226574   2.796   5.976   6.188  0.3541  0.3325  0.5340
 1672TIP3    H126575   2.771   5.983   6.280 -0.4113  1.3623  0.2609
 1672TIP3    H226576   2.803   5.882   6.173 -2.5842 -0.0260  0.8691
 1673TIP3   OH226577   4.788   0.661   2.001 -0.2087 -0.5735 -0.3045
 1673TIP3    H126578   4.791   0.714   2.081  1.3007 -0.4806 -0.3919
 1673TIP3    H226579   4.717   0.699   1.949 -1.1230 -0.5513  0.9174
 1674TIP3   OH226580   0.390   2.470   8.116 -0.7778 -0.0659 -0.2767
 1674TIP3    H126581   0.372   2.378   8.099 -1.7099  0.2378 -0.9893
 1674TIP3    H226582   0.442   2.469   8.196  2.8190 -1.4809 -2.3687
 1675TIP3   OH226583   5.476   1.187   0.742 -0.6186 -0.3444  0.4498
 1675TIP3    H126584   5.413   1.116   0.758 -1.6817  0.8929  2.2875
 1675TIP3    H226585   5.558   1.143   0.721 -1.5966 -2.0759  0.0940
 1676TIP3   OH226586   3.245   4.432   1.822  0.4976 -0.1747 -0.2486
 1676TIP3    H126587   3.291   4.503   1.868  1.3067 -1.3711  0.8951
 1676TIP3    H226588   3.314   4.368   1.804 -0.0215 -0.2435 -2.2059
 1677TIP3   OH226589   5.230   6.090   0.783  0.5005 -0.9280  0.0247
 1677TIP3    H126590   5.164   6.049   0.838  0.1895  0.3348  0.6369
 1677TIP3    H226591   5.264   6.162   0.835  0.6259 -0.0651 -1.1938
 1678TIP3   OH226592   6.420   3.650   0.121 -0.6291  0.4332 -0.2539
 1678TIP3    H126593   6.394   3.611   0.038 -0.5591 -0.8876  0.3163
 1678TIP3    H226594   6.454   3.577   0.173  2.6572  1.7469 -0.3192
 1679TIP3   OH226595   4.665   1.767   2.459 -0.1038 -0.4141 -0.6383
 1679TIP3    H126596   4.683   1.780   2.366  2.2424  2.0800  0.0127
 1679TIP3    H226597   4.622   1.848   2.486  1.0724 -0.2088  0.7671
 1680TIP3   OH226598   0.002   3.670   8.051  0.2745  0.2373  0.4777
 1680TIP3    H126599   0.058   3.627   7.987  0.4131  0.9976  0.0766
 1680TIP3    H226600   0.002   3.611   8.126  0.4043 -0.4898 -0.0778
 1681TIP3   OH226601   4.059   3.496   0.662 -0.0698 -0.0594  0.1409
 1681TIP3    H126602   4.052   3.540   0.747 -0.8831  0.4707 -0.1915
 1681TIP3    H226603   4.093   3.563   0.603 -3.6844  1.0360 -0.9714
 1682TIP3   OH226604   6.301   6.520   7.440 -0.0066 -0.3747  0.3202
 1682TIP3    H126605   6.302   6.511   7.345  1.8049  0.1898  0.2318
 1682TIP3    H226606   6.322   6.433   7.473  0.1509 -0.3979  0.1605
 1683TIP3   OH226607   3.387   2.605   2.001  0.5743 -1.0026  0.4384
 1683TIP3    H126608   3.353   2.591   2.089  1.0213 -1.2003  0.5843
 1683TIP3    H226609   3.354   2.530   1.950  1.1034 -1.3991  0.6720
 1684TIP3   OH226610   6.685   5.729   6.597  0.0744  0.3965  0.7370
 1684TIP3    H126611   6.616   5.708   6.659  0.7046  1.4476  1.8542
 1684TIP3    H226612   6.755   5.667   6.616 -0.4660 -0.5652 -0.2884
 1685TIP3   OH226613   3.569   2.281   0.826 -0.9170  0.3837 -0.3387
 1685TIP3    H126614   3.566   2.240   0.912  1.5005  1.2445  0.2244
 1685TIP3    H226615   3.504   2.352   0.831  0.1781  1.3173  1.3017
 1686TIP3   OH226616   1.495   5.591   7.256  0.0722 -0.2571  0.3085
 1686TIP3    H126617   1.470   5.633   7.174  1.3423 -1.2343 -0.6302
 1686TIP3    H226618   1.413   5.575   7.302 -0.5975  1.0850 -0.3663
 1687TIP3   OH226619   2.878   5.322   6.801 -0.1854 -1.0023  0.0738
 1687TIP3    H126620   2.833   5.245   6.765 -1.2971 -1.8285  2.9039
 1687TIP3    H226621   2.955   5.286   6.845  1.0249 -0.0691 -1.2059
 1688TIP3   OH226622   3.130   5.920   7.565  0.0485 -0.4694  0.6272
 1688TIP3    H126623   3.208   5.899   7.616  0.7680 -1.4316 -0.7813
 1688TIP3    H226624   3.157   5.991   7.507  0.4831 -1.9528 -1.0924
 1689TIP3   OH226625   3.651   3.303   0.320 -0.2669 -0.4777 -0.1744
 1689TIP3    H126626   3.642   3.397   0.303  0.1891 -0.5319 -0.7518
 1689TIP3    H226627   3.743   3.291   0.341  0.0151 -1.0111 -1.6091
 1690TIP3   OH226628   4.557   2.100   1.815  0.1354 -0.1041  0.3411
 1690TIP3    H126629   4.482   2.041   1.814  0.0098 -0.1239  3.0720
 1690TIP3    H226630   4.564   2.128   1.906  2.5497  1.0709 -0.1278
 1691TIP3   OH226631   2.899   4.543   0.620 -0.0313  0.0753  0.2367
 1691TIP3    H126632   2.831   4.606   0.643 -1.2086 -0.9611 -0.3000
 1691TIP3    H226633   2.922   4.502   0.703  1.2459  1.6453  0.7076
 1692TIP3   OH226634   4.063   0.143   7.443  0.3838  0.7050  0.1161
 1692TIP3    H126635   4.098   0.226   7.479  0.4620  0.5102  0.4954
 1692TIP3    H226636   4.117   0.075   7.484  1.7878  0.5518 -1.8421
 1693TIP3   OH226637   6.439   5.829   1.821  0.2482  0.2268 -0.5812
 1693TIP3    H126638   6.429   5.920   1.847 -1.0743  0.2018 -0.9074
 1693TIP3    H226639   6.434   5.779   1.903  0.3588  0.4092 -0.4645
 1694TIP3   OH226640   4.116   6.161   1.913  0.0864 -0.1526  0.0991
 1694TIP3    H126641   4.179   6.089   1.909  0.5428  0.2264  0.3010
 1694TIP3    H226642   4.167   6.235   1.947 -0.8510 -0.2639  1.8605
 1695TIP3   OH226643   1.000   6.848   0.760 -0.4307 -0.2394 -0.1718
 1695TIP3    H126644   0.948   6.860   0.680 -0.4917 -2.9521 -0.6244
 1695TIP3    H226645   1.057   6.925   0.763 -2.3486  1.3137 -1.2849
 1696TIP3   OH226646   5.670   3.907   7.477 -0.1359  0.2029 -0.3140
 1696TIP3    H126647   5.632   3.946   7.556 -0.8472 -0.1870 -0.4636
 1696TIP3    H226648   5.634   3.958   7.405  0.7778  0.7779 -0.3806
 1697TIP3   OH226649   6.826   0.512   0.987  0.2727  0.3217  0.4417
 1697TIP3    H126650   6.804   0.588   0.933  0.6980  1.3095  1.5944
 1697TIP3    H226651   6.771   0.521   1.065  1.4799  0.3615  1.3206
 1698TIP3   OH226652   3.728   5.464   7.907  0.6718  0.0364  0.1828
 1698TIP3    H126653   3.686   5.503   7.831  0.9923 -0.0970 -0.0636
 1698TIP3    H226654   3.818   5.449   7.880  1.3928  2.0478  1.3208
 1699TIP3   OH226655   5.671   5.583   2.254 -0.1686  0.1286  0.3757
 1699TIP3    H126656   5.657   5.583   2.349  0.1954 -3.0695  0.5501
 1699TIP3    H226657   5.596   5.535   2.219 -0.3088  1.2849 -0.9747
 1700TIP3   OH226658   4.465   3.392   2.288 -0.4830  0.3154  0.5548
 1700TIP3    H126659   4.430   3.477   2.312 -1.0162  0.5249 -0.8549
 1700TIP3    H226660   4.394   3.350   2.238  0.7243  0.1629 -1.1043
 1701TIP3   OH226661   0.217   3.132   8.274 -0.6163 -0.1601 -0.0640
 1701TIP3    H126662   0.191   3.149   8.183  1.0625  1.3018 -0.3152
 1701TIP3    H226663   0.190   3.041   8.289  0.4105 -0.9748 -2.5565
 1702TIP3   OH226664   4.209   3.759   0.757  0.5621  0.8580 -0.5348
 1702TIP3    H126665   4.174   3.846   0.741 -0.2034  0.7202  0.3041
 1702TIP3    H226666   4.202   3.748   0.852  1.7105  0.3241 -0.4977
 1703TIP3   OH226667   0.889   0.684   1.868 -0.8002 -0.2812 -0.4414
 1703TIP3    H126668   0.948   0.736   1.814 -0.3220  0.0356  0.3740
 1703TIP3    H226669   0.884   0.730   1.951  1.0779 -2.4147  0.9813
 1704TIP3   OH226670   1.902   5.707   0.433  0.4715  0.1233 -0.3278
 1704TIP3    H126671   1.838   5.699   0.504  0.9515 -0.5777  0.0436
 1704TIP3    H226672   1.986   5.686   0.474  0.9386  0.9965 -0.8185
 1705TIP3   OH226673   5.864   4.437   0.615  0.1108  0.2886  0.4589
 1705TIP3    H126674   5.820   4.520   0.632  1.0628  0.6450  1.2734
 1705TIP3    H226675   5.954   4.461   0.593  0.3025 -0.5085  0.3101
 1706TIP3   OH226676   3.189   3.463   8.603 -0.2620 -0.0104  0.0193
 1706TIP3    H126677   3.158   3.399   8.667 -1.4382  2.3784  2.0187
 1706TIP3    H226678   3.284   3.448   8.598 -0.2150 -0.6313  1.9542
 1707TIP3   OH226679   3.786   1.164   0.974  0.3139  0.1868  0.3138
 1707TIP3    H126680   3.819   1.208   0.896  0.7764  2.7029  1.8132
 1707TIP3    H226681   3.834   1.204   1.046 -2.8777  0.9230  2.2443
 1708TIP3   OH226682   1.490   1.048   1.980  0.7587 -0.1052 -0.4720
 1708TIP3    H126683   1.413   1.084   1.936 -1.0023 -2.4269  0.4931
 1708TIP3    H226684   1.477   1.070   2.072  2.2855  1.0910 -0.4908
 1709TIP3   OH226685   4.944   2.765   7.225  0.0291 -0.0287 -0.8212
 1709TIP3    H126686   4.963   2.730   7.138  2.3132  1.5244 -1.0429
 1709TIP3    H226687   4.997   2.713   7.285 -1.8664 -1.3825 -0.2213
 1710TIP3   OH226688   0.191   3.252   7.262 -0.0929 -0.0188 -0.0195
 1710TIP3    H126689   0.246   3.215   7.193  1.4769  0.3410  0.9979
 1710TIP3    H226690   0.174   3.342   7.235 -0.9816 -0.3873 -0.7698
 1711TIP3   OH226691   1.235   1.893   7.308 -0.1491  0.5512 -0.0745
 1711TIP3    H126692   1.323   1.875   7.276  0.6953  0.7170  1.9924
 1711TIP3    H226693   1.209   1.973   7.263 -0.2470 -0.7428 -2.4800
 1712TIP3   OH226694   3.825   4.431   0.612  0.2419 -0.0657 -0.2743
 1712TIP3    H126695   3.915   4.420   0.584  0.3419 -0.6347  0.2254
 1712TIP3    H226696   3.815   4.369   0.685 -0.2205  0.7919  0.4159
 1713TIP3   OH226697   0.110   0.328   0.844  0.0557 -0.1518  0.1043
 1713TIP3    H126698   0.125   0.366   0.758 -1.1283 -1.8610 -0.9079
 1713TIP3    H226699   0.043   0.384   0.884  1.7511  1.6199  0.6616
 1714TIP3   OH226700   0.569   3.467   1.748  0.2066  0.0911 -0.2311
 1714TIP3    H126701   0.506   3.423   1.806 -0.3928 -0.3622 -1.2032
 1714TIP3    H226702   0.654   3.431   1.773  0.1614  0.9320  1.3131
 1715TIP3   OH226703   0.544   5.267   8.091 -0.4680  0.1697 -0.0741
 1715TIP3    H126704   0.519   5.208   8.020  0.2489  0.3420 -0.4743
 1715TIP3    H226705   0.626   5.231   8.125  0.2460  1.1974 -0.6535
 1716TIP3   OH226706   5.722   0.126   7.760 -0.4171  1.1162  0.1022
 1716TIP3    H126707   5.753   0.055   7.818 -1.0586  0.8592  0.1434
 1716TIP3    H226708   5.730   0.205   7.813  1.6779  1.3263 -0.4220
 1717TIP3   OH226709   1.303   2.563   0.911  0.1802  0.5218 -0.2954
 1717TIP3    H126710   1.302   2.554   0.815 -0.3811  0.5783 -0.3004
 1717TIP3    H226711   1.215   2.539   0.938  0.7785 -1.0167  0.3658
 1718TIP3   OH226712   2.166   5.540   6.873 -0.6677 -0.4457 -0.0589
 1718TIP3    H126713   2.115   5.514   6.796  0.4426  0.4837 -1.1430
 1718TIP3    H226714   2.118   5.614   6.910 -0.1234  0.4556 -1.1037
 1719TIP3   OH226715   2.286   1.441   0.490  0.2117 -0.7673  0.2038
 1719TIP3    H126716   2.206   1.492   0.501  0.6605  0.0460 -0.1773
 1719TIP3    H226717   2.269   1.358   0.536 -0.5872 -0.3343  0.7091
 1720TIP3   OH226718   2.611   4.156   0.316  0.0347 -0.0125 -0.0489
 1720TIP3    H126719   2.648   4.112   0.392  0.0678 -1.1966 -0.7263
 1720TIP3    H226720   2.646   4.108   0.241 -1.2289  0.1396 -0.7705
 1721TIP3   OH226721   1.859   1.922   0.412 -0.0178  0.0714 -0.4060
 1721TIP3    H126722   1.918   1.922   0.337  0.4234  0.3847 -0.0605
 1721TIP3    H226723   1.838   1.830   0.426  0.3565 -0.0385 -0.5616
 1722TIP3   OH226724   0.306   6.607   7.992 -0.1133  0.1224 -0.1718
 1722TIP3    H126725   0.352   6.549   8.053 -1.8513 -2.0325 -0.7660
 1722TIP3    H226726   0.355   6.599   7.910  0.2832  0.3661  0.0388
 1723TIP3   OH226727   0.361   1.732   8.044  0.1616 -0.6304  0.4775
 1723TIP3    H126728   0.380   1.734   8.138 -0.1169 -1.9428  0.5892
 1723TIP3    H226729   0.308   1.653   8.032 -0.4067 -0.1028 -0.6823
 1724TIP3   OH226730   4.108   0.906   2.018 -0.1868 -0.6372  0.3328
 1724TIP3    H126731   4.119   0.812   2.033  1.5765 -0.4882  0.1877
 1724TIP3    H226732   4.014   0.917   2.004 -0.3017 -2.5345 -0.7004
 1725TIP3   OH226733   3.564   3.117   1.333  0.0106  0.3733  0.1937
 1725TIP3    H126734   3.513   3.183   1.380 -0.6849 -0.2309  0.2957
 1725TIP3    H226735   3.655   3.139   1.352 -0.1014  2.4634 -1.3097
 1726TIP3   OH226736   0.378   1.781   0.451 -0.3327  0.2385 -0.7175
 1726TIP3    H126737   0.384   1.807   0.359  0.7922 -0.0348 -0.7266
 1726TIP3    H226738   0.430   1.847   0.498 -0.0481 -0.2174 -0.3937
 1727TIP3   OH226739   1.971   6.316   1.813  0.3228  0.2921  0.2201
 1727TIP3    H126740   2.066   6.304   1.823  0.4013  0.9224  0.2753
 1727TIP3    H226741   1.935   6.290   1.897  0.4158 -0.2135  0.1100
 1728TIP3   OH226742   3.786   3.777   1.573  0.3128 -0.4121 -0.4920
 1728TIP3    H126743   3.857   3.840   1.564 -0.3847  0.2872 -1.2726
 1728TIP3    H226744   3.801   3.737   1.659  0.6516  0.9818  0.1292
 1729TIP3   OH226745   4.935   3.226   6.819 -0.4126  0.0769  0.1920
 1729TIP3    H126746   4.927   3.294   6.885 -0.0438 -0.1746  0.5001
 1729TIP3    H226747   4.845   3.208   6.791 -0.7092 -0.7892  1.6163
 1730TIP3   OH226748   6.833   1.590   2.225  0.2441 -0.3785 -0.2418
 1730TIP3    H126749   6.742   1.579   2.195 -0.5230  0.5119  1.6153
 1730TIP3    H226750   6.828   1.656   2.293  2.3713 -0.0889 -0.2976
 1731TIP3   OH226751   6.635   5.433   6.891 -0.6380  0.4521 -0.0781
 1731TIP3    H126752   6.696   5.477   6.832  0.1848  1.2559  1.3183
 1731TIP3    H226753   6.633   5.343   6.861  0.1408  0.7366 -1.0206
 1732TIP3   OH226754   1.868   1.487   1.935 -0.6078  0.1197 -0.4074
 1732TIP3    H126755   1.860   1.496   1.840  0.5750  0.2568 -0.5045
 1732TIP3    H226756   1.779   1.465   1.964 -0.8663 -0.5366 -1.6138
 1733TIP3   OH226757   3.347   4.096   7.466 -0.3186  0.4436 -0.6805
 1733TIP3    H126758   3.366   4.059   7.552 -0.0357 -0.0328 -0.9453
 1733TIP3    H226759   3.379   4.186   7.471  0.1048  0.2818 -0.4367
 1734TIP3   OH226760   2.889   3.710   0.943  0.2664  0.0710  0.4413
 1734TIP3    H126761   2.876   3.698   1.037  1.5537  2.3320  0.9848
 1734TIP3    H226762   2.976   3.674   0.925  1.2612  2.1670  0.7580
 1735TIP3   OH226763   4.435   0.497   1.505 -0.5389 -0.2469 -0.3511
 1735TIP3    H126764   4.387   0.544   1.437  0.4086 -1.5923 -2.0333
 1735TIP3    H226765   4.379   0.502   1.582 -2.1464  0.4474 -1.5163
 1736TIP3   OH226766   6.808   2.786   0.185  0.2639  0.0526  0.4052
 1736TIP3    H126767   6.840   2.866   0.143 -0.0254 -0.5752 -1.0989
 1736TIP3    H226768   6.736   2.816   0.241 -1.4546  0.6591 -1.9426
 1737TIP3   OH226769   0.524   5.951   1.950 -0.2569 -0.3682  0.0505
 1737TIP3    H126770   0.612   5.985   1.935 -0.2389  0.2593  1.3619
 1737TIP3    H226771   0.526   5.922   2.042 -1.7200  0.6811  0.4469
 1738TIP3   OH226772   4.714   1.464   0.268  0.1842  0.0144 -0.5235
 1738TIP3    H126773   4.674   1.394   0.319 -0.4977 -0.4612 -1.6729
 1738TIP3    H226774   4.755   1.419   0.194  1.5132  0.6471 -0.2174
 1739TIP3   OH226775   3.983   0.040   7.828 -0.6041  0.1173 -0.1370
 1739TIP3    H126776   4.051   0.084   7.879 -0.0228 -0.8951  0.0023
 1739TIP3    H226777   3.941   0.110   7.778 -0.5162  0.9778  0.9745
 1740TIP3   OH226778   4.785   3.701   7.887 -0.1144 -0.7023  0.1771
 1740TIP3    H126779   4.746   3.656   7.811 -0.2794 -0.7962  0.3164
 1740TIP3    H226780   4.734   3.782   7.895 -0.4349 -0.9332  0.5005
 1741TIP3   OH226781   6.280   1.139   0.022  0.0946 -0.2872 -0.0945
 1741TIP3    H126782   6.228   1.152   0.101 -0.7310 -0.6558 -0.5668
 1741TIP3    H226783   6.221   1.164  -0.050  1.2454  1.2789 -0.5435
 1742TIP3   OH226784   6.650   4.171   6.706 -0.6911  0.0377 -0.3640
 1742TIP3    H126785   6.676   4.107   6.641  0.3681 -0.0374  0.1186
 1742TIP3    H226786   6.641   4.253   6.657 -2.2622 -0.4928 -1.0196
 1743TIP3   OH226787   5.964   5.196   1.805  0.0804 -0.4951  0.1624
 1743TIP3    H126788   5.974   5.158   1.718  0.1212 -1.6713  0.6598
 1743TIP3    H226789   5.967   5.121   1.865 -1.1930  0.1490  1.0946
 1744TIP3   OH226790   3.472   4.701   0.309 -0.9503 -0.2709  0.1717
 1744TIP3    H126791   3.518   4.785   0.300  0.4049 -1.0004  0.1331
 1744TIP3    H226792   3.418   4.695   0.230 -0.9855  0.5202  0.1284
 1745TIP3   OH226793   4.245   6.270   7.274  0.2425  0.0990  0.1602
 1745TIP3    H126794   4.289   6.346   7.236  1.7369  0.6237  2.7035
 1745TIP3    H226795   4.260   6.199   7.212  2.3637  0.9384 -0.3437
 1746TIP3   OH226796   3.783   5.732   1.186  0.2812  0.0211 -0.2139
 1746TIP3    H126797   3.742   5.669   1.128  0.2006 -0.1325  0.0076
 1746TIP3    H226798   3.870   5.695   1.205  0.5176  0.3356 -0.6677
 1747TIP3   OH226799   5.616   4.828   0.886  0.1009 -0.6534 -0.2851
 1747TIP3    H126800   5.544   4.884   0.917  0.3671 -0.5292  0.1071
 1747TIP3    H226801   5.629   4.856   0.795  1.4235  1.1981  0.4101
 1748TIP3   OH226802   3.065   2.981   7.581  0.3140  0.3774  0.4914
 1748TIP3    H126803   3.113   3.027   7.512 -0.3802 -0.7499 -0.8146
 1748TIP3    H226804   3.056   2.891   7.548  0.9285 -0.5054  2.5737
 1749TIP3   OH226805   6.721   0.743   8.124  0.6078 -0.3008  0.1483
 1749TIP3    H126806   6.774   0.680   8.172  0.0206 -2.3406 -1.6918
 1749TIP3    H226807   6.734   0.719   8.032 -1.6233  0.6547 -0.4816
 1750TIP3   OH226808   5.971   5.841   1.392 -0.5758  0.3414 -0.0563
 1750TIP3    H126809   5.886   5.831   1.434 -0.4919  0.2655  0.0946
 1750TIP3    H226810   6.033   5.849   1.465 -0.5082  0.8459 -0.1648
 1751TIP3   OH226811   4.992   0.553   1.283 -0.5828  0.2546  0.1229
 1751TIP3    H126812   5.004   0.518   1.371  0.5846  1.3606  0.4275
 1751TIP3    H226813   4.966   0.477   1.231  2.4979 -1.2970  0.6045
 1752TIP3   OH226814   0.282   4.385   1.466 -0.0179 -0.1317 -0.4609
 1752TIP3    H126815   0.247   4.370   1.378 -1.6512  1.9782 -0.2528
 1752TIP3    H226816   0.210   4.362   1.525 -0.1398  1.5908  0.1259
 1753TIP3   OH226817   3.254   5.135   8.494 -0.4861 -0.0812  0.5527
 1753TIP3    H126818   3.226   5.171   8.578 -0.2016  2.7527 -0.4830
 1753TIP3    H226819   3.182   5.154   8.434  0.4699  0.5072 -0.4568
 1754TIP3   OH226820   3.574   3.756   1.898  0.5552 -0.2586 -0.7787
 1754TIP3    H126821   3.576   3.661   1.909  0.3842 -0.1858 -0.0910
 1754TIP3    H226822   3.664   3.780   1.877  0.3222 -0.7387 -2.4611
 1755TIP3   OH226823   5.938   0.279   7.014 -0.4061 -0.0928  0.0486
 1755TIP3    H126824   5.952   0.286   6.919 -0.2271  2.0178  0.1883
 1755TIP3    H226825   5.865   0.338   7.032  0.3065  0.4175  1.3604
 1756TIP3   OH226826   0.715   5.727   1.949  0.6497 -0.0252 -0.3539
 1756TIP3    H126827   0.632   5.769   1.931  0.7369 -0.3261 -1.5405
 1756TIP3    H226828   0.705   5.688   2.036 -0.0253  0.9396  0.0073
 1757TIP3   OH226829   5.981   6.157   1.110 -0.1177 -0.2971 -0.1687
 1757TIP3    H126830   5.906   6.155   1.171 -0.6883  0.8386 -0.7993
 1757TIP3    H226831   6.033   6.080   1.134 -2.7264 -2.5756 -1.2820
 1758TIP3   OH226832   4.572   5.338   8.041 -0.2330 -0.0546  0.1936
 1758TIP3    H126833   4.487   5.378   8.057 -0.5267  1.1036 -3.4152
 1758TIP3    H226834   4.553   5.247   8.018 -0.2856 -0.2756  1.0774
 1759TIP3   OH226835   1.501   0.330   7.763  0.0886  0.2146 -0.1652
 1759TIP3    H126836   1.458   0.287   7.690 -0.0908  0.2966 -0.1123
 1759TIP3    H226837   1.571   0.271   7.790 -0.1970 -0.0733 -0.0505
 1760TIP3   OH226838   2.212   0.889   7.511  0.1258 -0.1774  0.1864
 1760TIP3    H126839   2.234   0.980   7.534 -0.5632  0.0881 -0.2015
 1760TIP3    H226840   2.297   0.844   7.512  0.3705  0.2816  1.1991
 1761TIP3   OH226841   5.515   3.832   7.012  0.1758 -0.3983  0.4150
 1761TIP3    H126842   5.510   3.738   7.029  0.3462 -0.2589  1.2812
 1761TIP3    H226843   5.600   3.844   6.969  0.2835 -0.6042  0.5661
 1762TIP3   OH226844   3.162   2.096   1.246 -0.4082 -0.9467 -0.4964
 1762TIP3    H126845   3.189   2.159   1.313  0.6057  0.0976 -1.8169
 1762TIP3    H226846   3.238   2.039   1.236  0.5876  0.5718 -2.5835
 1763TIP3   OH226847   6.001   3.439   1.259 -0.0053  0.0379  1.1371
 1763TIP3    H126848   6.072   3.408   1.315  0.6437 -0.5946  0.0110
 1763TIP3    H226849   6.020   3.532   1.246  1.0966 -0.2891  0.2103
 1764TIP3   OH226850   2.899   2.346   7.904 -0.4393 -0.1621 -0.0351
 1764TIP3    H126851   2.968   2.403   7.869  1.0043 -1.1616  1.0568
 1764TIP3    H226852   2.904   2.357   7.999 -1.3697 -0.7406  0.0955
 1765TIP3   OH226853   5.154   3.685   0.279 -0.0407  0.8099  0.1672
 1765TIP3    H126854   5.199   3.767   0.297 -1.2428  1.4000  0.6230
 1765TIP3    H226855   5.075   3.711   0.231 -1.1034  0.0757  1.4404
 1766TIP3   OH226856   5.605   1.618   0.594 -0.8322  0.3926  0.0341
 1766TIP3    H126857   5.697   1.592   0.594 -0.2427  1.9524 -3.4726
 1766TIP3    H226858   5.562   1.552   0.539 -1.4572  0.7209  0.1232
 1767TIP3   OH226859   4.161   1.993   1.788 -0.0443  0.0922 -0.7199
 1767TIP3    H126860   4.222   2.029   1.723  0.0761  0.5446 -0.3649
 1767TIP3    H226861   4.158   1.900   1.769  0.9577  0.0178 -0.5985
 1768TIP3   OH226862   0.786   4.647   7.044  0.7254 -0.2712  0.4830
 1768TIP3    H126863   0.742   4.715   7.095 -1.8076 -0.4310 -1.2842
 1768TIP3    H226864   0.843   4.603   7.107 -0.9833  0.5900  2.7815
 1769TIP3   OH226865   5.974   4.456   2.256  0.6250  0.0699  0.2710
 1769TIP3    H126866   6.032   4.396   2.304  0.5226 -0.1392  0.1364
 1769TIP3    H226867   6.010   4.543   2.272  0.1256  0.0852  1.3973
 1770TIP3   OH226868   6.806   1.772   8.392  0.6477 -0.5484  0.0213
 1770TIP3    H126869   6.876   1.815   8.442  0.2331 -0.7391  0.7771
 1770TIP3    H226870   6.727   1.821   8.416  0.5431 -0.2162 -0.9755
 1771TIP3   OH226871   1.980   1.844   1.045  0.5965  0.1234  0.3300
 1771TIP3    H126872   2.075   1.840   1.031  1.0342  2.6103  1.9189
 1771TIP3    H226873   1.952   1.923   0.999 -0.4914  0.0831  0.8942
 1772TIP3   OH226874   5.117   2.340   7.813  0.4704 -0.3782  0.0190
 1772TIP3    H126875   5.181   2.388   7.761  0.1819 -0.9030 -0.8652
 1772TIP3    H226876   5.162   2.319   7.895  0.4579  1.7412  0.6160
 1773TIP3   OH226877   6.427   1.047   0.954 -0.5570 -0.3155 -0.4834
 1773TIP3    H126878   6.491   1.094   1.007 -0.6496  1.0854 -1.5618
 1773TIP3    H226879   6.475   0.972   0.919 -0.0201 -0.2879  0.1798
 1774TIP3   OH226880   4.727   3.794   1.034 -0.1234  0.3308 -0.0967
 1774TIP3    H126881   4.792   3.794   0.963 -0.3310 -1.7384 -0.3351
 1774TIP3    H226882   4.642   3.801   0.989 -0.1713  1.1305  0.1000
 1775TIP3   OH226883   6.105   5.661   1.634 -0.0523  0.1510 -0.3535
 1775TIP3    H126884   6.022   5.615   1.620 -0.3196  0.6541 -0.4594
 1775TIP3    H226885   6.166   5.593   1.662 -0.0984 -0.4958 -1.7546
 1776TIP3   OH226886   6.279   0.164   8.443 -0.2723  0.2811 -0.1233
 1776TIP3    H126887   6.229   0.091   8.407 -2.5947  1.0487  1.3059
 1776TIP3    H226888   6.332   0.195   8.370 -1.0214 -1.3115 -1.4144
 1777TIP3   OH226889   0.508   2.024   1.597  0.1124 -0.1263 -0.1460
 1777TIP3    H126890   0.453   1.964   1.647  1.4500 -0.0885  1.4918
 1777TIP3    H226891   0.584   1.972   1.572  0.2744  0.3311 -0.6207
 1778TIP3   OH226892   6.045   4.334   0.923 -0.1948 -0.0736 -0.3232
 1778TIP3    H126893   5.976   4.269   0.940  0.7734 -0.9382  0.3912
 1778TIP3    H226894   6.123   4.282   0.903  0.2010  0.8972 -1.4327
 1779TIP3   OH226895   0.920   3.522   7.180 -0.1002  0.2110 -0.5003
 1779TIP3    H126896   0.884   3.611   7.175  1.5814  0.8495 -3.6510
 1779TIP3    H226897   0.896   3.482   7.096 -0.7983 -2.3813  0.8339
 1780TIP3   OH226898   0.275   6.202   1.802 -0.2034 -0.6711 -0.4671
 1780TIP3    H126899   0.230   6.137   1.749  1.3505 -1.0941 -1.3397
 1780TIP3    H226900   0.351   6.228   1.749 -0.7443  1.8331 -0.1195
 1781TIP3   OH226901   1.437   0.034   7.908 -0.4100 -0.5158 -0.4801
 1781TIP3    H126902   1.510   0.080   7.868  0.1129 -0.5112  0.4526
 1781TIP3    H226903   1.463  -0.058   7.909  0.0097 -0.4027  0.7018
 1782TIP3   OH226904   6.621   1.203   1.900 -0.2650  0.3921  0.5968
 1782TIP3    H126905   6.646   1.198   1.992 -0.0186  1.9373  0.6498
 1782TIP3    H226906   6.662   1.284   1.868 -0.8147  0.1855 -0.7227
 1783TIP3   OH226907   5.260   1.758   8.349 -0.5255  0.3647 -0.2563
 1783TIP3    H126908   5.209   1.728   8.273  0.8921  0.6446 -1.3678
 1783TIP3    H226909   5.255   1.685   8.411  0.6079 -1.1293 -1.7924
 1784TIP3   OH226910   0.646   3.695   0.822 -0.3045 -0.3284 -0.9969
 1784TIP3    H126911   0.563   3.742   0.824  1.1787  2.5443 -1.4477
 1784TIP3    H226912   0.705   3.753   0.775  2.8046 -0.6683  2.0625
 1785TIP3   OH226913   5.055   3.097   1.102 -0.0232 -0.4888 -0.6525
 1785TIP3    H126914   5.005   3.176   1.121 -0.4500 -1.0227  0.5231
 1785TIP3    H226915   5.083   3.065   1.188 -0.0263 -1.7189 -1.0981
 1786TIP3   OH226916   4.879   1.201   2.172  0.1142  0.0512  0.3541
 1786TIP3    H126917   4.811   1.143   2.137  0.3494  1.3201 -2.5364
 1786TIP3    H226918   4.961   1.152   2.161  0.2478  0.6159 -1.5549
 1787TIP3   OH226919   2.261   1.679   1.321 -0.5347  0.3326 -0.5419
 1787TIP3    H126920   2.179   1.656   1.277  0.7054  0.8096 -3.2763
 1787TIP3    H226921   2.265   1.775   1.317  0.5449  0.2715 -1.2326
 1788TIP3   OH226922   0.213   1.216   7.638  0.5163  0.1328 -0.6074
 1788TIP3    H126923   0.199   1.242   7.729  0.2764 -2.1773  0.0707
 1788TIP3    H226924   0.128   1.229   7.596  0.7546  1.6877 -0.6814
 1789TIP3   OH226925   0.931   5.209   6.180  0.0010 -0.7896  0.5528
 1789TIP3    H126926   0.978   5.252   6.108 -1.4354  2.0672  1.1709
 1789TIP3    H226927   0.884   5.137   6.138 -0.2302  0.3592 -1.2818
 1790TIP3   OH226928   2.527   5.323   1.499 -0.1496 -0.5814  0.0236
 1790TIP3    H126929   2.576   5.368   1.430  0.8763 -1.0949  0.3925
 1790TIP3    H226930   2.513   5.390   1.566  1.1081 -0.6946  0.4379
 1791TIP3   OH226931   0.517   3.467   7.029 -0.5835  0.5420  0.2985
 1791TIP3    H126932   0.550   3.391   6.980 -0.7943  2.4599 -3.0967
 1791TIP3    H226933   0.429   3.482   6.993 -0.7285  2.1061  1.2368
 1792TIP3   OH226934   4.338   4.021   8.214  0.5480 -0.4076 -0.2763
 1792TIP3    H126935   4.403   4.069   8.163 -0.1484  0.5549 -0.2786
 1792TIP3    H226936   4.280   3.982   8.149  0.4978 -0.3638 -0.2592
 1793TIP3   OH226937   4.436   5.427   1.081  0.2968 -1.0333 -0.3215
 1793TIP3    H126938   4.396   5.340   1.079 -0.8345 -0.6334  2.1011
 1793TIP3    H226939   4.523   5.414   1.118 -0.4827 -0.9855  1.6279
 1794TIP3   OH226940   0.540   2.474   6.825 -0.4138 -0.5022  0.5320
 1794TIP3    H126941   0.485   2.511   6.756  0.6928  1.2917  0.5469
 1794TIP3    H226942   0.504   2.387   6.840  0.5370 -1.8035 -3.6774
 1795TIP3   OH226943   4.683   6.362   1.658 -0.5735 -0.3765  0.1386
 1795TIP3    H126944   4.620   6.427   1.689 -0.5275 -0.3068  0.0873
 1795TIP3    H226945   4.680   6.369   1.562  1.3329  1.4143  0.1357
 1796TIP3   OH226946   2.484   1.098   8.011  0.2957 -0.1412 -1.1166
 1796TIP3    H126947   2.454   1.080   8.101  0.5148 -0.4963 -1.1086
 1796TIP3    H226948   2.404   1.114   7.962  0.2722  2.0466 -0.4545
 1797TIP3   OH226949   3.690   1.917   1.212  0.3320  0.1832 -0.1159
 1797TIP3    H126950   3.621   1.981   1.229  0.4106 -0.2933  2.4789
 1797TIP3    H226951   3.771   1.963   1.234  0.5994 -0.0518 -0.6132
 1798TIP3   OH226952   4.178   3.790   1.801  0.0586 -0.6362 -0.4211
 1798TIP3    H126953   4.262   3.835   1.808  0.3516 -0.9989 -1.4307
 1798TIP3    H226954   4.141   3.794   1.890  0.9190 -0.0618 -0.0751
 1799TIP3   OH226955   4.970   2.639   2.709 -0.6628  0.1236 -0.1359
 1799TIP3    H126956   5.009   2.710   2.761  0.5018  0.0645 -0.9008
 1799TIP3    H226957   5.045   2.588   2.678 -1.0605  1.5386 -3.8964
 1800TIP3   OH226958   6.471   3.327   0.586 -0.3772 -0.2751  0.7769
 1800TIP3    H126959   6.425   3.263   0.640 -1.8410 -0.9420 -1.1438
 1800TIP3    H226960   6.510   3.275   0.515 -1.2756  0.8528 -0.6127
 1801TIP3   OH226961   6.606   5.548   1.024 -0.0838  0.1273 -0.1203
 1801TIP3    H126962   6.512   5.533   1.032  0.1781 -1.9095 -0.2728
 1801TIP3    H226963   6.622   5.626   1.076 -1.6359 -0.3831  1.2169
 1802TIP3   OH226964   0.742   5.582   2.565 -0.1744  0.0816  0.0971
 1802TIP3    H126965   0.673   5.573   2.500  0.3627 -3.5599 -0.1815
 1802TIP3    H226966   0.695   5.587   2.649 -0.7891  1.6520 -0.3077
 1803TIP3   OH226967   5.262   5.109   0.333 -0.0176  0.4182 -0.2460
 1803TIP3    H126968   5.172   5.140   0.327  0.0795  1.4024  2.1578
 1803TIP3    H226969   5.316   5.186   0.310  0.1979  0.4056  0.1985
 1804TIP3   OH226970   1.524   0.340   8.075 -0.4551 -0.4270 -0.4118
 1804TIP3    H126971   1.518   0.416   8.018 -1.0846  0.2938  0.6009
 1804TIP3    H226972   1.439   0.298   8.069 -1.5674  1.2578  2.1543
 1805TIP3   OH226973   3.168   2.653   7.043  0.5436  0.0415  0.7262
 1805TIP3    H126974   3.113   2.695   6.977 -0.1314  0.5195  1.5743
 1805TIP3    H226975   3.248   2.628   6.996  0.0171  0.2503 -0.2915
 1806TIP3   OH226976   5.892   3.192   6.307 -0.6059 -0.3686  0.3474
 1806TIP3    H126977   5.807   3.236   6.306 -0.1686  0.5259 -1.1298
 1806TIP3    H226978   5.872   3.099   6.308 -1.8104 -0.3843 -4.0409
 1807TIP3   OH226979   5.430   5.695   1.705 -0.0919 -0.0775  0.2776
 1807TIP3    H126980   5.367   5.767   1.700 -1.1333 -0.9561  0.3391
 1807TIP3    H226981   5.486   5.717   1.780 -2.0613 -0.5833  1.9814
 1808TIP3   OH226982   4.241   5.672   7.895  0.4126  0.4077  0.4931
 1808TIP3    H126983   4.254   5.586   7.935 -0.7445 -0.6319 -1.2128
 1808TIP3    H226984   4.284   5.666   7.810 -0.4192  1.2083 -0.0016
 1809TIP3   OH226985   3.113   4.995   0.048 -0.4374  0.1853 -0.5091
 1809TIP3    H126986   3.036   5.016  -0.005 -0.0763  0.7409 -0.8197
 1809TIP3    H226987   3.157   5.078   0.062 -1.2020  0.2680  1.8006
 1810TIP3   OH226988   3.760   6.487   7.552  0.4668  0.3302  0.2069
 1810TIP3    H126989   3.764   6.391   7.547 -1.8996  0.2325 -1.3692
 1810TIP3    H226990   3.851   6.515   7.544  1.1686 -1.7582  0.2120
 1811TIP3   OH226991   6.770   4.327   1.191  0.5432  0.5143 -0.5337
 1811TIP3    H126992   6.697   4.290   1.242  1.5175 -0.4329  0.2189
 1811TIP3    H226993   6.812   4.251   1.152  2.2769  0.8263  0.6219
 1812TIP3   OH226994   2.320   2.519   2.281  0.0387 -0.8751 -0.4467
 1812TIP3    H126995   2.312   2.488   2.371  2.0970 -1.0994 -0.3058
 1812TIP3    H226996   2.320   2.615   2.289 -2.6088 -0.7721 -0.5458
 1813TIP3   OH226997   2.140   2.594   7.705 -0.3350 -0.1635  0.1471
 1813TIP3    H126998   2.134   2.687   7.728  1.9413 -0.1973  1.0952
 1813TIP3    H226999   2.210   2.590   7.640  1.2627 -1.4420  1.8460
 1814TIP3   OH227000   1.250   0.038   0.548 -0.4054 -0.7650  0.2359
 1814TIP3    H127001   1.236  -0.026   0.619 -0.0163  0.4239  1.4201
 1814TIP3    H227002   1.233   0.122   0.589  2.0768  0.1542 -0.4602
 1815TIP3   OH227003   1.894   0.724   7.757  1.0398  0.5514  0.1423
 1815TIP3    H127004   1.882   0.818   7.741  1.9863  0.7066  0.2852
 1815TIP3    H227005   1.821   0.700   7.814  0.7213  1.1752  0.0074
 1816TIP3   OH227006   3.449   4.338   7.570  0.0025  0.0307  0.2675
 1816TIP3    H127007   3.477   4.273   7.635 -0.6715  0.0780  0.6155
 1816TIP3    H227008   3.375   4.382   7.612  0.0717  0.6043 -0.2181
 1817TIP3   OH227009   5.765   4.320   7.096 -0.2697 -0.0422 -0.2167
 1817TIP3    H127010   5.748   4.229   7.072  2.4762 -0.2234 -1.8479
 1817TIP3    H227011   5.776   4.366   7.013 -0.1276  1.4871  0.6020
 1818TIP3   OH227012   5.706   2.115   1.234 -0.7838  0.1451 -1.1071
 1818TIP3    H127013   5.766   2.087   1.165 -2.2344 -1.0242 -1.9577
 1818TIP3    H227014   5.641   2.170   1.189 -0.3482  1.4770 -0.1904
 1819TIP3   OH227015   1.612   6.838   1.572 -0.3255  0.4625  0.2006
 1819TIP3    H127016   1.698   6.799   1.557 -0.7654 -0.2649 -0.5437
 1819TIP3    H227017   1.625   6.932   1.562  0.0976  0.2570 -1.4473
 1820TIP3   OH227018   2.583   5.618   0.235  0.0791 -0.3986  0.2288
 1820TIP3    H127019   2.521   5.578   0.296 -0.2968 -0.2126 -0.0204
 1820TIP3    H227020   2.648   5.661   0.290 -0.0376 -0.5654  0.4959
 1821TIP3   OH227021   6.151   6.697   7.605  0.4811  0.2781  0.2361
 1821TIP3    H127022   6.109   6.771   7.561 -0.7693 -0.8601 -0.5766
 1821TIP3    H227023   6.191   6.647   7.534 -0.4763 -0.9058  0.4787
 1822TIP3   OH227024   1.284   1.798   1.537  0.3149 -0.3462 -0.1567
 1822TIP3    H127025   1.247   1.808   1.449 -1.2674  0.8358  0.5859
 1822TIP3    H227026   1.347   1.727   1.529 -1.5900 -1.9671 -1.6845
 1823TIP3   OH227027   3.802   3.723   0.807 -0.1007  0.6332  0.2731
 1823TIP3    H127028   3.868   3.660   0.832  0.1013  0.1642 -1.3141
 1823TIP3    H227029   3.825   3.803   0.854  0.1400 -0.2211  1.6357
 1824TIP3   OH227030   6.559   1.525   8.082 -0.8787  0.0004  0.1484
 1824TIP3    H127031   6.623   1.481   8.137 -0.2718  0.3871 -0.2224
 1824TIP3    H227032   6.600   1.609   8.060 -1.5327  0.2755 -0.0669
 1825TIP3   OH227033   1.166   4.310   6.974 -0.1564  0.4155  0.0105
 1825TIP3    H127034   1.181   4.400   7.002  0.9488  0.3166 -0.2255
 1825TIP3    H227035   1.090   4.281   7.024 -0.7317  1.5801 -0.1490
 1826TIP3   OH227036   5.815   2.751   2.336 -0.1767  0.1776  0.1465
 1826TIP3    H127037   5.891   2.776   2.390 -0.8569  0.8430  0.8252
 1826TIP3    H227038   5.758   2.702   2.396  1.4523 -3.9476 -1.3196
 1827TIP3   OH227039   4.461   3.355   8.241 -0.0878 -0.2267  0.1371
 1827TIP3    H127040   4.549   3.392   8.253 -0.3921  0.3033  0.7963
 1827TIP3    H227041   4.461   3.276   8.296  0.9388 -1.9205 -2.1291
 1828TIP3   OH227042   5.535   3.988   7.248  0.1450  0.2228 -0.4730
 1828TIP3    H127043   5.525   3.968   7.155 -1.1022  2.5929 -0.9282
 1828TIP3    H227044   5.519   4.082   7.254 -0.0470  0.0929  2.1895
 1829TIP3   OH227045   2.632   2.137   7.565 -0.3754 -0.4703 -0.6576
 1829TIP3    H127046   2.559   2.140   7.503 -0.7219 -2.1050 -0.3673
 1829TIP3    H227047   2.602   2.081   7.636  0.5490  0.2120  0.3027
 1830TIP3   OH227048   3.216   1.052   6.947 -0.5389  0.3392  0.0052
 1830TIP3    H127049   3.226   1.103   6.867 -1.1889 -1.3483 -1.1988
 1830TIP3    H227050   3.125   1.066   6.973 -0.6549 -0.0516 -0.2002
 1831TIP3   OH227051   1.306   0.468   8.655  0.2977  0.2515  0.3811
 1831TIP3    H127052   1.325   0.397   8.717 -1.9743  2.0137  3.3896
 1831TIP3    H227053   1.234   0.435   8.602  1.0244 -0.6169 -0.0925
 1832TIP3   OH227054   6.326   6.830   0.639  0.2405 -0.2079 -0.2701
 1832TIP3    H127055   6.405   6.775   0.640  0.0448 -0.6249 -2.6405
 1832TIP3    H227056   6.254   6.768   0.649  0.1424  0.0309  0.5711
 1833TIP3   OH227057   0.263   4.628   1.571  0.1143  0.3467  0.0943
 1833TIP3    H127058   0.176   4.656   1.599  0.2895  1.1257 -0.1074
 1833TIP3    H227059   0.254   4.534   1.555 -1.1643  0.7067 -1.5934
 1834TIP3   OH227060   3.419   2.981   6.662 -0.1191 -0.0431 -0.2712
 1834TIP3    H127061   3.414   2.921   6.736  0.0587  0.9373  0.5624
 1834TIP3    H227062   3.374   2.935   6.591  1.3761 -1.8125 -0.1491
 1835TIP3   OH227063   2.392   0.780   6.429  0.4601 -0.5812 -0.0783
 1835TIP3    H127064   2.365   0.699   6.387 -0.2401 -0.1166 -0.5380
 1835TIP3    H227065   2.435   0.752   6.510 -0.3232 -1.3849  0.0633
 1836TIP3   OH227066   3.164   6.094   1.801 -0.4949  0.2014  0.2397
 1836TIP3    H127067   3.174   6.023   1.864  1.5670 -0.2732 -0.5543
 1836TIP3    H227068   3.193   6.057   1.718 -2.4178  1.0539 -0.8874
 1837TIP3   OH227069   4.272   5.576   2.020 -0.4312 -0.0495 -0.0911
 1837TIP3    H127070   4.319   5.502   2.057 -0.4930  0.2767  0.6506
 1837TIP3    H227071   4.198   5.590   2.078 -2.3052 -1.4303 -1.9898
 1838TIP3   OH227072   5.535   0.971   0.412 -0.2440  0.0216  0.4172
 1838TIP3    H127073   5.565   1.012   0.493  0.1733  0.4157  0.0678
 1838TIP3    H227074   5.439   0.968   0.420 -0.1546 -0.6932  1.2768
 1839TIP3   OH227075   6.437   2.412   0.885  0.2292 -0.0359  0.2143
 1839TIP3    H127076   6.453   2.457   0.968 -0.0224 -1.3212  0.9993
 1839TIP3    H227077   6.384   2.336   0.909  2.0583 -1.7378 -0.7311
 1840TIP3   OH227078   2.648   4.605   8.246  0.0468 -0.4505 -0.0806
 1840TIP3    H127079   2.596   4.686   8.252  0.4515 -0.0561 -1.4665
 1840TIP3    H227080   2.706   4.609   8.323  0.4666  0.8938 -0.4242
 1841TIP3   OH227081   5.172   0.446   1.865 -0.2938 -0.5011 -0.3429
 1841TIP3    H127082   5.231   0.518   1.888  0.4115 -0.5751 -1.8439
 1841TIP3    H227083   5.107   0.486   1.807 -0.9910 -0.7038  0.2743
 1842TIP3   OH227084   4.224   0.786   7.407  0.4393 -0.6368 -0.0217
 1842TIP3    H127085   4.238   0.878   7.431  1.2999 -0.9321  0.6372
 1842TIP3    H227086   4.241   0.784   7.313  0.6042 -0.1527 -0.0067
 1843TIP3   OH227087   1.087   1.377   7.523  0.0513 -0.6167  0.2288
 1843TIP3    H127088   1.139   1.370   7.603 -0.6380  1.0328  0.8494
 1843TIP3    H227089   1.068   1.286   7.499 -0.8803 -1.1365  2.6941
 1844TIP3   OH227090   3.336   1.517   1.850  0.5480  0.1019 -0.3589
 1844TIP3    H127091   3.282   1.496   1.773  0.9569 -0.3054 -0.5460
 1844TIP3    H227092   3.421   1.477   1.830  0.2270 -1.3311  0.9523
 1845TIP3   OH227093   3.148   2.605   1.332 -0.1941  0.4323 -0.0973
 1845TIP3    H127094   3.226   2.626   1.281  0.5425 -1.8573 -0.0159
 1845TIP3    H227095   3.106   2.533   1.284 -1.5556  0.7667  0.5456
 1846TIP3   OH227096   1.289   2.365   0.357  0.0716 -0.5073  0.3997
 1846TIP3    H127097   1.316   2.288   0.308  1.2605 -0.5395  1.0769
 1846TIP3    H227098   1.218   2.333   0.414 -0.1053 -0.8668 -0.0161
 1847TIP3   OH227099   2.737   4.079   6.446 -0.2741  0.4086  1.0236
 1847TIP3    H127100   2.777   4.006   6.492  0.2535  0.7664  1.1500
 1847TIP3    H227101   2.769   4.072   6.356 -1.6383 -0.5331  0.5875
 1848TIP3   OH227102   4.558   1.225   0.288  0.2993 -0.2878 -0.2158
 1848TIP3    H127103   4.548   1.266   0.202  1.2004  0.0251 -0.1824
 1848TIP3    H227104   4.506   1.145   0.283 -2.5396  1.4279  0.1432
 1849TIP3   OH227105   2.777   4.509   0.164 -0.8554  0.4121 -0.0966
 1849TIP3    H127106   2.838   4.519   0.237 -1.2789 -1.7826  0.6460
 1849TIP3    H227107   2.819   4.446   0.106 -1.9933 -0.4976  0.0167
 1850TIP3   OH227108   0.081   0.785   0.038 -0.0031  0.2782  0.2272
 1850TIP3    H127109   0.043   0.742  -0.038  1.3744 -1.3844  0.4360
 1850TIP3    H227110   0.174   0.763   0.036  1.0849  4.1399 -0.1993
 1851TIP3   OH227111   3.636   3.993   5.722  0.2383 -0.3192  0.5536
 1851TIP3    H127112   3.677   4.080   5.724  0.4374 -0.4212  1.7520
 1851TIP3    H227113   3.542   4.010   5.729  0.1361 -0.1453 -0.8802
 1852TIP3   OH227114   0.472   5.552   7.667 -0.3202 -0.5048  0.2483
 1852TIP3    H127115   0.432   5.538   7.581  0.3381  1.1349 -0.3456
 1852TIP3    H227116   0.402   5.530   7.729 -1.0601 -0.9222 -0.7110
 1853TIP3   OH227117   5.796   6.078   0.607  0.1023 -0.0602  0.0770
 1853TIP3    H127118   5.886   6.110   0.615 -0.1118  1.6424 -2.8320
 1853TIP3    H227119   5.749   6.119   0.680  0.8078  2.9504 -0.9900
 1854TIP3   OH227120   0.789   5.692   1.301  0.1577  0.0893  0.4651
 1854TIP3    H127121   0.798   5.600   1.324  0.2516 -0.2138 -0.7085
 1854TIP3    H227122   0.695   5.705   1.287 -0.1571  0.7422  2.7636
 1855TIP3   OH227123   0.545   5.115   7.314 -0.0657  0.8034 -0.3218
 1855TIP3    H127124   0.615   5.177   7.337 -1.0061  1.6604  0.3279
 1855TIP3    H227125   0.466   5.168   7.315 -0.8218 -0.3077 -0.3630
 1856TIP3   OH227126   2.027   4.433   0.393 -0.4682 -0.1469  0.0918
 1856TIP3    H127127   2.003   4.360   0.337 -0.8046  0.0024  0.0344
 1856TIP3    H227128   2.013   4.401   0.482 -1.4350  0.1158  0.0474
 1857TIP3   OH227129   0.529   0.128   0.010  0.5258  0.7020  0.2891
 1857TIP3    H127130   0.610   0.088   0.039 -0.4402 -1.1645  0.5549
 1857TIP3    H227131   0.556   0.197  -0.052  2.2414 -0.6946 -0.5806
 1858TIP3   OH227132   3.988   2.520   0.889 -0.8941 -0.3279 -0.8000
 1858TIP3    H127133   3.916   2.542   0.830 -1.5464 -1.0144 -0.2770
 1858TIP3    H227134   4.029   2.443   0.848 -2.6442 -2.1409  0.6375
 1859TIP3   OH227135   5.811   2.547   2.114  0.0503 -0.1906  0.1091
 1859TIP3    H127136   5.766   2.520   2.194  1.6272  0.9980  1.4477
 1859TIP3    H227137   5.904   2.543   2.135  0.4659  3.1897 -0.5568
 1860TIP3   OH227138   5.133   4.996   7.565 -0.4406 -0.1994 -0.0331
 1860TIP3    H127139   5.099   4.960   7.647 -1.4333  0.5932 -0.0685
 1860TIP3    H227140   5.227   5.002   7.579 -0.7247  1.2274  1.6164
 1861TIP3   OH227141   6.325   3.467   6.676 -0.0625  0.2310 -0.6359
 1861TIP3    H127142   6.368   3.389   6.639 -1.0305 -0.3093 -0.6403
 1861TIP3    H227143   6.316   3.526   6.602 -0.6617 -0.2575 -0.9619
 1862TIP3   OH227144   2.427   5.178   0.283  0.5975 -0.4965 -0.6344
 1862TIP3    H127145   2.415   5.132   0.366  1.7432 -0.3719 -0.3788
 1862TIP3    H227146   2.439   5.109   0.219 -3.5264 -0.7635 -1.3704
 1863TIP3   OH227147   1.982   2.694   7.103  0.5560 -0.1266 -0.1625
 1863TIP3    H127148   1.903   2.669   7.054  0.0435 -2.5197  1.7032
 1863TIP3    H227149   1.961   2.779   7.141 -1.2193 -0.7501  0.3679
 1864TIP3   OH227150   5.620   2.743   7.481  0.5322  0.2342  0.1156
 1864TIP3    H127151   5.670   2.771   7.557 -0.2439  1.5613  0.1593
 1864TIP3    H227152   5.619   2.819   7.423 -0.0861 -0.2960 -0.5894
 1865TIP3   OH227153   0.781   1.308   0.963 -0.0073 -0.1712 -0.2586
 1865TIP3    H127154   0.816   1.258   1.037 -0.2872  0.0166  0.0015
 1865TIP3    H227155   0.824   1.393   0.968 -2.3286  1.0421  1.6181
 1866TIP3   OH227156   6.708   3.729   0.400 -0.2041  0.1408 -0.3801
 1866TIP3    H127157   6.770   3.785   0.447 -1.5093  1.3753 -0.0383
 1866TIP3    H227158   6.706   3.648   0.451  0.7350  0.2754 -0.1107
 1867TIP3   OH227159   5.258   2.333   0.306 -0.6190  0.0429 -0.0065
 1867TIP3    H127160   5.219   2.396   0.367 -0.7628  1.1496 -1.1972
 1867TIP3    H227161   5.235   2.367   0.219 -0.4160 -1.4916 -0.6814
 1868TIP3   OH227162   3.859   1.049   1.472 -0.2112 -0.0171  0.4395
 1868TIP3    H127163   3.905   0.974   1.510 -1.0195 -0.5401  0.3965
 1868TIP3    H227164   3.817   1.015   1.394 -2.4709 -0.1110  1.6089
 1869TIP3   OH227165   5.399   2.851   0.759  0.4621  0.1405  0.5921
 1869TIP3    H127166   5.385   2.945   0.752 -1.1457 -0.0319  1.0526
 1869TIP3    H227167   5.486   2.842   0.799  0.4201  1.4344  1.0028
 1870TIP3   OH227168   3.753   5.001   8.365  0.5235 -0.2477 -0.3171
 1870TIP3    H127169   3.787   5.081   8.405 -0.1507  0.0176 -0.2558
 1870TIP3    H227170   3.726   5.028   8.277 -1.6986  0.1214  0.4249
 1871TIP3   OH227171   3.412   2.176   8.251  0.0634  0.2763  0.4053
 1871TIP3    H127172   3.461   2.094   8.250  2.0412  1.3526 -1.4790
 1871TIP3    H227173   3.346   2.166   8.183  0.4917  0.3498 -0.0211
 1872TIP3   OH227174   5.871   6.612   7.333 -0.2967 -0.8824 -0.1929
 1872TIP3    H127175   5.931   6.656   7.272 -0.4599  0.9990  0.9167
 1872TIP3    H227176   5.912   6.527   7.349  1.1718 -0.3400 -0.8191
 1873TIP3   OH227177   3.742   3.013   8.503  0.4797 -1.1448 -0.3757
 1873TIP3    H127178   3.826   2.976   8.527  1.6015  1.4307 -0.0435
 1873TIP3    H227179   3.715   3.065   8.579  0.7783  1.5840 -1.9984
 1874TIP3   OH227180   2.239   1.801   0.991 -0.2622 -0.2961 -0.1266
 1874TIP3    H127181   2.330   1.799   1.020  0.7172  0.8075 -2.8024
 1874TIP3    H227182   2.230   1.725   0.933 -0.4822  0.6337 -1.3361
 1875TIP3   OH227183   6.601   3.493   7.830  0.2646 -0.4300  0.0851
 1875TIP3    H127184   6.516   3.535   7.818 -0.3423 -0.5752  3.1418
 1875TIP3    H227185   6.663   3.565   7.838 -0.0548 -0.2303  0.8028
 1876TIP3   OH227186   5.580   1.531   6.995  0.0234 -1.1688 -0.1315
 1876TIP3    H127187   5.631   1.607   6.968 -1.3242  1.4307  3.8910
 1876TIP3    H227188   5.502   1.534   6.939  2.4546 -3.3707 -4.1402
 1877TIP3   OH227189   1.845   5.013   6.453  0.1027  0.5405 -0.1285
 1877TIP3    H127190   1.900   4.981   6.381 -1.3067  1.4301 -1.6810
 1877TIP3    H227191   1.895   5.085   6.491 -0.1762  1.7750 -1.9475
 1878TIP3   OH227192   3.954   6.581   1.139 -0.4501 -0.4747  0.1539
 1878TIP3    H127193   3.863   6.562   1.116 -0.9323 -1.8610  2.7916
 1878TIP3    H227194   4.005   6.514   1.093 -0.9742 -0.9399  0.2417
 1879TIP3   OH227195   5.968   3.606   0.275 -0.2792  0.0011 -0.0019
 1879TIP3    H127196   6.052   3.587   0.316 -0.6118 -0.2011  0.6009
 1879TIP3    H227197   5.980   3.583   0.183  0.3643  0.1050  0.0572
 1880TIP3   OH227198   6.134   0.077   1.747  0.1459  0.1592  0.0571
 1880TIP3    H127199   6.134   0.002   1.807 -1.3764 -1.3838 -1.7373
 1880TIP3    H227200   6.109   0.151   1.802 -0.3034 -1.0007  1.4991
 1881TIP3   OH227201   4.814   3.622   8.587 -0.1378 -0.1922 -0.1933
 1881TIP3    H127202   4.808   3.530   8.561  0.0664  0.2150 -1.7822
 1881TIP3    H227203   4.893   3.654   8.543  0.0274  0.6420  0.6814
 1882TIP3   OH227204   0.517   3.940   0.942  0.1578 -0.1764  0.0137
 1882TIP3    H127205   0.578   3.924   1.015 -0.4617  0.3348  0.6575
 1882TIP3    H227206   0.555   4.015   0.896 -0.8218  1.2528  1.4167
 1883TIP3   OH227207   5.808   3.156   8.301 -0.3283  0.9468 -0.8608
 1883TIP3    H127208   5.719   3.137   8.271 -0.6012 -2.5099  1.6437
 1883TIP3    H227209   5.796   3.208   8.381 -0.1420  0.1012 -0.2763
 1884TIP3   OH227210   1.684   3.242   7.498 -0.2344  0.2714 -0.0933
 1884TIP3    H127211   1.710   3.241   7.590  0.5744  0.3728 -0.3080
 1884TIP3    H227212   1.664   3.334   7.480  0.6426  0.4329 -0.2857
 1885TIP3   OH227213   3.854   4.055   7.446  0.2495 -0.5082 -0.8332
 1885TIP3    H127214   3.887   4.127   7.500 -0.6865 -0.4960 -0.2386
 1885TIP3    H227215   3.797   4.097   7.382 -0.9702 -0.7532  0.0403
 1886TIP3   OH227216   3.239   5.364   0.914 -0.0796 -0.2435  0.5428
 1886TIP3    H127217   3.251   5.422   0.838 -0.8459  0.0498  0.6270
 1886TIP3    H227218   3.286   5.408   0.985 -0.7259  0.3477  0.6279
 1887TIP3   OH227219   0.105   3.784   0.607  0.4470  0.2400  0.2996
 1887TIP3    H127220   0.122   3.878   0.617 -2.1581  0.7673  0.3801
 1887TIP3    H227221   0.064   3.777   0.520  0.0401 -0.7244  0.5668
 1888TIP3   OH227222   6.266   5.664   0.758  0.5396  0.2838  0.0050
 1888TIP3    H127223   6.284   5.713   0.678  1.1231  0.8377  0.4679
 1888TIP3    H227224   6.330   5.593   0.757 -1.1001 -1.2761 -1.2968
 1889TIP3   OH227225   4.087   0.308   1.007 -0.3313  0.0812  0.2978
 1889TIP3    H127226   4.095   0.304   1.103 -0.7558  0.0692  0.3349
 1889TIP3    H227227   3.993   0.299   0.991 -0.3206  0.6461 -0.0931
 1890TIP3   OH227228   2.793   5.163   6.602  0.3340  0.7051  0.1783
 1890TIP3    H127229   2.745   5.092   6.644  0.6258  0.2133 -0.3095
 1890TIP3    H227230   2.849   5.120   6.537  1.1605  1.3052  0.4798
 1891TIP3   OH227231   3.012   6.327   7.008 -0.4452  0.0471 -0.5983
 1891TIP3    H127232   2.985   6.310   7.098 -1.2541 -0.2327 -0.8853
 1891TIP3    H227233   3.105   6.352   7.015 -0.6580  0.6343  0.3694
 1892TIP3   OH227234   4.017   6.283   8.581  0.2633  0.1222 -0.6606
 1892TIP3    H127235   3.946   6.274   8.645  0.4201 -0.1469 -0.5206
 1892TIP3    H227236   4.048   6.193   8.568 -0.2524  0.0789 -1.6723
 1893TIP3   OH227237   5.088   0.767   0.671  0.3741 -0.7222 -0.1391
 1893TIP3    H127238   5.064   0.811   0.590  2.6269  0.8147 -0.0490
 1893TIP3    H227239   5.155   0.704   0.645  0.7555 -0.5650  0.4497
 1894TIP3   OH227240   5.797   1.793   1.944  0.2762 -0.0574  0.5908
 1894TIP3    H127241   5.809   1.822   1.853  2.1682 -0.1179  0.7959
 1894TIP3    H227242   5.731   1.853   1.979  1.3795  1.6330 -0.1019
 1895TIP3   OH227243   2.930   5.843   1.199  0.0739  0.9360  0.2803
 1895TIP3    H127244   3.021   5.835   1.227  0.4919  0.3263 -1.1618
 1895TIP3    H227245   2.934   5.894   1.118 -0.9535  1.5417  0.5903
 1896TIP3   OH227246   1.060   3.990   2.047 -0.0193 -0.3475  0.3960
 1896TIP3    H127247   1.074   4.054   2.117  0.1923 -0.3459  0.3521
 1896TIP3    H227248   1.120   3.918   2.067 -1.3543 -1.2480  1.3145
 1897TIP3   OH227249   2.178   6.178   2.001  0.3527  0.0277  0.0868
 1897TIP3    H127250   2.226   6.172   2.084 -0.0555  2.1484  0.5147
 1897TIP3    H227251   2.094   6.135   2.019  0.6947 -0.5328  0.3991
 1898TIP3   OH227252   3.628   0.972   0.810 -0.3180 -0.1076 -0.1089
 1898TIP3    H127253   3.689   1.024   0.863 -0.6333  0.6236 -0.4485
 1898TIP3    H227254   3.603   0.900   0.867  1.4315 -0.8448 -0.2165
 1899TIP3   OH227255   2.302   4.090   0.372  0.0583  0.1343  0.1023
 1899TIP3    H127256   2.393   4.118   0.380 -0.7167  2.6501  1.0629
 1899TIP3    H227257   2.283   4.047   0.455  0.7861 -2.0555 -0.7690
 1900TIP3   OH227258   1.649   5.117   1.210  0.0048 -0.0457  0.3481
 1900TIP3    H127259   1.617   5.040   1.163  1.1927 -0.2847 -0.0983
 1900TIP3    H227260   1.630   5.098   1.302 -0.5039 -0.4745  0.1617
 1901TIP3   OH227261   0.213   6.412   8.398  0.0215 -0.5634 -0.1883
 1901TIP3    H127262   0.215   6.508   8.397 -1.0161 -0.5101 -1.9762
 1901TIP3    H227263   0.135   6.390   8.450  0.0372 -0.4254 -0.1061
 1902TIP3   OH227264   0.130   0.298   0.159  0.3162 -0.1323  0.2528
 1902TIP3    H127265   0.083   0.276   0.078  1.9871 -2.5866 -0.1640
 1902TIP3    H227266   0.061   0.324   0.220 -1.6983 -3.3592 -0.3547
 1903TIP3   OH227267   5.456   3.607   0.492 -0.2507 -0.2662 -0.2485
 1903TIP3    H127268   5.398   3.661   0.438  1.1179  1.8444  0.2274
 1903TIP3    H227269   5.458   3.652   0.577  0.2142 -1.6424  0.4969
 1904TIP3   OH227270   3.454   1.739   7.049 -0.5957  0.1078  0.9537
 1904TIP3    H127271   3.487   1.664   6.999 -0.7474 -0.0919  1.1518
 1904TIP3    H227272   3.404   1.790   6.985 -1.1118 -0.3472  0.9817
 1905TIP3   OH227273   2.012   2.777   1.129  0.4089 -0.2530 -0.5223
 1905TIP3    H127274   1.961   2.697   1.139  2.0831 -1.2853  0.1646
 1905TIP3    H227275   1.958   2.845   1.170 -1.3159 -0.8664 -1.6622
 1906TIP3   OH227276   3.332   6.553   0.149  0.4306  0.3136  0.0229
 1906TIP3    H127277   3.283   6.485   0.196 -0.5258  1.0129  0.0740
 1906TIP3    H227278   3.267   6.591   0.089  1.3218  0.2391 -1.0152
 1907TIP3   OH227279   4.646   2.471   1.074 -0.4130 -0.9779 -0.5654
 1907TIP3    H127280   4.632   2.393   1.128 -0.7063 -0.6038 -0.0889
 1907TIP3    H227281   4.636   2.545   1.135 -0.0773 -0.5701 -0.9940
 1908TIP3   OH227282   0.536   1.051   8.379  0.0865 -0.0375  0.0487
 1908TIP3    H127283   0.528   0.964   8.341  0.6673 -0.7788  1.5294
 1908TIP3    H227284   0.558   1.035   8.471 -1.3516  1.6610  0.7494
 1909TIP3   OH227285   2.928   1.877   7.741  0.3305 -0.3157  0.1468
 1909TIP3    H127286   2.928   1.973   7.749  0.8860 -0.1202 -1.8106
 1909TIP3    H227287   2.839   1.855   7.714  0.4184 -0.2679 -0.1856
 1910TIP3   OH227288   6.892   6.350   1.500  0.4007 -0.0889  0.0544
 1910TIP3    H127289   6.822   6.327   1.439  0.7652 -0.9616 -0.0529
 1910TIP3    H227290   6.919   6.438   1.474 -0.7564  0.3283  0.1984
 1911TIP3   OH227291   5.576   1.868   6.696  0.2464  0.6637  0.1613
 1911TIP3    H127292   5.480   1.858   6.696  0.3112  0.0453  0.2289
 1911TIP3    H227293   5.594   1.921   6.619 -0.0128 -0.6018 -0.7913
 1912TIP3   OH227294   0.009   2.633   0.392  0.3145  0.0234 -0.0933
 1912TIP3    H127295  -0.020   2.711   0.345  0.0010 -0.5107 -0.7974
 1912TIP3    H227296  -0.072   2.589   0.418  0.4446  1.0530  2.2612
 1913TIP3   OH227297   1.999   6.454   2.090  0.1296  0.0985  0.1191
 1913TIP3    H127298   1.935   6.466   2.159  0.4657  2.9898  0.0357
 1913TIP3    H227299   2.051   6.378   2.118 -0.9426  0.0275  2.0541
 1914TIP3   OH227300   0.405   2.219   0.460 -0.0649 -0.1639 -0.2465
 1914TIP3    H127301   0.450   2.242   0.379 -0.4046 -0.2881 -0.4699
 1914TIP3    H227302   0.313   2.242   0.444 -0.2300 -0.7180 -0.1048
 1915TIP3   OH227303   5.079   4.200   1.612 -0.3334  0.3026  0.3407
 1915TIP3    H127304   5.066   4.239   1.526  1.2434 -0.8437 -0.4802
 1915TIP3    H227305   4.991   4.190   1.648 -1.0634  0.3360 -1.3529
 1916TIP3   OH227306   5.499   0.587   6.327  0.1014  0.2629 -0.5578
 1916TIP3    H127307   5.444   0.511   6.309 -0.8333  0.8688 -0.3617
 1916TIP3    H227308   5.567   0.554   6.386 -0.9322 -0.2044  0.4251
 1917TIP3   OH227309   3.603   2.919   6.959 -0.1835  0.7237 -0.0268
 1917TIP3    H127310   3.521   2.872   6.942 -0.3616  1.4083 -1.1928
 1917TIP3    H227311   3.668   2.875   6.904 -0.3497  1.7818 -1.1123
 1918TIP3   OH227312   4.364   1.484   0.415  0.7508  1.2131 -0.4097
 1918TIP3    H127313   4.427   1.417   0.390  0.2299  0.3080  0.6037
 1918TIP3    H227314   4.285   1.436   0.440  0.4111  2.1727  0.4991
 1919TIP3   OH227315   2.750   4.616   6.684  0.7116 -0.0924  0.0497
 1919TIP3    H127316   2.658   4.603   6.705  1.1260 -0.8500  1.5502
 1919TIP3    H227317   2.779   4.531   6.650  0.5550  0.5291 -1.6881
 1920TIP3   OH227318   6.083   2.278   2.571  0.0657 -0.6653  0.1873
 1920TIP3    H127319   6.015   2.311   2.630  1.2520  0.3998  1.0067
 1920TIP3    H227320   6.079   2.336   2.495 -0.6056 -1.2399 -0.2259
 1921TIP3   OH227321   0.301   4.604   7.671  0.6623 -0.6214 -0.4221
 1921TIP3    H127322   0.260   4.666   7.732  1.2315 -1.5766  0.9949
 1921TIP3    H227323   0.355   4.658   7.614  2.4935  0.1396  1.8518
 1922TIP3   OH227324   2.991   0.288   0.080  0.3864 -0.0430  0.0985
 1922TIP3    H127325   2.940   0.212   0.052  0.1361 -0.1243  0.7714
 1922TIP3    H227326   3.012   0.270   0.172 -0.2337  1.0018  0.4552
 1923TIP3   OH227327   1.510   0.447   1.644  0.1224 -0.0238 -0.0095
 1923TIP3    H127328   1.425   0.409   1.623  0.1300  0.3069 -0.6643
 1923TIP3    H227329   1.497   0.541   1.639  0.3932  0.0403  0.4449
 1924TIP3   OH227330   6.061   0.016   7.457  0.1329  0.2203  0.4590
 1924TIP3    H127331   6.047   0.018   7.362 -0.0743  1.3513  0.4939
 1924TIP3    H227332   5.986   0.065   7.493  0.2561 -0.1169  1.2015
 1925TIP3   OH227333   5.568   2.323   1.941  0.3199 -0.0591  0.1089
 1925TIP3    H127334   5.477   2.352   1.943  0.2890 -0.1553  0.1111
 1925TIP3    H227335   5.580   2.275   2.023 -0.6348 -3.0768 -1.3526
 1926TIP3   OH227336   6.853   6.850   6.741  0.4937  0.0781 -0.2761
 1926TIP3    H127337   6.904   6.932   6.736  0.3218  0.2807  0.9247
 1926TIP3    H227338   6.915   6.786   6.775  0.1749  0.1411  0.4499
 1927TIP3   OH227339   1.195   3.038   8.425 -0.0396  0.1115  0.4322
 1927TIP3    H127340   1.137   2.964   8.410  1.6185 -1.3660  0.9757
 1927TIP3    H227341   1.172   3.101   8.357 -1.5304 -0.8598 -0.0037
 1928TIP3   OH227342   5.561   1.189   7.206 -0.3456  0.4305  0.1309
 1928TIP3    H127343   5.632   1.169   7.146  1.3801 -0.3660  2.2883
 1928TIP3    H227344   5.550   1.284   7.201  0.0738  0.4238 -1.0700
 1929TIP3   OH227345   4.761   4.819   1.477  0.6089 -0.2448 -0.2219
 1929TIP3    H127346   4.852   4.791   1.464  0.4125  0.1331 -2.7972
 1929TIP3    H227347   4.768   4.913   1.496  0.7476 -0.2174 -0.4072
 1930TIP3   OH227348   2.506   0.291   2.352 -0.3754  0.9704 -0.1674
 1930TIP3    H127349   2.520   0.373   2.398  2.3245 -0.1804  1.2845
 1930TIP3    H227350   2.566   0.294   2.278  0.3407  0.0036  0.3555
 1931TIP3   OH227351   6.650   0.892   7.148  0.0655 -0.3609  0.5426
 1931TIP3    H127352   6.619   0.980   7.124  0.0257 -0.6243 -0.3811
 1931TIP3    H227353   6.672   0.900   7.241 -2.1035  0.0225  1.0782
 1932TIP3   OH227354   0.897   2.428   1.687 -0.1620  0.1273  0.0879
 1932TIP3    H127355   0.987   2.436   1.656 -1.4403 -0.2002 -4.3613
 1932TIP3    H227356   0.889   2.337   1.715  1.2235  0.5884  2.2308
 1933TIP3   OH227357   3.029   5.880   2.848  0.3625  0.3187  0.1528
 1933TIP3    H127358   2.948   5.831   2.866  0.0427  0.3655 -1.0656
 1933TIP3    H227359   3.096   5.812   2.842 -0.1174 -0.0256 -1.7417
 1934TIP3   OH227360   5.177   4.782   2.066  0.3873  0.5117  0.4641
 1934TIP3    H127361   5.189   4.876   2.079 -0.5123  1.0233 -1.9090
 1934TIP3    H227362   5.203   4.767   1.975 -1.9041 -1.0345 -0.0279
 1935TIP3   OH227363   0.312   6.648   0.330 -0.5271 -0.2341 -0.1602
 1935TIP3    H127364   0.401   6.616   0.311 -0.2478  0.1562  0.4750
 1935TIP3    H227365   0.276   6.584   0.391  0.2928  0.9874  1.6855
 1936TIP3   OH227366   5.062   6.144   0.363 -0.0141 -0.0388 -0.1894
 1936TIP3    H127367   5.084   6.061   0.405 -0.3310 -0.3335 -0.5943
 1936TIP3    H227368   5.120   6.149   0.287 -0.6160 -0.3261 -0.6754
 1937TIP3   OH227369   2.846   1.292   1.342 -0.2854 -0.6329  0.5212
 1937TIP3    H127370   2.867   1.244   1.422  0.6618  1.0025  1.2981
 1937TIP3    H227371   2.928   1.332   1.316 -1.2364  1.4255  0.5201
 1938TIP3   OH227372   2.026   4.352   8.274 -0.7075 -0.5191  0.1626
 1938TIP3    H127373   2.121   4.343   8.276 -0.5546 -0.3631 -2.5407
 1938TIP3    H227374   2.001   4.366   8.365  1.8338 -0.6459  0.9531
 1939TIP3   OH227375   1.992   5.259   8.442  0.0083 -0.2622  0.0883
 1939TIP3    H127376   1.982   5.296   8.530 -0.1197  0.9365 -0.4060
 1939TIP3    H227377   1.922   5.300   8.391 -0.9374 -2.1652 -0.2169
 1940TIP3   OH227378   1.672   0.136   0.654  0.3333 -0.2463  0.5094
 1940TIP3    H127379   1.609   0.203   0.680  1.6653  1.8320 -1.1929
 1940TIP3    H227380   1.741   0.140   0.720 -0.2307 -0.9254  1.1481
 1941TIP3   OH227381   1.938   3.306   7.231  0.3175 -0.0240 -0.0297
 1941TIP3    H127382   1.979   3.301   7.144  0.0165  1.4881 -0.2975
 1941TIP3    H227383   2.012   3.306   7.292  0.6918  1.4418 -0.4448
 1942TIP3   OH227384   2.491   3.381   1.104 -0.1754 -0.4071  0.2134
 1942TIP3    H127385   2.450   3.295   1.106 -0.0037 -0.5022 -0.4154
 1942TIP3    H227386   2.580   3.366   1.134 -0.0434 -0.5051 -0.2260
 1943TIP3   OH227387   1.233   3.798   2.100 -0.0248  0.1899 -0.2212
 1943TIP3    H127388   1.255   3.714   2.061  1.2084  0.5242 -0.3111
 1943TIP3    H227389   1.318   3.839   2.117 -0.5935  1.2136  0.2582
 1944TIP3   OH227390   0.969   6.257   1.928  0.2660  0.1254 -0.5780
 1944TIP3    H127391   0.895   6.302   1.970 -0.5813 -2.3290  0.7851
 1944TIP3    H227392   0.956   6.272   1.835 -3.2643 -1.8602 -0.6004
 1945TIP3   OH227393   5.311   0.123   7.806 -0.7786  0.1687 -0.2567
 1945TIP3    H127394   5.250   0.190   7.775 -1.7434 -0.8794 -0.7278
 1945TIP3    H227395   5.367   0.104   7.731 -0.1351  0.8194  0.0442
 1946TIP3   OH227396   5.425   4.495   8.243 -0.2120  0.1597 -0.2442
 1946TIP3    H127397   5.459   4.496   8.154  0.7847  0.9428  0.1229
 1946TIP3    H227398   5.352   4.433   8.241  1.7545 -2.2507 -0.8598
 1947TIP3   OH227399   3.161   6.611   7.950 -0.4984  0.3327 -0.0214
 1947TIP3    H127400   3.238   6.565   7.916  0.1580 -0.7194  2.6006
 1947TIP3    H227401   3.115   6.642   7.873  1.7342 -0.3702 -1.7405
 1948TIP3   OH227402   1.776   0.883   7.299  0.3906  0.4480  0.2793
 1948TIP3    H127403   1.830   0.812   7.333  1.0141  1.0615  0.5692
 1948TIP3    H227404   1.802   0.891   7.207  1.9961  1.8283  0.8139
 1949TIP3   OH227405   1.145   6.331   6.638  0.6526 -0.0974 -0.1261
 1949TIP3    H127406   1.171   6.422   6.630  1.9962 -0.5453 -1.5770
 1949TIP3    H227407   1.159   6.309   6.730 -0.6362  1.3884  0.4578
 1950TIP3   OH227408   1.973   2.164   7.897 -0.0746  0.8769  0.2736
 1950TIP3    H127409   1.995   2.194   7.809 -0.4023  2.3974  0.6646
 1950TIP3    H227410   1.915   2.090   7.884  1.1109  0.0899 -0.7745
 1951TIP3   OH227411   3.913   6.137   7.018 -0.3716  0.2731  0.3825
 1951TIP3    H127412   3.988   6.160   6.963 -0.7779 -0.2532 -0.4101
 1951TIP3    H227413   3.898   6.215   7.071 -0.8792  1.3840 -1.2822
 1952TIP3   OH227414   3.821   6.137   0.497 -0.3304 -0.1699  0.2561
 1952TIP3    H127415   3.772   6.157   0.576 -1.1296  1.7888 -0.6607
 1952TIP3    H227416   3.761   6.087   0.443  0.8406 -3.2009  1.5434
 1953TIP3   OH227417   0.742   6.864   0.194  0.2573 -0.3849 -0.3185
 1953TIP3    H127418   0.677   6.890   0.260 -0.1348  2.0263 -1.5662
 1953TIP3    H227419   0.729   6.769   0.185 -1.7967 -0.2810  0.8369
 1954TIP3   OH227420   1.249   0.311   0.530  0.2138 -0.1490 -0.4010
 1954TIP3    H127421   1.171   0.309   0.586 -0.2327  0.0806 -0.9959
 1954TIP3    H227422   1.239   0.390   0.477  0.6737 -0.3052 -0.7309
 1955TIP3   OH227423   3.175   1.470   2.357 -0.5587  0.5975 -0.2169
 1955TIP3    H127424   3.186   1.563   2.376 -0.6436  0.8708 -1.4382
 1955TIP3    H227425   3.241   1.451   2.290 -0.3672 -0.2920  0.2024
 1956TIP3   OH227426   4.539   3.355   1.016  0.2024  0.5227  0.0195
 1956TIP3    H127427   4.570   3.413   1.085 -2.4983 -0.1149  1.9432
 1956TIP3    H227428   4.472   3.406   0.970 -0.4707 -0.2041  0.1645
 1957TIP3   OH227429   4.760   5.510   0.320  0.5397 -0.2936 -0.2726
 1957TIP3    H127430   4.772   5.511   0.225 -0.1109  1.0688 -0.3594
 1957TIP3    H227431   4.846   5.533   0.356  0.1585  2.0283 -0.6622
 1958TIP3   OH227432   5.617   6.268   1.237  0.1054  0.0403 -0.0885
 1958TIP3    H127433   5.557   6.227   1.300 -2.9888  1.2378 -2.0404
 1958TIP3    H227434   5.632   6.200   1.171  0.0010  0.0935 -0.1669
 1959TIP3   OH227435   3.805   6.249   1.476  0.2777  0.3988 -0.2621
 1959TIP3    H127436   3.776   6.208   1.395  3.9995  0.3581 -1.7417
 1959TIP3    H227437   3.776   6.340   1.469  2.1028  0.8990 -2.6495
 1960TIP3   OH227438   1.946   2.934   0.848  0.7568 -0.0512  0.2801
 1960TIP3    H127439   1.918   2.842   0.847  1.2013 -0.1911  0.4142
 1960TIP3    H227440   2.002   2.941   0.925  2.6276 -0.2501 -0.9685
 1961TIP3   OH227441   2.822   1.072   6.497 -0.5173  0.8093  0.1434
 1961TIP3    H127442   2.819   1.140   6.430  0.1677  1.3398  0.6330
 1961TIP3    H227443   2.825   1.119   6.580 -2.5167  0.1579  0.6485
 1962TIP3   OH227444   2.473   0.569   8.506 -0.0142 -0.1225  0.5814
 1962TIP3    H127445   2.458   0.577   8.412 -0.2236 -1.4397  0.4787
 1962TIP3    H227446   2.448   0.479   8.526  0.8917 -0.1382  1.7336
 1963TIP3   OH227447   6.589   1.827   0.868 -0.1611  0.1344  0.4334
 1963TIP3    H127448   6.549   1.803   0.951  1.3858 -1.4698  0.7809
 1963TIP3    H227449   6.666   1.878   0.893 -1.0712  1.8678 -0.1580
 1964TIP3   OH227450   5.053   4.807   7.309  0.1298 -0.2683 -0.3049
 1964TIP3    H127451   5.024   4.860   7.383 -1.8859 -2.0006  0.2432
 1964TIP3    H227452   5.143   4.837   7.292 -0.1401  1.7205  1.3661
 1965TIP3   OH227453   0.919   3.278   8.080  0.0410 -0.7067  0.1864
 1965TIP3    H127454   0.922   3.290   8.175  0.5046  1.5133 -0.0455
 1965TIP3    H227455   0.913   3.367   8.045 -0.5576 -1.4898 -1.8651
 1966TIP3   OH227456   1.796   4.177   0.375 -0.3850 -0.2130  0.4185
 1966TIP3    H127457   1.816   4.092   0.413 -2.0701 -0.5034  0.7272
 1966TIP3    H227458   1.779   4.234   0.450 -1.6823 -0.2525  0.1695
 1967TIP3   OH227459   5.001   6.083   7.581  0.4039  0.7590  0.1382
 1967TIP3    H127460   4.991   6.106   7.489 -0.1898  0.1487  0.0393
 1967TIP3    H227461   5.095   6.090   7.598  0.7573 -0.8075 -0.9795
 1968TIP3   OH227462   1.599   2.796   2.165  0.4860  0.1455  0.3107
 1968TIP3    H127463   1.513   2.776   2.126  0.5835 -0.8645  0.5825
 1968TIP3    H227464   1.583   2.792   2.259  0.5327  1.3342  0.3786
 1969TIP3   OH227465   3.599   3.639   7.878 -0.1066 -0.9493 -0.5999
 1969TIP3    H127466   3.693   3.622   7.885 -0.0630 -1.6463 -2.4577
 1969TIP3    H227467   3.566   3.571   7.819 -1.5372  0.0896 -1.0587
 1970TIP3   OH227468   0.401   0.140   8.276 -0.3583  0.1561 -0.0863
 1970TIP3    H127469   0.390   0.050   8.306 -2.1026  0.0035 -1.0573
 1970TIP3    H227470   0.496   0.151   8.266 -0.0030 -1.0208  1.5763
 1971TIP3   OH227471   4.200   6.495   8.018  0.0509  0.1067 -0.1966
 1971TIP3    H127472   4.278   6.447   8.045  0.5163  0.4168 -0.9387
 1971TIP3    H227473   4.181   6.462   7.930 -1.1752 -0.5897  0.3044
 1972TIP3   OH227474   1.055   1.914   0.304 -0.3990 -0.3064 -0.1110
 1972TIP3    H127475   0.974   1.937   0.350  0.3742  0.9244  0.7018
 1972TIP3    H227476   1.063   1.819   0.316 -2.4273 -0.6869 -1.4376
 1973TIP3   OH227477   1.619   0.550   7.845  0.5090 -0.0433  0.3747
 1973TIP3    H127478   1.591   0.464   7.815 -0.0964  0.0634  0.6250
 1973TIP3    H227479   1.565   0.612   7.796 -0.1406  0.1463  1.3081
 1974TIP3   OH227480   5.797   1.874   7.542 -0.0422 -0.9584  0.1798
 1974TIP3    H127481   5.830   1.832   7.462 -0.3761  0.7657 -0.9162
 1974TIP3    H227482   5.860   1.849   7.610  1.5598 -0.5901 -1.1171
 1975TIP3   OH227483   2.207   5.185   7.731 -0.2718  0.1554 -0.1003
 1975TIP3    H127484   2.241   5.275   7.733 -0.1791  0.1290 -0.4055
 1975TIP3    H227485   2.116   5.193   7.760 -0.0417  0.2438  0.5962
 1976TIP3   OH227486   3.811   5.449   1.311 -0.0864 -0.3031  0.0647
 1976TIP3    H127487   3.906   5.441   1.316  0.0375  0.7850 -0.3054
 1976TIP3    H227488   3.778   5.387   1.377  0.8493 -1.0492 -0.1514
 1977TIP3   OH227489   3.589   4.184   8.189  0.0429  0.2299 -0.7421
 1977TIP3    H127490   3.526   4.138   8.246  0.9457  0.5070  0.5327
 1977TIP3    H227491   3.596   4.128   8.112 -1.1740 -0.2008 -0.5744
 1978TIP3   OH227492   4.879   4.005   0.031 -0.2551  0.0763 -0.3151
 1978TIP3    H127493   4.962   4.010   0.078 -0.3123  1.0004 -0.2999
 1978TIP3    H227494   4.889   4.065  -0.042  0.3736 -2.3761 -2.4104
 1979TIP3   OH227495   5.014   4.606   0.835 -0.1548 -0.2868 -0.1666
 1979TIP3    H127496   4.959   4.654   0.897  0.7129 -0.0568  0.4399
 1979TIP3    H227497   5.097   4.653   0.834  0.9224 -2.0489  0.8542
 1980TIP3   OH227498   4.373   4.497   1.049  0.1343  0.4788 -0.6773
 1980TIP3    H127499   4.448   4.553   1.072  0.7418 -0.2555 -0.8033
 1980TIP3    H227500   4.408   4.439   0.981 -0.7794  0.6303 -1.2816
 1981TIP3   OH227501   1.833   4.458   0.703  0.2564 -0.2018  0.0580
 1981TIP3    H127502   1.863   4.372   0.673 -1.2056 -0.4737 -0.7360
 1981TIP3    H227503   1.911   4.501   0.737  1.4233 -1.0643 -1.4244
 1982TIP3   OH227504   1.342   4.503   7.340 -0.5079 -0.0575 -0.0714
 1982TIP3    H127505   1.332   4.476   7.431 -0.9897  0.2234 -0.0404
 1982TIP3    H227506   1.404   4.575   7.343 -0.1437 -0.3697 -0.0215
 1983TIP3   OH227507   5.063   6.443   0.295 -0.1297 -0.1786  0.0409
 1983TIP3    H127508   4.989   6.419   0.240 -2.0622  2.8468  1.0735
 1983TIP3    H227509   5.051   6.392   0.375 -0.3514 -0.5963 -0.2522
 1984TIP3   OH227510   3.624   1.640   0.579 -0.0656 -0.2642  0.1187
 1984TIP3    H127511   3.629   1.556   0.535 -0.2388  0.4861 -1.3963
 1984TIP3    H227512   3.604   1.703   0.510  1.0469  1.1760  1.0316
 1985TIP3   OH227513   1.745   3.107   7.262  0.1353 -0.7410 -0.3437
 1985TIP3    H127514   1.724   3.116   7.355 -0.2956 -2.2858 -0.2637
 1985TIP3    H227515   1.826   3.156   7.251 -0.8277  1.1065  0.4140
 1986TIP3   OH227516   2.278   3.681   7.115  0.1869  0.0532  0.4551
 1986TIP3    H127517   2.256   3.635   7.196  0.6806  0.7449  0.9994
 1986TIP3    H227518   2.212   3.652   7.052 -1.5478  1.1355  1.6864
 1987TIP3   OH227519   4.578   3.773   7.329  0.0832  0.1327 -0.2333
 1987TIP3    H127520   4.532   3.818   7.258 -1.2488 -0.8282 -0.0203
 1987TIP3    H227521   4.583   3.837   7.399 -1.9732 -0.0320  0.1467
 1988TIP3   OH227522   3.943   3.394   8.644 -0.5478  0.6612  0.0862
 1988TIP3    H127523   3.982   3.359   8.724 -0.2736  0.9053  0.0592
 1988TIP3    H227524   3.995   3.472   8.624 -0.1868  0.2251 -0.7050
 1989TIP3   OH227525   0.402   2.465   7.823 -0.1180 -0.9119  0.0594
 1989TIP3    H127526   0.330   2.527   7.815  1.4733  1.3475  1.8790
 1989TIP3    H227527   0.433   2.476   7.913  3.3289 -0.7455 -0.9999
 1990TIP3   OH227528   5.425   4.974   8.067  0.3280 -0.2215  0.3672
 1990TIP3    H127529   5.334   4.965   8.097 -0.1182 -0.5159 -0.9972
 1990TIP3    H227530   5.435   5.068   8.051  0.3914 -0.1386  0.8746
 1991TIP3   OH227531   0.465   2.895   7.004 -0.4015 -0.6234 -0.3278
 1991TIP3    H127532   0.498   2.811   7.036 -1.8894 -1.6458 -1.3607
 1991TIP3    H227533   0.439   2.877   6.913  0.0738  1.1868 -0.8633
 1992TIP3   OH227534   0.164   3.929   1.786 -0.3259  0.6058  0.1706
 1992TIP3    H127535   0.160   4.007   1.842  1.8494  1.1919 -0.3848
 1992TIP3    H227536   0.242   3.883   1.815 -0.8471 -0.6804 -0.4141
 1993TIP3   OH227537   6.681   5.370   0.286  0.4594 -0.0056 -0.0783
 1993TIP3    H127538   6.729   5.345   0.206  0.1506 -0.2955 -0.1753
 1993TIP3    H227539   6.730   5.328   0.357 -0.6385 -1.8328 -0.3139
 1994TIP3   OH227540   0.096   3.733   0.034  0.2055  0.0314 -0.2000
 1994TIP3    H127541   0.143   3.687  -0.036  0.1750  1.2808 -1.0740
 1994TIP3    H227542   0.004   3.729   0.007 -0.2138 -1.9371  1.2365
 1995TIP3   OH227543   3.400   5.016   8.084  0.1180 -0.3776  0.0620
 1995TIP3    H127544   3.400   4.931   8.041 -0.0561  0.0027 -0.7164
 1995TIP3    H227545   3.323   5.015   8.140 -0.7241 -0.2009 -1.0613
 1996TIP3   OH227546   3.170   5.547   2.173 -0.1458 -0.0548 -0.2564
 1996TIP3    H127547   3.109   5.604   2.220 -0.3011 -1.0028  0.7279
 1996TIP3    H227548   3.115   5.484   2.127  0.0573 -0.2541 -0.2314
 1997TIP3   OH227549   2.411   5.029   7.345 -0.5935  0.7790 -0.4028
 1997TIP3    H127550   2.502   5.023   7.316 -0.4185 -1.4739  0.4725
 1997TIP3    H227551   2.367   4.957   7.300 -1.7331  1.2323 -0.0349
 1998TIP3   OH227552   4.098   0.459   1.383  0.0168  0.0889  0.1447
 1998TIP3    H127553   4.048   0.446   1.463  1.0866 -0.4418  0.7593
 1998TIP3    H227554   4.119   0.371   1.353  1.5027  0.2750  0.5296
 1999TIP3   OH227555   0.862   4.125   7.518 -0.2139  0.1592 -0.0711
 1999TIP3    H127556   0.943   4.116   7.569  0.2344  0.4819 -0.7141
 1999TIP3    H227557   0.881   4.194   7.454 -1.7592  1.9122  1.2468
 2000TIP3   OH227558   5.496   2.188   7.793  0.2531  0.0505 -0.1639
 2000TIP3    H127559   5.529   2.137   7.867  0.5342  0.3077 -0.1076
 2000TIP3    H227560   5.518   2.137   7.716 -0.8226 -0.6480 -0.0319
 2001TIP3   OH227561   1.010   0.837   1.099  0.4730  0.6398 -0.0753
 2001TIP3    H127562   0.953   0.763   1.117  0.9501  0.8292  2.6296
 2001TIP3    H227563   1.090   0.798   1.062  0.4163 -0.1223  0.5837
 2002TIP3   OH227564   0.024   6.786   7.242 -0.0595 -0.2012  0.3687
 2002TIP3    H127565  -0.009   6.735   7.168 -1.2556  3.0455 -1.5206
 2002TIP3    H227566  -0.055   6.807   7.293  0.4350 -0.3286  1.2019
 2003TIP3   OH227567   3.709   6.507   1.505 -0.1810 -0.1255 -0.2497
 2003TIP3    H127568   3.757   6.587   1.483  1.4230 -0.9683  0.0200
 2003TIP3    H227569   3.642   6.499   1.436 -0.6284  1.6231 -0.0650
 2004TIP3   OH227570   2.262   1.569   7.568 -0.4925  0.4709 -0.0298
 2004TIP3    H127571   2.279   1.651   7.615 -0.9500  1.4158 -1.4699
 2004TIP3    H227572   2.295   1.501   7.627  0.8294  1.7395  0.7494
 2005TIP3   OH227573   2.613   5.071   1.390  0.2075  0.3554 -0.4219
 2005TIP3    H127574   2.627   5.140   1.326  1.3622 -0.7093 -1.3823
 2005TIP3    H227575   2.588   5.116   1.470 -1.0801  1.7298 -1.5594
 2006TIP3   OH227576   3.563   5.560   7.545  0.7163 -0.2516 -0.0294
 2006TIP3    H127577   3.492   5.579   7.483  1.2378 -0.6379 -0.7663
 2006TIP3    H227578   3.537   5.478   7.586  0.6380 -0.2927 -0.1586
 2007TIP3   OH227579   1.560   6.186   8.574  0.5039 -0.1989  0.9174
 2007TIP3    H127580   1.564   6.267   8.625 -1.2459 -1.3745  3.0864
 2007TIP3    H227581   1.629   6.131   8.610  1.1492 -0.0162  0.0046
 2008TIP3   OH227582   2.935   1.586   0.506 -0.6384 -0.3049 -0.4102
 2008TIP3    H127583   3.008   1.612   0.451 -0.4315 -0.4884 -0.2222
 2008TIP3    H227584   2.860   1.583   0.447 -0.6780  0.7362 -0.4390
 2009TIP3   OH227585   4.754   2.068   8.046  0.7818 -0.2833  0.4660
 2009TIP3    H127586   4.744   1.985   8.000 -1.5359  1.1886 -1.9120
 2009TIP3    H227587   4.788   2.129   7.980 -1.9272  1.7235  0.7864
 2010TIP3   OH227588   4.146   3.569   2.116  0.0993  0.1156  0.0448
 2010TIP3    H127589   4.065   3.578   2.167 -0.2032  0.2994 -0.4611
 2010TIP3    H227590   4.164   3.657   2.084  0.3087  0.0058 -0.1403
 2011TIP3   OH227591   6.372   6.895   1.240 -1.1115 -0.4609 -0.1967
 2011TIP3    H127592   6.347   6.988   1.241  1.3827  0.2843 -0.7253
 2011TIP3    H227593   6.361   6.868   1.149 -0.0729 -0.1225 -0.4369
 2012TIP3   OH227594   3.558   2.144   7.546 -0.1953 -0.2908 -0.8660
 2012TIP3    H127595   3.536   2.076   7.610 -0.7397  2.0065  1.5295
 2012TIP3    H227596   3.649   2.166   7.565  1.2560 -2.6989 -4.0583
 2013TIP3   OH227597   3.250   5.062   6.776  0.2361 -0.6121 -0.2416
 2013TIP3    H127598   3.163   5.075   6.737  0.3753 -0.1997 -0.4287
 2013TIP3    H227599   3.310   5.060   6.701  0.4352 -0.4530 -0.0903
 2014TIP3   OH227600   1.555   5.312   7.183  0.2682 -0.3152 -0.3172
 2014TIP3    H127601   1.525   5.295   7.094  0.6094 -0.6724 -0.3650
 2014TIP3    H227602   1.516   5.397   7.205 -0.5794 -0.6557 -0.4580
 2015TIP3   OH227603   6.412   2.636   0.564  0.3416  0.1218 -0.1152
 2015TIP3    H127604   6.349   2.586   0.615 -0.7724  3.0844  1.6663
 2015TIP3    H227605   6.408   2.724   0.601  2.9669  1.3001 -2.3115
 2016TIP3   OH227606   1.182   3.684   1.154 -0.4284  0.0865 -0.0934
 2016TIP3    H127607   1.239   3.642   1.089 -1.5394  0.1999 -1.1772
 2016TIP3    H227608   1.148   3.761   1.109 -1.5425 -0.0542  0.4841
 2017TIP3   OH227609   3.152   6.779   6.380  0.1868  0.0628 -0.3184
 2017TIP3    H127610   3.230   6.785   6.326  0.6278  0.5046  0.3535
 2017TIP3    H227611   3.185   6.777   6.470 -0.4180 -2.5721 -0.0826
 2018TIP3   OH227612   0.928   4.593   8.260  0.1611 -0.3938  0.3394
 2018TIP3    H127613   0.994   4.532   8.225 -0.3605 -0.9940  0.3761
 2018TIP3    H227614   0.882   4.625   8.182 -1.0264 -1.7603  0.4272
 2019TIP3   OH227615   6.138   1.512   0.359 -0.8300  0.1607  0.2479
 2019TIP3    H127616   6.062   1.505   0.302 -1.5500 -1.8637  1.3626
 2019TIP3    H227617   6.103   1.546   0.442  0.0082  1.9907 -0.0963
 2020TIP3   OH227618   0.482   3.852   0.410  0.0796 -1.1000  0.0714
 2020TIP3    H127619   0.407   3.852   0.350  0.9047  1.1775 -1.1067
 2020TIP3    H227620   0.475   3.937   0.455  2.0391 -0.7224 -0.2507
 2021TIP3   OH227621   6.209   2.523   0.711 -0.1519 -0.0634  0.3295
 2021TIP3    H127622   6.266   2.481   0.776 -0.0048  0.3712  0.4863
 2021TIP3    H227623   6.170   2.597   0.758  0.3156  0.5311 -0.1972
 2022TIP3   OH227624   5.881   3.152   6.827 -0.8703 -0.1706 -0.1462
 2022TIP3    H127625   5.907   3.129   6.738  0.8999  0.9738  0.0303
 2022TIP3    H227626   5.912   3.242   6.839 -0.0959 -0.6569  1.9543
 2023TIP3   OH227627   6.223   6.494   8.509  0.1794  0.4328 -0.1860
 2023TIP3    H127628   6.185   6.579   8.530  1.0855  0.6771  0.5605
 2023TIP3    H227629   6.311   6.497   8.547  0.7903 -0.2690 -1.4699
 2024TIP3   OH227630   3.963   3.811   7.487 -0.8395  0.3492 -0.2830
 2024TIP3    H127631   3.890   3.871   7.474 -0.9483  0.7888  1.9989
 2024TIP3    H227632   3.931   3.746   7.550  0.9387  1.0570  1.4896
 2025TIP3   OH227633   5.174   0.606   6.621  0.4312  0.1549 -0.5498
 2025TIP3    H127634   5.259   0.595   6.663  1.0908  0.0568 -1.8675
 2025TIP3    H227635   5.158   0.701   6.622  0.5700  0.1746 -0.3238
 2026TIP3   OH227636   3.853   1.351   8.562  0.0428 -0.4927  0.7837
 2026TIP3    H127637   3.835   1.265   8.524 -0.9776  0.2244 -0.4570
 2026TIP3    H227638   3.939   1.375   8.528  0.2015 -0.8931  0.8971
 2027TIP3   OH227639   3.732   3.213   0.056  0.7008 -0.0931 -0.3674
 2027TIP3    H127640   3.804   3.274   0.037  0.4179  1.1552  2.1372
 2027TIP3    H227641   3.688   3.252   0.132 -1.7520 -1.5769 -0.9432
 2028TIP3   OH227642   4.870   5.302   7.223 -0.0666  0.5973  0.0287
 2028TIP3    H127643   4.789   5.348   7.244  0.2432  0.7530  0.9581
 2028TIP3    H227644   4.939   5.361   7.253  0.3415 -0.4103  1.1665
 2029TIP3   OH227645   2.081   5.808   6.925 -0.3137 -0.6800 -0.5005
 2029TIP3    H127646   2.023   5.836   6.855  0.7104  0.4949 -0.9109
 2029TIP3    H227647   2.147   5.877   6.931 -0.7608 -0.4002  2.1145
 2030TIP3   OH227648   5.489   1.665   1.032 -0.4922 -0.6588  0.2267
 2030TIP3    H127649   5.505   1.734   0.968  0.0328  0.1396  1.2013
 2030TIP3    H227650   5.518   1.585   0.988 -0.3612 -0.1641 -0.6205
 2031TIP3   OH227651   5.600   1.480   7.588  0.0040  0.2329 -0.2650
 2031TIP3    H127652   5.610   1.566   7.546 -1.9902  0.7589  0.2373
 2031TIP3    H227653   5.631   1.418   7.522  0.1791  1.2436 -1.1700
 2032TIP3   OH227654   2.676   2.732   0.554  0.0596 -0.3182  0.1962
 2032TIP3    H127655   2.728   2.812   0.560  1.4674 -1.1544 -0.3901
 2032TIP3    H227656   2.735   2.668   0.515 -0.5520 -2.0355  1.8975
 2033TIP3   OH227657   4.191   1.961   0.551 -0.2423 -0.4193 -0.3192
 2033TIP3    H127658   4.109   1.947   0.504  0.7337 -0.1672 -2.1870
 2033TIP3    H227659   4.245   2.013   0.491  1.0819 -0.0854  1.0948
 2034TIP3   OH227660   2.534   2.677   0.776  0.3348 -0.3994  0.5055
 2034TIP3    H127661   2.555   2.728   0.699  2.5439 -2.3844 -0.3430
 2034TIP3    H227662   2.446   2.641   0.759  0.6283 -0.4873 -0.9081
 2035TIP3   OH227663   0.344   5.483   1.062 -0.2219  0.0480 -0.1075
 2035TIP3    H127664   0.391   5.400   1.066  0.1413  0.2406 -0.3437
 2035TIP3    H227665   0.407   5.548   1.093  0.8644  0.8098 -3.4390
 2036TIP3   OH227666   5.208   6.841   7.301 -0.0693  0.3693  0.5063
 2036TIP3    H127667   5.260   6.872   7.228 -0.3276 -0.0205  0.1536
 2036TIP3    H227668   5.271   6.821   7.370  0.3330 -0.9411 -0.2191
 2037TIP3   OH227669   2.317   1.062   1.247  0.2127 -0.4872  0.3218
 2037TIP3    H127670   2.349   1.111   1.322 -0.0045 -1.8598  1.3658
 2037TIP3    H227671   2.233   1.026   1.276  0.7726 -2.1884 -0.0480
 2038TIP3   OH227672   2.395   3.495   1.715  0.2625 -0.4145 -0.5831
 2038TIP3    H127673   2.385   3.498   1.620 -0.8621  0.6879 -0.4595
 2038TIP3    H227674   2.439   3.578   1.737 -0.8509  0.0554 -0.0291
 2039TIP3   OH227675   2.895   6.164   6.038  0.2644 -0.3616  0.2244
 2039TIP3    H127676   2.836   6.235   6.060 -0.2415 -0.5870 -0.3609
 2039TIP3    H227677   2.863   6.089   6.088  0.1726 -0.4318  0.0629
 2040TIP3   OH227678   3.142   3.424   7.027 -0.2359 -0.1744 -0.1689
 2040TIP3    H127679   3.124   3.515   7.006  2.7901  0.3521 -0.9180
 2040TIP3    H227680   3.081   3.374   6.971 -0.8616  1.3447 -0.8908
 2041TIP3   OH227681   0.700   5.022   1.309 -0.2966 -0.3238  0.1506
 2041TIP3    H127682   0.658   5.059   1.387 -0.4981 -0.4763  0.1154
 2041TIP3    H227683   0.791   5.009   1.335  0.0986  1.3659 -0.2269
 2042TIP3   OH227684   1.885   3.046   0.095  0.3115  0.0604  0.3657
 2042TIP3    H127685   1.829   2.987   0.145 -1.1360  0.7053 -0.4253
 2042TIP3    H227686   1.909   3.116   0.157 -0.8385  0.4547  0.3862
 2043TIP3   OH227687   2.053   6.604   8.540 -0.1178  0.7808 -0.7255
 2043TIP3    H127688   2.083   6.690   8.510 -0.2447  0.7748 -0.8735
 2043TIP3    H227689   1.996   6.622   8.614  2.0997  0.6689  1.1255
 2044TIP3   OH227690   4.519   5.747   2.570  0.0050  0.0515  0.0841
 2044TIP3    H127691   4.476   5.714   2.649  0.9425  0.5631  0.8243
 2044TIP3    H227692   4.501   5.681   2.504 -2.0051  0.2951  0.3261
 2045TIP3   OH227693   5.091   5.818   0.385  0.1953 -0.6279 -0.1705
 2045TIP3    H127694   5.041   5.833   0.305 -0.5025 -2.8478 -0.2158
 2045TIP3    H227695   5.036   5.758   0.437  1.9405 -1.6111  0.6242
 2046TIP3   OH227696   2.097   2.304   7.651 -0.4107  0.2382  0.1768
 2046TIP3    H127697   2.066   2.389   7.681 -0.0530  0.8115 -1.0242
 2046TIP3    H227698   2.061   2.294   7.563  0.8253 -0.1460 -0.3070
 2047TIP3   OH227699   6.875   6.737   0.050  0.0761 -0.2143 -0.4474
 2047TIP3    H127700   6.894   6.707   0.138 -1.2806  3.7367  1.4010
 2047TIP3    H227701   6.780   6.724   0.040 -0.1219  1.0913 -0.4918
 2048TIP3   OH227702   1.043   3.745   0.227 -0.2152 -0.2932  0.1256
 2048TIP3    H127703   0.988   3.753   0.305  0.2277  0.3175  0.3811
 2048TIP3    H227704   1.129   3.721   0.261  0.0476  0.2476 -0.1526
 2049TIP3   OH227705   1.821   1.165   7.426  0.1221 -0.7233 -0.2179
 2049TIP3    H127706   1.822   1.236   7.361 -0.2249  0.3741  0.9332
 2049TIP3    H227707   1.856   1.089   7.379  0.2457  0.1296 -1.5692
 2050TIP3   OH227708   0.640   2.109   8.432 -0.0169  0.3215 -0.1957
 2050TIP3    H127709   0.561   2.138   8.387  0.4889  0.2193 -1.1687
 2050TIP3    H227710   0.712   2.128   8.371  0.6709  0.0415  0.5004
 2051TIP3   OH227711   1.688   5.366   1.077 -0.5182 -0.0536 -0.7913
 2051TIP3    H127712   1.644   5.307   1.139  0.0710 -0.6805 -0.9634
 2051TIP3    H227713   1.756   5.312   1.037 -0.5541  0.4992 -1.6034
 2052TIP3   OH227714   5.076   1.966   6.507  0.2488  0.1069 -0.2191
 2052TIP3    H127715   5.089   1.904   6.435  0.5070  0.8745 -0.8353
 2052TIP3    H227716   5.000   2.018   6.480  0.3228  0.3710  0.0855
 2053TIP3   OH227717   6.387   4.673   0.088 -0.3928  0.1801  0.0303
 2053TIP3    H127718   6.341   4.664   0.004 -0.9137 -0.6283  0.3886
 2053TIP3    H227719   6.467   4.621   0.076 -0.4253  0.1346  0.0077
 2054TIP3   OH227720   6.261   3.407   8.170 -0.5017 -0.1092  0.2441
 2054TIP3    H127721   6.289   3.493   8.139 -1.8519  0.8334  1.5144
 2054TIP3    H227722   6.310   3.394   8.251 -0.0764 -0.6842 -0.1008
 2055TIP3   OH227723   1.507   4.363   1.791  0.4153 -0.1549  0.5135
 2055TIP3    H127724   1.413   4.347   1.802  0.4529 -1.7732 -1.1180
 2055TIP3    H227725   1.545   4.337   1.875 -0.5445  0.3158  1.1212
 2056TIP3   OH227726   2.915   5.229   1.671  0.7535  0.1495  0.2088
 2056TIP3    H127727   2.941   5.184   1.752  1.1917  0.2387  0.1166
 2056TIP3    H227728   2.844   5.287   1.698 -0.9813 -1.7535  0.0615
 2057TIP3   OH227729   3.019   4.806   7.219  0.0820 -0.1412 -0.2634
 2057TIP3    H127730   3.029   4.824   7.126 -0.3690  0.6969 -0.1531
 2057TIP3    H227731   3.049   4.886   7.263 -1.1480  0.0597  0.2531
 2058TIP3   OH227732   5.676   0.188   0.422 -0.6262  0.0618 -0.6338
 2058TIP3    H127733   5.593   0.141   0.417  0.2288 -1.4335 -1.3247
 2058TIP3    H227734   5.715   0.177   0.335  1.2361 -1.0948  0.2762
 2059TIP3   OH227735   3.314   6.349   7.632 -0.1442  0.7797  0.7229
 2059TIP3    H127736   3.370   6.393   7.697 -0.7518  0.2709  1.6107
 2059TIP3    H227737   3.270   6.279   7.681  0.1745 -0.3009 -0.4828
 2060TIP3   OH227738   5.749   4.333   2.536 -0.8281  0.9928  0.8576
 2060TIP3    H127739   5.695   4.270   2.584 -1.3681 -0.0297 -0.9815
 2060TIP3    H227740   5.838   4.316   2.565 -0.8671 -1.2029 -0.1381
 2061TIP3   OH227741   6.401   4.928   7.307 -0.6211 -0.1422 -0.0411
 2061TIP3    H127742   6.469   4.996   7.306 -0.5094 -0.2390  0.5421
 2061TIP3    H227743   6.434   4.861   7.247 -0.1834 -0.1994  0.2545
 2062TIP3   OH227744   2.829   6.382   6.815  0.5017 -0.3549 -0.4348
 2062TIP3    H127745   2.879   6.373   6.733  0.6719 -0.9478 -0.2708
 2062TIP3    H227746   2.893   6.365   6.884  0.3263  0.0080 -0.1777
 2063TIP3   OH227747   4.711   1.416   1.121  0.1790 -0.0361  0.4457
 2063TIP3    H127748   4.807   1.409   1.127  0.0273 -1.7647  1.6987
 2063TIP3    H227749   4.690   1.498   1.165  1.0490 -0.0607  0.9333
 2064TIP3   OH227750   2.140   4.310   6.179 -0.4013  0.5374  0.2466
 2064TIP3    H127751   2.062   4.261   6.203 -1.6721  1.5599 -1.5597
 2064TIP3    H227752   2.114   4.402   6.187  0.5643  0.8961 -0.4597
 2065TIP3   OH227753   2.188   4.768   1.033 -0.1286 -0.4294  0.0646
 2065TIP3    H127754   2.205   4.756   0.939 -0.8483 -0.6056 -0.0486
 2065TIP3    H227755   2.256   4.717   1.076  0.6349  0.2082 -0.3468
 2066TIP3   OH227756   2.643   5.514   0.676 -0.1661  0.6713  0.4486
 2066TIP3    H127757   2.571   5.478   0.624  0.8539  0.5977 -0.9576
 2066TIP3    H227758   2.601   5.575   0.736 -1.3290  1.1875 -0.8397
 2067TIP3   OH227759   0.371   3.279   0.993  0.1819  0.0430 -0.6461
 2067TIP3    H127760   0.351   3.363   1.034  0.4298  0.3436 -1.1355
 2067TIP3    H227761   0.286   3.235   0.986  0.3179 -0.7505  1.7434
 2068TIP3   OH227762   0.794   0.314   2.398 -0.4340  0.1723 -0.3663
 2068TIP3    H127763   0.882   0.276   2.407  0.9176  2.8345 -1.1916
 2068TIP3    H227764   0.771   0.299   2.306 -0.0193  1.0651 -0.6217
 2069TIP3   OH227765   3.502   4.203   7.798 -0.0791 -0.1775 -0.1142
 2069TIP3    H127766   3.566   4.147   7.842  0.2704  0.3848  0.1124
 2069TIP3    H227767   3.418   4.159   7.811  0.2885 -1.0578 -0.6397
 2070TIP3   OH227768   5.944   4.916   7.990 -0.0526 -0.3226 -0.0503
 2070TIP3    H127769   5.916   4.969   8.064 -0.1200  1.0175 -0.9889
 2070TIP3    H227770   6.040   4.912   7.998  0.1763  1.7095 -1.0413
 2071TIP3   OH227771   0.664   6.629   8.354 -0.0625 -0.0568  0.2413
 2071TIP3    H127772   0.583   6.669   8.322 -0.5178 -1.1844 -0.0418
 2071TIP3    H227773   0.647   6.535   8.352  2.7152 -0.6998 -4.0019
 2072TIP3   OH227774   6.881   4.130   0.064  0.0790  0.8556 -0.3182
 2072TIP3    H127775   6.968   4.152   0.098 -0.2145  0.6472  0.6152
 2072TIP3    H227776   6.889   4.040   0.033 -0.3550 -0.0118  1.9031
 2073TIP3   OH227777   2.381   5.027   0.045  0.0806 -0.8642 -0.1061
 2073TIP3    H127778   2.302   5.058   0.000  1.4104 -0.2940 -2.1880
 2073TIP3    H227779   2.394   4.939   0.010  0.3472 -0.9856  0.2962
 2074TIP3   OH227780   4.981   3.941   7.479  0.1959 -0.0101 -0.1256
 2074TIP3    H127781   4.932   3.883   7.421  0.5505 -1.2545  0.7591
 2074TIP3    H227782   5.041   3.882   7.525  0.5778  1.0795  0.8086
 2075TIP3   OH227783   4.987   3.602   1.530  0.3197 -0.4476 -0.2332
 2075TIP3    H127784   4.932   3.530   1.499  2.7665 -0.8892 -4.3187
 2075TIP3    H227785   5.043   3.561   1.596  1.1987 -2.2642 -1.9856
 2076TIP3   OH227786   5.051   3.476   7.011  0.2115  0.3845 -0.0858
 2076TIP3    H127787   5.098   3.546   7.055  0.2172  0.5545 -0.3593
 2076TIP3    H227788   5.120   3.419   6.976  0.2113 -0.1141  0.6820
 2077TIP3   OH227789   0.209   4.183   0.234  0.0914  0.0112 -0.1336
 2077TIP3    H127790   0.199   4.261   0.288 -0.9045  0.5709 -1.0784
 2077TIP3    H227791   0.295   4.194   0.193  0.9324 -0.5075  1.4224
 2078TIP3   OH227792   6.145   3.503   7.305  0.4223  0.3799 -0.2389
 2078TIP3    H127793   6.210   3.458   7.359 -0.3094  0.1585  0.4685
 2078TIP3    H227794   6.138   3.591   7.343 -1.9362 -0.5336  1.7004
 2079TIP3   OH227795   6.396   2.600   0.133 -0.1651 -0.5035  0.0262
 2079TIP3    H127796   6.434   2.640   0.055 -2.0850  0.7136 -0.3464
 2079TIP3    H227797   6.346   2.525   0.100 -1.0995  0.0986  0.0363
 2080TIP3   OH227798   5.470   4.434   1.376  0.0700 -0.2637 -0.4156
 2080TIP3    H127799   5.476   4.358   1.434  0.3051 -0.4879 -0.7333
 2080TIP3    H227800   5.494   4.509   1.432 -1.9952 -0.1620  0.4101
 2081TIP3   OH227801   0.837   6.453   2.080 -0.1556 -0.0283 -0.3067
 2081TIP3    H127802   0.834   6.515   2.153  1.8119  0.4005 -0.5333
 2081TIP3    H227803   0.753   6.407   2.085 -1.4992  2.2967  0.1462
 2082TIP3   OH227804   4.604   2.894   2.516  0.1210 -0.0339  0.6457
 2082TIP3    H127805   4.536   2.845   2.470  2.9567 -1.9316 -1.8988
 2082TIP3    H227806   4.594   2.983   2.485 -0.9690 -0.3339  0.0678
 2083TIP3   OH227807   3.280   2.456   7.402 -0.0820 -0.4167  0.0416
 2083TIP3    H127808   3.342   2.523   7.432  0.2137  0.1437 -1.6768
 2083TIP3    H227809   3.197   2.480   7.442  0.5946 -0.6696  1.6772
 2084TIP3   OH227810   1.027   4.972   1.096  0.0400  0.5104  0.1067
 2084TIP3    H127811   1.001   4.884   1.067 -2.4054  1.3797 -0.6148
 2084TIP3    H227812   1.034   4.966   1.191  0.2176 -0.5381  0.0337
 2085TIP3   OH227813   2.873   5.037   8.569 -0.4116  0.2847  0.7027
 2085TIP3    H127814   2.805   5.085   8.616 -0.7914  0.1471  0.3141
 2085TIP3    H227815   2.865   5.067   8.478 -1.2880 -1.1615  0.2634
 2086TIP3   OH227816   5.655   6.813   7.438  0.5441 -0.3357 -0.3029
 2086TIP3    H127817   5.571   6.773   7.461  0.8554 -0.5188  0.5494
 2086TIP3    H227818   5.716   6.739   7.436  0.7377 -0.1673 -0.6556
 2087TIP3   OH227819   1.732   3.467   1.225  0.3180 -0.1288  0.1366
 2087TIP3    H127820   1.769   3.446   1.311 -1.4816 -1.0296  0.7271
 2087TIP3    H227821   1.753   3.391   1.170 -3.0168 -2.1046  1.2825
 2088TIP3   OH227822   5.204   4.816   0.812  0.7732  0.9152  0.0742
 2088TIP3    H127823   5.266   4.879   0.775  0.1378  0.2667 -2.2359
 2088TIP3    H227824   5.119   4.844   0.779  0.4019 -0.7849 -0.4766
 2089TIP3   OH227825   1.428   2.236   8.045 -0.0507 -0.1677  0.1645
 2089TIP3    H127826   1.426   2.208   7.953  0.1342 -1.1330  0.4448
 2089TIP3    H227827   1.521   2.232   8.069  0.0939  1.4616  0.0031
 2090TIP3   OH227828   2.579   5.091   1.886 -0.5904  0.2909 -0.2366
 2090TIP3    H127829   2.619   5.170   1.924 -0.6855 -0.2219  0.9584
 2090TIP3    H227830   2.646   5.023   1.898 -1.5197 -0.4233  1.1912
 2091TIP3   OH227831   0.163   4.773   7.846 -0.2909  0.5170  0.0441
 2091TIP3    H127832   0.162   4.801   7.937 -0.6357  1.3195 -0.1948
 2091TIP3    H227833   0.166   4.855   7.796 -3.0943  0.2721 -0.7192
 2092TIP3   OH227834   3.607   2.997   7.937  0.9395 -0.0283 -0.5373
 2092TIP3    H127835   3.623   2.903   7.939 -0.5176 -0.2897 -0.7834
 2092TIP3    H227836   3.666   3.030   7.869 -0.9635 -1.2658 -2.9364
 2093TIP3   OH227837   0.844   6.006   0.126 -0.0610 -0.0724 -0.0356
 2093TIP3    H127838   0.835   5.913   0.148  1.1146 -0.2075 -0.0664
 2093TIP3    H227839   0.925   6.011   0.075 -0.6375  0.8297 -0.8940
 2094TIP3   OH227840   1.568   4.934   1.023 -0.2892 -0.2476  0.1310
 2094TIP3    H127841   1.562   4.968   0.934 -1.3002 -1.3233 -0.2396
 2094TIP3    H227842   1.478   4.908   1.044 -0.1708  0.5127  1.6836
 2095TIP3   OH227843   1.428   2.623   6.786  0.2525 -0.1605  0.4663
 2095TIP3    H127844   1.473   2.674   6.719  0.6425  0.6907  1.3605
 2095TIP3    H227845   1.447   2.532   6.763  0.3078  0.1087 -0.6191
 2096TIP3   OH227846   3.098   3.366   7.441 -0.3680 -0.0966  0.0940
 2096TIP3    H127847   3.130   3.298   7.381  0.9123 -1.0622  1.7861
 2096TIP3    H227848   3.006   3.343   7.455  0.3148 -2.2892  1.5560
 2097TIP3   OH227849   2.954   5.607   7.322  0.3201 -0.0595  0.2692
 2097TIP3    H127850   3.008   5.601   7.243  1.9868 -0.7910  1.4104
 2097TIP3    H227851   2.903   5.525   7.323  0.4375 -0.1351  0.0598
 2098TIP3   OH227852   3.149   0.974   0.706  0.3362  0.5163  0.4185
 2098TIP3    H127853   3.169   1.064   0.733 -0.4470  1.0017 -0.5311
 2098TIP3    H227854   3.142   0.979   0.610  1.5640 -0.8353  0.2177
 2099TIP3   OH227855   5.202   2.227   8.266  0.2800  0.1156 -0.0303
 2099TIP3    H127856   5.186   2.133   8.269 -0.3205  0.2326  1.3676
 2099TIP3    H227857   5.180   2.257   8.354  1.1794  1.4500 -0.2320
 2100TIP3   OH227858   2.310   0.146   0.490  0.8464 -0.0213  0.2994
 2100TIP3    H127859   2.325   0.223   0.434  0.4444 -0.7107 -0.7885
 2100TIP3    H227860   2.224   0.114   0.464  0.0677  0.3632  2.2286
 2101TIP3   OH227861   5.135   3.734   0.641 -0.0493 -0.4753 -0.3012
 2101TIP3    H127862   5.079   3.778   0.576 -0.8518  0.1539  0.7792
 2101TIP3    H227863   5.130   3.641   0.617 -0.9266 -0.3405 -0.7116
 2102TIP3   OH227864   0.669   6.450   0.605 -0.5096  0.1718  0.2090
 2102TIP3    H127865   0.691   6.408   0.688  0.5631  0.5371  0.1239
 2102TIP3    H227866   0.740   6.425   0.546  1.0537  3.3182  0.5673
 2103TIP3   OH227867   0.026   1.424   0.424 -0.1866  0.2071  0.4544
 2103TIP3    H127868  -0.018   1.342   0.399  0.8621 -0.7050  1.5194
 2103TIP3    H227869   0.105   1.396   0.470  0.1855  1.8305  0.8559
 2104TIP3   OH227870   6.743   2.541   0.783 -0.0649 -0.9356  0.0230
 2104TIP3    H127871   6.658   2.510   0.814 -0.7787  1.1833  0.2873
 2104TIP3    H227872   6.799   2.538   0.860 -1.1211  1.7832  1.0180
 2105TIP3   OH227873   1.802   5.644   6.759  0.2451 -0.5905 -0.1666
 2105TIP3    H127874   1.840   5.558   6.739 -0.9174 -0.9953 -0.7313
 2105TIP3    H227875   1.860   5.707   6.717  1.0986 -1.0957  0.2336
 2106TIP3   OH227876   4.720   5.800   1.766 -0.0201  0.1662 -0.2438
 2106TIP3    H127877   4.814   5.807   1.752  0.0104  1.3183  0.4635
 2106TIP3    H227878   4.682   5.826   1.682  0.2720 -0.3271 -0.5402
 2107TIP3   OH227879   4.117   2.652   7.791 -0.0930 -0.4021  0.4196
 2107TIP3    H127880   4.193   2.700   7.758 -0.6067  0.2082  0.0767
 2107TIP3    H227881   4.137   2.560   7.776  2.3225 -0.6368  3.9887
 2108TIP3   OH227882   1.285   5.792   0.441  0.5683  0.4764 -0.1820
 2108TIP3    H127883   1.291   5.884   0.469  1.1449  0.3262  0.2061
 2108TIP3    H227884   1.252   5.746   0.518  0.5341  0.3203 -0.2907
 2109TIP3   OH227885   3.589   5.828   7.585  0.3410  0.1129 -0.1321
 2109TIP3    H127886   3.585   5.733   7.575  1.9400  0.1302 -1.2532
 2109TIP3    H227887   3.654   5.856   7.520 -1.8147  2.2312 -1.5292
 2110TIP3   OH227888   6.276   4.313   1.520  0.0911 -0.5789 -0.2753
 2110TIP3    H127889   6.281   4.295   1.614  0.0722  1.4775  0.1477
 2110TIP3    H227890   6.199   4.368   1.510  0.8064  0.2737 -1.3100
 2111TIP3   OH227891   4.035   1.261   1.462  0.2208 -0.5669 -0.2069
 2111TIP3    H127892   4.062   1.275   1.552  1.3375 -2.7794 -0.1247
 2111TIP3    H227893   3.961   1.200   1.468 -0.0232 -0.3305 -0.7561
 2112TIP3   OH227894   1.925   6.207   7.998  0.0030 -0.4178 -0.3827
 2112TIP3    H127895   1.931   6.112   7.994 -1.3394 -0.4745 -1.5726
 2112TIP3    H227896   1.955   6.237   7.912  1.1353  0.3029  0.2350
 2113TIP3   OH227897   0.584   1.471   1.121  0.2314  0.2447 -0.0337
 2113TIP3    H127898   0.596   1.528   1.045 -0.0971  0.7417  0.2786
 2113TIP3    H227899   0.629   1.390   1.098 -0.7317  0.0129 -1.1634
 2114TIP3   OH227900   2.316   0.693   1.247 -0.3600  0.5532 -0.3978
 2114TIP3    H127901   2.388   0.673   1.306  0.0977  1.0073 -0.7920
 2114TIP3    H227902   2.237   0.680   1.300 -0.0524 -1.1168 -0.3062
 2115TIP3   OH227903   6.768   5.825   1.132  0.2035  0.0659  0.5560
 2115TIP3    H127904   6.770   5.868   1.046  3.1132  1.5107  1.2254
 2115TIP3    H227905   6.763   5.897   1.195  0.1456 -0.8643  1.6443
 2116TIP3   OH227906   1.691   3.892   7.085 -0.0899  0.2007 -0.0755
 2116TIP3    H127907   1.670   3.946   7.009 -1.3077 -0.1525 -0.0056
 2116TIP3    H227908   1.778   3.857   7.066 -0.5492 -0.2146 -1.5071
 2117TIP3   OH227909   0.267   0.572   1.892 -0.0072  0.7407 -0.3498
 2117TIP3    H127910   0.239   0.603   1.978  1.8456  0.7412  0.2967
 2117TIP3    H227911   0.318   0.494   1.910 -0.3855  0.1885 -1.5521
 2118TIP3   OH227912   2.086   2.005   7.156  0.1101  0.7356  0.2945
 2118TIP3    H127913   2.136   1.930   7.124 -0.4049  0.4406  0.1558
 2118TIP3    H227914   2.057   1.979   7.244  0.0067  0.8082  0.2825
 2119TIP3   OH227915   0.011   4.632   1.735 -0.2650  0.3286  0.3738
 2119TIP3    H127916  -0.047   4.626   1.660 -0.6266  2.1194  0.4439
 2119TIP3    H227917  -0.007   4.554   1.787  0.2269 -1.0954 -1.5245
 2120TIP3   OH227918   5.294   2.971   7.481  0.0561 -0.2298  0.3935
 2120TIP3    H127919   5.359   3.041   7.468  0.3355 -0.7818 -1.5557
 2120TIP3    H227920   5.213   3.017   7.501  0.2344  0.6905 -0.8367
 2121TIP3   OH227921   0.730   3.724   8.082 -0.5056  0.7811 -0.6011
 2121TIP3    H127922   0.741   3.790   8.151 -0.8566  0.3093 -0.0818
 2121TIP3    H227923   0.816   3.682   8.075 -0.7227  0.1620  0.2598
 2122TIP3   OH227924   2.053   4.259   7.970 -0.2525  0.0541 -0.0821
 2122TIP3    H127925   2.060   4.168   7.998  0.6964 -0.1718 -0.9638
 2122TIP3    H227926   1.983   4.296   8.023 -1.2379 -1.4156 -0.3189
 2123TIP3   OH227927   6.044   0.717   1.384  0.1259 -0.1652  0.1536
 2123TIP3    H127928   6.029   0.778   1.456  0.3568 -0.5892  0.5602
 2123TIP3    H227929   5.956   0.699   1.350 -0.0113 -0.2259  0.5391
 2124TIP3   OH227930   6.748   0.942   0.601 -0.0809  0.6980  0.1051
 2124TIP3    H127931   6.726   1.030   0.629  1.7053  1.0964  0.3761
 2124TIP3    H227932   6.815   0.954   0.534 -0.5566 -0.4352 -0.6150
 2125TIP3   OH227933   3.269   2.377   0.444  0.5949 -0.0379 -0.3003
 2125TIP3    H127934   3.218   2.307   0.485  3.1907 -1.6516  0.4546
 2125TIP3    H227935   3.248   2.456   0.495  0.3031 -1.0629  1.2311
 2126TIP3   OH227936   4.513   6.821   0.339  0.1491 -0.4593 -0.1010
 2126TIP3    H127937   4.547   6.747   0.288  0.4197 -1.0262  0.8819
 2126TIP3    H227938   4.424   6.796   0.363  0.3325 -0.5844  0.4585
 2127TIP3   OH227939   2.811   5.414   6.481 -0.2837  0.3206 -0.2389
 2127TIP3    H127940   2.827   5.332   6.527 -1.0326  0.3471  0.0798
 2127TIP3    H227941   2.770   5.471   6.546  0.5197  1.0661 -0.3634
 2128TIP3   OH227942   0.400   2.914   1.055  0.4437  0.5400 -0.7809
 2128TIP3    H127943   0.461   2.917   0.982  0.7262  2.4065 -0.5132
 2128TIP3    H227944   0.316   2.890   1.015  1.1264 -1.0983 -1.2902
 2129TIP3   OH227945   1.278   6.250   2.677  0.4541 -0.1885 -0.4980
 2129TIP3    H127946   1.293   6.312   2.749  0.2516  0.7069 -1.2103
 2129TIP3    H227947   1.349   6.267   2.615  0.6662 -1.0025 -0.4982
 2130TIP3   OH227948   2.132   4.651   6.054  0.0727 -0.3811 -0.2332
 2130TIP3    H127949   2.209   4.703   6.076 -1.0078  1.7094 -1.1437
 2130TIP3    H227950   2.137   4.641   5.958  1.3631 -3.8942  0.0404
 2131TIP3   OH227951   0.591   2.678   1.285  0.0692  0.5048  0.6006
 2131TIP3    H127952   0.651   2.744   1.250  1.6476 -1.5240 -0.7300
 2131TIP3    H227953   0.646   2.601   1.299 -2.1837 -1.4910 -0.7698
 2132TIP3   OH227954   6.706   2.532   0.496 -0.0265 -0.3679 -0.3925
 2132TIP3    H127955   6.619   2.573   0.488  0.0449 -0.2317 -0.4811
 2132TIP3    H227956   6.739   2.563   0.580  0.8613  1.3858 -1.3363
 2133TIP3   OH227957   0.998   5.329   0.324 -0.1950  0.4948 -0.3945
 2133TIP3    H127958   1.050   5.349   0.246 -1.1812  0.9483 -0.9640
 2133TIP3    H227959   0.949   5.409   0.342 -1.1763 -0.1018 -0.2743
 2134TIP3   OH227960   0.141   1.492   7.344  0.0163  0.0885 -0.1158
 2134TIP3    H127961   0.176   1.406   7.321  0.1641  0.0303  0.3186
 2134TIP3    H227962   0.209   1.531   7.400 -0.2703  0.2872  0.0921
 2135TIP3   OH227963   6.243   6.524   1.234  0.1243  0.2635 -0.1493
 2135TIP3    H127964   6.161   6.488   1.199 -0.3174 -0.5154  1.5860
 2135TIP3    H227965   6.303   6.450   1.234 -0.4921 -0.3318  2.5226
 2136TIP3   OH227966   6.223   4.673   7.158  0.2565  0.4074 -0.0736
 2136TIP3    H127967   6.136   4.662   7.121  0.4101  2.4518 -1.1990
 2136TIP3    H227968   6.212   4.659   7.252 -1.1348  0.0041 -0.2828
 2137TIP3   OH227969   0.942   5.692   7.369 -0.3622 -0.1325 -0.0291
 2137TIP3    H127970   0.987   5.776   7.356  1.5409 -1.2914 -1.3604
 2137TIP3    H227971   0.971   5.664   7.456 -0.5239  0.2815  0.1645
 2138TIP3   OH227972   3.585   2.927   6.291  0.5555  0.0845 -0.3570
 2138TIP3    H127973   3.511   2.869   6.308 -0.3129  1.3594  0.4301
 2138TIP3    H227974   3.546   3.002   6.245  1.1439  1.2656  1.0012
 2139TIP3   OH227975   2.418   0.528   0.441 -0.3370 -0.3525  0.2553
 2139TIP3    H127976   2.323   0.519   0.428 -0.2226 -1.0658 -0.1761
 2139TIP3    H227977   2.456   0.459   0.386  0.4829  0.5564 -0.3571
 2140TIP3   OH227978   2.964   2.741   6.368  0.1731 -0.4853 -0.3566
 2140TIP3    H127979   2.948   2.705   6.281 -3.4637 -0.2546  0.0818
 2140TIP3    H227980   3.009   2.670   6.415 -1.3076 -2.1491 -1.3145
 2141TIP3   OH227981   5.360   6.581   6.210 -0.1377  0.6899  0.0423
 2141TIP3    H127982   5.424   6.534   6.156  0.3294  2.6633 -1.2330
 2141TIP3    H227983   5.313   6.512   6.257  3.3443 -0.8498  1.6249
 2142TIP3   OH227984   1.838   4.802   0.166  0.3797  0.1020 -0.7952
 2142TIP3    H127985   1.848   4.729   0.227 -0.1092 -0.1161 -0.9758
 2142TIP3    H227986   1.897   4.869   0.199  0.0551  0.0146 -0.0378
 2143TIP3   OH227987   4.776   4.756   2.124 -0.1623 -0.4576  0.3633
 2143TIP3    H127988   4.712   4.811   2.169 -0.3136  0.0060 -0.4007
 2143TIP3    H227989   4.727   4.716   2.052  0.1814 -0.8502  0.3395
 2144TIP3   OH227990   5.745   6.571   7.998  0.4548 -0.7130 -0.1502
 2144TIP3    H127991   5.687   6.508   7.955 -1.2704 -0.1666  1.2292
 2144TIP3    H227992   5.833   6.536   7.984 -0.2754 -2.1820 -1.3893
 2145TIP3   OH227993   1.597   6.672   0.842 -0.2259  0.3151  0.0892
 2145TIP3    H127994   1.563   6.712   0.761 -1.6650 -0.6328  0.1898
 2145TIP3    H227995   1.584   6.578   0.830 -2.2221  0.2370  2.1207
 2146TIP3   OH227996   0.760   4.561   6.492  0.3279  0.0410  0.4220
 2146TIP3    H127997   0.852   4.554   6.467 -0.0095 -1.1997 -0.5611
 2146TIP3    H227998   0.717   4.598   6.415 -0.6032 -3.1276 -0.7138
 2147TIP3   OH227999   0.672   3.218   7.656  0.5604 -0.2231 -0.2174
 2147TIP3    H128000   0.636   3.278   7.722 -0.2425  1.6418 -2.2104
 2147TIP3    H228001   0.672   3.133   7.698  3.0860  1.2800  3.3380
 2148TIP3   OH228002   4.336   0.243   0.923 -0.1523  0.3476  0.5594
 2148TIP3    H128003   4.257   0.294   0.945 -0.5603 -0.3613  0.7796
 2148TIP3    H228004   4.326   0.223   0.830 -0.5958 -0.3491  0.7506
 2149TIP3   OH228005   5.253   3.459   7.917 -0.1064 -0.0003  0.0427
 2149TIP3    H128006   5.267   3.470   8.011 -1.0591  0.0358  0.1860
 2149TIP3    H228007   5.239   3.365   7.905 -3.6108  0.3458  0.4888
 2150TIP3   OH228008   3.122   3.114   0.856 -0.2204  0.2016  0.2182
 2150TIP3    H128009   3.026   3.111   0.853 -0.3325  2.5233 -2.1589
 2150TIP3    H228010   3.149   3.076   0.773  0.8060  1.4110 -0.0214
 2151TIP3   OH228011   6.406   1.074   8.470  0.1329 -0.1651 -0.1278
 2151TIP3    H128012   6.374   1.107   8.554 -0.8390 -0.4991 -0.3492
 2151TIP3    H228013   6.390   1.145   8.408 -2.7613 -1.2306 -0.7818
 2152TIP3   OH228014   1.826   2.349   1.455  0.4233 -0.1905  0.5460
 2152TIP3    H128015   1.910   2.329   1.415 -0.1432 -0.2488 -0.6592
 2152TIP3    H228016   1.791   2.422   1.403 -0.6288 -0.7033  0.4920
 2153TIP3   OH228017   4.269   3.316   2.126  0.7896  0.1338 -0.0806
 2153TIP3    H128018   4.220   3.396   2.109  1.1810  0.0626 -1.6719
 2153TIP3    H228019   4.202   3.248   2.131  0.5758  0.3387 -0.1518
 2154TIP3   OH228020   4.464   3.638   6.112  0.3133  0.3754 -0.3413
 2154TIP3    H128021   4.394   3.616   6.052  1.2331 -0.5142 -1.1371
 2154TIP3    H228022   4.523   3.562   6.109  0.4567  0.3522  1.5829
 2155TIP3   OH228023   1.626   4.268   6.999  0.0948 -0.2372  0.4758
 2155TIP3    H128024   1.600   4.315   6.920  1.9185  0.0915  0.0287
 2155TIP3    H228025   1.559   4.201   7.010 -1.5522  1.2664  0.0750
 2156TIP3   OH228026   5.996   3.184   1.101  0.1088  0.5983  0.0239
 2156TIP3    H128027   6.003   3.254   1.166 -0.9456  0.4867  0.2854
 2156TIP3    H228028   5.902   3.163   1.099  0.1878  0.2797 -1.1891
 2157TIP3   OH228029   1.567   1.142   0.546 -0.5364 -0.0213  0.4040
 2157TIP3    H128030   1.604   1.212   0.493 -0.6244 -0.7443 -0.6467
 2157TIP3    H228031   1.540   1.075   0.483  1.1178 -1.7825  1.4442
 2158TIP3   OH228032   5.591   1.148   2.176  0.7222  0.4286 -0.8339
 2158TIP3    H128033   5.566   1.239   2.159  1.9759  0.9559  0.0165
 2158TIP3    H228034   5.653   1.153   2.249  1.1762 -1.0636 -1.0789
 2159TIP3   OH228035   1.294   0.564   2.001 -0.1111 -0.0665  0.1320
 2159TIP3    H128036   1.367   0.502   2.003  1.9966  2.2792  1.0566
 2159TIP3    H228037   1.236   0.529   1.934  1.4922 -2.4178 -0.1880
 2160TIP3   OH228038   3.027   0.204   0.324 -0.1684 -0.1224  0.0330
 2160TIP3    H128039   2.936   0.182   0.345 -0.3075  0.9435  0.5705
 2160TIP3    H228040   3.061   0.245   0.403  1.6470 -2.9167  0.8603
 2161TIP3   OH228041   2.212   0.264   1.578  0.4130  0.1215  0.3769
 2161TIP3    H128042   2.181   0.260   1.669 -0.2252 -1.0525  0.1176
 2161TIP3    H228043   2.134   0.253   1.525  0.6784  1.5234 -0.3589
 2162TIP3   OH228044   5.930   1.562   1.497  0.3371 -0.0646 -0.3034
 2162TIP3    H128045   5.869   1.580   1.426  0.3545  0.8964 -0.0933
 2162TIP3    H228046   6.008   1.613   1.475  0.9695 -1.0553 -0.4235
 2163TIP3   OH228047   6.887   3.454   8.502 -0.1496  0.4421  0.2321
 2163TIP3    H128048   6.804   3.498   8.488 -0.8059 -0.2619  1.6847
 2163TIP3    H228049   6.953   3.521   8.486 -1.0602  1.4961  0.7769
 2164TIP3   OH228050   0.730   3.449   0.634 -0.0623  0.4692 -0.2428
 2164TIP3    H128051   0.650   3.404   0.607 -0.5770  1.0848  0.2258
 2164TIP3    H228052   0.700   3.522   0.688  0.8628  0.1294  0.7734
 2165TIP3   OH228053   5.743   5.588   2.528  0.3732  0.0195  0.4275
 2165TIP3    H128054   5.785   5.502   2.533 -0.8156 -0.8393 -2.3531
 2165TIP3    H228055   5.808   5.644   2.487 -0.1718 -0.6744 -1.5302
 2166TIP3   OH228056   6.035   6.722   1.120  0.7145 -0.1427  0.0005
 2166TIP3    H128057   6.107   6.683   1.168  0.4140  1.4995  1.9167
 2166TIP3    H228058   6.064   6.811   1.099  0.2557 -0.3319 -1.5954
 2167TIP3   OH228059   6.288   6.327   0.926 -0.0577  0.2494 -0.0349
 2167TIP3    H128060   6.208   6.374   0.951  0.5391  1.0717  0.3853
 2167TIP3    H228061   6.351   6.349   0.994  1.2823  1.6518 -1.6133
 2168TIP3   OH228062   0.633   3.646   1.518  0.3558 -0.6198  0.0173
 2168TIP3    H128063   0.581   3.660   1.597  0.5842  0.9762 -0.0760
 2168TIP3    H228064   0.618   3.555   1.495 -1.7778 -0.4292  0.4389
 2169TIP3   OH228065   2.591   4.988   6.988  0.1222  0.3300  0.3952
 2169TIP3    H128066   2.605   5.081   6.973  0.3623  0.3973  1.0203
 2169TIP3    H228067   2.640   4.968   7.067  4.2301 -1.4081 -2.2533
 2170TIP3   OH228068   2.043   0.659   8.392  0.4618 -0.7394  0.3142
 2170TIP3    H128069   1.984   0.612   8.451  1.8218 -0.7422  1.7405
 2170TIP3    H228070   2.102   0.706   8.450  1.0498  0.3120 -1.0811
 2171TIP3   OH228071   2.893   2.146   7.704 -0.5136 -0.0509  0.0645
 2171TIP3    H128072   2.916   2.228   7.747 -0.9833  0.1120  0.0072
 2171TIP3    H228073   2.819   2.168   7.647 -0.8810 -0.5844  0.3223
 2172TIP3   OH228074   0.806   0.757   6.311 -0.1427  0.0020 -0.1555
 2172TIP3    H128075   0.727   0.731   6.358 -0.1020  1.8558  1.0313
 2172TIP3    H228076   0.878   0.725   6.366 -0.0913  0.7682  0.2327
 2173TIP3   OH228077   0.449   5.734   1.536  0.5183 -0.5912 -0.2163
 2173TIP3    H128078   0.389   5.767   1.602 -0.1042 -1.0344 -0.5490
 2173TIP3    H228079   0.508   5.675   1.584  2.4192  1.8201  0.6266
 2174TIP3   OH228080   2.663   6.274   7.241  0.2551  0.9086  0.0105
 2174TIP3    H128081   2.746   6.228   7.256  1.6259  2.7093 -1.5404
 2174TIP3    H228082   2.688   6.352   7.192 -2.2448  2.1460  0.5589
 2175TIP3   OH228083   2.868   5.729   8.494 -0.0328 -0.5571 -0.1745
 2175TIP3    H128084   2.894   5.762   8.408  0.2719 -1.7992 -0.5788
 2175TIP3    H228085   2.818   5.801   8.533 -0.9330 -0.2822 -1.7371
 2176TIP3   OH228086   2.332   1.123   8.556  0.1143  0.3571 -0.5503
 2176TIP3    H128087   2.355   1.032   8.538 -1.1883 -0.2848  0.8594
 2176TIP3    H228088   2.303   1.158   8.471  1.6642 -0.1771 -1.3388
 2177TIP3   OH228089   1.137   2.000   7.878  0.0088 -0.0298 -0.7327
 2177TIP3    H128090   1.213   1.943   7.886 -1.4665 -1.9804  0.2150
 2177TIP3    H228091   1.105   1.985   7.789  2.6807  3.5723 -2.5606
 2178TIP3   OH228092   1.175   4.888   7.304 -0.1819 -0.4441  0.4464
 2178TIP3    H128093   1.141   4.916   7.389  0.9704 -0.0522  0.7976
 2178TIP3    H228094   1.270   4.885   7.316  0.0177 -0.1264 -0.9050
 2179TIP3   OH228095   3.931   6.236   2.477  0.0485  0.3431 -0.5558
 2179TIP3    H128096   3.956   6.255   2.387  3.1217 -0.2201  0.0513
 2179TIP3    H228097   3.982   6.158   2.500 -0.0206  0.9187  1.8796
 2180TIP3   OH228098   5.145   3.503   1.729 -0.0519 -0.0432 -0.0070
 2180TIP3    H128099   5.236   3.527   1.711  0.6458 -2.8217 -0.6110
 2180TIP3    H228100   5.142   3.496   1.825  0.3089  0.2640  0.0323
 2181TIP3   OH228101   1.519   5.698   7.629 -0.0412 -0.0016  0.2203
 2181TIP3    H128102   1.577   5.625   7.608  0.8603  0.7829 -0.0814
 2181TIP3    H228103   1.477   5.719   7.546 -2.6055 -2.0623  0.8570
 2182TIP3   OH228104   4.726   0.141   0.641 -0.2790 -0.3501  0.0344
 2182TIP3    H128105   4.717   0.046   0.633  0.9800 -0.3408 -2.7433
 2182TIP3    H228106   4.795   0.153   0.706  1.7713 -1.5315 -1.7916
 2183TIP3   OH228107   6.423   5.533   1.402  0.1579  0.0703  0.0418
 2183TIP3    H128108   6.464   5.619   1.410  1.1143 -0.3252 -0.4057
 2183TIP3    H228109   6.402   5.526   1.309  0.6167 -0.4033 -0.0323
 2184TIP3   OH228110   4.456   3.020   0.864  0.5318 -0.1346  0.8315
 2184TIP3    H128111   4.442   2.928   0.843  0.6469 -0.0399  0.3081
 2184TIP3    H228112   4.535   3.021   0.917  1.4571 -0.1978 -0.4957
 2185TIP3   OH228113   4.515   5.427   2.054  0.1484  0.3842 -0.4328
 2185TIP3    H128114   4.565   5.506   2.075 -0.3307  0.8601 -1.0375
 2185TIP3    H228115   4.568   5.382   1.988 -0.0978  0.7698 -0.9008
 2186TIP3   OH228116   3.883   1.992   1.627 -0.0236 -0.1214 -0.0863
 2186TIP3    H128117   3.803   2.013   1.580 -0.3366 -0.6804  0.1837
 2186TIP3    H228118   3.858   1.991   1.719 -0.6447 -3.9231 -0.1497
 2187TIP3   OH228119   1.815   0.441   1.594  0.1916 -0.7112 -0.5732
 2187TIP3    H128120   1.815   0.405   1.683  1.5529 -2.5026 -1.2340
 2187TIP3    H228121   1.729   0.481   1.584 -1.1008 -2.9608  0.6232
 2188TIP3   OH228122   3.796   1.761   7.062  0.0849  0.6575  0.0196
 2188TIP3    H128123   3.888   1.735   7.054  0.6036  1.9337  1.3326
 2188TIP3    H228124   3.747   1.691   7.019  1.3065 -2.8299  3.7047
 2189TIP3   OH228125   4.517   6.318   0.431 -0.9199  0.0210 -0.1491
 2189TIP3    H128126   4.490   6.276   0.349 -0.7831 -1.3655  0.4910
 2189TIP3    H228127   4.505   6.250   0.497 -1.6165  1.3025  1.0924
 2190TIP3   OH228128   6.809   5.396   7.396 -0.1635 -0.1686 -0.0736
 2190TIP3    H128129   6.834   5.329   7.333 -1.7036  1.5604 -2.7432
 2190TIP3    H228130   6.880   5.460   7.393 -0.4443  0.1360 -0.4654
 2191TIP3   OH228131   1.659   6.290   7.467 -0.2315  0.1477  0.2649
 2191TIP3    H128132   1.738   6.238   7.480 -0.6615 -0.6878 -0.3732
 2191TIP3    H228133   1.631   6.268   7.378 -1.8379 -0.4923  0.8998
 2192TIP3   OH228134   5.021   3.960   8.159 -0.2516 -0.3133 -0.0450
 2192TIP3    H128135   5.095   4.021   8.163 -0.7596  0.5631 -2.5178
 2192TIP3    H228136   5.057   3.880   8.121  0.1299 -1.1880  2.0206
 2193TIP3   OH228137   0.534   4.507   8.574  0.1070 -0.1679  0.3982
 2193TIP3    H128138   0.604   4.444   8.590 -0.3697 -0.6508  0.5954
 2193TIP3    H228139   0.564   4.557   8.498  0.3317 -0.8600  0.0204
 2194TIP3   OH228140   5.783   0.673   7.192 -0.1589 -0.3133  0.6815
 2194TIP3    H128141   5.847   0.720   7.245 -2.2969  0.0423  3.1514
 2194TIP3    H228142   5.726   0.741   7.157 -1.2238 -0.7697  1.4408
 2195TIP3   OH228143   1.657   1.084   7.012 -0.3529 -0.1839  0.0485
 2195TIP3    H128144   1.634   1.167   6.971  0.5580  0.6231  1.1313
 2195TIP3    H228145   1.629   1.093   7.103  0.6055 -0.6879  0.4095
 2196TIP3   OH228146   6.493   4.654   8.270  0.1397  0.0288  0.1231
 2196TIP3    H128147   6.515   4.746   8.262  1.9023 -0.4223 -0.6693
 2196TIP3    H228148   6.447   4.647   8.353  0.5561  1.5096  0.5056
 2197TIP3   OH228149   5.087   1.023   8.340 -0.5003 -0.3463  0.2524
 2197TIP3    H128150   5.019   1.012   8.273 -0.5588 -0.3376  0.3093
 2197TIP3    H228151   5.124   0.936   8.351 -0.1465 -0.2496 -0.1516
 2198TIP3   OH228152   4.383   4.402   8.127 -0.2675  0.4791 -0.1980
 2198TIP3    H128153   4.360   4.452   8.205  1.6399  0.7100  0.2516
 2198TIP3    H228154   4.477   4.387   8.135 -0.1244  0.0910 -2.2232
 2199TIP3   OH228155   3.229   3.359   8.101  0.3045 -0.3528  0.2386
 2199TIP3    H128156   3.158   3.424   8.093  1.0694  0.3850 -0.9105
 2199TIP3    H228157   3.184   3.278   8.123 -1.1015 -0.2160 -1.8106
 2200TIP3   OH228158   5.465   4.639   0.354 -0.3706  0.7343  0.4664
 2200TIP3    H128159   5.477   4.586   0.275  0.4722  0.7898  0.5482
 2200TIP3    H228160   5.373   4.627   0.378 -0.2198 -0.5918  0.4185
 2201TIP3   OH228161   3.766   3.128   0.623  0.0944  0.0257  0.0261
 2201TIP3    H128162   3.708   3.062   0.585 -0.5473  0.2524  0.5924
 2201TIP3    H228163   3.781   3.098   0.712  0.9593 -0.0965 -0.1591
 2202TIP3   OH228164   6.225   6.656   0.320  0.5758  0.2063 -0.0534
 2202TIP3    H128165   6.296   6.721   0.323  0.4761  0.2868  0.9790
 2202TIP3    H228166   6.264   6.577   0.358 -0.0252  0.3886  0.9586
 2203TIP3   OH228167   1.181   6.150   1.210 -0.0224 -0.0579 -0.7818
 2203TIP3    H128168   1.170   6.240   1.241  0.5326 -0.0014 -0.7338
 2203TIP3    H228169   1.092   6.118   1.196 -0.3356 -0.2703  1.3706
 2204TIP3   OH228170   2.456   0.518   7.153  0.3650 -0.4571  0.2893
 2204TIP3    H128171   2.422   0.512   7.064 -0.4297  1.6413  0.3999
 2204TIP3    H228172   2.389   0.478   7.207 -0.1226  0.1479  0.1352
 2205TIP3   OH228173   1.396   4.800   7.937  0.3060 -0.2893 -0.1304
 2205TIP3    H128174   1.342   4.869   7.978 -0.0887  0.1867 -1.3893
 2205TIP3    H228175   1.484   4.816   7.970  0.2507  0.9479 -0.5415
 2206TIP3   OH228176   5.056   5.331   1.992  0.2079  0.5693 -0.7306
 2206TIP3    H128177   5.126   5.355   2.053  1.2145 -0.6232 -1.3692
 2206TIP3    H228178   5.001   5.409   1.987  1.7907  1.7467 -0.6071
 2207TIP3   OH228179   4.036   6.579   7.239  0.1334  0.8010 -0.2575
 2207TIP3    H128180   4.117   6.553   7.195 -1.4677 -1.1361 -2.2822
 2207TIP3    H228181   4.009   6.660   7.194  0.5736  1.0678 -0.0474
 2208TIP3   OH228182   0.258   5.385   0.238  0.3361 -0.4863 -0.3994
 2208TIP3    H128183   0.195   5.453   0.215 -1.2046 -0.5902  2.9199
 2208TIP3    H228184   0.205   5.307   0.252  1.5307 -1.2635 -0.0209
 2209TIP3   OH228185   4.385   0.221   1.720 -0.9083 -0.0063  0.0464
 2209TIP3    H128186   4.364   0.186   1.633  1.4968  0.5555 -0.8418
 2209TIP3    H228187   4.353   0.311   1.717  1.7607  1.0124 -1.4787
 2210TIP3   OH228188   5.999   2.496   7.495  0.3198 -0.0722 -0.6664
 2210TIP3    H128189   6.004   2.416   7.443  0.7919 -1.1789  0.9823
 2210TIP3    H228190   6.088   2.532   7.492 -0.1700  1.0770 -2.3775
 2211TIP3   OH228191   2.225   1.459   7.024 -0.0054  0.3758 -0.2553
 2211TIP3    H128192   2.225   1.373   6.981  0.6668  0.4663 -0.4501
 2211TIP3    H228193   2.229   1.522   6.952  1.6138  0.5206 -0.0700
 2212TIP3   OH228194   0.368   5.053   8.499 -0.2971  0.7580 -0.0386
 2212TIP3    H128195   0.437   5.062   8.565 -0.6423 -1.5338  0.7608
 2212TIP3    H228196   0.414   5.034   8.418  0.0786  1.6165 -0.0283
 2213TIP3   OH228197   0.432   4.172   0.038 -0.0627  0.0192  0.1628
 2213TIP3    H128198   0.399   4.235  -0.026 -2.8555 -0.4232  1.0198
 2213TIP3    H228199   0.412   4.086   0.000  2.0683 -0.3849 -0.1781
 2214TIP3   OH228200   0.385   6.017   6.657 -0.0147 -0.3283 -0.5272
 2214TIP3    H128201   0.452   6.029   6.724 -1.5085  0.0574  0.9581
 2214TIP3    H228202   0.423   5.952   6.598  1.8149  0.1563  0.0268
 2215TIP3   OH228203   3.150   4.992   8.260  0.4740  0.0912  0.4610
 2215TIP3    H128204   3.102   5.072   8.239 -0.8954 -0.8437 -0.1734
 2215TIP3    H228205   3.096   4.922   8.224  2.0767 -1.0728  0.1982
 2216TIP3   OH228206   2.703   0.020   1.240  0.1562  0.4740 -0.1490
 2216TIP3    H128207   2.659  -0.055   1.279 -0.2794  0.8218  0.0249
 2216TIP3    H228208   2.656   0.096   1.272  0.4988  0.8201 -0.4504
 2217TIP3   OH228209   4.438   3.227   7.563  0.2120  0.4540  0.2466
 2217TIP3    H128210   4.533   3.227   7.550  0.3044  1.1405  0.8524
 2217TIP3    H228211   4.405   3.163   7.500  1.1594 -0.4461  0.6363
 2218TIP3   OH228212   3.717   2.673   8.381 -0.0147  0.2691  0.1984
 2218TIP3    H128213   3.806   2.661   8.346  0.2300  0.7310  0.6550
 2218TIP3    H228214   3.716   2.620   8.461 -0.8670 -1.5482 -0.9281
 2219TIP3   OH228215   6.315   5.948   1.289 -0.4711  0.0402 -0.0987
 2219TIP3    H128216   6.295   5.908   1.374 -0.2082 -0.1544 -0.1268
 2219TIP3    H228217   6.309   6.043   1.305  0.0697  0.0191  0.2653
 2220TIP3   OH228218   4.664   4.716   0.293 -0.1863 -0.0081 -0.1786
 2220TIP3    H128219   4.745   4.754   0.259 -1.2613  1.5842 -1.0878
 2220TIP3    H228220   4.605   4.712   0.217 -0.7204 -1.9423  0.2648
 2221TIP3   OH228221   1.018   2.477   2.495 -0.2798  0.1458  0.4643
 2221TIP3    H128222   0.999   2.385   2.508 -1.1441  0.3958  1.0577
 2221TIP3    H228223   0.937   2.514   2.460 -0.4130  0.9259  1.5240
 2222TIP3   OH228224   4.130   3.337   6.838 -0.6918  0.0649 -0.2599
 2222TIP3    H128225   4.166   3.404   6.896 -0.8246 -2.1889  2.7152
 2222TIP3    H228226   4.207   3.293   6.802 -0.3428 -1.8605  2.5299
 2223TIP3   OH228227   2.474   0.709   1.000  0.7645  0.2620  0.0007
 2223TIP3    H128228   2.399   0.750   0.957  0.6741  0.0696 -0.0259
 2223TIP3    H228229   2.435   0.641   1.056  1.0557 -1.5951 -1.9233
 2224TIP3   OH228230   1.155   2.904   0.042  0.2298  0.2541 -0.7150
 2224TIP3    H128231   1.196   2.861  -0.033  0.0440  0.2861 -0.8328
 2224TIP3    H228232   1.063   2.880   0.037  0.4992 -1.1733  0.4717
 2225TIP3   OH228233   2.039   6.521   1.019  0.1056  0.0444  0.2342
 2225TIP3    H128234   2.061   6.508   0.927  0.9562 -0.3200  0.4796
 2225TIP3    H228235   2.044   6.433   1.057  0.9749  0.3640  0.8774
 2226TIP3   OH228236   3.792   6.782   8.390  0.8541  0.0829 -0.3782
 2226TIP3    H128237   3.838   6.700   8.405  1.5295  0.1387 -1.9377
 2226TIP3    H228238   3.700   6.763   8.408  1.2631 -0.4158  1.3756
 2227TIP3   OH228239   1.463   6.059   7.182  0.1351 -0.2221 -0.1321
 2227TIP3    H128240   1.554   6.031   7.181  0.2106 -0.0111  0.3899
 2227TIP3    H228241   1.467   6.155   7.183 -0.0007 -0.1495  2.8273
 2228TIP3   OH228242   5.433   2.789   2.473  0.4065 -0.5172  0.2254
 2228TIP3    H128243   5.476   2.870   2.444 -0.1887  0.3756  1.7254
 2228TIP3    H228244   5.341   2.801   2.452  0.2325 -0.5708  0.9190
 2229TIP3   OH228245   1.365   5.821   7.422 -0.0197 -0.1374 -0.0077
 2229TIP3    H128246   1.376   5.867   7.339 -1.0967 -2.3418 -1.4815
 2229TIP3    H228247   1.273   5.835   7.445 -1.2888 -3.6906 -2.0530
 2230TIP3   OH228248   2.829   2.336   1.814  0.2797 -0.4752  0.3032
 2230TIP3    H128249   2.848   2.260   1.869  0.1028 -1.1587 -0.5590
 2230TIP3    H228250   2.736   2.353   1.827  0.6637  0.6927  1.8239
 2231TIP3   OH228251   6.819   0.209   1.807 -0.3322  0.4138 -0.6822
 2231TIP3    H128252   6.724   0.209   1.795 -0.4896  0.1691  0.4403
 2231TIP3    H228253   6.841   0.301   1.819 -0.8411  0.2750  1.8156
 2232TIP3   OH228254   1.686   6.519   1.926 -0.2438 -0.2288 -0.1864
 2232TIP3    H128255   1.730   6.551   2.004 -0.8677 -0.5021  0.2860
 2232TIP3    H228256   1.689   6.423   1.935 -1.0536 -0.2537 -0.0651
 2233TIP3   OH228257   1.488   6.340   2.524 -0.3204  0.0804  0.7032
 2233TIP3    H128258   1.548   6.280   2.481 -0.2970  0.0256  0.8139
 2233TIP3    H228259   1.528   6.426   2.511 -1.2868  0.3166 -1.1088
 2234TIP3   OH228260   2.818   3.983   8.516  0.1396  0.3373 -0.2884
 2234TIP3    H128261   2.830   3.904   8.464  0.0666  0.7393 -0.9383
 2234TIP3    H228262   2.885   4.044   8.483  3.0712 -0.7597  2.9983
 2235TIP3   OH228263   3.527   5.736   7.891 -0.7486 -0.7996 -0.5667
 2235TIP3    H128264   3.598   5.707   7.948  0.3439 -0.9524 -1.9571
 2235TIP3    H228265   3.450   5.689   7.924 -1.2780  2.4692  3.6571
 2236TIP3   OH228266   4.691   6.436   7.737  0.6543  0.4490 -0.2652
 2236TIP3    H128267   4.714   6.442   7.644  0.8230 -4.4934 -0.7702
 2236TIP3    H228268   4.776   6.430   7.782  0.5259  0.4435 -0.0235
 2237TIP3   OH228269   6.313   1.499   1.188 -0.3588 -0.1802  0.0565
 2237TIP3    H128270   6.231   1.544   1.169  0.2560  1.5012  1.0682
 2237TIP3    H228271   6.380   1.566   1.172  0.8575 -1.6272 -1.1094
 2238TIP3   OH228272   1.062   4.143   8.313 -0.0210  0.3933  0.0823
 2238TIP3    H128273   1.024   4.088   8.245  0.3702 -0.8501  0.8390
 2238TIP3    H228274   1.148   4.168   8.279  1.2630 -2.2848  1.0623
 2239TIP3   OH228275   5.100   3.460   0.580 -0.4310  0.5793  0.0097
 2239TIP3    H128276   5.085   3.444   0.487  0.0792 -0.7465  0.1274
 2239TIP3    H228277   5.032   3.409   0.624 -0.5409  1.0371  0.3714
 2240TIP3   OH228278   5.432   0.462   1.567 -0.3898  0.3668  0.3927
 2240TIP3    H128279   5.443   0.367   1.567 -0.2453  0.3660  1.5565
 2240TIP3    H228280   5.487   0.493   1.640  1.9956  1.6682 -1.7974
 2241TIP3   OH228281   0.532   0.848   1.719  0.1854 -0.2232 -0.2505
 2241TIP3    H128282   0.458   0.897   1.754 -0.0488 -0.7413 -0.0163
 2241TIP3    H228283   0.568   0.801   1.795  0.1653 -0.7239 -0.5499
 2242TIP3   OH228284   3.080   4.947   0.840  0.5675 -0.0903 -0.0770
 2242TIP3    H128285   3.145   5.015   0.820  0.8575  0.0567  1.2390
 2242TIP3    H228286   3.012   4.958   0.774  0.3097  1.9052  0.4545
 2243TIP3   OH228287   5.307   1.555   8.521  0.1833 -0.0772  0.2885
 2243TIP3    H128288   5.341   1.470   8.492  2.2929  1.5711 -2.4445
 2243TIP3    H228289   5.363   1.579   8.595 -0.5022 -1.0454  1.1600
 2244TIP3   OH228290   0.017   4.082   8.458 -0.1398 -0.4167  0.4798
 2244TIP3    H128291   0.003   4.130   8.540  0.1727 -2.2076  1.6353
 2244TIP3    H228292   0.112   4.084   8.445 -0.1958 -0.0619  0.0870
 2245TIP3   OH228293   5.893   5.111   8.573 -0.3656 -0.2744 -0.2413
 2245TIP3    H128294   5.862   5.201   8.581  0.3326 -0.1026  0.6950
 2245TIP3    H228295   5.932   5.091   8.658 -0.8835 -1.6141 -0.2865
 2246TIP3   OH228296   3.625   6.737   7.037  0.3618 -0.0729 -0.3831
 2246TIP3    H128297   3.546   6.780   7.004 -0.6680 -0.1445  1.8145
 2246TIP3    H228298   3.629   6.655   6.989 -1.4903 -0.5192  0.1352
 2247TIP3   OH228299   2.147   0.755   0.651  0.4356 -0.2398 -0.4733
 2247TIP3    H128300   2.067   0.797   0.619  0.8891  0.8891 -0.1929
 2247TIP3    H228301   2.127   0.731   0.741  0.7690  1.1268 -0.0046
 2248TIP3   OH228302   5.857   0.710   0.956 -0.2136 -0.4075  0.2223
 2248TIP3    H128303   5.842   0.751   1.041  0.2417  1.1132 -0.4120
 2248TIP3    H228304   5.769   0.684   0.926 -0.7694  1.6823 -0.1155
 2249TIP3   OH228305   2.727   6.094   1.369 -0.2630  0.0081  0.0593
 2249TIP3    H128306   2.687   6.097   1.456 -1.6015 -0.3688 -0.5147
 2249TIP3    H228307   2.747   6.001   1.355  0.0838  0.0880  0.0165
 2250TIP3   OH228308   1.748   3.930   0.032  0.3448  0.0466 -0.2603
 2250TIP3    H128309   1.698   4.000  -0.011  2.1940  0.6113 -1.5834
 2250TIP3    H228310   1.798   3.889  -0.038  1.5687 -0.6492  0.9680
 2251TIP3   OH228311   1.361   1.302   7.331 -0.1569 -0.4371  0.3370
 2251TIP3    H128312   1.406   1.376   7.370  0.0247  0.7244 -1.9432
 2251TIP3    H228313   1.270   1.310   7.361  0.3414 -0.6904  1.9896
 2252TIP3   OH228314   4.702   4.275   0.951 -0.3509  0.1534  0.4083
 2252TIP3    H128315   4.790   4.311   0.941 -0.2832  0.2800  1.3911
 2252TIP3    H228316   4.648   4.328   0.892  0.4096 -0.6665 -1.0564
 2253TIP3   OH228317   4.691   2.691   0.886 -0.0238  0.2075 -0.0855
 2253TIP3    H128318   4.665   2.613   0.935 -1.2222  1.9203  2.1287
 2253TIP3    H228319   4.780   2.709   0.916 -0.3218  0.5766  0.5853
 2254TIP3   OH228320   0.712   0.572   6.490  0.1511  0.7148 -0.3051
 2254TIP3    H128321   0.652   0.593   6.561 -0.5812  1.4105 -1.1104
 2254TIP3    H228322   0.673   0.495   6.448  0.7377  0.1261  0.2183
 2255TIP3   OH228323   5.436   4.833   8.451  0.0914  0.3045 -0.4784
 2255TIP3    H128324   5.486   4.819   8.370  0.6134 -0.6058 -0.0176
 2255TIP3    H228325   5.419   4.744   8.484  0.0493  0.6640  0.5017
 2256TIP3   OH228326   0.026   0.618   0.646  0.1560  0.6120  0.1536
 2256TIP3    H128327   0.045   0.638   0.554 -0.8842 -0.6994 -0.3909
 2256TIP3    H228328   0.101   0.653   0.694  2.6674 -1.9112 -1.5667
 2257TIP3   OH228329   2.637   2.425   0.800 -0.0960  0.2612 -0.2270
 2257TIP3    H128330   2.623   2.398   0.890 -0.1388 -0.3550 -0.4146
 2257TIP3    H228331   2.620   2.519   0.800  1.8392  0.6500  0.8058
 2258TIP3   OH228332   2.721   2.766   1.401  0.5009 -0.3666 -0.7154
 2258TIP3    H128333   2.677   2.726   1.476 -1.8384  1.2732 -1.0854
 2258TIP3    H228334   2.687   2.719   1.325  0.7873 -0.2850 -0.8946
 2259TIP3   OH228335   1.434   5.325   7.622 -0.1286  0.7703 -0.3764
 2259TIP3    H128336   1.432   5.243   7.671 -0.5669 -1.3624 -3.6517
 2259TIP3    H228337   1.526   5.353   7.627 -0.3273  1.2024  2.3092
 2260TIP3   OH228338   3.458   5.165   1.222 -0.0033  0.2510  0.2823
 2260TIP3    H128339   3.510   5.140   1.146  3.7147  0.5121  2.4761
 2260TIP3    H228340   3.469   5.093   1.284 -1.5596  0.7712  1.2365
 2261TIP3   OH228341   2.269   2.115   6.129 -0.2578  0.4843  0.0179
 2261TIP3    H128342   2.175   2.100   6.126 -0.4233  0.6347  2.3613
 2261TIP3    H228343   2.279   2.201   6.169  0.8891  0.6602 -0.5963
 2262TIP3   OH228344   1.939   4.621   7.408  0.4013  0.0959 -0.1838
 2262TIP3    H128345   1.917   4.694   7.349  0.3922  0.2470  0.0067
 2262TIP3    H228346   1.910   4.543   7.361 -1.5524  0.3540  0.5084
 2263TIP3   OH228347   4.424   2.204   0.698  0.2030  0.0978  0.7135
 2263TIP3    H128348   4.399   2.113   0.710  0.4141  0.1398  1.5425
 2263TIP3    H228349   4.392   2.227   0.611 -1.0583 -0.3597  1.0467
 2264TIP3   OH228350   2.876   1.939   6.675 -0.0647  0.0515 -0.3566
 2264TIP3    H128351   2.795   1.926   6.626  0.5728 -2.0686 -0.9754
 2264TIP3    H228352   2.943   1.951   6.608  0.6807 -1.9832 -0.0598
 2265TIP3   OH228353   0.890   2.823   8.660  0.1103 -0.5820 -0.1622
 2265TIP3    H128354   0.826   2.789   8.723  0.7643  0.1406  0.9080
 2265TIP3    H228355   0.860   2.912   8.642  0.2848 -0.5719 -0.4007
 2266TIP3   OH228356   0.921   3.485   2.062  0.0406 -0.1641  0.1914
 2266TIP3    H128357   0.920   3.577   2.089  0.6891  0.1339 -0.7426
 2266TIP3    H228358   0.831   3.467   2.035 -0.4461 -0.2585  1.7902
 2267TIP3   OH228359   5.407   5.295   8.107 -0.1125  0.2484 -0.1052
 2267TIP3    H128360   5.320   5.263   8.083  0.3366 -0.0716 -1.4116
 2267TIP3    H228361   5.439   5.337   8.027  0.4113  1.5496  0.7659
 2268TIP3   OH228362   0.093   2.004   7.225 -0.4728 -0.6776  0.1727
 2268TIP3    H128363   0.186   2.023   7.209 -0.6266 -0.9415 -1.1684
 2268TIP3    H228364   0.050   2.030   7.144 -1.6936  0.1957  1.0752
 2269TIP3   OH228365   5.779   1.904   0.538  0.1385  0.2031 -0.5086
 2269TIP3    H128366   5.762   1.836   0.473 -1.7971  0.0755  0.0548
 2269TIP3    H228367   5.764   1.986   0.490 -0.0873  0.1452 -0.5389
 2270TIP3   OH228368   0.559   2.204   6.682  0.0140 -0.3499  0.2090
 2270TIP3    H128369   0.553   2.152   6.762 -3.9108 -0.8647 -0.2599
 2270TIP3    H228370   0.503   2.158   6.620  0.3178  1.8462 -1.7951
 2271TIP3   OH228371   2.830   5.911   1.647  0.2223  0.4563 -0.0194
 2271TIP3    H128372   2.824   5.931   1.741  2.1655 -3.0510  1.0034
 2271TIP3    H228373   2.769   5.839   1.635  1.2721 -0.2817 -1.0449
 2272TIP3   OH228374   2.215   0.830   7.158 -0.0786 -0.3566 -0.0255
 2272TIP3    H128375   2.309   0.820   7.166 -0.0557 -0.5768 -0.4877
 2272TIP3    H228376   2.188   0.754   7.106 -0.6428 -0.8480  0.9445
 2273TIP3   OH228377   4.551   6.806   1.334 -0.2844 -0.5282  0.0721
 2273TIP3    H128378   4.583   6.757   1.409 -0.0849  0.3466  0.5744
 2273TIP3    H228379   4.459   6.825   1.355 -0.1823 -0.1382  0.1811
 2274TIP3   OH228380   0.970   3.995   8.099  0.1150 -0.1217 -0.0293
 2274TIP3    H128381   0.888   3.980   8.146 -0.7973  1.4800 -0.9884
 2274TIP3    H228382   0.949   3.976   8.007  0.7749  0.4142 -0.3009
 2275TIP3   OH228383   0.086   5.529   0.942  0.4645 -0.2740  0.5263
 2275TIP3    H128384   0.029   5.461   0.981  0.1811  1.1223  2.7479
 2275TIP3    H228385   0.174   5.492   0.949  0.2631 -0.6609  1.2395
 2276TIP3   OH228386   5.350   2.808   0.262  0.2749  0.0301 -0.2135
 2276TIP3    H128387   5.361   2.719   0.227  0.9531  0.2115 -0.4916
 2276TIP3    H228388   5.270   2.804   0.314 -0.8259 -0.2398 -1.8577
 2277TIP3   OH228389   2.517   4.149   6.680  0.8456 -0.0582  0.4099
 2277TIP3    H128390   2.517   4.060   6.713  0.2351  0.1368  0.9714
 2277TIP3    H228391   2.424   4.169   6.665  0.8510  0.8900  1.4611
 2278TIP3   OH228392   1.406   3.974   7.445 -0.1529 -0.0727  0.3796
 2278TIP3    H128393   1.344   4.002   7.512  1.7023  1.2369  1.6486
 2278TIP3    H228394   1.439   4.055   7.407 -0.4476 -0.7730 -1.4907
 2279TIP3   OH228395   0.002   5.244   0.997 -0.2526  0.8717  0.2887
 2279TIP3    H128396   0.089   5.208   1.014 -0.6852 -0.7361 -0.7021
 2279TIP3    H228397  -0.036   5.257   1.083  1.1012  1.9937  0.7593
 2280TIP3   OH228398   0.758   0.264   8.016  0.1472 -0.1808  0.0913
 2280TIP3    H128399   0.793   0.187   7.971  0.5586  0.7391 -1.2298
 2280TIP3    H228400   0.767   0.335   7.953  1.6978  1.4238  1.9713
 2281TIP3   OH228401   4.445   3.351   0.134  0.3696  0.3794  0.1870
 2281TIP3    H128402   4.423   3.374   0.044  0.2974  1.6142  0.5025
 2281TIP3    H228403   4.477   3.261   0.129 -1.7416 -0.3931 -0.7469
 2282TIP3   OH228404   2.565   2.691   7.316  0.1507 -0.7606  0.5111
 2282TIP3    H128405   2.605   2.687   7.229 -0.5371 -1.5348  0.2225
 2282TIP3    H228406   2.639   2.682   7.376  0.8797  1.5065  0.0783
 2283TIP3   OH228407   5.275   3.122   2.009  0.6798 -0.2471 -0.3299
 2283TIP3    H128408   5.303   3.207   2.045 -1.5456  0.4181  0.0006
 2283TIP3    H228409   5.180   3.126   2.011  0.5185 -2.6153 -0.7395
 2284TIP3   OH228410   0.558   3.844   7.411 -0.4512 -0.4010  0.1013
 2284TIP3    H128411   0.462   3.838   7.403 -0.3496 -0.2588 -1.9213
 2284TIP3    H228412   0.591   3.788   7.340  0.9666 -0.3445  0.6927
 2285TIP3   OH228413   3.657   3.696   2.207 -0.7554 -0.1110 -0.7259
 2285TIP3    H128414   3.668   3.623   2.146  1.3240  0.7379 -1.4516
 2285TIP3    H228415   3.677   3.774   2.156 -1.6740  0.8869  0.3709
 2286TIP3   OH228416   4.860   5.333   7.587  0.7737  0.3966 -0.8225
 2286TIP3    H128417   4.846   5.424   7.560 -1.0066  0.1675 -0.7856
 2286TIP3    H228418   4.924   5.299   7.525  0.5620  1.3450 -1.5837
 2287TIP3   OH228419   0.041   0.112   8.397  0.2483 -0.3642  0.0413
 2287TIP3    H128420   0.105   0.142   8.462 -0.2801 -0.3906  0.5826
 2287TIP3    H228421   0.072   0.150   8.315  0.2099  0.7627  0.5212
 2288TIP3   OH228422   1.541   3.446   8.597 -0.3198  0.7059  0.4859
 2288TIP3    H128423   1.573   3.399   8.675  0.6584 -0.6470 -0.6767
 2288TIP3    H228424   1.471   3.391   8.563 -0.1934  0.8647 -0.0373
 2289TIP3   OH228425   0.758   2.615   6.882 -0.3108 -0.1635  0.8071
 2289TIP3    H128426   0.821   2.545   6.900 -1.6427 -1.3011  1.1693
 2289TIP3    H228427   0.675   2.571   6.869 -1.4526  1.4245  2.2376
 2290TIP3   OH228428   2.341   2.584   1.782 -0.5824  0.2107 -0.1628
 2290TIP3    H128429   2.253   2.607   1.754 -0.6311  0.3677  0.1116
 2290TIP3    H228430   2.389   2.666   1.782 -1.1162  0.5927  2.1055
 2291TIP3   OH228431   4.715   6.064   2.247  0.4444 -0.2924  0.4356
 2291TIP3    H128432   4.800   6.101   2.269  0.4136 -0.9824  1.7987
 2291TIP3    H228433   4.664   6.069   2.328 -0.6706 -0.3140 -0.2327
 2292TIP3   OH228434   6.420   2.698   1.865 -0.6325  0.5486 -0.3251
 2292TIP3    H128435   6.440   2.767   1.927 -0.0821 -0.5615  0.7750
 2292TIP3    H228436   6.489   2.633   1.877 -0.5418  0.2517 -2.0564
 2293TIP3   OH228437   6.441   2.342   1.884  0.1718 -0.0481  0.3008
 2293TIP3    H128438   6.440   2.408   1.953 -0.0377 -1.9908  2.2536
 2293TIP3    H228439   6.523   2.294   1.897  1.2566  0.9036 -2.2694
 2294TIP3   OH228440   3.603   3.597   1.516 -0.1129 -0.0374 -0.1183
 2294TIP3    H128441   3.671   3.529   1.519 -0.6976 -0.6759 -1.1741
 2294TIP3    H228442   3.650   3.678   1.537  0.8159 -0.5886 -0.0145
 2295TIP3   OH228443   6.284   0.733   0.942 -0.2228  0.4526 -0.2696
 2295TIP3    H128444   6.363   0.754   0.893 -0.4446  0.3553 -0.6767
 2295TIP3    H228445   6.266   0.641   0.922 -0.6567  0.5829 -0.4968
 2296TIP3   OH228446   0.340   5.983   8.269 -0.0241 -0.7166  0.0185
 2296TIP3    H128447   0.420   5.935   8.247  1.7123  1.1816  1.7173
 2296TIP3    H228448   0.347   5.999   8.364 -1.7525  0.6708 -0.0333
 2297TIP3   OH228449   4.354   6.477   7.486  0.2947  0.7565  0.7146
 2297TIP3    H128450   4.258   6.472   7.478  0.2610  1.1621  0.8229
 2297TIP3    H228451   4.376   6.410   7.550  0.3201 -0.8979 -0.9468
 2298TIP3   OH228452   4.213   3.799   7.318  0.4850 -0.4359 -0.0220
 2298TIP3    H128453   4.248   3.737   7.381  0.6465  0.2448  0.5715
 2298TIP3    H228454   4.180   3.872   7.371 -0.6925 -0.4983 -0.6412
 2299TIP3   OH228455   4.170   5.369   6.611 -0.1697  0.1559  0.4409
 2299TIP3    H128456   4.177   5.277   6.587 -0.2072  0.5053 -0.9822
 2299TIP3    H228457   4.083   5.395   6.582  0.1148  0.8259  0.1792
 2300TIP3   OH228458   2.499   5.805   1.833 -0.8315  0.0649  0.0988
 2300TIP3    H128459   2.501   5.720   1.878 -0.3364  0.6607  1.2339
 2300TIP3    H228460   2.427   5.853   1.873 -0.5175  0.5288  0.1197
 2301TIP3   OH228461   0.799   3.448   0.057 -0.1824 -0.0359  0.2378
 2301TIP3    H128462   0.755   3.481   0.136  1.8996  0.9248  1.0702
 2301TIP3    H228463   0.877   3.404   0.090 -0.6578 -2.0562 -1.1614
 2302TIP3   OH228464   5.018   4.114   0.868  0.7058  0.1580 -0.1790
 2302TIP3    H128465   5.016   4.204   0.900  3.1428  0.4207 -0.5806
 2302TIP3    H228466   5.041   4.062   0.945  0.3234 -0.0150 -0.1769
 2303TIP3   OH228467   6.523   6.757   0.362  0.0608 -0.1712 -0.3436
 2303TIP3    H128468   6.568   6.737   0.445 -1.3827  1.9079  1.0403
 2303TIP3    H228469   6.558   6.842   0.336 -1.9497  0.8008 -0.0067
 2304TIP3   OH228470   5.072   2.557   8.092 -0.1822 -0.2170  0.1815
 2304TIP3    H128471   5.085   2.575   8.185  0.6326 -1.8029  0.4137
 2304TIP3    H228472   5.153   2.586   8.051  0.3865 -1.5567  0.3076
 2305TIP3   OH228473   0.075   3.878   1.410  0.5963  0.5000 -0.2645
 2305TIP3    H128474   0.074   3.971   1.431  0.6260  0.1313  1.5134
 2305TIP3    H228475   0.033   3.836   1.485  1.3618 -0.9899 -0.6322
 2306TIP3   OH228476   3.371   3.206   7.867  0.2953  0.2028 -0.2980
 2306TIP3    H128477   3.399   3.133   7.922  0.7031  0.1864 -0.5244
 2306TIP3    H228478   3.277   3.211   7.880  0.5782  1.3421  1.8192
 2307TIP3   OH228479   5.778   3.017   0.827  0.8041  0.0897 -0.2131
 2307TIP3    H128480   5.863   3.055   0.853  0.2662  0.2838  1.4124
 2307TIP3    H228481   5.719   3.092   0.825  0.1442 -0.3647  1.1637
 2308TIP3   OH228482   4.891   0.322   1.193  0.4291 -0.0396 -0.0800
 2308TIP3    H128483   4.961   0.261   1.168 -0.3984 -0.3167 -1.8881
 2308TIP3    H228484   4.838   0.274   1.256  0.9191 -0.4575  0.0206
 2309TIP3   OH228485   2.644   5.965   1.023 -0.6892  0.4143 -0.1191
 2309TIP3    H128486   2.598   6.045   1.049 -1.1502  0.3974 -0.8642
 2309TIP3    H228487   2.720   5.997   0.974 -0.8237  0.3996 -0.3381
 2310TIP3   OH228488   2.457   3.870   1.453  0.7486 -0.3360 -0.8335
 2310TIP3    H128489   2.472   3.849   1.545  0.0595 -1.9053 -1.0391
 2310TIP3    H228490   2.428   3.787   1.415 -4.2069  1.3564 -1.3438
 2311TIP3   OH228491   4.519   0.709   2.090  0.5506 -0.3485  0.0013
 2311TIP3    H128492   4.500   0.757   2.010  3.8146 -0.1744 -0.8168
 2311TIP3    H228493   4.524   0.617   2.063 -0.0686 -0.5020  0.3881
 2312TIP3   OH228494   5.025   5.948   0.895 -0.0708  0.2479 -0.1701
 2312TIP3    H128495   4.948   5.999   0.871 -1.3867 -2.0901 -1.2016
 2312TIP3    H228496   5.005   5.911   0.981 -0.5611 -1.1250 -0.8468
 2313TIP3   OH228497   5.298   6.072   1.841 -0.4032  0.0389  0.8627
 2313TIP3    H128498   5.350   6.038   1.913 -0.5438 -0.6976  0.6248
 2313TIP3    H228499   5.334   6.159   1.824 -0.4565  0.2738  1.9044
 2314TIP3   OH228500   2.232   1.166   7.866 -0.9576 -0.7941  0.0175
 2314TIP3    H128501   2.188   1.187   7.784 -1.7625  0.6719  0.7925
 2314TIP3    H228502   2.236   1.070   7.867 -0.0268 -0.8425 -2.1732
 2315TIP3   OH228503   3.646   4.446   1.396 -0.2060  0.1178 -0.1002
 2315TIP3    H128504   3.725   4.392   1.389  0.5719  1.2812 -0.7330
 2315TIP3    H228505   3.672   4.518   1.453 -0.8752  0.4172 -0.1678
 2316TIP3   OH228506   3.188   4.890   7.560 -0.0083  0.6888  0.5495
 2316TIP3    H128507   3.279   4.904   7.587  0.0190  0.7900  0.4033
 2316TIP3    H228508   3.193   4.821   7.494 -0.0805  0.4107  0.8289
 2317TIP3   OH228509   2.436   5.364   7.471  0.6417  0.0063 -0.1816
 2317TIP3    H128510   2.460   5.327   7.556 -0.5712 -3.0530 -1.0675
 2317TIP3    H228511   2.444   5.291   7.409  1.3739  2.0820 -2.7373
 2318TIP3   OH228512   0.484   6.318   1.397  0.1433  0.3838  0.0530
 2318TIP3    H128513   0.455   6.408   1.386  0.4969  0.6492  1.1434
 2318TIP3    H228514   0.502   6.310   1.491 -2.5806 -1.6161  0.5472
 2319TIP3   OH228515   2.524   0.999   0.711  0.0001  0.4850  0.3090
 2319TIP3    H128516   2.504   0.906   0.723 -0.9183  0.0574 -3.2340
 2319TIP3    H228517   2.612   1.009   0.745  1.5057 -2.5911 -2.1219
 2320TIP3   OH228518   1.638   1.376   7.749  0.4519  0.1687 -0.1016
 2320TIP3    H128519   1.716   1.363   7.802  0.4301 -2.7644 -0.6551
 2320TIP3    H228520   1.669   1.373   7.658 -0.0842  0.9072 -0.3279
 2321TIP3   OH228521   1.460   5.753   1.666 -0.3999  0.4645 -0.4437
 2321TIP3    H128522   1.471   5.722   1.576  0.3560  1.3244 -0.6588
 2321TIP3    H228523   1.367   5.776   1.672 -0.4445  0.4403 -1.0203
 2322TIP3   OH228524   5.596   4.837   8.239 -0.0083 -0.0242  0.2598
 2322TIP3    H128525   5.637   4.916   8.273 -1.4011  0.0590  1.9014
 2322TIP3    H228526   5.537   4.868   8.170 -1.2001  0.5161  1.4832
 2323TIP3   OH228527   4.155   2.103   7.973 -0.5202  0.2035  0.1611
 2323TIP3    H128528   4.132   2.010   7.976  0.0411  0.0759  0.7954
 2323TIP3    H228529   4.102   2.143   8.043  1.4971 -0.1896  2.0406
 2324TIP3   OH228530   6.082   4.612   1.389  0.3763 -0.6915 -0.0927
 2324TIP3    H128531   6.058   4.560   1.466  0.9819 -2.4045 -0.9930
 2324TIP3    H228532   6.178   4.611   1.389  0.4145  0.8211  0.0814
 2325TIP3   OH228533   2.518   1.071   7.413 -0.2672  0.2367 -0.2865
 2325TIP3    H128534   2.452   1.044   7.349  0.3689  0.8637 -1.2191
 2325TIP3    H228535   2.542   0.990   7.458 -0.2393 -0.3149 -1.2856
 2326TIP3   OH228536   5.701   2.631   7.090  0.0432  0.6131  0.1673
 2326TIP3    H128537   5.645   2.704   7.115  0.1891  0.7617  0.0617
 2326TIP3    H228538   5.716   2.583   7.172 -1.0702 -0.0116  0.0191
 2327TIP3   OH228539   1.806   1.094   8.305  0.1473 -0.2516  0.1246
 2327TIP3    H128540   1.867   1.027   8.275  0.4383  0.4744 -0.9458
 2327TIP3    H228541   1.849   1.134   8.381  0.1833 -0.9329  0.4746
 2328TIP3   OH228542   5.406   3.116   1.732  0.5216 -0.4308 -0.7016
 2328TIP3    H128543   5.465   3.191   1.741  0.5334 -0.4984 -0.2313
 2328TIP3    H228544   5.329   3.140   1.783  0.2593 -0.4669 -1.0778
 2329TIP3   OH228545   3.030   4.148   8.394  0.1387 -0.3882 -0.2327
 2329TIP3    H128546   3.104   4.088   8.390  1.3755  0.9845  0.8843
 2329TIP3    H228547   3.070   4.235   8.387 -1.5894  0.3544 -1.7974
 2330TIP3   OH228548   5.214   4.901   1.723  0.2800  0.2996 -0.9485
 2330TIP3    H128549   5.232   4.893   1.629 -2.0366 -1.3974 -1.3446
 2330TIP3    H228550   5.221   4.812   1.756 -0.2514  0.6776  0.2184
 2331TIP3   OH228551   3.883   5.245   7.251  0.1436  0.1584  0.4902
 2331TIP3    H128552   3.823   5.313   7.220  1.4586  0.9769 -0.3439
 2331TIP3    H228553   3.881   5.253   7.347 -1.8188 -0.5233  0.5650
 2332TIP3   OH228554   2.371   4.739   8.308 -0.0449 -0.3587  0.3156
 2332TIP3    H128555   2.370   4.826   8.269 -1.4984 -0.6906 -0.4743
 2332TIP3    H228556   2.318   4.686   8.249  1.0277 -1.8545  0.6407
 2333TIP3   OH228557   5.090   0.376   0.085 -0.2510 -0.5040 -0.4240
 2333TIP3    H128558   5.069   0.359   0.177 -0.0487 -0.9649 -0.4599
 2333TIP3    H228559   5.184   0.395   0.085 -0.2496 -0.5102 -0.5372
 2334TIP3   OH228560   3.020   5.378   2.033 -0.1531  0.5735  0.6435
 2334TIP3    H128561   3.024   5.300   1.978  0.3127  0.7338  0.4393
 2334TIP3    H228562   2.927   5.398   2.040 -0.2402  0.3407  0.2120
 2335TIP3   OH228563   3.673   3.970   2.098 -0.3517  0.1929  0.3233
 2335TIP3    H128564   3.764   3.964   2.126  0.3550 -0.6289 -1.9454
 2335TIP3    H228565   3.673   4.038   2.030 -0.9763 -1.2131 -1.1490
 2336TIP3   OH228566   3.203   2.027   7.740  0.4770 -0.0367  0.4011
 2336TIP3    H128567   3.116   1.991   7.724 -0.5265  1.6770  1.6807
 2336TIP3    H228568   3.204   2.110   7.691  1.0299  0.4181  1.1637
 2337TIP3   OH228569   5.449   5.557   2.520 -0.4490 -0.0665 -0.3662
 2337TIP3    H128570   5.424   5.471   2.555 -1.5765 -0.2380 -1.5273
 2337TIP3    H228571   5.543   5.562   2.534 -0.0771 -2.2145 -1.7837
 2338TIP3   OH228572   6.795   6.760   0.517 -0.0520 -0.0853 -0.9502
 2338TIP3    H128573   6.744   6.736   0.594 -0.7687 -0.4790 -1.5352
 2338TIP3    H228574   6.804   6.855   0.523  1.1692 -0.2524  0.3801
 2339TIP3   OH228575   2.126   5.403   0.601  0.4400  0.1964  0.0422
 2339TIP3    H128576   2.082   5.375   0.521  0.7768 -1.2604  0.3354
 2339TIP3    H228577   2.091   5.490   0.618 -0.8328 -0.1144 -0.8152
 2340TIP3   OH228578   0.641   1.397   8.436 -0.3708  0.2027  0.1122
 2340TIP3    H128579   0.594   1.318   8.409 -1.8912  1.3792 -0.8593
 2340TIP3    H228580   0.639   1.394   8.532 -0.4591 -0.8960  0.0834
 2341TIP3   OH228581   6.480   4.393   0.822  0.0072 -0.4597  0.0658
 2341TIP3    H128582   6.450   4.446   0.897 -0.4551 -0.3753 -0.1746
 2341TIP3    H228583   6.536   4.453   0.772 -1.0940  0.0483 -0.5958
 2342TIP3   OH228584   0.242   5.380   1.823  0.0975  0.6079 -0.8477
 2342TIP3    H128585   0.215   5.433   1.897 -1.2421  0.6272 -1.3217
 2342TIP3    H228586   0.189   5.411   1.750  0.0898 -0.6268 -1.3949
 2343TIP3   OH228587   3.299   4.979   7.113  0.2038  0.5637  0.5460
 2343TIP3    H128588   3.346   4.925   7.176 -2.7217 -2.6008  0.3308
 2343TIP3    H228589   3.226   5.016   7.162  1.6041  3.8128  0.4411
 2344TIP3   OH228590   3.609   6.519   6.873  0.1317 -0.5694 -0.0413
 2344TIP3    H128591   3.592   6.432   6.908  1.4341 -0.5635  0.6625
 2344TIP3    H228592   3.686   6.507   6.817 -0.7747 -0.2054 -1.4432
 2345TIP3   OH228593   0.030   4.892   0.091  0.3121 -0.4018 -0.0915
 2345TIP3    H128594   0.094   4.845   0.039  0.6116 -0.4548  0.3240
 2345TIP3    H228595   0.066   4.894   0.180 -0.1120 -0.1657  0.0836
 2346TIP3   OH228596   5.037   2.545   1.382  0.0472 -0.3473  0.0987
 2346TIP3    H128597   5.016   2.611   1.316  0.7416  0.0186  0.2302
 2346TIP3    H228598   4.953   2.524   1.424  0.1475  2.6978  2.1341
 2347TIP3   OH228599   2.695   1.999   1.568  0.0437 -0.5092  0.1155
 2347TIP3    H128600   2.646   2.022   1.490  2.4038  0.6680 -1.1478
 2347TIP3    H228601   2.654   2.049   1.639  0.4529  1.9077 -1.2309
 2348TIP3   OH228602   2.435   1.996   0.455 -0.2984  0.6728  0.5568
 2348TIP3    H128603   2.496   2.027   0.522  0.7762 -1.2475  0.5152
 2348TIP3    H228604   2.446   2.058   0.383  1.0297  0.8246  0.8667
 2349TIP3   OH228605   6.685   4.270   7.204 -0.0001 -0.0882  0.3434
 2349TIP3    H128606   6.631   4.206   7.252  0.8778 -1.2072 -0.1168
 2349TIP3    H228607   6.626   4.344   7.189 -1.1215 -0.8691  0.7078
 2350TIP3   OH228608   0.287   3.903   7.360  0.0483  0.6983 -0.0757
 2350TIP3    H128609   0.298   3.998   7.354  0.0275  0.6643 -0.7579
 2350TIP3    H228610   0.287   3.873   7.269 -0.5329  0.1116  0.1069
 2351TIP3   OH228611   3.354   2.537   6.860 -0.2672  0.4101 -0.4659
 2351TIP3    H128612   3.296   2.491   6.799  0.8786  0.8212 -1.9155
 2351TIP3    H228613   3.442   2.528   6.821  0.6154  0.1357  1.4585
 2352TIP3   OH228614   3.189   4.793   6.507  0.3671  0.1137 -0.1039
 2352TIP3    H128615   3.101   4.826   6.525  0.3125 -0.1076  0.0503
 2352TIP3    H228616   3.191   4.707   6.550  0.4464 -0.1519 -0.6305
 2353TIP3   OH228617   4.694   2.998   1.714  0.1542  0.5318 -0.6065
 2353TIP3    H128618   4.641   2.922   1.739  1.2402 -0.1093 -0.2127
 2353TIP3    H228619   4.782   2.977   1.745  0.4581  1.9832 -0.4270
 2354TIP3   OH228620   3.445   4.869   6.044 -0.5309  0.2962  0.1072
 2354TIP3    H128621   3.531   4.903   6.069  0.1920 -0.0554 -1.7241
 2354TIP3    H228622   3.402   4.849   6.127  1.5571 -0.4828  1.0891
 2355TIP3   OH228623   1.285   6.293   7.963  0.2748  0.4140  0.0186
 2355TIP3    H128624   1.298   6.269   8.054  0.8266  0.1632 -0.1224
 2355TIP3    H228625   1.350   6.242   7.915 -1.5075 -1.2448 -0.7797
 2356TIP3   OH228626   1.720   6.650   2.193 -0.5806 -0.3401  0.7822
 2356TIP3    H128627   1.750   6.741   2.198 -0.6669 -0.1266 -1.3948
 2356TIP3    H228628   1.626   6.657   2.181 -0.6971 -0.7628  1.4176
 2357TIP3   OH228629   4.140   3.001   1.534  0.2640  0.0835 -0.0192
 2357TIP3    H128630   4.184   2.929   1.579 -0.2167 -0.0757  0.2153
 2357TIP3    H228631   4.103   3.054   1.605 -0.4311 -0.1253 -0.2117
 2358TIP3   OH228632   5.202   6.139   0.118  0.6753 -0.1070  0.6343
 2358TIP3    H128633   5.251   6.061   0.092 -1.1285 -1.2367  0.4292
 2358TIP3    H228634   5.135   6.150   0.050 -0.9171 -0.1250  2.1062
 2359TIP3   OH228635   5.981   3.400   6.746 -0.4506 -0.0784 -0.0087
 2359TIP3    H128636   5.924   3.476   6.757 -1.7456 -1.0436  0.2817
 2359TIP3    H228637   6.007   3.402   6.654 -0.2136  0.8701  0.0673
 2360TIP3   OH228638   4.751   6.067   0.787 -0.5804  0.0274  0.7772
 2360TIP3    H128639   4.779   6.158   0.778  3.0848 -1.1089 -1.6126
 2360TIP3    H228640   4.701   6.050   0.707 -0.9920 -0.1634  1.0724
 2361TIP3   OH228641   0.200   4.335   0.504 -0.0123 -0.0644  0.5136
 2361TIP3    H128642   0.250   4.368   0.579 -1.4083  2.2200  0.5316
 2361TIP3    H228643   0.217   4.400   0.435  0.4069 -1.5628 -0.8454
 2362TIP3   OH228644   4.803   4.662   2.554  0.5860 -0.5289 -0.4080
 2362TIP3    H128645   4.847   4.585   2.589 -0.1220  0.3342  2.6935
 2362TIP3    H228646   4.874   4.722   2.531  1.1002 -1.4271 -1.2157
 2363TIP3   OH228647   6.373   6.489   0.734 -0.0026  0.4174  0.5175
 2363TIP3    H128648   6.287   6.531   0.731  0.2958  1.0070 -1.2859
 2363TIP3    H228649   6.359   6.408   0.782 -2.2047 -0.7629 -1.8611
 2364TIP3   OH228650   1.900   0.252   0.516  0.2675 -0.1506 -0.0108
 2364TIP3    H128651   1.965   0.182   0.519  0.8414  0.3848  0.3033
 2364TIP3    H228652   1.942   0.325   0.560 -1.0163 -0.1728  1.3182
 2365TIP3   OH228653   4.252   2.802   0.017  0.1230  0.2712 -0.5850
 2365TIP3    H128654   4.213   2.781   0.101 -1.4611  0.2908 -1.2865
 2365TIP3    H228655   4.291   2.720  -0.013 -0.7697 -0.1534 -0.5882
 2366TIP3   OH228656   6.556   4.263   1.336  0.2741  0.0793  0.3592
 2366TIP3    H128657   6.519   4.308   1.412  1.4909  0.2528  0.8768
 2366TIP3    H228658   6.571   4.173   1.367 -0.3956 -0.1859 -0.0772
 2367TIP3   OH228659   2.543   2.425   1.394 -1.1050 -0.2075  0.5739
 2367TIP3    H128660   2.549   2.475   1.476 -1.0975 -1.3771  1.3074
 2367TIP3    H228661   2.473   2.468   1.345  2.0309  3.6481 -1.0731
 2368TIP3   OH228662   4.540   2.638   2.035  0.1612 -0.0839 -0.3260
 2368TIP3    H128663   4.586   2.554   2.039 -0.1580 -0.2424  0.0661
 2368TIP3    H228664   4.488   2.642   2.115 -0.9007 -0.1402 -0.9783
 2369TIP3   OH228665   4.522   1.521   6.964  1.0710  0.8295 -0.5617
 2369TIP3    H128666   4.572   1.505   6.884  2.7322  2.3052  0.1183
 2369TIP3    H228667   4.451   1.579   6.937  0.6177 -0.0126 -1.2443
 2370TIP3   OH228668   2.698   0.421   0.133  0.0929 -0.0868 -0.5650
 2370TIP3    H128669   2.731   0.468   0.057 -1.9253  2.6858  0.1218
 2370TIP3    H228670   2.657   0.488   0.188 -0.2793 -2.2457  2.0407
 2371TIP3   OH228671   1.774   2.677   6.941 -0.4597  0.4259 -0.0962
 2371TIP3    H128672   1.771   2.585   6.913 -3.0657  0.3998  0.0049
 2371TIP3    H228673   1.743   2.726   6.864 -0.4999  1.0745  0.3254
 2372TIP3   OH228674   3.975   5.618   7.887  0.5046  0.3363  0.1746
 2372TIP3    H128675   4.063   5.652   7.869 -0.4523  2.5420 -0.6980
 2372TIP3    H228676   3.959   5.555   7.817  1.3565 -0.0317  0.3017
 2373TIP3   OH228677   0.997   3.938   7.838  0.7381  0.0311  0.3726
 2373TIP3    H128678   1.043   3.992   7.774  0.8567  1.2111  1.4167
 2373TIP3    H228679   0.919   3.907   7.791  0.4062  1.5242 -0.1165
 2374TIP3   OH228680   2.034   0.235   0.159 -0.6172  0.3577 -0.4402
 2374TIP3    H128681   1.948   0.248   0.197 -1.5366 -0.7868 -2.0279
 2374TIP3    H228682   2.053   0.142   0.173  0.3357  0.5786 -0.1745
 2375TIP3   OH228683   3.930   5.038   2.120  0.1994  0.8009 -0.2114
 2375TIP3    H128684   3.869   4.977   2.163  0.7750  0.7098  0.4975
 2375TIP3    H228685   3.988   5.068   2.191 -0.1304  2.2535 -0.5333
 2376TIP3   OH228686   5.969   5.060   0.937 -0.4441  0.5395  0.5626
 2376TIP3    H128687   6.003   5.148   0.958 -0.3197  0.4039  0.9409
 2376TIP3    H228688   6.044   5.013   0.902 -0.2886  0.3102  1.1886
 2377TIP3   OH228689   2.756   2.824   7.159  0.4461 -0.2582  0.4564
 2377TIP3    H128690   2.782   2.731   7.159  0.6181 -0.3044 -2.4888
 2377TIP3    H228691   2.688   2.830   7.092  0.8571  1.8430  0.1649
 2378TIP3   OH228692   5.155   5.202   8.009  0.4498  0.5108  0.2600
 2378TIP3    H128693   5.092   5.269   8.037  0.2392  0.6485 -0.5030
 2378TIP3    H228694   5.108   5.119   8.018 -0.4338  0.7211 -1.7522
 2379TIP3   OH228695   4.869   2.973   6.954 -0.0202  0.1475  1.0965
 2379TIP3    H128696   4.790   3.007   6.913  1.8643  1.5138 -1.7978
 2379TIP3    H228697   4.872   2.881   6.928  0.3745  0.6291 -0.6862
 2380TIP3   OH228698   0.751   2.144   1.443 -0.1340  0.3837 -0.0837
 2380TIP3    H128699   0.796   2.063   1.418 -2.2152 -1.2250  1.0331
 2380TIP3    H228700   0.783   2.162   1.531  0.6073  1.0077 -0.4750
 2381TIP3   OH228701   2.073   2.288   0.114 -0.6470 -0.3453 -0.3976
 2381TIP3    H128702   2.037   2.359   0.061  0.5735 -0.0912 -0.9265
 2381TIP3    H228703   2.018   2.213   0.095 -0.4252 -0.1717 -1.7814
 2382TIP3   OH228704   3.449   4.344   0.313 -0.2099  0.3605  0.6618
 2382TIP3    H128705   3.381   4.383   0.258  1.0842  0.7107 -0.7526
 2382TIP3    H228706   3.401   4.284   0.371 -1.7219  0.6357 -0.2342
 2383TIP3   OH228707   2.608   3.907   7.989  0.0328  0.2334 -0.3381
 2383TIP3    H128708   2.666   3.932   8.061  0.1037  0.3275 -0.4279
 2383TIP3    H228709   2.606   3.812   7.993 -1.8741  0.2661  1.3175
 2384TIP3   OH228710   0.221   4.975   7.346 -0.3641 -0.0431 -0.3594
 2384TIP3    H128711   0.218   5.070   7.355  0.2918 -0.1235  0.9515
 2384TIP3    H228712   0.131   4.949   7.328 -1.0225  0.6262  1.6969
 2385TIP3   OH228713   5.169   2.190   0.798 -0.0253  0.4498  0.2052
 2385TIP3    H128714   5.170   2.163   0.890 -0.9708 -0.5732 -0.0607
 2385TIP3    H228715   5.090   2.150   0.762  0.3946  0.7305 -1.0905
 2386TIP3   OH228716   6.145   1.322   7.281  0.0064 -0.0892 -0.0409
 2386TIP3    H128717   6.162   1.362   7.196 -2.8096 -2.7520 -2.0587
 2386TIP3    H228718   6.066   1.365   7.313  1.1169  0.9892  1.4227
 2387TIP3   OH228719   0.475   5.763   8.284 -0.7459 -0.4066 -0.1793
 2387TIP3    H128720   0.446   5.695   8.223  0.2946 -0.8427 -0.2118
 2387TIP3    H228721   0.568   5.773   8.265 -0.0807 -1.5154  2.2340
 2388TIP3   OH228722   3.041   2.803   6.874 -0.3499  0.7467  0.2554
 2388TIP3    H128723   3.040   2.861   6.798 -0.4690  0.7919  0.2916
 2388TIP3    H228724   2.950   2.776   6.885 -0.3474  0.8108  0.4348
 2389TIP3   OH228725   5.053   1.559   8.640 -0.0823  0.2117  0.5910
 2389TIP3    H128726   5.057   1.470   8.604  2.3729  0.5435 -0.1847
 2389TIP3    H228727   5.135   1.600   8.611 -1.4101  2.9488  0.4363
 2390TIP3   OH228728   3.527   5.423   1.697 -0.0754 -0.0393  0.3113
 2390TIP3    H128729   3.518   5.488   1.628  0.0203  1.0138  1.2510
 2390TIP3    H228730   3.498   5.468   1.776  0.6257 -0.9298  1.1039
 2391TIP3   OH228731   4.403   0.486   7.241  0.0190  0.0925  0.2003
 2391TIP3    H128732   4.451   0.563   7.213  0.9912  0.3769  2.4090
 2391TIP3    H228733   4.320   0.490   7.193 -0.3352  2.9931  0.8671
 2392TIP3   OH228734   2.883   4.223   0.825  0.1883 -0.2399 -0.1405
 2392TIP3    H128735   2.855   4.135   0.847  0.6793 -0.8643 -1.8333
 2392TIP3    H228736   2.961   4.238   0.878 -0.8638 -0.1153  1.4499
 2393TIP3   OH228737   5.581   1.440   0.882  0.3038 -0.0182 -0.1731
 2393TIP3    H128738   5.618   1.368   0.934  0.2537 -0.8599 -1.2587
 2393TIP3    H228739   5.597   1.415   0.791  1.2630  1.8979 -0.5777
 2394TIP3   OH228740   3.019   0.204   7.614 -0.4246 -0.1339  0.1384
 2394TIP3    H128741   3.020   0.193   7.519  1.6787 -0.7639  0.1998
 2394TIP3    H228742   3.028   0.299   7.627 -0.5149 -0.0663 -0.2841
 2395TIP3   OH228743   6.331   6.305   7.860  0.6323  0.4692  0.6305
 2395TIP3    H128744   6.372   6.267   7.937  2.9658  0.1807 -0.6644
 2395TIP3    H228745   6.352   6.398   7.864  1.9177  0.2421 -0.2865
 2396TIP3   OH228746   2.047   5.599   0.995 -0.1564  0.8774 -0.2372
 2396TIP3    H128747   2.031   5.653   1.072 -1.4087 -0.5745  0.5853
 2396TIP3    H228748   2.142   5.585   0.995  0.0745  2.3044  0.0299
 2397TIP3   OH228749   3.913   5.025   1.774  0.0881  0.1274  0.6583
 2397TIP3    H128750   3.983   5.089   1.788 -0.3896  0.8839 -0.3587
 2397TIP3    H228751   3.948   4.944   1.813  0.1279  1.2977  3.2323
 2398TIP3   OH228752   3.874   2.124   6.644  0.0203  0.1392  0.0451
 2398TIP3    H128753   3.785   2.089   6.646  0.0768  0.0084  0.2764
 2398TIP3    H228754   3.863   2.219   6.652  0.0126 -0.0049  2.8380
 2399TIP3   OH228755   4.276   0.295   0.668 -0.3905  0.0810 -0.6012
 2399TIP3    H128756   4.286   0.202   0.651  0.6217  0.0051  0.3059
 2399TIP3    H228757   4.358   0.334   0.639 -0.0582  0.4228  0.7566
 2400TIP3   OH228758   5.338   2.240   1.707 -0.1981 -0.3916 -1.1314
 2400TIP3    H128759   5.315   2.293   1.784 -1.6921  0.0650 -1.8531
 2400TIP3    H228760   5.384   2.164   1.743  4.2314  2.3709 -0.1817
 2401TIP3   OH228761   4.550   4.711   1.095  0.6216 -0.4588 -0.1113
 2401TIP3    H128762   4.634   4.736   1.135  1.3581 -2.8683 -0.0174
 2401TIP3    H228763   4.502   4.794   1.087  2.6255  0.8560  0.6919
 2402TIP3   OH228764   3.612   4.824   6.983  0.6731 -0.0312  0.1125
 2402TIP3    H128765   3.693   4.866   7.013  0.2408 -0.0315  1.3391
 2402TIP3    H228766   3.582   4.774   7.059 -0.5302  0.0505 -0.2940
 2403TIP3   OH228767   0.884   3.291   7.366 -0.6461  0.2235 -0.5008
 2403TIP3    H128768   0.974   3.274   7.392 -0.1174  1.8904 -1.1373
 2403TIP3    H228769   0.890   3.359   7.299 -2.4869  1.7981  0.8070
 2404TIP3   OH228770   5.235   4.319   2.079 -0.3535  0.1979 -0.1903
 2404TIP3    H128771   5.173   4.282   2.016 -1.2661 -0.9654  1.3229
 2404TIP3    H228772   5.296   4.248   2.096 -1.0352 -0.0552  1.3678
 2405TIP3   OH228773   2.990   2.812   7.349  0.1975  0.2621  0.2211
 2405TIP3    H128774   2.993   2.850   7.261 -0.9386 -2.7315 -1.2592
 2405TIP3    H228775   3.076   2.773   7.362  0.0979 -0.0181  0.0549
 2406TIP3   OH228776   5.365   1.888   1.490  0.2223  0.0968 -0.6332
 2406TIP3    H128777   5.372   1.810   1.434  0.9691  0.6602 -1.3513
 2406TIP3    H228778   5.454   1.924   1.492  0.0194  0.5809  0.2126
 2407TIP3   OH228779   4.504   6.725   0.735 -0.1826 -0.0627  0.3010
 2407TIP3    H128780   4.593   6.690   0.731 -0.1601 -0.1508  1.3156
 2407TIP3    H228781   4.475   6.707   0.824 -1.7937 -1.4247 -0.4312
 2408TIP3   OH228782   0.563   0.829   6.781  0.1457 -0.2601 -0.3322
 2408TIP3    H128783   0.613   0.763   6.829 -0.9919 -0.6052  0.4398
 2408TIP3    H228784   0.517   0.780   6.713 -0.8447 -0.3167  0.3589
 2409TIP3   OH228785   4.242   2.415   0.043 -0.5465  0.2175 -0.2819
 2409TIP3    H128786   4.151   2.434   0.066 -0.5122  0.1644 -0.0967
 2409TIP3    H228787   4.240   2.328   0.003 -0.8129  0.9051 -1.8451
 2410TIP3   OH228788   6.865   3.159   2.131  0.0738  0.3887 -0.5622
 2410TIP3    H128789   6.845   3.251   2.142  1.1219  0.3732  2.5686
 2410TIP3    H228790   6.791   3.113   2.170 -0.6990 -0.1763 -2.5777
 2411TIP3   OH228791   0.543   3.708   2.044  0.2742  0.1798  0.1727
 2411TIP3    H128792   0.535   3.752   2.129  3.5554  1.6407 -0.1019
 2411TIP3    H228793   0.587   3.625   2.065 -0.7922 -0.4255  0.0757
 2412TIP3   OH228794   5.133   5.176   2.297  0.0242  0.5027 -0.6164
 2412TIP3    H128795   5.165   5.142   2.381  0.0117 -0.5109 -1.0149
 2412TIP3    H228796   5.127   5.271   2.311  0.1855  0.3690  0.4738
 2413TIP3   OH228797   2.428   0.022   1.062 -0.2631  0.0410  0.3396
 2413TIP3    H128798   2.476  -0.059   1.048 -2.1319 -1.0539  0.0264
 2413TIP3    H228799   2.493   0.091   1.046  0.7029 -1.3066 -2.1454
 2414TIP3   OH228800   6.552   4.926   8.188 -0.1000  0.2918  0.0446
 2414TIP3    H128801   6.463   4.942   8.156 -0.0857  0.3356  0.0283
 2414TIP3    H228802   6.562   4.985   8.262 -0.4061 -0.3473  0.6088
 2415TIP3   OH228803   3.722   4.604   1.987 -0.9007 -0.3699  0.0114
 2415TIP3    H128804   3.695   4.533   1.929  2.3958 -2.9031  1.3024
 2415TIP3    H228805   3.756   4.560   2.065 -0.4150  2.7231  1.6965
 2416TIP3   OH228806   3.552   5.615   1.043  0.0545  1.2915 -0.0972
 2416TIP3    H128807   3.531   5.541   1.100  0.4781  1.2843  0.0570
 2416TIP3    H228808   3.498   5.686   1.074  1.6272  1.8346  1.5614
 2417TIP3   OH228809   6.149   2.896   0.786  0.1810  0.0342 -0.1781
 2417TIP3    H128810   6.243   2.877   0.791  0.0571 -0.8368 -0.8890
 2417TIP3    H228811   6.142   2.964   0.719  0.3767  0.7784  0.5324
 2418TIP3   OH228812   5.967   4.134   6.885 -0.7978 -0.0397  0.3034
 2418TIP3    H128813   5.984   4.068   6.953  0.5098  0.6753  0.6969
 2418TIP3    H228814   5.927   4.207   6.932 -0.9791 -0.0122  0.1036
 2419TIP3   OH228815   2.291   2.587   0.699  0.3015  0.0701  0.1625
 2419TIP3    H128816   2.259   2.596   0.789 -0.9294 -0.9850 -0.1453
 2419TIP3    H228817   2.229   2.638   0.646  1.2285  0.9926 -0.0849
 2420TIP3   OH228818   1.068   1.587   7.309 -0.4810 -0.3751 -0.4407
 2420TIP3    H128819   1.137   1.603   7.244 -0.6544 -0.7069 -0.7132
 2420TIP3    H228820   1.104   1.519   7.366  0.4120  1.1949  0.9553
 2421TIP3   OH228821   4.376   1.594   1.485  0.1463  0.5326 -0.3600
 2421TIP3    H128822   4.416   1.507   1.482 -0.8342  0.0523  0.2330
 2421TIP3    H228823   4.451   1.654   1.492  0.9100 -0.1447 -2.0351
 2422TIP3   OH228824   6.593   6.240   0.542 -0.1173 -0.1948  0.4874
 2422TIP3    H128825   6.561   6.248   0.453  0.7166  0.9182  0.2582
 2422TIP3    H228826   6.516   6.217   0.594 -0.3226 -2.5712 -0.7271
 2423TIP3   OH228827   0.300   6.065   6.346 -0.3440 -0.3329 -0.3991
 2423TIP3    H128828   0.329   6.153   6.324  2.7153 -1.1715 -0.2512
 2423TIP3    H228829   0.304   6.017   6.262 -0.8006 -0.6230 -0.2607
 2424TIP3   OH228830   1.769   4.152   1.754 -0.5007  0.1262  0.0885
 2424TIP3    H128831   1.743   4.186   1.840 -0.9378  0.9817 -0.3696
 2424TIP3    H228832   1.862   4.131   1.764 -0.6172 -0.0686  0.8524
 2425TIP3   OH228833   4.967   5.445   8.332  0.4662  0.0256  0.1122
 2425TIP3    H128834   5.005   5.361   8.306 -0.3643 -0.4183  0.2751
 2425TIP3    H228835   5.016   5.510   8.283 -0.2465 -0.7012 -1.6341
 2426TIP3   OH228836   5.716   5.423   7.729  0.2389  0.5351  0.2879
 2426TIP3    H128837   5.794   5.392   7.773  1.0866  1.3901 -0.5575
 2426TIP3    H228838   5.680   5.346   7.685 -0.3591 -0.2229  2.0197
 2427TIP3   OH228839   1.913   3.068   6.358 -0.2650  0.3581  0.4210
 2427TIP3    H128840   1.925   2.973   6.357 -2.1579  0.0837 -0.5306
 2427TIP3    H228841   2.002   3.103   6.364  0.5817 -1.4471 -0.6267
 2428TIP3   OH228842   5.063   3.352   8.139 -0.7439  0.0957 -0.2599
 2428TIP3    H128843   4.988   3.407   8.115 -0.5470  0.3587 -0.2745
 2428TIP3    H228844   5.039   3.315   8.224 -0.5976  0.7259  0.0665
 2429TIP3   OH228845   3.669   3.603   0.207 -0.2321  0.0637 -0.7906
 2429TIP3    H128846   3.654   3.696   0.196 -0.5838  0.5688  2.7963
 2429TIP3    H228847   3.764   3.595   0.221 -0.0948 -0.2621 -1.7878
 2430TIP3   OH228848   0.289   4.322   1.052 -0.9111  0.5527 -0.1425
 2430TIP3    H128849   0.369   4.361   1.086 -1.7491  0.8917  1.5723
 2430TIP3    H228850   0.260   4.382   0.983 -0.0197  0.7409 -0.3668
 2431TIP3   OH228851   5.689   0.040   7.168 -0.1730 -0.1131  0.1004
 2431TIP3    H128852   5.711  -0.025   7.100  0.8082 -0.9131  1.1418
 2431TIP3    H228853   5.647  -0.011   7.237 -1.4986  0.7524 -0.0369
 2432TIP3   OH228854   1.492   3.152   0.979  0.3295  0.3659  0.2124
 2432TIP3    H128855   1.410   3.127   1.022  0.5576 -1.4916 -0.3432
 2432TIP3    H228856   1.542   3.195   1.048 -0.9995  1.3242  0.6226
 2433TIP3   OH228857   1.200   5.362   0.827 -0.3125  0.0582 -0.0537
 2433TIP3    H128858   1.163   5.326   0.907 -1.2740  0.7370 -0.1766
 2433TIP3    H228859   1.154   5.316   0.756  1.3500 -1.3838 -0.2609
 2434TIP3   OH228860   3.264   2.481   2.621  0.1946  0.0814  0.0159
 2434TIP3    H128861   3.274   2.386   2.632 -2.1436 -0.0731  1.5716
 2434TIP3    H228862   3.169   2.495   2.625  0.5111  2.5304  0.1115
 2435TIP3   OH228863   3.849   6.381   0.675  0.1010 -0.3397 -0.2604
 2435TIP3    H128864   3.777   6.382   0.612  0.7751  1.2958 -1.0585
 2435TIP3    H228865   3.926   6.405   0.624  0.5088  2.0756  1.3076
 2436TIP3   OH228866   2.584   6.068   5.939  0.0429  0.2756  0.5374
 2436TIP3    H128867   2.664   6.095   5.985  0.6611  0.1011 -0.3886
 2436TIP3    H228868   2.577   5.974   5.958 -1.0447  0.6598  2.2011
 2437TIP3   OH228869   1.345   3.548   6.088 -0.2946 -0.1910 -0.0804
 2437TIP3    H128870   1.261   3.588   6.110 -0.2157 -0.6635  1.1350
 2437TIP3    H228871   1.405   3.622   6.081 -1.0081  0.2723 -2.1308
 2438TIP3   OH228872   0.431   1.025   7.613 -0.0971 -0.2030 -0.0387
 2438TIP3    H128873   0.394   0.997   7.529 -1.8690 -1.0721  0.9820
 2438TIP3    H228874   0.380   1.102   7.638 -1.0745 -1.2077  1.2198
 2439TIP3   OH228875   1.458   6.162   1.244 -0.0123  0.0189  0.1537
 2439TIP3    H128876   1.363   6.156   1.243  0.0103 -0.4606 -1.1088
 2439TIP3    H228877   1.476   6.257   1.245 -0.5046  0.1155 -0.1051
 2440TIP3   OH228878   4.177   1.127   7.329 -0.1311  0.2057 -0.1786
 2440TIP3    H128879   4.186   1.178   7.249  0.6109 -0.2070 -0.3614
 2440TIP3    H228880   4.255   1.149   7.381 -0.4557  0.2411  0.3043
 2441TIP3   OH228881   0.497   0.447   0.442  0.3938 -0.6220 -0.1184
 2441TIP3    H128882   0.510   0.542   0.440 -1.7406 -0.2505  0.4363
 2441TIP3    H228883   0.525   0.417   0.356  0.2803  0.6554 -0.6242
 2442TIP3   OH228884   4.518   3.674   8.632 -0.3149  0.1058 -0.5625
 2442TIP3    H128885   4.475   3.590   8.648 -0.3742  0.0889 -0.8000
 2442TIP3    H228886   4.609   3.660   8.657 -0.3325 -0.0214 -0.5715
 2443TIP3   OH228887   5.397   1.796   7.962 -0.1792  0.6053 -0.1086
 2443TIP3    H128888   5.482   1.806   7.918  0.7586  1.1728  1.7215
 2443TIP3    H228889   5.358   1.883   7.960 -1.5874  0.0126 -2.4693
 2444TIP3   OH228890   0.500   4.478   0.187 -0.4234 -0.0379 -0.2768
 2444TIP3    H128891   0.566   4.409   0.178 -2.0819 -1.7611  0.1734
 2444TIP3    H228892   0.476   4.500   0.097 -0.3737 -0.5585 -0.4205
 2445TIP3   OH228893   0.866   1.649   0.212  0.3475  0.5046  0.1242
 2445TIP3    H128894   0.772   1.645   0.230  0.1085 -0.1549 -1.2147
 2445TIP3    H228895   0.877   1.733   0.167  0.0995 -0.2153 -1.3143
 2446TIP3   OH228896   6.248   5.480   7.475  0.3737  0.0396  0.8753
 2446TIP3    H128897   6.222   5.461   7.565  0.7744 -1.0239  0.7805
 2446TIP3    H228898   6.262   5.394   7.436  2.0451  0.5163  0.3439
 2447TIP3   OH228899   0.473   5.819   7.687  0.0373 -0.3002  0.0416
 2447TIP3    H128900   0.483   5.724   7.693 -0.8634 -0.4630 -0.7621
 2447TIP3    H228901   0.504   5.841   7.599  0.9544  0.2589  0.4952
 2448TIP3   OH228902   4.408   2.743   0.852 -0.3679  0.2960  0.4229
 2448TIP3    H128903   4.387   2.667   0.906  0.4379 -1.8852 -2.1283
 2448TIP3    H228904   4.497   2.728   0.823  0.3834  3.0478  0.9811
 2449TIP3   OH228905   2.865   6.810   2.183  0.9475  0.2499  0.2817
 2449TIP3    H128906   2.776   6.782   2.162  0.8427  1.3373 -0.8612
 2449TIP3    H228907   2.889   6.870   2.112  2.0875  1.0433  1.2831
 2450TIP3   OH228908   2.674   2.689   7.768  0.5209  0.2064  0.3031
 2450TIP3    H128909   2.685   2.731   7.853  0.0354  1.2265 -0.1290
 2450TIP3    H228910   2.748   2.719   7.716  0.2330  0.4603  0.0299
 2451TIP3   OH228911   5.221   0.176   1.785 -0.1870 -0.7357  0.1558
 2451TIP3    H128912   5.233   0.134   1.871  1.4717  0.0508  0.3452
 2451TIP3    H228913   5.201   0.267   1.805 -0.3072 -0.6627 -0.2862
 2452TIP3   OH228914   3.754   4.647   7.674  0.7656 -0.2057 -0.1779
 2452TIP3    H128915   3.736   4.740   7.656  2.6691  0.1941 -0.2097
 2452TIP3    H228916   3.687   4.622   7.737 -1.4806  0.4062 -2.1744
 2453TIP3   OH228917   5.814   3.241   7.252  0.4882 -0.1521 -0.0053
 2453TIP3    H128918   5.862   3.180   7.196  0.8915 -0.2246  0.4055
 2453TIP3    H228919   5.736   3.264   7.203  1.3756  0.6539 -1.0815
 2454TIP3   OH228920   2.829   4.403   6.904  0.2665  0.1798 -0.1302
 2454TIP3    H128921   2.837   4.395   7.000 -2.6592  3.8056  0.6275
 2454TIP3    H228922   2.911   4.444   6.877  0.9977 -0.5897  0.8388
 2455TIP3   OH228923   3.983   2.558   6.517  0.0185  0.1916  0.0058
 2455TIP3    H128924   3.901   2.608   6.511 -1.0988 -1.4799  0.6295
 2455TIP3    H228925   3.969   2.497   6.589  2.2637  0.6005  0.8734
 2456TIP3   OH228926   1.876   3.555   0.892 -0.7745  1.1238 -0.0373
 2456TIP3    H128927   1.957   3.583   0.848 -0.2513 -0.3179 -0.0363
 2456TIP3    H228928   1.814   3.626   0.875  0.4788  2.2597 -0.0540
 2457TIP3   OH228929   2.781   3.987   8.197 -0.2145  0.6055  0.3931
 2457TIP3    H128930   2.871   4.001   8.167  0.4395 -1.1363  1.3599
 2457TIP3    H228931   2.782   3.898   8.233 -1.8962  1.1746  1.9969
 2458TIP3   OH228932   3.261   1.266   0.763  0.0155  0.0700  0.1612
 2458TIP3    H128933   3.338   1.323   0.767  0.4179 -0.5135  1.3689
 2458TIP3    H228934   3.191   1.323   0.729  0.6241  1.0253  0.4546
 2459TIP3   OH228935   1.452   5.915   7.972  0.7956  0.2876  0.6390
 2459TIP3    H128936   1.444   5.962   7.888  1.5988 -0.1554  0.3005
 2459TIP3    H228937   1.453   5.985   8.038 -1.6704  0.5579  0.4507
 2460TIP3   OH228938   5.887   2.713   8.533  0.0972 -0.2512 -0.1700
 2460TIP3    H128939   5.862   2.760   8.453 -0.0781  0.4171  0.2711
 2460TIP3    H228940   5.945   2.643   8.502 -0.6792 -0.5551 -0.9755
 2461TIP3   OH228941   6.874   6.445   2.364 -0.4614  0.8216  0.3739
 2461TIP3    H128942   6.913   6.491   2.438 -2.0519  1.4794  0.8463
 2461TIP3    H228943   6.904   6.494   2.287  0.7844  0.4353  0.5846
 2462TIP3   OH228944   3.860   4.814   0.833  0.5278 -0.0308  0.2322
 2462TIP3    H128945   3.811   4.882   0.879  2.4130  0.6040  1.4594
 2462TIP3    H228946   3.922   4.863   0.778  0.4821 -0.7877 -0.5099
 2463TIP3   OH228947   5.104   3.978   2.404 -0.1081  0.8704 -0.5025
 2463TIP3    H128948   5.097   3.975   2.500  1.0803 -0.1679 -0.4187
 2463TIP3    H228949   5.044   3.909   2.374 -0.6511  1.3479 -0.5236
 2464TIP3   OH228950   1.767   4.410   8.199 -0.5088  0.2648 -0.3085
 2464TIP3    H128951   1.769   4.497   8.160  1.0556  0.2493 -0.3281
 2464TIP3    H228952   1.858   4.383   8.202 -0.6921 -0.2946  2.1503
 2465TIP3   OH228953   4.699   0.562   1.594 -0.4869 -0.0701  0.4982
 2465TIP3    H128954   4.723   0.470   1.584 -0.8426 -0.0306 -0.8350
 2465TIP3    H228955   4.613   0.570   1.554  0.0616  1.0785 -0.5276
 2466TIP3   OH228956   2.685   4.409   8.452 -0.6364  0.2259  0.4838
 2466TIP3    H128957   2.652   4.482   8.503 -1.0794  1.0420 -0.9143
 2466TIP3    H228958   2.616   4.343   8.457 -0.7460  0.3656  0.8116
 2467TIP3   OH228959   2.757   0.961   0.864  0.2641 -0.0884  0.6202
 2467TIP3    H128960   2.817   0.943   0.937  1.4709  1.6418  0.1074
 2467TIP3    H228961   2.803   0.928   0.787 -0.5345 -0.9233  0.4816
 2468TIP3   OH228962   5.190   3.610   6.479 -0.6473  0.1824  0.6988
 2468TIP3    H128963   5.255   3.675   6.506 -1.6664  0.7544  1.8665
 2468TIP3    H228964   5.232   3.526   6.498 -0.5987  0.5500  2.4015
 2469TIP3   OH228965   5.081   6.432   0.954  0.1965  0.7264  0.5531
 2469TIP3    H128966   5.172   6.448   0.929  0.4626 -2.5929 -1.0692
 2469TIP3    H228967   5.087   6.398   1.044  0.6379  0.0262  0.2691
 2470TIP3   OH228968   0.530   5.342   0.252 -0.0887  0.0764  0.3356
 2470TIP3    H128969   0.541   5.346   0.347  0.3894 -0.1454  0.2927
 2470TIP3    H228970   0.442   5.375   0.237  0.3530  1.5276  0.7444
 2471TIP3   OH228971   6.090   4.346   6.602  0.4163 -0.6954 -0.0307
 2471TIP3    H128972   6.132   4.277   6.551  0.0921  1.0007 -2.7905
 2471TIP3    H228973   5.997   4.327   6.596  0.2850  0.2056 -1.2730
 2472TIP3   OH228974   5.370   3.028   0.108 -0.7990 -0.1122  0.6458
 2472TIP3    H128975   5.414   2.963   0.162 -1.5451  0.2966  1.7758
 2472TIP3    H228976   5.286   2.988   0.085  0.2688 -1.1168 -1.9568
 2473TIP3   OH228977   5.048   0.516   8.193  0.1518 -0.7271  0.3473
 2473TIP3    H128978   5.023   0.442   8.249  0.3000 -2.5606 -1.8726
 2473TIP3    H228979   5.042   0.592   8.250 -1.2118 -2.2854  2.4221
 2474TIP3   OH228980   0.168   0.051   2.010  0.1100 -0.0073  0.0380
 2474TIP3    H128981   0.230  -0.017   2.037  1.7606  1.9732  1.7131
 2474TIP3    H228982   0.213   0.133   2.033 -2.7426  1.5757  0.3947
 2475TIP3   OH228983   6.466   4.766   1.104 -0.2885 -0.1891 -0.2262
 2475TIP3    H128984   6.500   4.677   1.113 -2.7648 -1.3500 -1.3963
 2475TIP3    H228985   6.483   4.789   1.013 -3.1674 -1.1560 -1.1117
 2476TIP3   OH228986   6.122   4.393   7.305 -0.2131 -0.3472  0.8651
 2476TIP3    H128987   6.152   4.467   7.358 -1.1604  0.1481  0.7166
 2476TIP3    H228988   6.079   4.433   7.229  1.2897 -1.0364 -0.4226
 2477TIP3   OH228989   2.406   4.060   7.541 -0.0885  0.0648 -0.2371
 2477TIP3    H128990   2.419   3.986   7.601 -0.2537  2.0758  2.4756
 2477TIP3    H228991   2.317   4.090   7.559  0.0309  1.0228 -1.1701
 2478TIP3   OH228992   2.543   2.395   1.872  0.2656  0.6576 -0.5669
 2478TIP3    H128993   2.480   2.421   1.805  0.3250  0.6258 -0.6355
 2478TIP3    H228994   2.490   2.354   1.940  0.1657  0.9913 -0.4383
 2479TIP3   OH228995   5.002   2.111   6.255 -0.7675  0.3351  0.5831
 2479TIP3    H128996   4.994   2.202   6.228 -1.1643  0.1832  0.1775
 2479TIP3    H228997   4.943   2.103   6.330  1.3150  1.0883  2.3979
 2480TIP3   OH228998   1.041   2.548   1.031  0.1377 -0.2134 -0.3245
 2480TIP3    H128999   0.976   2.492   0.988  1.8772 -1.6559 -1.2081
 2480TIP3    H229000   1.002   2.567   1.117 -1.8909 -0.1350 -1.1956
 2481TIP3   OH229001   1.287   2.279   8.291 -0.5032  0.1881 -0.4957
 2481TIP3    H129002   1.376   2.274   8.327 -0.3649  0.9601 -0.7083
 2481TIP3    H229003   1.296   2.250   8.201 -0.8771 -1.8981  0.0792
 2482TIP3   OH229004   5.910   4.565   1.940 -0.4303 -0.6460 -0.6005
 2482TIP3    H129005   5.997   4.538   1.909 -0.1448  0.9445 -1.3086
 2482TIP3    H229006   5.926   4.605   2.025 -0.8641 -2.6785  0.4911
 2483TIP3   OH229007   1.295   6.148   8.484  0.0821  0.0431  0.2126
 2483TIP3    H129008   1.280   6.166   8.391  0.0136  2.8836  0.6921
 2483TIP3    H229009   1.390   6.154   8.495  0.0114  0.6599  0.4949
 2484TIP3   OH229010   0.630   2.008   7.227  0.3715  0.4787  0.1312
 2484TIP3    H129011   0.620   1.968   7.141  2.3255  1.6664 -0.7287
 2484TIP3    H229012   0.642   1.935   7.287 -0.1907 -0.3283 -0.7260
 2485TIP3   OH229013   4.316   6.146   0.267 -0.0820  0.2416 -0.0572
 2485TIP3    H129014   4.240   6.131   0.324 -0.0801  0.7846  0.0949
 2485TIP3    H229015   4.280   6.190   0.190  0.0269  0.1981 -0.1327
 2486TIP3   OH229016   3.562   1.342   1.854 -0.2420 -0.4557 -0.0161
 2486TIP3    H129017   3.565   1.293   1.936 -1.2876 -0.9860 -0.2696
 2486TIP3    H229018   3.577   1.277   1.786 -0.0923 -0.1435 -0.2868
 2487TIP3   OH229019   1.286   6.068   0.497 -0.0772 -0.3920 -0.1808
 2487TIP3    H129020   1.256   6.110   0.577 -0.7131  0.7779 -1.0079
 2487TIP3    H229021   1.225   6.098   0.430  2.0325  0.8303 -1.6495
 2488TIP3   OH229022   0.139   0.837   7.749  0.2337  0.5974 -0.2416
 2488TIP3    H129023   0.171   0.799   7.668 -1.8279  1.3545 -1.4794
 2488TIP3    H229024   0.047   0.810   7.754  0.1126  1.1728  1.4741
 2489TIP3   OH229025   2.948   2.863   1.121  0.3108 -0.3733  0.4919
 2489TIP3    H129026   3.042   2.878   1.104 -0.1240  1.1989 -0.7938
 2489TIP3    H229027   2.937   2.768   1.110  1.8018 -0.6434  1.0453
 2490TIP3   OH229028   1.346   5.192   1.159 -0.0870  0.5538  0.0827
 2490TIP3    H129029   1.333   5.179   1.253  0.0624 -0.7524 -0.0512
 2490TIP3    H229030   1.426   5.143   1.139 -0.9307 -0.4594 -0.9755
 2491TIP3   OH229031   5.912   5.406   7.414 -0.4240  0.2840 -0.0277
 2491TIP3    H129032   5.955   5.424   7.330 -1.8871  1.9145 -0.4729
 2491TIP3    H229033   5.976   5.354   7.462  0.3081 -1.0276 -2.2761
 2492TIP3   OH229034   0.376   1.970   8.624 -0.2564 -0.2597 -0.8814
 2492TIP3    H129035   0.445   2.022   8.583 -0.3017  0.2617 -0.3170
 2492TIP3    H229036   0.316   2.035   8.661 -0.6242 -0.7146 -0.6721
 2493TIP3   OH229037   0.854   1.609   2.673  0.0162  0.1695 -0.5361
 2493TIP3    H129038   0.808   1.544   2.619 -0.0851  1.4486 -2.0836
 2493TIP3    H229039   0.934   1.565   2.701 -1.0522 -1.3403  0.3215
 2494TIP3   OH229040   3.925   5.964   1.118  0.2391  0.1371 -0.1870
 2494TIP3    H129041   3.879   5.889   1.157  0.7815 -0.7583 -1.1994
 2494TIP3    H229042   3.909   5.955   1.024 -0.0993  1.5951 -0.2859
 2495TIP3   OH229043   0.704   3.187   8.364  0.0560  0.5722  0.0736
 2495TIP3    H129044   0.784   3.234   8.341  0.1563  0.3316 -0.0790
 2495TIP3    H229045   0.655   3.181   8.281 -0.0861  0.6560  0.1516
 2496TIP3   OH229046   3.266   6.123   1.083 -0.2090 -0.0221 -0.3687
 2496TIP3    H129047   3.193   6.128   1.021 -1.3460  0.5014  0.9831
 2496TIP3    H229048   3.227   6.139   1.169  1.2954 -1.0368  0.5455
 2497TIP3   OH229049   6.159   5.116   1.287 -0.2673  0.3182  0.3012
 2497TIP3    H129050   6.133   5.045   1.229  0.8186  0.9703 -1.0439
 2497TIP3    H229051   6.255   5.110   1.291 -0.0004  2.6122 -1.1003
 2498TIP3   OH229052   6.045   4.466   1.611  0.1573 -0.3876 -0.1033
 2498TIP3    H129053   6.099   4.483   1.689  1.0027 -0.4798 -0.6506
 2498TIP3    H229054   5.978   4.405   1.641  0.9092 -0.9895  0.3989
 2499TIP3   OH229055   3.797   6.430   6.671 -0.0875  0.6733 -0.0332
 2499TIP3    H129056   3.769   6.347   6.632 -0.5018  1.1244 -0.7237
 2499TIP3    H229057   3.889   6.417   6.695 -0.3926 -0.2694  0.6774
 2500TIP3   OH229058   6.872   4.534   0.116 -0.1455  0.6329  0.1673
 2500TIP3    H129059   6.918   4.608   0.076 -1.8564  2.6306  1.6598
 2500TIP3    H229060   6.889   4.461   0.057  4.1562  1.3418  0.1529
 2501TIP3   OH229061   4.181   3.345   1.416 -0.2563  0.4655  0.0278
 2501TIP3    H129062   4.203   3.330   1.508 -1.4988 -2.6839 -0.0427
 2501TIP3    H229063   4.090   3.371   1.417 -0.1210  0.9535 -0.2877
 2502TIP3   OH229064   5.374   4.299   1.084 -0.1685  0.2464 -0.5043
 2502TIP3    H129065   5.390   4.320   1.176 -0.4866  1.4478 -0.7107
 2502TIP3    H229066   5.337   4.210   1.086 -1.0850  0.6204  0.6058
 2503TIP3   OH229067   5.674   2.093   7.946 -0.5381  0.3152  0.1166
 2503TIP3    H129068   5.721   2.171   7.977  2.5472 -1.0540 -0.6421
 2503TIP3    H229069   5.634   2.056   8.024  2.3781 -0.0694  1.5959
 2504TIP3   OH229070   3.970   2.065   0.080  0.2772 -0.4003 -0.2072
 2504TIP3    H129071   3.879   2.035   0.072 -0.6397  2.1770 -0.2603
 2504TIP3    H229072   3.991   2.100  -0.006  1.1221 -0.3928 -0.0068
 2505TIP3   OH229073   3.953   3.214   1.724 -0.1511 -0.1819 -0.5692
 2505TIP3    H129074   4.030   3.257   1.761 -0.0644 -1.1079  0.3686
 2505TIP3    H229075   3.934   3.143   1.785 -1.4850 -0.2394 -1.0286
 2506TIP3   OH229076   3.734   1.271   1.353 -0.0981 -0.0403  0.0165
 2506TIP3    H129077   3.809   1.254   1.297 -1.3983 -0.3293 -1.7381
 2506TIP3    H229078   3.682   1.191   1.348 -1.0813  0.5657  0.2652
 2507TIP3   OH229079   0.720   2.704   7.486  0.0353  0.1260  0.1570
 2507TIP3    H129080   0.811   2.677   7.487  0.8164  2.4968  1.5637
 2507TIP3    H229081   0.692   2.697   7.577 -1.2158 -0.5615 -0.2540
 2508TIP3   OH229082   0.864   4.401   6.864  0.6756  0.0893 -0.1262
 2508TIP3    H129083   0.912   4.481   6.843 -0.4732  0.2370 -2.5471
 2508TIP3    H229084   0.774   4.431   6.878  0.4653 -0.6458  0.1116
 2509TIP3   OH229085   4.078   5.508   7.376  0.5024  0.1182 -0.3128
 2509TIP3    H129086   3.984   5.491   7.384  0.5817 -0.7885 -1.1608
 2509TIP3    H229087   4.101   5.474   7.289  1.4036  1.3039 -0.5634
 2510TIP3   OH229088   4.517   2.809   1.814  0.1720  0.2421 -0.2651
 2510TIP3    H129089   4.546   2.765   1.894  1.2468  0.5322 -0.4922
 2510TIP3    H229090   4.425   2.781   1.805  0.3445 -0.6447  0.4838
 2511TIP3   OH229091   0.861   3.506   7.942 -0.3498 -0.8855  0.0453
 2511TIP3    H129092   0.829   3.583   7.895 -1.3155 -0.3119  1.5641
 2511TIP3    H229093   0.817   3.432   7.900 -1.0456 -0.4063 -0.0785
 2512TIP3   OH229094   0.205   3.788   2.104 -0.3701 -0.5535 -0.3114
 2512TIP3    H129095   0.174   3.701   2.128  0.8032 -1.1143 -0.7397
 2512TIP3    H229096   0.270   3.810   2.171 -0.7962  0.0801 -0.0970
 2513TIP3   OH229097   6.457   6.071   1.019  0.0356 -0.1723 -0.0237
 2513TIP3    H129098   6.423   5.988   0.985  0.9354 -0.5034 -0.1588
 2513TIP3    H229099   6.549   6.071   0.992  0.9146 -0.6358  2.7163
 2514TIP3   OH229100   3.611   2.650   1.529  0.4047  0.1667 -0.1309
 2514TIP3    H129101   3.705   2.647   1.545  0.2350 -0.5889  0.7410
 2514TIP3    H229102   3.584   2.736   1.561  0.6356 -0.0111  0.5513
 2515TIP3   OH229103   5.358   3.314   8.248 -0.0755  0.0030 -0.4395
 2515TIP3    H129104   5.367   3.257   8.325 -0.4881  0.8854  0.2838
 2515TIP3    H229105   5.269   3.350   8.256  1.3689  3.6648  1.2191
 2516TIP3   OH229106   0.598   6.858   6.639 -0.6289 -0.3371  0.7455
 2516TIP3    H129107   0.533   6.917   6.677 -2.0796 -2.5061  1.8974
 2516TIP3    H229108   0.680   6.880   6.683 -0.9666  1.2147  0.6498
 2517TIP3   OH229109   4.895   1.066   1.875 -0.1369  0.0916 -0.0677
 2517TIP3    H129110   4.852   1.020   1.803 -1.1067  1.7660 -0.6132
 2517TIP3    H229111   4.824   1.079   1.939  0.5638 -0.7924  0.9282
 2518TIP3   OH229112   6.803   0.757   1.917  0.1215  0.6773  0.0866
 2518TIP3    H129113   6.843   0.815   1.851  0.9986 -1.4389 -1.3504
 2518TIP3    H229114   6.875   0.705   1.950 -0.8451 -0.5833  0.2722
 2519TIP3   OH229115   0.493   2.494   0.168 -0.0595  0.4686  0.6514
 2519TIP3    H129116   0.441   2.516   0.090  2.6341  2.9540 -0.6632
 2519TIP3    H229117   0.443   2.530   0.241 -0.3302  2.7286 -0.5450
 2520TIP3   OH229118   2.063   1.571   0.627 -0.1014 -0.6758 -0.6142
 2520TIP3    H129119   2.074   1.614   0.711 -0.6216  0.2785 -1.0178
 2520TIP3    H229120   1.976   1.598   0.597  0.4200 -0.2809 -1.8522
 2521TIP3   OH229121   1.509   6.470   0.663  0.2470 -0.1842  0.3526
 2521TIP3    H129122   1.417   6.446   0.648  0.4756 -0.2230 -1.1324
 2521TIP3    H229123   1.547   6.393   0.707  0.2416 -1.4187 -1.6480
 2522TIP3   OH229124   0.985   5.347   7.495  0.4323 -0.6812  0.2673
 2522TIP3    H129125   0.891   5.355   7.511  0.3352  2.3505 -1.2041
 2522TIP3    H229126   1.023   5.425   7.535  2.3865 -1.9034  0.9284
 2523TIP3   OH229127   3.530   0.848   1.186  0.5798  0.0307  0.3010
 2523TIP3    H129128   3.555   0.807   1.103  0.3455  2.1759 -0.9138
 2523TIP3    H229129   3.446   0.808   1.209 -0.9269  1.5155 -2.1859
 2524TIP3   OH229130   4.367   5.741   6.658  0.0064 -0.2113 -0.4276
 2524TIP3    H129131   4.291   5.754   6.715  0.7435 -1.3000  0.8590
 2524TIP3    H229132   4.415   5.824   6.663 -0.7044  0.2210 -0.6623
 2525TIP3   OH229133   0.793   5.320   8.241 -0.3927  0.4199 -0.0136
 2525TIP3    H129134   0.875   5.273   8.226 -0.6152 -0.2123  0.6841
 2525TIP3    H229135   0.773   5.360   8.157  2.4218  3.5247  0.5420
 2526TIP3   OH229136   2.562   4.758   0.471  0.2420 -0.1488  0.2628
 2526TIP3    H129137   2.515   4.839   0.493 -1.1584 -0.7406 -0.4003
 2526TIP3    H229138   2.625   4.784   0.405  2.8361  1.1958  3.0396
 2527TIP3   OH229139   6.699   2.465   2.229 -0.3977 -0.3314 -0.3955
 2527TIP3    H129140   6.763   2.535   2.244 -0.5040 -0.4974  0.9474
 2527TIP3    H229141   6.749   2.384   2.240 -1.1857 -0.5208  2.9311
 2528TIP3   OH229142   6.250   2.216   8.201 -0.1399  0.0689  0.0634
 2528TIP3    H129143   6.222   2.269   8.275  2.7391  2.3042 -0.2731
 2528TIP3    H229144   6.303   2.147   8.240 -1.5065 -0.9090  0.2727
 2529TIP3   OH229145   6.755   6.733   8.143 -0.8887 -0.2450 -0.1119
 2529TIP3    H129146   6.765   6.787   8.064 -1.8243  0.9395  0.5574
 2529TIP3    H229147   6.845   6.720   8.173 -0.3303 -2.2442 -2.3262
 2530TIP3   OH229148   4.648   1.771   8.160  0.6956 -0.0800  0.2455
 2530TIP3    H129149   4.608   1.685   8.173  0.3483 -0.4365 -2.5465
 2530TIP3    H229150   4.589   1.816   8.099  2.5363  0.8420 -0.9419
 2531TIP3   OH229151   4.791   2.306   7.268  0.0566  0.5455 -0.3064
 2531TIP3    H129152   4.767   2.342   7.183  1.8319  1.4157 -0.4910
 2531TIP3    H229153   4.830   2.221   7.248 -0.6342  0.2046 -0.2312
 2532TIP3   OH229154   6.608   5.864   1.396  0.4759 -0.2069 -0.0074
 2532TIP3    H129155   6.587   5.792   1.455 -0.2182 -0.0325 -0.0371
 2532TIP3    H229156   6.524   5.890   1.359  0.7416  0.5254 -0.1073
 2533TIP3   OH229157   4.798   6.830   7.919  0.4186  0.0702 -0.3619
 2533TIP3    H129158   4.752   6.894   7.866 -1.0636 -0.5451  0.1433
 2533TIP3    H229159   4.873   6.878   7.955 -0.4983  1.4442 -0.2217
 2534TIP3   OH229160   0.626   5.421   0.988  0.4279  0.3506  0.5134
 2534TIP3    H129161   0.713   5.462   0.993  0.7341 -0.3758  1.4372
 2534TIP3    H229162   0.642   5.329   1.008  0.0479 -0.7262 -3.2899
 2535TIP3   OH229163   2.267   0.439   0.982  0.1487  0.2200  0.4882
 2535TIP3    H129164   2.338   0.433   1.046 -0.0634 -0.1472  0.6904
 2535TIP3    H229165   2.308   0.478   0.905  0.0663  2.1752  1.3653
 2536TIP3   OH229166   6.556   4.337   8.087  0.4917 -0.5496 -0.3950
 2536TIP3    H129167   6.463   4.349   8.101 -0.1208 -0.2151 -3.8272
 2536TIP3    H229168   6.588   4.423   8.061  1.7815 -0.6653  0.7061
 2537TIP3   OH229169   2.927   4.444   6.466  0.2863 -0.1560 -0.0644
 2537TIP3    H129170   3.016   4.475   6.482  0.5549 -1.6473  1.6866
 2537TIP3    H229171   2.876   4.524   6.448  1.9207  0.7258 -0.9817
 2538TIP3   OH229172   4.829   2.444   1.537  0.2725  0.3620  0.6000
 2538TIP3    H129173   4.766   2.440   1.609  0.7082  0.5963  0.9968
 2538TIP3    H229174   4.839   2.353   1.509  0.6824  0.1671  1.3465
 2539TIP3   OH229175   0.830   4.214   7.821 -0.0354  0.2401  0.3461
 2539TIP3    H129176   0.765   4.157   7.861  0.9257 -0.5914  0.7678
 2539TIP3    H229177   0.824   4.197   7.727  1.0339 -1.4705  0.5455
 2540TIP3   OH229178   5.074   1.403   1.524  0.7039  0.2710  0.4843
 2540TIP3    H129179   5.108   1.408   1.613  1.4440  0.4199  0.1976
 2540TIP3    H229180   5.107   1.481   1.481  0.8146 -0.0769 -0.0733
 2541TIP3   OH229181   6.345   1.043   6.348  0.0933 -0.2310 -0.3210
 2541TIP3    H129182   6.263   1.019   6.305 -1.1293 -0.2914  1.8798
 2541TIP3    H229183   6.351   1.138   6.339 -0.4547 -0.1770 -0.1211
 2542TIP3   OH229184   5.330   6.163   7.914 -0.2794  0.4137 -0.1132
 2542TIP3    H129185   5.294   6.142   8.000 -0.4386  1.1566  0.0054
 2542TIP3    H229186   5.377   6.084   7.888 -0.9730 -0.1366  0.2663
 2543TIP3   OH229187   6.810   4.380   1.842 -0.0306 -0.1943  0.3433
 2543TIP3    H129188   6.730   4.409   1.886 -0.1900  0.4599 -0.3562
 2543TIP3    H229189   6.853   4.322   1.905 -0.7778 -0.1115  0.9377
 2544TIP3   OH229190   5.429   2.538   8.110 -0.2903 -0.3333  0.4186
 2544TIP3    H129191   5.379   2.620   8.111  0.0118 -0.1425  0.1141
 2544TIP3    H229192   5.467   2.534   8.022  0.3073 -0.4268  0.6777
 2545TIP3   OH229193   2.828   0.091   8.283  0.7039 -0.0443  0.0443
 2545TIP3    H129194   2.832   0.171   8.335  0.6990 -0.6295  0.9609
 2545TIP3    H229195   2.734   0.078   8.267  0.7247  0.3022 -0.3939
 2546TIP3   OH229196   1.911   5.929   0.255  0.2059 -0.1012 -0.0845
 2546TIP3    H129197   1.960   5.886   0.185  0.1474 -1.4866  0.6905
 2546TIP3    H229198   1.894   5.859   0.318 -2.5241  0.3692 -0.1741
 2547TIP3   OH229199   4.212   0.897   8.514  0.3916  0.0819  0.2643
 2547TIP3    H129200   4.136   0.840   8.502  0.5158 -0.2485  1.0430
 2547TIP3    H229201   4.287   0.843   8.489  0.3562  0.5216 -0.8567
 2548TIP3   OH229202   2.780   6.709   8.580 -0.2875  0.1847  0.2911
 2548TIP3    H129203   2.785   6.666   8.494 -0.2397  1.1728 -0.2121
 2548TIP3    H229204   2.833   6.653   8.637 -1.3065 -1.1586 -0.0141
 2549TIP3   OH229205   4.200   6.555   0.247 -0.0557 -0.0785 -0.0698
 2549TIP3    H129206   4.205   6.498   0.170 -0.1892 -0.8616  0.4862
 2549TIP3    H229207   4.284   6.543   0.291 -0.5679 -0.8496  0.7305
 2550TIP3   OH229208   1.610   5.087   1.969 -0.1882 -0.2679  0.1394
 2550TIP3    H129209   1.642   4.999   1.990 -0.3728 -0.1590  0.9048
 2550TIP3    H229210   1.617   5.135   2.051 -0.0021  0.4638 -0.3015
 2551TIP3   OH229211   2.446   3.887   6.953 -0.0819 -0.2663 -0.1372
 2551TIP3    H129212   2.409   3.810   6.995  2.1728 -0.9999  0.6413
 2551TIP3    H229213   2.437   3.871   6.859  0.1541 -1.3766  0.0230
 2552TIP3   OH229214   3.435   4.516   0.958  0.2005 -0.6528  1.0358
 2552TIP3    H129215   3.418   4.423   0.947 -0.5733 -0.5430  1.2795
 2552TIP3    H229216   3.426   4.532   1.052 -1.9165  0.0703  0.7688
 2553TIP3   OH229217   2.683   3.356   1.502 -0.3945 -0.5520  0.1192
 2553TIP3    H129218   2.636   3.401   1.432  0.7946  1.0851  0.3051
 2553TIP3    H229219   2.750   3.419   1.530  0.4185 -1.9177  1.3967
 2554TIP3   OH229220   5.333   6.517   0.615 -0.0987  0.0432 -0.1110
 2554TIP3    H129221   5.299   6.581   0.677  0.3371 -0.9407  1.1965
 2554TIP3    H229222   5.272   6.443   0.622 -0.5926  0.2816 -1.5871
 2555TIP3   OH229223   6.612   4.578   0.634  0.1450  0.0819  0.2630
 2555TIP3    H129224   6.539   4.639   0.623  0.7340  1.0809  1.5928
 2555TIP3    H229225   6.636   4.552   0.545 -0.1948  1.7257 -0.3376
 2556TIP3   OH229226   6.345   3.394   8.445  0.2492 -0.2613 -0.3064
 2556TIP3    H129227   6.319   3.307   8.474 -0.1516  0.3050  1.1546
 2556TIP3    H229228   6.423   3.414   8.497  0.0155  0.4490 -0.2138
 2557TIP3   OH229229   4.439   5.240   0.825 -0.3254  0.2318  0.3431
 2557TIP3    H129230   4.397   5.286   0.898  2.5463 -1.1767  3.0800
 2557TIP3    H229231   4.532   5.254   0.838  0.3586 -0.6660 -2.7656
 2558TIP3   OH229232   0.058   6.570   2.144 -0.0076  0.6447  0.1384
 2558TIP3    H129233   0.137   6.623   2.134 -0.6057  1.3864 -0.7425
 2558TIP3    H229234   0.062   6.508   2.071 -1.1884  1.9424 -1.0819
 2559TIP3   OH229235   3.312   2.969   1.269 -0.6979 -0.4334  0.0305
 2559TIP3    H129236   3.397   2.925   1.262  0.6481  1.6182  2.0737
 2559TIP3    H229237   3.292   2.967   1.363 -2.4274  0.0405 -0.2909
 2560TIP3   OH229238   4.470   6.155   7.495 -0.1140  0.5032  0.1658
 2560TIP3    H129239   4.532   6.205   7.442 -0.9938  0.3741 -1.0321
 2560TIP3    H229240   4.446   6.214   7.566  0.0784  1.1992 -0.3391
 2561TIP3   OH229241   2.619   1.037   1.591  0.3581 -0.4740  0.0964
 2561TIP3    H129242   2.699   1.085   1.611 -0.4882  0.8718  0.3837
 2561TIP3    H229243   2.565   1.047   1.669  0.2245 -2.0986  0.2425
 2562TIP3   OH229244   0.104   3.711   6.848 -0.4550  0.0256 -0.5109
 2562TIP3    H129245   0.050   3.678   6.921 -2.8066 -0.9998 -2.5636
 2562TIP3    H229246   0.174   3.647   6.839 -0.4130 -0.0930  0.5310
 2563TIP3   OH229247   6.016   2.997   7.891  0.3590 -0.1952  0.4483
 2563TIP3    H129248   5.932   3.043   7.894  0.3413  0.1802 -2.3818
 2563TIP3    H229249   6.074   3.058   7.844  1.3846 -1.5410 -0.0773
 2564TIP3   OH229250   6.259   2.123   0.185 -0.0583 -0.5061  0.0695
 2564TIP3    H129251   6.260   2.207   0.230 -0.2920 -0.4830  0.0339
 2564TIP3    H229252   6.197   2.069   0.235 -1.9222  0.1801 -1.3856
 2565TIP3   OH229253   1.330   0.598   0.703  0.3961  0.0177 -0.4890
 2565TIP3    H129254   1.248   0.579   0.749  1.2917  0.4669  1.4164
 2565TIP3    H229255   1.390   0.626   0.772  2.5033 -1.3112 -1.6767
 2566TIP3   OH229256   3.533   2.443   2.562 -0.2474 -0.4089  0.2001
 2566TIP3    H129257   3.523   2.401   2.477 -0.5943  0.2315 -0.0810
 2566TIP3    H229258   3.445   2.473   2.585 -0.0735 -0.1687  0.5706
 2567TIP3   OH229259   3.455   4.242   0.914  0.2126  0.3225 -0.5549
 2567TIP3    H129260   3.474   4.209   1.002 -2.0570 -0.3959 -0.2535
 2567TIP3    H229261   3.491   4.176   0.855  3.1472  1.5577 -0.3177
 2568TIP3   OH229262   6.883   5.468   7.677  0.2030 -0.6523 -0.6327
 2568TIP3    H129263   6.867   5.428   7.591  0.5464  0.9061 -1.4607
 2568TIP3    H229264   6.817   5.537   7.684  0.6370 -0.2952  0.0204
 2569TIP3   OH229265   0.652   1.811   7.600  0.5272  0.0436  0.3015
 2569TIP3    H129266   0.721   1.788   7.538  0.3426  1.9653 -0.6740
 2569TIP3    H229267   0.698   1.861   7.668  0.1197  1.5502 -0.4813
 2570TIP3   OH229268   4.152   3.989   7.494  0.3932  0.1686 -0.1490
 2570TIP3    H129269   4.083   3.923   7.498  0.3604  0.2559  1.0847
 2570TIP3    H229270   4.106   4.072   7.511  0.4579  0.5137 -1.5325
 2571TIP3   OH229271   6.016   1.709   8.587 -0.4881 -0.5325  0.4623
 2571TIP3    H129272   6.069   1.769   8.638 -0.7164 -0.6437  0.8350
 2571TIP3    H229273   6.042   1.725   8.496 -0.4844  0.0706  0.5611
 2572TIP3   OH229274   5.744   2.182   8.657 -0.1007  0.2689  0.2645
 2572TIP3    H129275   5.780   2.266   8.685  2.4618 -0.3142 -0.9003
 2572TIP3    H229276   5.808   2.117   8.689 -1.0769 -1.0517 -0.3665
 2573TIP3   OH229277   5.453   2.574   0.153  0.7193  0.2690  0.1688
 2573TIP3    H129278   5.524   2.636   0.135  0.0936  0.8424 -0.3948
 2573TIP3    H229279   5.479   2.532   0.235  0.7818  1.8569  1.0142
 2574TIP3   OH229280   1.586   4.483   7.150 -0.1298 -0.7622 -0.0422
 2574TIP3    H129281   1.518   4.530   7.101  1.0476  1.6348  0.4803
 2574TIP3    H229282   1.612   4.412   7.092 -1.3306 -0.2187 -1.3218
 2575TIP3   OH229283   4.685   6.128   1.811 -0.1453  0.4710 -1.2311
 2575TIP3    H129284   4.664   6.204   1.757 -0.3290 -0.4866 -2.5587
 2575TIP3    H229285   4.779   6.134   1.826 -0.4154  1.8898  0.1968
 2576TIP3   OH229286   5.323   0.708   2.611 -0.1287 -0.6073  0.2533
 2576TIP3    H129287   5.354   0.799   2.616 -0.4286 -0.5149  0.4402
 2576TIP3    H229288   5.385   0.665   2.552 -0.5960 -0.0160 -0.6950
 2577TIP3   OH229289   5.977   3.938   0.596  0.1831  0.6493  0.6747
 2577TIP3    H129290   5.982   3.896   0.510  1.5699 -0.7689  1.3985
 2577TIP3    H229291   6.048   3.898   0.646  0.7563  2.9589  1.8373
 2578TIP3   OH229292   3.965   4.444   8.126  0.3153 -0.4888 -0.0358
 2578TIP3    H129293   4.034   4.382   8.103  1.3102  1.5441 -3.3188
 2578TIP3    H229294   3.960   4.503   8.051 -0.5360  3.4265  2.7826
 2579TIP3   OH229295   5.971   1.350   6.747 -0.2303 -0.2059 -0.0765
 2579TIP3    H129296   6.004   1.352   6.657 -0.1253  1.0762 -0.0271
 2579TIP3    H229297   5.887   1.304   6.741 -0.4567  0.2917 -0.9068
 2580TIP3   OH229298   2.152   0.065   7.413  0.0756  0.4662  0.5839
 2580TIP3    H129299   2.082   0.042   7.352  1.6430 -1.7901 -0.4857
 2580TIP3    H229300   2.140   0.159   7.429 -2.4591  0.3935 -0.4362
 2581TIP3   OH229301   6.546   4.718   1.829  0.6089 -0.2820  0.0515
 2581TIP3    H129302   6.517   4.635   1.791  1.2388 -0.4706 -0.0400
 2581TIP3    H229303   6.518   4.714   1.920  0.3144 -0.4411 -0.0462
 2582TIP3   OH229304   3.633   5.258   1.466 -0.2706  0.1479  0.3867
 2582TIP3    H129305   3.582   5.298   1.536 -1.1040 -2.4524  1.4053
 2582TIP3    H229306   3.569   5.243   1.396 -0.0718  0.2101  0.1920
 2583TIP3   OH229307   3.828   6.226   0.172  0.3679  0.1626 -0.2192
 2583TIP3    H129308   3.854   6.137   0.146 -1.7822 -0.8587  0.7695
 2583TIP3    H229309   3.732   6.221   0.179  0.1196  2.7618 -0.7198
 2584TIP3   OH229310   2.267   0.209   2.521  0.1554 -0.1863  0.2274
 2584TIP3    H129311   2.352   0.245   2.493  1.1043 -0.8889  2.0061
 2584TIP3    H229312   2.265   0.121   2.483 -0.2597  0.2085 -0.6755
 2585TIP3   OH229313   1.009   6.105   2.241  0.3234 -0.0561 -0.0397
 2585TIP3    H129314   1.094   6.102   2.196  0.9185 -3.0014  1.0550
 2585TIP3    H229315   1.030   6.128   2.331  0.2464 -2.3096  0.6152
 2586TIP3   OH229316   4.359   2.498   0.995  0.1156 -0.6123 -0.3142
 2586TIP3    H129317   4.323   2.429   0.940  2.1000 -0.7026 -1.5967
 2586TIP3    H229318   4.432   2.455   1.042  0.8897  0.3983 -0.5600
 2587TIP3   OH229319   6.367   2.780   0.328 -0.3583  0.0524  0.0439
 2587TIP3    H129320   6.382   2.728   0.249  0.8686  1.5178 -0.7477
 2587TIP3    H229321   6.373   2.717   0.399 -2.3045 -1.4427 -1.0353
 2588TIP3   OH229322   0.032   1.706   6.525 -0.0325 -0.3259 -0.0100
 2588TIP3    H129323  -0.002   1.710   6.614  2.6884 -2.0218  1.2303
 2588TIP3    H229324   0.112   1.759   6.527  0.1610 -0.5269 -1.3925
 2589TIP3   OH229325   4.193   3.851   6.402 -0.0811 -0.6625 -0.4586
 2589TIP3    H129326   4.142   3.924   6.369  0.5843 -0.5729 -1.3610
 2589TIP3    H229327   4.185   3.784   6.333  0.8208 -0.7185 -0.5238
 2590TIP3   OH229328   5.483   5.884   7.439  0.0011  0.2551 -0.7637
 2590TIP3    H129329   5.527   5.952   7.489 -1.5804  1.3338 -0.7774
 2590TIP3    H229330   5.392   5.886   7.468 -0.9143  0.6655 -3.3341
 2591TIP3   OH229331   2.960   6.353   8.094  0.6622  0.6835 -0.3388
 2591TIP3    H129332   2.927   6.364   8.004  0.7592  0.0635 -0.4578
 2591TIP3    H229333   2.924   6.428   8.142 -1.5996 -0.3296 -0.2827
 2592TIP3   OH229334   0.857   6.426   1.371  0.1650 -0.1486  0.1929
 2592TIP3    H129335   0.891   6.505   1.329  2.0694 -0.5261  0.9210
 2592TIP3    H229336   0.777   6.406   1.322  1.1324  0.6231 -1.8570
 2593TIP3   OH229337   4.340   6.815   7.173 -0.1432  0.1793 -0.4143
 2593TIP3    H129338   4.352   6.844   7.264 -0.2474 -0.4642 -0.1942
 2593TIP3    H229339   4.422   6.837   7.129 -0.5133  1.5805 -0.4613
 2594TIP3   OH229340   5.329   1.357   1.052 -0.1448 -0.3497  0.2595
 2594TIP3    H129341   5.288   1.274   1.074  1.1502 -1.8880 -2.5737
 2594TIP3    H229342   5.333   1.405   1.135 -1.2194 -2.9512  1.9344
 2595TIP3   OH229343   2.910   0.665   8.104  0.2028  0.4032  0.0033
 2595TIP3    H129344   2.830   0.613   8.098 -0.4434  1.2275  1.1747
 2595TIP3    H229345   2.980   0.600   8.116 -0.4892 -0.2399  0.6509
 2596TIP3   OH229346   3.140   6.649   2.035 -0.3858  0.7459 -0.1646
 2596TIP3    H129347   3.189   6.585   1.984 -0.5921  0.1670  0.3416
 2596TIP3    H229348   3.207   6.703   2.078 -0.1320 -0.6029  1.2374
 2597TIP3   OH229349   4.340   4.675   8.500  0.3474 -0.7201 -0.3282
 2597TIP3    H129350   4.270   4.703   8.560  1.2394 -1.6194  1.1939
 2597TIP3    H229351   4.299   4.607   8.447 -0.3057 -0.3095 -0.3625
 2598TIP3   OH229352   4.113   6.855   1.019  0.1184  0.3409  0.4233
 2598TIP3    H129353   4.161   6.931   0.988 -1.5763  1.5522  0.6588
 2598TIP3    H229354   4.167   6.780   0.993  1.6693  1.5921 -0.0737
 2599TIP3   OH229355   5.093   0.417   7.919 -0.1510 -0.5121 -0.5401
 2599TIP3    H129356   5.090   0.423   8.014  0.4313 -0.1474 -0.5379
 2599TIP3    H229357   5.110   0.506   7.889  1.9779 -0.9480 -0.8492
 2600TIP3   OH229358   0.158   2.239   1.746  0.3354  0.0532  0.0186
 2600TIP3    H129359   0.201   2.156   1.766  0.7209  0.4893  1.1437
 2600TIP3    H229360   0.126   2.270   1.831 -0.5994  0.6193 -0.5242
 2601TIP3   OH229361   3.579   6.231   2.707 -0.0041 -0.0208 -0.2106
 2601TIP3    H129362   3.613   6.147   2.741  0.1508 -0.3397 -1.1299
 2601TIP3    H229363   3.493   6.239   2.747  0.4040 -0.0957  0.7223
 2602TIP3   OH229364   0.996   3.629   8.624 -0.0364  0.1330  0.4739
 2602TIP3    H129365   0.959   3.543   8.644 -2.1319  1.0652  0.9145
 2602TIP3    H229366   0.999   3.673   8.709  1.3359  0.4042  0.3001
 2603TIP3   OH229367   0.083   5.094   8.552  0.4845  0.1876  0.6947
 2603TIP3    H129368   0.170   5.058   8.530 -0.3993 -1.3549 -0.5447
 2603TIP3    H229369   0.036   5.021   8.591 -0.1979  1.0751  1.5760
 2604TIP3   OH229370   3.277   6.551   8.209 -0.8462  0.5748  0.0888
 2604TIP3    H129371   3.282   6.528   8.116 -1.3172  0.3104  0.1253
 2604TIP3    H229372   3.278   6.646   8.211 -0.9415  0.5820 -0.1935
 2605TIP3   OH229373   4.231   6.152   1.607  0.0114 -0.2290 -0.3404
 2605TIP3    H129374   4.314   6.104   1.606 -0.1680 -0.8745  2.8493
 2605TIP3    H229375   4.256   6.241   1.632  0.0452  0.7258 -3.3861
 2606TIP3   OH229376   3.097   3.060   1.719 -0.1677 -0.4999  0.1263
 2606TIP3    H129377   3.079   3.000   1.791 -0.1665  0.2714  0.7761
 2606TIP3    H229378   3.102   3.147   1.760  2.3300 -0.3284 -0.4109
 2607TIP3   OH229379   4.143   2.384   7.666 -0.1478  0.0363 -0.1234
 2607TIP3    H129380   4.064   2.370   7.719 -0.5908  1.3911 -0.3900
 2607TIP3    H229381   4.190   2.301   7.671 -0.8537 -0.3078  1.2675
 2608TIP3   OH229382   6.200   3.895   8.169 -0.4638 -1.0829  0.0945
 2608TIP3    H129383   6.193   3.990   8.159 -0.6836 -0.9581  1.2835
 2608TIP3    H229384   6.179   3.879   8.261  1.6099 -2.0618  0.4640
 2609TIP3   OH229385   5.547   0.786   0.716  0.6546  0.4246  0.3709
 2609TIP3    H129386   5.474   0.840   0.685  0.0247 -1.8531 -2.4840
 2609TIP3    H229387   5.509   0.732   0.785 -0.3764 -0.6295 -0.9841
 2610TIP3   OH229388   6.530   2.681   7.048  0.0267  0.3694  0.0011
 2610TIP3    H129389   6.583   2.751   7.086  1.9300 -0.4261 -1.0373
 2610TIP3    H229390   6.571   2.600   7.077 -1.5949 -0.3424  0.4419
 2611TIP3   OH229391   3.091   6.221   2.421 -0.1363 -0.1513  0.0686
 2611TIP3    H129392   3.116   6.257   2.506  1.0518  1.6073 -0.9686
 2611TIP3    H229393   3.099   6.126   2.433 -0.7817 -0.0038  2.1202
 2612TIP3   OH229394   3.150   5.082   1.142 -0.1679  0.1278 -0.2393
 2612TIP3    H129395   3.193   5.157   1.182 -0.8422 -0.0807  0.9103
 2612TIP3    H229396   3.088   5.121   1.079  0.6790  0.4635 -0.8856
 2613TIP3   OH229397   1.270   2.914   2.232 -0.1035 -0.2907  0.5044
 2613TIP3    H129398   1.189   2.880   2.194 -0.4823 -0.0149  1.0658
 2613TIP3    H229399   1.274   3.004   2.202  0.7703 -0.7230 -0.7680
 2614TIP3   OH229400   2.680   5.864   8.189 -0.0447 -0.0240 -0.2226
 2614TIP3    H129401   2.720   5.917   8.257 -0.1368 -0.4535  0.1714
 2614TIP3    H229402   2.753   5.813   8.152 -0.2499 -1.0040  0.6760
 2615TIP3   OH229403   4.669   3.203   6.773 -0.8940 -0.2759  0.1116
 2615TIP3    H129404   4.646   3.130   6.829 -1.5488  0.0522  0.2791
 2615TIP3    H229405   4.604   3.203   6.703 -1.3402  0.5739  0.5080
 2616TIP3   OH229406   0.547   2.910   0.278  0.1797  0.1257 -0.1443
 2616TIP3    H129407   0.509   2.881   0.361 -1.0396  0.3848 -0.5829
 2616TIP3    H229408   0.614   2.844   0.257  0.4021 -0.0169  0.9586
 2617TIP3   OH229409   6.202   1.266   6.906 -0.4808 -0.2618  0.0333
 2617TIP3    H129410   6.208   1.352   6.948 -1.4725  0.2374 -0.7859
 2617TIP3    H229411   6.110   1.259   6.880 -0.0630 -0.8833 -1.3464
 2618TIP3   OH229412   5.606   4.997   8.627  0.0682 -0.0286  0.4643
 2618TIP3    H129413   5.590   4.916   8.676  1.1867 -0.7794 -0.3710
 2618TIP3    H229414   5.553   4.988   8.548  0.7796 -0.2969  0.0131
 2619TIP3   OH229415   3.069   6.133   0.537  0.5040  0.0203 -0.3635
 2619TIP3    H129416   3.006   6.161   0.604  1.2425 -2.2512  1.3973
 2619TIP3    H229417   3.017   6.083   0.474 -0.1228  1.8287 -1.3559
 2620TIP3   OH229418   6.089   3.753   7.385 -0.0191  0.3446 -1.0320
 2620TIP3    H129419   6.077   3.838   7.429 -1.0399 -0.3855  0.1646
 2620TIP3    H229420   6.001   3.717   7.378  0.3898 -0.5627 -1.6585
 2621TIP3   OH229421   5.307   4.199   1.767  0.1813 -0.2536 -0.1034
 2621TIP3    H129422   5.231   4.165   1.720 -1.1204  0.9140  1.1009
 2621TIP3    H229423   5.310   4.292   1.745  1.3325 -0.2916 -0.1968
 2622TIP3   OH229424   2.929   4.755   7.499  0.4227  0.3712  0.0144
 2622TIP3    H129425   2.992   4.804   7.552  0.0464 -1.3199  2.1784
 2622TIP3    H229426   2.945   4.784   7.409 -0.1598  4.7962  1.1085
 2623TIP3   OH229427   2.285   5.961   6.351 -0.2951  0.3990 -0.4371
 2623TIP3    H129428   2.351   5.893   6.341 -1.6001 -0.7308 -2.1820
 2623TIP3    H229429   2.212   5.918   6.394 -0.6093  1.1018 -0.2439
 2624TIP3   OH229430   3.135   2.873   0.520 -0.2848  0.4055  0.3394
 2624TIP3    H129431   3.181   2.798   0.482  0.0115  1.0474 -0.5932
 2624TIP3    H229432   3.199   2.944   0.517 -0.4290  0.6087  1.5954
 2625TIP3   OH229433   2.711   1.472   0.823  0.0949  0.2646 -0.1563
 2625TIP3    H129434   2.743   1.391   0.862  0.5170 -1.0280 -2.9082
 2625TIP3    H229435   2.618   1.456   0.806 -0.1278  0.8722  0.4535
 2626TIP3   OH229436   6.449   0.870   1.881 -0.5270 -0.4415 -0.3657
 2626TIP3    H129437   6.421   0.929   1.811 -2.2253 -0.5652  0.1693
 2626TIP3    H229438   6.460   0.926   1.958 -0.7754 -0.6133 -0.2018
 2627TIP3   OH229439   6.055   2.865   0.261  0.2680  0.3166 -0.2319
 2627TIP3    H129440   6.149   2.865   0.277  0.1034  0.5815  0.8170
 2627TIP3    H229441   6.045   2.905   0.175  1.2385 -1.4974 -1.2607
 2628TIP3   OH229442   5.518   5.890   7.133  0.2095 -0.4491 -0.4628
 2628TIP3    H129443   5.484   5.884   7.223  0.1427 -0.9059 -0.5158
 2628TIP3    H229444   5.556   5.804   7.117  2.2430  0.3141 -0.0678
 2629TIP3   OH229445   6.758   4.039   0.389  0.0235 -0.1446  0.5012
 2629TIP3    H129446   6.707   4.108   0.347  1.2246  1.6297  1.8297
 2629TIP3    H229447   6.701   4.006   0.459 -0.7487 -0.9105 -0.4541
 2630TIP3   OH229448   4.023   2.994   0.828 -0.7977  0.1159 -0.6258
 2630TIP3    H129449   3.930   2.973   0.839 -1.3228  0.4055 -3.6499
 2630TIP3    H229450   4.065   2.910   0.812 -0.1229 -0.2503  2.4993
 2631TIP3   OH229451   3.366   5.417   1.144 -0.4244  0.5390  0.0344
 2631TIP3    H129452   3.400   5.329   1.160  2.4370  1.5539  0.1211
 2631TIP3    H229453   3.363   5.458   1.230 -0.1431  1.0454 -0.1910
 2632TIP3   OH229454   3.931   2.126   1.167 -0.0732 -0.4687 -0.2697
 2632TIP3    H129455   3.930   2.197   1.231  0.5471 -0.9169  0.2535
 2632TIP3    H229456   3.981   2.161   1.093  0.4629 -0.4486  0.0970
 2633TIP3   OH229457   2.746   3.685   1.549  0.2208 -0.7331 -0.5054
 2633TIP3    H129458   2.737   3.768   1.503  0.9264 -0.8068 -0.7962
 2633TIP3    H229459   2.684   3.690   1.621 -1.5900 -0.9625 -1.9632
 2634TIP3   OH229460   2.759   5.076   7.430 -0.2767 -0.2993 -0.3626
 2634TIP3    H129461   2.751   5.170   7.446  2.9747  0.1297 -0.5101
 2634TIP3    H229462   2.769   5.038   7.517 -3.0093 -0.7977 -0.1829
 2635TIP3   OH229463   4.657   3.889   1.971  0.1131  0.3326  0.0602
 2635TIP3    H129464   4.730   3.857   1.918  0.2920 -1.8036  1.5156
 2635TIP3    H229465   4.684   3.977   1.997  1.1019  0.4741 -1.3163
 2636TIP3   OH229466   3.488   0.323   0.691 -0.0722 -0.0023 -0.1302
 2636TIP3    H129467   3.511   0.390   0.627  0.1535  1.1262  1.1002
 2636TIP3    H229468   3.506   0.240   0.647  1.2603  0.7675 -1.0844
 2637TIP3   OH229469   2.367   5.016   8.196 -0.1624  0.4115  0.0679
 2637TIP3    H129470   2.425   5.092   8.202 -0.2832  0.5490 -0.5021
 2637TIP3    H229471   2.374   4.987   8.106 -1.7490  1.0345 -0.2946
 2638TIP3   OH229472   0.951   6.267   0.921 -0.7309  0.3161 -0.1990
 2638TIP3    H129473   0.878   6.321   0.891 -1.0411  1.0124  1.6972
 2638TIP3    H229474   1.014   6.329   0.957 -0.6011 -0.4963  1.0310
 2639TIP3   OH229475   0.412   6.225   8.104 -0.1825 -0.3996 -0.5575
 2639TIP3    H129476   0.427   6.153   8.165 -0.5181 -0.3502 -0.4170
 2639TIP3    H229477   0.339   6.195   8.049 -0.3778 -0.1314 -0.4438
 2640TIP3   OH229478   1.427   6.697   7.705 -0.0888  0.4669  0.4454
 2640TIP3    H129479   1.366   6.664   7.771 -0.8592 -0.5467 -0.7387
 2640TIP3    H229480   1.484   6.622   7.686 -0.3387  0.5163 -0.5522
 2641TIP3   OH229481   6.581   0.867   1.515  1.2303 -0.4893 -1.3554
 2641TIP3    H129482   6.601   0.938   1.577  2.0717 -0.3568 -1.7644
 2641TIP3    H229483   6.573   0.911   1.431  0.8251 -0.7670 -1.4617
 2642TIP3   OH229484   3.192   5.976   5.627  0.3432  0.2739 -0.2384
 2642TIP3    H129485   3.139   5.937   5.557 -1.5133  0.5538  0.9185
 2642TIP3    H229486   3.128   6.017   5.685  1.9773  1.8436  0.5444
 2643TIP3   OH229487   0.535   4.813   1.130 -0.1777  0.0192  0.1436
 2643TIP3    H129488   0.490   4.760   1.064  0.8369 -1.6828  0.7440
 2643TIP3    H229489   0.545   4.754   1.205  0.5772  1.2379  1.0369
 2644TIP3   OH229490   0.867   2.798   2.254 -0.3153  0.2158 -0.5641
 2644TIP3    H129491   0.939   2.794   2.191  1.0166 -0.4128  0.9059
 2644TIP3    H229492   0.788   2.797   2.201  0.7517  0.6551 -2.2377
 2645TIP3   OH229493   0.002   5.546   1.272  0.5184 -0.2810 -0.6665
 2645TIP3    H129494  -0.020   5.581   1.359  0.3502 -0.8471 -0.4762
 2645TIP3    H229495  -0.007   5.621   1.213  2.3208  0.5383  0.0362
 2646TIP3   OH229496   3.518   6.258   6.938 -0.1205  0.7274 -0.0422
 2646TIP3    H129497   3.585   6.219   6.995 -0.3584 -0.5351 -0.5898
 2646TIP3    H229498   3.484   6.184   6.887 -1.9104  1.3482  0.1859
 2647TIP3   OH229499   0.493   6.822   7.405  0.3295  0.7390 -0.5953
 2647TIP3    H129500   0.416   6.828   7.348  0.3422  0.2700 -0.6596
 2647TIP3    H229501   0.457   6.802   7.491  0.2443  2.2104 -0.2607
 2648TIP3   OH229502   0.269   5.184   1.055 -1.0986 -0.5198 -0.2724
 2648TIP3    H129503   0.284   5.143   1.140  0.3812  1.0424  0.2774
 2648TIP3    H229504   0.309   5.124   0.992  2.3311  0.5549  0.6417
 2649TIP3   OH229505   3.214   2.592   0.576  0.2230  0.5013 -0.0359
 2649TIP3    H129506   3.123   2.615   0.554  0.4625  1.2694 -0.2471
 2649TIP3    H229507   3.217   2.598   0.671  0.1362  0.8131 -0.0506
 2650TIP3   OH229508   2.759   2.097   2.569  0.4281  0.7072  0.1236
 2650TIP3    H129509   2.696   2.156   2.528 -1.1280  0.9174  2.6536
 2650TIP3    H229510   2.796   2.047   2.496 -2.6106  0.6092 -1.4999
 2651TIP3   OH229511   4.410   3.898   7.150 -0.1294  0.4366  0.1602
 2651TIP3    H129512   4.323   3.927   7.176 -0.0647 -0.6891  1.7456
 2651TIP3    H229513   4.395   3.822   7.095 -0.1700  1.0039 -0.6278
 2652TIP3   OH229514   2.587   6.396   7.468  0.0781 -0.1706  0.1714
 2652TIP3    H129515   2.610   6.334   7.399  1.2397 -0.5599  0.8902
 2652TIP3    H229516   2.558   6.341   7.541  2.0339  0.0371  1.1582
 2653TIP3   OH229517   3.921   3.308   7.520 -0.1829  1.2968 -0.1548
 2653TIP3    H129518   3.831   3.305   7.552 -0.8607  0.2833 -2.0079
 2653TIP3    H229519   3.953   3.219   7.529  0.8773  1.7774  1.0590
 2654TIP3   OH229520   2.680   1.345   0.127 -0.3585 -0.2974 -0.3248
 2654TIP3    H129521   2.628   1.383   0.198  0.7732  0.4687  0.1378
 2654TIP3    H229522   2.733   1.419   0.095 -1.7050 -0.2894 -2.8307
 2655TIP3   OH229523   0.458   3.241   6.681  0.9566  0.3601  0.1768
 2655TIP3    H129524   0.367   3.215   6.698  0.9093  1.4212  1.8565
 2655TIP3    H229525   0.453   3.335   6.662  1.5406  0.0823 -1.4410
 2656TIP3   OH229526   1.500   6.650   1.252 -0.8164 -0.4023  0.6189
 2656TIP3    H129527   1.581   6.601   1.269 -2.1925 -3.0116  0.1934
 2656TIP3    H229528   1.529   6.739   1.231  1.7869 -0.7319  2.4212
 2657TIP3   OH229529   3.989   0.629   8.169 -0.8343  0.3782 -0.4787
 2657TIP3    H129530   3.934   0.551   8.166 -0.8723  0.1885  2.4013
 2657TIP3    H229531   4.074   0.597   8.200 -0.5349  1.3450 -0.2809
 2658TIP3   OH229532   0.622   5.284   0.005  0.2312 -0.2257  0.4934
 2658TIP3    H129533   0.584   5.312   0.088  0.8399  0.8586  0.4148
 2658TIP3    H229534   0.626   5.188   0.012  0.8499 -0.1180  1.9648
 2659TIP3   OH229535   4.857   2.952   2.674  0.6929 -0.0053  0.2380
 2659TIP3    H129536   4.763   2.934   2.667  0.8024 -0.3879 -0.4350
 2659TIP3    H229537   4.890   2.883   2.732  0.6801 -0.3562 -0.1659
 2660TIP3   OH229538   0.595   6.000   7.938  0.6072 -0.3681 -0.3917
 2660TIP3    H129539   0.643   6.031   8.015 -0.4629 -0.6301  0.3954
 2660TIP3    H229540   0.608   5.905   7.939  2.1528 -0.2272 -1.6313
 2661TIP3   OH229541   0.972   0.113   0.183  0.4900 -0.1351  0.2416
 2661TIP3    H129542   1.029   0.064   0.242 -0.0785 -0.2321  0.7088
 2661TIP3    H229543   0.890   0.064   0.181 -0.1627  0.9075  0.8876
 2662TIP3   OH229544   2.148   0.591   7.046 -0.1369 -0.2599 -0.0832
 2662TIP3    H129545   2.213   0.599   6.976  0.9180 -0.6954  0.8169
 2662TIP3    H229546   2.111   0.504   7.034 -1.9124  0.6353 -1.6912
 2663TIP3   OH229547   1.194   4.411   6.150  0.0158 -0.3720  0.5068
 2663TIP3    H129548   1.194   4.504   6.174 -2.4787 -0.1034 -0.2283
 2663TIP3    H229549   1.275   4.400   6.101  0.6967  1.2541  1.1722
 2664TIP3   OH229550   1.019   4.032   0.166  0.2696 -0.4584 -0.1191
 2664TIP3    H129551   0.984   3.944   0.181  1.0059 -1.5656 -3.8103
 2664TIP3    H229552   1.109   4.027   0.197 -0.3298 -0.1752  1.8309
 2665TIP3   OH229553   6.612   5.755   0.766  0.4756  0.2417  0.4141
 2665TIP3    H129554   6.553   5.680   0.761 -2.5950  2.5112 -1.0407
 2665TIP3    H229555   6.696   5.719   0.793 -1.4332 -3.3184  2.1892
 2666TIP3   OH229556   6.052   6.181   0.677  0.3326  0.0707 -0.2149
 2666TIP3    H129557   6.035   6.271   0.650  0.1966 -0.6767 -3.0448
 2666TIP3    H229558   6.147   6.172   0.670  0.1809 -0.5386 -2.2115
 2667TIP3   OH229559   0.127   1.431   6.692 -0.2193 -0.5215  0.4092
 2667TIP3    H129560   0.219   1.423   6.715  0.5174  0.1601 -1.9632
 2667TIP3    H229561   0.112   1.526   6.685 -0.4662 -0.6463 -1.2787
 2668TIP3   OH229562   3.555   5.161   2.039  0.4183 -0.0716  0.0416
 2668TIP3    H129563   3.543   5.255   2.051  0.6915  0.4343 -2.8764
 2668TIP3    H229564   3.492   5.121   2.098 -0.4535  1.9718  0.5847
 2669TIP3   OH229565   5.735   2.355   8.029 -0.8975  0.1001 -0.7813
 2669TIP3    H129566   5.736   2.416   8.103  0.1690 -1.0227  0.1916
 2669TIP3    H229567   5.696   2.404   7.957 -0.7615  1.6641  0.1643
 2670TIP3   OH229568   0.062   4.852   0.373 -0.1589 -0.6578 -0.4626
 2670TIP3    H129569   0.032   4.824   0.459  1.3996 -0.4741  0.1607
 2670TIP3    H229570   0.156   4.837   0.373  0.0367  0.3092 -1.7622
 2671TIP3   OH229571   5.061   3.847   6.388  0.3380 -0.3198 -0.4299
 2671TIP3    H129572   5.134   3.791   6.414  1.0128  1.0844  0.8648
 2671TIP3    H229573   5.042   3.821   6.298  3.0969 -0.0439 -1.1857
 2672TIP3   OH229574   0.038   6.524   6.618  0.1455 -0.2077  0.1513
 2672TIP3    H129575  -0.025   6.527   6.547 -2.2223 -1.4574  2.0692
 2672TIP3    H229576   0.098   6.453   6.594 -0.0611 -0.0201 -0.9695
 2673TIP3   OH229577   0.745   0.575   7.253  0.0485 -0.2241  0.5349
 2673TIP3    H129578   0.741   0.517   7.177  1.3381  0.5413 -0.1530
 2673TIP3    H229579   0.763   0.517   7.327  0.0974 -0.8292  0.0574
 2674TIP3   OH229580   5.804   2.520   2.515 -0.0903  0.0269 -0.2120
 2674TIP3    H129581   5.898   2.528   2.498 -0.0336 -0.1481  0.0062
 2674TIP3    H229582   5.770   2.467   2.443 -0.0306  0.1217 -0.3112
 2675TIP3   OH229583   3.678   2.952   0.225  0.4905  0.1543 -0.0426
 2675TIP3    H129584   3.700   3.037   0.187 -0.0961  0.5657  0.5205
 2675TIP3    H229585   3.588   2.935   0.197  1.3969 -1.5269 -2.3393
 2676TIP3   OH229586   0.968   5.148   8.099  0.0675 -0.4684 -0.0192
 2676TIP3    H129587   0.915   5.070   8.083 -0.2061 -0.1808 -0.5504
 2676TIP3    H229588   1.030   5.121   8.167  0.1902 -1.2451 -0.4215
 2677TIP3   OH229589   1.833   1.261   1.441  0.7608  0.0605 -0.1284
 2677TIP3    H129590   1.779   1.295   1.369  1.3548  0.6171 -0.3206
 2677TIP3    H229591   1.809   1.169   1.447 -0.9591  0.5058  0.4619
 2678TIP3   OH229592   0.588   3.184   1.601  0.4272  0.3104  0.5181
 2678TIP3    H129593   0.495   3.172   1.579 -0.1333  1.4230  2.1385
 2678TIP3    H229594   0.615   3.259   1.547  0.9429 -1.1245 -1.3364
 2679TIP3   OH229595   2.892   4.287   0.478  0.5119  0.0658 -0.0561
 2679TIP3    H129596   2.924   4.268   0.390 -0.5366 -0.9110 -0.2428
 2679TIP3    H229597   2.890   4.383   0.482 -1.3614  0.1666 -1.8394
 2680TIP3   OH229598   0.737   6.848   7.300 -0.1777  0.8816  0.0182
 2680TIP3    H129599   0.776   6.776   7.251  0.4209  0.4502  1.0788
 2680TIP3    H229600   0.666   6.807   7.351  1.0527  0.7232  1.6957
 2681TIP3   OH229601   0.793   3.315   2.247 -0.6529  0.1344 -0.0030
 2681TIP3    H129602   0.861   3.376   2.220 -0.8103 -0.5766 -2.2166
 2681TIP3    H229603   0.839   3.234   2.269 -0.5610  0.5890  1.5725
 2682TIP3   OH229604   6.634   0.623   0.662 -0.7880  0.4351 -0.5216
 2682TIP3    H129605   6.620   0.625   0.568  1.7267 -0.4315 -0.9851
 2682TIP3    H229606   6.727   0.639   0.673 -0.9232  0.0227  1.8010
 2683TIP3   OH229607   2.762   0.356   1.176 -0.0197 -0.0433 -0.1753
 2683TIP3    H129608   2.829   0.419   1.203 -1.8256  1.2351  1.6160
 2683TIP3    H229609   2.729   0.320   1.258 -0.9381 -1.2945 -1.0549
 2684TIP3   OH229610   4.074   5.041   0.312 -0.1221 -0.6933  0.1559
 2684TIP3    H129611   4.116   4.956   0.318  0.6541 -0.3729 -0.5732
 2684TIP3    H229612   4.122   5.096   0.374  0.0763 -0.5047 -0.1660
 2685TIP3   OH229613   4.406   0.335   7.465  0.0515  0.0122  0.1799
 2685TIP3    H129614   4.313   0.329   7.486  0.2852 -1.7033  0.9479
 2685TIP3    H229615   4.416   0.418   7.419 -2.2035 -0.7095 -1.7508
 2686TIP3   OH229616   1.589   5.257   0.292  0.0846 -0.5122 -0.7552
 2686TIP3    H129617   1.494   5.257   0.283  0.0897  0.6384 -1.0253
 2686TIP3    H229618   1.605   5.300   0.376  0.3690  0.0518 -1.0861
 2687TIP3   OH229619   4.425   4.803   1.994  0.0804  0.5361  0.6527
 2687TIP3    H129620   4.489   4.868   1.966  1.3329 -0.3077  1.4659
 2687TIP3    H229621   4.446   4.724   1.945 -0.3501  0.2570  0.9044
 2688TIP3   OH229622   5.705   3.419   1.043 -0.3588 -0.1935  0.0428
 2688TIP3    H129623   5.765   3.476   1.090 -1.2759  0.1362  0.8385
 2688TIP3    H229624   5.622   3.466   1.042 -0.4432 -0.2862 -1.7295
 2689TIP3   OH229625   0.075   0.818   7.100  1.1966 -0.0257  0.0682
 2689TIP3    H129626   0.097   0.894   7.047  0.6094  0.3060  0.3005
 2689TIP3    H229627  -0.017   0.829   7.122  1.9666  1.1820  3.2806
 2690TIP3   OH229628   4.639   5.431   6.472 -0.3691  0.4392 -0.0544
 2690TIP3    H129629   4.603   5.347   6.500  1.1014  0.1794  1.2223
 2690TIP3    H229630   4.665   5.417   6.381  0.1881 -0.6434  0.2451
 2691TIP3   OH229631   0.897   2.205   7.510 -0.2236 -0.2676  0.4422
 2691TIP3    H129632   0.828   2.269   7.494  1.1600  1.4785  1.0490
 2691TIP3    H229633   0.926   2.224   7.599  0.8429 -1.1160  0.2913
 2692TIP3   OH229634   0.829   4.591   0.144  0.0428  0.0330 -0.4537
 2692TIP3    H129635   0.894   4.615   0.077 -0.0031 -1.0353 -0.9003
 2692TIP3    H229636   0.852   4.644   0.220  1.2756 -0.1236 -0.6986
 2693TIP3   OH229637   4.401   3.595   1.369 -0.0107  0.4433  0.0455
 2693TIP3    H129638   4.403   3.500   1.355  2.1502  0.4557 -0.0539
 2693TIP3    H229639   4.356   3.606   1.452 -0.6074 -0.6307 -0.1156
 2694TIP3   OH229640   3.881   5.995   1.910  0.3624 -0.3698  0.0822
 2694TIP3    H129641   3.936   5.927   1.950  0.5479 -0.3763 -0.1852
 2694TIP3    H229642   3.934   6.075   1.916  0.8964 -0.5967 -1.2261
 2695TIP3   OH229643   4.821   4.040   0.673  0.1400 -1.0133 -0.4702
 2695TIP3    H129644   4.798   4.129   0.648  1.7838 -0.6528 -0.8161
 2695TIP3    H229645   4.872   4.050   0.753 -1.1570 -1.8047  0.4935
 2696TIP3   OH229646   0.697   6.543   6.707  0.2008  0.1126  0.3655
 2696TIP3    H129647   0.618   6.546   6.653 -1.7539 -0.7985  2.9365
 2696TIP3    H229648   0.742   6.625   6.689 -2.0006  1.2566 -0.2974
 2697TIP3   OH229649   3.744   4.274   1.140  0.5633  0.2127  0.5103
 2697TIP3    H129650   3.703   4.204   1.190  0.6093  0.2664  0.6240
 2697TIP3    H229651   3.834   4.278   1.173  1.1027 -0.8689 -0.7362
 2698TIP3   OH229652   1.246   3.291   1.666 -0.4694  0.2417 -0.1318
 2698TIP3    H129653   1.175   3.273   1.728 -0.0336  1.9489  0.9393
 2698TIP3    H229654   1.222   3.374   1.625  1.2018  1.2017  0.7369
 2699TIP3   OH229655   3.561   0.892   6.748 -0.3974  0.3089 -0.2200
 2699TIP3    H129656   3.643   0.885   6.797 -1.9162 -1.7280  2.2476
 2699TIP3    H229657   3.560   0.815   6.692 -0.0422  1.0806 -1.3326
 2700TIP3   OH229658   2.326   5.494   1.288  0.1495 -0.0645 -0.1800
 2700TIP3    H129659   2.275   5.492   1.369 -2.5129  0.6022 -1.7298
 2700TIP3    H229660   2.343   5.402   1.267 -4.8140 -0.8752 -2.0509
 2701TIP3   OH229661   6.638   1.021   7.376  0.0357  0.3605 -0.2571
 2701TIP3    H129662   6.563   1.075   7.402 -0.2305 -0.0779 -0.1020
 2701TIP3    H229663   6.715   1.074   7.398 -0.2094  0.4212  0.4684
 2702TIP3   OH229664   6.079   5.974   1.602 -0.6802 -0.2201  0.2600
 2702TIP3    H129665   6.166   5.936   1.610  0.6887  2.4592 -0.6664
 2702TIP3    H229666   6.041   5.966   1.689  0.7541 -0.8863  0.8547
 2703TIP3   OH229667   0.371   6.090   1.290 -0.5236  0.2343 -0.0753
 2703TIP3    H129668   0.389   6.182   1.312 -0.0019  0.5371 -1.6243
 2703TIP3    H229669   0.447   6.042   1.323 -0.2151  0.5453 -0.3114
 2704TIP3   OH229670   2.112   4.967   8.611 -0.6228  0.4084  0.0635
 2704TIP3    H129671   2.128   4.998   8.523 -1.9528  1.1306  0.0485
 2704TIP3    H229672   2.084   4.876   8.600 -1.8771  0.8252 -0.3864
 2705TIP3   OH229673   5.049   1.693   0.208  0.2144  0.3517 -0.4265
 2705TIP3    H129674   4.965   1.715   0.247  0.3051 -0.6167  0.3302
 2705TIP3    H229675   5.028   1.637   0.134  0.2881 -2.5632  1.6083
 2706TIP3   OH229676   2.672   4.620   7.278  0.5051 -0.2226  0.2309
 2706TIP3    H129677   2.667   4.646   7.370  0.3358  0.3657  0.0568
 2706TIP3    H229678   2.627   4.536   7.275 -1.1366  0.6195  0.3663
 2707TIP3   OH229679   5.613   0.354   6.743  0.1920  0.3801 -0.5349
 2707TIP3    H129680   5.635   0.274   6.696  1.1579  0.5535 -0.4049
 2707TIP3    H229681   5.563   0.324   6.819 -1.8246  0.1366 -1.8868
 2708TIP3   OH229682   6.582   2.929   1.857  0.2403  0.0673 -0.5499
 2708TIP3    H129683   6.639   2.892   1.924 -2.2942 -0.2421  1.5893
 2708TIP3    H229684   6.618   3.017   1.841  1.5519 -0.2688  0.3452
 2709TIP3   OH229685   2.174   0.363   8.118  0.0657 -0.5890 -0.1041
 2709TIP3    H129686   2.134   0.330   8.038 -1.2842 -2.3534  1.1899
 2709TIP3    H229687   2.121   0.325   8.188  1.6631  0.2393  1.6526
 2710TIP3   OH229688   1.287   1.210   1.542 -0.6674 -0.2187 -0.5394
 2710TIP3    H129689   1.232   1.288   1.549 -0.8468 -0.4586  0.9110
 2710TIP3    H229690   1.352   1.233   1.475  0.6865  2.0988  1.3941
 2711TIP3   OH229691   2.733   1.014   6.894  0.1298 -0.2237 -0.0550
 2711TIP3    H129692   2.716   0.937   6.840  1.7810 -0.0191 -0.9259
 2711TIP3    H229693   2.752   1.084   6.832  0.6948  0.3585  0.7528
 2712TIP3   OH229694   2.856   4.744   6.938 -0.0183  0.1701 -0.4223
 2712TIP3    H129695   2.858   4.675   7.004 -0.6648  1.5786  1.1608
 2712TIP3    H229696   2.839   4.699   6.855 -5.1385 -1.2908  1.0655
 2713TIP3   OH229697   2.667   3.438   8.628  0.0801  0.2697 -0.3240
 2713TIP3    H129698   2.587   3.394   8.656  0.6709 -0.5805  0.0872
 2713TIP3    H229699   2.637   3.520   8.588 -1.0671 -0.5738 -1.2710
 2714TIP3   OH229700   2.837   5.705   6.333 -0.1120 -0.0086  0.3116
 2714TIP3    H129701   2.854   5.765   6.405  0.5897 -0.8147  0.8318
 2714TIP3    H229702   2.748   5.674   6.348  0.1771 -0.4881  1.0708
 2715TIP3   OH229703   6.359   5.446   6.971  0.3665 -0.0943 -0.4723
 2715TIP3    H129704   6.329   5.420   6.884 -1.1978  0.9476 -0.2899
 2715TIP3    H229705   6.451   5.469   6.960 -0.1997  1.5204 -2.1965
 2716TIP3   OH229706   3.618   0.186   1.481 -0.6377 -0.6016 -0.3730
 2716TIP3    H129707   3.670   0.251   1.433  0.0172 -0.8579 -0.0243
 2716TIP3    H229708   3.566   0.143   1.414 -2.2323  1.2996 -0.4427
 2717TIP3   OH229709   0.536   0.653   8.486 -0.5043 -0.5212  0.1979
 2717TIP3    H129710   0.534   0.588   8.416  0.3552  1.4255 -1.7368
 2717TIP3    H229711   0.606   0.713   8.462 -2.3235  2.1189  0.9274
 2718TIP3   OH229712   1.521   2.793   6.553 -0.3375 -0.2639  0.4734
 2718TIP3    H129713   1.432   2.795   6.517 -0.7123 -0.7789  1.3310
 2718TIP3    H229714   1.578   2.813   6.479 -1.0756 -1.4057 -0.4299
 2719TIP3   OH229715   3.636   1.849   8.494 -0.0666 -0.2203  0.1474
 2719TIP3    H129716   3.646   1.755   8.480 -0.1843 -0.3708  1.0271
 2719TIP3    H229717   3.715   1.888   8.455 -0.0091 -0.6826 -0.2025
 2720TIP3   OH229718   1.870   2.507   6.092 -0.0653 -0.3536  0.5050
 2720TIP3    H129719   1.930   2.580   6.074 -0.0484 -0.2547  0.9523
 2720TIP3    H229720   1.921   2.447   6.146 -0.8817  0.5332  2.3600
 2721TIP3   OH229721   0.611   4.852   7.945  0.3798  0.2248 -0.0808
 2721TIP3    H129722   0.543   4.856   8.013  0.6599  1.1377  0.1640
 2721TIP3    H229723   0.601   4.934   7.897  3.3347  1.9944  1.9945
 2722TIP3   OH229724   0.031   6.814   6.307  0.3740 -0.1416 -0.0623
 2722TIP3    H129725   0.030   6.735   6.253 -1.1442 -0.6265  0.6127
 2722TIP3    H229726  -0.044   6.803   6.366  1.1928  0.9821  1.2404
 2723TIP3   OH229727   2.458   3.813   7.651  0.6027 -0.8338 -0.0066
 2723TIP3    H129728   2.440   3.755   7.576  0.4428 -0.8474  0.0420
 2723TIP3    H229729   2.552   3.803   7.666  0.9150  0.2303 -1.0884
 2724TIP3   OH229730   4.932   6.428   1.751  0.1683  0.7170  0.0843
 2724TIP3    H129731   4.938   6.401   1.843  1.5150 -0.5569 -0.3267
 2724TIP3    H229732   4.841   6.409   1.727  0.0843  0.0247  0.8728
 2725TIP3   OH229733   4.898   5.696   0.944 -0.5798  0.2419  0.8767
 2725TIP3    H129734   4.895   5.758   0.871 -0.7781 -1.9894 -1.1048
 2725TIP3    H229735   4.809   5.663   0.952 -0.4982  0.2337  1.9649
 2726TIP3   OH229736   5.074   2.496   2.393  0.4165  0.2561  0.0712
 2726TIP3    H129737   5.126   2.439   2.335 -0.3117 -3.1275  2.4178
 2726TIP3    H229738   5.136   2.526   2.459  0.2547 -0.2645  0.4683
 2727TIP3   OH229739   4.179   4.985   6.087  0.2187 -0.3847  0.4704
 2727TIP3    H129740   4.185   5.080   6.095  2.1977 -0.6022  2.6324
 2727TIP3    H229741   4.268   4.957   6.065 -0.0754 -1.8307  0.9966
 2728TIP3   OH229742   1.383   0.764   8.401 -0.7698 -0.3871 -0.1998
 2728TIP3    H129743   1.353   0.771   8.491 -2.3058 -1.1530 -0.6227
 2728TIP3    H229744   1.439   0.841   8.389 -1.4066  0.3178  1.0714
 2729TIP3   OH229745   0.324   3.060   1.280 -0.2176 -0.6894  0.1839
 2729TIP3    H129746   0.345   2.989   1.340  1.3635  0.9290  1.6882
 2729TIP3    H229747   0.363   3.034   1.197 -1.1945 -2.3216  0.1874
 2730TIP3   OH229748   0.403   5.951   1.706 -0.8453  0.0829 -0.0224
 2730TIP3    H129749   0.426   5.950   1.799 -0.0632 -0.2297 -0.2136
 2730TIP3    H229750   0.451   6.026   1.670 -1.3714  0.3759 -0.1187
 2731TIP3   OH229751   0.668   0.683   0.440  0.2544 -0.1130  0.1054
 2731TIP3    H129752   0.729   0.757   0.448 -0.6013  0.5601  0.6642
 2731TIP3    H229753   0.709   0.625   0.376  1.0220  0.7877 -0.2538
 2732TIP3   OH229754   0.173   0.156   1.586 -0.3646  0.2316  0.4304
 2732TIP3    H129755   0.095   0.104   1.607 -0.4363 -0.6715 -1.8192
 2732TIP3    H229756   0.174   0.160   1.491  0.8056  2.6646  0.4780
 2733TIP3   OH229757   3.805   6.795   1.474  0.6530  0.0500 -0.2192
 2733TIP3    H129758   3.834   6.866   1.532  0.9982  1.1037 -1.6520
 2733TIP3    H229759   3.866   6.797   1.401 -0.0121 -1.0120 -0.8264
 2734TIP3   OH229760   1.311   2.709   6.431  0.3399  0.1039  0.5986
 2734TIP3    H129761   1.270   2.639   6.380 -0.1032 -1.6244  3.1340
 2734TIP3    H229762   1.242   2.774   6.443  0.8202  1.2223 -1.9823
 2735TIP3   OH229763   4.986   0.103   7.342  0.5390 -0.3556  0.2638
 2735TIP3    H129764   5.063   0.047   7.329  1.2354  0.1865  1.8031
 2735TIP3    H229765   4.924   0.046   7.388 -0.1545 -0.8991 -1.2806
 2736TIP3   OH229766   1.567   0.253   8.367 -0.1788 -0.4893  0.4489
 2736TIP3    H129767   1.503   0.321   8.389  1.7183  1.1359  1.3087
 2736TIP3    H229768   1.614   0.288   8.291 -1.3587 -2.4345 -1.2723
 2737TIP3   OH229769   3.672   2.185   8.018 -0.0180 -0.4867 -0.8425
 2737TIP3    H129770   3.648   2.124   7.948 -2.0989 -0.0345 -0.5624
 2737TIP3    H229771   3.596   2.241   8.029  1.1491  0.9657  0.2148
 2738TIP3   OH229772   0.742   4.345   8.661  0.1320 -0.7835 -0.2984
 2738TIP3    H129773   0.787   4.400   8.725 -0.9011  0.5687 -0.6833
 2738TIP3    H229774   0.811   4.316   8.601  0.5946  0.9007 -0.6376
 2739TIP3   OH229775   5.535   5.443   1.644 -0.5939  0.2645  0.0249
 2739TIP3    H129776   5.517   5.533   1.672  1.0065  0.2221  1.3384
 2739TIP3    H229777   5.601   5.453   1.575 -2.4181  0.1958 -1.8363
 2740TIP3   OH229778   6.122   1.001   1.701  0.3602 -0.4876  0.4377
 2740TIP3    H129779   6.105   0.968   1.789 -1.0927  3.2372  1.7699
 2740TIP3    H229780   6.172   1.082   1.716 -0.4702  0.5901 -2.0784
 2741TIP3   OH229781   2.204   3.887   0.218  0.1901 -0.4531 -0.0142
 2741TIP3    H129782   2.111   3.903   0.205 -0.5374 -2.9466  1.4520
 2741TIP3    H229783   2.233   3.959   0.273 -1.4524 -0.8099  1.4034
 2742TIP3   OH229784   0.383   3.656   7.741  0.4238 -0.3372  0.5187
 2742TIP3    H129785   0.345   3.647   7.654 -2.0251 -1.8657  1.6429
 2742TIP3    H229786   0.405   3.749   7.749 -0.2638  0.0113 -1.3156
 2743TIP3   OH229787   3.397   4.270   7.215 -0.6551  0.2107 -0.2149
 2743TIP3    H129788   3.409   4.176   7.228 -0.1431  0.4283  1.0465
 2743TIP3    H229789   3.484   4.307   7.227 -0.8548  0.8586 -0.6903
 2744TIP3   OH229790   3.102   6.787   7.277 -0.7341 -0.2085  0.5525
 2744TIP3    H129791   3.075   6.863   7.329  1.5950  0.8749  0.3338
 2744TIP3    H229792   3.055   6.797   7.194 -1.0518  0.5867  0.8196
 2745TIP3   OH229793   0.047   4.081   7.249  0.6333  0.0203 -0.5501
 2745TIP3    H129794   0.098   4.097   7.328 -0.4771  1.3620 -0.0575
 2745TIP3    H229795  -0.009   4.007   7.271  0.8345 -0.0717 -0.3444
 2746TIP3   OH229796   5.188   3.380   7.406  0.0561  0.4338 -0.4345
 2746TIP3    H129797   5.105   3.361   7.361 -1.0001  0.6121  1.3481
 2746TIP3    H229798   5.186   3.325   7.484  1.9742 -0.0776 -0.7039
 2747TIP3   OH229799   4.161   1.610   8.074 -0.1508  0.3656 -0.3566
 2747TIP3    H129800   4.199   1.618   7.987  0.2129  1.0937 -0.1359
 2747TIP3    H229801   4.072   1.578   8.058 -0.1811  0.7571 -1.0063
 2748TIP3   OH229802   6.689   1.211   7.032  0.6372  0.1437  0.0845
 2748TIP3    H129803   6.699   1.297   6.991  1.1349 -0.8723 -2.0812
 2748TIP3    H229804   6.595   1.201   7.046  0.1690 -0.2274 -2.7675
 2749TIP3   OH229805   5.075   6.705   0.396  0.0030 -0.4027 -0.5554
 2749TIP3    H129806   4.983   6.687   0.379 -0.2799  0.6779 -0.2636
 2749TIP3    H229807   5.120   6.624   0.374 -0.8527 -0.5041 -2.0895
 2750TIP3   OH229808   2.298   6.556   0.005  0.5948  0.0036  0.2652
 2750TIP3    H129809   2.376   6.515  -0.031  0.8969 -0.1497  1.0808
 2750TIP3    H229810   2.241   6.570  -0.071  1.2601 -0.2118 -0.2812
 2751TIP3   OH229811   2.370   4.352   0.617 -0.5167 -0.4730 -0.7077
 2751TIP3    H129812   2.280   4.338   0.647  0.2708 -2.0910  1.1654
 2751TIP3    H229813   2.423   4.298   0.676  2.0094  2.7804  0.2765
 2752TIP3   OH229814   2.062   2.477   1.291 -0.1184 -0.3075 -0.3272
 2752TIP3    H129815   1.975   2.494   1.255 -0.5082  0.3896  0.8832
 2752TIP3    H229816   2.065   2.527   1.373  1.7225  0.3402 -0.7306
 2753TIP3   OH229817   5.415   2.844   7.723  0.6956 -0.8358 -0.5358
 2753TIP3    H129818   5.434   2.928   7.682  1.9362 -1.4903 -1.3858
 2753TIP3    H229819   5.501   2.804   7.736  0.1616 -1.7031  0.4329
 2754TIP3   OH229820   1.098   3.618   6.270 -0.4568  0.2312 -0.1852
 2754TIP3    H129821   1.113   3.609   6.364 -1.1488  2.2313  0.1686
 2754TIP3    H229822   1.004   3.635   6.263 -0.7756 -1.7503 -1.4345
 2755TIP3   OH229823   1.369   0.811   2.287  0.1756 -0.5249 -0.3595
 2755TIP3    H129824   1.334   0.900   2.299 -1.8530 -1.2288 -0.5822
 2755TIP3    H229825   1.444   0.807   2.346  0.5633  1.4572 -0.6420
 2756TIP3   OH229826   2.277   0.587   7.964  0.6467 -0.6638 -0.0195
 2756TIP3    H129827   2.211   0.582   7.895 -1.3217 -0.4489  1.7412
 2756TIP3    H229828   2.250   0.521   8.028  1.8635 -0.2302  0.9836
 2757TIP3   OH229829   5.789   4.946   1.099 -0.5478  0.9651  0.3839
 2757TIP3    H129830   5.857   4.966   1.035 -0.8147  2.6758  0.5826
 2757TIP3    H229831   5.711   4.928   1.046  0.3362 -2.6338  0.0776
 2758TIP3   OH229832   5.862   6.679   0.916 -0.0886  0.1776  0.0051
 2758TIP3    H129833   5.811   6.618   0.969 -0.4301  0.6795  0.2604
 2758TIP3    H229834   5.937   6.703   0.972  2.1437 -2.8647 -1.4408
 2759TIP3   OH229835   3.414   5.410   1.997  0.1587  0.0686  0.3904
 2759TIP3    H129836   3.488   5.469   2.007  0.4178 -0.3335  0.9000
 2759TIP3    H229837   3.341   5.466   1.973  0.4740  0.5542  0.5620
 2760TIP3   OH229838   5.296   1.483   7.583  0.3271  0.2720  0.6468
 2760TIP3    H129839   5.362   1.421   7.615  2.0036  1.0803 -1.0410
 2760TIP3    H229840   5.318   1.566   7.627  0.0172  0.3899  0.5830
 2761TIP3   OH229841   3.279   3.510   1.216 -0.0645 -0.1993 -1.1225
 2761TIP3    H129842   3.198   3.460   1.226 -0.3118  0.3836 -0.0300
 2761TIP3    H229843   3.302   3.537   1.305  0.3258  1.1979 -1.6128
 2762TIP3   OH229844   2.004   1.685   1.279 -0.1675  0.0346 -0.4201
 2762TIP3    H129845   1.954   1.603   1.276  0.5325 -0.3763 -2.3011
 2762TIP3    H229846   1.960   1.743   1.217  0.1039  0.6391 -0.0641
 2763TIP3   OH229847   2.479   2.385   8.336 -0.1277 -0.0519 -0.0195
 2763TIP3    H129848   2.437   2.445   8.274 -0.4924  1.3782  1.5233
 2763TIP3    H229849   2.560   2.429   8.362 -0.4257 -0.1728  1.1867
 2764TIP3   OH229850   2.475   4.337   1.639  0.3185 -0.0983  0.7124
 2764TIP3    H129851   2.484   4.368   1.729 -2.5352 -0.3555  1.1570
 2764TIP3    H229852   2.511   4.248   1.641  2.1808  0.6091  1.0447
 2765TIP3   OH229853   0.818   3.673   7.718  0.3405 -0.3620 -0.1392
 2765TIP3    H129854   0.781   3.740   7.662  1.3955  0.0197 -0.4017
 2765TIP3    H229855   0.913   3.686   7.712  0.6265 -2.3646 -0.8405
 2766TIP3   OH229856   5.273   2.729   7.908  0.6964 -0.0302  0.4239
 2766TIP3    H129857   5.327   2.766   7.978  0.5455  1.6184 -0.2927
 2766TIP3    H229858   5.321   2.747   7.827  0.1728 -0.6024 -0.0326
 2767TIP3   OH229859   6.754   4.653   7.251 -0.0577  0.9004 -0.0716
 2767TIP3    H129860   6.824   4.707   7.215 -0.6901  0.8926 -1.3605
 2767TIP3    H229861   6.676   4.680   7.202 -0.2770 -1.7006 -1.3160
 2768TIP3   OH229862   0.674   0.012   7.764 -0.4446  0.4198 -0.0477
 2768TIP3    H129863   0.754   0.011   7.817  0.0042  3.7429 -0.4438
 2768TIP3    H229864   0.702   0.049   7.680 -2.1290  0.1235 -0.7722
 2769TIP3   OH229865   0.581   5.907   2.643 -0.4458  0.4616 -0.0012
 2769TIP3    H129866   0.610   5.947   2.561 -0.1953 -3.3830 -1.9885
 2769TIP3    H229867   0.658   5.864   2.678 -1.1446 -0.0595  0.9459
 2770TIP3   OH229868   6.854   0.684   2.321  0.0559 -0.8221  0.2022
 2770TIP3    H129869   6.933   0.735   2.305  0.1239 -1.0585 -0.2304
 2770TIP3    H229870   6.787   0.725   2.266 -0.2471 -0.3310  0.9219
 2771TIP3   OH229871   4.370   4.623   1.770  0.2777  0.1684  0.3868
 2771TIP3    H129872   4.339   4.556   1.708  0.4218  0.5445 -0.1011
 2771TIP3    H229873   4.459   4.643   1.740  0.0596  0.9185  0.2374
 2772TIP3   OH229874   6.252   5.364   6.730 -0.1738 -0.2073 -0.2739
 2772TIP3    H129875   6.158   5.378   6.741 -0.2778 -1.3814  0.5200
 2772TIP3    H229876   6.263   5.269   6.732  0.9914 -0.1026 -0.7627
 2773TIP3   OH229877   2.427   5.289   7.920  0.3791 -0.1425  0.7340
 2773TIP3    H129878   2.336   5.317   7.923  0.3536 -0.2763  1.3408
 2773TIP3    H229879   2.422   5.195   7.902  0.4576  0.1626 -1.0496
 2774TIP3   OH229880   0.134   5.582   0.106  0.3283 -0.4490  0.0163
 2774TIP3    H129881   0.097   5.640   0.173  3.1667 -1.3910  2.6599
 2774TIP3    H229882   0.123   5.629   0.024 -1.1141  1.9312  1.4546
 2775TIP3   OH229883   3.085   1.754   1.524 -0.0159 -0.7618 -0.0801
 2775TIP3    H129884   3.131   1.740   1.607 -0.1046  0.5360  0.2149
 2775TIP3    H229885   2.994   1.733   1.544 -0.2711  0.8240  0.5474
 2776TIP3   OH229886   3.914   5.979   0.081 -0.1244 -0.0615  0.1048
 2776TIP3    H129887   3.992   5.944   0.124  0.9314 -0.6874 -2.1693
 2776TIP3    H229888   3.944   6.004  -0.006 -2.6431 -1.2124 -1.1936
 2777TIP3   OH229889   4.360   4.775   7.715 -0.0575  0.0612 -0.1878
 2777TIP3    H129890   4.403   4.846   7.763  1.1378 -0.4492 -0.4658
 2777TIP3    H229891   4.414   4.698   7.733 -1.0955 -0.6861 -0.2401
 2778TIP3   OH229892   6.108   3.231   8.404  0.1263 -0.4534 -0.2614
 2778TIP3    H129893   6.090   3.282   8.325  2.2344  0.1182 -0.4447
 2778TIP3    H229894   6.083   3.142   8.382 -0.2059 -0.1317 -1.2330
 2779TIP3   OH229895   6.565   5.967   8.349  0.4896  0.1621 -0.2379
 2779TIP3    H129896   6.613   6.040   8.388  2.0318 -0.6899 -0.4569
 2779TIP3    H229897   6.625   5.893   8.356 -0.3730 -0.6946 -1.5694
 2780TIP3   OH229898   2.976   6.487   0.033 -0.1593  0.2218  0.4359
 2780TIP3    H129899   3.034   6.453   0.102 -0.8908  0.6368  1.2818
 2780TIP3    H229900   3.030   6.488  -0.046  0.1006 -2.2780  0.5058
 2781TIP3   OH229901   6.880   1.690   8.161 -0.2043 -0.0986 -0.7356
 2781TIP3    H129902   6.951   1.633   8.191  0.7836  1.6962  0.5188
 2781TIP3    H229903   6.836   1.717   8.242  0.6418  2.4831 -1.0440
 2782TIP3   OH229904   3.889   0.134   8.388  0.5258  0.1698  0.0729
 2782TIP3    H129905   3.972   0.096   8.358  0.3386  0.1246 -0.3999
 2782TIP3    H229906   3.830   0.059   8.397  0.4200  0.2442  0.0092
 2783TIP3   OH229907   0.983   6.080   7.972  0.2990 -0.2863  0.0610
 2783TIP3    H129908   0.922   6.151   7.950  1.4823  0.8047  0.1686
 2783TIP3    H229909   1.060   6.097   7.919  1.3835 -0.3156  1.5625
 2784TIP3   OH229910   6.131   1.374   1.565 -0.0966  0.6942 -1.0984
 2784TIP3    H129911   6.186   1.437   1.612  0.5815  0.4318 -1.5283
 2784TIP3    H229912   6.049   1.421   1.548 -0.7989  0.4636  1.2923
 2785TIP3   OH229913   2.090   0.327   1.162 -0.7084 -0.5535 -0.2609
 2785TIP3    H129914   2.102   0.389   1.234  2.1560 -1.2631  0.0098
 2785TIP3    H229915   2.131   0.370   1.087 -2.0440 -0.5894 -1.0332
 2786TIP3   OH229916   5.955   1.600   0.955  0.3601 -0.2029  0.5479
 2786TIP3    H129917   5.934   1.597   0.862  0.2415 -0.1746  0.5726
 2786TIP3    H229918   6.036   1.650   0.960  1.1512 -1.4357  0.3323
 2787TIP3   OH229919   5.108   5.233   0.958 -0.1085 -0.1224 -0.0502
 2787TIP3    H129920   5.088   5.196   0.872 -2.3699  0.6297  0.0984
 2787TIP3    H229921   5.127   5.326   0.941  0.5793 -0.2195  0.1485
 2788TIP3   OH229922   4.088   0.382   7.166 -0.3651 -0.5039 -0.1353
 2788TIP3    H129923   4.136   0.430   7.099  0.5834 -1.9898 -0.5667
 2788TIP3    H229924   4.059   0.450   7.227  1.6337  0.5494 -0.2623
 2789TIP3   OH229925   1.396   2.755   1.533 -0.6255 -0.6124 -0.0444
 2789TIP3    H129926   1.432   2.781   1.448  0.1568 -1.7548 -0.0847
 2789TIP3    H229927   1.400   2.834   1.586  0.5788 -0.3346 -0.5237
 2790TIP3   OH229928   4.753   0.836   7.040  0.1807  0.6081  0.0157
 2790TIP3    H129929   4.846   0.828   7.062  0.4621  2.7194 -0.1823
 2790TIP3    H229930   4.741   0.930   7.021 -2.2999  0.6543  1.4160
 2791TIP3   OH229931   3.037   6.194   8.280 -0.1767 -0.0351  0.2667
 2791TIP3    H129932   3.051   6.257   8.208 -1.0784  0.4067  0.4626
 2791TIP3    H229933   3.103   6.127   8.266  0.4161  0.6497 -0.3064
 2792TIP3   OH229934   1.292   0.255   1.003 -0.0239 -0.3046 -0.2783
 2792TIP3    H129935   1.382   0.225   0.989 -0.5465 -1.1654 -2.1789
 2792TIP3    H229936   1.298   0.350   0.999  0.6828 -0.3767 -1.4369
 2793TIP3   OH229937   6.651   3.805   2.451 -0.0854 -0.3217 -0.4301
 2793TIP3    H129938   6.558   3.811   2.473  0.3350  1.1145  1.2033
 2793TIP3    H229939   6.670   3.712   2.449 -1.0711 -0.6139  1.5714
 2794TIP3   OH229940   5.584   3.046   2.461 -0.0481 -0.0919  0.0569
 2794TIP3    H129941   5.536   3.062   2.542  1.2049 -1.9634  1.2537
 2794TIP3    H229942   5.644   3.120   2.453  2.5202 -1.6072  3.0162
 2795TIP3   OH229943   0.098   1.844   0.680  0.2310  0.4045  0.4081
 2795TIP3    H129944   0.087   1.814   0.770 -1.9192 -0.1633  0.0215
 2795TIP3    H229945   0.027   1.908   0.668  2.0924  2.5157 -0.1063
 2796TIP3   OH229946   0.691   0.094   8.224  0.2906  0.4857  0.7059
 2796TIP3    H129947   0.721   0.008   8.197  3.5212  1.3182  1.2249
 2796TIP3    H229948   0.698   0.148   8.145 -2.6725  0.1810  0.1097
 2797TIP3   OH229949   3.241   3.860   7.851  0.3044 -0.0268 -0.0699
 2797TIP3    H129950   3.157   3.849   7.806 -0.9462 -0.8238  2.2536
 2797TIP3    H229951   3.250   3.781   7.904  1.6209  0.8478  1.0982
 2798TIP3   OH229952   4.612   6.595   6.949  0.6535  0.5842 -0.2551
 2798TIP3    H129953   4.596   6.655   6.876  0.2907  1.1094  0.2470
 2798TIP3    H229954   4.535   6.606   7.005 -0.4866 -1.9261 -1.1844
 2799TIP3   OH229955   2.867   4.334   8.246  0.2196 -0.2002 -0.2998
 2799TIP3    H129956   2.785   4.328   8.296 -0.7313  1.5693 -1.5315
 2799TIP3    H229957   2.925   4.270   8.287 -1.5070 -0.9283  1.1320
 2800TIP3   OH229958   0.119   5.991   1.320  0.5783 -0.3897 -0.8231
 2800TIP3    H129959   0.213   6.008   1.316  1.0571 -1.9667  1.7467
 2800TIP3    H229960   0.112   5.902   1.355 -1.8940  0.0277 -0.0927
 2801TIP3   OH229961   6.404   0.286   0.014  0.0220  0.0980  0.5618
 2801TIP3    H129962   6.340   0.356   0.027  0.0470  0.0456  0.9751
 2801TIP3    H229963   6.387   0.254  -0.075 -0.4324  0.1812  0.6175
 2802TIP3   OH229964   3.455   0.476   2.413  0.3961 -0.0447 -0.1260
 2802TIP3    H129965   3.483   0.560   2.450 -1.2603  0.1072  0.8726
 2802TIP3    H229966   3.382   0.448   2.468  1.0500 -2.2870 -0.2967
 2803TIP3   OH229967   1.168   6.429   0.972  0.6767 -0.1631 -0.2424
 2803TIP3    H129968   1.109   6.503   0.989  1.8019  0.4025  1.5122
 2803TIP3    H229969   1.250   6.454   1.014  2.2533 -0.8810 -2.7008
 2804TIP3   OH229970   6.571   2.486   7.490  0.5922  0.0411  0.1709
 2804TIP3    H129971   6.532   2.538   7.560  1.6830  0.5930  0.3837
 2804TIP3    H229972   6.572   2.545   7.415  0.0747 -0.3207 -0.1319
 2805TIP3   OH229973   2.578   0.585   1.389  0.0238  0.1127 -0.4870
 2805TIP3    H129974   2.640   0.512   1.392 -0.3345 -0.3513 -2.8481
 2805TIP3    H229975   2.502   0.554   1.440 -0.0831 -1.1474 -1.3662
 2806TIP3   OH229976   5.733   5.910   7.719  0.2716 -0.8072 -0.4140
 2806TIP3    H129977   5.708   5.824   7.686  0.7738 -1.2874  0.4480
 2806TIP3    H229978   5.810   5.934   7.668  1.4873 -1.8701  0.8731
 2807TIP3   OH229979   2.777   2.736   6.859  0.9478 -0.2755 -0.4943
 2807TIP3    H129980   2.705   2.710   6.918  0.5801  0.7175 -0.4826
 2807TIP3    H229981   2.752   2.701   6.774 -0.8575  2.1068 -1.0684
 2808TIP3   OH229982   0.980   0.971   8.141 -0.4291  0.0745 -0.1525
 2808TIP3    H129983   1.044   0.900   8.135  0.1012  0.4672  0.6517
 2808TIP3    H229984   0.895   0.928   8.131 -0.1000 -0.6239 -0.0003
 2809TIP3   OH229985   3.127   4.005   0.497  0.5350 -0.2711 -0.6207
 2809TIP3    H129986   3.191   4.002   0.426  1.1126 -2.0971 -0.0888
 2809TIP3    H229987   3.157   3.938   0.559 -0.0051  1.1809  1.3010
 2810TIP3   OH229988   1.762   4.210   2.021  0.1716 -0.4616  0.0206
 2810TIP3    H129989   1.777   4.280   2.085 -1.3995 -0.1630  0.1110
 2810TIP3    H229990   1.761   4.130   2.073 -0.2896 -0.3039  0.2615
 2811TIP3   OH229991   4.432   5.229   7.470 -0.3070  0.2601 -0.1402
 2811TIP3    H129992   4.424   5.324   7.465  0.0885  0.3871  1.3934
 2811TIP3    H229993   4.487   5.213   7.546  1.8633 -1.1225 -1.8955
 2812TIP3   OH229994   3.657   6.074   7.131  0.3658  0.4393  0.0338
 2812TIP3    H129995   3.658   5.993   7.081 -0.0456 -0.1066  0.8873
 2812TIP3    H229996   3.750   6.094   7.146  0.4763  0.3328 -0.4861
 2813TIP3   OH229997   4.566   2.022   0.485  0.0928 -0.0540  0.0327
 2813TIP3    H129998   4.597   2.109   0.463 -2.1056  0.7111 -0.3387
 2813TIP3    H229999   4.489   2.009   0.429  1.0413 -2.7416 -0.7904
 2814TIP3   OH230000   2.646   1.557   1.896 -0.2710  0.6437  0.5408
 2814TIP3    H130001   2.695   1.531   1.974  0.7855 -0.3487 -0.4188
 2814TIP3    H230002   2.676   1.646   1.878  0.6845  0.3068  0.3791
 2815TIP3   OH230003   5.341   6.720   7.737 -0.1292 -0.4095 -0.3612
 2815TIP3    H130004   5.357   6.760   7.822  0.7617  1.6912 -1.4490
 2815TIP3    H230005   5.321   6.628   7.757  0.2289 -0.0205  2.0666
 2816TIP3   OH230006   3.587   0.624   6.599 -0.3522 -0.0882 -0.0719
 2816TIP3    H130007   3.500   0.585   6.597 -1.3552  2.0436 -0.4204
 2816TIP3    H230008   3.614   0.627   6.507  1.1130 -2.7071  0.1543
 2817TIP3   OH230009   3.683   0.653   8.445  0.0750 -0.3953 -0.0331
 2817TIP3    H130010   3.674   0.660   8.540 -0.4465 -0.3892 -0.0833
 2817TIP3    H230011   3.697   0.559   8.430  0.6282 -0.3364  0.0852
 2818TIP3   OH230012   2.985   1.401   0.967 -0.7149  0.4729 -0.4646
 2818TIP3    H130013   3.005   1.486   1.008 -0.4356  0.0996  0.1886
 2818TIP3    H230014   2.982   1.420   0.873  2.7304  0.6099 -0.6836
 2819TIP3   OH230015   5.228   5.223   7.749  0.4961 -0.4695  0.0326
 2819TIP3    H130016   5.205   5.165   7.676 -0.9272  1.2559 -0.9802
 2819TIP3    H230017   5.201   5.174   7.827 -0.0417 -1.4414 -0.7321
 2820TIP3   OH230018   3.358   5.503   1.414  0.2617 -0.0507  0.6761
 2820TIP3    H130019   3.318   5.427   1.458 -0.2940 -0.2827 -0.1970
 2820TIP3    H230020   3.386   5.560   1.485  0.5042 -0.9850  1.3502
 2821TIP3   OH230021   5.413   4.956   7.618 -0.2631 -0.1424 -0.4636
 2821TIP3    H130022   5.454   4.890   7.562 -0.7226 -1.9636  1.1966
 2821TIP3    H230023   5.388   4.907   7.697 -1.2284  1.9178  0.5822
 2822TIP3   OH230024   0.732   2.483   6.344 -0.2714 -0.0834 -0.3249
 2822TIP3    H130025   0.674   2.418   6.383 -1.0796  0.4106 -0.6815
 2822TIP3    H230026   0.686   2.514   6.266  0.6949 -0.0426 -0.8992
 2823TIP3   OH230027   1.101   6.580   0.107  0.0709  0.3245  0.2726
 2823TIP3    H130028   1.028   6.589   0.045 -1.0522 -0.5857  1.4147
 2823TIP3    H230029   1.101   6.488   0.131  1.4846  0.3504  0.4866
 2824TIP3   OH230030   5.640   6.436   0.815 -0.0477  0.1906 -0.0569
 2824TIP3    H130031   5.702   6.364   0.824 -0.0017  0.2110 -0.2096
 2824TIP3    H230032   5.638   6.455   0.721  2.7005  2.8072  0.2400
 2825TIP3   OH230033   5.402   6.860   0.045 -0.0923 -0.0537 -0.0233
 2825TIP3    H130034   5.353   6.860  -0.037 -1.7798  1.0447  0.9275
 2825TIP3    H230035   5.335   6.866   0.113  1.3114  0.0915  1.4031
 2826TIP3   OH230036   5.226   2.652   8.633 -0.2435 -0.2924  0.1288
 2826TIP3    H130037   5.303   2.635   8.687  0.3073 -0.0628 -0.5620
 2826TIP3    H230038   5.162   2.586   8.659 -0.1520  0.0805  1.3586
 2827TIP3   OH230039   0.563   6.502   0.331  0.6028 -0.0505  0.5418
 2827TIP3    H130040   0.509   6.425   0.317  0.8979 -0.3046  0.7905
 2827TIP3    H230041   0.604   6.487   0.416  0.6749  0.3727  0.5832
 2828TIP3   OH230042   1.891   6.651   7.201  0.9842 -0.0560 -0.4710
 2828TIP3    H130043   1.829   6.596   7.154  1.7850  0.3306 -2.0648
 2828TIP3    H230044   1.969   6.653   7.145  2.3560 -0.3102  1.3319
 2829TIP3   OH230045   6.079   4.171   1.240 -0.7105 -0.2767  0.2177
 2829TIP3    H130046   6.034   4.153   1.157  0.3176  0.3374 -0.4988
 2829TIP3    H230047   6.012   4.214   1.294 -1.6392 -1.4328  0.0333
 2830TIP3   OH230048   4.370   6.414   1.704 -0.5027  0.3198 -0.4685
 2830TIP3    H130049   4.343   6.505   1.696  0.9084  0.7626 -0.4738
 2830TIP3    H230050   4.360   6.394   1.797  0.5874  0.9732 -0.1866
 2831TIP3   OH230051   5.812   0.138   7.516  0.7464  0.1306  0.1590
 2831TIP3    H130052   5.789   0.135   7.609  0.7704  0.9164  0.1970
 2831TIP3    H230053   5.759   0.069   7.476 -0.9232  1.2081  0.4140
 2832TIP3   OH230054   6.017   3.737   7.697  0.1484  0.2089  0.4724
 2832TIP3    H130055   6.108   3.711   7.704  0.4558  0.7015 -1.2431
 2832TIP3    H230056   5.983   3.688   7.621 -0.3999  1.6050 -0.2209
 2833TIP3   OH230057   6.010   5.547   0.765 -0.7007  0.1305  0.4456
 2833TIP3    H130058   6.000   5.561   0.671  1.2807  1.6974  0.3949
 2833TIP3    H230059   6.100   5.576   0.784  0.0176 -2.9101  2.3276
 2834TIP3   OH230060   6.176   1.837   2.035  0.0385 -0.2993  0.0231
 2834TIP3    H130061   6.268   1.845   2.059  0.0400 -0.9977  0.2756
 2834TIP3    H230062   6.145   1.762   2.086 -0.2388 -1.1385 -1.3463
 2835TIP3   OH230063   6.497   1.693   0.292 -0.5776  0.0496  0.7499
 2835TIP3    H130064   6.504   1.602   0.321  1.2694  0.0400  0.4002
 2835TIP3    H230065   6.422   1.728   0.339  0.3350 -0.8843  3.0276
 2836TIP3   OH230066   5.990   5.382   6.790  0.0590  0.5602 -0.1337
 2836TIP3    H130067   5.973   5.449   6.724  0.1001  0.1491 -0.5705
 2836TIP3    H230068   5.906   5.367   6.832  0.4584  2.4432  1.4884
 2837TIP3   OH230069   5.440   2.805   8.105  0.5234 -0.0297 -0.3264
 2837TIP3    H130070   5.522   2.811   8.154  1.0744 -0.6857 -1.1534
 2837TIP3    H230071   5.394   2.887   8.125  1.8032  0.7702 -0.6111
 2838TIP3   OH230072   4.276   5.660   8.286  0.5612  0.5336 -0.8318
 2838TIP3    H130073   4.281   5.746   8.244  0.4813  1.4800  0.9752
 2838TIP3    H230074   4.183   5.648   8.303  0.8209  1.7766  2.0468
 2839TIP3   OH230075   2.912   5.920   0.348 -0.6685  0.2341 -0.0270
 2839TIP3    H130076   2.829   5.876   0.367  0.4032 -1.1926  1.7396
 2839TIP3    H230077   2.972   5.849   0.324  0.4021  1.0695  0.0993
 2840TIP3   OH230078   2.347   4.269   1.401  0.0279  0.1209  0.5392
 2840TIP3    H130079   2.278   4.219   1.445 -1.1599  1.8110  0.7142
 2840TIP3    H230080   2.401   4.302   1.472 -0.1385  0.3985  0.5386
 2841TIP3   OH230081   3.117   5.603   7.098  0.1417 -0.0729 -0.4063
 2841TIP3    H130082   3.186   5.647   7.048  1.5686 -0.5786  1.0217
 2841TIP3    H230083   3.071   5.549   7.033  1.1952  0.1461 -1.3705
 2842TIP3   OH230084   3.043   3.178   8.277  0.3177 -0.0145 -0.7247
 2842TIP3    H130085   2.984   3.133   8.216  1.6043  0.1649 -2.1827
 2842TIP3    H230086   3.110   3.112   8.298 -0.5590 -0.3438  1.2133
 2843TIP3   OH230087   5.415   5.622   0.775  0.4436  0.1533  0.0399
 2843TIP3    H130088   5.390   5.711   0.801 -1.1319 -0.5238  0.9246
 2843TIP3    H230089   5.430   5.628   0.681  1.1991  1.5313  0.2238
 2844TIP3   OH230090   5.180   4.311   7.784  0.1350 -0.4717 -0.1115
 2844TIP3    H130091   5.229   4.354   7.855 -2.6052  1.3291  0.8340
 2844TIP3    H230092   5.181   4.218   7.807 -0.6016  0.0471  2.3100
 2845TIP3   OH230093   5.999   1.321   8.660  0.3437 -0.1025  0.3359
 2845TIP3    H130094   6.051   1.355   8.587 -1.2501  1.2682 -0.2394
 2845TIP3    H230095   6.005   1.226   8.652 -0.3336 -0.0189 -2.0367
 2846TIP3   OH230096   3.475   2.857   1.626  0.1675 -0.4103 -0.2293
 2846TIP3    H130097   3.414   2.899   1.566 -0.2224 -1.7823 -0.8354
 2846TIP3    H230098   3.468   2.908   1.707 -0.4744  0.5014 -0.8446
 2847TIP3   OH230099   3.167   4.259   0.908 -0.1514 -0.0945  0.3254
 2847TIP3    H130100   3.257   4.289   0.905 -0.0645 -0.3569  0.2877
 2847TIP3    H230101   3.117   4.336   0.938  0.0838  0.0447  0.3628
 2848TIP3   OH230102   5.233   3.660   1.375  0.2332  0.8118 -0.0369
 2848TIP3    H130103   5.149   3.635   1.415  0.2644  0.5779 -0.1145
 2848TIP3    H230104   5.298   3.609   1.423  0.0411 -1.7802 -2.2561
 2849TIP3   OH230105   1.072   4.610   6.847  0.2710 -0.4450  0.0982
 2849TIP3    H130106   1.102   4.646   6.930 -0.4064  1.7642 -0.5288
 2849TIP3    H230107   1.151   4.603   6.794  0.5558 -0.8504  0.5683
 2850TIP3   OH230108   2.742   5.233   0.262  0.2542  0.9381 -0.2284
 2850TIP3    H130109   2.759   5.202   0.173 -0.1269  0.7358 -0.2336
 2850TIP3    H230110   2.646   5.233   0.270  0.2880  0.8630  0.2120
 2851TIP3   OH230111   4.965   1.140   0.455 -0.3278 -0.1923  0.8678
 2851TIP3    H130112   5.025   1.195   0.505  0.0441  0.9854 -0.8180
 2851TIP3    H230113   4.908   1.201   0.408  0.3776 -1.1671 -1.4014
 2852TIP3   OH230114   6.811   5.283   1.292  0.1661 -0.8868 -0.0721
 2852TIP3    H130115   6.730   5.263   1.339 -0.0001 -1.6472 -0.6664
 2852TIP3    H230116   6.814   5.379   1.290 -1.0966 -0.8410 -0.6936
 2853TIP3   OH230117   0.473   6.162   7.730  0.1100  0.0071 -0.1042
 2853TIP3    H130118   0.501   6.099   7.796  2.0078 -0.2195 -1.0407
 2853TIP3    H230119   0.378   6.163   7.736  0.0869 -2.1471  0.6696
 2854TIP3   OH230120   0.109   2.956   1.992  0.0472 -0.3440 -0.1465
 2854TIP3    H130121   0.190   3.007   1.995  0.9839 -1.8239  2.0514
 2854TIP3    H230122   0.052   2.999   2.056 -0.3981 -0.1346 -0.6776
 2855TIP3   OH230123   2.836   4.763   8.437  0.4534 -0.0001 -0.0624
 2855TIP3    H130124   2.783   4.706   8.493  0.7285 -0.5194 -0.3178
 2855TIP3    H230125   2.829   4.850   8.476  0.3845 -0.2979  0.5927
 2856TIP3   OH230126   6.343   0.899   1.252 -0.0934 -0.0776 -0.1684
 2856TIP3    H130127   6.335   0.958   1.327  0.4148  0.9776 -0.9265
 2856TIP3    H230128   6.352   0.812   1.291 -0.6434  0.3579  0.9708
 2857TIP3   OH230129   5.819   6.889   1.856 -0.1111  0.7973 -0.0801
 2857TIP3    H130130   5.792   6.899   1.947 -0.9867  1.6042 -0.4077
 2857TIP3    H230131   5.871   6.808   1.854 -0.0335  0.8107  1.1356
 2858TIP3   OH230132   3.624   4.870   1.874  0.4166 -0.0524 -0.4945
 2858TIP3    H130133   3.657   4.792   1.918  1.5592  0.3810 -0.5427
 2858TIP3    H230134   3.529   4.860   1.876  0.4830 -0.6983  0.8504
 2859TIP3   OH230135   4.685   5.122   1.405  0.0313  0.1337 -0.3118
 2859TIP3    H130136   4.597   5.089   1.385  0.1806 -0.3210 -0.2469
 2859TIP3    H230137   4.678   5.155   1.494 -0.5695  1.9215 -0.9844
 2860TIP3   OH230138   6.835   3.757   1.196 -0.0271  0.4787  0.4211
 2860TIP3    H130139   6.856   3.805   1.116  0.6923 -2.5338 -1.3577
 2860TIP3    H230140   6.883   3.803   1.265 -0.3806  2.9525 -0.8532
 2861TIP3   OH230141   4.357   5.503   7.447 -0.5388 -0.1970 -0.2965
 2861TIP3    H130142   4.383   5.585   7.405  1.1843  0.0857  1.1908
 2861TIP3    H230143   4.267   5.488   7.417 -0.6525  1.8536 -1.1419
 2862TIP3   OH230144   5.310   0.915   0.690 -0.1224 -0.2058 -0.1399
 2862TIP3    H130145   5.291   0.972   0.615  1.7238 -0.8817 -1.1872
 2862TIP3    H230146   5.225   0.899   0.730 -1.0210  1.0811 -1.4343
 2863TIP3   OH230147   6.551   4.751   6.861  0.1376 -0.2108  0.1739
 2863TIP3    H130148   6.555   4.840   6.827  1.9119 -0.1472  0.4272
 2863TIP3    H230149   6.581   4.696   6.789  0.9952 -0.3761  0.6376
 2864TIP3   OH230150   4.178   4.760   6.258  0.3912 -0.4665 -0.1435
 2864TIP3    H130151   4.083   4.769   6.261  0.4355 -0.1181  1.9947
 2864TIP3    H230152   4.207   4.828   6.198 -0.6576  0.0383 -0.1007
 2865TIP3   OH230153   4.947   4.489   8.622  0.0987  0.3360  0.3243
 2865TIP3    H130154   4.858   4.520   8.639  0.3724  0.9079  0.7826
 2865TIP3    H230155   5.003   4.554   8.665  0.7072 -0.7995  1.3184
 2866TIP3   OH230156   6.681   0.190   1.257  0.1201 -0.5127 -0.0972
 2866TIP3    H130157   6.686   0.201   1.162  1.0110  0.3091  0.0260
 2866TIP3    H230158   6.618   0.256   1.285  1.8831  1.1639  0.1365
 2867TIP3   OH230159   1.090   1.423   1.604 -0.5753  0.2772  0.5598
 2867TIP3    H130160   1.036   1.474   1.544 -0.3961  2.1375  1.9117
 2867TIP3    H230161   1.034   1.408   1.680 -0.2902 -0.7499  0.5895
 2868TIP3   OH230162   0.402   0.452   0.041 -0.2498  0.2246 -0.2738
 2868TIP3    H130163   0.394   0.547   0.036 -0.5615  0.1340 -3.6879
 2868TIP3    H230164   0.481   0.437   0.092  0.3506  2.3639 -0.4871
 2869TIP3   OH230165   4.716   1.786   7.158 -0.2957 -0.0205 -0.5577
 2869TIP3    H130166   4.717   1.730   7.080  0.2661 -1.1644  0.2452
 2869TIP3    H230167   4.800   1.769   7.201 -1.6148 -1.4579  1.6733
 2870TIP3   OH230168   0.524   5.909   0.895  0.3463 -0.0330 -0.2768
 2870TIP3    H130169   0.443   5.860   0.906 -0.4656  1.3725  0.2355
 2870TIP3    H230170   0.500   5.983   0.839  1.6357 -0.4067 -1.3914
 2871TIP3   OH230171   1.754   5.096   7.827 -0.0886  0.0737  0.4348
 2871TIP3    H130172   1.749   5.179   7.875 -0.0603  0.0064  0.5532
 2871TIP3    H230173   1.663   5.073   7.809 -0.0912  0.2083  0.2669
 2872TIP3   OH230174   0.860   3.369   6.975  0.4527 -0.0381  0.5446
 2872TIP3    H130175   0.780   3.317   6.986  1.5327 -1.5833  1.3321
 2872TIP3    H230176   0.865   3.386   6.881 -1.4555  1.1996  0.6089
 2873TIP3   OH230177   4.807   2.654   0.420  0.0387 -0.3597 -0.2708
 2873TIP3    H130178   4.736   2.683   0.478 -0.8933 -2.3728 -0.2981
 2873TIP3    H230179   4.885   2.654   0.475 -0.6472 -1.2870  0.7457
 2874TIP3   OH230180   3.038   4.937   1.453  0.0020  0.1775 -0.5310
 2874TIP3    H130181   3.012   5.018   1.409  0.5233  0.1153 -0.9609
 2874TIP3    H230182   3.112   4.961   1.508  0.6131 -0.1438 -1.2000
 2875TIP3   OH230183   0.535   1.981   0.562  0.1223 -0.3776 -0.1805
 2875TIP3    H130184   0.562   2.012   0.649 -0.7704 -0.6135  0.1968
 2875TIP3    H230185   0.501   2.059   0.519  0.6215 -0.2483 -0.3413
 2876TIP3   OH230186   2.377   3.469   0.522  0.3850  0.0321  0.0748
 2876TIP3    H130187   2.352   3.379   0.498  1.8997 -1.1139  2.4519
 2876TIP3    H230188   2.295   3.511   0.547 -0.7651  0.2541 -3.4808
 2877TIP3   OH230189   0.210   1.057   6.451 -0.2420  0.0368  0.4387
 2877TIP3    H130190   0.231   1.148   6.427 -1.3833 -0.4226 -2.7949
 2877TIP3    H230191   0.294   1.012   6.450  0.1138  0.6829  0.0161
 2878TIP3   OH230192   0.362   6.002   2.491 -0.0225  0.0637 -0.1478
 2878TIP3    H130193   0.429   5.992   2.559 -1.2808 -0.1368  1.1228
 2878TIP3    H230194   0.347   5.912   2.460 -1.2322 -0.2259  1.1543
 2879TIP3   OH230195   0.120   4.378   1.270  0.2054 -0.4689  0.2263
 2879TIP3    H130196   0.167   4.358   1.189 -0.5652 -0.1701 -0.3066
 2879TIP3    H230197   0.028   4.363   1.249 -0.1013  0.5497  0.7531
 2880TIP3   OH230198   1.337   3.532   0.182  0.2220  0.6675 -0.0180
 2880TIP3    H130199   1.415   3.509   0.234 -0.3903 -2.3922 -0.2607
 2880TIP3    H230200   1.368   3.536   0.092  0.7828  3.4343  0.2182
 2881TIP3   OH230201   2.763   4.714   0.852  0.0527 -0.2515  0.5465
 2881TIP3    H130202   2.707   4.768   0.908  0.2563  1.9978 -1.2845
 2881TIP3    H230203   2.848   4.714   0.896 -0.1907  0.1569  1.0167
 2882TIP3   OH230204   0.339   3.674   1.837  0.3004  0.7441 -0.5349
 2882TIP3    H130205   0.270   3.683   1.903 -0.2425 -0.4029 -0.9266
 2882TIP3    H230206   0.420   3.668   1.888 -0.1701 -0.7795  0.0927
 2883TIP3   OH230207   5.133   2.641   0.377  0.4229  0.2880  0.5193
 2883TIP3    H130208   5.089   2.725   0.364  0.7190  0.3341 -0.2829
 2883TIP3    H230209   5.081   2.578   0.327  0.4775  0.0846  0.7170
 2884TIP3   OH230210   1.663   3.801   1.450  0.5291  0.0711  0.3495
 2884TIP3    H130211   1.597   3.830   1.513 -0.7622 -0.7906 -0.5576
 2884TIP3    H230212   1.731   3.868   1.455 -0.5133  1.1249  1.1578
 2885TIP3   OH230213   3.735   4.731   8.113  0.3571  0.0629  0.0112
 2885TIP3    H130214   3.730   4.636   8.127 -0.8236  0.1781  0.4756
 2885TIP3    H230215   3.828   4.751   8.123  0.5709 -0.9855  0.3137
 2886TIP3   OH230216   2.496   2.394   0.554 -0.0319 -0.2660  0.2802
 2886TIP3    H130217   2.555   2.330   0.515  0.5669  0.3575  0.1308
 2886TIP3    H230218   2.538   2.418   0.637  0.2922  0.6900 -0.1445
 2887TIP3   OH230219   6.585   2.887   1.262  0.4488  0.2838 -0.0045
 2887TIP3    H130220   6.615   2.865   1.350  0.4552 -1.5739 -0.4304
 2887TIP3    H230221   6.666   2.897   1.211  0.4865 -2.3465 -0.6013
 2888TIP3   OH230222   3.990   3.042   7.433  0.8356 -0.6369  0.2089
 2888TIP3    H130223   4.078   3.007   7.420  1.6158  0.4860  2.1288
 2888TIP3    H230224   3.948   2.979   7.492  0.8519 -0.4073  0.4637
 2889TIP3   OH230225   2.159   5.120   0.811  0.3428 -0.0825 -0.0585
 2889TIP3    H130226   2.093   5.109   0.743  1.4697 -2.4751 -0.8981
 2889TIP3    H230227   2.112   5.110   0.894 -0.7328  0.9175 -0.5341
 2890TIP3   OH230228   0.501   4.536   8.180  0.3009 -0.1276 -0.1733
 2890TIP3    H130229   0.506   4.510   8.088 -1.1518  2.2104 -1.0035
 2890TIP3    H230230   0.522   4.456   8.228  3.4658 -0.8871 -2.4719
 2891TIP3   OH230231   4.937   6.649   0.128  0.0020 -0.0927 -0.9962
 2891TIP3    H130232   5.010   6.589   0.138 -0.4501 -0.6714 -1.1382
 2891TIP3    H230233   4.859   6.593   0.129 -0.6329  0.7053  1.5932
 2892TIP3   OH230234   1.054   3.100   7.704  0.3030  0.4645  0.0193
 2892TIP3    H130235   0.987   3.148   7.753 -0.2699 -0.0480 -0.2423
 2892TIP3    H230236   1.018   3.011   7.697  1.3203 -0.0015  0.4645
 2893TIP3   OH230237   6.620   0.071   6.811  0.1163  0.5119  0.0713
 2893TIP3    H130238   6.618   0.130   6.886  1.4659  0.3395  0.2802
 2893TIP3    H230239   6.713   0.068   6.786  0.0517 -1.2827 -0.1072
 2894TIP3   OH230240   6.797   0.122   0.578 -0.3603  0.8634 -0.1928
 2894TIP3    H130241   6.709   0.130   0.614 -0.0939 -0.3027  0.7535
 2894TIP3    H230242   6.847   0.191   0.622 -0.7092  1.3036 -0.4792
 2895TIP3   OH230243   1.413   1.709   8.451  0.2971  0.4302  0.1650
 2895TIP3    H130244   1.326   1.686   8.483  1.5030 -3.3657  1.3184
 2895TIP3    H230245   1.399   1.784   8.394 -3.4482  1.0263  1.5993
 2896TIP3   OH230246   0.309   4.196   7.353  0.3079  0.1132  0.3047
 2896TIP3    H130247   0.402   4.174   7.350  0.3700 -0.4391  3.3333
 2896TIP3    H230248   0.302   4.261   7.422 -1.4993  0.6271 -0.3146
 2897TIP3   OH230249   2.774   5.524   8.353  0.1360 -0.0090 -0.1032
 2897TIP3    H130250   2.818   5.585   8.412  0.6661  0.5681 -1.0724
 2897TIP3    H230251   2.801   5.551   8.266  0.3916 -1.6429 -0.5618
 2898TIP3   OH230252   4.771   5.077   8.184  0.0332 -0.4171  0.1298
 2898TIP3    H130253   4.768   4.990   8.222  2.5081  0.4157  2.5212
 2898TIP3    H230254   4.702   5.126   8.230 -1.2095 -0.9696 -1.0616
 2899TIP3   OH230255   3.192   4.442   0.186 -0.1962 -0.0408  0.1139
 2899TIP3    H130256   3.108   4.448   0.231  0.2023 -1.0174  1.0268
 2899TIP3    H230257   3.184   4.362   0.133  1.3386 -2.2186  2.8962
 2900TIP3   OH230258   1.863   5.351   7.899 -0.0415  0.8417  0.6313
 2900TIP3    H130259   1.901   5.392   7.821 -0.1077  2.1069  1.2433
 2900TIP3    H230260   1.902   5.264   7.902 -0.8832  0.3143 -1.4473
 2901TIP3   OH230261   6.452   0.904   0.046  0.0043 -0.1177  0.3782
 2901TIP3    H130262   6.536   0.950   0.042 -0.2664  0.7020  2.7317
 2901TIP3    H230263   6.423   0.899  -0.045  2.1826  0.3375 -0.3992
 2902TIP3   OH230264   4.741   4.255   0.207 -0.6809  0.0428 -0.2937
 2902TIP3    H130265   4.807   4.297   0.262 -2.2962 -1.3377  2.9699
 2902TIP3    H230266   4.760   4.161   0.216 -0.8909 -0.2412 -2.3722
 2903TIP3   OH230267   0.136   2.249   0.416  0.4219  0.3766 -0.6481
 2903TIP3    H130268   0.119   2.272   0.507  1.6085 -1.6879  0.1516
 2903TIP3    H230269   0.050   2.258   0.373 -1.5330 -3.5674  1.8360
 2904TIP3   OH230270   2.615   6.195   1.618 -0.0943  0.8198 -0.4557
 2904TIP3    H130271   2.545   6.260   1.623  0.2190  1.1109  0.2983
 2904TIP3    H230272   2.609   6.145   1.699  0.5891  0.8761 -0.3592
 2905TIP3   OH230273   3.149   6.168   1.328  0.0188 -0.5766 -0.5001
 2905TIP3    H130274   3.187   6.246   1.368 -2.0412 -0.3516  1.2041
 2905TIP3    H230275   3.142   6.105   1.400 -0.5719 -1.4673 -1.3087
 2906TIP3   OH230276   2.337   3.598   0.113 -0.0001  0.3762  0.2615
 2906TIP3    H130277   2.430   3.595   0.092 -0.0581 -1.2181  0.0868
 2906TIP3    H230278   2.316   3.691   0.119  1.4203  0.7645 -0.4749
 2907TIP3   OH230279   0.593   1.636   0.894  0.1138  0.0325 -0.4296
 2907TIP3    H130280   0.665   1.649   0.832  1.1007  1.6831  0.9596
 2907TIP3    H230281   0.519   1.684   0.856 -0.7655 -2.6627 -2.4734
 2908TIP3   OH230282   2.131   4.015   7.846 -0.1707  0.4186  0.0902
 2908TIP3    H130283   2.135   4.061   7.762  0.1975 -0.9945 -0.6969
 2908TIP3    H230284   2.190   4.064   7.903  1.1743  0.2282 -1.0818
 2909TIP3   OH230285   2.593   6.713   8.081 -0.0714 -0.3394  0.0160
 2909TIP3    H130286   2.586   6.619   8.100 -0.7967 -0.2305  0.2971
 2909TIP3    H230287   2.686   6.727   8.065  0.0693 -1.0732  0.1629
 2910TIP3   OH230288   5.475   3.556   6.434 -0.1688 -0.1387 -0.2449
 2910TIP3    H130289   5.493   3.638   6.388  0.1085 -0.8039 -1.3557
 2910TIP3    H230290   5.425   3.504   6.371  0.3602 -1.1347  0.1517
 2911TIP3   OH230291   0.091   2.564   8.356 -0.5966 -0.1620 -0.3222
 2911TIP3    H130292   0.079   2.552   8.262 -1.1348 -0.1786 -0.2555
 2911TIP3    H230293   0.007   2.538   8.394  0.0558 -1.4442  0.2832
 2912TIP3   OH230294   5.297   6.799   8.463  0.0956  0.0069 -0.6127
 2912TIP3    H130295   5.287   6.841   8.378  1.9596  0.7428 -0.5163
 2912TIP3    H230296   5.349   6.721   8.446  0.2712  0.0228 -0.1690
 2913TIP3   OH230297   4.440   6.310   6.867  0.0598 -0.2843 -0.6355
 2913TIP3    H130298   4.455   6.304   6.773 -1.8365  0.9972 -1.0870
 2913TIP3    H230299   4.353   6.272   6.880  0.0848  0.0072  0.5232
 2914TIP3   OH230300   6.404   6.679   7.714 -0.2045  0.4921 -0.3999
 2914TIP3    H130301   6.308   6.686   7.709 -0.1241  0.7619 -1.9167
 2914TIP3    H230302   6.420   6.634   7.797 -1.5469  2.4761  1.0384
 2915TIP3   OH230303   0.919   2.517   8.167  0.4355 -0.3480  0.0630
 2915TIP3    H130304   0.974   2.493   8.092 -0.7857  0.8252 -1.2841
 2915TIP3    H230305   0.970   2.493   8.244  1.9957 -1.0432 -1.1480
 2916TIP3   OH230306   5.117   5.509   0.945  0.0824 -0.0442  0.1394
 2916TIP3    H130307   5.058   5.584   0.936  0.3200  0.1991  0.5347
 2916TIP3    H230308   5.203   5.544   0.919  0.1792 -0.2044  0.2462
 2917TIP3   OH230309   0.727   2.562   1.524 -0.0744  0.3999 -0.0520
 2917TIP3    H130310   0.771   2.647   1.515 -1.4896  1.3903  1.5570
 2917TIP3    H230311   0.785   2.511   1.581  1.2557 -0.1278 -1.8009
 2918TIP3   OH230312   1.556   4.437   7.569  0.4738  0.0497 -0.2138
 2918TIP3    H130313   1.535   4.485   7.649  0.0962 -0.5379  0.0481
 2918TIP3    H230314   1.595   4.502   7.512 -0.9651  0.9166 -0.2631
 2919TIP3   OH230315   4.116   3.803   1.410 -0.1497  0.3330 -0.2475
 2919TIP3    H130316   4.102   3.732   1.473 -1.3886  0.5053 -0.2952
 2919TIP3    H230317   4.199   3.843   1.436  0.2737 -0.7695  0.1299
 2920TIP3   OH230318   4.401   5.472   0.346  0.3992  0.9516  0.0106
 2920TIP3    H130319   4.432   5.455   0.257 -2.1479  0.6957 -0.9159
 2920TIP3    H230320   4.438   5.558   0.368  3.2416 -0.1301 -0.1755
 2921TIP3   OH230321   5.806   2.529   8.271  0.6647  0.6208 -0.1260
 2921TIP3    H130322   5.895   2.539   8.304  0.3563  0.4468  0.8072
 2921TIP3    H230323   5.777   2.445   8.306  0.7489 -0.2131 -1.9386
 2922TIP3   OH230324   2.449   1.330   0.820  0.1955  0.0852  0.3780
 2922TIP3    H130325   2.485   1.241   0.818 -0.9925 -0.4270  1.1692
 2922TIP3    H230326   2.432   1.348   0.912  3.2491  2.3563  0.6754
 2923TIP3   OH230327   0.613   1.717   2.554  0.2265  0.4023 -0.1105
 2923TIP3    H130328   0.585   1.627   2.536  1.2730  0.0730 -0.1335
 2923TIP3    H230329   0.693   1.708   2.605  0.8154  1.3173 -0.8366
 2924TIP3   OH230330   6.166   3.093   7.534  0.2723 -0.5925 -0.3951
 2924TIP3    H130331   6.125   3.127   7.613  1.7619 -1.5864  0.8506
 2924TIP3    H230332   6.161   3.165   7.471 -0.0213  0.5646  0.9205
 2925TIP3   OH230333   2.399   6.161   2.498  0.7026  0.0343 -0.6040
 2925TIP3    H130334   2.393   6.154   2.402  2.3693 -1.5953 -0.6477
 2925TIP3    H230335   2.395   6.255   2.515  1.0386  0.4039 -2.3493
 2926TIP3   OH230336   1.080   1.089   2.344  0.3469  0.1939  0.8017
 2926TIP3    H130337   1.071   1.039   2.425  3.6620  1.8486  2.3719
 2926TIP3    H230338   1.172   1.080   2.320 -0.0253  1.6796 -1.5232
 2927TIP3   OH230339   6.357   6.820   2.044  0.3012 -0.2621  0.3590
 2927TIP3    H130340   6.421   6.752   2.065  1.1142 -0.2282 -1.7420
 2927TIP3    H230341   6.396   6.901   2.077  0.5301 -0.4753  0.6124
 2928TIP3   OH230342   3.304   3.943   0.225  0.1706 -0.0044  0.4301
 2928TIP3    H130343   3.326   3.893   0.146 -0.4105 -1.2092  1.0129
 2928TIP3    H230344   3.378   3.928   0.284  0.2174  0.2097  0.4249
 2929TIP3   OH230345   2.387   1.478   1.466 -0.3014 -0.2122  0.1290
 2929TIP3    H130346   2.374   1.546   1.400 -0.4172 -0.2680  0.0937
 2929TIP3    H230347   2.438   1.521   1.535 -0.2214 -0.1401  0.0256
 2930TIP3   OH230348   1.972   1.395   6.758 -0.0438  0.3202 -0.5254
 2930TIP3    H130349   2.066   1.390   6.741 -0.4565 -0.8622 -2.7691
 2930TIP3    H230350   1.951   1.312   6.802 -0.4977 -0.8747 -2.8623
 2931TIP3   OH230351   5.228   3.142   6.971 -0.4639 -0.7219  0.5427
 2931TIP3    H130352   5.245   3.104   7.057 -1.0225 -0.8142  0.6135
 2931TIP3    H230353   5.259   3.232   6.977 -0.4962 -0.7316  0.8376
 2932TIP3   OH230354   4.127   1.102   6.654 -0.0652 -0.0636 -0.0829
 2932TIP3    H130355   4.155   1.182   6.610  1.3024  0.1030  1.0147
 2932TIP3    H230356   4.175   1.032   6.608 -1.2466 -0.2904 -1.0309
 2933TIP3   OH230357   1.418   3.031   0.736 -0.0917 -0.1346 -0.1405
 2933TIP3    H130358   1.464   2.947   0.744  0.4866  0.0991 -0.9553
 2933TIP3    H230359   1.428   3.072   0.822  3.6369  1.1258 -0.9898
 2934TIP3   OH230360   5.796   3.217   8.583 -0.9950 -0.8352  0.6473
 2934TIP3    H130361   5.863   3.279   8.611 -2.2467  1.3132 -0.7942
 2934TIP3    H230362   5.757   3.185   8.664 -0.2502  0.2201  1.4467
 2935TIP3   OH230363   4.202   2.608   1.416  0.1943  0.7288 -0.1201
 2935TIP3    H130364   4.212   2.563   1.499 -1.0392 -0.6726 -0.6887
 2935TIP3    H230365   4.151   2.548   1.361  1.7935  1.1743 -2.2324
 2936TIP3   OH230366   0.034   4.116   0.812 -0.0139  0.0945 -0.1207
 2936TIP3    H130367   0.021   4.211   0.809 -0.3524  0.0397 -1.5648
 2936TIP3    H230368   0.059   4.094   0.722 -0.1635 -1.2134  0.1499
 2937TIP3   OH230369   0.435   4.474   7.880  0.2233  0.5502  0.3076
 2937TIP3    H130370   0.396   4.518   7.805 -1.3680 -1.0114  0.1322
 2937TIP3    H230371   0.529   4.474   7.862 -0.1730 -0.7214 -2.2726
 2938TIP3   OH230372   5.705   1.323   1.189  0.0819 -0.0597 -0.1031
 2938TIP3    H130373   5.620   1.306   1.228 -0.1549 -2.1577 -1.4090
 2938TIP3    H230374   5.706   1.418   1.174 -1.4500  0.1828  1.1498
 2939TIP3   OH230375   0.592   2.759   7.948 -0.2010  0.0137 -0.2553
 2939TIP3    H130376   0.508   2.801   7.966 -0.2945  0.0229 -0.7107
 2939TIP3    H230377   0.624   2.732   8.034 -0.3991  0.5192 -0.0203
 2940TIP3   OH230378   1.349   2.683   8.168  0.4146  0.2577 -0.0469
 2940TIP3    H130379   1.371   2.743   8.239 -1.0740  1.4395 -0.5372
 2940TIP3    H230380   1.327   2.739   8.094 -0.7483 -0.8869 -0.6192
 2941TIP3   OH230381   5.029   0.688   1.020 -0.5923  0.1012  0.5211
 2941TIP3    H130382   5.029   0.687   1.116 -0.4643  0.2636  0.5246
 2941TIP3    H230383   5.094   0.622   0.996  0.4562  1.0844  0.5730
 2942TIP3   OH230384   3.944   5.167   7.550  0.4095 -0.5359 -0.1629
 2942TIP3    H130385   4.018   5.135   7.499  1.1559  0.4277  0.2927
 2942TIP3    H230386   3.975   5.168   7.640 -0.1641 -0.1311  0.0370
 2943TIP3   OH230387   5.924   2.118   0.400  0.3655  0.2601 -0.0653
 2943TIP3    H130388   5.901   2.078   0.316 -0.0250  0.8719 -0.2624
 2943TIP3    H230389   5.851   2.177   0.419  0.7972  0.6728  0.3409
 2944TIP3   OH230390   3.642   1.962   6.657 -0.6068 -0.0853  0.3445
 2944TIP3    H130391   3.636   1.976   6.751  0.5510  0.1169  0.3990
 2944TIP3    H230392   3.667   1.870   6.648 -1.0371 -0.1919  0.2214
 2945TIP3   OH230393   3.802   5.025   7.090  0.2599 -0.0705  0.2837
 2945TIP3    H130394   3.866   4.975   7.140  2.9676  0.2796 -2.5398
 2945TIP3    H230395   3.827   5.116   7.103  0.4767  0.0620 -0.9756
 2946TIP3   OH230396   1.674   5.152   2.220  0.5121  0.0932  0.1224
 2946TIP3    H130397   1.636   5.088   2.281 -0.6674  0.5111 -0.1392
 2946TIP3    H230398   1.767   5.129   2.216  0.0573 -1.9386 -0.3412
 2947TIP3   OH230399   3.591   1.960   1.762 -0.2241  0.5159  0.1175
 2947TIP3    H130400   3.598   1.866   1.780 -0.7570  0.3750 -0.3602
 2947TIP3    H230401   3.617   2.003   1.843  0.9795 -0.0235  0.0371
 2948TIP3   OH230402   0.670   2.423   1.078 -0.4081  0.3764 -0.0603
 2948TIP3    H130403   0.751   2.407   1.127  0.6410 -0.4937 -1.9208
 2948TIP3    H230404   0.683   2.508   1.037 -0.7042  0.5230  0.1547
 2949TIP3   OH230405   6.449   4.948   1.300  0.0627  0.3104 -0.2976
 2949TIP3    H130406   6.418   4.903   1.378  0.0082 -0.1756 -0.5923
 2949TIP3    H230407   6.452   4.879   1.233  0.4015  0.6568 -0.6398
 2950TIP3   OH230408   5.480   6.018   6.581  0.4524  0.3325 -0.2862
 2950TIP3    H130409   5.522   5.951   6.635  1.1960  1.1248  0.1595
 2950TIP3    H230410   5.535   6.096   6.594 -1.5303  1.6383  0.9214
 2951TIP3   OH230411   4.994   5.524   6.478 -0.6047 -0.7734  0.0613
 2951TIP3    H130412   5.013   5.550   6.568  0.5938  1.4711 -0.7590
 2951TIP3    H230413   5.069   5.557   6.428 -0.6316 -3.0523 -1.6188
 2952TIP3   OH230414   3.025   4.267   1.875 -0.4945  0.3646  0.4707
 2952TIP3    H130415   3.051   4.228   1.958 -0.2632 -1.5583 -0.4575
 2952TIP3    H230416   3.088   4.337   1.860  1.3014 -1.1714  0.5300
 2953TIP3   OH230417   2.415   2.653   7.554  0.6640 -0.2904 -0.1865
 2953TIP3    H130418   2.451   2.571   7.520  0.8837 -1.0568  1.7620
 2953TIP3    H230419   2.450   2.660   7.642  0.2974  1.7156 -0.1541
 2954TIP3   OH230420   6.712   3.735   7.772  1.1428 -0.0015 -0.1468
 2954TIP3    H130421   6.654   3.729   7.695  0.4986 -1.4371  0.4075
 2954TIP3    H230422   6.786   3.788   7.742 -0.2974  1.6497 -0.9746
 2955TIP3   OH230423   5.545   2.967   6.414  0.0838  0.3045  0.2357
 2955TIP3    H130424   5.519   2.936   6.327 -2.4388 -1.8229  1.5986
 2955TIP3    H230425   5.507   3.055   6.420  1.3532  1.0162 -1.1664
 2956TIP3   OH230426   0.637   4.109   8.503 -0.1484  0.1686  0.2216
 2956TIP3    H130427   0.582   4.097   8.581  0.6924  0.1231  0.8207
 2956TIP3    H230428   0.725   4.119   8.538  0.1575  0.7656 -0.7000
 2957TIP3   OH230429   0.216   4.038   7.784 -0.2295  0.3866  0.1460
 2957TIP3    H130430   0.292   4.090   7.760 -1.1243  0.6332 -2.3713
 2957TIP3    H230431   0.239   4.000   7.869  3.2103 -0.5670 -1.0483
 2958TIP3   OH230432   4.765   2.174   1.423 -0.1008 -0.4523  0.6184
 2958TIP3    H130433   4.751   2.185   1.329  0.4124 -1.9984  0.3272
 2958TIP3    H230434   4.689   2.124   1.453 -0.5765  0.5690  1.1663
 2959TIP3   OH230435   1.885   3.938   0.723  0.0070  0.4937 -0.2898
 2959TIP3    H130436   1.974   3.955   0.754  0.4975  1.3303 -2.0384
 2959TIP3    H230437   1.856   3.863   0.775  2.7724 -1.6239 -1.4774
 2960TIP3   OH230438   0.310   3.024   1.623  0.7396 -0.0769 -1.2588
 2960TIP3    H130439   0.303   3.038   1.718 -1.5098 -1.4983 -1.1338
 2960TIP3    H230440   0.330   2.931   1.614  1.8182  0.2295 -2.1905
 2961TIP3   OH230441   1.760   3.030   2.023  0.0415 -0.4468  0.4737
 2961TIP3    H130442   1.671   3.063   2.038  0.7436  0.9085  1.9492
 2961TIP3    H230443   1.813   3.109   2.016  1.2618 -1.2486  0.4217
 2962TIP3   OH230444   2.316   6.034   7.511 -0.2643 -0.1555  0.4602
 2962TIP3    H130445   2.331   6.076   7.426  0.6059 -1.7322 -0.2040
 2962TIP3    H230446   2.377   6.078   7.570 -0.6488  0.7371  0.2142
 2963TIP3   OH230447   3.712   1.726   6.714  0.2118 -0.1623  0.2258
 2963TIP3    H130448   3.741   1.666   6.782 -0.3839 -1.7279 -0.8552
 2963TIP3    H230449   3.648   1.676   6.664 -0.4546  1.4542 -0.5999
 2964TIP3   OH230450   5.763   4.675   8.076 -0.5107 -0.3035 -0.2860
 2964TIP3    H130451   5.683   4.709   8.115 -0.4912  2.0465 -2.0488
 2964TIP3    H230452   5.833   4.723   8.120 -0.2108 -0.9057 -0.1097
 2965TIP3   OH230453   5.523   5.179   6.716 -0.4196 -0.4678  0.2202
 2965TIP3    H130454   5.489   5.124   6.646 -0.0788 -0.5666  0.1283
 2965TIP3    H230455   5.603   5.135   6.745 -0.0013  0.1070 -0.0280
 2966TIP3   OH230456   6.888   0.204   8.134 -0.2225  0.5172 -0.5696
 2966TIP3    H130457   6.811   0.156   8.102 -0.6530 -0.7792  2.1435
 2966TIP3    H230458   6.867   0.296   8.118  0.1060  0.0236 -4.8060
 2967TIP3   OH230459   4.330   4.141   8.481  0.4577  0.1288 -0.1505
 2967TIP3    H130460   4.364   4.080   8.546 -2.9205 -0.2220  1.5196
 2967TIP3    H230461   4.323   4.090   8.400  1.3726 -0.4965  0.1570
 2968TIP3   OH230462   5.527   1.172   0.036 -0.6659  0.4690  0.1787
 2968TIP3    H130463   5.481   1.225  -0.029 -1.4523  0.8448  1.0161
 2968TIP3    H230464   5.458   1.118   0.076 -0.3700  0.9564  1.3799
 2969TIP3   OH230465   4.156   5.635   6.920  0.4537 -0.6361  0.2076
 2969TIP3    H130466   4.177   5.547   6.886 -0.4305 -0.8792  0.2671
 2969TIP3    H230467   4.232   5.659   6.972  0.5612 -1.5306  0.4877
 2970TIP3   OH230468   5.207   6.880   1.344 -0.0834 -0.1380 -0.5084
 2970TIP3    H130469   5.294   6.873   1.305 -0.3280 -1.4037 -0.8587
 2970TIP3    H230470   5.198   6.973   1.366  1.9853 -0.2362  1.0187
 2971TIP3   OH230471   3.276   6.332   1.912  0.2380 -0.1232 -0.0911
 2971TIP3    H130472   3.287   6.269   1.841 -0.1672  0.9473 -1.1522
 2971TIP3    H230473   3.340   6.401   1.893 -0.2611  0.4534  0.2564
 2972TIP3   OH230474   1.496   3.300   1.813  0.1356 -0.4901  0.1832
 2972TIP3    H130475   1.415   3.316   1.764  1.5738 -0.5242 -2.3748
 2972TIP3    H230476   1.566   3.319   1.751  2.0996 -3.2931  1.3290
 2973TIP3   OH230477   5.467   3.203   7.459  0.0732  0.1682 -0.2765
 2973TIP3    H130478   5.513   3.213   7.542  0.5908  0.2894 -0.5699
 2973TIP3    H230479   5.423   3.286   7.445  0.4890  0.3684 -0.4176
 2974TIP3   OH230480   0.679   6.336   8.395  0.3312 -0.4581 -0.4073
 2974TIP3    H130481   0.605   6.281   8.370  1.7243 -2.7126  0.1614
 2974TIP3    H230482   0.736   6.337   8.318  0.5558 -0.2167 -0.2418
 2975TIP3   OH230483   4.394   3.247   1.894  0.1975  0.6284  0.6408
 2975TIP3    H130484   4.354   3.256   1.981  2.6474  0.8846  1.8522
 2975TIP3    H230485   4.486   3.272   1.908  0.5301  1.3171 -2.1883
 2976TIP3   OH230486   0.109   4.668   8.592  0.0960 -0.0678 -0.0837
 2976TIP3    H130487   0.193   4.665   8.546 -0.5618  0.7718 -1.4295
 2976TIP3    H230488   0.044   4.680   8.522 -1.1830 -1.0339  0.8816
 2977TIP3   OH230489   0.031   1.639   0.024 -0.7682  0.2360  0.4324
 2977TIP3    H130490  -0.051   1.596  -0.002 -0.1141 -1.6981  1.4326
 2977TIP3    H230491   0.080   1.648  -0.058 -0.4359 -2.0504  0.3163
 2978TIP3   OH230492   2.846   0.100   7.797  0.6935  0.7489  0.1459
 2978TIP3    H130493   2.762   0.091   7.752  1.7359 -3.0483 -1.3925
 2978TIP3    H230494   2.907   0.131   7.730  1.2626 -0.2971  0.1521
 2979TIP3   OH230495   0.347   0.406   2.474 -0.3422 -0.1069  0.0839
 2979TIP3    H130496   0.420   0.404   2.537  0.2213  1.1424 -0.4867
 2979TIP3    H230497   0.368   0.338   2.410 -0.4283 -0.7276  0.6996
 2980TIP3   OH230498   3.408   5.592   6.152  0.0422 -0.5340 -0.4337
 2980TIP3    H130499   3.468   5.591   6.078 -0.2544  2.2600 -0.7970
 2980TIP3    H230500   3.456   5.546   6.222  1.9176  0.1619 -1.2036
 2981TIP3   OH230501   0.815   0.525   0.285 -0.1317 -0.1144 -0.1395
 2981TIP3    H130502   0.874   0.580   0.234  0.6167 -1.1314 -0.3958
 2981TIP3    H230503   0.853   0.437   0.280 -1.7008 -0.8185 -0.3915
 2982TIP3   OH230504   1.166   6.146   0.260 -0.5251  0.1843 -0.3169
 2982TIP3    H130505   1.099   6.202   0.221 -0.0154  1.1879  0.1861
 2982TIP3    H230506   1.197   6.092   0.188 -0.1739  1.4260 -1.1395
 2983TIP3   OH230507   2.075   3.979   8.419 -0.6772  0.1086  0.4376
 2983TIP3    H130508   2.065   3.963   8.325 -1.1154  0.0719  0.4896
 2983TIP3    H230509   1.991   3.953   8.457  0.1808 -1.9302  1.1040
 2984TIP3   OH230510   3.698   3.492   1.022  0.2457 -0.2868 -0.1596
 2984TIP3    H130511   3.761   3.419   1.020  1.2743  0.5188  0.9614
 2984TIP3    H230512   3.644   3.480   0.944  1.1408 -1.5946 -0.6088
 2985TIP3   OH230513   2.237   3.404   8.583 -0.2699 -0.1718 -0.0211
 2985TIP3    H130514   2.273   3.425   8.497  0.3388 -2.0883 -0.2840
 2985TIP3    H230515   2.285   3.462   8.643 -1.0736  1.5639 -0.9680
 2986TIP3   OH230516   0.040   1.310   7.872 -0.4006 -0.1908 -0.8853
 2986TIP3    H130517  -0.017   1.264   7.933 -0.9385 -1.7676 -2.4935
 2986TIP3    H230518   0.009   1.400   7.874 -1.1830 -0.4588  0.2518
 2987TIP3   OH230519   4.621   3.559   0.271 -0.4316  0.0474  0.5048
 2987TIP3    H130520   4.609   3.464   0.276  0.0038  0.0505  1.8291
 2987TIP3    H230521   4.707   3.574   0.308 -0.5059  0.9698  0.3081
 2988TIP3   OH230522   5.437   3.225   7.762 -0.2333 -0.1424 -0.0803
 2988TIP3    H130523   5.508   3.160   7.763  1.0910  1.2306 -0.6513
 2988TIP3    H230524   5.455   3.282   7.836 -0.6661  0.3038 -0.3100
 2989TIP3   OH230525   5.088   0.787   1.352  0.2887 -0.6034  0.3787
 2989TIP3    H130526   5.145   0.788   1.429  0.6112 -0.0103  0.1391
 2989TIP3    H230527   5.029   0.714   1.367  0.5207 -0.6574  1.0677
 2990TIP3   OH230528   5.596   4.467   1.109  0.1056  0.4247 -0.1956
 2990TIP3    H130529   5.518   4.420   1.079  0.1574  0.5463 -0.5265
 2990TIP3    H230530   5.572   4.500   1.196  0.3965 -1.0137  0.4689
 2991TIP3   OH230531   1.887   5.034   1.382  0.1833  0.2722 -0.2035
 2991TIP3    H130532   1.811   5.069   1.334 -0.4906 -0.4388  0.3085
 2991TIP3    H230533   1.854   4.952   1.420  1.4961 -0.5575 -0.7887
 2992TIP3   OH230534   4.337   6.184   8.634 -0.0492  0.0546 -0.1702
 2992TIP3    H130535   4.365   6.206   8.545  0.2018  1.8049  0.2956
 2992TIP3    H230536   4.302   6.095   8.627  0.8798 -0.2304 -1.8110
 2993TIP3   OH230537   1.885   2.731   7.470 -0.3002  0.8883 -0.7571
 2993TIP3    H130538   1.979   2.715   7.458 -0.3968  1.1902 -1.9892
 2993TIP3    H230539   1.877   2.826   7.470 -0.6214  0.8617 -0.7262
 2994TIP3   OH230540   5.670   2.196   6.822  0.1865  0.1969  0.1293
 2994TIP3    H130541   5.680   2.288   6.847 -0.6234  0.9867 -2.2188
 2994TIP3    H230542   5.587   2.192   6.776  0.1996 -1.7468  0.1911
 2995TIP3   OH230543   1.728   2.310   7.774  0.2244  0.4596  0.4526
 2995TIP3    H130544   1.678   2.271   7.845  1.8370 -1.1219  0.8053
 2995TIP3    H230545   1.779   2.379   7.816  1.0991 -0.4051  0.8603
 2996TIP3   OH230546   1.629   3.260   0.522  0.1517  0.7460  0.2815
 2996TIP3    H130547   1.642   3.179   0.571  1.0434  0.8443  0.2138
 2996TIP3    H230548   1.689   3.322   0.562 -0.5558  1.3962  0.3587
 2997TIP3   OH230549   2.265   4.604   0.465 -0.2532  0.1202  0.1060
 2997TIP3    H130550   2.204   4.676   0.479  0.2890  0.4383  0.9405
 2997TIP3    H230551   2.210   4.530   0.440 -0.7802  0.9399 -1.2968
 2998TIP3   OH230552   5.364   0.438   0.081 -0.3872  0.2955  0.2313
 2998TIP3    H130553   5.427   0.428   0.010  0.0746 -0.6505  0.7543
 2998TIP3    H230554   5.415   0.473   0.154 -0.4195 -0.5737  0.6897
 2999TIP3   OH230555   6.262   1.162   1.397 -0.3971  0.0528  0.3851
 2999TIP3    H130556   6.345   1.208   1.385 -0.0501 -0.7160 -0.2698
 2999TIP3    H230557   6.226   1.198   1.478  0.5010  0.5083  0.5952
 3000TIP3   OH230558   6.343   2.627   1.605 -0.0288  0.0987  0.5736
 3000TIP3    H130559   6.264   2.574   1.618 -2.1166  2.6592 -0.8140
 3000TIP3    H230560   6.365   2.657   1.693 -0.9658 -0.1610  0.9148
 3001TIP3   OH230561   2.643   5.245   7.754  0.2824 -0.5303 -0.3293
 3001TIP3    H130562   2.637   5.337   7.727  0.7446 -0.5206 -0.4061
 3001TIP3    H230563   2.582   5.238   7.827 -1.2926 -0.6504 -1.5982
 3002TIP3   OH230564   5.678   3.966   0.257  0.1291  0.0727  0.0253
 3002TIP3    H130565   5.653   3.878   0.231 -0.6478  0.5722 -0.9869
 3002TIP3    H230566   5.771   3.960   0.280 -0.3379 -1.3785  1.7769
 3003TIP3   OH230567   2.274   5.185   1.557  0.2321 -0.4838  0.1594
 3003TIP3    H130568   2.354   5.231   1.532 -0.2407  0.9285  1.1430
 3003TIP3    H230569   2.204   5.237   1.517 -0.3391 -0.0733  1.6604
 3004TIP3   OH230570   4.638   0.023   8.185  0.5034 -0.0226  0.1485
 3004TIP3    H130571   4.674   0.105   8.151 -2.0404  0.5341 -1.4786
 3004TIP3    H230572   4.706  -0.042   8.168  1.3079  1.1864 -1.5092
 3005TIP3   OH230573   2.863   3.375   8.381 -0.4706 -1.1420  0.0735
 3005TIP3    H130574   2.879   3.342   8.469 -1.3567  0.3640  0.8529
 3005TIP3    H230575   2.902   3.310   8.323 -1.1100 -2.8988  1.5232
 3006TIP3   OH230576   5.037   0.941   7.153  0.6317 -0.0527 -0.3674
 3006TIP3    H130577   4.974   0.943   7.224 -0.0403  0.2776 -0.9602
 3006TIP3    H230578   5.050   1.033   7.129  0.8426 -0.1575 -0.6696
 3007TIP3   OH230579   3.138   3.997   0.887  0.1727 -0.1620  0.0948
 3007TIP3    H130580   3.176   4.082   0.865  0.7734 -0.3265  0.4617
 3007TIP3    H230581   3.203   3.933   0.856 -0.5089 -0.5193 -0.6550
 3008TIP3   OH230582   4.816   6.364   1.998  0.1630  0.4478  0.0547
 3008TIP3    H130583   4.848   6.273   1.999  2.4456  1.1461 -1.4369
 3008TIP3    H230584   4.721   6.356   1.997  0.3044 -1.9575 -1.0050
 3009TIP3   OH230585   4.003   5.573   8.377  0.7801  0.2457  0.0600
 3009TIP3    H130586   3.979   5.510   8.308  1.0525  1.5615 -1.2960
 3009TIP3    H230587   3.941   5.557   8.447  1.0540 -1.7550 -0.0853
 3010TIP3   OH230588   4.351   1.007   0.110  0.7632 -0.3209  0.1196
 3010TIP3    H130589   4.280   0.972   0.056  1.5493  2.5233 -3.0712
 3010TIP3    H230590   4.405   0.930   0.130 -1.1130 -1.9458 -0.6458
 3011TIP3   OH230591   1.084   5.827   7.987  0.7807  0.7699  0.3117
 3011TIP3    H130592   1.092   5.818   7.892  1.7742  0.6066  0.4030
 3011TIP3    H230593   1.020   5.898   7.999  0.0394  0.2519 -0.4646
 3012TIP3   OH230594   4.650   0.631   8.121 -0.4702  0.5835 -0.2450
 3012TIP3    H130595   4.728   0.672   8.084  0.6335 -2.1213 -1.2247
 3012TIP3    H230596   4.661   0.637   8.216  0.5195  0.9822 -0.3813
 3013TIP3   OH230597   1.230   6.426   0.630  0.4207  0.7318  0.1432
 3013TIP3    H130598   1.208   6.510   0.671 -1.8619 -0.1738  0.9617
 3013TIP3    H230599   1.189   6.360   0.687  0.4859 -0.8267 -1.5119
 3014TIP3   OH230600   1.260   6.534   7.843 -0.0232 -0.2481  0.5889
 3014TIP3    H130601   1.198   6.587   7.893  1.9340  1.6786  1.0992
 3014TIP3    H230602   1.280   6.461   7.901 -2.7060 -1.6866 -0.1028
 3015TIP3   OH230603   5.971   4.538   7.145 -0.4547  0.2886  0.1834
 3015TIP3    H130604   5.892   4.570   7.189 -0.7497  1.0611 -0.8549
 3015TIP3    H230605   5.950   4.544   7.052  0.5871 -0.1480 -0.0870
 3016TIP3   OH230606   4.636   4.480   8.654 -0.5464  0.3309  0.4588
 3016TIP3    H130607   4.601   4.566   8.679 -1.6893  0.1506 -0.4209
 3016TIP3    H230608   4.654   4.436   8.736 -0.4620  1.2123  0.9256
 3017TIP3   OH230609   0.493   6.845   0.353 -0.6417  0.0513  0.7807
 3017TIP3    H130610   0.529   6.823   0.439  1.0393 -1.1362 -0.1533
 3017TIP3    H230611   0.403   6.813   0.355 -0.3058 -0.8881  1.7757
 3018TIP3   OH230612   6.293   5.723   0.189 -0.3353 -0.7534 -0.3460
 3018TIP3    H130613   6.283   5.816   0.173  1.6112 -0.2468  0.9948
 3018TIP3    H230614   6.250   5.681   0.114 -0.4338  1.2103 -1.4611
 3019TIP3   OH230615   5.409   1.415   8.199  0.0529 -0.1972 -0.4169
 3019TIP3    H130616   5.355   1.381   8.128 -0.3519  0.2592 -0.3354
 3019TIP3    H230617   5.481   1.460   8.155  0.8272 -1.4978 -0.5237
 3020TIP3   OH230618   5.747   1.732   6.902 -0.0221 -0.1372 -0.0816
 3020TIP3    H130619   5.685   1.781   6.848  0.6081 -0.1636 -0.8399
 3020TIP3    H230620   5.831   1.742   6.858  0.4729 -0.3176  0.7979
 3021TIP3   OH230621   2.241   3.403   7.265 -0.7680  0.0992 -0.4508
 3021TIP3    H130622   2.237   3.329   7.325 -0.4373  2.0277  2.1412
 3021TIP3    H230623   2.334   3.409   7.239 -0.6571  0.0537 -0.0617
 3022TIP3   OH230624   3.809   4.217   1.436  0.1773 -0.0165  0.0067
 3022TIP3    H130625   3.805   4.125   1.408  0.1088  0.0805 -0.3050
 3022TIP3    H230626   3.900   4.242   1.424  0.7720 -0.7525  2.3924
 3023TIP3   OH230627   0.650   5.489   1.570 -0.2114  0.2921  0.1742
 3023TIP3    H130628   0.745   5.486   1.570 -0.2327 -0.9864  0.3789
 3023TIP3    H230629   0.623   5.398   1.558 -1.3991  0.4813  1.1971
 3024TIP3   OH230630   5.782   2.873   8.283 -0.4010 -0.2169  0.1244
 3024TIP3    H130631   5.822   2.813   8.219  0.2987 -0.2214  0.5632
 3024TIP3    H230632   5.824   2.957   8.266 -0.8054 -0.0272  0.0463
 3025TIP3   OH230633   1.706   5.988   0.748  0.0320  0.3713 -0.1697
 3025TIP3    H130634   1.645   5.932   0.795 -0.6909  2.2248  1.1908
 3025TIP3    H230635   1.661   6.009   0.666  0.5265 -1.3699 -0.9392
 3026TIP3   OH230636   0.982   5.642   8.150 -0.2677  0.3190 -0.6708
 3026TIP3    H130637   0.933   5.577   8.101  2.4036 -2.0315 -0.4992
 3026TIP3    H230638   1.030   5.692   8.083 -1.1681  1.1761 -0.7076
 3027TIP3   OH230639   5.541   0.684   7.409  0.3472  0.1188  0.3044
 3027TIP3    H130640   5.610   0.711   7.348  0.9841 -1.2782  0.3754
 3027TIP3    H230641   5.553   0.590   7.419 -3.5179 -0.8498 -2.1480
 3028TIP3   OH230642   4.638   0.839   1.855 -0.2705  0.0424  0.1660
 3028TIP3    H130643   4.606   0.924   1.885 -1.6112  0.0634 -1.1979
 3028TIP3    H230644   4.652   0.850   1.761 -0.0495 -1.1266  0.0467
 3029TIP3   OH230645   5.182   5.660   8.237  0.2735 -0.3255 -0.0982
 3029TIP3    H130646   5.120   5.731   8.252  0.5962 -0.2695  1.0302
 3029TIP3    H230647   5.182   5.648   8.142 -1.0211  0.0671 -0.1694
 3030TIP3   OH230648   2.688   0.745   8.352  0.7990  0.1250 -0.2891
 3030TIP3    H130649   2.702   0.828   8.307  0.4004 -0.2359 -1.0984
 3030TIP3    H230650   2.666   0.683   8.283  1.5737 -0.7790  0.2450
 3031TIP3   OH230651   3.889   6.308   7.248 -0.2822  0.2016 -0.0013
 3031TIP3    H130652   3.937   6.390   7.237 -0.4253  0.2785 -0.0597
 3031TIP3    H230653   3.937   6.261   7.315 -0.1676  0.3109 -0.0069
 3032TIP3   OH230654   3.370   4.000   5.810 -0.4801 -0.3164 -0.2482
 3032TIP3    H130655   3.388   4.063   5.879 -0.6377 -0.5463  0.0029
 3032TIP3    H230656   3.298   3.946   5.844  0.9951 -1.9714  0.4304
 3033TIP3   OH230657   4.351   0.478   0.275  0.5167 -0.1497 -0.5075
 3033TIP3    H130658   4.356   0.383   0.263 -0.2869 -0.2068 -0.4587
 3033TIP3    H230659   4.313   0.489   0.362 -0.1690  0.2060 -0.8493
 3034TIP3   OH230660   3.671   5.055   5.874 -0.1083  0.3162  0.2506
 3034TIP3    H130661   3.668   4.980   5.814  2.1259  0.1195  0.2985
 3034TIP3    H230662   3.650   5.018   5.959 -2.0929  0.3706 -0.1656
 3035TIP3   OH230663   6.066   1.964   1.540 -0.1122  0.7754 -0.0565
 3035TIP3    H130664   6.067   2.053   1.503  1.9871  0.8236  0.0339
 3035TIP3    H230665   6.072   1.906   1.464  3.0223  0.8534  0.0236
 3036TIP3   OH230666   2.200   3.776   8.061 -0.1190 -0.2276  0.5358
 3036TIP3    H130667   2.252   3.708   8.103  2.7663  0.5281 -1.4720
 3036TIP3    H230668   2.224   3.857   8.107  3.2153  0.6368 -2.3048
 3037TIP3   OH230669   4.635   2.186   0.881  0.2063  0.7246  0.0348
 3037TIP3    H130670   4.558   2.202   0.827  0.7210  0.3747 -0.8145
 3037TIP3    H230671   4.702   2.245   0.845  1.0360 -0.6690 -0.7690
 3038TIP3   OH230672   1.443   0.129   1.760 -0.6472  0.0440  0.7845
 3038TIP3    H130673   1.384   0.094   1.827  1.2520 -0.3318  2.3380
 3038TIP3    H230674   1.528   0.134   1.803  0.8405 -0.9035 -1.8230
 3039TIP3   OH230675   3.222   5.717   1.244  0.5708  0.6995  0.2206
 3039TIP3    H130676   3.298   5.749   1.195  0.6990 -0.6139 -0.4882
 3039TIP3    H230677   3.258   5.659   1.310  0.1748 -0.3419 -0.4513
 3040TIP3   OH230678   0.716   1.280   0.018  0.4609  0.5382 -0.2992
 3040TIP3    H130679   0.663   1.205   0.045 -0.2916  2.0476  2.8979
 3040TIP3    H230680   0.802   1.263   0.056  0.4014  1.0646  0.0850
 3041TIP3   OH230681   2.652   4.646   8.602  0.1572  0.3323 -0.8256
 3041TIP3    H130682   2.583   4.710   8.620 -1.4380 -1.4118 -0.4173
 3041TIP3    H230683   2.690   4.626   8.688  2.1987  2.2859 -1.1869
 3042TIP3   OH230684   3.116   5.605   6.425  0.8065  0.3070 -0.2892
 3042TIP3    H130685   3.145   5.563   6.506 -2.2316 -0.7899  0.3688
 3042TIP3    H230686   3.119   5.698   6.444 -1.3748  0.0621  1.8239
 3043TIP3   OH230687   6.334   5.955   2.136 -0.2969 -0.1463 -0.4320
 3043TIP3    H130688   6.327   5.979   2.044 -1.3502 -0.4011 -0.4334
 3043TIP3    H230689   6.329   6.038   2.183 -1.8815 -0.1661 -0.5259
 3044TIP3   OH230690   4.608   1.880   7.647 -0.3064 -0.1671 -0.1753
 3044TIP3    H130691   4.557   1.925   7.715 -2.0237 -0.2215 -1.3448
 3044TIP3    H230692   4.688   1.932   7.638  0.0111 -0.2209  1.9178
 3045TIP3   OH230693   4.352   2.298   7.977  0.3620  0.1566 -0.4742
 3045TIP3    H130694   4.361   2.390   8.003 -0.2982  0.4788 -1.3158
 3045TIP3    H230695   4.257   2.284   7.972  0.4481 -0.7082  0.0712
 3046TIP3   OH230696   0.094   2.260   8.019 -0.3255 -0.0740 -0.3778
 3046TIP3    H130697   0.071   2.167   8.017  0.0188 -0.1606 -0.2987
 3046TIP3    H230698   0.189   2.261   8.015 -0.3081  0.2604  0.1205
 3047TIP3   OH230699   1.981   1.734   7.450  0.3693 -0.2824 -0.3585
 3047TIP3    H130700   1.986   1.665   7.517 -0.5700 -0.0792 -0.0626
 3047TIP3    H230701   1.954   1.687   7.371  1.1471 -0.4705 -0.5184
 3048TIP3   OH230702   4.824   2.049   7.274  0.1632 -0.0646 -0.1060
 3048TIP3    H130703   4.740   2.009   7.253 -0.6343 -0.0487  2.7406
 3048TIP3    H230704   4.884   1.974   7.282 -0.2015 -0.3005  0.4622
 3049TIP3   OH230705   1.154   0.957   0.108 -0.5191 -0.3832 -0.8633
 3049TIP3    H130706   1.144   0.987   0.198 -0.8470  1.8403 -1.5623
 3049TIP3    H230707   1.086   0.891   0.096  0.2380 -1.5149  0.7986
 3050TIP3   OH230708   3.850   2.146   0.806 -0.0070  0.0541 -0.0879
 3050TIP3    H130709   3.872   2.225   0.755  0.8890  0.9958  1.6507
 3050TIP3    H230710   3.770   2.169   0.852  1.2865  0.7700  1.9423
 3051TIP3   OH230711   4.693   5.476   0.802 -0.0398  0.6797  0.2185
 3051TIP3    H130712   4.635   5.520   0.864 -1.7785 -1.4114  0.2033
 3051TIP3    H230713   4.665   5.506   0.716 -0.0987  0.7695  0.2688
 3052TIP3   OH230714   5.884   3.116   1.532 -0.1701 -0.9866 -0.7775
 3052TIP3    H130715   5.906   3.110   1.625  0.4341  3.5111 -0.3764
 3052TIP3    H230716   5.965   3.092   1.487  0.1002 -1.4605 -0.0614
 3053TIP3   OH230717   3.911   5.948   1.596 -0.1630 -0.7154 -0.8269
 3053TIP3    H130718   3.914   5.863   1.552 -0.3583 -0.8863 -0.5153
 3053TIP3    H230719   3.887   5.928   1.686  0.6712 -0.4048 -0.5251
 3054TIP3   OH230720   4.784   1.746   6.885  0.5374 -0.2563 -0.5030
 3054TIP3    H130721   4.872   1.734   6.848  0.7023 -0.0619 -0.1816
 3054TIP3    H230722   4.726   1.701   6.824  0.5262  1.9470 -2.2704
 3055TIP3   OH230723   2.237   4.709   7.713 -0.4827  0.6105 -0.8184
 3055TIP3    H130724   2.277   4.781   7.665  0.6329 -0.9640 -2.3730
 3055TIP3    H230725   2.279   4.630   7.679 -0.9488 -0.7521  1.4869
 3056TIP3   OH230726   0.402   6.279   6.773 -0.6105 -0.1043  0.2015
 3056TIP3    H130727   0.358   6.227   6.705 -1.2997  0.2569  0.3602
 3056TIP3    H230728   0.495   6.261   6.760 -0.8051 -0.9734 -0.0765
 3057TIP3   OH230729   4.898   3.276   7.387 -0.3878  0.4339 -0.1790
 3057TIP3    H130730   4.871   3.268   7.478  0.4046  1.4355  0.1676
 3057TIP3    H230731   4.886   3.189   7.350  1.3150 -0.5779  1.4553
 3058TIP3   OH230732   2.797   5.985   8.662 -0.3866 -0.0475  0.0153
 3058TIP3    H130733   2.765   6.018   8.578  1.1844 -0.5464 -0.8158
 3058TIP3    H230734   2.852   6.055   8.696  1.1959 -0.8594 -0.7260
 3059TIP3   OH230735   5.433   0.010   0.887 -0.1413  0.3918  0.6297
 3059TIP3    H130736   5.520   0.036   0.918 -0.0816  0.9611 -0.0003
 3059TIP3    H230737   5.434  -0.086   0.891  1.3394  0.2473 -1.5220
 3060TIP3   OH230738   2.309   0.874   2.393  0.2211 -0.3650  0.3884
 3060TIP3    H130739   2.326   0.842   2.482  0.6048 -1.9473 -0.2198
 3060TIP3    H230740   2.228   0.924   2.401 -1.0485 -2.3998  1.2475
 3061TIP3   OH230741   1.103   2.890   6.473  0.3505 -0.5667  0.1493
 3061TIP3    H130742   1.079   2.950   6.402  0.7195 -0.7705 -0.1583
 3061TIP3    H230743   1.119   2.947   6.548 -1.7434 -0.4810  0.5697
 3062TIP3   OH230744   3.285   0.445   6.829 -0.5974 -0.4106  0.3354
 3062TIP3    H130745   3.278   0.391   6.750 -1.1283  0.8623 -0.5152
 3062TIP3    H230746   3.195   0.467   6.852 -0.6511 -2.5256  2.6242
 3063TIP3   OH230747   0.042   1.129   1.191  0.4530  0.1394 -0.6880
 3063TIP3    H130748   0.124   1.080   1.192  1.9955  2.5355 -1.2720
 3063TIP3    H230749   0.047   1.183   1.111 -1.4647  0.7012 -0.4816
 3064TIP3   OH230750   1.775   0.440   6.571 -0.5515 -0.0388  0.6701
 3064TIP3    H130751   1.710   0.413   6.636  1.2593 -1.0184  2.1295
 3064TIP3    H230752   1.748   0.529   6.546 -2.4457 -0.4220  1.1902
 3065TIP3   OH230753   0.943   1.263   1.925 -0.1282  0.1449  0.4281
 3065TIP3    H130754   0.919   1.325   1.857  1.0502 -1.2993 -1.3749
 3065TIP3    H230755   0.894   1.184   1.904  0.5030 -0.4276  1.0584
 3066TIP3   OH230756   4.035   3.175   2.119  0.7538 -0.3779  0.0057
 3066TIP3    H130757   3.959   3.229   2.137  0.4111 -0.8913  0.1137
 3066TIP3    H230758   4.027   3.101   2.180  0.2852 -1.4497 -1.3216
 3067TIP3   OH230759   5.105   1.579   7.847  0.1222 -0.1607  0.0814
 3067TIP3    H130760   5.124   1.661   7.801 -1.7628 -0.0607 -0.5945
 3067TIP3    H230761   5.061   1.524   7.782  0.0003 -1.1353  0.9525
 3068TIP3   OH230762   4.426   4.489   7.487  0.0510  0.7436 -0.4042
 3068TIP3    H130763   4.476   4.565   7.457  0.0705  0.6757 -0.5450
 3068TIP3    H230764   4.447   4.420   7.424 -1.1146  1.0352 -1.1399
 3069TIP3   OH230765   6.092   2.700   7.696  0.3463  0.0511  0.3481
 3069TIP3    H130766   6.071   2.674   7.606 -3.3863 -0.6848  1.2701
 3069TIP3    H230767   6.087   2.795   7.695 -0.5935  0.0084 -0.0776
 3070TIP3   OH230768   5.759   2.515   1.835 -0.1910  0.3452  0.9345
 3070TIP3    H130769   5.682   2.458   1.836 -0.3328  0.5205  0.3862
 3070TIP3    H230770   5.786   2.521   1.927  0.2843 -1.2130  0.9102
 3071TIP3   OH230771   4.417   3.729   7.825 -0.0255 -0.3984 -0.2861
 3071TIP3    H130772   4.426   3.712   7.919  1.9988 -1.3729 -0.5888
 3071TIP3    H230773   4.341   3.678   7.798 -0.6571 -0.0708  0.8208
 3072TIP3   OH230774   6.235   2.177   6.683  0.1943  0.8677  0.2666
 3072TIP3    H130775   6.322   2.179   6.644 -0.6606 -0.7367 -1.9487
 3072TIP3    H230776   6.182   2.125   6.622 -2.4610  2.2111  1.2371
 3073TIP3   OH230777   5.030   5.183   8.289 -0.0045 -0.2375  0.3575
 3073TIP3    H130778   5.102   5.123   8.270  0.0203 -0.0611 -0.1020
 3073TIP3    H230779   4.952   5.140   8.255 -0.1405 -0.4806  0.9561
 3074TIP3   OH230780   0.545   3.721   7.124 -1.2313  0.7612  0.0818
 3074TIP3    H130781   0.468   3.762   7.085 -0.6496  0.5406 -1.3793
 3074TIP3    H230782   0.560   3.643   7.071  0.4829  1.2492 -0.2281
 3075TIP3   OH230783   1.427   2.903   7.330 -0.0662  0.5101 -0.3342
 3075TIP3    H130784   1.444   2.994   7.354  2.0033 -0.0290  0.5353
 3075TIP3    H230785   1.509   2.858   7.351 -0.5634 -1.3119 -2.0214
 3076TIP3   OH230786   4.231   1.270   6.479 -0.1131 -0.1141 -0.3804
 3076TIP3    H130787   4.178   1.294   6.403 -0.2657  2.5955  0.4500
 3076TIP3    H230788   4.321   1.279   6.449 -0.1260 -1.8097 -0.9792
 3077TIP3   OH230789   3.247   0.541   8.263  0.0852 -0.0538  0.4145
 3077TIP3    H130790   3.180   0.523   8.198 -0.3117  1.9421  0.1954
 3077TIP3    H230791   3.327   0.559   8.213  0.1475  0.0471  0.5469
 3078TIP3   OH230792   2.466   0.004   7.906  0.0156  0.1887  0.1550
 3078TIP3    H130793   2.424  -0.049   7.838  0.4264 -0.5750  0.4858
 3078TIP3    H230794   2.505  -0.060   7.966 -1.7004  0.7611  2.0163
 3079TIP3   OH230795   4.593   6.219   7.077 -0.4716  0.3470  0.5063
 3079TIP3    H130796   4.660   6.164   7.037 -1.5481 -0.7488  0.2009
 3079TIP3    H230797   4.534   6.242   7.006 -1.4322 -0.1934  1.1082
 3080TIP3   OH230798   3.022   4.627   1.774 -0.2346  0.3758 -0.1267
 3080TIP3    H130799   3.052   4.707   1.817 -0.1921 -0.0702  0.6932
 3080TIP3    H230800   3.075   4.557   1.813  1.5535  0.1826 -2.6190
 3081TIP3   OH230801   2.788   4.814   0.344  0.4070 -0.4686 -0.2810
 3081TIP3    H130802   2.823   4.895   0.382 -1.3698 -0.9067  2.5543
 3081TIP3    H230803   2.866   4.761   0.326  1.5549  1.4190 -1.3247
 3082TIP3   OH230804   3.012   5.413   1.022 -0.0349  0.0898 -0.2750
 3082TIP3    H130805   3.012   5.506   1.045  2.4355  0.1759 -0.2963
 3082TIP3    H230806   3.093   5.401   0.972  0.2828 -2.2768  0.6909
 3083TIP3   OH230807   5.154   6.369   8.262 -0.0835  0.2105 -0.1187
 3083TIP3    H130808   5.222   6.326   8.314 -1.5818 -0.5386  1.2955
 3083TIP3    H230809   5.128   6.303   8.197 -1.2786 -0.5143  1.0466
 3084TIP3   OH230810   4.750   3.388   0.581 -0.0453 -0.3656 -0.0223
 3084TIP3    H130811   4.802   3.452   0.532  0.4726 -0.4009  0.4646
 3084TIP3    H230812   4.815   3.334   0.626 -0.4555 -1.5920 -0.8515
 3085TIP3   OH230813   3.453   1.558   7.364  0.3337  0.2777  0.1195
 3085TIP3    H130814   3.476   1.629   7.304  0.3443  2.3558  2.4173
 3085TIP3    H230815   3.519   1.490   7.347  0.5826  0.9530 -1.8699
 3086TIP3   OH230816   6.829   6.888   1.457 -0.6166 -0.8054 -0.1377
 3086TIP3    H130817   6.831   6.972   1.411  0.3646 -0.7587 -0.0295
 3086TIP3    H230818   6.736   6.867   1.465 -0.8533  0.0419 -0.5810
 3087TIP3   OH230819   1.779   3.799   7.481 -0.6226  0.2078  0.1131
 3087TIP3    H130820   1.825   3.724   7.446 -0.7429 -0.2155  0.8513
 3087TIP3    H230821   1.696   3.802   7.432 -0.0199  0.7194 -0.9110
 3088TIP3   OH230822   1.432   3.691   0.723 -0.2453  0.3265 -0.3524
 3088TIP3    H130823   1.381   3.642   0.659 -0.8031  0.8325 -0.3009
 3088TIP3    H230824   1.388   3.674   0.807 -0.9500  1.5538 -0.4427
 3089TIP3   OH230825   4.764   3.269   0.887 -0.8130  0.4232  0.0878
 3089TIP3    H130826   4.776   3.174   0.883 -2.7847  0.1720 -2.0429
 3089TIP3    H230827   4.681   3.281   0.933 -1.0567  1.0299 -0.4892
 3090TIP3   OH230828   5.974   6.219   8.176  0.1308  0.4014 -0.4347
 3090TIP3    H130829   6.062   6.256   8.173  0.7647 -0.9580  0.4304
 3090TIP3    H230830   5.948   6.209   8.085  1.4429 -0.4877 -0.7236
 3091TIP3   OH230831   1.253   3.591   7.850  0.4296  0.2259  0.3645
 3091TIP3    H130832   1.257   3.664   7.788 -1.7170 -0.1936 -0.3562
 3091TIP3    H230833   1.258   3.512   7.795 -1.0467 -0.1515  0.7260
 3092TIP3   OH230834   2.042   1.682   8.284  0.1283  0.4055 -0.1483
 3092TIP3    H130835   1.994   1.729   8.353 -1.1546 -0.9214 -0.0797
 3092TIP3    H230836   2.015   1.591   8.295  0.9099 -0.0262 -1.6153
 3093TIP3   OH230837   5.271   4.087   0.696  0.5296  0.3147  0.4550
 3093TIP3    H130838   5.185   4.101   0.736  0.9437  0.7175  1.2464
 3093TIP3    H230839   5.332   4.092   0.770  1.1958 -0.3468 -0.0390
 3094TIP3   OH230840   2.501   6.220   6.160  0.3384 -0.1463  0.3181
 3094TIP3    H130841   2.571   6.283   6.142 -0.3035  0.7548  0.8999
 3094TIP3    H230842   2.486   6.176   6.076 -1.2549  2.5876 -0.9442
 3095TIP3   OH230843   1.874   2.569   7.840 -0.1672  0.0107  0.1647
 3095TIP3    H130844   1.817   2.618   7.780  0.7538  0.4377 -0.3821
 3095TIP3    H230845   1.961   2.574   7.800 -0.1180 -2.5835 -0.2471
 3096TIP3   OH230846   1.639   3.439   8.355  0.8793  0.9033  0.1011
 3096TIP3    H130847   1.618   3.466   8.444 -0.7725  2.2496 -0.6421
 3096TIP3    H230848   1.618   3.515   8.301  1.9261  0.1546 -1.4490
 3097TIP3   OH230849   3.090   3.633   0.256  0.0786  0.4670  0.6540
 3097TIP3    H130850   3.017   3.574   0.236  0.9005  0.0830 -1.4508
 3097TIP3    H230851   3.087   3.699   0.186  0.7765  1.4177  1.4806
 3098TIP3   OH230852   1.848   1.193   2.014 -0.0130  0.4188  0.5026
 3098TIP3    H130853   1.909   1.151   2.075 -1.6950 -2.2753  0.4654
 3098TIP3    H230854   1.897   1.199   1.931  0.6299 -0.5103  0.8017
 3099TIP3   OH230855   0.194   6.446   1.171  0.2332 -0.2830 -0.2275
 3099TIP3    H130856   0.258   6.476   1.236 -0.8491 -1.6661  1.5720
 3099TIP3    H230857   0.227   6.360   1.143  0.3577  0.0289 -1.0849
 3100TIP3   OH230858   0.705   6.153   0.315  0.1172  0.0665 -0.1844
 3100TIP3    H130859   0.721   6.103   0.235 -1.4447  1.1668 -1.2477
 3100TIP3    H230860   0.619   6.194   0.301  0.5351  1.6012  1.3723
 3101TIP3   OH230861   6.511   3.105   1.083 -0.2899  0.2450  0.3252
 3101TIP3    H130862   6.459   3.057   1.147 -0.3835  0.1772  0.1982
 3101TIP3    H230863   6.601   3.078   1.100 -0.4250 -0.6408 -0.3123
 3102TIP3   OH230864   5.252   4.090   8.137 -0.5146  0.0624 -0.0474
 3102TIP3    H130865   5.294   4.087   8.223  0.4729 -0.6392 -0.5369
 3102TIP3    H230866   5.324   4.079   8.075 -1.1785  0.8106 -0.9822
 3103TIP3   OH230867   0.276   1.308   0.418  0.0246  0.1337  0.2422
 3103TIP3    H130868   0.282   1.218   0.385  0.9774  0.4982 -0.6264
 3103TIP3    H230869   0.317   1.361   0.350 -1.2264  1.3226  0.3932
 3104TIP3   OH230870   1.756   4.680   6.952 -0.0402  0.6359 -0.2397
 3104TIP3    H130871   1.688   4.701   6.888 -3.0087 -1.3971  1.9785
 3104TIP3    H230872   1.768   4.585   6.943  1.7273  0.7994  0.1628
 3105TIP3   OH230873   1.453   2.802   1.102  0.4321  1.0388 -0.1172
 3105TIP3    H130874   1.374   2.777   1.151 -0.4596  3.2902 -0.2926
 3105TIP3    H230875   1.520   2.815   1.169  0.5804 -0.5109  0.0647
 3106TIP3   OH230876   2.536   4.896   0.810 -0.2493  0.3557 -0.7189
 3106TIP3    H130877   2.501   4.980   0.780 -3.7038 -0.8178 -0.4321
 3106TIP3    H230878   2.591   4.918   0.885 -1.3943  2.3299 -0.3932
 3107TIP3   OH230879   3.733   0.775   7.431 -0.0722  0.1694 -0.2679
 3107TIP3    H130880   3.809   0.817   7.471 -0.2353 -0.2622  0.5127
 3107TIP3    H230881   3.751   0.681   7.439 -0.3822  0.0695 -0.6918
 3108TIP3   OH230882   2.488   0.293   8.632  0.1944 -0.0423  0.2919
 3108TIP3    H130883   2.546   0.344   8.689  0.7399 -1.5558  1.1396
 3108TIP3    H230884   2.541   0.274   8.554 -0.2045  1.1398 -0.2908
 3109TIP3   OH230885   1.768   2.488   2.119 -0.1097 -0.2202  0.3608
 3109TIP3    H130886   1.674   2.486   2.140  0.0246 -1.2867  0.9264
 3109TIP3    H230887   1.807   2.423   2.178  0.9829  0.1920  0.1083
 3110TIP3   OH230888   1.129   6.298   8.226 -0.3685 -0.3276 -0.5746
 3110TIP3    H130889   1.071   6.315   8.152 -1.7172 -0.4269  0.4202
 3110TIP3    H230890   1.134   6.382   8.272  0.1120 -0.3754 -0.5332
 3111TIP3   OH230891   0.730   5.919   7.342 -0.0731  0.5905 -0.0328
 3111TIP3    H130892   0.663   5.962   7.395 -0.4890 -0.5424  0.3863
 3111TIP3    H230893   0.719   5.956   7.254 -1.6313  0.0118 -0.1066
 3112TIP3   OH230894   3.850   5.783   6.886  0.2315  0.5168  0.8434
 3112TIP3    H130895   3.828   5.703   6.836  0.5864  1.7437 -1.4304
 3112TIP3    H230896   3.929   5.760   6.934  0.3757 -0.4880  0.1715
 3113TIP3   OH230897   0.446   0.313   7.084 -0.5202  0.2405  0.0294
 3113TIP3    H130898   0.354   0.305   7.058 -0.8456 -0.6537  1.3344
 3113TIP3    H230899   0.449   0.274   7.171  1.3937 -1.1356 -0.5877
 3114TIP3   OH230900   5.853   1.118   7.646 -0.8541  0.1513  0.2046
 3114TIP3    H130901   5.798   1.154   7.577 -0.7374 -0.7980 -0.3898
 3114TIP3    H230902   5.902   1.194   7.679 -0.6947  0.5639 -0.9461
 3115TIP3   OH230903   1.909   2.869   8.248 -0.4709 -0.4851  0.2337
 3115TIP3    H130904   1.867   2.806   8.306 -0.2092 -0.8390  0.0405
 3115TIP3    H230905   1.974   2.912   8.303 -2.5392  1.6657  1.1865
 3116TIP3   OH230906   6.715   4.920   1.861 -0.1127  0.1171  0.6281
 3116TIP3    H130907   6.694   4.874   1.942  0.2190  0.2768  0.8063
 3116TIP3    H230908   6.682   4.863   1.791 -1.1106  0.3557  0.8981
 3117TIP3   OH230909   5.480   4.572   0.746 -0.1623 -0.1702  0.1603
 3117TIP3    H130910   5.562   4.604   0.784 -1.0253  1.4557  0.7528
 3117TIP3    H230911   5.494   4.581   0.651 -0.2414  1.7848  0.2859
 3118TIP3   OH230912   0.878   3.034   7.957  0.6113  0.2444 -0.3352
 3118TIP3    H130913   0.869   3.120   7.997  0.7823  0.2527 -0.3136
 3118TIP3    H230914   0.797   3.021   7.908  0.3407  0.1781  0.1218
 3119TIP3   OH230915   0.411   2.693   1.966  0.2671  0.1420 -0.4229
 3119TIP3    H130916   0.364   2.732   2.040  1.3681 -0.1762  0.4838
 3119TIP3    H230917   0.381   2.602   1.964  1.3444 -0.2637  0.6279
 3120TIP3   OH230918   0.569   3.323   7.297  0.0955 -0.6802 -0.1397
 3120TIP3    H130919   0.576   3.412   7.262  1.1647 -0.5160  0.4368
 3120TIP3    H230920   0.502   3.281   7.243 -2.2484  1.1952  1.0987
 3121TIP3   OH230921   5.283   1.339   6.619 -0.6334  0.0045  0.5661
 3121TIP3    H130922   5.257   1.248   6.634 -0.3220  0.2503  3.0272
 3121TIP3    H230923   5.358   1.333   6.559 -2.2743 -1.1163 -1.4943
 3122TIP3   OH230924   1.906   0.538   7.194  0.1183 -0.3139 -0.6726
 3122TIP3    H130925   1.983   0.595   7.196  0.1000 -0.3053  0.5788
 3122TIP3    H230926   1.871   0.548   7.105  1.9736 -0.9023 -1.5233
 3123TIP3   OH230927   1.277   6.359   1.566  0.1556  0.1484 -0.1627
 3123TIP3    H130928   1.224   6.388   1.492 -0.2310  1.4948  0.6179
 3123TIP3    H230929   1.367   6.359   1.533 -0.0479  0.4449 -0.7198
 3124TIP3   OH230930   2.680   0.503   8.049  0.1253  0.0329  0.9869
 3124TIP3    H130931   2.659   0.410   8.053 -1.1856  0.3094  0.7959
 3124TIP3    H230932   2.707   0.518   7.958 -0.9179  0.0879  0.6767
 3125TIP3   OH230933   3.344   4.624   0.068  0.0032  0.7441 -0.1616
 3125TIP3    H130934   3.295   4.671  -0.000 -0.4709 -1.3450 -1.3520
 3125TIP3    H230935   3.281   4.560   0.102  1.9126 -2.5332 -2.2387
 3126TIP3   OH230936   2.134   5.790   7.340  0.7362 -0.6857 -0.5556
 3126TIP3    H130937   2.102   5.809   7.428  0.5777 -0.9809 -0.5469
 3126TIP3    H230938   2.086   5.850   7.283  1.6848  0.3281 -0.3241
 3127TIP3   OH230939   4.093   3.840   1.153  0.4876  0.2392 -0.4442
 3127TIP3    H130940   4.104   3.819   1.246 -0.9495  0.5054 -0.1922
 3127TIP3    H230941   4.183   3.853   1.120  1.0184  0.0153  0.8665
 3128TIP3   OH230942   6.768   1.603   7.605  0.4478 -0.3871  0.0633
 3128TIP3    H130943   6.780   1.698   7.612  0.2039 -0.2834 -0.7749
 3128TIP3    H230944   6.782   1.570   7.694 -2.6862  0.7746  1.1057
 3129TIP3   OH230945   3.049   1.447   1.912 -0.2588 -0.4016  0.0893
 3129TIP3    H130946   3.070   1.364   1.954  0.9709 -0.7095 -1.0660
 3129TIP3    H230947   3.131   1.477   1.873 -0.4144  1.9001  1.3246
 3130TIP3   OH230948   4.014   6.424   7.766  0.4312  0.5445 -0.2144
 3130TIP3    H130949   4.036   6.465   7.682 -0.3000  0.2592 -0.5438
 3130TIP3    H230950   3.961   6.489   7.811 -1.4673 -0.3415 -1.0920
 3131TIP3   OH230951   3.169   2.958   0.222  0.0346  0.3176  0.1031
 3131TIP3    H130952   3.138   3.013   0.293 -1.3669 -0.8996  0.5048
 3131TIP3    H230953   3.212   3.018   0.161 -1.6529  1.8943  0.3811
 3132TIP3   OH230954   1.441   4.457   8.009 -0.1842 -0.8262  0.1810
 3132TIP3    H130955   1.510   4.409   7.964 -1.1143 -1.5544 -0.5208
 3132TIP3    H230956   1.371   4.466   7.944 -0.5715  0.3027  0.7243
 3133TIP3   OH230957   2.877   1.140   1.664  0.0272  0.2338 -0.0612
 3133TIP3    H130958   2.962   1.154   1.622 -1.3447  2.1734 -2.5636
 3133TIP3    H230959   2.848   1.228   1.687 -0.4799 -0.5770  2.6500
 3134TIP3   OH230960   2.639   6.046   0.588 -0.1034 -0.2361 -0.3091
 3134TIP3    H130961   2.649   5.964   0.638  0.1078  0.0534  0.1280
 3134TIP3    H230962   2.568   6.028   0.527 -1.5798 -0.0228  1.2893
 3135TIP3   OH230963   1.578   2.586   1.650  0.1742  0.1184 -0.8383
 3135TIP3    H130964   1.625   2.543   1.579  1.1803 -1.1857  0.5504
 3135TIP3    H230965   1.499   2.622   1.609  0.8161 -0.4082 -2.6203
 3136TIP3   OH230966   5.104   3.408   0.304  0.1976  0.3892 -0.4958
 3136TIP3    H130967   5.132   3.492   0.269  0.3978  0.1396 -0.9408
 3136TIP3    H230968   5.155   3.343   0.255  1.6227  0.0834  1.2864
 3137TIP3   OH230969   4.234   2.894   2.559  0.4604  0.2731 -0.8934
 3137TIP3    H130970   4.238   2.799   2.561 -0.6047  0.1938  1.4715
 3137TIP3    H230971   4.306   2.922   2.616 -2.5560  0.5222  3.2419
 3138TIP3   OH230972   0.807   0.692   1.239  0.3398 -0.0094 -0.4678
 3138TIP3    H130973   0.735   0.753   1.219  0.5629  0.6014  0.5694
 3138TIP3    H230974   0.764   0.619   1.285  0.8136  2.1659  3.8184
 3139TIP3   OH230975   2.001   5.369   0.375  0.2844 -0.2605  0.0833
 3139TIP3    H130976   2.078   5.350   0.321 -0.2648 -0.6086 -0.5877
 3139TIP3    H230977   1.927   5.360   0.315 -0.2734  0.1619  0.7056
 3140TIP3   OH230978   0.485   1.932   7.907  0.3363 -0.4121 -0.5069
 3140TIP3    H130979   0.450   1.857   7.955  0.8894 -1.2188 -1.3299
 3140TIP3    H230980   0.424   1.944   7.834  0.2971 -0.1118 -0.4274
 3141TIP3   OH230981   0.653   1.303   1.592 -0.1844  0.5136 -0.3551
 3141TIP3    H130982   0.624   1.232   1.649  0.4440 -0.1896 -0.8834
 3141TIP3    H230983   0.572   1.341   1.557 -0.7205  2.0828  2.2353
 3142TIP3   OH230984   4.996   5.044   1.127 -0.0609 -0.2309  0.3038
 3142TIP3    H130985   5.010   5.134   1.099 -1.4695  0.1202  0.6737
 3142TIP3    H230986   5.011   4.992   1.047  0.8418  0.3104  0.1141
 3143TIP3   OH230987   0.933   2.978   0.761 -0.4707 -0.2197  0.3330
 3143TIP3    H130988   0.949   2.925   0.839 -0.2220  2.0098  1.8976
 3143TIP3    H230989   1.020   3.010   0.736 -0.6976  0.0223 -0.1645
 3144TIP3   OH230990   4.989   4.447   1.868 -0.1935 -1.0116  0.1346
 3144TIP3    H130991   4.941   4.467   1.787 -0.4606  1.5140  0.8482
 3144TIP3    H230992   4.973   4.354   1.882 -2.5874 -0.8835 -1.1650
 3145TIP3   OH230993   4.354   3.051   0.062  0.4594 -0.3639  0.6378
 3145TIP3    H130994   4.318   2.972   0.020 -0.0678 -0.1237  0.6292
 3145TIP3    H230995   4.442   3.059   0.026 -0.6225  0.9585 -2.0100
 3146TIP3   OH230996   5.804   2.254   6.527  0.1762  0.1392  0.5009
 3146TIP3    H130997   5.722   2.250   6.576  0.1770  0.2270  0.5106
 3146TIP3    H230998   5.857   2.319   6.574 -0.7300  2.0442 -0.9404
 3147TIP3   OH230999   0.051   6.470   7.983 -0.3960 -0.0208  0.2548
 3147TIP3    H131000   0.118   6.532   8.011 -0.1428 -0.9548  1.8145
 3147TIP3    H231001  -0.016   6.474   8.051 -0.5615 -1.1764  0.1741
 3148TIP3   OH231002   0.235   0.040   2.315 -0.3908  0.0382  0.1009
 3148TIP3    H131003   0.287  -0.040   2.328  0.5502  0.9749  3.0658
 3148TIP3    H231004   0.153   0.010   2.277  0.4751 -2.1439 -0.1911
 3149TIP3   OH231005   6.294   2.152   0.947 -0.0184 -0.2688  0.0695
 3149TIP3    H131006   6.236   2.225   0.969  0.9577  0.9373 -1.2072
 3149TIP3    H231007   6.346   2.139   1.027  0.5254  1.1686 -0.0166
 3150TIP3   OH231008   2.910   4.704   6.195 -0.4498 -0.4783 -0.5444
 3150TIP3    H131009   2.831   4.667   6.233 -1.0222 -0.3640 -1.5879
 3150TIP3    H231010   2.969   4.629   6.185  0.3535 -0.2806  1.9843
 3151TIP3   OH231011   1.490   0.988   0.296  0.6910 -0.8823  0.0899
 3151TIP3    H131012   1.396   0.978   0.283  0.4330 -1.2196  1.9015
 3151TIP3    H231013   1.521   1.035   0.219 -1.2432  0.8135  0.2758
 3152TIP3   OH231014   3.212   4.811   1.183  0.1516  0.3336  0.0535
 3152TIP3    H131015   3.200   4.905   1.172 -3.1021  0.0371  0.2142
 3152TIP3    H231016   3.252   4.802   1.270  1.3949  1.5674 -0.3573
 3153TIP3   OH231017   6.883   4.578   7.740 -0.1028  0.2629 -0.0387
 3153TIP3    H131018   6.931   4.498   7.759 -1.4424 -0.9040 -1.3088
 3153TIP3    H231019   6.930   4.646   7.788  1.9886 -1.0114 -0.1525
 3154TIP3   OH231020   6.750   1.877   7.665 -0.1862 -0.2170 -0.2289
 3154TIP3    H131021   6.833   1.899   7.708  0.6548 -2.4180 -0.5839
 3154TIP3    H231022   6.743   1.939   7.593  0.0933  1.3247  1.0094
 3155TIP3   OH231023   1.193   5.635   0.676  0.0453 -0.2387  0.1815
 3155TIP3    H131024   1.141   5.709   0.706 -0.4624 -0.5592  0.1101
 3155TIP3    H231025   1.186   5.570   0.746 -0.1406 -0.5115 -0.0868
 3156TIP3   OH231026   5.300   6.101   7.585  0.2912  0.2325 -0.3804
 3156TIP3    H131027   5.343   6.156   7.650 -0.1708  0.5170 -0.3111
 3156TIP3    H231028   5.301   6.153   7.505 -2.5017  1.5265  0.2904
 3157TIP3   OH231029   5.345   0.398   8.005  0.0548  0.0157  0.4007
 3157TIP3    H131030   5.364   0.308   8.030  1.3540 -0.2730 -1.5045
 3157TIP3    H231031   5.273   0.391   7.942  0.8157  0.2232 -0.4968
 3158TIP3   OH231032   5.141   2.311   7.318  0.1282  0.0743  0.2291
 3158TIP3    H131033   5.090   2.264   7.384 -2.3320 -0.5431 -1.9723
 3158TIP3    H231034   5.215   2.254   7.299  0.9351  0.3054  2.4280
 3159TIP3   OH231035   6.780   2.035   0.940 -0.0007 -0.0536 -0.0240
 3159TIP3    H131036   6.819   2.050   0.854 -1.0124 -0.8013 -0.6335
 3159TIP3    H231037   6.855   2.033   1.000  0.9785 -1.8665 -1.2114
 3160TIP3   OH231038   1.143   5.869   6.684 -0.4601 -0.4828  0.1918
 3160TIP3    H131039   1.111   5.823   6.606 -0.2265 -0.9273  0.3547
 3160TIP3    H231040   1.225   5.910   6.655  0.2658 -1.6673  0.5287
 3161TIP3   OH231041   6.807   4.947   7.366  0.2121  0.2992  0.5001
 3161TIP3    H131042   6.745   5.000   7.317  1.0303  0.8417  0.0310
 3161TIP3    H231043   6.766   4.861   7.373 -1.7375  1.3008  2.4118
 3162TIP3   OH231044   6.693   4.580   1.131  0.7917  0.3610 -0.1796
 3162TIP3    H131045   6.720   4.490   1.147  1.3725  0.6335  0.4057
 3162TIP3    H231046   6.754   4.613   1.066  1.2265  0.6426  0.3588
 3163TIP3   OH231047   0.469   0.723   0.708 -0.3343 -0.0667  0.0496
 3163TIP3    H131048   0.505   0.649   0.758 -1.1745  1.0974  2.5507
 3163TIP3    H231049   0.544   0.781   0.694 -0.5002  0.8556  2.4551
 3164TIP3   OH231050   2.011   3.733   0.306  0.2962  0.2468  1.3455
 3164TIP3    H131051   2.081   3.732   0.240 -1.3751 -3.0037 -0.6504
 3164TIP3    H231052   2.038   3.665   0.369 -0.6509 -0.4794  0.9835
 3165TIP3   OH231053   6.073   0.230   8.595  0.1698  0.3175  0.2414
 3165TIP3    H131054   6.154   0.237   8.544  0.4181 -1.2675  0.3738
 3165TIP3    H231055   6.020   0.304   8.566  0.3056 -0.5096 -2.3078
 3166TIP3   OH231056   3.771   3.348   6.323 -0.2124  0.6214  0.2236
 3166TIP3    H131057   3.860   3.320   6.343 -0.0935  0.6909 -0.2032
 3166TIP3    H231058   3.781   3.412   6.253 -0.4553  1.9364  1.3368
 3167TIP3   OH231059   3.802   3.502   7.370  0.3377 -0.0492 -0.1501
 3167TIP3    H131060   3.851   3.440   7.424  0.4010  1.8258  2.1392
 3167TIP3    H231061   3.710   3.487   7.394  0.1304 -0.7185 -1.2831
 3168TIP3   OH231062   0.837   0.722   7.551 -0.3091 -0.5731 -0.5930
 3168TIP3    H131063   0.914   0.773   7.524 -0.0923 -0.7555 -0.3207
 3168TIP3    H231064   0.766   0.756   7.496 -0.0498 -0.3583 -0.8010
 3169TIP3   OH231065   3.223   5.476   8.470  0.2292 -0.0590 -0.5643
 3169TIP3    H131066   3.131   5.450   8.464  0.2527 -0.6899  1.3056
 3169TIP3    H231067   3.227   5.538   8.543  1.2143  0.4056 -0.9832
 3170TIP3   OH231068   1.855   5.957   1.071  0.6452  0.3483 -0.0885
 3170TIP3    H131069   1.890   5.999   1.150 -1.8636 -0.5689  1.6348
 3170TIP3    H231070   1.761   5.976   1.074 -0.0830 -2.5908 -0.9477
 3171TIP3   OH231071   3.044   2.513   7.509  0.0201  0.3291  0.2319
 3171TIP3    H131072   2.954   2.487   7.526  0.1627 -0.2626  0.0960
 3171TIP3    H231073   3.063   2.579   7.576 -0.6691  0.8175 -0.0454
 3172TIP3   OH231074   1.981   3.778   7.895  0.4246  0.2685  0.1889
 3172TIP3    H131075   1.936   3.736   7.968  1.1835 -0.6689  0.1266
 3172TIP3    H231076   2.062   3.812   7.933  0.3431  0.6826 -0.0024
 3173TIP3   OH231077   3.799   5.519   7.382  0.2789  0.1331 -0.5089
 3173TIP3    H131078   3.785   5.591   7.321  1.4640  1.5841  0.8713
 3173TIP3    H231079   3.730   5.527   7.447  1.0193  0.6857  0.2275
 3174TIP3   OH231080   1.313   2.076   2.433  0.1432 -0.0211 -0.2470
 3174TIP3    H131081   1.254   2.034   2.371  0.5739 -0.3125 -0.4671
 3174TIP3    H231082   1.273   2.061   2.519 -0.4181  0.3258 -0.4441
 3175TIP3   OH231083   1.161   1.030   0.369 -0.1590  0.0914 -0.1691
 3175TIP3    H131084   1.090   0.984   0.415 -1.1535  0.0860 -1.6364
 3175TIP3    H231085   1.164   1.116   0.410 -1.1070  0.1285 -0.1530
 3176TIP3   OH231086   4.584   3.460   6.902 -0.2564 -0.2012 -0.0237
 3176TIP3    H131087   4.585   3.366   6.882  1.1979 -0.1992 -0.0454
 3176TIP3    H231088   4.494   3.487   6.884 -0.7408 -1.6207  0.1430
 3177TIP3   OH231089   1.379   4.204   2.053  0.1315 -0.1070 -0.1063
 3177TIP3    H131090   1.329   4.160   2.121  1.8037 -1.1943  0.5064
 3177TIP3    H231091   1.425   4.274   2.098 -0.8041  0.8935 -0.6616
 3178TIP3   OH231092   4.543   5.942   7.651  0.5650 -0.5284 -0.0334
 3178TIP3    H131093   4.550   5.973   7.741  2.4384 -0.6745 -0.0849
 3178TIP3    H231094   4.488   6.007   7.607  1.7248  0.9539  0.6155
 3179TIP3   OH231095   4.647   0.067   1.086 -0.2871 -0.4873 -0.2394
 3179TIP3    H131096   4.577   0.043   1.147 -0.2592 -0.7585 -0.3132
 3179TIP3    H231097   4.630   0.159   1.065 -0.3665 -0.4260  0.0836
 3180TIP3   OH231098   5.247   5.448   0.031 -0.0529 -0.2180  0.3382
 3180TIP3    H131099   5.316   5.399   0.076 -0.6339 -0.5840  0.8479
 3180TIP3    H231100   5.283   5.466  -0.055  0.3539 -1.1477  0.3039
 3181TIP3   OH231101   3.525   2.341   2.296  0.3147  0.0751  0.1585
 3181TIP3    H131102   3.615   2.311   2.292  0.1807 -0.2176 -1.1412
 3181TIP3    H231103   3.474   2.270   2.257 -0.2341  1.0506 -1.0036
 3182TIP3   OH231104   0.380   4.665   0.949 -0.0874 -0.1168 -0.2637
 3182TIP3    H131105   0.305   4.622   0.990  0.0833  0.1705  0.3639
 3182TIP3    H231106   0.364   4.658   0.855  0.3333 -2.2796 -0.2187
 3183TIP3   OH231107   0.906   1.554   0.927 -0.5825 -0.2281  0.3833
 3183TIP3    H131108   0.892   1.648   0.941 -2.0306 -0.0943 -1.4943
 3183TIP3    H231109   0.895   1.543   0.832 -0.2382 -2.2733  0.5482
 3184TIP3   OH231110   4.942   2.199   7.503 -0.0623 -0.1557 -0.0879
 3184TIP3    H131111   4.868   2.259   7.489 -0.2341 -0.0367  1.2569
 3184TIP3    H231112   4.918   2.120   7.455 -0.1045  0.6239 -1.4008
 3185TIP3   OH231113   5.735   2.433   1.536  0.5145  0.1147 -0.1512
 3185TIP3    H131114   5.760   2.404   1.624  0.0745 -0.6878 -0.2753
 3185TIP3    H231115   5.668   2.370   1.509  1.8024 -0.6875 -1.7123
 3186TIP3   OH231116   0.317   4.356   8.503  0.0959 -0.5121 -0.1740
 3186TIP3    H131117   0.252   4.406   8.453 -2.2049 -1.3270  1.8118
 3186TIP3    H231118   0.396   4.411   8.501 -1.6863  2.2725  0.1696
 3187TIP3   OH231119   6.207   5.018   0.705  0.2640  0.3970 -0.0506
 3187TIP3    H131120   6.223   4.958   0.779  0.0351  1.8122  1.1948
 3187TIP3    H231121   6.278   5.081   0.710 -0.5186  1.3110 -0.1798
 3188TIP3   OH231122   2.815   3.218   7.027  0.5862 -0.0319 -0.0418
 3188TIP3    H131123   2.870   3.215   6.948 -1.4647 -0.2535 -1.5272
 3188TIP3    H231124   2.810   3.311   7.049  2.7616 -0.1116  1.0654
 3189TIP3   OH231125   6.382   6.396   6.160  0.2216 -0.1998  0.3999
 3189TIP3    H131126   6.322   6.333   6.200  0.9704 -0.4307  1.1676
 3189TIP3    H231127   6.434   6.430   6.233 -0.0164  1.1513 -0.0274
 3190TIP3   OH231128   1.913   3.455   8.256 -0.2979  0.3931  0.1226
 3190TIP3    H131129   1.979   3.393   8.286 -0.8556 -1.0523 -1.4281
 3190TIP3    H231130   1.832   3.427   8.299 -0.0989  1.6789  1.4124
 3191TIP3   OH231131   2.370   6.353   7.108 -0.2270  0.0800  0.2840
 3191TIP3    H131132   2.401   6.291   7.042  4.0762  1.0368  1.0957
 3191TIP3    H231133   2.432   6.425   7.104 -2.6925  2.4889  2.1120
 3192TIP3   OH231134   4.519   3.138   8.392 -0.2454 -0.8650 -0.3094
 3192TIP3    H131135   4.570   3.110   8.468 -0.1777 -0.3301 -0.1560
 3192TIP3    H231136   4.477   3.058   8.361 -1.1709 -0.9124  0.9649
 3193TIP3   OH231137   5.971   3.013   6.602  0.2549 -0.2809 -0.1700
 3193TIP3    H131138   5.924   2.988   6.522 -0.5694  1.0811 -0.1503
 3193TIP3    H231139   6.026   2.938   6.622 -2.7239 -2.5249  0.4124
 3194TIP3   OH231140   0.580   6.425   1.813 -0.4290  0.0090  0.1759
 3194TIP3    H131141   0.554   6.445   1.903 -0.2473 -1.9087  0.6819
 3194TIP3    H231142   0.643   6.493   1.791 -1.5310  1.3505  0.9560
 3195TIP3   OH231143   5.219   0.322   7.588  0.3287  0.2104 -0.3260
 3195TIP3    H131144   5.177   0.337   7.673  0.8155 -1.0653  0.1667
 3195TIP3    H231145   5.146   0.306   7.528  0.0278 -0.5683  0.2200
 3196TIP3   OH231146   3.551   1.923   8.143  0.2481  0.5322 -0.0750
 3196TIP3    H131147   3.522   2.006   8.104 -0.4796 -0.9178 -2.8777
 3196TIP3    H231148   3.473   1.890   8.188 -0.1605  0.3509 -0.8852
 3197TIP3   OH231149   1.114   4.375   7.605  0.4372 -0.3187 -0.3481
 3197TIP3    H131150   1.128   4.282   7.623 -0.2573 -0.6212 -1.2860
 3197TIP3    H231151   1.142   4.419   7.685  0.7739 -1.3313  0.1158
 3198TIP3   OH231152   6.515   3.653   1.929 -0.7168  0.5405  0.4622
 3198TIP3    H131153   6.605   3.661   1.961 -0.8130 -0.6073  1.0511
 3198TIP3    H231154   6.461   3.663   2.007 -1.0601  0.2671  0.2636
 3199TIP3   OH231155   4.504   1.059   7.080 -0.1186  0.2200  0.0863
 3199TIP3    H131156   4.592   1.090   7.058  0.5448 -0.1598  2.0162
 3199TIP3    H231157   4.513   1.020   7.167 -2.1252 -0.1723  0.1715
 3200TIP3   OH231158   2.172   0.552   0.103 -0.4437  0.4680  0.1384
 3200TIP3    H131159   2.200   0.626   0.049  0.7742 -1.2217 -1.6897
 3200TIP3    H231160   2.144   0.486   0.040  0.4484 -1.3884  1.5793
 3201TIP3   OH231161   2.793   4.882   1.250 -0.3411  0.5529 -0.2969
 3201TIP3    H131162   2.873   4.863   1.298  0.2586 -0.2244 -1.5565
 3201TIP3    H231163   2.747   4.946   1.304  1.0935  0.9605  0.4787
 3202TIP3   OH231164   0.889   0.150   7.194  0.1240 -0.7203  0.6291
 3202TIP3    H131165   0.834   0.082   7.233 -0.2526 -0.6461  0.2284
 3202TIP3    H231166   0.974   0.107   7.181  0.4582 -0.5603  2.1118
 3203TIP3   OH231167   6.461   2.042   2.188 -0.2587 -0.5392  0.3753
 3203TIP3    H131168   6.526   2.077   2.127 -0.6569 -0.7713 -0.1804
 3203TIP3    H231169   6.446   1.952   2.159 -1.6804 -0.1305 -0.2078
 3204TIP3   OH231170   1.664   2.700   7.689  0.3517  0.7888 -0.0743
 3204TIP3    H131171   1.622   2.636   7.631 -1.4764  0.9135  1.0610
 3204TIP3    H231172   1.623   2.783   7.666  2.8192  1.6771 -1.6492
 3205TIP3   OH231173   6.309   3.009   1.729  0.4452 -0.2998  0.4010
 3205TIP3    H131174   6.374   2.963   1.781 -0.3880  0.1476  1.9211
 3205TIP3    H231175   6.226   2.968   1.752  0.2185 -1.3150 -2.0196
 3206TIP3   OH231176   3.447   3.364   2.068  0.2115 -0.2964  0.2575
 3206TIP3    H131177   3.382   3.424   2.104 -0.9928  0.1926 -2.5055
 3206TIP3    H231178   3.473   3.403   1.985  3.9309 -0.6088  1.0679
 3207TIP3   OH231179   0.291   2.343   1.113  0.2696  0.7533  0.2968
 3207TIP3    H131180   0.285   2.327   1.208  1.7431  0.7994  0.4294
 3207TIP3    H231181   0.322   2.433   1.106  2.1458  0.1208 -0.1384
 3208TIP3   OH231182   4.259   0.567   7.026  0.2478  0.0366  0.1081
 3208TIP3    H131183   4.260   0.662   7.039 -0.5090  0.1184 -0.3664
 3208TIP3    H231184   4.257   0.555   6.931  1.1146 -0.4768  0.1391
 3209TIP3   OH231185   1.492   4.958   7.306 -0.3533  0.7896  0.1748
 3209TIP3    H131186   1.581   4.990   7.321 -0.5686  1.5228 -0.1036
 3209TIP3    H231187   1.469   4.914   7.388  0.2376  0.6612  0.2756
 3210TIP3   OH231188   6.861   4.275   6.172 -0.3245 -0.2962  0.3399
 3210TIP3    H131189   6.866   4.227   6.254  0.1255 -1.4588 -0.3504
 3210TIP3    H231190   6.952   4.294   6.149 -0.3649 -1.0807 -0.5171
 3211TIP3   OH231191   0.854   2.013   6.681 -0.2105 -0.2015 -0.2918
 3211TIP3    H131192   0.829   1.923   6.660 -0.3055 -0.4963  1.0371
 3211TIP3    H231193   0.879   2.051   6.596 -0.1150 -1.4875 -0.8623
 3212TIP3   OH231194   6.824   4.568   1.450  0.1730  0.2720  0.2934
 3212TIP3    H131195   6.823   4.575   1.354 -0.1524  0.0335  0.2795
 3212TIP3    H231196   6.853   4.478   1.466 -0.7840 -0.0176  0.4074
 3213TIP3   OH231197   3.997   5.539   0.476  0.6629 -0.6889 -0.1372
 3213TIP3    H131198   4.024   5.630   0.483 -0.1493 -0.2480 -2.0185
 3213TIP3    H231199   3.921   5.532   0.534  1.2378 -0.4259  0.6730
 3214TIP3   OH231200   1.483   3.478   7.698 -0.3369  0.1820 -0.7248
 3214TIP3    H131201   1.568   3.474   7.654  0.2787  0.5448  0.4060
 3214TIP3    H231202   1.456   3.569   7.690 -0.1253  0.2959 -0.1875
 3215TIP3   OH231203   3.274   6.818   8.192 -0.2201 -0.3299  0.4047
 3215TIP3    H131204   3.210   6.864   8.138  0.7744  0.1679 -0.3876
 3215TIP3    H231205   3.273   6.865   8.275 -2.8018 -1.9701  1.4225
 3216TIP3   OH231206   2.567   3.330   7.973  0.3374 -0.3548  0.4392
 3216TIP3    H131207   2.538   3.258   8.028  0.0151  0.2607  1.0971
 3216TIP3    H231208   2.650   3.301   7.937  0.0806 -1.1570  0.4855
 3217TIP3   OH231209   0.985   4.746   0.962 -0.9055  0.4343  0.1627
 3217TIP3    H131210   0.925   4.753   0.888 -0.9064 -0.0515  0.1158
 3217TIP3    H231211   1.044   4.674   0.939  1.2864  2.4517 -0.9077
 3218TIP3   OH231212   3.117   1.607   0.298  0.9639 -0.6166  0.4186
 3218TIP3    H131213   3.112   1.698   0.270 -0.5928 -0.8843 -0.2839
 3218TIP3    H231214   3.202   1.600   0.342  0.6962  1.3908  1.3456
 3219TIP3   OH231215   5.183   5.398   1.186  0.2875 -0.2819  0.0229
 3219TIP3    H131216   5.161   5.380   1.095  1.0244 -0.1120 -0.1896
 3219TIP3    H231217   5.277   5.415   1.186  0.4530 -1.0745  0.9299
 3220TIP3   OH231218   5.471   2.967   1.074 -0.0901 -0.4627 -0.0175
 3220TIP3    H131219   5.441   3.054   1.048 -2.8124 -1.1906  0.3556
 3220TIP3    H231220   5.438   2.956   1.163 -0.2205 -2.0521 -0.2338
 3221TIP3   OH231221   5.615   6.826   1.569 -0.0675 -0.1731  0.3443
 3221TIP3    H131222   5.563   6.801   1.644 -1.8864  0.1909 -0.7346
 3221TIP3    H231223   5.582   6.771   1.497 -0.2580  1.3217 -0.7725
 3222TIP3   OH231224   2.116   1.435   2.072 -0.0493  0.1386  0.5181
 3222TIP3    H131225   2.029   1.431   2.031  0.1067 -0.6961  0.2428
 3222TIP3    H231226   2.161   1.506   2.026 -1.4023  2.2888  2.3350
 3223TIP3   OH231227   4.037   3.655   6.276  0.1470 -0.2985 -0.6191
 3223TIP3    H131228   4.064   3.600   6.350 -1.0801  0.9140  0.8166
 3223TIP3    H231229   3.967   3.606   6.233 -0.1840 -0.3560 -0.0280
 3224TIP3   OH231230   0.350   2.175   7.988  0.2133  0.1007 -0.4231
 3224TIP3    H131231   0.328   2.199   7.898 -0.2971 -0.3216 -0.4198
 3224TIP3    H231232   0.399   2.094   7.980  0.2254  0.0979 -0.3244
 3225TIP3   OH231233   1.063   5.261   1.429 -0.4047  0.9520  0.5719
 3225TIP3    H131234   0.998   5.271   1.359 -1.1073  0.4094  1.1408
 3225TIP3    H231235   1.037   5.325   1.495  1.0050  2.3776 -0.1845
 3226TIP3   OH231236   3.140   3.753   1.322  0.0992  0.5350  0.5947
 3226TIP3    H131237   3.185   3.675   1.356  1.2215  0.3348 -1.1870
 3226TIP3    H231238   3.121   3.806   1.399  1.6035 -0.3414  1.6189
 3227TIP3   OH231239   6.202   3.120   7.219 -0.3375  0.2626 -0.1366
 3227TIP3    H131240   6.118   3.106   7.175  0.7909 -2.2224 -1.6960
 3227TIP3    H231241   6.210   3.048   7.281  0.7624  0.2796 -0.2269
 3228TIP3   OH231242   3.997   2.887   8.586  0.3139  0.4905 -0.2358
 3228TIP3    H131243   4.087   2.867   8.612  0.2838  3.2205  2.4104
 3228TIP3    H231244   3.943   2.849   8.655 -0.3102  1.6024 -0.0893
 3229TIP3   OH231245   5.846   0.324   1.004  0.7892 -0.0302  0.1518
 3229TIP3    H131246   5.818   0.322   0.913  2.1436  0.7531 -0.3195
 3229TIP3    H231247   5.895   0.405   1.013  1.3309 -0.4547  1.3766
 3230TIP3   OH231248   3.793   6.147   7.586 -0.2780  0.6092  0.2997
 3230TIP3    H131249   3.879   6.125   7.550 -0.3950  0.1968  0.2642
 3230TIP3    H231250   3.736   6.075   7.558 -1.6610  2.7756 -3.2545
 3231TIP3   OH231251   2.426   5.450   6.858  0.0075  0.3761  0.7950
 3231TIP3    H131252   2.340   5.481   6.885 -0.4534 -0.9529  0.9071
 3231TIP3    H231253   2.463   5.523   6.807 -1.3794  0.7755  0.3105
 3232TIP3   OH231254   0.705   2.468   8.538  0.0224 -0.8019  0.4679
 3232TIP3    H131255   0.660   2.500   8.616 -1.7398 -0.1136 -0.7819
 3232TIP3    H231256   0.767   2.537   8.516 -0.5250 -0.3256  0.4092
 3233TIP3   OH231257   5.415   3.387   2.071  0.3509 -0.0816 -0.6824
 3233TIP3    H131258   5.431   3.386   2.166 -0.1293 -2.4351 -0.5669
 3233TIP3    H231259   5.500   3.409   2.033  1.6645 -3.0504  0.2354
 3234TIP3   OH231260   2.679   5.241   0.786 -0.4040  0.2458 -0.1555
 3234TIP3    H131261   2.598   5.191   0.777 -1.0568  1.1876  0.3266
 3234TIP3    H231262   2.666   5.318   0.730  1.3210 -0.9560 -2.3554
 3235TIP3   OH231263   3.896   4.746   6.346 -0.2895  0.2721 -0.0974
 3235TIP3    H131264   3.885   4.748   6.251 -2.2208  1.5219  0.0858
 3235TIP3    H231265   3.893   4.653   6.369 -1.7498  0.0281 -1.1122
 3236TIP3   OH231266   4.330   3.861   1.009  0.2701 -0.4605  0.1450
 3236TIP3    H131267   4.344   3.771   1.037 -0.2710 -0.9465 -1.1010
 3236TIP3    H231268   4.388   3.873   0.934  1.0141  0.5383  0.8405
 3237TIP3   OH231269   4.550   4.892   2.223  0.2516  0.3018 -0.2826
 3237TIP3    H131270   4.551   4.986   2.238 -0.1650  0.1953  0.4415
 3237TIP3    H231271   4.502   4.881   2.141  0.9146  0.7615 -0.7442
 3238TIP3   OH231272   1.122   0.513   2.786 -0.1326  0.4739  0.6188
 3238TIP3    H131273   1.078   0.592   2.754 -0.4779 -0.1365 -0.4563
 3238TIP3    H231274   1.215   0.531   2.773 -0.2747  0.1441 -1.0126
 3239TIP3   OH231275   5.611   0.892   7.221  0.3908 -0.1950  0.1382
 3239TIP3    H131276   5.526   0.933   7.203  1.1951  0.7868 -1.7272
 3239TIP3    H231277   5.665   0.963   7.256  0.9073 -0.4065 -0.2122
 3240TIP3   OH231278   6.008   1.073   8.610  0.1176  0.4269  0.1787
 3240TIP3    H131279   6.050   0.997   8.570 -1.5860 -0.8889  0.7603
 3240TIP3    H231280   5.914   1.054   8.603 -0.3024  1.6649  1.8841
 3241TIP3   OH231281   5.950   6.655   8.254  0.5276  0.0788  0.2650
 3241TIP3    H131282   5.897   6.590   8.300  0.3218  0.7472  0.9945
 3241TIP3    H231283   6.015   6.683   8.318 -1.2487  2.8072  1.0569
 3242TIP3   OH231284   5.810   3.679   1.861 -0.8398  0.5305  0.5456
 3242TIP3    H131285   5.804   3.757   1.806  0.1998 -0.1841 -0.6227
 3242TIP3    H231286   5.814   3.606   1.799  2.7041 -0.1829  1.3989
 3243TIP3   OH231287   1.195   6.160   7.571 -0.9515  0.4723  0.4919
 3243TIP3    H131288   1.244   6.238   7.545  0.3207 -0.3634  0.2875
 3243TIP3    H231289   1.103   6.187   7.568 -0.6043  1.6026 -0.7697
 3244TIP3   OH231290   4.047   0.441   8.422  0.8263 -0.2381  0.5315
 3244TIP3    H131291   4.122   0.431   8.482  0.2741  0.3757  1.3480
 3244TIP3    H231292   4.007   0.523   8.448 -1.5097 -1.6382  1.6764
 3245TIP3   OH231293   1.675   0.789   0.057  0.0123 -0.2161 -0.4428
 3245TIP3    H131294   1.632   0.719   0.105  0.2244 -0.2254 -0.2647
 3245TIP3    H231295   1.665   0.866   0.112 -1.2468  0.1715 -1.1737
 3246TIP3   OH231296   2.591   5.810   6.051  0.0041 -0.1440  0.4422
 3246TIP3    H131297   2.661   5.757   6.013 -0.5075 -0.8878  0.5134
 3246TIP3    H231298   2.535   5.746   6.096 -1.3107  0.2933 -0.5165
 3247TIP3   OH231299   1.191   2.360   1.676  0.3572 -0.8998  0.2429
 3247TIP3    H131300   1.246   2.394   1.748  1.5457 -0.3735 -0.8709
 3247TIP3    H231301   1.207   2.266   1.677  1.6737 -0.7129 -0.3293
 3248TIP3   OH231302   3.439   3.064   7.639 -0.9351 -0.6089 -0.5777
 3248TIP3    H131303   3.375   3.076   7.569 -0.5150  3.8674 -0.4509
 3248TIP3    H231304   3.413   3.126   7.707  1.9445 -0.6435  0.7114
 3249TIP3   OH231305   5.588   0.801   1.962 -0.6859 -0.5257  0.3127
 3249TIP3    H131306   5.655   0.866   1.983  1.2013 -1.7080 -1.7410
 3249TIP3    H231307   5.591   0.739   2.035  2.3029 -1.9080 -0.8300
 3250TIP3   OH231308   1.950   2.244   7.077 -0.1713  0.4774 -0.1414
 3250TIP3    H131309   2.006   2.171   7.100 -0.1251  0.3139 -0.7640
 3250TIP3    H231310   1.992   2.284   7.001 -1.6036 -0.4911 -1.5173
 3251TIP3   OH231311   3.347   1.013   0.045 -0.0397  0.3322  0.1653
 3251TIP3    H131312   3.327   1.064   0.123  1.9106 -1.9319  2.3042
 3251TIP3    H231313   3.267   0.963   0.028 -0.8816  1.7096 -0.0670
 3252TIP3   OH231314   4.377   6.780   7.908 -0.3464  0.4928 -0.3014
 3252TIP3    H131315   4.400   6.717   7.839  0.0423  2.3435 -1.9764
 3252TIP3    H231316   4.282   6.774   7.916 -0.5553  1.1239 -1.9620
 3253TIP3   OH231317   4.313   5.008   1.865  0.0181 -0.0642  0.4413
 3253TIP3    H131318   4.407   5.028   1.858 -0.3083  1.3661 -0.1126
 3253TIP3    H231319   4.309   4.940   1.933  1.5278 -0.8172 -0.1582
 3254TIP3   OH231320   1.275   4.723   8.579  0.0692  0.5889  0.0661
 3254TIP3    H131321   1.332   4.646   8.583 -1.5999 -0.6650  1.5838
 3254TIP3    H231322   1.244   4.726   8.489 -0.1518 -0.7717  0.0834
 3255TIP3   OH231323   3.312   2.608   1.613 -0.0836  0.2018  0.0791
 3255TIP3    H131324   3.359   2.690   1.631  0.2871  0.1114 -0.4613
 3255TIP3    H231325   3.243   2.633   1.551 -1.7622  0.6373  1.9809
 3256TIP3   OH231326   0.249   2.784   1.762  0.7362  0.4204 -0.4731
 3256TIP3    H131327   0.241   2.856   1.824 -0.4587  0.6289 -0.8517
 3256TIP3    H231328   0.311   2.723   1.803  0.2133  0.7087  0.7702
 3257TIP3   OH231329   2.771   1.216   0.925 -0.5630  0.6011  0.6446
 3257TIP3    H131330   2.852   1.256   0.957  0.3218 -1.0863  0.6569
 3257TIP3    H231331   2.796   1.126   0.905 -1.6861  0.8689 -2.4398
 3258TIP3   OH231332   6.882   5.191   7.134 -0.0488  0.8056  0.2699
 3258TIP3    H131333   6.920   5.268   7.091 -1.3049  2.0113  1.2248
 3258TIP3    H231334   6.812   5.163   7.075  0.5919  0.1753 -0.2194
 3259TIP3   OH231335   4.338   1.219   0.885  0.1662 -0.0054 -0.4500
 3259TIP3    H131336   4.291   1.291   0.844  2.1627  1.3197 -0.5385
 3259TIP3    H231337   4.362   1.252   0.971  1.4220 -0.4069 -0.6307
 3260TIP3   OH231338   0.570   1.930   6.933 -0.1982  0.2416 -0.2423
 3260TIP3    H131339   0.481   1.895   6.923  0.3352 -1.8867  1.6757
 3260TIP3    H231340   0.611   1.914   6.848 -1.4092  0.6401 -0.9365
 3261TIP3   OH231341   2.191   6.736   7.864  0.6873  1.0468 -0.3815
 3261TIP3    H131342   2.222   6.666   7.806 -0.5925  0.8573 -0.8703
 3261TIP3    H231343   2.119   6.776   7.816 -0.0345  1.2571  0.8438
 3262TIP3   OH231344   4.106   0.651   2.122 -0.0094  0.0965  0.0267
 3262TIP3    H131345   4.183   0.604   2.154 -0.0638 -0.3676 -0.5104
 3262TIP3    H231346   4.036   0.585   2.122 -0.6531  0.7425  1.4067
 3263TIP3   OH231347   3.104   2.789   1.921  0.2098 -0.0653  0.1771
 3263TIP3    H131348   3.152   2.850   1.976  0.0855 -0.5609  0.8573
 3263TIP3    H231349   3.140   2.703   1.944 -2.9216 -0.8491  2.9321
 3264TIP3   OH231350   4.774   2.503   7.453 -0.5852 -0.1235 -0.1670
 3264TIP3    H131351   4.860   2.544   7.443 -0.3806 -0.2461  1.0354
 3264TIP3    H231352   4.767   2.446   7.376  0.9539 -1.0775  0.3484
 3265TIP3   OH231353   5.079   5.178   8.644  0.1506 -1.3058 -0.1006
 3265TIP3    H131354   5.095   5.250   8.582  1.5649 -1.1625  0.4164
 3265TIP3    H231355   5.014   5.123   8.599 -1.4814  0.6004 -0.2361
 3266TIP3   OH231356   0.300   0.665   1.346 -0.4136  0.6701 -0.1162
 3266TIP3    H131357   0.300   0.621   1.431  1.6985  1.7142  0.5108
 3266TIP3    H231358   0.264   0.752   1.364 -1.8713  0.2317 -0.7534
 3267TIP3   OH231359   2.959   2.007   1.057  0.0693 -0.2055  0.3652
 3267TIP3    H131360   2.950   1.914   1.080  0.2955 -0.5075 -0.7068
 3267TIP3    H231361   3.015   2.043   1.126 -0.1767 -0.8223  0.8994
 3268TIP3   OH231362   1.123   3.209   7.457 -0.7344  0.2254 -0.9308
 3268TIP3    H131363   1.132   3.130   7.404  1.1053  0.1844 -0.6184
 3268TIP3    H231364   1.109   3.177   7.546 -2.1116  0.2914 -1.0984
 3269TIP3   OH231365   0.558   4.150   8.006 -0.0156 -0.1677  0.3690
 3269TIP3    H131366   0.634   4.197   8.040 -1.3243  2.3821 -0.0122
 3269TIP3    H231367   0.489   4.166   8.071 -0.9091 -0.3399 -0.5150
 3270TIP3   OH231368   4.005   2.009   7.510 -0.1811 -0.1262  0.6310
 3270TIP3    H131369   4.097   2.025   7.488 -0.3207  0.1793  0.2683
 3270TIP3    H231370   3.960   2.090   7.489 -0.1926  0.5346  2.9335
 3271TIP3   OH231371   1.474   2.018   1.638 -0.2240  0.0498 -0.0885
 3271TIP3    H131372   1.537   2.090   1.628  1.3169 -0.5707  3.5213
 3271TIP3    H231373   1.511   1.946   1.587 -0.0561  0.8135 -1.0740
 3272TIP3   OH231374   4.472   0.016   7.389 -0.3422  0.3378  0.0082
 3272TIP3    H131375   4.499   0.095   7.343  0.2642 -0.3007 -0.7626
 3272TIP3    H231376   4.555  -0.028   7.410 -0.6022  0.5624  1.6320
 3273TIP3   OH231377   2.563   6.773   7.260 -0.1702 -0.1793  0.7564
 3273TIP3    H131378   2.495   6.816   7.311 -1.7532 -1.9945  0.2895
 3273TIP3    H231379   2.598   6.705   7.318  0.7450  0.2399  0.7249
 3274TIP3   OH231380   4.916   0.625   1.744 -0.4799 -0.2585 -0.4563
 3274TIP3    H131381   4.861   0.657   1.816 -0.2425 -1.0062  0.0669
 3274TIP3    H231382   4.853   0.607   1.674 -0.6921  0.6555 -0.5153
 3275TIP3   OH231383   2.572   6.225   0.805 -0.0610  0.5980  0.4775
 3275TIP3    H131384   2.543   6.301   0.756 -0.1616 -0.0118 -0.4434
 3275TIP3    H231385   2.584   6.157   0.739 -1.4753 -0.6420  1.4248
 3276TIP3   OH231386   0.386   6.029   8.533  0.2806  0.3648  0.1406
 3276TIP3    H131387   0.320   6.030   8.603 -1.2058 -1.3677 -1.1382
 3276TIP3    H231388   0.469   6.023   8.580 -0.6242 -0.0595  1.7929
 3277TIP3   OH231389   6.485   1.589   8.398  0.2675  0.1413  0.6789
 3277TIP3    H131390   6.533   1.557   8.322  0.0869  1.4358 -0.0187
 3277TIP3    H231391   6.549   1.589   8.469  0.8792  0.3928  0.1380
 3278TIP3   OH231392   2.022   0.376   6.716  0.3705 -0.1370 -0.3209
 3278TIP3    H131393   1.980   0.332   6.643  0.5002 -1.7571  0.5306
 3278TIP3    H231394   1.972   0.457   6.727 -0.0899 -0.1956 -1.7302
 3279TIP3   OH231395   5.088   3.722   8.545  0.3595  0.3133  0.2788
 3279TIP3    H131396   5.107   3.801   8.595  1.2935 -0.3067  0.9355
 3279TIP3    H231397   5.173   3.689   8.517 -0.0449 -0.2255 -0.3763
 3280TIP3   OH231398   3.327   5.990   7.155 -0.1168  0.2977 -0.4683
 3280TIP3    H131399   3.395   6.029   7.101 -0.9198 -0.8224 -2.4172
 3280TIP3    H231400   3.367   5.910   7.191 -0.2111 -0.0662 -1.1564
 3281TIP3   OH231401   1.894   5.103   0.663  0.2161  0.3910  0.1563
 3281TIP3    H131402   1.849   5.081   0.581 -0.1074  0.5421  0.2924
 3281TIP3    H231403   1.864   5.036   0.725  1.0615 -0.1910 -0.0500
 3282TIP3   OH231404   4.355   2.785   7.682  0.4311  0.1307 -0.7683
 3282TIP3    H131405   4.382   2.728   7.610 -0.7306 -0.6364 -0.6171
 3282TIP3    H231406   4.436   2.829   7.709  1.4799 -1.8087 -0.5680
 3283TIP3   OH231407   2.393   1.744   0.338  0.3838  0.2840  0.0508
 3283TIP3    H131408   2.399   1.819   0.397  0.7716  0.6390 -0.4299
 3283TIP3    H231409   2.329   1.770   0.272  1.2574  0.6201 -0.6999
 3284TIP3   OH231410   3.287   6.656   1.599  0.2501  0.0708  0.2889
 3284TIP3    H131411   3.381   6.668   1.613  0.0527 -1.0111  3.1687
 3284TIP3    H231412   3.255   6.615   1.679 -2.2996 -1.9106 -1.5640
 3285TIP3   OH231413   5.765   0.412   1.556  0.0963 -0.5089  0.1576
 3285TIP3    H131414   5.735   0.496   1.520 -0.0904 -0.7562 -0.2788
 3285TIP3    H231415   5.706   0.347   1.517  1.3820 -1.0450 -0.9904
 3286TIP3   OH231416   4.045   0.160   8.653  0.0427  0.0338  0.3568
 3286TIP3    H131417   4.107   0.095   8.621 -0.9780 -0.7654 -0.0502
 3286TIP3    H231418   4.016   0.207   8.574  0.9907  1.2129  0.6730
 3287TIP3   OH231419   0.122   5.214   8.280 -0.4495  0.9295  0.2119
 3287TIP3    H131420   0.130   5.310   8.276  1.6971  0.8926  1.8869
 3287TIP3    H231421   0.098   5.196   8.371  1.0513 -0.1539  0.4367
 3288TIP3   OH231422   2.742   6.023   7.817  0.3396 -0.2468  0.2346
 3288TIP3    H131423   2.764   5.968   7.892  0.5576  0.5342  0.7654
 3288TIP3    H231424   2.790   5.986   7.744 -1.0199 -1.9191  0.1326
 3289TIP3   OH231425   3.251   6.598   6.929 -0.6911 -0.1038 -0.3711
 3289TIP3    H131426   3.195   6.550   6.868 -0.2373 -0.9635 -0.1269
 3289TIP3    H231427   3.338   6.597   6.888 -0.4781 -0.3111  0.0795
 3290TIP3   OH231428   2.913   3.681   1.212 -0.5063 -0.5825 -0.1156
 3290TIP3    H131429   2.951   3.600   1.246 -1.4696 -0.7865  0.5032
 3290TIP3    H231430   2.976   3.748   1.235 -1.2654 -0.6502  2.4604
 3291TIP3   OH231431   5.637   2.783   0.911  0.3634 -0.4693 -0.2577
 3291TIP3    H131432   5.717   2.836   0.904  0.8913 -1.1320  0.5631
 3291TIP3    H231433   5.581   2.833   0.970  0.6538 -0.5762  0.1115
 3292TIP3   OH231434   6.356   3.682   8.512  0.0728  0.3351 -0.4836
 3292TIP3    H131435   6.440   3.706   8.472 -0.3098 -0.8154 -2.0463
 3292TIP3    H231436   6.337   3.595   8.479 -1.9960  0.7675 -0.5934
 3293TIP3   OH231437   6.782   0.481   7.035 -0.3825  0.0229  0.6236
 3293TIP3    H131438   6.739   0.396   7.032  0.0835 -0.2212  0.8344
 3293TIP3    H231439   6.810   0.497   6.945 -0.5994  0.0243  0.5550
 3294TIP3   OH231440   6.877   0.484   1.727 -0.3001 -0.2492  0.1804
 3294TIP3    H131441   6.847   0.444   1.646 -1.1611 -0.0821  0.4106
 3294TIP3    H231442   6.948   0.542   1.701 -0.0440 -0.7852 -0.3454
 3295TIP3   OH231443   1.334   5.117   2.007  0.4377 -0.0212 -0.5395
 3295TIP3    H131444   1.426   5.141   1.998  0.6026 -1.1095 -2.2585
 3295TIP3    H231445   1.286   5.199   1.992  1.1053  0.4539 -0.1237
 3296TIP3   OH231446   4.093   2.598   7.484 -0.5711 -0.2362 -0.0799
 3296TIP3    H131447   4.106   2.527   7.548  0.9850 -1.3511 -1.5380
 3296TIP3    H231448   4.052   2.555   7.409  0.1635  0.4518 -0.8931
 3297TIP3   OH231449   1.163   4.430   8.177  0.3091  0.3009 -0.6150
 3297TIP3    H131450   1.119   4.385   8.104 -0.4103  1.1798 -0.7440
 3297TIP3    H231451   1.220   4.363   8.215 -1.2951 -0.9818 -0.3050
 3298TIP3   OH231452   3.223   2.944   1.511  0.0635 -0.1191 -0.1502
 3298TIP3    H131453   3.195   2.979   1.595 -1.3914  0.3005 -0.7864
 3298TIP3    H231454   3.161   2.874   1.492  1.4252 -1.4052 -0.0876
 3299TIP3   OH231455   6.166   0.147   1.466  0.1666 -0.1295  0.1190
 3299TIP3    H131456   6.255   0.120   1.489  0.5193  2.4678  2.3280
 3299TIP3    H231457   6.109   0.090   1.518  0.5139 -1.2076 -0.6372
 3300TIP3   OH231458   4.748   5.262   0.967  0.4860 -0.1189 -0.0783
 3300TIP3    H131459   4.759   5.301   1.053  0.4358 -0.4747  0.0942
 3300TIP3    H231460   4.747   5.336   0.906  0.8355  0.1152  0.1953
 3301TIP3   OH231461   6.356   5.649   7.698  0.2384 -0.2154 -0.4070
 3301TIP3    H131462   6.285   5.695   7.742 -1.4163 -2.6662 -0.2929
 3301TIP3    H231463   6.343   5.668   7.605 -1.3619 -1.5129 -0.5062
 3302TIP3   OH231464   1.284   1.733   0.366  0.0628 -0.0789 -0.0151
 3302TIP3    H131465   1.261   1.699   0.452  0.5798 -0.7663 -0.1390
 3302TIP3    H231466   1.378   1.751   0.371  0.3738 -1.3155 -0.7977
 3303TIP3   OH231467   4.353   4.798   7.260  0.3444 -0.0248 -0.4494
 3303TIP3    H131468   4.431   4.763   7.303  1.2524  0.2870 -1.8025
 3303TIP3    H231469   4.369   4.892   7.254 -0.0077  0.0039 -0.9838
 3304TIP3   OH231470   2.557   1.151   0.373 -0.0408  0.6142  0.0007
 3304TIP3    H131471   2.569   1.068   0.420  0.2155  0.5428 -0.1893
 3304TIP3    H231472   2.587   1.133   0.284 -0.7102  0.6917 -0.2523
 3305TIP3   OH231473   0.339   4.976   1.232  0.1844 -0.5664 -0.1293
 3305TIP3    H131474   0.263   4.918   1.225  0.4442 -1.4540  2.9827
 3305TIP3    H231475   0.412   4.926   1.194  0.1853 -1.8914  1.5289
 3306TIP3   OH231476   5.074   6.141   6.277 -0.6690 -0.0605 -0.1332
 3306TIP3    H131477   5.161   6.121   6.314 -1.2158 -0.0810  1.1896
 3306TIP3    H231478   5.045   6.058   6.240 -0.4730 -0.2713  0.1759
 3307TIP3   OH231479   1.688   1.358   0.136 -0.5563  0.1316 -0.3103
 3307TIP3    H131480   1.617   1.420   0.118  0.4728  0.9196 -1.8810
 3307TIP3    H231481   1.680   1.292   0.067 -1.4734 -1.4035  1.1893
 3308TIP3   OH231482   0.213   5.781   1.134 -0.3293 -0.2428  0.4249
 3308TIP3    H131483   0.148   5.747   1.072 -0.2858  1.4181 -0.6108
 3308TIP3    H231484   0.177   5.865   1.162  1.1516  0.5072  0.1724
 3309TIP3   OH231485   6.137   0.558   7.441 -0.2639 -0.0188  0.2006
 3309TIP3    H131486   6.078   0.483   7.432 -0.2169 -0.1613  0.9804
 3309TIP3    H231487   6.224   0.523   7.419 -0.3563 -0.0074 -0.1747
 3310TIP3   OH231488   1.635   0.364   1.202 -0.0192 -0.1799  0.1173
 3310TIP3    H131489   1.708   0.316   1.241  1.0384  0.4021 -1.0720
 3310TIP3    H231490   1.627   0.329   1.113 -0.6133  0.3785 -0.0576
 3311TIP3   OH231491   6.891   2.144   1.477 -0.2089  0.1476 -0.7420
 3311TIP3    H131492   6.946   2.075   1.513  0.5872  1.6651  1.1617
 3311TIP3    H231493   6.822   2.098   1.430 -1.2000 -2.0739  2.5350
 3312TIP3   OH231494   5.629   6.476   0.556  0.1484 -0.9320  0.3713
 3312TIP3    H131495   5.536   6.470   0.577 -0.1855  2.4331  0.4327
 3312TIP3    H231496   5.635   6.451   0.464 -0.6941 -1.8688  0.5620
 3313TIP3   OH231497   4.212   5.834   1.446 -0.4704  0.2477 -0.0754
 3313TIP3    H131498   4.279   5.901   1.429  0.6150 -1.1194 -1.4546
 3313TIP3    H231499   4.258   5.765   1.493 -1.3574  0.0516  0.5262
 3314TIP3   OH231500   5.191   4.530   7.366 -0.1583 -0.2017 -0.3161
 3314TIP3    H131501   5.229   4.528   7.454 -1.7304 -0.1439  0.3996
 3314TIP3    H231502   5.116   4.589   7.374 -0.3831 -0.2786 -1.6794
 3315TIP3   OH231503   0.752   3.915   0.639 -0.1183 -0.6027 -0.2706
 3315TIP3    H131504   0.729   4.008   0.628  1.5559 -0.1457 -0.2605
 3315TIP3    H231505   0.724   3.874   0.557  0.3199  0.1998 -0.8535
 3316TIP3   OH231506   6.308   1.312   6.275 -0.0491  0.7058  0.1254
 3316TIP3    H131507   6.229   1.356   6.244 -0.2264 -0.4225 -1.1401
 3316TIP3    H231508   6.328   1.354   6.359 -1.1874  1.9536 -0.1933
 3317TIP3   OH231509   2.319   2.182   1.874 -0.0886 -0.7890  0.3409
 3317TIP3    H131510   2.282   2.255   1.924  0.0628 -0.7775  0.4363
 3317TIP3    H231511   2.273   2.185   1.790  0.4463 -0.1157  0.0579
 3318TIP3   OH231512   0.667   6.854   0.918  0.3732  0.6895  0.3276
 3318TIP3    H131513   0.606   6.898   0.978  1.2974  2.4692  0.0261
 3318TIP3    H231514   0.745   6.910   0.917  0.5002  0.5989 -2.3238
 3319TIP3   OH231515   6.652   4.879   0.089  0.4027 -0.9088  0.0817
 3319TIP3    H131516   6.663   4.827   0.009  0.1669 -1.7350  0.5694
 3319TIP3    H231517   6.741   4.909   0.110  0.4999 -0.8725 -0.3571
 3320TIP3   OH231518   1.199   4.427   1.014 -0.0410 -0.1957  0.0512
 3320TIP3    H131519   1.160   4.408   1.100 -0.8358 -1.1021 -0.4849
 3320TIP3    H231520   1.293   4.429   1.030 -0.1499 -0.9074  0.8603
 3321TIP3   OH231521   5.955   5.273   1.375  0.6510  0.1104  0.2701
 3321TIP3    H131522   6.019   5.209   1.346  0.8121 -0.2195  1.3094
 3321TIP3    H231523   5.875   5.251   1.327  1.3833  0.7794 -1.3551
 3322TIP3   OH231524   1.053   5.619   0.094 -0.1116  0.0632 -0.2565
 3322TIP3    H131525   0.976   5.641   0.041  0.5203  0.3550 -1.0689
 3322TIP3    H231526   1.047   5.677   0.170  0.6639  1.9648 -1.5788
 3323TIP3   OH231527   6.763   4.759   8.066  0.1025  0.6149 -0.3116
 3323TIP3    H131528   6.704   4.814   8.118  0.8416  1.6346 -0.5020
 3323TIP3    H231529   6.757   4.794   7.977 -0.4433 -0.5143 -0.7329
 3324TIP3   OH231530   3.908   5.427   7.690 -0.8582 -0.3645  0.1442
 3324TIP3    H131531   3.974   5.358   7.700  0.4376  0.5957 -1.3426
 3324TIP3    H231532   3.881   5.422   7.598 -0.1424  1.5916 -0.2199
 3325TIP3   OH231533   1.604   3.136   0.248  0.4612  0.1111 -0.2650
 3325TIP3    H131534   1.633   3.131   0.339 -1.1601  0.8486  0.3179
 3325TIP3    H231535   1.539   3.067   0.240 -2.1009  2.3289  0.2209
 3326TIP3   OH231536   5.819   4.293   8.561 -0.3896 -0.0969 -0.0607
 3326TIP3    H131537   5.832   4.323   8.471 -0.0309  0.0471  0.0403
 3326TIP3    H231538   5.730   4.321   8.583  0.1024  1.3275  0.2002
 3327TIP3   OH231539   1.137   6.365   8.525 -0.9106 -0.1747  0.5056
 3327TIP3    H131540   1.200   6.294   8.538  0.6936  1.3018  1.0457
 3327TIP3    H231541   1.189   6.438   8.492 -2.6334  0.5711 -0.6983
 3328TIP3   OH231542   4.835   0.220   8.088 -0.3397  0.5180 -0.2045
 3328TIP3    H131543   4.828   0.258   8.176 -1.4192  0.6718 -0.3393
 3328TIP3    H231544   4.915   0.168   8.091  0.6923  2.0432  0.2681
 3329TIP3   OH231545   5.944   5.664   1.938 -0.4170  0.0129  0.1531
 3329TIP3    H131546   5.894   5.745   1.946 -1.2095 -0.5562  1.1654
 3329TIP3    H231547   5.914   5.626   1.855 -1.9455 -0.4916  0.9076
 3330TIP3   OH231548   6.063   5.182   7.485  0.3252 -0.0034 -0.0654
 3330TIP3    H131549   6.097   5.117   7.424 -1.5298 -0.9545 -0.1504
 3330TIP3    H231550   6.113   5.168   7.565  0.3605 -1.1527 -0.2700
 3331TIP3   OH231551   5.495   2.040   8.179 -0.0342 -0.2073 -0.2351
 3331TIP3    H131552   5.511   1.984   8.255  0.9822  1.1537  0.5920
 3331TIP3    H231553   5.494   2.129   8.214  0.5820  0.4637 -1.8293
 3332TIP3   OH231554   1.385   1.220   1.063  0.1609  0.0588 -0.6467
 3332TIP3    H131555   1.310   1.224   1.004  0.3882 -0.4753 -0.9704
 3332TIP3    H231556   1.415   1.129   1.059 -0.2721 -0.1804  0.8458
 3333TIP3   OH231557   6.833   1.793   7.290 -0.2210 -0.0079 -0.7874
 3333TIP3    H131558   6.900   1.861   7.288  1.4038 -1.5341 -1.6682
 3333TIP3    H231559   6.761   1.828   7.239  0.1402  1.4397 -0.3423
 3334TIP3   OH231560   5.037   2.793   1.219  0.1061  0.0223 -0.0454
 3334TIP3    H131561   5.030   2.875   1.268  1.1406  1.9501 -2.8672
 3334TIP3    H231562   5.129   2.768   1.226 -0.0358 -0.4842  0.1145
 3335TIP3   OH231563   5.742   1.743   8.559 -0.0658  0.0161  0.1292
 3335TIP3    H131564   5.758   1.812   8.622  0.4060  0.7387 -0.7620
 3335TIP3    H231565   5.828   1.705   8.541 -0.1648 -0.0512 -0.2298
 3336TIP3   OH231566   2.522   0.048   8.218  0.5900  0.4976 -0.7401
 3336TIP3    H131567   2.427   0.050   8.205  0.5891  1.9442 -0.6441
 3336TIP3    H231568   2.547  -0.042   8.198 -1.1485 -0.6717  1.8059
 3337TIP3   OH231569   2.167   5.377   8.058 -0.1469 -0.1599  0.5529
 3337TIP3    H131570   2.192   5.451   8.003  2.3450  0.3286  2.1553
 3337TIP3    H231571   2.092   5.409   8.108 -1.5520 -0.1329 -1.4682
 3338TIP3   OH231572   2.799   1.055   7.739  0.6023  0.3304 -0.0230
 3338TIP3    H131573   2.877   1.016   7.778 -0.0511  1.0822  2.2184
 3338TIP3    H231574   2.755   0.983   7.695  3.0490  0.1084 -2.3262
 3339TIP3   OH231575   2.076   4.271   0.881 -0.1309  0.2843  0.4604
 3339TIP3    H131576   2.027   4.281   0.963  1.7969 -1.3829  1.9125
 3339TIP3    H231577   2.166   4.296   0.904  0.9587 -2.5220 -0.4472
 3340TIP3   OH231578   3.893   3.725   6.535 -0.0071  0.9903  0.2060
 3340TIP3    H131579   3.951   3.679   6.595 -2.3679 -1.6638  0.6561
 3340TIP3    H231580   3.937   3.720   6.450 -0.2444 -2.5395  0.1697
 3341TIP3   OH231581   6.151   5.840   0.555  0.8790 -0.1389 -0.2100
 3341TIP3    H131582   6.114   5.906   0.497  2.2618  0.2307 -0.7165
 3341TIP3    H231583   6.237   5.821   0.517  1.9972  0.4036  1.9182
 3342TIP3   OH231584   2.964   6.114   2.063 -0.0336 -0.4088 -0.0255
 3342TIP3    H131585   3.037   6.145   2.010  0.2613 -2.0737 -0.6409
 3342TIP3    H231586   3.000   6.041   2.113 -0.9267 -0.3526  0.7347
 3343TIP3   OH231587   6.861   3.438   8.184  0.0718 -0.2167  0.2114
 3343TIP3    H131588   6.794   3.401   8.127 -0.0674  1.0907 -0.5213
 3343TIP3    H231589   6.825   3.430   8.272  0.0691 -1.8137  0.0920
 3344TIP3   OH231590   5.226   4.662   0.463  0.1221  0.7400  0.3824
 3344TIP3    H131591   5.169   4.730   0.427 -0.3956  1.0151  1.6691
 3344TIP3    H231592   5.168   4.608   0.517  0.8720  0.3198  0.7804
 3345TIP3   OH231593   5.866   5.429   8.462 -0.3378 -0.0174  0.3425
 3345TIP3    H131594   5.917   5.462   8.388 -0.8538  1.0594  0.4391
 3345TIP3    H231595   5.780   5.409   8.426 -1.3350  2.6679  0.9946
 3346TIP3   OH231596   3.601   3.780   7.098 -0.2251 -0.4732  0.6845
 3346TIP3    H131597   3.591   3.837   7.175  2.7784  0.2092  0.7010
 3346TIP3    H231598   3.622   3.694   7.136 -0.2412 -0.4996  0.6326
 3347TIP3   OH231599   6.798   0.216   6.620  0.5709 -0.2826  0.1821
 3347TIP3    H131600   6.856   0.216   6.543  0.0845  2.1326 -0.2773
 3347TIP3    H231601   6.711   0.200   6.583  0.5623 -0.8851  0.4668
 3348TIP3   OH231602   2.161   2.921   0.320  0.5527 -0.1067 -0.0659
 3348TIP3    H131603   2.097   2.985   0.351  0.7214  0.1986 -0.3430
 3348TIP3    H231604   2.237   2.932   0.377  0.7421  0.2351 -0.3795
 3349TIP3   OH231605   4.604   2.725   7.976 -0.1906 -0.5346  0.8968
 3349TIP3    H131606   4.590   2.701   7.884  1.1346 -1.2625  0.8466
 3349TIP3    H231607   4.626   2.818   7.974 -0.3638 -0.5025  0.4864
 3350TIP3   OH231608   1.378   5.421   8.358  0.2246  0.0004  0.3597
 3350TIP3    H131609   1.352   5.427   8.449  0.3625  1.5104  0.3249
 3350TIP3    H231610   1.469   5.451   8.357  0.4456 -0.6364 -0.1964
 3351TIP3   OH231611   1.889   1.159   6.880  0.1384  0.1512  0.8257
 3351TIP3    H131612   1.833   1.083   6.866 -0.1000  0.4415  0.2192
 3351TIP3    H231613   1.937   1.138   6.960  0.0054 -0.5983  0.7133
 3352TIP3   OH231614   6.238   0.074   0.116  0.1214 -0.0004  0.1137
 3352TIP3    H131615   6.160   0.128   0.129 -0.6123 -0.8718 -0.5351
 3352TIP3    H231616   6.311   0.135   0.125 -0.5064  0.4716  2.7229
 3353TIP3   OH231617   1.739   3.620   8.580  0.1825  0.0452 -0.4636
 3353TIP3    H131618   1.813   3.567   8.611 -0.6664  0.3471  2.3031
 3353TIP3    H231619   1.662   3.567   8.596 -0.4773  1.0710 -0.1438
 3354TIP3   OH231620   5.904   1.185   0.411  0.4628  0.3254 -0.0969
 3354TIP3    H131621   5.998   1.190   0.397  0.3149  0.9311 -0.9565
 3354TIP3    H231622   5.882   1.094   0.388  0.6226  0.5951 -1.3932
 3355TIP3   OH231623   5.006   0.323   0.360 -0.0973 -0.2395 -0.3429
 3355TIP3    H131624   4.925   0.274   0.370  0.0739 -0.1689  1.6594
 3355TIP3    H231625   5.063   0.291   0.429 -0.0470  2.8319  1.2276
 3356TIP3   OH231626   0.879   6.671   7.132 -0.3738 -0.3647  0.6733
 3356TIP3    H131627   0.899   6.714   7.048 -0.8869  0.5560  1.0095
 3356TIP3    H231628   0.891   6.577   7.114 -0.7238 -0.2061 -0.5040
 3357TIP3   OH231629   5.607   1.985   7.037 -0.3110  0.1540 -0.7292
 3357TIP3    H131630   5.602   2.058   6.975  0.9750  0.4965 -0.4659
 3357TIP3    H231631   5.573   1.910   6.989  2.7428 -0.1108 -2.7191
 3358TIP3   OH231632   0.571   4.914   7.508  0.1339 -0.0495 -0.7256
 3358TIP3    H131633   0.565   4.981   7.441 -1.6313 -0.4592 -1.0303
 3358TIP3    H231634   0.657   4.875   7.496  0.0321  0.1930 -2.4553
 3359TIP3   OH231635   1.185   0.111   7.939 -0.4576  0.0075  0.0785
 3359TIP3    H131636   1.267   0.073   7.908 -0.3515 -1.0868  1.5865
 3359TIP3    H231637   1.202   0.206   7.940 -0.1834  0.0213 -2.2071
 3360TIP3   OH231638   5.593   6.505   0.244 -0.1070 -0.1922 -0.2878
 3360TIP3    H131639   5.586   6.580   0.185 -2.1033  1.3881  1.7473
 3360TIP3    H231640   5.502   6.477   0.258  0.2703 -0.4990  1.9643
 3361TIP3   OH231641   2.570   3.416   8.323 -0.1343 -0.2993 -0.5776
 3361TIP3    H131642   2.532   3.340   8.279 -0.4867  1.0647 -2.7948
 3361TIP3    H231643   2.664   3.403   8.317 -0.1932 -1.2449  0.3700
 3362TIP3   OH231644   1.146   0.090   1.652 -0.0814 -0.0554 -0.2826
 3362TIP3    H131645   1.203   0.023   1.614 -1.3384 -1.6599  0.5384
 3362TIP3    H231646   1.147   0.072   1.746  0.8011  2.1254  0.1910
 3363TIP3   OH231647   3.355   0.767   7.856 -0.0342 -0.1265 -0.0637
 3363TIP3    H131648   3.345   0.679   7.819 -0.7959  0.0763 -0.3675
 3363TIP3    H231649   3.439   0.798   7.823  0.8051 -1.2023  1.0272
 3364TIP3   OH231650   2.001   6.339   1.295 -1.1358 -0.1591  0.1869
 3364TIP3    H131651   2.024   6.246   1.294  1.1629  0.3345  0.8002
 3364TIP3    H231652   1.959   6.352   1.380  0.1123 -0.3489  0.8650
 3365TIP3   OH231653   1.493   6.695   2.039  0.1090  0.2422  0.7031
 3365TIP3    H131654   1.514   6.661   1.952  1.7802  1.7270  0.4596
 3365TIP3    H231655   1.441   6.773   2.023 -0.3718  0.0117  1.0964
 3366TIP3   OH231656   6.394   0.129   1.656  0.1785  0.1575  0.0466
 3366TIP3    H131657   6.308   0.121   1.697  0.7871 -1.9122  1.0923
 3366TIP3    H231658   6.445   0.182   1.718  0.3962 -0.9184  0.8246
 3367TIP3   OH231659   0.740   0.768   0.013  0.0405 -0.0559 -0.1036
 3367TIP3    H131660   0.745   0.778  -0.082 -0.4518  0.6548 -0.0688
 3367TIP3    H231661   0.684   0.841   0.041 -1.6705 -1.5323  0.5037
 3368TIP3   OH231662   6.040   0.738   8.158 -0.3214 -0.2329 -0.3651
 3368TIP3    H131663   6.042   0.731   8.062 -0.4343  0.9969 -0.4736
 3368TIP3    H231664   5.978   0.809   8.175 -0.6308 -0.7312  0.6440
 3369TIP3   OH231665   2.482   4.099   7.271 -0.7785 -0.1120 -0.1419
 3369TIP3    H131666   2.416   4.060   7.214 -0.3877  0.7079 -1.1857
 3369TIP3    H231667   2.452   4.079   7.360 -0.9037 -2.2443 -0.6127
 3370TIP3   OH231668   2.357   5.277   1.810  0.4820  0.1296  0.3571
 3370TIP3    H131669   2.303   5.235   1.743 -0.0334 -0.4230  1.0929
 3370TIP3    H231670   2.411   5.206   1.845  0.5256  0.3439  0.7258
 3371TIP3   OH231671   1.806   0.238   8.089  0.5708  0.1017 -0.3999
 3371TIP3    H131672   1.722   0.223   8.046 -0.5283 -0.4291  1.8161
 3371TIP3    H231673   1.786   0.299   8.160  1.9272 -0.5534  0.5827
 3372TIP3   OH231674   1.173   2.971   7.301  0.4869  0.1566  0.1547
 3372TIP3    H131675   1.248   2.912   7.295 -0.1307 -0.6138 -0.2072
 3372TIP3    H231676   1.097   2.913   7.311  0.0565  0.9629  1.9373
 3373TIP3   OH231677   3.791   6.781   8.098 -0.4216  0.2437  0.2337
 3373TIP3    H131678   3.696   6.784   8.084 -0.7825 -1.1810  1.9445
 3373TIP3    H231679   3.801   6.776   8.193  1.3312 -0.6223  0.0515
 3374TIP3   OH231680   0.218   1.627   0.623  0.1193 -0.0570 -0.0291
 3374TIP3    H131681   0.164   1.698   0.659 -0.4190 -0.0975 -0.7289
 3374TIP3    H231682   0.265   1.667   0.550  1.8590  0.2396  1.2188
 3375TIP3   OH231683   6.333   4.340   8.255  0.4122 -0.1611  0.1625
 3375TIP3    H131684   6.318   4.304   8.342  2.3843 -0.4169  0.4427
 3375TIP3    H231685   6.297   4.428   8.258 -2.1256 -1.1370  0.2972
 3376TIP3   OH231686   2.458   2.680   0.069  0.3773  0.5339 -0.3794
 3376TIP3    H131687   2.409   2.609   0.027 -1.2037  1.0935  0.4289
 3376TIP3    H231688   2.516   2.713   0.000 -1.7770  1.1059 -2.0395
 3377TIP3   OH231689   1.296   3.100   1.142 -0.0999 -0.0993 -0.3134
 3377TIP3    H131690   1.260   3.014   1.162 -0.6684  0.1013 -0.4443
 3377TIP3    H231691   1.318   3.137   1.228 -1.5612  0.3424 -0.0963
 3378TIP3   OH231692   1.596   6.074   1.027 -0.5958 -0.4929  0.5362
 3378TIP3    H131693   1.521   6.108   0.979  0.0601  2.0359  1.1206
 3378TIP3    H231694   1.579   6.099   1.118  1.2692  0.8764  0.5691
 3379TIP3   OH231695   2.571   2.329   7.235  0.4967 -0.3073 -0.0440
 3379TIP3    H131696   2.526   2.251   7.268  0.0289  0.5140  1.3151
 3379TIP3    H231697   2.503   2.396   7.231  1.1078  0.3051 -0.2871
 3380TIP3   OH231698   0.700   0.368   1.009  0.0442  0.3617  0.2633
 3380TIP3    H131699   0.680   0.315   1.086 -0.7816  0.4106  0.0971
 3380TIP3    H231700   0.628   0.432   1.005 -0.3179 -0.0917 -0.9420
 3381TIP3   OH231701   5.189   6.527   1.679 -0.0223  0.3467 -0.1910
 3381TIP3    H131702   5.100   6.495   1.688 -0.2153  0.6269 -1.0230
 3381TIP3    H231703   5.210   6.564   1.765 -1.0361  1.0877 -0.2376
 3382TIP3   OH231704   3.169   5.698   0.921  0.5392 -0.0324  0.2282
 3382TIP3    H131705   3.227   5.661   0.854  0.8582  1.0761 -0.1309
 3382TIP3    H231706   3.227   5.722   0.993  0.3428 -0.1719  0.4359
 3383TIP3   OH231707   6.661   1.390   8.314 -0.1137 -0.3218 -0.3213
 3383TIP3    H131708   6.664   1.302   8.350  0.5540  0.5143  1.8407
 3383TIP3    H231709   6.736   1.435   8.354  1.0691  0.5618 -3.2959
 3384TIP3   OH231710   1.124   0.302   7.637 -0.2102  0.4725 -0.0132
 3384TIP3    H131711   1.128   0.316   7.731  0.9862  0.9999 -0.1283
 3384TIP3    H231712   1.170   0.219   7.623  3.3595  2.3336 -0.4800
 3385TIP3   OH231713   2.867   5.969   7.571  0.4048 -0.7015  0.6836
 3385TIP3    H131714   2.959   5.948   7.582  0.8134  0.7388  0.1675
 3385TIP3    H231715   2.850   5.954   7.478  0.4114  0.0833  0.5490
 3386TIP3   OH231716   2.499   0.148   7.344  0.3760  0.7672  0.0741
 3386TIP3    H131717   2.462   0.210   7.282  1.2688 -0.9391 -2.3222
 3386TIP3    H231718   2.577   0.193   7.379  0.4750  1.3724 -0.8918
 3387TIP3   OH231719   2.638   5.148   8.658 -0.0952 -0.0006  0.0128
 3387TIP3    H131720   2.621   5.197   8.577  0.4372 -1.9299 -1.3227
 3387TIP3    H231721   2.567   5.084   8.662 -1.7898  1.8316  2.6548
 3388TIP3   OH231722   2.639   4.104   7.013 -0.5445  0.2578  0.6373
 3388TIP3    H131723   2.618   4.123   7.104 -1.3066  0.5460  0.4076
 3388TIP3    H231724   2.575   4.037   6.988  1.6140 -2.2268  1.2248
 3389TIP3   OH231725   5.008   4.928   1.385  0.0567 -0.0923  0.3439
 3389TIP3    H131726   5.011   4.955   1.294  0.5771  2.6084  1.0851
 3389TIP3    H231727   5.078   4.862   1.393 -0.4239 -0.8492 -1.2935
 3390TIP3   OH231728   6.076   5.636   7.990  0.0266 -0.2604  0.2273
 3390TIP3    H131729   6.136   5.563   8.006 -0.1876  0.1063  3.1897
 3390TIP3    H231730   6.132   5.710   7.969  0.5824 -0.1984  1.8259
 3391TIP3   OH231731   2.867   2.572   7.183 -0.3653  0.0118  0.1500
 3391TIP3    H131732   2.958   2.591   7.160 -0.7456  0.1854 -1.3096
 3391TIP3    H231733   2.872   2.492   7.234  0.6542  0.3257  0.5792
 3392TIP3   OH231734   6.241   2.020   7.983 -0.5179 -0.2528 -0.0002
 3392TIP3    H131735   6.289   1.954   8.034 -1.5885 -0.4967  0.7317
 3392TIP3    H231736   6.234   2.094   8.043  1.0672  0.7413 -0.9701
 3393TIP3   OH231737   1.683   6.563   7.059 -0.1328 -0.4582  0.1359
 3393TIP3    H131738   1.692   6.541   6.966  1.4240  2.2478 -0.4577
 3393TIP3    H231739   1.601   6.611   7.064 -0.2135 -0.5988  0.1820
 3394TIP3   OH231740   6.305   4.295   1.796 -0.7038 -0.2254  0.6048
 3394TIP3    H131741   6.384   4.330   1.837  0.3784 -3.0622  1.1740
 3394TIP3    H231742   6.291   4.211   1.839 -4.2796  0.2772  0.7285
 3395TIP3   OH231743   5.801   4.326   6.544 -0.0415  0.3465 -0.2785
 3395TIP3    H131744   5.781   4.361   6.457 -1.2715  0.7410  0.1441
 3395TIP3    H231745   5.733   4.261   6.560 -0.0819  0.5852  0.5670
 3396TIP3   OH231746   6.834   3.129   0.601 -0.1633  0.1562 -0.2913
 3396TIP3    H131747   6.841   3.127   0.505 -2.4027 -1.3300 -0.4994
 3396TIP3    H231748   6.856   3.219   0.624  1.1969  0.3533 -2.1148
 3397TIP3   OH231749   3.023   6.081   5.815  0.3783 -0.3550 -0.6508
 3397TIP3    H131750   2.962   6.019   5.774  0.7379 -1.3293  0.2297
 3397TIP3    H231751   2.971   6.125   5.882  0.6878 -1.3932  0.2962
 3398TIP3   OH231752   6.360   6.277   7.566 -0.1848 -0.2381  0.2597
 3398TIP3    H131753   6.333   6.281   7.658  0.4258 -1.3955  0.5004
 3398TIP3    H231754   6.346   6.186   7.541  1.2142 -0.3164 -0.3037
 3399TIP3   OH231755   3.858   1.555   7.907  0.2046 -0.4280  0.5477
 3399TIP3    H131756   3.931   1.496   7.891  0.7452  0.2421  0.4695
 3399TIP3    H231757   3.781   1.510   7.870  0.5774 -1.1234  0.6065
 3400TIP3   OH231758   5.327   4.040   1.006 -0.0797 -0.0671 -0.2822
 3400TIP3    H131759   5.302   3.951   1.030  0.9734 -0.2337  0.2374
 3400TIP3    H231760   5.393   4.029   0.938 -0.9520  0.3621 -1.2299
 3401TIP3   OH231761   5.184   6.401   6.308  0.0235 -0.1976  0.4716
 3401TIP3    H131762   5.149   6.316   6.286 -2.9093  1.1934 -0.7235
 3401TIP3    H231763   5.112   6.447   6.351  1.6341  1.5929  1.4680
 3402TIP3   OH231764   4.716   0.873   2.225  0.8415 -0.3658 -0.1688
 3402TIP3    H131765   4.688   0.957   2.187  0.0231 -1.0125 -1.0691
 3402TIP3    H231766   4.652   0.810   2.191  1.6564 -1.4142  0.2074
 3403TIP3   OH231767   2.149   6.893   0.253  0.1456  0.1654 -0.2590
 3403TIP3    H131768   2.121   6.804   0.276 -0.9202  0.4420 -0.4355
 3403TIP3    H231769   2.226   6.880   0.197  0.7320 -0.5986  0.6804
 3404TIP3   OH231770   0.622   0.819   7.361 -0.3909 -0.3441 -0.4125
 3404TIP3    H131771   0.664   0.738   7.332  0.6222  0.1703 -0.4205
 3404TIP3    H231772   0.529   0.807   7.340  0.2408  0.0362 -4.0181
 3405TIP3   OH231773   6.144   4.874   1.737  0.4823  0.4040  0.5294
 3405TIP3    H131774   6.075   4.927   1.775  0.6277 -0.0420  1.4358
 3405TIP3    H231775   6.141   4.791   1.785  1.1115  0.0773  0.0323
 3406TIP3   OH231776   5.667   5.272   0.002  0.3317 -0.1400 -0.6894
 3406TIP3    H131777   5.629   5.300  -0.081 -0.8117 -0.8590 -0.4187
 3406TIP3    H231778   5.659   5.176   0.001 -1.3540 -0.0508  1.0189
 3407TIP3   OH231779   4.874   6.787   1.703  0.1362 -0.2342 -0.0101
 3407TIP3    H131780   4.878   6.881   1.722 -1.1156 -0.2149  0.2370
 3407TIP3    H231781   4.939   6.774   1.633 -0.7476  1.0881 -1.1251
 3408TIP3   OH231782   1.427   4.072   8.089 -0.1075  0.2141 -0.3259
 3408TIP3    H131783   1.406   4.065   7.996 -0.4634  1.0950 -0.3245
 3408TIP3    H231784   1.476   3.992   8.109 -0.0009  0.0298 -1.2727
 3409TIP3   OH231785   5.968   4.061   1.011  0.1334  0.0964 -0.1476
 3409TIP3    H131786   6.040   4.001   0.992  1.0103  1.1540 -0.2441
 3409TIP3    H231787   5.932   4.084   0.926  1.0061  1.1402 -0.2542
 3410TIP3   OH231788   6.115   4.943   7.299 -0.1600 -0.5509  0.5401
 3410TIP3    H131789   6.206   4.915   7.290 -0.2561 -0.8100  0.3705
 3410TIP3    H231790   6.085   4.957   7.209 -0.3443 -0.6456  0.5874
 3411TIP3   OH231791   1.495   2.482   0.128 -0.0307  0.8365  0.1555
 3411TIP3    H131792   1.409   2.514   0.152 -0.4851 -0.1064 -0.1524
 3411TIP3    H231793   1.488   2.386   0.133  0.4423  0.6558 -1.6009
 3412TIP3   OH231794   1.012   6.556   1.885  0.8623  0.1293 -0.3235
 3412TIP3    H131795   0.970   6.514   1.810  1.3548  0.5272 -0.8236
 3412TIP3    H231796   0.954   6.536   1.958  1.1564 -1.5479 -0.5130
 3413TIP3   OH231797   2.186   5.187   7.315  0.0368  0.1261  0.4467
 3413TIP3    H131798   2.258   5.125   7.325  0.2057 -0.0826 -1.5613
 3413TIP3    H231799   2.115   5.151   7.368  1.0140 -0.2982  1.5006
 3414TIP3   OH231800   0.927   5.492   1.574  0.3019  0.0460 -0.0451
 3414TIP3    H131801   0.956   5.576   1.609 -1.5634  0.9322 -0.5083
 3414TIP3    H231802   0.936   5.431   1.647  2.6135  0.3809  0.0191
 3415TIP3   OH231803   0.653   0.225   1.235  0.1015  0.1297  0.1511
 3415TIP3    H131804   0.736   0.186   1.262  0.0135  0.1348  0.4377
 3415TIP3    H231805   0.620   0.267   1.314  0.5049  1.3410 -0.3080
 3416TIP3   OH231806   2.810   6.576   1.059  0.1211 -0.1038 -0.5803
 3416TIP3    H131807   2.820   6.665   1.093 -0.3938 -0.4157  0.4280
 3416TIP3    H231808   2.852   6.521   1.125 -0.5874 -0.7007 -0.6164
 3417TIP3   OH231809   4.026   5.483   1.896  0.4310  0.2107  0.3157
 3417TIP3    H131810   4.111   5.522   1.918  1.5775 -1.6868 -0.4285
 3417TIP3    H231811   4.037   5.390   1.918 -0.9591 -0.3394 -1.1583
 3418TIP3   OH231812   2.794   5.663   5.968  0.1028  0.3422  0.0527
 3418TIP3    H131813   2.865   5.673   5.904  0.2073 -0.9353 -0.0523
 3418TIP3    H231814   2.824   5.594   6.026  0.0271  1.5201  1.5509
 3419TIP3   OH231815   4.780   1.263   7.806 -0.1235 -0.3767 -0.7196
 3419TIP3    H131816   4.848   1.290   7.868 -1.3209 -0.5038  0.6986
 3419TIP3    H231817   4.804   1.306   7.724  1.4957 -0.1934 -0.1873
 3420TIP3   OH231818   3.288   2.224   7.541  0.0322  0.2677 -0.2437
 3420TIP3    H131819   3.382   2.208   7.550 -0.3182 -0.9671  1.7722
 3420TIP3    H231820   3.283   2.301   7.483  2.2766  0.6097 -0.0977
 3421TIP3   OH231821   3.871   2.539   6.247 -0.3304  0.1315  0.3186
 3421TIP3    H131822   3.945   2.490   6.283 -0.8704  0.3298  1.7604
 3421TIP3    H231823   3.858   2.611   6.308 -0.4056  1.3170 -1.0521
 3422TIP3   OH231824   6.436   3.190   0.849 -0.3399 -0.1777  0.9184
 3422TIP3    H131825   6.352   3.235   0.863 -0.8294 -0.8678  0.2744
 3422TIP3    H231826   6.469   3.174   0.937  0.8557  3.1921  1.2569
 3423TIP3   OH231827   2.112   3.815   2.193 -0.0904  0.4654 -0.8784
 3423TIP3    H131828   2.177   3.882   2.214  1.4268 -1.1091 -0.2311
 3423TIP3    H231829   2.164   3.737   2.173 -1.7859 -0.7749 -0.6991
 3424TIP3   OH231830   2.440   0.473   7.593 -0.2547  0.1685  0.6631
 3424TIP3    H131831   2.441   0.382   7.625 -1.0838 -0.1576 -0.1757
 3424TIP3    H231832   2.449   0.526   7.672  0.5704 -0.6471  1.1417
 3425TIP3   OH231833   2.921   6.406   2.006  0.0696  0.5344 -0.1237
 3425TIP3    H131834   2.978   6.414   1.929  0.3820 -2.2116 -0.2838
 3425TIP3    H231835   2.982   6.396   2.079 -0.1290 -1.6796 -0.1991
 3426TIP3   OH231836   6.183   3.186   7.787 -0.4433 -0.9450 -0.6334
 3426TIP3    H131837   6.139   3.270   7.798  0.4699 -0.3511 -1.3751
 3426TIP3    H231838   6.244   3.182   7.861 -0.3984 -0.8978 -0.6679
 3427TIP3   OH231839   3.586   5.803   2.105  0.0884 -0.4990 -0.2478
 3427TIP3    H131840   3.580   5.865   2.032  2.0298 -0.6547 -0.5830
 3427TIP3    H231841   3.656   5.837   2.160 -0.9208 -0.7297  1.2582
 3428TIP3   OH231842   0.257   0.753   8.395 -0.5016  0.8477  0.0692
 3428TIP3    H131843   0.229   0.673   8.440 -0.4130  0.6471 -0.2329
 3428TIP3    H231844   0.349   0.738   8.375 -0.4115  1.1418  0.2600
 3429TIP3   OH231845   3.032   6.833   2.496 -0.1680 -0.1046 -0.2953
 3429TIP3    H131846   3.054   6.823   2.588  2.3416 -1.7509 -1.0031
 3429TIP3    H231847   2.962   6.900   2.496 -0.5491 -0.3520  2.7688
 3430TIP3   OH231848   0.734   6.104   8.157  0.3280 -0.1138 -0.5436
 3430TIP3    H131849   0.799   6.110   8.228  0.2856 -1.2434 -0.3936
 3430TIP3    H231850   0.765   6.166   8.091 -0.3067  1.9309  0.9806
 3431TIP3   OH231851   1.011   1.691   1.626 -0.6244  0.0876 -0.3038
 3431TIP3    H131852   1.099   1.727   1.636  0.6936 -3.2562  2.2822
 3431TIP3    H231853   0.957   1.742   1.687 -0.1521  1.1874 -0.7834
 3432TIP3   OH231854   3.576   4.870   6.465  0.0644 -0.7473 -0.2323
 3432TIP3    H131855   3.558   4.782   6.433  1.3631 -1.3091  0.5073
 3432TIP3    H231856   3.606   4.857   6.555 -0.3310  0.5062  0.0995
 3433TIP3   OH231857   3.309   0.665   1.158  0.0090 -0.5463  0.1209
 3433TIP3    H131858   3.356   0.589   1.123  2.0671 -0.0105  1.5236
 3433TIP3    H231859   3.282   0.714   1.080 -0.2277 -2.0344 -0.7727
 3434TIP3   OH231860   2.366   4.505   0.972  0.1583  0.0258 -0.3681
 3434TIP3    H131861   2.423   4.531   0.900  1.4839  1.0992  0.9960
 3434TIP3    H231862   2.403   4.550   1.049  0.6892 -3.4162  1.5992
 3435TIP3   OH231863   5.769   0.409   7.887 -0.5482  0.0292  0.0653
 3435TIP3    H131864   5.771   0.477   7.955  1.0599  0.0289  0.0351
 3435TIP3    H231865   5.801   0.452   7.808  0.5909 -0.7702  0.0700
 3436TIP3   OH231866   1.728   1.070   0.059 -0.6075 -0.8728 -0.3677
 3436TIP3    H131867   1.792   1.018   0.009  1.2289  2.6020 -2.0195
 3436TIP3    H231868   1.774   1.092   0.140 -1.5660 -2.1238  0.5497
 3437TIP3   OH231869   2.343   6.435   0.244 -0.3560 -0.5614 -0.0180
 3437TIP3    H131870   2.312   6.347   0.221 -0.0740 -0.1164 -2.3227
 3437TIP3    H231871   2.345   6.482   0.161  2.3281  0.7421  0.6803
 3438TIP3   OH231872   1.414   1.960   0.984 -0.0664 -0.0745  0.3308
 3438TIP3    H131873   1.443   1.891   0.925 -1.8057  0.0745 -0.7703
 3438TIP3    H231874   1.319   1.965   0.971 -0.6057 -0.2274  3.3371
 3439TIP3   OH231875   3.382   5.491   7.209  0.5318  0.7845  0.1975
 3439TIP3    H131876   3.373   5.429   7.137  0.2586  1.6018 -0.4777
 3439TIP3    H231877   3.330   5.567   7.183 -0.8084  0.5101  1.9351
 3440TIP3   OH231878   4.727   5.516   1.533 -0.1768 -0.0071  0.1556
 3440TIP3    H131879   4.732   5.509   1.628 -1.6133 -0.4240  0.2316
 3440TIP3    H231880   4.670   5.443   1.507  0.8207 -0.3820 -1.1096
 3441TIP3   OH231881   3.581   0.138   0.136 -0.1289  0.5169 -0.3498
 3441TIP3    H131882   3.647   0.203   0.110 -0.2666  0.8678  0.1567
 3441TIP3    H231883   3.624   0.054   0.126  0.4123  0.7444  0.0075
 3442TIP3   OH231884   0.380   5.211   1.440 -0.0835 -0.1026 -0.3855
 3442TIP3    H131885   0.331   5.292   1.428  1.6822  1.1514  0.4630
 3442TIP3    H231886   0.380   5.169   1.354 -0.8777  0.8588 -0.8718
 3443TIP3   OH231887   2.202   2.722   0.140  0.0931  0.3252  0.0539
 3443TIP3    H131888   2.187   2.799   0.195  1.5535  0.3003  0.5405
 3443TIP3    H231889   2.296   2.724   0.121 -0.3397  0.2471 -2.3528
 3444TIP3   OH231890   5.756   5.232   6.992  0.2296  0.0651  0.1803
 3444TIP3    H131891   5.835   5.208   7.041 -0.0460  0.1220  0.6596
 3444TIP3    H231892   5.737   5.155   6.939  0.6772  0.0978 -0.0307
 3445TIP3   OH231893   6.310   1.058   6.699 -0.4858  0.1918  0.0468
 3445TIP3    H131894   6.218   1.066   6.673 -1.2500 -2.2469  1.6217
 3445TIP3    H231895   6.313   1.098   6.786  0.0743  0.6698 -0.1843
 3446TIP3   OH231896   0.906   5.406   0.644  0.1789  0.3079 -0.1104
 3446TIP3    H131897   0.948   5.463   0.580  1.9288 -0.8147 -0.0208
 3446TIP3    H231898   0.816   5.438   0.648 -0.2385  0.0065 -3.6291
 3447TIP3   OH231899   0.419   0.818   1.041  0.4545 -0.0660  0.4335
 3447TIP3    H131900   0.451   0.743   0.991  1.4566  0.9628 -0.5111
 3447TIP3    H231901   0.498   0.862   1.072 -0.0619  1.2660 -0.0452
 3448TIP3   OH231902   1.250   0.545   1.107  0.0820  0.5965  0.1253
 3448TIP3    H131903   1.215   0.529   1.194  1.0916  1.4242  0.7002
 3448TIP3    H231904   1.174   0.537   1.049 -0.6061  0.0709  1.0711
 3449TIP3   OH231905   3.929   1.539   8.269 -0.2571  0.0400  0.7663
 3449TIP3    H131906   4.004   1.577   8.314 -0.2234 -0.5213  1.1907
 3449TIP3    H231907   3.938   1.444   8.283 -0.4673 -0.1121 -0.0675
 3450TIP3   OH231908   2.276   4.934   7.099  0.0013 -0.1011  0.7237
 3450TIP3    H131909   2.365   4.916   7.070 -1.0779 -2.5595 -1.5204
 3450TIP3    H231910   2.259   5.024   7.072  1.9771  0.6363  1.8092
 3451TIP3   OH231911   1.764   6.043   8.662 -0.2055  0.2478 -0.2458
 3451TIP3    H131912   1.704   6.006   8.727 -0.8308  1.6370  0.0256
 3451TIP3    H231913   1.814   5.969   8.629  0.2366 -0.4867  1.9289
 3452TIP3   OH231914   0.803   2.556   2.348  1.0210  0.1304  0.0257
 3452TIP3    H131915   0.770   2.541   2.259 -0.3913  1.1979  0.3202
 3452TIP3    H231916   0.805   2.652   2.356  1.9304  0.0470  0.8700
 3453TIP3   OH231917   1.087   4.150   1.016 -0.4653  0.4111  0.0244
 3453TIP3    H131918   1.157   4.128   1.077  0.5379  1.6201 -0.6324
 3453TIP3    H231919   1.129   4.206   0.951 -1.8244  0.3328 -0.9713
 3454TIP3   OH231920   2.637   0.009   0.147 -0.5748  0.2141  0.0956
 3454TIP3    H131921   2.613  -0.054   0.215 -0.7970  1.4131  1.1730
 3454TIP3    H231922   2.556   0.026   0.100 -0.6127  0.0286  0.0950
 3455TIP3   OH231923   4.097   5.661   2.680 -0.1819 -0.2371  0.0778
 3455TIP3    H131924   4.183   5.682   2.715 -0.5359  2.6386 -0.5023
 3455TIP3    H231925   4.112   5.638   2.589 -0.0791  1.3151 -0.3197
 3456TIP3   OH231926   4.640   4.597   1.938  0.7607  0.3335  0.0813
 3456TIP3    H131927   4.668   4.522   1.990  2.9652  1.5529  0.7792
 3456TIP3    H231928   4.635   4.564   1.849  1.3485 -0.7508  0.4343
 3457TIP3   OH231929   5.811   1.760   1.169  0.3890 -0.0584  0.4639
 3457TIP3    H131930   5.874   1.714   1.114  1.5582  2.3825 -0.3739
 3457TIP3    H231931   5.784   1.836   1.117  0.2950  1.4598  2.6072
 3458TIP3   OH231932   0.212   2.005   1.932 -0.6278 -0.1704 -0.4467
 3458TIP3    H131933   0.261   2.007   2.014 -0.9151  1.5024 -0.2751
 3458TIP3    H231934   0.120   2.011   1.958 -0.8209 -1.2508 -0.8420
 3459TIP3   OH231935   1.284   6.614   6.674  0.1523  0.3330 -0.3212
 3459TIP3    H131936   1.371   6.579   6.651  0.0666 -1.1051  1.3701
 3459TIP3    H231937   1.300   6.670   6.750 -0.3144  0.7113 -0.4955
 3460TIP3   OH231938   6.568   0.136   0.300  0.4397  0.6077 -0.1039
 3460TIP3    H131939   6.568   0.229   0.323  0.0388  0.8178 -0.9363
 3460TIP3    H231940   6.574   0.134   0.205  2.5760 -0.2525 -0.0126
 3461TIP3   OH231941   6.356   2.869   7.261  0.5582  0.7281 -0.3269
 3461TIP3    H131942   6.358   2.917   7.179  0.6101 -1.5934 -1.7513
 3461TIP3    H231943   6.440   2.825   7.266  0.5137  0.7476  0.9300
 3462TIP3   OH231944   1.569   3.769   7.310 -0.4534 -0.2590  0.4309
 3462TIP3    H131945   1.500   3.828   7.341 -2.1631 -0.5329 -2.4601
 3462TIP3    H231946   1.631   3.827   7.265  0.9412 -0.0978  2.4364
 3463TIP3   OH231947   0.140   1.476   7.012 -0.2019  0.1004  0.2582
 3463TIP3    H131948   0.139   1.485   6.916  1.2986  0.9196  0.2813
 3463TIP3    H231949   0.101   1.558   7.043  0.2612  0.2871  0.3506
 3464TIP3   OH231950   6.792   1.513   7.205 -0.0195 -0.6294 -1.0769
 3464TIP3    H131951   6.872   1.487   7.250  0.5234 -0.5392 -1.9665
 3464TIP3    H231952   6.806   1.604   7.180  0.1752 -1.0099 -2.4326
 3465TIP3   OH231953   3.453   2.015   0.227 -0.7524 -0.4037  0.1616
 3465TIP3    H131954   3.471   2.107   0.245 -1.3651 -0.4420  1.0281
 3465TIP3    H231955   3.458   2.008   0.132  2.5124 -0.1658  0.1949
 3466TIP3   OH231956   4.084   2.375   8.301 -0.0376  0.5587 -0.0639
 3466TIP3    H131957   4.099   2.283   8.319 -0.8709  0.1789 -1.1613
 3466TIP3    H231958   4.032   2.406   8.374 -2.5076 -0.6822 -1.1687
 3467TIP3   OH231959   0.062   1.329   2.231 -0.1742 -0.3362 -0.0106
 3467TIP3    H131960   0.158   1.325   2.228 -0.1632 -0.0854 -0.0393
 3467TIP3    H231961   0.042   1.423   2.228 -0.3640 -0.2974  1.5989
 3468TIP3   OH231962   2.313   0.121   2.174 -0.4173  0.2569 -0.1829
 3468TIP3    H131963   2.307   0.062   2.250 -5.1280  0.7626  0.1061
 3468TIP3    H231964   2.345   0.203   2.211 -0.3057 -0.1915  0.7692
 3469TIP3   OH231965   5.918   1.196   0.834 -0.1956  0.0075 -0.2130
 3469TIP3    H131966   5.880   1.163   0.915  0.3894 -0.3972 -0.1004
 3469TIP3    H231967   6.004   1.155   0.829 -1.0721 -1.7819 -2.1462
 3470TIP3   OH231968   1.879   3.584   7.307 -0.6543  0.0505 -0.5850
 3470TIP3    H131969   1.882   3.597   7.212 -2.2115  0.1233 -0.6428
 3470TIP3    H231970   1.931   3.504   7.321  0.7274  0.7814 -1.3178
 3471TIP3   OH231971   0.145   5.121   7.929 -0.4934 -0.7014 -0.1785
 3471TIP3    H131972   0.086   5.052   7.957  1.0014 -1.3589  1.5568
 3471TIP3    H231973   0.223   5.110   7.983 -0.6070  3.0557  1.0681
 3472TIP3   OH231974   0.312   2.104   6.585 -0.1003  0.3542  0.0367
 3472TIP3    H131975   0.300   2.152   6.503  0.3437  1.4076  0.5623
 3472TIP3    H231976   0.228   2.113   6.630  0.4458  2.0531  0.8232
 3473TIP3   OH231977   6.025   6.240   7.799  0.1865 -0.1970 -0.3287
 3473TIP3    H131978   6.037   6.173   7.867  1.9455 -1.4458 -1.7853
 3473TIP3    H231979   6.111   6.280   7.790 -0.0598  0.0553 -1.6989
 3474TIP3   OH231980   3.058   1.928   8.318 -0.0405 -0.1826 -0.0124
 3474TIP3    H131981   3.004   1.852   8.343  1.3420 -1.4844 -0.7661
 3474TIP3    H231982   3.011   1.967   8.244 -0.3860 -0.7964 -0.1276
 3475TIP3   OH231983   3.045   3.860   7.677 -0.4050  0.6226  0.1266
 3475TIP3    H131984   3.045   3.821   7.590  0.4738  1.0990 -0.0928
 3475TIP3    H231985   2.979   3.930   7.673  2.5096  3.5230 -1.5107
 3476TIP3   OH231986   1.168   4.656   1.180 -0.3562 -0.4507  0.0168
 3476TIP3    H131987   1.234   4.610   1.128  0.9928  1.9664 -0.5607
 3476TIP3    H231988   1.115   4.703   1.116  0.2995  1.2634  0.6847
 3477TIP3   OH231989   0.383   4.532   1.797  0.2323  0.3959 -0.0737
 3477TIP3    H131990   0.448   4.463   1.783 -1.0811 -0.8484 -0.3750
 3477TIP3    H231991   0.363   4.563   1.709 -0.0867  0.2699 -0.0473
 3478TIP3   OH231992   1.047   0.478   0.161 -0.4866  0.4087  0.8214
 3478TIP3    H131993   1.118   0.430   0.118 -2.8446 -1.4664 -1.2494
 3478TIP3    H231994   1.036   0.557   0.107 -1.1792 -0.2567 -0.0514
 3479TIP3   OH231995   5.753   5.814   1.817 -0.2930  0.1344 -0.1493
 3479TIP3    H131996   5.749   5.781   1.727  0.0570 -0.4257  0.0378
 3479TIP3    H231997   5.694   5.889   1.817 -0.3192  0.1225 -0.8411
 3480TIP3   OH231998   2.968   3.439   1.354 -0.4424 -0.7541  0.2316
 3480TIP3    H131999   2.972   3.481   1.440 -0.4045 -2.2277  0.9957
 3480TIP3    H232000   3.012   3.355   1.366 -0.7228 -1.1346 -1.1521
 3481TIP3   OH232001   5.083   5.387   0.601 -0.3563  0.1766  0.0876
 3481TIP3    H132002   5.022   5.459   0.583  1.4936  1.5248 -1.2324
 3481TIP3    H232003   5.167   5.420   0.571  1.2864 -1.1508  2.8535
 3482TIP3   OH232004   2.757   3.680   1.872 -0.1875 -0.5394  0.4076
 3482TIP3    H132005   2.677   3.729   1.854 -0.4793 -0.0450  2.6964
 3482TIP3    H232006   2.828   3.736   1.840 -0.6617  0.0336  0.3526
 3483TIP3   OH232007   6.139   0.999   0.816  0.4631  0.0173  0.3028
 3483TIP3    H132008   6.067   0.939   0.799  0.2484  0.3050  0.1741
 3483TIP3    H232009   6.191   0.998   0.735  1.6530 -1.5844  1.0334
 3484TIP3   OH232010   6.364   2.553   7.257  0.0495 -0.1396  0.1263
 3484TIP3    H132011   6.333   2.630   7.210 -1.3317 -0.3762  0.5998
 3484TIP3    H232012   6.380   2.488   7.189 -0.2893  0.0669 -0.1537
 3485TIP3   OH232013   4.410   6.720   1.678 -0.0894 -0.1765  0.3788
 3485TIP3    H132014   4.381   6.783   1.612  0.7994  1.2073  1.2584
 3485TIP3    H232015   4.502   6.706   1.658  0.0477 -0.1650  0.9909
 3486TIP3   OH232016   0.573   0.156   0.679  0.2097 -0.0320  0.2560
 3486TIP3    H132017   0.581   0.070   0.721 -0.5683 -1.3777 -2.1632
 3486TIP3    H232018   0.486   0.186   0.703 -0.0943 -0.6231 -0.0926
 3487TIP3   OH232019   4.302   4.887   8.329 -0.5579 -0.8526 -0.5080
 3487TIP3    H132020   4.331   4.807   8.374  1.3329  0.2271  0.2949
 3487TIP3    H232021   4.260   4.939   8.397 -2.8952 -1.5960 -1.2795
 3488TIP3   OH232022   5.530   4.668   1.570 -0.6327  0.2095  0.5269
 3488TIP3    H132023   5.523   4.762   1.550 -1.5031  0.0916  0.2422
 3488TIP3    H232024   5.624   4.652   1.574 -0.2535  0.2821 -3.5307
 3489TIP3   OH232025   3.216   5.578   8.193  0.7657  0.0009  0.0480
 3489TIP3    H132026   3.239   5.530   8.273  1.2812 -0.3792 -0.3216
 3489TIP3    H232027   3.300   5.600   8.153  0.5574  1.7578  0.5121
 3490TIP3   OH232028   2.031   5.135   7.954 -0.9945  0.2249  0.7297
 3490TIP3    H132029   2.089   5.194   8.002 -0.9122 -0.3353  1.3486
 3490TIP3    H232030   2.077   5.051   7.955 -0.0579  0.6100 -2.0604
 3491TIP3   OH232031   1.933   2.172   1.184  0.0639  0.1353  0.3705
 3491TIP3    H132032   2.022   2.185   1.152 -0.1734 -0.5445 -0.6078
 3491TIP3    H232033   1.878   2.224   1.125 -0.2241  0.2625  0.7443
 3492TIP3   OH232034   5.911   1.089   7.956  0.4737  0.8444 -0.3670
 3492TIP3    H132035   5.957   1.055   7.879  3.3543  1.2100  1.0774
 3492TIP3    H232036   5.889   1.179   7.931  0.5910  0.6820 -1.0878
 3493TIP3   OH232037   1.891   0.845   0.628 -0.1696  0.1779  0.0773
 3493TIP3    H132038   1.854   0.769   0.582  0.4990 -0.5693  0.7404
 3493TIP3    H232039   1.850   0.843   0.714  0.9149 -0.3068  0.6114
 3494TIP3   OH232040   4.789   5.473   1.792 -0.0883 -0.3017  0.0710
 3494TIP3    H132041   4.830   5.494   1.876  1.2933 -1.1031 -0.3777
 3494TIP3    H232042   4.732   5.398   1.811 -2.1025  1.3232  0.8723
 3495TIP3   OH232043   6.838   1.702   0.872  0.3086 -0.3784  0.3012
 3495TIP3    H132044   6.876   1.614   0.879 -1.8434 -1.3350  0.6014
 3495TIP3    H232045   6.744   1.687   0.859  0.0698  1.8765 -1.0606
 3496TIP3   OH232046   1.480   5.022   7.781  0.2719  0.2085 -0.9055
 3496TIP3    H132047   1.420   4.972   7.835  0.4193  0.8017 -0.1679
 3496TIP3    H232048   1.471   4.985   7.693  1.1467 -1.8155 -0.2110
 3497TIP3   OH232049   6.037   0.800   7.894 -1.1213  0.5984  0.0463
 3497TIP3    H132050   6.070   0.739   7.828  0.8630  1.2328  0.4040
 3497TIP3    H232051   5.953   0.829   7.859 -0.0787  1.0096 -2.3094
 3498TIP3   OH232052   3.160   3.748   8.660 -0.2885 -0.4729  0.5615
 3498TIP3    H132053   3.255   3.753   8.671 -0.1721  1.8961 -0.8710
 3498TIP3    H232054   3.143   3.657   8.635  1.6639 -0.7959  0.2872
 3499TIP3   OH232055   5.976   3.309   1.971 -0.4591  0.9805  0.8563
 3499TIP3    H132056   5.925   3.258   2.035 -0.7578  0.6429  0.3549
 3499TIP3    H232057   5.972   3.398   2.005  0.2787  0.6483  1.8784
 3500TIP3   OH232058   1.490   0.098   0.389  0.2421  0.0892 -0.7899
 3500TIP3    H132059   1.487   0.003   0.383 -1.4755 -0.1222  1.8568
 3500TIP3    H232060   1.421   0.121   0.452  0.7376  3.0721 -1.1699
 3501TIP3   OH232061   3.116   0.636   7.446 -0.2058 -0.4500 -0.3621
 3501TIP3    H132062   3.038   0.685   7.475  0.1157 -0.2751  0.2412
 3501TIP3    H232063   3.105   0.626   7.352 -1.6806 -1.7113 -0.0891
 3502TIP3   OH232064   5.772   6.510   8.440  0.3195 -0.1001  0.7509
 3502TIP3    H132065   5.806   6.421   8.448  1.1026  0.2003  0.8706
 3502TIP3    H232066   5.760   6.540   8.530  0.3735  0.0345  0.7133
 3503TIP3   OH232067   6.292   3.567   7.764  0.4224  0.3230 -0.4533
 3503TIP3    H132068   6.246   3.503   7.709 -1.9529  1.5146  0.0106
 3503TIP3    H232069   6.291   3.529   7.852 -1.2331  1.0392 -0.1242
 3504TIP3   OH232070   2.238   2.252   1.287 -0.4675  0.0296  0.1076
 3504TIP3    H132071   2.300   2.287   1.223 -1.3476 -0.6843 -1.1976
 3504TIP3    H232072   2.166   2.315   1.288 -0.5321 -0.0464  0.2708
 3505TIP3   OH232073   5.773   0.489   0.620  0.2632 -0.5601  0.3570
 3505TIP3    H132074   5.729   0.497   0.536 -2.1488  0.2913  1.6002
 3505TIP3    H232075   5.767   0.395   0.641 -1.7423 -0.3797  0.8188
 3506TIP3   OH232076   1.505   1.002   6.730  0.2565 -0.1362 -0.7722
 3506TIP3    H132077   1.442   0.981   6.662 -2.1288 -1.5306  1.6669
 3506TIP3    H232078   1.473   1.083   6.769  1.8141  0.8614 -1.4532
 3507TIP3   OH232079   2.666   4.952   6.714  0.2653 -0.0533 -0.0870
 3507TIP3    H132080   2.620   4.871   6.695  0.8330 -0.4581  0.2104
 3507TIP3    H232081   2.645   4.970   6.806  1.1368 -0.5519  0.2250
 3508TIP3   OH232082   3.334   1.826   6.663 -0.3029  0.5462  0.2154
 3508TIP3    H132083   3.410   1.812   6.606 -1.9042  0.5355 -2.0824
 3508TIP3    H232084   3.292   1.905   6.629 -2.7482 -0.8724 -0.3891
 3509TIP3   OH232085   1.660   3.408   0.772  0.1826 -0.2782 -0.1834
 3509TIP3    H132086   1.740   3.447   0.806 -0.8423  0.8177  1.0993
 3509TIP3    H232087   1.630   3.349   0.841 -0.2480 -0.4815 -0.5346
 3510TIP3   OH232088   5.528   4.322   7.743 -0.1755 -0.1801 -0.0673
 3510TIP3    H132089   5.617   4.319   7.708  0.6162  0.9885  1.7008
 3510TIP3    H232090   5.520   4.244   7.797 -0.5782 -0.7638 -0.9438
 3511TIP3   OH232091   6.470   1.007   2.112  0.0281 -0.1119  0.0987
 3511TIP3    H132092   6.390   1.000   2.164 -0.8517 -1.6634 -1.3633
 3511TIP3    H232093   6.525   1.068   2.161 -1.3143 -0.3908  2.0810
 3512TIP3   OH232094   2.413   6.519   1.870 -0.1990  0.2589  0.5788
 3512TIP3    H132095   2.400   6.541   1.962 -0.3402 -2.3752  1.2789
 3512TIP3    H232096   2.500   6.478   1.868  0.2366  1.1985 -0.6706
 3513TIP3   OH232097   3.506   2.264   1.941  0.1610 -0.5994 -0.4989
 3513TIP3    H132098   3.425   2.290   1.897  0.7130 -1.1535 -1.8845
 3513TIP3    H232099   3.476   2.208   2.013 -0.7805  0.6901  0.1621
 3514TIP3   OH232100   0.633   2.586   7.729 -0.5795  0.4354  0.3623
 3514TIP3    H132101   0.562   2.526   7.750  0.0303 -0.3793  0.1557
 3514TIP3    H232102   0.628   2.654   7.796 -0.9254 -0.1603  0.9566
 3515TIP3   OH232103   1.817   0.122   7.585  0.3611  0.1696  0.1266
 3515TIP3    H132104   1.849   0.190   7.527 -0.6552  0.6680  0.1201
 3515TIP3    H232105   1.758   0.069   7.530 -0.2462  0.3706  0.5679
 3516TIP3   OH232106   4.586   2.163   8.591 -0.1009 -0.2284  0.0517
 3516TIP3    H132107   4.538   2.219   8.529 -0.2750  0.3324  0.6831
 3516TIP3    H232108   4.546   2.076   8.580 -0.9175  0.1208  0.1947
 3517TIP3   OH232109   0.232   4.331   8.087  0.0862 -0.3447 -0.2434
 3517TIP3    H132110   0.286   4.391   8.035  2.5497 -0.4121  2.0108
 3517TIP3    H232111   0.159   4.385   8.117 -0.0417  0.3402 -1.6715
 3518TIP3   OH232112   1.882   0.611   0.440 -0.4409 -0.0088  0.4921
 3518TIP3    H132113   1.812   0.547   0.450 -0.2035 -0.1474  1.3586
 3518TIP3    H232114   1.864   0.653   0.355 -2.1659  0.6707  1.1451
 3519TIP3   OH232115   2.314   5.862   2.076 -0.4124 -0.0163 -0.2360
 3519TIP3    H132116   2.263   5.904   2.008  0.0149  1.0574  0.0792
 3519TIP3    H232117   2.370   5.932   2.111  0.9566 -1.0434 -0.2894
 3520TIP3   OH232118   0.200   0.136   7.336  0.4114  0.3625 -0.0134
 3520TIP3    H132119   0.118   0.186   7.329  0.2197  0.2005  0.9185
 3520TIP3    H232120   0.172   0.048   7.362  0.8468  0.1766 -0.1705
 3521TIP3   OH232121   6.106   2.370   7.743  0.6460 -0.3039 -0.0342
 3521TIP3    H132122   6.091   2.368   7.649 -2.0429  0.8681  0.2901
 3521TIP3    H232123   6.183   2.426   7.754  1.4625 -1.0724 -1.5258
 3522TIP3   OH232124   1.077   0.877   1.823  0.5454  0.4374 -0.0888
 3522TIP3    H132125   1.130   0.883   1.743  0.5270 -0.9732 -0.2454
 3522TIP3    H232126   1.141   0.865   1.893  0.4973 -0.2074 -0.1457
 3523TIP3   OH232127   0.868   6.142   6.926  0.1309 -0.1178 -0.4552
 3523TIP3    H132128   0.872   6.185   6.841  0.6463  1.6880  0.4138
 3523TIP3    H232129   0.940   6.080   6.925  0.1624 -0.0777 -1.3164
 3524TIP3   OH232130   4.258   1.391   7.192  0.4011  0.1504  0.6952
 3524TIP3    H132131   4.272   1.374   7.099 -0.3630 -0.7095  0.7232
 3524TIP3    H232132   4.207   1.472   7.194 -3.6781 -2.1124  0.0513
 3525TIP3   OH232133   3.464   4.829   0.621 -0.7179  0.5293  0.1546
 3525TIP3    H132134   3.470   4.910   0.671 -2.2142  2.5536 -2.7041
 3525TIP3    H232135   3.553   4.813   0.591 -0.4944  1.3969  0.3246
 3526TIP3   OH232136   4.589   0.804   7.664  0.3888  0.1467 -0.5163
 3526TIP3    H132137   4.560   0.763   7.583  1.1680 -0.2214 -0.6243
 3526TIP3    H232138   4.538   0.761   7.733 -0.1922  0.3799 -0.8005
 3527TIP3   OH232139   2.889   0.904   0.344 -0.0766 -0.4445  0.3511
 3527TIP3    H132140   2.806   0.864   0.372  0.2635 -1.2780  0.1882
 3527TIP3    H232141   2.863   0.973   0.283 -0.6955 -0.1501  0.9360
 3528TIP3   OH232142   4.804   5.725   6.372  0.1288 -0.3050 -0.6894
 3528TIP3    H132143   4.838   5.743   6.284 -0.5890 -1.7908 -1.2946
 3528TIP3    H232144   4.833   5.636   6.392  0.0448 -0.0914  0.4795
 3529TIP3   OH232145   2.636   0.945   0.182 -0.1973  0.3630  0.0359
 3529TIP3    H132146   2.573   0.935   0.110  0.0217 -1.9564  0.0850
 3529TIP3    H232147   2.584   0.927   0.261  0.6366 -2.5131  0.0123
 3530TIP3   OH232148   0.550   5.050   0.278  0.4216 -0.0373 -0.1182
 3530TIP3    H132149   0.573   5.045   0.186  2.3869 -1.1685  0.3635
 3530TIP3    H232150   0.520   5.140   0.291  1.2487  0.4795 -1.6192
 3531TIP3   OH232151   6.473   4.479   7.538 -0.1165 -0.2104  0.1826
 3531TIP3    H132152   6.488   4.473   7.632  0.6255 -2.0819 -0.0263
 3531TIP3    H232153   6.560   4.470   7.499 -0.1550  2.3594 -0.6772
 3532TIP3   OH232154   4.966   0.831   2.311 -0.2104  0.4189 -0.1694
 3532TIP3    H132155   4.941   0.783   2.390  0.5591 -1.9297 -1.2560
 3532TIP3    H232156   4.882   0.858   2.272 -0.7077 -0.2742  0.3836
 3533TIP3   OH232157   6.105   3.793   1.682  0.2428 -0.3000 -0.0248
 3533TIP3    H132158   6.199   3.812   1.683  0.5084 -1.2951  2.5795
 3533TIP3    H232159   6.072   3.830   1.764 -2.0501  1.5416 -1.6657
 3534TIP3   OH232160   0.859   5.818   7.704  0.3336 -0.3710  0.6570
 3534TIP3    H132161   0.890   5.874   7.633  1.2136 -0.2182  1.1431
 3534TIP3    H232162   0.788   5.867   7.744 -0.1187 -0.4203 -0.0507
 3535TIP3   OH232163   0.574   1.693   7.186  0.3929 -0.0201  0.1574
 3535TIP3    H132164   0.501   1.718   7.129  0.2923 -1.5674 -0.4510
 3535TIP3    H232165   0.545   1.715   7.274 -1.0444 -1.0987 -0.0261
 3536TIP3   OH232166   4.205   0.949   7.741 -0.1918 -0.2058  0.0373
 3536TIP3    H132167   4.182   1.035   7.777  2.7173  0.3626  0.8017
 3536TIP3    H232168   4.269   0.968   7.673  0.8901 -1.7747  0.5675
 3537TIP3   OH232169   0.415   4.789   8.119 -0.0357 -0.3211  0.7882
 3537TIP3    H132170   0.427   4.694   8.116 -1.1434 -0.4519  0.1210
 3537TIP3    H232171   0.321   4.802   8.106  0.2063  0.8991  0.1121
 3538TIP3   OH232172   6.187   4.534   1.848  0.5155  0.5033 -0.1061
 3538TIP3    H132173   6.232   4.601   1.900  2.3381  0.5865 -1.6868
 3538TIP3    H232174   6.244   4.457   1.856 -0.6673 -0.3568  0.2905
 3539TIP3   OH232175   0.576   2.685   7.138 -0.1081  0.7218  0.3091
 3539TIP3    H132176   0.553   2.592   7.145 -0.7542  0.7527 -1.1429
 3539TIP3    H232177   0.603   2.709   7.227 -1.0294 -0.5602  0.9733
 3540TIP3   OH232178   5.818   0.539   7.664  0.8908  0.1480 -0.4940
 3540TIP3    H132179   5.798   0.526   7.571 -2.5781  0.5316  0.0550
 3540TIP3    H232180   5.848   0.630   7.669 -1.0490  0.8573 -1.0220
 3541TIP3   OH232181   1.701   6.357   1.234 -0.2173 -0.1988  0.1961
 3541TIP3    H132182   1.755   6.314   1.167  0.9578 -1.2476  1.7446
 3541TIP3    H232183   1.749   6.436   1.257  0.7673 -1.1633  1.6187
 3542TIP3   OH232184   6.525   3.647   1.450  0.0457  0.2001 -0.6654
 3542TIP3    H132185   6.499   3.598   1.372  3.1288  1.2202 -2.4954
 3542TIP3    H232186   6.487   3.734   1.439 -1.6468 -0.3731  0.3243
 3543TIP3   OH232187   3.363   5.781   8.419  0.3335 -0.4619  0.6182
 3543TIP3    H132188   3.336   5.754   8.507  1.3292  0.1612  1.1289
 3543TIP3    H232189   3.359   5.877   8.421  1.1816 -0.4132  0.2607
 3544TIP3   OH232190   3.989   3.978   5.990  0.0702 -0.0032  0.1673
 3544TIP3    H132191   4.061   3.918   6.011  0.2313  0.1962  0.1814
 3544TIP3    H232192   3.939   3.932   5.922  0.4326  0.0259 -0.1209
 3545TIP3   OH232193   2.973   1.649   2.070 -0.5621 -0.1480  0.5117
 3545TIP3    H132194   2.998   1.572   2.018  0.9542  0.2364  0.6273
 3545TIP3    H232195   2.895   1.621   2.117 -0.6019 -1.2972 -0.2004
 3546TIP3   OH232196   0.473   4.482   1.158  0.0953  0.4090  0.2002
 3546TIP3    H132197   0.550   4.426   1.164  1.1921  1.7942 -0.3629
 3546TIP3    H232198   0.501   4.556   1.105 -1.4333  1.2790  0.5413
 3547TIP3   OH232199   1.138   6.714   1.008  0.0074  0.0481  0.1036
 3547TIP3    H132200   1.189   6.779   1.057 -0.7418  0.0439  0.9244
 3547TIP3    H232201   1.056   6.706   1.057 -0.9016  0.2490 -1.3176
 3548TIP3   OH232202   0.066   1.578   1.963  0.3021 -0.5555  0.3715
 3548TIP3    H132203   0.159   1.557   1.954  1.1796  2.4346  1.2971
 3548TIP3    H232204   0.055   1.603   2.054 -1.7476 -1.9797  0.5911
 3549TIP3   OH232205   1.593   4.669   7.405 -0.2036 -0.5343  0.1617
 3549TIP3    H132206   1.646   4.718   7.467 -1.0755  1.1542 -0.3452
 3549TIP3    H232207   1.651   4.653   7.330  0.1044 -0.3201  0.3552
 3550TIP3   OH232208   1.587   4.215   1.246 -0.0429  0.4582 -0.0909
 3550TIP3    H132209   1.534   4.175   1.315  0.1742 -0.4586 -0.4475
 3550TIP3    H232210   1.659   4.154   1.231  1.4446  1.9321  0.7507
 3551TIP3   OH232211   4.043   3.559   0.934  0.1361  0.4013  0.0326
 3551TIP3    H132212   4.059   3.613   1.011  1.9065  0.3344 -0.2543
 3551TIP3    H232213   4.037   3.470   0.968 -1.8473  0.6174  0.3877
 3552TIP3   OH232214   1.789   2.888   0.397 -0.1525  0.0273  0.3898
 3552TIP3    H132215   1.766   2.844   0.315  0.4904  0.1267  0.1527
 3552TIP3    H232216   1.751   2.832   0.465  0.3209 -0.6919  0.0749
 3553TIP3   OH232217   3.250   1.528   1.223  0.0228 -0.5160  0.0807
 3553TIP3    H132218   3.182   1.580   1.180 -0.8186 -0.5985  1.2771
 3553TIP3    H232219   3.332   1.566   1.191 -0.5666  1.0019  0.2484
 3554TIP3   OH232220   2.225   2.704   8.010  0.2033  0.5159 -0.1836
 3554TIP3    H132221   2.277   2.624   8.009 -0.7206 -0.1008  0.0489
 3554TIP3    H232222   2.190   2.709   8.099 -0.1724  0.8905 -0.3461
 3555TIP3   OH232223   3.316   5.674   7.452 -0.1652  0.7339  0.4671
 3555TIP3    H132224   3.271   5.697   7.533 -1.3819  0.3378 -0.0748
 3555TIP3    H232225   3.248   5.676   7.385  1.0764  2.5235 -0.8376
 3556TIP3   OH232226   6.216   3.362   0.802  0.0643 -0.5844  0.1164
 3556TIP3    H132227   6.247   3.407   0.880 -0.0018 -0.8487  0.2972
 3556TIP3    H232228   6.255   3.410   0.729 -0.9788  0.5191  0.2577
 3557TIP3   OH232229   5.102   2.442   0.892 -0.5143  0.4069 -0.8893
 3557TIP3    H132230   5.146   2.375   0.840 -0.3905 -0.1786 -0.0505
 3557TIP3    H232231   5.172   2.498   0.925  0.1590 -2.3088  3.0510
 3558TIP3   OH232232   2.874   4.346   8.623 -0.3585 -0.5082  0.4417
 3558TIP3    H132233   2.955   4.389   8.595 -0.3686 -0.4906  0.4395
 3558TIP3    H232234   2.808   4.374   8.559 -0.1973 -1.1508 -0.0049
 3559TIP3   OH232235   1.264   4.000   0.294 -0.3401  0.6681  0.0339
 3559TIP3    H132236   1.357   4.015   0.308 -0.0556 -2.1377  1.9297
 3559TIP3    H232237   1.248   3.912   0.328 -3.3172  0.2405 -2.0542
 3560TIP3   OH232238   3.740   5.119   6.692  0.0252  0.4772  0.2900
 3560TIP3    H132239   3.754   5.025   6.704 -1.3727 -0.1359 -2.2839
 3560TIP3    H232240   3.785   5.140   6.610  0.4381  2.1244  0.8907
 3561TIP3   OH232241   6.257   2.577   7.504  0.1087  0.2423  0.0163
 3561TIP3    H132242   6.308   2.578   7.423 -0.0279  0.9822 -0.0650
 3561TIP3    H232243   6.312   2.624   7.567 -0.9916  2.1833 -0.4022
 3562TIP3   OH232244   4.680   0.670   8.388  0.5369 -0.2545 -0.2130
 3562TIP3    H132245   4.718   0.597   8.438 -1.2786 -1.7146 -0.8553
 3562TIP3    H232246   4.731   0.746   8.415  1.1913 -1.3902  2.0373
 3563TIP3   OH232247   2.345   0.884   1.538 -0.4189  0.0814 -0.1311
 3563TIP3    H132248   2.321   0.976   1.532 -2.8216 -0.4375  0.5042
 3563TIP3    H232249   2.300   0.852   1.615 -2.1043 -2.2854 -1.9477
 3564TIP3   OH232250   6.565   4.357   1.639 -0.1060 -0.1204  0.2717
 3564TIP3    H132251   6.611   4.427   1.592 -1.4785  0.8535  0.3251
 3564TIP3    H232252   6.554   4.391   1.727 -1.2711 -0.1596  0.1541
 3565TIP3   OH232253   1.153   1.330   6.263 -0.0983 -0.5020 -0.6477
 3565TIP3    H132254   1.124   1.416   6.231 -0.4862 -0.1842  0.5341
 3565TIP3    H232255   1.077   1.273   6.251 -0.6198 -0.1171  0.7044
 3566TIP3   OH232256   2.293   2.310   0.263  0.1961  0.0388  0.0186
 3566TIP3    H132257   2.297   2.389   0.318  0.0807  0.0446  0.0197
 3566TIP3    H232258   2.204   2.310   0.229 -0.1198 -0.6473  0.8356
 3567TIP3   OH232259   3.229   4.518   0.711  0.4408  0.5203 -0.1862
 3567TIP3    H132260   3.230   4.428   0.680 -0.1876  1.2192 -2.3706
 3567TIP3    H232261   3.138   4.533   0.738  0.3752  0.6992 -0.4984
 3568TIP3   OH232262   6.847   6.451   7.724  0.2843 -0.5486  0.2443
 3568TIP3    H132263   6.897   6.466   7.804  1.5853  0.9217 -0.7704
 3568TIP3    H232264   6.796   6.372   7.741  0.9200 -0.5605  2.3140
 3569TIP3   OH232265   5.641   2.190   0.548 -0.0446  0.0333  0.2477
 3569TIP3    H132266   5.637   2.190   0.452  1.8274 -0.1818  0.1319
 3569TIP3    H232267   5.556   2.224   0.575 -1.1934 -1.2858 -1.4422
 3570TIP3   OH232268   1.201   6.865   7.340  0.0168  0.5165  0.0215
 3570TIP3    H132269   1.227   6.934   7.280  1.5614 -1.0017 -1.1682
 3570TIP3    H232270   1.185   6.789   7.284 -0.0427 -0.5359  1.3888
 3571TIP3   OH232271   6.770   2.233   8.227  0.6909 -0.1941 -0.0639
 3571TIP3    H132272   6.837   2.257   8.163  1.4290  1.7929  1.3483
 3571TIP3    H232273   6.819   2.215   8.307 -0.3787  0.1186  0.6783
 3572TIP3   OH232274   6.833   0.241   7.424  0.2872 -0.2498  0.5781
 3572TIP3    H132275   6.881   0.236   7.507  0.6244 -0.8257  0.3604
 3572TIP3    H232276   6.752   0.193   7.440  0.6815 -1.0031  0.3650
 3573TIP3   OH232277   3.220   4.728   6.950  0.5030 -0.0856  0.4534
 3573TIP3    H132278   3.139   4.779   6.954 -0.5011 -1.6126  0.3526
 3573TIP3    H232279   3.285   4.788   6.914  0.0470  1.9547  2.7924
 3574TIP3   OH232280   4.660   6.514   8.481 -0.1687 -0.0663  0.1670
 3574TIP3    H132281   4.657   6.581   8.549  0.8127 -0.6201  0.7684
 3574TIP3    H232282   4.749   6.517   8.447 -1.1266  1.5749 -2.5485
 3575TIP3   OH232283   2.393   3.033   8.396  0.3654  0.1266  0.4980
 3575TIP3    H132284   2.329   2.962   8.396  1.5530 -0.9855  0.5716
 3575TIP3    H232285   2.367   3.089   8.470 -0.2521 -0.5460  0.8040
 3576TIP3   OH232286   2.536   4.412   7.780  0.1230  0.2150  0.5760
 3576TIP3    H132287   2.442   4.412   7.797  0.2145 -1.4952  1.2467
 3576TIP3    H232288   2.576   4.390   7.864  1.0202 -0.5807 -0.0369
 3577TIP3   OH232289   5.298   1.479   7.120 -0.2058  0.0724 -0.1659
 3577TIP3    H132290   5.394   1.471   7.125 -0.2524 -1.0207 -0.8277
 3577TIP3    H232291   5.267   1.443   7.202 -0.0390  0.9227  0.2849
 3578TIP3   OH232292   4.442   0.047   7.669 -0.1123  0.4044  0.4653
 3578TIP3    H132293   4.456  -0.047   7.664  0.1317  0.5028 -0.9822
 3578TIP3    H232294   4.480   0.082   7.588  1.9794  2.0135  2.0222
 3579TIP3   OH232295   2.033   4.823   8.179  0.1356 -0.1260 -0.0143
 3579TIP3    H132296   1.940   4.830   8.199 -0.2831  1.9333 -2.1689
 3579TIP3    H232297   2.076   4.877   8.245 -0.2791 -0.2483  0.3643
 3580TIP3   OH232298   2.749   0.283   8.477  0.1017 -0.0313 -0.2293
 3580TIP3    H132299   2.754   0.378   8.491  1.0927 -0.0877 -0.1094
 3580TIP3    H232300   2.811   0.246   8.539 -0.6253 -0.8098  0.0534
 3581TIP3   OH232301   0.264   5.821   0.777 -0.3284  0.2701 -0.2378
 3581TIP3    H132302   0.240   5.913   0.776  0.0097  0.3557 -0.4339
 3581TIP3    H232303   0.282   5.799   0.686  0.5584  0.2711 -0.0729
 3582TIP3   OH232304   3.342   2.581   7.801  0.2797 -0.0314  0.1392
 3582TIP3    H132305   3.387   2.624   7.874  0.6259 -0.8116  0.3922
 3582TIP3    H232306   3.383   2.618   7.723 -0.2532  0.9828  0.3216
 3583TIP3   OH232307   6.174   2.632   1.921  0.5999 -0.2967 -0.0801
 3583TIP3    H132308   6.154   2.640   2.014 -0.6384  1.9889 -0.4640
 3583TIP3    H232309   6.262   2.669   1.912  0.0550  1.0685 -0.0092
 3584TIP3   OH232310   1.167   6.639   7.189  0.7300 -0.1360 -0.4050
 3584TIP3    H132311   1.179   6.546   7.208  1.6962  0.2382  0.9362
 3584TIP3    H232312   1.072   6.648   7.174  0.4940 -1.1975  0.3053
 3585TIP3   OH232313   3.267   1.333   8.658 -0.6323 -0.2346  0.1436
 3585TIP3    H132314   3.284   1.292   8.743 -0.2623  0.2714  0.3150
 3585TIP3    H232315   3.184   1.295   8.630 -0.9620 -0.1028  0.9135
 3586TIP3   OH232316   0.255   4.476   7.456  0.1484  0.0092 -0.2899
 3586TIP3    H132317   0.300   4.546   7.409 -0.9861 -0.1895 -1.7237
 3586TIP3    H232318   0.251   4.507   7.547  1.2291  0.9900 -0.5526
 3587TIP3   OH232319   4.388   3.989   1.897 -0.0184  0.3607 -0.5420
 3587TIP3    H132320   4.349   3.992   1.985  2.7139  0.1019  0.7910
 3587TIP3    H232321   4.467   3.936   1.908  0.9076  1.1026 -2.9674
 3588TIP3   OH232322   4.711   0.038   7.581  0.2169 -0.4728 -0.0497
 3588TIP3    H132323   4.758   0.102   7.635  1.1830  0.2287 -1.6575
 3588TIP3    H232324   4.773  -0.035   7.570 -0.6401 -1.4451  1.2371
 3589TIP3   OH232325   1.859   1.560   0.073  0.4732 -0.0161  0.2970
 3589TIP3    H132326   1.817   1.477   0.051  1.0002  0.3499 -2.4446
 3589TIP3    H232327   1.945   1.555   0.031  1.5857  0.8956  2.3269
 3590TIP3   OH232328   6.341   2.918   8.658 -0.5349  0.0279 -0.7778
 3590TIP3    H132329   6.366   2.826   8.668 -2.4847 -0.3482  1.5867
 3590TIP3    H232330   6.259   2.916   8.609 -0.0337  0.6039 -1.6508
 3591TIP3   OH232331   1.441   0.513   8.417 -0.1992 -0.1391  0.6109
 3591TIP3    H132332   1.434   0.607   8.402  1.5939  0.0840  0.9127
 3591TIP3    H232333   1.378   0.495   8.487 -1.1592  0.6616 -0.0213
 3592TIP3   OH232334   2.446   0.397   1.168  0.0632 -0.4925  0.2845
 3592TIP3    H132335   2.447   0.403   1.263 -0.4970  0.1905  0.2514
 3592TIP3    H232336   2.533   0.363   1.146  0.3242 -0.3262  1.0136
 3593TIP3   OH232337   3.641   1.427   8.057 -0.3279  0.2282 -0.3344
 3593TIP3    H132338   3.648   1.335   8.083  4.4995  0.2767 -0.6074
 3593TIP3    H232339   3.632   1.424   7.961 -1.4771  0.1042 -0.2381
 3594TIP3   OH232340   4.387   2.919   8.267  0.1770  0.0185 -0.0233
 3594TIP3    H132341   4.393   2.826   8.287  1.0525  0.0988  0.1122
 3594TIP3    H232342   4.309   2.926   8.211 -1.0393 -0.5034  1.5212
 3595TIP3   OH232343   6.871   3.826   7.088  0.4186 -0.5687  0.1681
 3595TIP3    H132344   6.800   3.887   7.068  1.3240 -0.1345 -2.1166
 3595TIP3    H232345   6.862   3.808   7.181 -1.5369  0.9181  0.3408
 3596TIP3   OH232346   5.131   2.132   6.918 -0.1874 -0.3997 -1.1031
 3596TIP3    H132347   5.096   2.213   6.954  1.0811 -0.3924  0.2207
 3596TIP3    H232348   5.068   2.106   6.851 -1.4674  0.8047 -0.4195
 3597TIP3   OH232349   6.359   3.586   0.676 -0.2825  0.3543 -0.3683
 3597TIP3    H132350   6.387   3.646   0.606 -3.6405 -0.8468 -3.0568
 3597TIP3    H232351   6.428   3.520   0.680  0.1525  0.5943 -2.5003
 3598TIP3   OH232352   6.463   6.376   7.191  0.2946  0.2465  0.2593
 3598TIP3    H132353   6.435   6.294   7.230  2.8328 -0.4636  0.7914
 3598TIP3    H232354   6.413   6.383   7.110 -2.0914 -0.2898  1.6075
 3599TIP3   OH232355   2.269   2.018   8.081  0.2143 -0.3166  0.5784
 3599TIP3    H132356   2.214   2.096   8.094  0.7750  0.3035 -0.6080
 3599TIP3    H232357   2.350   2.052   8.043  0.1876 -1.5403 -0.6760
 3600TIP3   OH232358   1.971   5.857   0.820 -0.1861 -0.5510 -0.4069
 3600TIP3    H132359   1.889   5.907   0.827  0.9648  1.4362 -0.4368
 3600TIP3    H232360   2.014   5.870   0.905  0.6554 -0.5118 -0.8283
 3601TIP3   OH232361   3.846   6.343   2.750 -0.1873 -0.3230  0.2325
 3601TIP3    H132362   3.752   6.328   2.763 -0.6001  1.2510 -0.7538
 3601TIP3    H232363   3.860   6.328   2.657  0.7478 -1.3960  0.5197
 3602TIP3   OH232364   4.150   1.505   1.326  0.0567 -0.0110  0.0535
 3602TIP3    H132365   4.116   1.431   1.376 -0.6523  1.5254  1.9761
 3602TIP3    H232366   4.233   1.527   1.368  1.3132 -0.8995 -1.7848
 3603TIP3   OH232367   4.095   2.477   1.164  0.4367 -0.1539 -0.0594
 3603TIP3    H132368   4.059   2.526   1.090  1.1635 -0.1810 -0.4371
 3603TIP3    H232369   4.190   2.490   1.158  0.5697 -0.8707  0.3591
 3604TIP3   OH232370   6.270   0.549   7.090  0.1313 -0.2789 -0.3716
 3604TIP3    H132371   6.339   0.539   7.025 -0.7047 -0.4798 -1.2482
 3604TIP3    H232372   6.316   0.544   7.174  1.3561  1.0256 -0.9335
 3605TIP3   OH232373   3.862   0.005   0.885  0.3410 -0.0117  0.1958
 3605TIP3    H132374   3.877   0.001   0.791  0.1008  1.9754  0.0384
 3605TIP3    H232375   3.936  -0.043   0.923  2.3616  2.0681 -0.9030
 3606TIP3   OH232376   5.709   6.826   0.736  0.1260 -0.2405 -0.1257
 3606TIP3    H132377   5.763   6.758   0.777  0.3057 -0.3944 -0.6104
 3606TIP3    H232378   5.688   6.886   0.807  1.6764  0.3041 -0.0804
 3607TIP3   OH232379   1.576   6.383   0.203  0.2135 -0.0052  0.1042
 3607TIP3    H132380   1.610   6.296   0.223 -0.2519 -0.3059 -0.3650
 3607TIP3    H232381   1.497   6.391   0.257 -1.0158 -0.7981 -1.4830
 3608TIP3   OH232382   5.044   4.025   0.258  0.3680  0.0496 -0.0465
 3608TIP3    H132383   5.019   3.961   0.325  0.9118 -0.9293 -0.7524
 3608TIP3    H232384   5.112   4.078   0.300 -0.3404  0.4219  0.6677
 3609TIP3   OH232385   4.044   4.596   1.695  0.3638 -0.0791  0.2092
 3609TIP3    H132386   3.991   4.523   1.663 -0.1944  1.4528 -2.7061
 3609TIP3    H232387   4.134   4.569   1.680  0.2370 -0.7640  0.6426
 3610TIP3   OH232388   0.930   2.650   0.478  0.4938 -0.0094 -0.2159
 3610TIP3    H132389   0.970   2.651   0.565  4.3403  1.0627 -1.7960
 3610TIP3    H232390   0.928   2.742   0.452 -1.5244 -0.2221 -0.9596
 3611TIP3   OH232391   2.578   5.670   6.550 -0.2505 -0.1761  0.1400
 3611TIP3    H132392   2.589   5.630   6.636 -3.8900 -1.1457  0.3295
 3611TIP3    H232393   2.586   5.764   6.565 -0.2555 -0.3671  1.4121
 3612TIP3   OH232394   6.279   2.381   0.370 -0.2451 -0.1529 -0.2623
 3612TIP3    H132395   6.321   2.464   0.351  0.9146 -0.8940 -1.0692
 3612TIP3    H232396   6.330   2.343   0.442 -1.1491  0.0868  0.5364
 3613TIP3   OH232397   5.317   1.312   1.905 -0.1745 -0.5379 -0.2168
 3613TIP3    H132398   5.233   1.352   1.881 -1.3357 -1.8200  1.4252
 3613TIP3    H232399   5.293   1.225   1.939  1.8669 -1.0814 -0.0427
 3614TIP3   OH232400   4.429   0.768   0.527  0.1444  0.5172 -0.1896
 3614TIP3    H132401   4.500   0.718   0.488  1.2177  0.6819  1.4593
 3614TIP3    H232402   4.443   0.858   0.496  0.0374  0.3622 -0.6913
 3615TIP3   OH232403   4.878   2.939   0.589 -0.3484 -0.3233 -0.1336
 3615TIP3    H132404   4.892   2.931   0.683 -1.3352 -1.5688 -0.0707
 3615TIP3    H232405   4.964   2.919   0.551  0.2788  1.0175  0.4924
 3616TIP3   OH232406   5.950   3.100   1.788 -0.2453 -0.0932  0.4863
 3616TIP3    H132407   5.999   3.029   1.830  0.4929  0.1291  0.0196
 3616TIP3    H232408   5.947   3.169   1.854  2.3461  0.8967 -0.3178
 3617TIP3   OH232409   5.304   3.769   7.945 -0.2873 -0.4345  0.0638
 3617TIP3    H132410   5.210   3.760   7.961 -0.4272 -1.1335 -1.0505
 3617TIP3    H232411   5.324   3.704   7.879  0.9900 -0.2637  0.2442
 3618TIP3   OH232412   2.530   1.233   8.260 -0.0339  0.1732 -0.5416
 3618TIP3    H132413   2.518   1.327   8.250  0.8458  0.2533 -0.8891
 3618TIP3    H232414   2.556   1.221   8.351  0.1294  0.2934 -0.5724
 3619TIP3   OH232415   3.205   5.539   1.832  0.0481 -0.1346  0.4460
 3619TIP3    H132416   3.242   5.627   1.831  0.1806 -0.1789 -0.8976
 3619TIP3    H232417   3.130   5.545   1.890  0.5405  0.6522  1.0214
 3620TIP3   OH232418   1.653   5.976   7.681 -0.3850 -0.0590 -0.5825
 3620TIP3    H132419   1.595   5.901   7.667 -0.7741  0.1613 -0.1781
 3620TIP3    H232420   1.595   6.052   7.682 -0.1755  0.1056  0.4202
 3621TIP3   OH232421   1.340   3.014   7.650  0.6708  0.2625 -0.2006
 3621TIP3    H132422   1.358   3.073   7.577 -0.6096  1.8304  0.6805
 3621TIP3    H232423   1.260   2.968   7.624 -0.3983  1.5866  0.5757
 3622TIP3   OH232424   2.737   6.632   6.219 -0.1607 -0.0534 -0.6172
 3622TIP3    H132425   2.673   6.675   6.275 -0.3019 -0.9143 -0.0874
 3622TIP3    H232426   2.812   6.616   6.277 -0.6974 -1.8779 -0.3559
 3623TIP3   OH232427   4.261   5.852   7.500 -0.4707 -0.3313  0.1140
 3623TIP3    H132428   4.349   5.845   7.536 -1.4352 -1.3583  2.4482
 3623TIP3    H232429   4.226   5.933   7.537 -0.7571 -0.2951 -0.2328
 3624TIP3   OH232430   5.013   1.767   6.752  0.2823 -0.2965 -0.5379
 3624TIP3    H132431   4.989   1.692   6.697  0.5622  0.1088 -1.2218
 3624TIP3    H232432   5.074   1.731   6.817  0.1394 -0.7283 -0.6399
 3625TIP3   OH232433   6.308   6.779   8.334  0.2042  0.3610  0.3825
 3625TIP3    H132434   6.270   6.733   8.409  1.5594  0.5673  1.2321
 3625TIP3    H232435   6.402   6.759   8.338  0.4433  1.1267 -0.7247
 3626TIP3   OH232436   1.779   6.822   7.987  0.3793 -0.0813  0.1977
 3626TIP3    H132437   1.797   6.745   7.933 -0.8529 -0.4963  0.3548
 3626TIP3    H232438   1.853   6.827   8.047 -0.7096 -2.6781  1.8997
 3627TIP3   OH232439   4.903   5.104   7.759 -0.1357  0.1747 -0.4366
 3627TIP3    H132440   4.884   5.161   7.684 -1.0388  0.5375  0.0589
 3627TIP3    H232441   4.893   5.160   7.835 -1.9481 -0.8319  0.1281
 3628TIP3   OH232442   1.707   2.255   8.049  0.2655 -0.1999  0.0775
 3628TIP3    H132443   1.768   2.278   8.119  2.8210  3.1648 -2.8887
 3628TIP3    H232444   1.735   2.168   8.020  2.3155  0.3806  0.1876
 3629TIP3   OH232445   6.528   6.871   1.475  0.2805  0.2297 -0.0795
 3629TIP3    H132446   6.476   6.896   1.398  0.6488  1.9883  0.2138
 3629TIP3    H232447   6.496   6.927   1.545  0.6670 -0.6351  0.8112
 3630TIP3   OH232448   4.277   6.160   1.156  0.4489 -0.9866  0.3750
 3630TIP3    H132449   4.349   6.223   1.145 -0.9811  0.5501 -0.7681
 3630TIP3    H232450   4.310   6.079   1.118  0.8916  0.2612 -2.1310
 3631TIP3   OH232451   0.384   4.738   7.386 -0.7445  0.4747 -0.5778
 3631TIP3    H132452   0.320   4.806   7.364 -1.0234  0.1636 -0.7229
 3631TIP3    H232453   0.468   4.784   7.385 -1.1443  1.4425  1.8663
 3632TIP3   OH232454   0.943   1.924   1.803  0.0775 -0.0067  0.2312
 3632TIP3    H132455   0.988   1.924   1.888  2.4076 -1.1333 -0.9032
 3632TIP3    H232456   0.870   1.863   1.815  0.0301  0.2669  1.5653
 3633TIP3   OH232457   2.166   3.757   6.841  0.3473 -0.3394 -0.1768
 3633TIP3    H132458   2.085   3.805   6.823  0.3876 -0.0167  0.4743
 3633TIP3    H232459   2.138   3.666   6.850 -0.0114 -0.1716  0.4716
 3634TIP3   OH232460   3.054   6.681   0.428 -0.1691 -0.4435 -0.0551
 3634TIP3    H132461   3.062   6.596   0.470 -1.3741 -0.3725  0.3489
 3634TIP3    H232462   2.961   6.691   0.410 -0.1054  0.9485  0.2542
 3635TIP3   OH232463   3.852   1.734   2.339 -0.6055 -0.2461 -0.2171
 3635TIP3    H132464   3.915   1.787   2.388  0.0352  0.3489 -1.6445
 3635TIP3    H232465   3.857   1.767   2.249 -0.8494 -2.1218 -0.9563
 3636TIP3   OH232466   5.879   4.816   0.207 -0.6356  0.2510  0.1563
 3636TIP3    H132467   5.797   4.857   0.234 -0.4140 -0.2429  1.6917
 3636TIP3    H232468   5.857   4.723   0.198 -0.8267  0.4669 -1.9917
 3637TIP3   OH232469   5.632   2.978   1.451 -0.3073  0.0228  0.1325
 3637TIP3    H132470   5.686   3.045   1.493  0.2904 -0.6729  0.4985
 3637TIP3    H232471   5.643   2.901   1.507  1.1439 -1.1756 -1.6935
 3638TIP3   OH232472   1.972   1.830   0.204  0.2608 -0.2943  0.1603
 3638TIP3    H132473   1.949   1.739   0.187  0.2201  0.1111 -2.3367
 3638TIP3    H232474   2.050   1.845   0.151  0.6572  0.9708  1.0417
 3639TIP3   OH232475   0.092   5.120   0.301  0.0679  0.0595 -0.9381
 3639TIP3    H132476   0.043   5.165   0.369 -0.4908 -0.7280 -0.8014
 3639TIP3    H232477   0.078   5.027   0.319  0.9440 -0.1752 -1.3847
 3640TIP3   OH232478   0.578   6.775   1.234  0.3445  0.9769  0.3962
 3640TIP3    H132479   0.644   6.827   1.281  0.8505  0.4484  0.2853
 3640TIP3    H232480   0.626   6.736   1.161  0.0302  0.1698  0.6075
 3641TIP3   OH232481   6.720   1.954   1.386 -0.4984 -0.4417  0.2895
 3641TIP3    H132482   6.769   1.872   1.396 -2.1923 -1.3560  1.6572
 3641TIP3    H232483   6.637   1.928   1.347 -0.0817  1.0356 -1.7278
 3642TIP3   OH232484   0.240   4.066   8.060 -0.0365  0.4232  0.4588
 3642TIP3    H132485   0.239   4.162   8.057 -0.3693  0.3977 -1.1544
 3642TIP3    H232486   0.200   4.044   8.144  1.3333  1.7029  1.4928
 3643TIP3   OH232487   6.569   1.206   1.141  0.3269  0.3124 -0.2450
 3643TIP3    H132488   6.552   1.290   1.099  1.7345  0.4316 -0.6214
 3643TIP3    H232489   6.556   1.223   1.235 -0.6135  0.6239 -0.4286
 3644TIP3   OH232490   1.858   6.737   1.495  0.2117  0.3334  0.4652
 3644TIP3    H132491   1.948   6.715   1.517  0.6586  3.0553  1.8666
 3644TIP3    H232492   1.842   6.692   1.412  2.1657 -1.7443  1.1075
 3645TIP3   OH232493   1.665   0.791   0.356  0.0127 -0.1760 -0.1603
 3645TIP3    H132494   1.613   0.722   0.396  1.2204 -1.5083 -0.8047
 3645TIP3    H232495   1.603   0.862   0.339 -1.8705 -2.1449 -2.0322
 3646TIP3   OH232496   2.711   3.403   7.614 -0.1783  0.1043 -0.0892
 3646TIP3    H132497   2.743   3.368   7.697 -0.6940  0.2172  0.1649
 3646TIP3    H232498   2.769   3.367   7.548  2.8769  3.2107  0.6200
 3647TIP3   OH232499   5.089   4.447   0.597 -0.4051  0.2736  0.1367
 3647TIP3    H132500   5.067   4.509   0.666 -0.6759 -1.6239  1.8337
 3647TIP3    H232501   5.142   4.380   0.640 -0.9400 -1.2090 -1.4001
 3648TIP3   OH232502   3.682   1.349   2.219 -0.3948  0.3808 -0.3098
 3648TIP3    H132503   3.681   1.429   2.167 -2.7086  2.0893  2.1410
 3648TIP3    H232504   3.753   1.362   2.282 -1.4351  1.0237  0.7596
 3649TIP3   OH232505   4.705   2.878   8.244  0.1023 -0.2545  0.5596
 3649TIP3    H132506   4.650   2.802   8.265 -0.5147  0.0563  0.1270
 3649TIP3    H232507   4.662   2.918   8.169  1.4334 -0.4990 -0.3523
 3650TIP3   OH232508   1.422   5.527   1.193 -0.6611 -0.1684 -0.0905
 3650TIP3    H132509   1.417   5.476   1.274  0.4550 -0.9441 -0.4998
 3650TIP3    H232510   1.351   5.493   1.139 -1.2478  0.1739  0.4444
 3651TIP3   OH232511   4.392   3.623   6.493  0.2914  0.2400  0.7108
 3651TIP3    H132512   4.354   3.706   6.518 -0.0961  0.1305  0.4902
 3651TIP3    H232513   4.318   3.563   6.484  0.6739 -0.5667  2.4462
 3652TIP3   OH232514   3.492   2.616   7.467 -0.5429  0.1946  0.0227
 3652TIP3    H132515   3.509   2.656   7.553  0.5277 -0.2682  0.0498
 3652TIP3    H232516   3.539   2.672   7.405 -3.0502  1.7779 -0.5774
 3653TIP3   OH232517   0.538   2.852   8.333 -0.3388  0.1502 -0.1255
 3653TIP3    H132518   0.579   2.853   8.420  0.9772  1.6354 -0.7242
 3653TIP3    H232519   0.593   2.794   8.282  0.3981  1.2472 -0.6188
 3654TIP3   OH232520   3.361   0.494   7.454 -0.2959 -0.2496  0.0048
 3654TIP3    H132521   3.287   0.549   7.431 -2.2375 -3.0741 -1.0628
 3654TIP3    H232522   3.341   0.463   7.543 -0.0490 -0.5004 -0.0263
 3655TIP3   OH232523   5.605   6.324   1.598  0.2939 -0.3459  0.0095
 3655TIP3    H132524   5.678   6.276   1.636 -0.3126 -0.3712  1.1806
 3655TIP3    H232525   5.527   6.278   1.628 -0.2217 -0.0163 -0.7952
 3656TIP3   OH232526   4.567   6.066   7.888 -0.1435 -0.1787 -0.2821
 3656TIP3    H132527   4.480   6.102   7.905  0.6432  0.6860  2.2503
 3656TIP3    H232528   4.588   6.016   7.967  1.5608 -0.5902 -0.9647
 3657TIP3   OH232529   4.184   5.367   6.868  0.2134 -0.6161  0.0394
 3657TIP3    H132530   4.098   5.327   6.881  1.3786 -3.0323  0.9218
 3657TIP3    H232531   4.198   5.364   6.774 -0.6115 -0.3129 -0.1009
 3658TIP3   OH232532   1.461   4.112   0.909 -0.4689 -0.0779  0.4267
 3658TIP3    H132533   1.518   4.187   0.924 -0.9640  0.0620  1.7939
 3658TIP3    H232534   1.442   4.079   0.997 -1.1207 -1.1511 -0.0981
 3659TIP3   OH232535   5.456   2.224   7.469 -0.1337 -0.1824 -0.1069
 3659TIP3    H132536   5.446   2.227   7.374  0.8078  1.7439 -0.1916
 3659TIP3    H232537   5.441   2.314   7.498  3.4368  0.1558  1.1108
 3660TIP3   OH232538   5.806   4.745   1.479 -0.0006  0.2787  0.5948
 3660TIP3    H132539   5.895   4.726   1.509  0.8337  1.5212 -0.9124
 3660TIP3    H232540   5.788   4.676   1.414 -0.2546 -0.1294  1.0940
 3661TIP3   OH232541   2.344   4.257   1.100  0.1817 -0.1118 -0.2194
 3661TIP3    H132542   2.339   4.269   1.194 -0.1571  0.6723 -0.3360
 3661TIP3    H232543   2.354   4.345   1.064  2.9456 -0.5496 -0.7654
 3662TIP3   OH232544   5.631   3.971   1.139 -0.0677 -0.0389  0.4116
 3662TIP3    H132545   5.536   3.983   1.140  0.0051  0.4826  1.0832
 3662TIP3    H232546   5.662   4.038   1.079 -0.1660 -0.6049 -0.2938
 3663TIP3   OH232547   1.307   4.639   6.716 -0.5031  0.3067  0.1623
 3663TIP3    H132548   1.267   4.643   6.629  2.4619 -0.5854 -1.3703
 3663TIP3    H232549   1.336   4.728   6.734  0.8303  0.0775 -0.7899
 3664TIP3   OH232550   5.163   4.023   2.124 -0.5462  0.3454 -0.1513
 3664TIP3    H132551   5.253   4.054   2.127 -0.6851  0.9046 -1.1776
 3664TIP3    H232552   5.133   4.026   2.215  0.5257 -0.0518  0.2271
 3665TIP3   OH232553   6.497   2.628   7.723  0.1547  0.2751  0.5024
 3665TIP3    H132554   6.518   2.594   7.810 -1.3933 -0.5690  0.5702
 3665TIP3    H232555   6.482   2.721   7.736 -0.6890  0.0421  1.2654
 3666TIP3   OH232556   4.482   6.560   1.157 -0.1648 -0.9801  0.0958
 3666TIP3    H132557   4.414   6.527   1.215 -0.5976 -0.4833 -0.1226
 3666TIP3    H232558   4.537   6.614   1.214 -0.8275 -0.1524 -0.0160
 3667TIP3   OH232559   2.673   5.947   6.576 -0.5496  0.3915 -0.0292
 3667TIP3    H132560   2.757   5.947   6.530 -0.0718 -0.2205  0.8169
 3667TIP3    H232561   2.615   6.000   6.520  0.3335  0.6534 -0.7216
 3668TIP3   OH232562   5.254   6.351   1.199 -1.0412 -0.5433  0.6095
 3668TIP3    H132563   5.249   6.410   1.274 -2.5133 -0.2252  0.2856
 3668TIP3    H232564   5.207   6.273   1.226 -1.2083 -0.5982  0.1761
 3669TIP3   OH232565   5.470   2.301   8.283 -0.3473 -0.1089  0.0984
 3669TIP3    H132566   5.376   2.283   8.289 -0.4416  0.3081 -0.0875
 3669TIP3    H232567   5.476   2.379   8.229  0.0324  0.5955  1.1270
 3670TIP3   OH232568   3.464   0.966   0.411  0.2523 -0.2812  0.0843
 3670TIP3    H132569   3.373   0.970   0.380  0.1609 -1.5252  0.1374
 3670TIP3    H232570   3.463   1.014   0.494 -0.7687 -1.6997  0.9535
 3671TIP3   OH232571   3.100   6.547   6.701 -0.0487  0.4239 -0.4653
 3671TIP3    H132572   3.044   6.482   6.659  1.2296  0.8781 -3.0534
 3671TIP3    H232573   3.040   6.619   6.723 -0.7360  0.3465 -1.9492
 3672TIP3   OH232574   0.679   1.861   8.567 -0.1030  0.1061 -0.2060
 3672TIP3    H132575   0.774   1.848   8.557  0.0599  0.7890  0.3776
 3672TIP3    H232576   0.660   1.938   8.515 -0.1919  0.4492  0.3289
 3673TIP3   OH232577   1.853   2.854   7.975 -0.0171 -0.6205 -0.3615
 3673TIP3    H132578   1.932   2.882   7.929  0.2715 -1.9415 -0.6931
 3673TIP3    H232579   1.880   2.841   8.066 -0.2713  0.6158 -0.0847
 3674TIP3   OH232580   5.904   6.892   1.534 -0.0408  0.1608  0.0309
 3674TIP3    H132581   5.940   6.890   1.623  1.3896  1.7190 -0.4712
 3674TIP3    H232582   5.810   6.876   1.547 -0.2299  2.2761  2.0751
 3675TIP3   OH232583   1.729   4.722   0.698  0.1811 -0.3698  0.0927
 3675TIP3    H132584   1.775   4.638   0.701 -0.3901 -0.6642  1.4217
 3675TIP3    H232585   1.645   4.705   0.742 -0.4011  0.6337 -0.5779
 3676TIP3   OH232586   6.671   3.997   8.271 -0.2101 -0.0890  0.2931
 3676TIP3    H132587   6.749   4.018   8.322 -0.1738  0.2970  0.0848
 3676TIP3    H232588   6.696   4.014   8.180 -0.2417 -0.8683  0.1289
 3677TIP3   OH232589   2.356   0.030   7.584  0.4144 -0.6696  0.1851
 3677TIP3    H132590   2.281   0.036   7.525 -0.5744  1.2164  1.5194
 3677TIP3    H232591   2.363  -0.063   7.605  0.6473 -1.3776 -2.6211
 3678TIP3   OH232592   5.521   1.934   7.522 -0.0077 -0.3354  0.0701
 3678TIP3    H132593   5.617   1.933   7.521  0.0170  0.3954 -1.6053
 3678TIP3    H232594   5.497   2.016   7.479 -1.3469 -1.9953 -2.6626
 3679TIP3   OH232595   1.685   1.871   1.130  0.5893 -0.2723 -0.4976
 3679TIP3    H132596   1.767   1.898   1.087  0.3445  0.8678 -0.2898
 3679TIP3    H232597   1.683   1.922   1.211 -0.5986  0.1362 -0.7724
 3680TIP3   OH232598   6.737   5.954   0.879  0.1972  0.2500 -0.3279
 3680TIP3    H132599   6.758   5.959   0.786  0.1573 -2.0763 -0.5155
 3680TIP3    H232600   6.656   5.903   0.883  0.5515 -0.2554  1.0085
 3681TIP3   OH232601   1.899   2.688   6.604  0.3155  0.0901  0.2164
 3681TIP3    H132602   1.843   2.740   6.662 -1.1817 -2.0597  0.8280
 3681TIP3    H232603   1.915   2.746   6.530  3.2339  3.4133  3.0615
 3682TIP3   OH232604   1.733   2.311   1.005 -0.2046  0.3882 -0.0255
 3682TIP3    H132605   1.756   2.310   0.912  0.2892 -0.6178  0.0941
 3682TIP3    H232606   1.654   2.257   1.010 -0.7660  1.1948  0.0233
 3683TIP3   OH232607   6.138   0.039   6.771  0.5984 -0.2893  0.4307
 3683TIP3    H132608   6.069   0.105   6.766 -0.8448 -1.7437  0.3165
 3683TIP3    H232609   6.194   0.057   6.696 -0.5105 -0.0049 -0.3500
 3684TIP3   OH232610   4.777   0.294   1.575 -0.0310 -0.2727 -0.4253
 3684TIP3    H132611   4.795   0.256   1.489 -0.2336  0.8290 -0.9754
 3684TIP3    H232612   4.859   0.285   1.624  0.0921 -0.8815 -0.7405
 3685TIP3   OH232613   1.547   0.688   0.863 -0.0891 -0.2322  0.5147
 3685TIP3    H132614   1.543   0.641   0.946 -0.4494  0.4984  0.9245
 3685TIP3    H232615   1.621   0.748   0.872 -0.7758  0.5974  0.7235
 3686TIP3   OH232616   0.611   6.501   7.943 -0.8275 -0.0561 -0.1038
 3686TIP3    H132617   0.694   6.472   7.980  0.0449  0.5636 -1.4708
 3686TIP3    H232618   0.548   6.493   8.014  0.5695  0.2212  1.2114
 3687TIP3   OH232619   2.700   5.445   7.210  0.0223 -0.0733 -0.8105
 3687TIP3    H132620   2.722   5.406   7.295  3.0645  0.5688 -1.2022
 3687TIP3    H232621   2.616   5.488   7.225 -0.0527 -0.8854  1.5620
 3688TIP3   OH232622   0.859   1.539   7.115  0.2753 -0.2671 -0.7222
 3688TIP3    H132623   0.889   1.457   7.153 -1.0298 -0.2951  0.3159
 3688TIP3    H232624   0.894   1.607   7.173 -1.0107 -0.2673  0.1006
 3689TIP3   OH232625   0.025   5.444   1.666  0.1195 -0.5807 -0.5565
 3689TIP3    H132626  -0.046   5.485   1.716  0.5226  0.2268 -0.6156
 3689TIP3    H232627  -0.010   5.360   1.637  0.3488 -1.8161  2.3609
 3690TIP3   OH232628   4.669   5.523   7.826 -0.1283 -0.1833  0.3385
 3690TIP3    H132629   4.715   5.485   7.900  0.0890 -0.1625  0.2137
 3690TIP3    H232630   4.579   5.489   7.834  0.0022 -0.5213  0.3697
 3691TIP3   OH232631   2.478   6.676   6.565 -0.7142 -0.6842  0.2244
 3691TIP3    H132632   2.512   6.718   6.486 -0.2244 -1.5899 -0.0616
 3691TIP3    H232633   2.549   6.683   6.629 -0.5514 -1.2579  0.1084
 3692TIP3   OH232634   1.951   5.718   0.042 -0.4149 -0.4791  0.0579
 3692TIP3    H132635   2.011   5.725  -0.032 -0.2499  0.1861  0.2489
 3692TIP3    H232636   1.864   5.730   0.003 -0.2762  0.7508  0.0771
 3693TIP3   OH232637   0.453   6.153   0.749  0.1915  0.3375 -0.0622
 3693TIP3    H132638   0.385   6.204   0.794  1.0777  1.9992 -0.4966
 3693TIP3    H232639   0.523   6.217   0.732  2.4081 -1.5693  1.4322
 3694TIP3   OH232640   5.833   4.970   8.323  0.1943  0.0563 -0.2905
 3694TIP3    H132641   5.811   5.058   8.294 -1.0646  0.8017  2.5586
 3694TIP3    H232642   5.887   4.983   8.401  2.1270 -1.7648 -1.2414
 3695TIP3   OH232643   1.947   6.314   7.294  0.0042  0.0685 -0.4670
 3695TIP3    H132644   1.925   6.232   7.337  1.0383  0.6720  1.2934
 3695TIP3    H232645   1.862   6.350   7.266 -0.4457 -1.5839 -1.3441
 3696TIP3   OH232646   1.798   4.322   2.275 -0.4063 -0.1944  0.3314
 3696TIP3    H132647   1.880   4.306   2.321  0.2548 -1.6485 -1.2376
 3696TIP3    H232648   1.761   4.399   2.318  2.0529  0.8839  0.6972
 3697TIP3   OH232649   0.768   4.526   7.308  0.1497  0.1580 -0.1461
 3697TIP3    H132650   0.785   4.432   7.301  1.8223  0.2377  1.8332
 3697TIP3    H232651   0.855   4.566   7.308 -0.5354  1.8436 -1.7453
 3698TIP3   OH232652   4.796   6.670   1.365 -0.7512  1.1205  0.6085
 3698TIP3    H132653   4.882   6.700   1.394 -0.9359  0.1662  2.3026
 3698TIP3    H232654   4.794   6.689   1.271  2.0927 -0.5835  0.0866
 3699TIP3   OH232655   0.841   1.020   1.810  0.2817 -0.1429 -0.2086
 3699TIP3    H132656   0.926   0.975   1.812  0.4103 -0.1693 -2.7755
 3699TIP3    H232657   0.823   1.033   1.717 -1.3365  2.2020  0.3494
 3700TIP3   OH232658   0.407   4.032   1.312  0.0130 -0.0706 -0.2347
 3700TIP3    H132659   0.407   4.063   1.403  0.4086  0.1033 -0.2937
 3700TIP3    H232660   0.325   4.064   1.276 -0.2974 -0.4118  0.1525
 3701TIP3   OH232661   4.635   5.645   0.008  0.6800 -0.4266 -0.2678
 3701TIP3    H132662   4.608   5.559   0.039 -3.1873  1.1243  1.2750
 3701TIP3    H232663   4.590   5.655  -0.076 -2.1524  1.3769  1.3182
 3702TIP3   OH232664   3.571   5.975   0.402  0.3969  0.6795 -0.1339
 3702TIP3    H132665   3.598   5.888   0.373 -0.0889  0.9542 -1.4729
 3702TIP3    H232666   3.526   5.959   0.485 -0.0959 -0.4186 -0.5866
 3703TIP3   OH232667   6.370   4.365   8.596 -0.1255  0.1687 -0.6813
 3703TIP3    H132668   6.330   4.282   8.570  0.6621 -0.6130  0.5382
 3703TIP3    H232669   6.463   4.346   8.604  0.4385  1.7764 -2.6832
 3704TIP3   OH232670   3.280   5.077   0.384 -0.0090 -0.1345 -0.0224
 3704TIP3    H132671   3.212   5.017   0.415  0.9096 -2.0293 -1.4959
 3704TIP3    H232672   3.292   5.055   0.292  1.9013  0.8406 -0.0623
 3705TIP3   OH232673   3.232   5.476   7.692 -0.6169  0.3476  0.7776
 3705TIP3    H132674   3.302   5.434   7.643 -0.3698  1.2598  0.3240
 3705TIP3    H232675   3.159   5.482   7.631 -0.9036 -0.0695  1.0685
 3706TIP3   OH232676   3.936   2.265   7.826  0.3864  0.3728  0.9537
 3706TIP3    H132677   3.934   2.169   7.832  4.0812  0.1399  0.7837
 3706TIP3    H232678   3.869   2.294   7.889 -1.2535 -2.2421  0.6012
 3707TIP3   OH232679   2.730   5.641   1.640  0.1279 -0.1620  0.1735
 3707TIP3    H132680   2.690   5.651   1.553  2.6035 -1.3479 -1.2105
 3707TIP3    H232681   2.666   5.591   1.690 -2.4311  2.5968 -0.0593
 3708TIP3   OH232682   1.342   3.880   0.015 -0.2479  0.0678  0.3645
 3708TIP3    H132683   1.261   3.865   0.064 -0.3213 -1.3240 -0.1297
 3708TIP3    H232684   1.379   3.792   0.003  1.1255  0.6427  0.2149
 3709TIP3   OH232685   5.994   0.904   1.914  0.0759  0.0240 -0.0508
 3709TIP3    H132686   5.951   0.879   1.996  1.3645  1.0885  1.0080
 3709TIP3    H232687   5.934   0.966   1.873  0.6123  1.6301  1.4925
 3710TIP3   OH232688   4.201   1.336   8.149 -0.0782  0.1272 -0.5931
 3710TIP3    H132689   4.261   1.385   8.093  0.3650 -2.2006 -2.3467
 3710TIP3    H232690   4.226   1.244   8.136 -1.2843 -0.6491  1.9534
 3711TIP3   OH232691   5.191   2.868   6.907  0.1741  0.0250  0.7126
 3711TIP3    H132692   5.205   2.890   6.999  0.3460  0.6859  0.5299
 3711TIP3    H232693   5.279   2.851   6.873  0.2872  1.4092  0.2659
 3712TIP3   OH232694   2.383   4.766   8.592  0.3566  0.1891  0.2293
 3712TIP3    H132695   2.327   4.703   8.638 -0.4613 -0.5912 -1.7152
 3712TIP3    H232696   2.354   4.762   8.501  2.2091  1.3137 -0.4743
 3713TIP3   OH232697   3.599   4.216   6.636 -0.4227 -0.0464 -0.3980
 3713TIP3    H132698   3.558   4.181   6.557 -0.8935 -2.9663  0.9860
 3713TIP3    H232699   3.527   4.226   6.699 -0.0520  2.1610 -0.2390
 3714TIP3   OH232700   3.291   3.572   1.754 -0.1679 -0.2264 -0.6786
 3714TIP3    H132701   3.212   3.561   1.806 -0.6414  2.1800 -0.7556
 3714TIP3    H232702   3.359   3.595   1.817  0.0365 -0.4886 -0.8008
 3715TIP3   OH232703   3.773   0.515   7.498 -0.0671 -0.0730 -0.5255
 3715TIP3    H132704   3.787   0.440   7.440 -0.9503 -0.2914 -0.4725
 3715TIP3    H232705   3.701   0.488   7.555  0.0441  0.5694 -0.0671
 3716TIP3   OH232706   6.589   3.370   8.621 -0.2597 -0.0949 -0.5262
 3716TIP3    H132707   6.627   3.442   8.672 -1.8991 -0.3064  1.0893
 3716TIP3    H232708   6.577   3.300   8.685 -2.9829 -0.1540 -1.0133
 3717TIP3   OH232709   5.036   2.330   8.497  0.4023  0.3043  0.1282
 3717TIP3    H132710   4.960   2.338   8.439  1.8624  0.5392 -1.8330
 3717TIP3    H232711   5.028   2.243   8.535 -0.3218 -0.0634 -0.8330
 3718TIP3   OH232712   5.365   3.152   8.492  0.4195 -0.2345  0.2702
 3718TIP3    H132713   5.286   3.099   8.480 -0.3469  1.2142 -1.6559
 3718TIP3    H232714   5.397   3.129   8.579 -2.2756 -0.6719  1.2404
 3719TIP3   OH232715   6.677   2.847   2.128 -0.5685  0.4476  0.0767
 3719TIP3    H132716   6.582   2.836   2.130 -0.8064  1.3673 -2.1432
 3719TIP3    H232717   6.693   2.925   2.181 -1.3064  1.3032 -0.8997
 3720TIP3   OH232718   5.425   2.521   7.460  0.5609  0.1529  0.1435
 3720TIP3    H132719   5.392   2.522   7.370  1.0791 -1.1519 -0.0723
 3720TIP3    H232720   5.496   2.586   7.460  1.8868 -1.2365 -0.9284
 3721TIP3   OH232721   5.726   1.114   6.969  0.0796 -0.2652  0.4933
 3721TIP3    H132722   5.819   1.091   6.970 -0.3300 -2.1016  0.3507
 3721TIP3    H232723   5.701   1.105   6.877 -0.5875 -1.3602  0.7741
 3722TIP3   OH232724   3.016   6.751   7.009 -0.5390 -0.0201  0.8798
 3722TIP3    H132725   3.094   6.698   6.992 -1.1621 -1.2965  1.7704
 3722TIP3    H232726   2.970   6.754   6.925  0.0474  0.0366  0.5567
 3723TIP3   OH232727   3.259   4.777   0.451  0.4330 -0.4404  0.2223
 3723TIP3    H132728   3.298   4.831   0.520  1.0847 -2.5802  1.5953
 3723TIP3    H232729   3.333   4.750   0.397  0.4640 -1.8114  0.9066
 3724TIP3   OH232730   4.289   6.415   1.437  0.1366 -0.0172 -0.2268
 3724TIP3    H132731   4.203   6.454   1.457  0.3509 -0.5606  1.9920
 3724TIP3    H232732   4.327   6.397   1.523  1.6294 -1.6672 -1.1916
 3725TIP3   OH232733   1.507   4.482   6.839  0.1686  0.0308 -0.7914
 3725TIP3    H132734   1.423   4.523   6.818 -0.7523 -1.3654  0.0338
 3725TIP3    H232735   1.538   4.446   6.756 -0.4435 -0.1487 -0.9418
 3726TIP3   OH232736   0.290   2.276   7.334 -0.0427  0.2945 -0.5493
 3726TIP3    H132737   0.323   2.210   7.274 -1.4530  1.8969 -3.2522
 3726TIP3    H232738   0.210   2.238   7.370  1.2488 -1.0158  1.1096
 3727TIP3   OH232739   0.853   4.260   1.126  0.5313 -0.0652  0.0803
 3727TIP3    H132740   0.940   4.226   1.105  0.2000 -1.4778  0.9053
 3727TIP3    H232741   0.840   4.239   1.218 -0.8254 -0.2062 -0.1197
 3728TIP3   OH232742   1.420   4.849   7.541 -0.1950  0.5505 -0.1510
 3728TIP3    H132743   1.337   4.801   7.538  0.2067 -0.1247 -3.2410
 3728TIP3    H232744   1.486   4.781   7.555 -0.0755  1.0878  2.3207
 3729TIP3   OH232745   0.483   6.483   8.195 -0.3009 -0.0113  0.1115
 3729TIP3    H132746   0.473   6.392   8.167  0.0249 -0.6996  2.0571
 3729TIP3    H232747   0.431   6.489   8.276  0.6678  1.1858  0.6829
 3730TIP3   OH232748   2.454   4.170   2.528  0.0215  0.3937 -0.4817
 3730TIP3    H132749   2.401   4.242   2.562  1.7422  0.8857  1.3542
 3730TIP3    H232750   2.479   4.198   2.440  1.8988  2.8214  0.7198
 3731TIP3   OH232751   0.139   1.862   8.519 -0.0243 -0.0569  0.3327
 3731TIP3    H132752   0.231   1.875   8.543  0.5322 -0.7963 -1.2667
 3731TIP3    H232753   0.090   1.914   8.583  1.4620 -0.1295  1.5880
 3732TIP3   OH232754   5.013   3.913   1.084 -0.5653  0.0923  0.0294
 3732TIP3    H132755   4.987   3.872   1.167 -2.2800  0.1950 -0.4274
 3732TIP3    H232756   4.973   3.858   1.017  0.7386  0.0606 -0.7512
 3733TIP3   OH232757   0.259   1.582   1.681  0.1334  0.4972  0.1345
 3733TIP3    H132758   0.305   1.665   1.684  0.8212  0.2903 -2.4182
 3733TIP3    H232759   0.181   1.600   1.629  0.3141 -0.4521 -0.4875
 3734TIP3   OH232760   3.386   6.583   1.892  0.4248  0.0375  0.0749
 3734TIP3    H132761   3.414   6.661   1.940  1.9661 -0.5387  0.1461
 3734TIP3    H232762   3.466   6.549   1.852  0.2981 -2.9043  2.0684
 3735TIP3   OH232763   5.798   3.798   7.884 -0.2817  0.3311  0.4940
 3735TIP3    H132764   5.861   3.867   7.867  0.1476  0.0357  0.8320
 3735TIP3    H232765   5.748   3.829   7.960  0.1401  0.1241  0.8600
 3736TIP3   OH232766   6.779   5.523   0.536  0.8179 -0.2427 -0.2526
 3736TIP3    H132767   6.741   5.590   0.480 -1.4685 -0.5870  0.7647
 3736TIP3    H232768   6.813   5.571   0.611  2.1203  0.0306 -0.9848
 3737TIP3   OH232769   2.592   1.894   0.143  0.1504  0.2816 -0.3303
 3737TIP3    H132770   2.546   1.977   0.152  1.0030  0.7722 -0.3940
 3737TIP3    H232771   2.528   1.828   0.170  0.3271  1.1518  2.6290
 3738TIP3   OH232772   6.317   1.364   0.247 -0.0886  0.3138 -0.1241
 3738TIP3    H132773   6.275   1.445   0.277  1.5006  0.8040  0.8852
 3738TIP3    H232774   6.250   1.297   0.260 -0.8869  1.1982  0.5607
 3739TIP3   OH232775   1.910   1.761   8.053  0.5605 -0.2554 -0.8012
 3739TIP3    H132776   1.970   1.751   8.126 -1.4312  1.1274  1.1822
 3739TIP3    H232777   1.864   1.677   8.048 -0.2911  0.1004  0.5511
 3740TIP3   OH232778   5.749   2.592   0.701  0.8923 -0.5128  0.4727
 3740TIP3    H132779   5.807   2.530   0.656  1.3854 -0.5322  1.1297
 3740TIP3    H232780   5.797   2.674   0.702  0.2692 -0.1293 -0.3275
 3741TIP3   OH232781   5.513   2.055   8.578 -0.0123 -0.1376 -0.5034
 3741TIP3    H132782   5.586   2.100   8.619  1.0957 -1.7684 -0.5904
 3741TIP3    H232783   5.554   1.989   8.521 -1.5344 -0.9037 -0.7654
 3742TIP3   OH232784   1.376   3.176   8.600 -0.2294  0.2437 -0.3141
 3742TIP3    H132785   1.400   3.117   8.672 -0.2465  0.2954 -0.2663
 3742TIP3    H232786   1.323   3.122   8.542 -0.0355  0.1429 -0.3976
 3743TIP3   OH232787   3.151   3.853   8.405 -0.6297  0.0071  0.1175
 3743TIP3    H132788   3.090   3.794   8.362  0.6153 -0.6566 -0.7798
 3743TIP3    H232789   3.173   3.809   8.487 -1.0973  0.1010  0.2976
 3744TIP3   OH232790   4.319   4.416   1.595 -0.5129 -0.1171 -0.1192
 3744TIP3    H132791   4.333   4.411   1.501 -1.6256  0.3983 -0.3199
 3744TIP3    H232792   4.367   4.341   1.630  1.1318  0.5006 -0.9292
 3745TIP3   OH232793   2.980   3.468   8.072  0.2945 -0.2784 -0.3928
 3745TIP3    H132794   2.933   3.425   8.000 -0.3975 -1.0001  0.4682
 3745TIP3    H232795   2.918   3.530   8.108  0.1812 -0.8334  0.3906
 3746TIP3   OH232796   3.350   5.889   7.702 -0.1621 -0.4549 -0.4386
 3746TIP3    H132797   3.436   5.869   7.666 -0.1008 -1.6210  0.3111
 3746TIP3    H232798   3.368   5.932   7.786 -0.2998 -0.7587 -0.2503
 3747TIP3   OH232799   1.891   6.231   0.964  0.1001  0.3235 -0.6027
 3747TIP3    H132800   1.903   6.246   0.871  2.7918  2.5001 -0.0181
 3747TIP3    H232801   1.936   6.149   0.982 -2.2970 -1.3053 -1.4523
 3748TIP3   OH232802   1.684   2.190   1.623 -0.1525  0.1346  0.6943
 3748TIP3    H132803   1.701   2.210   1.715 -1.0457  1.1600  0.6586
 3748TIP3    H232804   1.726   2.261   1.575  1.2145 -0.9539  0.2277
 3749TIP3   OH232805   3.790   2.759   6.420 -0.0098 -0.0271 -0.6851
 3749TIP3    H132806   3.732   2.703   6.472 -0.3750 -1.4053 -2.4709
 3749TIP3    H232807   3.735   2.792   6.350  0.7038  0.9848 -0.7916
 3750TIP3   OH232808   3.947   0.943   7.501 -0.3787  0.2209 -0.1533
 3750TIP3    H132809   4.020   0.982   7.452 -0.9772  0.6026 -0.7504
 3750TIP3    H232810   3.935   1.002   7.576  0.1367 -0.0279  0.1349
 3751TIP3   OH232811   5.447   0.771   6.578  0.2479  0.1109 -0.4649
 3751TIP3    H132812   5.536   0.756   6.546  0.2771  1.6600 -1.1785
 3751TIP3    H232813   5.404   0.820   6.508 -0.5564  1.1337  0.7141
 3752TIP3   OH232814   1.696   6.573   8.471 -0.0798 -0.0426 -0.1137
 3752TIP3    H132815   1.745   6.625   8.535  0.2517  0.1780 -0.5456
 3752TIP3    H232816   1.735   6.595   8.387 -0.2490 -0.6388 -0.3542
 3753TIP3   OH232817   6.852   2.550   7.547  0.1033 -0.4438  0.0641
 3753TIP3    H132818   6.893   2.541   7.633 -0.9703 -0.7846  0.5708
 3753TIP3    H232819   6.760   2.529   7.563  0.0036 -1.1658 -1.3004
 3754TIP3   OH232820   2.759   2.476   0.081  0.0122 -0.3920 -0.5519
 3754TIP3    H132821   2.775   2.563   0.046  2.3025 -0.3842  0.3515
 3754TIP3    H232822   2.683   2.486   0.138  0.6787  1.1868  0.1040
 3755TIP3   OH232823   5.792   5.406   1.924 -0.1757  0.2726  0.2031
 3755TIP3    H132824   5.704   5.370   1.920 -0.6874  1.5645 -0.9308
 3755TIP3    H232825   5.846   5.335   1.960 -1.7063 -0.4305  1.1987
 3756TIP3   OH232826   5.085   4.874   0.302  0.4645 -0.4671 -0.6352
 3756TIP3    H132827   4.997   4.905   0.282  0.9990  0.6289 -1.4015
 3756TIP3    H232828   5.143   4.935   0.256  1.6721 -0.3224  0.9932
 3757TIP3   OH232829   2.137   5.410   7.516 -0.1762  0.4667  0.4985
 3757TIP3    H132830   2.051   5.368   7.512 -0.3602  0.8751  0.0205
 3757TIP3    H232831   2.194   5.353   7.463 -0.1897  0.2769  0.6898
 3758TIP3   OH232832   1.355   3.966   7.853 -0.1672  0.4062 -0.8889
 3758TIP3    H132833   1.259   3.967   7.843 -0.2037  1.1972 -0.6034
 3758TIP3    H232834   1.386   4.026   7.785  0.0127  1.1773 -0.1495
 3759TIP3   OH232835   4.523   0.613   0.825 -1.0809  0.0453  0.4172
 3759TIP3    H132836   4.463   0.601   0.899 -2.2675 -1.1555 -0.7042
 3759TIP3    H232837   4.483   0.564   0.753  1.3225 -0.9292 -0.3373
 3760TIP3   OH232838   5.951   6.702   0.283  0.1041 -0.5428 -0.4048
 3760TIP3    H132839   6.044   6.699   0.305 -0.0754 -0.1600  0.4800
 3760TIP3    H232840   5.906   6.676   0.364 -0.5654 -0.2036 -0.6565
 3761TIP3   OH232841   4.246   5.598   0.992 -0.1374 -0.0028 -0.0467
 3761TIP3    H132842   4.252   5.684   1.034  1.1859 -0.0984 -0.0120
 3761TIP3    H232843   4.319   5.548   1.029 -1.1500 -1.3117  0.2894
 3762TIP3   OH232844   2.055   5.043   1.065 -0.1354  0.1291  0.0205
 3762TIP3    H132845   2.079   5.005   1.150 -0.5451  0.1238  0.1357
 3762TIP3    H232846   1.976   4.996   1.040 -1.2158  1.5740  0.6259
 3763TIP3   OH232847   3.994   4.924   7.291 -0.0626  0.2014 -0.6029
 3763TIP3    H132848   4.018   4.833   7.307 -0.2729 -0.0802 -1.8063
 3763TIP3    H232849   4.066   4.974   7.330  1.2969 -0.5635 -2.0117
 3764TIP3   OH232850   3.598   5.822   1.358  0.0724  0.8398 -0.1630
 3764TIP3    H132851   3.582   5.897   1.300 -0.9246 -0.0921 -1.1372
 3764TIP3    H232852   3.680   5.785   1.326  0.1827  1.0687 -0.1538
 3765TIP3   OH232853   5.945   5.260   0.442 -0.0849 -0.4692  0.3466
 3765TIP3    H132854   5.991   5.334   0.480 -0.7561  0.0034  0.2563
 3765TIP3    H232855   5.901   5.296   0.365 -0.5213 -0.9223  0.3764
 3766TIP3   OH232856   0.709   6.033   2.393  0.2262  0.4879 -1.0090
 3766TIP3    H132857   0.787   6.042   2.449  0.5840 -0.3822 -1.3432
 3766TIP3    H232858   0.696   6.120   2.356 -0.1311  1.1467  0.5507
 3767TIP3   OH232859   6.400   6.295   1.185  0.0226  0.2240  0.0581
 3767TIP3    H132860   6.430   6.216   1.141 -0.8015 -0.5276  0.7995
 3767TIP3    H232861   6.391   6.269   1.277 -0.8594  1.0015  0.2048
 3768TIP3   OH232862   0.865   0.303   0.780 -1.0247 -0.1151 -0.2532
 3768TIP3    H132863   0.783   0.345   0.758 -0.0468  2.4754  0.6517
 3768TIP3    H232864   0.841   0.231   0.839 -2.6669  0.1823 -0.5314
 3769TIP3   OH232865   1.468   2.975   1.709 -0.0483 -0.0787 -0.0633
 3769TIP3    H132866   1.528   2.983   1.783  0.5304 -0.2942 -0.5017
 3769TIP3    H232867   1.384   3.007   1.743  0.5079  1.0191  0.3114
 3770TIP3   OH232868   1.425   1.973   1.251 -0.3260 -0.7851 -0.0477
 3770TIP3    H132869   1.444   2.044   1.311 -2.0977 -0.3495  0.0595
 3770TIP3    H232870   1.476   1.993   1.172  0.6202 -0.4125  0.6401
 3771TIP3   OH232871   6.245   0.227   7.658  0.3672  0.0974  0.3346
 3771TIP3    H132872   6.159   0.186   7.655 -0.1569  1.1848 -1.1981
 3771TIP3    H232873   6.263   0.239   7.751 -0.3684 -1.6688  0.7299
 3772TIP3   OH232874   5.858   4.411   6.864  0.3825  0.7063  0.1761
 3772TIP3    H132875   5.843   4.388   6.772 -1.1125  1.0482  0.3031
 3772TIP3    H232876   5.925   4.479   6.861 -0.8134  1.8867 -0.8111
 3773TIP3   OH232877   6.159   4.076   7.092  0.0875 -0.2877  0.0559
 3773TIP3    H132878   6.218   4.016   7.046  1.2009  1.4717 -0.9557
 3773TIP3    H232879   6.212   4.155   7.105 -1.1630  0.3223  1.7755
 3774TIP3   OH232880   2.912   1.457   7.995 -0.1197  0.4961 -0.0664
 3774TIP3    H132881   2.845   1.398   7.960 -1.6262  1.0975  1.6311
 3774TIP3    H232882   2.990   1.403   8.003 -1.0585 -0.8982  0.1190
 3775TIP3   OH232883   6.838   5.167   1.603  0.0683 -0.5894 -0.1018
 3775TIP3    H132884   6.762   5.179   1.546  1.1002 -1.4438 -1.7249
 3775TIP3    H232885   6.903   5.123   1.548  1.6878 -0.0480  1.2819
 3776TIP3   OH232886   0.625   5.720   7.901  0.6219  0.0177 -0.3728
 3776TIP3    H132887   0.572   5.687   7.973  1.0580  1.4110  0.6258
 3776TIP3    H232888   0.587   5.681   7.823 -0.4471 -0.7817  0.5243
 3777TIP3   OH232889   2.775   4.034   6.772 -0.6989 -0.6166 -0.4330
 3777TIP3    H132890   2.699   4.065   6.723 -0.1365  0.9085 -0.3789
 3777TIP3    H232891   2.755   4.053   6.864 -0.5532 -0.8863 -0.3420
 3778TIP3   OH232892   4.969   3.005   1.790 -0.3475 -0.6239 -0.3949
 3778TIP3    H132893   5.001   2.949   1.720 -0.3824 -0.4993 -0.5108
 3778TIP3    H232894   5.013   3.089   1.775 -1.2286 -0.2529 -0.9375
 3779TIP3   OH232895   5.139   5.757   0.745 -0.4295  0.4418  0.5484
 3779TIP3    H132896   5.171   5.833   0.695 -1.7976  0.0368 -1.0271
 3779TIP3    H232897   5.101   5.795   0.824  0.4650  1.2394  0.6097
 3780TIP3   OH232898   0.047   0.995   0.405 -0.3115  0.5283 -0.4075
 3780TIP3    H132899   0.131   0.999   0.360 -0.7850  1.8415 -1.2250
 3780TIP3    H232900   0.060   1.044   0.486  0.2601 -0.9962  0.4593
 3781TIP3   OH232901   6.387   1.571   0.857 -0.4784  0.1148  0.0667
 3781TIP3    H132902   6.477   1.601   0.867 -0.4121 -0.0990  0.1063
 3781TIP3    H232903   6.350   1.628   0.789 -0.2982  0.1670  0.0133
 3782TIP3   OH232904   5.784   2.452   0.069  0.0464  0.0370 -0.6438
 3782TIP3    H132905   5.823   2.490   0.147  1.9203 -2.9470  0.0437
 3782TIP3    H232906   5.798   2.517   0.001  1.9580  1.1053  0.6748
 3783TIP3   OH232907   2.406   2.940   7.222 -0.8200  0.1363 -0.7365
 3783TIP3    H132908   2.461   3.015   7.200 -1.3622  0.5536 -0.7012
 3783TIP3    H232909   2.355   2.923   7.143 -1.0769  0.1396 -0.5728
 3784TIP3   OH232910   6.770   1.015   0.016 -0.3534  0.5358  0.5851
 3784TIP3    H132911   6.789   1.105   0.043  1.6911  0.7016 -1.1867
 3784TIP3    H232912   6.856   0.977  -0.003 -1.3651 -0.7148 -1.9417
 3785TIP3   OH232913   5.843   6.051   7.956 -0.1334 -0.0956 -0.6214
 3785TIP3    H132914   5.773   5.992   7.928 -0.4289  0.2994 -0.7118
 3785TIP3    H232915   5.861   6.106   7.880 -2.4053  2.4433  0.5098
 3786TIP3   OH232916   1.108   4.727   8.030  0.0905 -1.1889 -0.1040
 3786TIP3    H132917   1.171   4.661   8.057  0.3263 -0.7349  0.4574
 3786TIP3    H232918   1.120   4.799   8.091 -0.9324 -1.0694 -0.0210
 3787TIP3   OH232919   5.677   0.467   6.508  0.0731  0.1565  0.0166
 3787TIP3    H132920   5.715   0.552   6.531  0.9326 -0.2290  0.0818
 3787TIP3    H232921   5.641   0.433   6.590 -1.2031  0.8922 -0.2089
 3788TIP3   OH232922   5.542   3.101   8.230 -0.0271  0.3345 -0.1863
 3788TIP3    H132923   5.521   3.107   8.323  1.2876 -1.7886  0.2951
 3788TIP3    H232924   5.457   3.108   8.186 -0.6208  1.8196  1.1017
 3789TIP3   OH232925   4.135   1.737   2.070 -0.4928 -0.1047  0.0146
 3789TIP3    H132926   4.122   1.831   2.081 -2.6892 -0.4307  0.6612
 3789TIP3    H232927   4.063   1.710   2.012  1.3646 -1.0764 -1.9745
 3790TIP3   OH232928   3.896   4.940   6.520 -0.6824 -0.1843 -0.6297
 3790TIP3    H132929   3.944   4.871   6.476  1.2091  1.1861 -0.8554
 3790TIP3    H232930   3.858   4.898   6.597 -0.5186 -1.6893 -1.3485
 3791TIP3   OH232931   5.226   4.975   0.079  0.7647  0.0504  0.6791
 3791TIP3    H132932   5.155   5.035   0.056  0.6847 -0.8790 -1.7932
 3791TIP3    H232933   5.300   5.033   0.097  0.6622  0.9855 -1.5502
 3792TIP3   OH232934   2.655   3.671   0.199 -0.1777 -0.1417 -0.0663
 3792TIP3    H132935   2.712   3.744   0.225  1.1379 -0.7283 -1.1465
 3792TIP3    H232936   2.664   3.668   0.103 -1.1600 -0.9724 -0.1423
 3793TIP3   OH232937   5.445   0.679   8.588  0.0375 -0.3734 -0.5232
 3793TIP3    H132938   5.379   0.736   8.626  0.4164  0.0337 -0.4573
 3793TIP3    H232939   5.524   0.695   8.641  0.4536 -0.1162 -1.2042
 3794TIP3   OH232940   5.173   2.028   7.357 -0.3818  0.3586 -0.2339
 3794TIP3    H132941   5.198   1.968   7.428 -2.6191  0.9017  1.1301
 3794TIP3    H232942   5.162   1.972   7.281 -1.9483 -0.9431  0.8908
 3795TIP3   OH232943   6.128   5.487   1.304 -0.1650  0.9317  0.2647
 3795TIP3    H132944   6.064   5.418   1.323  0.1542 -0.3481 -2.8104
 3795TIP3    H232945   6.075   5.563   1.282 -0.5336  1.1119  1.6521
 3796TIP3   OH232946   1.756   4.902   8.309 -0.2299  0.1792  0.1828
 3796TIP3    H132947   1.736   4.994   8.326  1.5749  0.5455  0.4525
 3796TIP3    H232948   1.736   4.857   8.391 -1.1598  0.3101  0.0363
 3797TIP3   OH232949   1.840   3.473   0.537  0.4817  0.6287  0.1300
 3797TIP3    H132950   1.793   3.556   0.539  2.6519  1.9469  0.4763
 3797TIP3    H232951   1.842   3.448   0.445 -1.3186  0.2248  0.1686
 3798TIP3   OH232952   3.271   5.708   0.005  0.2622  0.0995 -0.2991
 3798TIP3    H132953   3.268   5.753   0.089  1.2285  0.2237 -0.3130
 3798TIP3    H232954   3.180   5.689  -0.016 -0.0041  0.2449  0.6767
 3799TIP3   OH232955   1.994   1.304   0.409 -0.0542 -0.4467  0.8078
 3799TIP3    H132956   1.956   1.247   0.475 -0.4591 -1.4794 -0.2713
 3799TIP3    H232957   2.080   1.265   0.390  0.0992 -0.1059  0.8027
 3800TIP3   OH232958   6.348   1.143   7.338  0.2326 -0.0043  0.0642
 3800TIP3    H132959   6.283   1.074   7.326  0.1482 -0.3667  2.1662
 3800TIP3    H232960   6.298   1.224   7.336  0.4182  0.1426 -3.1017
 3801TIP3   OH232961   5.878   4.148   0.752  0.2333  0.4382 -0.0095
 3801TIP3    H132962   5.896   4.071   0.698 -1.2394  0.6547 -0.8478
 3801TIP3    H232963   5.850   4.215   0.691 -1.2269  0.7738  0.9725
 3802TIP3   OH232964   0.179   1.220   1.559 -0.2216  0.0298  0.5198
 3802TIP3    H132965   0.131   1.268   1.627 -1.7545  0.1000 -0.5563
 3802TIP3    H232966   0.124   1.228   1.481  1.5603  0.0541 -0.7751
 3803TIP3   OH232967   4.851   4.236   8.223 -0.0690  0.1047 -0.0706
 3803TIP3    H132968   4.900   4.200   8.149  0.0193  0.2207 -0.0702
 3803TIP3    H232969   4.783   4.290   8.182 -1.9051 -2.1385 -0.1569
 3804TIP3   OH232970   3.185   1.819   0.066  0.6436 -0.5025  0.3937
 3804TIP3    H132971   3.107   1.871   0.045  0.4383 -0.9447  0.0539
 3804TIP3    H232972   3.257   1.870   0.028  0.2882 -1.2332 -1.3665
 3805TIP3   OH232973   3.457   2.945   8.409  0.4328  0.1319  0.5091
 3805TIP3    H132974   3.475   2.978   8.320 -0.7430 -1.7952 -0.5003
 3805TIP3    H232975   3.543   2.945   8.451  1.4438 -1.0379 -1.3972
 3806TIP3   OH232976   4.298   1.150   0.356 -0.4684  0.5531  0.2226
 3806TIP3    H132977   4.269   1.067   0.394 -2.1354  0.8447 -0.3237
 3806TIP3    H232978   4.297   1.135   0.261  0.9040  0.6863  0.1742
 3807TIP3   OH232979   3.677   0.207   7.891 -0.4803 -0.6052  0.5115
 3807TIP3    H132980   3.745   0.200   7.959 -0.5232 -0.4102  0.5744
 3807TIP3    H232981   3.611   0.142   7.917  1.0705 -3.0505 -1.1737
 3808TIP3   OH232982   2.924   6.164   0.239  0.0484 -0.1556 -0.2668
 3808TIP3    H132983   2.979   6.153   0.161 -0.6301  2.2522 -1.1708
 3808TIP3    H232984   2.922   6.077   0.279  0.5363 -1.4583 -2.8436
 3809TIP3   OH232985   6.558   5.999   6.863  0.0588 -0.3940 -0.2046
 3809TIP3    H132986   6.647   6.030   6.872  0.2785 -0.8412 -0.7372
 3809TIP3    H232987   6.513   6.067   6.813 -0.1040  0.1814  0.7080
 3810TIP3   OH232988   2.953   2.639   8.276  0.1726  0.3658 -0.4851
 3810TIP3    H132989   3.021   2.694   8.316  1.1550 -0.9803 -0.2584
 3810TIP3    H232990   2.926   2.689   8.198  0.3718  1.5990  0.2106
 3811TIP3   OH232991   5.824   3.835   2.086 -0.1704 -0.3211  0.0061
 3811TIP3    H132992   5.856   3.762   2.032  1.0460  0.1956 -0.0033
 3811TIP3    H232993   5.799   3.793   2.169  0.1037 -0.8178 -0.1530
 3812TIP3   OH232994   4.267   4.804   0.730  0.0014  0.1794 -0.1361
 3812TIP3    H132995   4.312   4.843   0.655  0.0063 -1.6333 -1.1266
 3812TIP3    H232996   4.321   4.827   0.805 -1.0596  3.8363 -0.2765
 3813TIP3   OH232997   3.670   5.963   7.834 -0.3347 -0.4716  0.0329
 3813TIP3    H132998   3.634   5.922   7.756  0.4992  0.2273 -0.7436
 3813TIP3    H232999   3.666   5.895   7.901  0.1490 -1.5150 -0.9652
 3814TIP3   OH233000   6.312   4.043   7.711  0.0608 -0.0109  0.0270
 3814TIP3    H133001   6.362   4.077   7.786 -0.3536  0.6117  0.0293
 3814TIP3    H233002   6.336   4.100   7.638 -0.8719  0.5021  0.1002
 3815TIP3   OH233003   5.550   3.334   7.984 -0.3088 -0.4069 -0.1102
 3815TIP3    H133004   5.596   3.417   8.003  2.0312 -1.5368 -0.4248
 3815TIP3    H233005   5.505   3.312   8.065 -1.8768  1.6583 -0.3407
 3816TIP3   OH233006   2.793   2.221   8.591 -0.0789 -0.3608  0.1009
 3816TIP3    H133007   2.712   2.174   8.572 -1.0416  0.9970  0.7069
 3816TIP3    H233008   2.765   2.301   8.635  1.5976  0.1516  0.3153
 3817TIP3   OH233009   1.345   6.181   0.935  0.1570  0.1363  0.2916
 3817TIP3    H133010   1.290   6.144   1.004 -0.5363  1.6622  0.5957
 3817TIP3    H233011   1.320   6.274   0.930  0.5690  0.1945 -1.6575
 3818TIP3   OH233012   3.779   2.611   0.749  0.2068 -0.0489 -0.5079
 3818TIP3    H133013   3.736   2.562   0.679 -0.7718 -0.5133  0.3901
 3818TIP3    H233014   3.707   2.643   0.804  0.9420  0.3915  0.2220
 3819TIP3   OH233015   0.461   3.841   2.278  0.0841  0.6167  0.3033
 3819TIP3    H133016   0.462   3.936   2.286  0.1117  0.5407  1.3984
 3819TIP3    H233017   0.423   3.811   2.361  4.1590 -0.4986  1.9828
 3820TIP3   OH233018   4.136   1.871   0.204 -0.4492  0.2808 -0.8975
 3820TIP3    H133019   4.088   1.920   0.138 -2.3138 -1.2243 -0.7566
 3820TIP3    H233020   4.080   1.875   0.282  0.6585  0.2028 -0.0738
 3821TIP3   OH233021   5.337   5.601   2.279  0.0351  0.3858 -0.1866
 3821TIP3    H133022   5.351   5.585   2.372 -0.2601 -1.2866 -0.3812
 3821TIP3    H233023   5.400   5.544   2.235 -1.0528 -0.2516 -0.9954
 3822TIP3   OH233024   4.303   4.767   6.825 -0.2178 -0.0533 -0.5228
 3822TIP3    H133025   4.268   4.714   6.897 -1.4683  0.1252 -0.9799
 3822TIP3    H233026   4.348   4.705   6.769 -1.4634 -0.6175 -0.9285
 3823TIP3   OH233027   3.487   3.624   6.358 -0.5278  0.1812 -0.3317
 3823TIP3    H133028   3.538   3.587   6.430  0.0910  0.9089 -0.3862
 3823TIP3    H233029   3.540   3.608   6.280 -0.8158  0.1291 -0.5201
 3824TIP3   OH233030   3.881   4.520   2.210 -0.0162 -0.5403 -0.1709
 3824TIP3    H133031   3.950   4.563   2.260 -1.7911  0.5477  1.4779
 3824TIP3    H233032   3.852   4.448   2.267 -1.5989  0.2922  0.1334
 3825TIP3   OH233033   5.151   2.899   0.560  0.1548 -0.2360 -1.2463
 3825TIP3    H133034   5.195   2.870   0.639 -2.4016 -1.7331 -0.2452
 3825TIP3    H233035   5.207   2.969   0.525  2.7340 -1.3752  0.3545
 3826TIP3   OH233036   0.010   2.356   7.248  0.1421 -0.5014 -0.0526
 3826TIP3    H133037   0.047   2.310   7.172 -0.7093  0.5224 -1.1120
 3826TIP3    H233038   0.070   2.428   7.264 -0.8551  0.6297 -1.2122
 3827TIP3   OH233039   4.418   1.316   1.394 -0.5387 -0.4244  0.5238
 3827TIP3    H133040   4.495   1.290   1.345 -1.0577  0.9604 -1.1323
 3827TIP3    H233041   4.434   1.285   1.483  2.4665  0.8458  0.5456
 3828TIP3   OH233042   6.866   3.838   0.943 -0.1543  0.2812  0.4233
 3828TIP3    H133043   6.860   3.764   0.882 -0.6180  0.7151 -0.0601
 3828TIP3    H233044   6.905   3.909   0.892 -0.4073  0.6038  0.6761
 3829TIP3   OH233045   0.371   2.218   8.314  0.4615  0.4581 -0.6456
 3829TIP3    H133046   0.307   2.256   8.374  0.5234  0.0249 -0.3001
 3829TIP3    H233047   0.331   2.137   8.284  0.0547  1.1078 -1.8892
 3830TIP3   OH233048   3.001   2.447   0.228  0.1393  0.5712  0.2306
 3830TIP3    H133049   2.923   2.422   0.179 -0.7369  1.7188  0.9913
 3830TIP3    H233050   3.059   2.487   0.164 -0.1729  0.3222 -0.2087
 3831TIP3   OH233051   2.716   4.423   1.054 -0.1051 -0.1461 -0.9944
 3831TIP3    H133052   2.657   4.351   1.077 -0.5738  0.3603 -0.5956
 3831TIP3    H233053   2.804   4.387   1.065 -0.3372 -0.5717 -0.5144
 3832TIP3   OH233054   2.986   6.625   8.193 -0.0214  0.8895 -0.2082
 3832TIP3    H133055   3.055   6.598   8.133 -0.3481  0.7786 -0.5434
 3832TIP3    H233056   3.023   6.697   8.243 -0.0983  1.7093 -1.2880
 3833TIP3   OH233057   2.440   5.813   0.471 -0.1929 -0.3608 -0.4546
 3833TIP3    H133058   2.437   5.901   0.433  2.2479  0.6158  1.3645
 3833TIP3    H233059   2.370   5.765   0.426 -0.8248  2.1403 -2.3531
 3834TIP3   OH233060   6.139   4.330   0.587  0.3892 -0.3452  0.4024
 3834TIP3    H133061   6.147   4.262   0.654 -0.5080 -1.4650 -0.5775
 3834TIP3    H233062   6.144   4.283   0.504  0.8213  0.9303 -0.3295
 3835TIP3   OH233063   4.506   3.800   8.275 -0.2462  0.5017  0.0856
 3835TIP3    H133064   4.463   3.885   8.266  0.8942  0.9205 -1.9837
 3835TIP3    H233065   4.575   3.815   8.340  0.2923  1.3339 -0.6547
 3836TIP3   OH233066   4.689   1.872   0.931  0.1177  0.5951  0.2410
 3836TIP3    H133067   4.631   1.922   0.873 -1.3399 -0.7514  0.4613
 3836TIP3    H233068   4.630   1.829   0.992  1.3037 -1.1862  0.2143
 3837TIP3   OH233069   5.594   1.135   1.622  0.4832  0.2174  0.0437
 3837TIP3    H133070   5.536   1.124   1.697 -0.4483  0.0292 -0.6974
 3837TIP3    H233071   5.640   1.217   1.638  0.8949 -0.2154  1.2116
 3838TIP3   OH233072   1.588   2.236   8.354  0.1565 -0.0096 -0.1808
 3838TIP3    H133073   1.583   2.245   8.450 -1.2425  0.9298 -0.3100
 3838TIP3    H233074   1.590   2.141   8.340 -0.1155 -0.1772  0.7727
 3839TIP3   OH233075   3.415   3.759   0.061  0.2978 -0.3508  0.2051
 3839TIP3    H133076   3.415   3.667   0.033  1.0600 -0.5018  0.6872
 3839TIP3    H233077   3.505   3.788   0.049  0.3702 -0.0615  1.3420
 3840TIP3   OH233078   3.829   5.073   1.461 -0.7746 -0.0041 -0.0349
 3840TIP3    H133079   3.801   5.017   1.534 -0.0928  3.3167  3.0638
 3840TIP3    H233080   3.755   5.131   1.446 -0.4786  0.0701 -1.2694
 3841TIP3   OH233081   1.196   1.406   2.027 -0.0334  0.0917 -0.5507
 3841TIP3    H133082   1.264   1.438   1.968 -1.2789  0.1593 -2.0142
 3841TIP3    H233083   1.184   1.314   2.003 -1.3222  0.4069 -1.2003
 3842TIP3   OH233084   1.492   5.763   8.375 -0.4069  0.1387 -0.8137
 3842TIP3    H133085   1.407   5.756   8.331 -0.3199 -1.3946 -0.7926
 3842TIP3    H233086   1.528   5.847   8.345 -2.0307  0.9332 -0.6154
 3843TIP3   OH233087   6.551   2.767   8.359 -0.1458  0.6781  0.4837
 3843TIP3    H133088   6.616   2.700   8.337 -1.1501  0.0440 -0.7689
 3843TIP3    H233089   6.571   2.840   8.301 -1.9592 -0.4668 -1.7768
 3844TIP3   OH233090   3.436   6.704   6.321 -0.5910  0.4343  0.1464
 3844TIP3    H133091   3.399   6.638   6.380  1.6649 -1.7198 -0.6284
 3844TIP3    H233092   3.503   6.748   6.374  0.1537 -0.2099 -0.2387
 3845TIP3   OH233093   2.014   4.627   0.797 -0.1635 -0.7595  0.5644
 3845TIP3    H133094   1.987   4.663   0.881  0.2121  0.8789  0.0199
 3845TIP3    H233095   2.101   4.664   0.781 -0.3555 -0.7800 -0.6710
 3846TIP3   OH233096   4.885   6.869   8.433  0.2516  0.2222 -0.1246
 3846TIP3    H133097   4.963   6.868   8.488 -0.0520 -0.0145  0.3044
 3846TIP3    H233098   4.911   6.819   8.355  0.6609  0.5104 -0.1773
 3847TIP3   OH233099   3.388   0.802   1.536  0.0592  0.2367 -0.5475
 3847TIP3    H133100   3.456   0.856   1.577  0.5754 -0.9824  0.2611
 3847TIP3    H233101   3.436   0.746   1.474 -0.3686  0.1725 -0.8253
 3848TIP3   OH233102   2.720   5.463   6.176  0.0018  0.1748  0.1919
 3848TIP3    H133103   2.639   5.503   6.146 -0.3201  0.1214  0.9554
 3848TIP3    H233104   2.713   5.371   6.149  1.3572  0.8235 -2.8060
 3849TIP3   OH233105   5.818   3.355   1.438 -0.3849 -0.0476 -0.3192
 3849TIP3    H133106   5.842   3.266   1.463  2.0270  0.8991  1.1461
 3849TIP3    H233107   5.873   3.374   1.362  0.9269  0.9239  0.8186
 3850TIP3   OH233108   3.116   4.595   8.271  0.6555 -0.4626 -0.2587
 3850TIP3    H133109   3.067   4.674   8.245  1.3822 -0.1760 -0.7762
 3850TIP3    H233110   3.205   4.625   8.284  0.6595 -0.9349  0.9613
 3851TIP3   OH233111   4.439   5.179   2.199  0.4234 -0.2900 -0.2233
 3851TIP3    H133112   4.534   5.181   2.190  0.5929 -0.2625  1.4237
 3851TIP3    H233113   4.407   5.207   2.113  1.9062  0.3008 -0.6128
 3852TIP3   OH233114   0.251   5.430   1.333 -0.4281 -0.2185 -0.7507
 3852TIP3    H133115   0.302   5.482   1.271 -0.3131  1.7462  0.9167
 3852TIP3    H233116   0.162   5.430   1.296  0.4803 -3.3107 -3.4413
 3853TIP3   OH233117   3.058   0.631   7.745  0.2858 -1.0798  0.1507
 3853TIP3    H133118   3.087   0.712   7.788 -1.1541 -1.4284  1.8911
 3853TIP3    H233119   3.137   0.596   7.704  1.0783  0.8505 -0.0776
 3854TIP3   OH233120   2.516   3.158   8.170  0.7058  0.3792  0.0334
 3854TIP3    H133121   2.543   3.079   8.124  1.3145  0.7792 -0.3055
 3854TIP3    H233122   2.459   3.126   8.240  1.5055 -0.4227  0.3376
 3855TIP3   OH233123   4.774   1.141   6.991  0.5360  0.0826  0.1711
 3855TIP3    H133124   4.831   1.198   6.938  0.4304  0.2796  0.2676
 3855TIP3    H233125   4.804   1.156   7.081  0.4538  0.0467  0.2043
 3856TIP3   OH233126   1.370   5.420   1.467 -0.2544  0.9529 -0.2583
 3856TIP3    H133127   1.299   5.360   1.489 -0.7764  1.0986 -1.4742
 3856TIP3    H233128   1.414   5.437   1.550  0.7281 -2.1271 -0.0220
 3857TIP3   OH233129   0.247   4.053   6.533 -0.5920  0.1789  0.1695
 3857TIP3    H133130   0.193   4.131   6.541  0.0153  0.5032  1.2452
 3857TIP3    H233131   0.233   4.005   6.615  1.1232  0.5297  0.7093
 3858TIP3   OH233132   3.955   0.905   0.386  0.5971 -0.3488 -0.1757
 3858TIP3    H133133   3.952   0.890   0.291  0.5588 -0.0128 -0.2306
 3858TIP3    H233134   4.038   0.951   0.400  0.8073 -0.7812  0.0134
 3859TIP3   OH233135   2.968   5.325   8.446  0.4928 -0.3535 -0.3746
 3859TIP3    H133136   2.982   5.281   8.363 -1.6224 -2.0976  0.1085
 3859TIP3    H233137   2.888   5.375   8.434  0.5738 -0.0201  0.4061
 3860TIP3   OH233138   0.828   5.602   1.034  0.5179  0.0426 -0.0991
 3860TIP3    H133139   0.923   5.612   1.033  0.3976  1.5145  0.9410
 3860TIP3    H233140   0.798   5.658   1.106 -1.3464  1.7510 -2.0523
 3861TIP3   OH233141   2.159   2.949   1.440  0.1918 -0.2025  0.2919
 3861TIP3    H133142   2.148   3.030   1.489  1.0360 -0.2365  0.5460
 3861TIP3    H233143   2.251   2.949   1.413 -0.6038  0.7685 -2.9536
 3862TIP3   OH233144   2.721   1.609   8.140  0.2288 -0.4405  0.1848
 3862TIP3    H133145   2.752   1.648   8.222  1.5040  1.6917 -1.2145
 3862TIP3    H233146   2.799   1.570   8.101  0.4279  1.4749 -1.5066
 3863TIP3   OH233147   5.242   0.862   8.117  0.0757 -0.1577  0.2974
 3863TIP3    H133148   5.192   0.941   8.134  2.1889  1.2628  0.2544
 3863TIP3    H233149   5.248   0.818   8.202 -0.4015  0.1394  0.4880
 3864TIP3   OH233150   5.620   3.363   2.614 -0.0859  0.0113 -0.1990
 3864TIP3    H133151   5.555   3.296   2.632  1.0130 -1.2292 -0.6125
 3864TIP3    H233152   5.656   3.338   2.528  0.0159  1.4162 -0.5869
 3865TIP3   OH233153   0.491   6.659   6.882  0.4005  0.0811  0.0246
 3865TIP3    H133154   0.472   6.607   6.960  1.3036  1.7605  1.4468
 3865TIP3    H233155   0.579   6.631   6.856  1.3509  1.5501  1.4463
 3866TIP3   OH233156   0.914   4.148   8.542 -0.2516  0.3419  0.8274
 3866TIP3    H133157   0.951   4.121   8.626  0.4905  0.3242  0.5093
 3866TIP3    H233158   0.986   4.135   8.480 -1.0853 -0.5803  0.0220
 3867TIP3   OH233159   0.064   3.788   0.320  0.4595 -0.4050  0.0347
 3867TIP3    H133160   0.073   3.717   0.256  2.3092 -0.4700  0.3206
 3867TIP3    H233161  -0.001   3.847   0.281 -1.5860 -2.5011  0.0548
 3868TIP3   OH233162   2.550   1.056   0.997 -0.3664 -0.3130 -0.0973
 3868TIP3    H133163   2.610   1.038   0.925 -2.6801  2.4340 -3.0170
 3868TIP3    H233164   2.570   1.146   1.023 -0.5647 -0.7676  1.7380
 3869TIP3   OH233165   4.971   6.530   7.280 -0.0388  0.2128  0.5751
 3869TIP3    H133166   5.056   6.562   7.251 -0.0102 -0.8190 -0.5777
 3869TIP3    H233167   4.950   6.459   7.218  0.0719 -2.2422  3.1509
 3870TIP3   OH233168   0.220   2.782   7.190 -0.6656  0.3727  0.2197
 3870TIP3    H133169   0.194   2.719   7.257  0.0957 -0.4339 -0.2247
 3870TIP3    H233170   0.313   2.796   7.204 -0.4828  0.1551 -0.6864
 3871TIP3   OH233171   2.347   3.369   7.806  0.1440  0.4233  0.0129
 3871TIP3    H133172   2.427   3.371   7.859  0.4459  0.7999 -0.4433
 3871TIP3    H233173   2.304   3.453   7.824  0.1945  0.5082 -0.2485
 3872TIP3   OH233174   2.083   2.153   8.401 -0.1213 -0.6812  0.5294
 3872TIP3    H133175   2.103   2.154   8.308 -1.8772 -1.4645  0.1091
 3872TIP3    H233176   2.035   2.235   8.416  3.2971  1.3815  1.6080
 3873TIP3   OH233177   2.284   4.331   0.234 -0.1683 -0.8246 -0.3108
 3873TIP3    H133178   2.344   4.358   0.303  0.8702 -3.3652 -0.0871
 3873TIP3    H233179   2.258   4.242   0.260 -0.7275 -1.3601 -2.5417
 3874TIP3   OH233180   3.964   6.591   6.489 -0.4960  0.4306  0.0403
 3874TIP3    H133181   3.915   6.555   6.563 -1.2093  2.6618  0.7415
 3874TIP3    H233182   3.897   6.632   6.434  0.3234  1.5266 -0.1801
 3875TIP3   OH233183   5.331   3.109   0.736 -0.0773 -0.4954  0.4887
 3875TIP3    H133184   5.365   3.183   0.687 -1.6859 -0.0094  0.0450
 3875TIP3    H233185   5.315   3.143   0.824 -2.0644  0.1133 -0.0562
 3876TIP3   OH233186   4.717   6.372   6.826  0.3682  0.0829 -0.2605
 3876TIP3    H133187   4.676   6.446   6.870  1.9572  0.4042  0.7527
 3876TIP3    H233188   4.765   6.411   6.753  0.5942 -0.0390 -0.1762
 3877TIP3   OH233189   5.099   2.704   1.772  0.0946  0.1092 -0.2270
 3877TIP3    H133190   5.094   2.627   1.829 -0.4173 -0.0116 -0.4321
 3877TIP3    H233191   5.161   2.762   1.817 -0.3285  0.0312  0.4756
 3878TIP3   OH233192   3.022   6.143   8.628  0.4538  0.3433 -0.6532
 3878TIP3    H133193   3.102   6.191   8.603  1.5488 -1.2574 -0.3692
 3878TIP3    H233194   3.019   6.070   8.567  0.1386 -0.5534  0.4119
 3879TIP3   OH233195   0.295   3.162   7.502 -0.1828 -0.0609 -0.5920
 3879TIP3    H133196   0.341   3.236   7.542 -0.8113  0.0498 -0.0772
 3879TIP3    H233197   0.256   3.198   7.422  0.0969 -0.0125 -0.7099
 3880TIP3   OH233198   1.947   5.412   1.210 -0.2412  0.1433  0.1201
 3880TIP3    H133199   2.019   5.385   1.152 -0.0440 -0.5827  0.6887
 3880TIP3    H233200   1.872   5.424   1.151  0.0562 -0.2028 -0.3336
 3881TIP3   OH233201   5.076   1.974   8.116  0.0616 -0.4929 -0.1578
 3881TIP3    H133202   5.093   1.880   8.122  0.6068 -0.3759  0.1975
 3881TIP3    H233203   5.159   2.012   8.086  0.1770 -0.0153  0.7170
 3882TIP3   OH233204   1.252   1.120   7.158  0.2028 -0.0165  0.1238
 3882TIP3    H133205   1.290   1.139   7.072  1.7653 -0.3521  0.6966
 3882TIP3    H233206   1.312   1.162   7.221 -1.4247  1.0482  1.0430
 3883TIP3   OH233207   1.102   1.648   1.149 -0.4128  0.3714 -0.4876
 3883TIP3    H133208   1.185   1.602   1.139  0.0776  1.0757  0.2122
 3883TIP3    H233209   1.047   1.614   1.078  0.4965 -0.0430 -1.0111
 3884TIP3   OH233210   2.367   6.675   8.339 -0.1711 -0.2751  0.0683
 3884TIP3    H133211   2.274   6.672   8.315  0.0528 -3.1500 -0.9055
 3884TIP3    H233212   2.373   6.745   8.404 -2.8771  0.4761 -0.3553
 3885TIP3   OH233213   3.991   2.315   1.754 -0.0048  0.1294 -0.9117
 3885TIP3    H133214   3.988   2.280   1.665 -0.0261  2.6799 -2.0055
 3885TIP3    H233215   3.899   2.326   1.779 -0.0044 -0.9061 -0.4009
 3886TIP3   OH233216   0.988   3.931   7.318 -0.0373  0.3461  0.3121
 3886TIP3    H133217   1.042   3.853   7.325  1.3254  1.2381  0.1160
 3886TIP3    H233218   1.018   3.988   7.389 -0.9155  0.7540  0.3729
 3887TIP3   OH233219   0.178   0.509   8.508  0.0958  0.0793 -0.9131
 3887TIP3    H133220   0.102   0.453   8.494 -2.6395  3.0867  0.5934
 3887TIP3    H233221   0.209   0.486   8.596  0.9595 -1.0866 -1.4940
 3888TIP3   OH233222   6.320   3.329   7.431 -0.2514 -0.9558  0.4349
 3888TIP3    H133223   6.367   3.262   7.382  0.7288 -1.3938  1.9197
 3888TIP3    H233224   6.373   3.344   7.509  0.0414  2.1882 -0.2266
 3889TIP3   OH233225   2.436   2.200   6.971  0.1957 -0.4991 -0.2359
 3889TIP3    H133226   2.348   2.238   6.968 -0.0521 -1.0170  0.2917
 3889TIP3    H233227   2.430   2.133   7.038  1.5889  0.9761  1.4616
 3890TIP3   OH233228   5.597   3.469   8.539 -0.1201  0.1749 -0.1761
 3890TIP3    H133229   5.595   3.457   8.444  0.5365 -1.1268 -0.0561
 3890TIP3    H233230   5.691   3.473   8.561 -0.2317 -0.6497  0.5158
 3891TIP3   OH233231   6.670   2.569   1.949 -0.7595  0.2568  0.3399
 3891TIP3    H133232   6.669   2.486   1.998  1.2176 -0.3400 -0.5487
 3891TIP3    H233233   6.730   2.625   1.997  0.7713 -0.1414 -1.0178
 3892TIP3   OH233234   6.572   2.220   7.071 -0.3438  0.0260 -0.0506
 3892TIP3    H133235   6.612   2.223   7.158 -0.3063 -2.2085  0.0690
 3892TIP3    H233236   6.642   2.188   7.014 -0.6905  0.3880 -0.6809
 3893TIP3   OH233237   1.812   6.595   1.265 -0.4172 -0.3602 -0.1354
 3893TIP3    H133238   1.906   6.606   1.251 -0.2717  0.2143  1.1930
 3893TIP3    H233239   1.772   6.662   1.209  0.0043 -0.0309 -0.0527
 3894TIP3   OH233240   4.394   2.031   8.373  0.2716 -0.1832  0.0184
 3894TIP3    H133241   4.432   2.099   8.318  0.1636  0.2569  0.4760
 3894TIP3    H233242   4.469   1.980   8.403  0.8434  1.9234  2.6089
 3895TIP3   OH233243   4.494   1.702   0.225  0.4171 -0.0674  0.1294
 3895TIP3    H133244   4.579   1.682   0.263 -0.1881  0.1052  1.6383
 3895TIP3    H233245   4.434   1.638   0.264  0.1984 -1.7497 -2.6818
 3896TIP3   OH233246   0.151   1.922   1.548  0.0016 -0.3635 -0.5957
 3896TIP3    H133247   0.202   1.915   1.467  1.3309  2.9810 -0.2271
 3896TIP3    H233248   0.217   1.918   1.618 -1.0661 -2.6494  0.3821
 3897TIP3   OH233249   4.201   6.866   8.524  0.0505 -0.3637 -0.0977
 3897TIP3    H133250   4.149   6.862   8.444 -0.2103  2.2656 -0.1339
 3897TIP3    H233251   4.290   6.888   8.494 -0.5134  3.0005  0.3492
 3898TIP3   OH233252   4.121   3.392   1.124 -0.1498 -0.2040 -0.4917
 3898TIP3    H133253   4.140   3.351   1.208 -1.0834  1.4131  0.5720
 3898TIP3    H233254   4.097   3.319   1.066  3.3737 -1.7026 -0.3194
 3899TIP3   OH233255   6.782   5.795   8.366 -0.0592 -0.4444  0.3422
 3899TIP3    H133256   6.864   5.752   8.392 -0.0609 -0.4044  0.4138
 3899TIP3    H233257   6.811   5.873   8.317 -0.0563 -0.5194  0.2251
 3900TIP3   OH233258   2.601   6.071   1.883  0.0481  0.0706  0.3066
 3900TIP3    H133259   2.568   5.990   1.845 -1.2604  0.7714 -0.1170
 3900TIP3    H233260   2.567   6.071   1.972  2.5809 -1.2613  1.3752
 3901TIP3   OH233261   1.536   5.778   6.815 -0.1372 -0.1845  0.5818
 3901TIP3    H133262   1.615   5.759   6.765 -0.6803  4.1059 -2.4823
 3901TIP3    H233263   1.464   5.750   6.759 -0.7771  0.3495  1.1087
 3902TIP3   OH233264   2.403   6.148   8.530  0.0594  0.3205  0.2040
 3902TIP3    H133265   2.477   6.209   8.530 -0.0772  0.5314 -1.5191
 3902TIP3    H233266   2.327   6.202   8.548  0.1380  0.3636  0.4140
 3903TIP3   OH233267   3.551   2.845   1.272  0.2180 -0.6470  0.2773
 3903TIP3    H133268   3.585   2.934   1.284  0.4711 -0.9527  2.1746
 3903TIP3    H233269   3.625   2.795   1.240  0.0378 -0.1555 -0.9352
 3904TIP3   OH233270   0.175   5.909   6.766  0.4804 -0.2669  0.0657
 3904TIP3    H133271   0.261   5.946   6.743 -0.3931  0.5037 -2.2789
 3904TIP3    H233272   0.189   5.814   6.762  0.8977 -0.1841 -2.0534
 3905TIP3   OH233273   4.273   6.302   6.489  0.1400  0.3001 -0.4013
 3905TIP3    H133274   4.302   6.323   6.400 -0.1521 -0.3968 -0.6647
 3905TIP3    H233275   4.353   6.275   6.534 -0.0934 -1.9706 -1.2271
 3906TIP3   OH233276   2.341   1.679   8.499 -0.0275 -0.1073  0.1917
 3906TIP3    H133277   2.372   1.712   8.414  0.1617  0.2452  0.3977
 3906TIP3    H233278   2.295   1.753   8.538  3.8764  1.4338  2.4879
 3907TIP3   OH233279   2.774   5.568   8.084  0.9983 -0.3253 -0.1512
 3907TIP3    H133280   2.684   5.538   8.096  0.5756  0.6903 -0.6887
 3907TIP3    H233281   2.789   5.561   7.990  1.7650 -1.2230  0.0203
 3908TIP3   OH233282   0.204   1.980   0.277  0.1178  1.1107 -0.3527
 3908TIP3    H133283   0.197   2.025   0.362  0.2627  0.9863 -0.2753
 3908TIP3    H233284   0.206   1.887   0.300 -2.9932  0.8579 -0.6300
 3909TIP3   OH233285   6.842   6.084   6.883  0.6467 -0.1794 -0.2696
 3909TIP3    H133286   6.811   6.162   6.837  1.4206  1.0707  1.2487
 3909TIP3    H233287   6.909   6.047   6.824 -0.9993 -0.8218 -1.8505
 3910TIP3   OH233288   6.348   5.443   1.129  0.2311  0.1241 -0.0716
 3910TIP3    H133289   6.274   5.455   1.187 -0.1567  1.1554 -0.7549
 3910TIP3    H233290   6.364   5.349   1.129 -2.3185 -0.3933 -1.3848
 3911TIP3   OH233291   1.826   2.539   1.176 -0.2120  0.0146 -0.3074
 3911TIP3    H133292   1.824   2.493   1.092 -1.1733  0.6952 -0.6676
 3911TIP3    H233293   1.734   2.554   1.197  0.0696  2.4150 -0.5692
 3912TIP3   OH233294   2.932   0.289   7.988 -0.4726  0.1770  0.3348
 3912TIP3    H133295   2.895   0.361   7.938 -0.5391 -0.0407  0.0689
 3912TIP3    H233296   2.867   0.219   7.982  0.2453 -0.4443 -0.6816
 3913TIP3   OH233297   4.477   6.563   7.230 -0.1351 -0.1394  0.7334
 3913TIP3    H133298   4.420   6.640   7.226  1.2677  1.0752  2.2650
 3913TIP3    H233299   4.454   6.520   7.312  0.9694  0.2926  1.3059
 3914TIP3   OH233300   3.180   0.766   0.921 -0.2370  0.3964  0.4641
 3914TIP3    H133301   3.178   0.837   0.857 -1.6686 -0.3405 -0.3518
 3914TIP3    H233302   3.197   0.687   0.869 -1.7076 -0.2506  0.9074
 3915TIP3   OH233303   4.436   2.902   1.287  0.3860 -0.0453 -0.3425
 3915TIP3    H133304   4.394   2.895   1.372 -2.0156 -0.8505 -1.5086
 3915TIP3    H233305   4.396   2.978   1.246  1.4334  0.2733 -0.8207
 3916TIP3   OH233306   3.854   3.072   7.807  0.7310 -0.2094  0.3370
 3916TIP3    H133307   3.903   2.999   7.844  1.4855  1.0049  1.8619
 3916TIP3    H233308   3.903   3.150   7.835 -1.4903  1.0049  1.0726
 3917TIP3   OH233309   2.172   1.885   8.525 -0.3435 -0.0983 -0.2830
 3917TIP3    H133310   2.081   1.880   8.494 -0.1189  1.2678 -1.2674
 3917TIP3    H233311   2.204   1.969   8.491  0.4903  0.6746  2.2132
 3918TIP3   OH233312   0.828   3.118   6.388 -0.0596 -0.1594  0.0980
 3918TIP3    H133313   0.793   3.165   6.464  0.5173  1.5072 -0.6155
 3918TIP3    H233314   0.810   3.177   6.314  1.6112 -0.6034 -0.6971
 3919TIP3   OH233315   5.365   4.352   7.230  0.4429 -0.0855  0.0118
 3919TIP3    H133316   5.428   4.315   7.292 -0.9599 -0.5163  1.2389
 3919TIP3    H233317   5.309   4.408   7.283 -0.5981 -0.1986 -0.9220
 3920TIP3   OH233318   5.953   4.208   7.428 -0.7703  0.1529  0.0492
 3920TIP3    H133319   5.919   4.142   7.368 -0.4007 -0.0275  0.0405
 3920TIP3    H233320   5.982   4.280   7.372 -0.0842 -0.1689 -0.0102
 3921TIP3   OH233321   5.516   3.886   1.529  0.3225 -0.5719  0.2229
 3921TIP3    H133322   5.449   3.937   1.575  0.4551 -0.4734  0.3099
 3921TIP3    H233323   5.499   3.796   1.554  0.9138 -0.4395  1.1481
 3922TIP3   OH233324   3.679   2.501   0.541 -0.2241  0.3688 -0.0745
 3922TIP3    H133325   3.618   2.567   0.507  0.4145  0.3258 -1.3659
 3922TIP3    H233326   3.627   2.421   0.545 -0.5321  0.5596 -0.1996
 3923TIP3   OH233327   2.864   1.926   0.152 -0.2582  0.1768  0.4692
 3923TIP3    H133328   2.896   1.966   0.072 -0.9043 -0.1184  0.0525
 3923TIP3    H233329   2.769   1.942   0.151 -0.0876  1.5449  1.9552
 3924TIP3   OH233330   4.149   0.221   7.956  0.1128 -0.4687  0.3516
 3924TIP3    H133331   4.243   0.238   7.955  0.4405 -2.0816  0.7770
 3924TIP3    H233332   4.116   0.273   8.030  0.6532  0.1526  0.1640
 3925TIP3   OH233333   2.014   1.555   7.746 -0.4943  0.0945  0.0970
 3925TIP3    H133334   2.081   1.593   7.804 -1.7053  0.7063  1.1647
 3925TIP3    H233335   1.977   1.483   7.797 -1.1188  0.2201 -0.1661
 3926TIP3   OH233336   6.333   3.847   7.273  0.2817 -0.1770  0.2768
 3926TIP3    H133337   6.244   3.836   7.306  0.1198  1.1642  0.3225
 3926TIP3    H233338   6.330   3.813   7.183 -0.9997  2.2768 -0.6969
 3927TIP3   OH233339   3.934   0.062   7.212  0.4920  0.1724 -0.0813
 3927TIP3    H133340   3.888   0.000   7.269  1.0277 -0.4071 -0.2698
 3927TIP3    H233341   4.010   0.090   7.263  0.3794  0.5015 -0.0889
 3928TIP3   OH233342   2.249   4.517   7.315 -0.1070 -0.0946 -0.1872
 3928TIP3    H133343   2.272   4.465   7.239  0.6406  0.8569 -0.6356
 3928TIP3    H233344   2.189   4.584   7.282  0.8360  0.8105 -0.1221
 3929TIP3   OH233345   3.776   0.742   0.045 -0.2094  0.0374  0.7549
 3929TIP3    H133346   3.711   0.795   0.091 -0.6894 -0.3606  0.5330
 3929TIP3    H233347   3.860   0.779   0.073 -0.5463  1.8219 -0.4734
 3930TIP3   OH233348   2.086   0.642   0.904  0.3667 -0.3375  0.1366
 3930TIP3    H133349   1.994   0.662   0.921  0.5075  0.2885  0.1767
 3930TIP3    H233350   2.095   0.549   0.925  0.0317 -0.1033  1.3759
 3931TIP3   OH233351   6.378   6.156   0.362 -0.4689 -0.8300  0.3375
 3931TIP3    H133352   6.371   6.176   0.268  0.7628  1.6203  0.6716
 3931TIP3    H233353   6.440   6.083   0.366  1.0599  0.3305 -0.7166
 3932TIP3   OH233354   2.768   4.599   1.298  0.0855 -0.3720  0.3658
 3932TIP3    H133355   2.779   4.684   1.257  1.6184 -0.0441  1.3738
 3932TIP3    H233356   2.753   4.538   1.225  0.0271  0.5838 -0.4302
 3933TIP3   OH233357   5.835   2.790   0.370  0.4024  0.1075 -0.1661
 3933TIP3    H133358   5.845   2.822   0.460  1.1097 -1.2847  0.2681
 3933TIP3    H233359   5.922   2.798   0.331  0.5576 -1.0795 -0.1020
 3934TIP3   OH233360   2.165   6.080   8.173  0.1957  0.6959  0.5982
 3934TIP3    H133361   2.100   6.018   8.140  1.1172 -0.4591  0.8722
 3934TIP3    H233362   2.166   6.150   8.108 -1.5269  0.8985  0.7567
 3935TIP3   OH233363   2.436   4.487   7.015 -0.3504  0.0998 -0.5051
 3935TIP3    H133364   2.483   4.445   7.086  1.3921  1.5962 -0.7038
 3935TIP3    H233365   2.467   4.444   6.936 -1.7874 -1.1035 -0.4600
 3936TIP3   OH233366   1.289   3.731   0.375 -0.1936 -0.2073  0.4322
 3936TIP3    H133367   1.277   3.665   0.443  0.6024 -2.0011 -1.0591
 3936TIP3    H233368   1.326   3.682   0.301  0.2540  1.9020 -0.8179
 3937TIP3   OH233369   0.955   1.266   0.179  0.2968  0.2168 -0.6033
 3937TIP3    H133370   0.949   1.329   0.252 -0.3377 -1.6209  1.0133
 3937TIP3    H233371   0.913   1.187   0.212  1.2061 -1.1405 -2.5182
 3938TIP3   OH233372   5.889   1.513   7.379 -0.0399 -0.3714  0.1249
 3938TIP3    H133373   5.938   1.588   7.412 -1.5853  0.6274  0.2584
 3938TIP3    H233374   5.861   1.539   7.291 -0.4923 -0.8212  0.1296
 3939TIP3   OH233375   6.558   4.050   1.013 -0.3483 -0.1040  0.1522
 3939TIP3    H133376   6.566   3.955   1.010 -0.5505 -0.0919 -1.1454
 3939TIP3    H233377   6.506   4.067   1.092 -1.1493 -1.1404 -0.1343
 3940TIP3   OH233378   5.310   2.500   7.698  0.2876  0.3586  0.4432
 3940TIP3    H133379   5.344   2.502   7.609 -0.8171  1.9718  0.0226
 3940TIP3    H233380   5.387   2.505   7.754  1.0665 -1.6081 -0.3513
 3941TIP3   OH233381   2.514   4.951   1.658 -0.9887 -0.3142  0.1194
 3941TIP3    H133382   2.506   5.003   1.738  0.4423  0.5536 -0.2651
 3941TIP3    H233383   2.604   4.965   1.629  0.0427 -4.3027  0.8445
 3942TIP3   OH233384   5.627   3.093   6.956  0.3124  0.0261  0.2945
 3942TIP3    H133385   5.703   3.142   6.926 -0.9123  2.0997  0.3007
 3942TIP3    H233386   5.588   3.150   7.023 -0.5558 -1.5497  1.1836
 3943TIP3   OH233387   2.287   3.736   0.602  0.6356  0.4893  0.4620
 3943TIP3    H133388   2.264   3.825   0.575  2.5285  0.9907  0.3198
 3943TIP3    H233389   2.383   3.734   0.597  0.5940 -2.3635 -2.2049
 3944TIP3   OH233390   2.794   0.316   7.220 -0.5328 -0.4679  0.6855
 3944TIP3    H133391   2.883   0.319   7.255 -0.6111 -1.6196  1.0253
 3944TIP3    H233392   2.805   0.319   7.125 -0.1252 -0.7544  0.7237
 3945TIP3   OH233393   3.639   0.339   1.784 -0.0303 -0.1288 -0.3875
 3945TIP3    H133394   3.704   0.388   1.834  1.0539 -1.6386 -0.2336
 3945TIP3    H233395   3.627   0.389   1.703  0.8714  0.4882 -0.1506
 3946TIP3   OH233396   5.879   3.788   1.165 -0.1093  0.2512  0.0032
 3946TIP3    H133397   5.885   3.732   1.088 -0.5118  1.9862 -1.3426
 3946TIP3    H233398   5.786   3.808   1.174  0.0044  0.5485  0.5799
 3947TIP3   OH233399   5.514   1.685   0.044  0.2685  0.3875 -0.1918
 3947TIP3    H133400   5.591   1.723   0.002  0.2077  1.1046  0.3219
 3947TIP3    H233401   5.489   1.749   0.111 -0.9249  0.2790 -0.5083
 3948TIP3   OH233402   3.673   1.813   7.319  0.5246 -0.1033  0.0693
 3948TIP3    H133403   3.711   1.788   7.235 -0.3567 -0.8856 -0.1022
 3948TIP3    H233404   3.630   1.897   7.302  2.3712  0.9763  0.3389
 3949TIP3   OH233405   1.253   0.096   6.866 -0.1893 -0.2788 -0.3208
 3949TIP3    H133406   1.192   0.084   6.793 -0.1969  0.1581 -0.3904
 3949TIP3    H233407   1.300   0.013   6.872  0.4708 -0.0146 -1.4336
 3950TIP3   OH233408   5.702   5.175   1.279  0.2228  1.1462  0.0309
 3950TIP3    H133409   5.676   5.206   1.192 -1.4389  1.2537  0.5444
 3950TIP3    H233410   5.726   5.083   1.264 -1.2213  0.8108 -0.3512
 3951TIP3   OH233411   3.324   6.535   6.547 -0.2475 -0.0745  0.0005
 3951TIP3    H133412   3.235   6.526   6.582  0.1740 -0.8431  0.9221
 3951TIP3    H233413   3.378   6.549   6.624  0.3165  1.4469 -0.6411
 3952TIP3   OH233414   2.113   0.558   1.713  0.1137  0.8814  0.0254
 3952TIP3    H133415   2.084   0.467   1.707 -0.6292  0.9323  2.2620
 3952TIP3    H233416   2.061   0.596   1.783  1.1328  2.7777 -0.1751
 3953TIP3   OH233417   5.030   2.775   7.796 -0.7056 -0.2736  0.4641
 3953TIP3    H133418   5.055   2.755   7.705 -2.5954  0.8015 -0.3446
 3953TIP3    H233419   5.106   2.749   7.847  1.0641  0.4903 -1.5856
 3954TIP3   OH233420   6.143   1.433   8.438 -0.6615 -0.0344 -0.4113
 3954TIP3    H133421   6.148   1.526   8.459 -1.8857  0.0952 -0.6224
 3954TIP3    H233422   6.223   1.415   8.389 -0.2147  0.8025 -0.0166
 3955TIP3   OH233423   4.541   4.472   0.806  0.1428  0.5932  0.1942
 3955TIP3    H133424   4.568   4.542   0.746 -0.1117  1.5093  1.1004
 3955TIP3    H233425   4.447   4.464   0.792  0.0264  1.0259  0.6524
 3956TIP3   OH233426   1.156   1.244   0.878  0.0878  0.3658  0.0224
 3956TIP3    H133427   1.104   1.174   0.838  2.8736 -3.3258  2.2824
 3956TIP3    H233428   1.229   1.257   0.818  0.6168 -0.1512  0.5428
 3957TIP3   OH233429   3.764   3.810   6.885 -0.1178  0.4210  1.2089
 3957TIP3    H133430   3.843   3.769   6.920 -0.0073  0.7641  1.3596
 3957TIP3    H233431   3.709   3.828   6.961  0.0554  1.0236  1.1938
 3958TIP3   OH233432   2.110   6.616   0.365  0.1059 -0.1526  0.0462
 3958TIP3    H133433   2.128   6.581   0.278 -2.3549  0.9597 -1.0025
 3958TIP3    H233434   2.052   6.552   0.406 -1.7933  1.0463 -0.6458
 3959TIP3   OH233435   6.725   6.684   2.020 -0.4728  0.9199 -0.1227
 3959TIP3    H133436   6.765   6.745   1.958  0.9026  0.1614 -0.0167
 3959TIP3    H233437   6.797   6.629   2.050 -1.4381  0.1098  0.8055
 3960TIP3   OH233438   2.720   1.819   1.848  0.4850  0.1815  0.3805
 3960TIP3    H133439   2.684   1.801   1.934 -0.6150 -0.7447 -0.2472
 3960TIP3    H233440   2.690   1.907   1.827  0.7972  0.4280  0.9576
 3961TIP3   OH233441   3.962   2.836   7.896  0.1280  0.4883  0.3353
 3961TIP3    H133442   3.913   2.774   7.950  1.0123  0.1351  0.7524
 3961TIP3    H233443   4.042   2.789   7.873  0.3443  1.1152 -0.2000
 3962TIP3   OH233444   0.027   3.152   0.331 -0.4070 -0.5894 -0.0192
 3962TIP3    H133445  -0.024   3.155   0.250 -1.1093  0.3840  0.4294
 3962TIP3    H233446   0.074   3.235   0.333  0.9779 -1.3365 -0.2631
 3963TIP3   OH233447   4.804   2.390   8.331  0.2496  0.2182  0.1324
 3963TIP3    H133448   4.813   2.485   8.335 -2.1922  0.5300 -0.5708
 3963TIP3    H233449   4.815   2.369   8.238  1.1858 -0.2774  0.3364
 3964TIP3   OH233450   6.763   4.925   1.143 -0.2237 -0.3304 -0.3953
 3964TIP3    H133451   6.709   4.853   1.174 -1.1146  0.4227 -0.1258
 3964TIP3    H233452   6.749   4.995   1.208  2.6396 -0.7444  0.8239
 3965TIP3   OH233453   3.960   1.692   7.669 -0.4880  0.1639 -0.0374
 3965TIP3    H133454   3.924   1.649   7.746 -0.1397 -2.7558 -1.3976
 3965TIP3    H233455   3.886   1.704   7.610 -0.2630 -0.3935 -0.4441
 3966TIP3   OH233456   6.681   1.502   1.866  0.8636  0.1176 -0.0492
 3966TIP3    H133457   6.769   1.530   1.839 -0.0549  2.9775 -0.4327
 3966TIP3    H233458   6.672   1.534   1.956  1.0876 -2.5416  1.0186
 3967TIP3   OH233459   0.610   4.401   6.637 -0.4478  0.1647 -0.3256
 3967TIP3    H133460   0.662   4.466   6.591  0.7029 -1.2212 -1.0785
 3967TIP3    H233461   0.604   4.434   6.727  0.5755  1.0228 -0.5509
 3968TIP3   OH233462   6.636   5.445   1.564  0.1524  0.5583 -0.1836
 3968TIP3    H133463   6.643   5.535   1.594  0.3987  0.5186 -0.1236
 3968TIP3    H233464   6.562   5.446   1.503  1.4582  1.2241 -1.8099
 3969TIP3   OH233465   5.872   1.833   0.790  0.2427 -0.3832  0.2576
 3969TIP3    H133466   5.944   1.894   0.804  0.8315 -0.7105 -1.0992
 3969TIP3    H233467   5.845   1.848   0.700 -0.1635 -1.5255  0.1680
 3970TIP3   OH233468   5.405   4.787   1.202 -0.5966 -0.1377  0.2238
 3970TIP3    H133469   5.376   4.743   1.122  0.7032 -1.6910  0.5493
 3970TIP3    H233470   5.500   4.792   1.193 -0.5954  1.3193  0.8821
 3971TIP3   OH233471   0.323   1.925   1.062  0.1380 -0.0446 -0.2010
 3971TIP3    H133472   0.305   1.831   1.067  0.4256 -0.0442  1.1211
 3971TIP3    H233473   0.356   1.938   0.973  2.2580 -1.6084  0.2684
 3972TIP3   OH233474   0.424   1.673   8.337 -0.5096 -0.1777 -0.1320
 3972TIP3    H133475   0.444   1.607   8.403  0.1497  2.0337  2.0519
 3972TIP3    H233476   0.496   1.737   8.345 -2.1912  1.8815 -0.5870
 3973TIP3   OH233477   4.086   2.592   1.805  0.5081  0.1642  0.2995
 3973TIP3    H133478   4.131   2.558   1.883 -0.1890 -0.5436  0.4025
 3973TIP3    H233479   4.097   2.523   1.739 -1.0217 -0.3458  0.5455
 3974TIP3   OH233480   4.190   4.613   7.016  0.0453  0.2742  0.2376
 3974TIP3    H133481   4.204   4.520   6.996 -1.9869 -0.1660  0.6051
 3974TIP3    H233482   4.200   4.618   7.111 -1.1363  0.1304  0.3901
 3975TIP3   OH233483   5.647   1.428   2.342 -0.4224  0.3660  0.6828
 3975TIP3    H133484   5.637   1.364   2.413  0.3082  1.1857  1.5623
 3975TIP3    H233485   5.712   1.491   2.375 -0.3546  0.9931 -0.5634
 3976TIP3   OH233486   6.382   6.857   6.859 -0.0551 -0.0792 -0.2564
 3976TIP3    H133487   6.309   6.919   6.862  0.6066  0.7263 -0.3460
 3976TIP3    H233488   6.455   6.908   6.824  1.2040 -0.1777  2.0257
 3977TIP3   OH233489   3.768   5.758   8.043 -0.0461  0.4754  0.4371
 3977TIP3    H133490   3.833   5.734   7.977 -0.0461  1.3309  0.0991
 3977TIP3    H233491   3.815   5.755   8.126  0.1390  0.0407  0.3148
 3978TIP3   OH233492   4.208   4.164   7.103 -0.3593  0.1293  0.0322
 3978TIP3    H133493   4.131   4.113   7.077 -0.5313  0.1591  0.4728
 3978TIP3    H233494   4.189   4.193   7.192  0.1557  0.1535  0.1406
 3979TIP3   OH233495   6.877   2.705   2.042 -0.6938  0.5548 -0.2512
 3979TIP3    H133496   6.813   2.758   2.090  0.1372  0.7004  0.7299
 3979TIP3    H233497   6.938   2.769   2.006 -1.3868  0.4552 -1.6602
 3980TIP3   OH233498   1.473   0.392   1.923  0.0471 -0.9862 -0.1725
 3980TIP3    H133499   1.463   0.394   1.827  2.2460 -2.8009 -0.5443
 3980TIP3    H233500   1.520   0.310   1.939 -1.8118 -1.5992  2.6587
 3981TIP3   OH233501   6.114   0.607   8.390  0.4386  0.8150  0.0928
 3981TIP3    H133502   6.096   0.657   8.311 -0.3730  0.0420 -0.2222
 3981TIP3    H233503   6.194   0.558   8.370  1.3098  2.0485  0.4488
 3982TIP3   OH233504   5.640   3.279   6.342 -0.0800 -0.2319 -0.5407
 3982TIP3    H133505   5.571   3.257   6.404 -0.6771  0.6518 -0.8663
 3982TIP3    H233506   5.603   3.348   6.288  1.4503  1.1348  0.0425
 3983TIP3   OH233507   4.683   2.716   7.687  0.6472 -0.2043  0.2830
 3983TIP3    H133508   4.673   2.657   7.613 -2.0036  0.5420 -0.0487
 3983TIP3    H233509   4.734   2.667   7.751 -2.3392 -3.3962  0.4918
 3984TIP3   OH233510   6.001   0.530   6.855 -0.0927 -0.2424 -0.0131
 3984TIP3    H133511   6.005   0.511   6.948  0.2361 -0.6253 -0.0982
 3984TIP3    H233512   6.015   0.625   6.849  1.1274 -0.3779  0.2640
 3985TIP3   OH233513   6.068   2.863   7.425 -0.1436 -0.1105  0.7027
 3985TIP3    H133514   6.125   2.940   7.435  0.5821 -0.3481 -1.1823
 3985TIP3    H233515   5.979   2.898   7.434  0.1793  0.9702 -0.1197
 3986TIP3   OH233516   2.683   6.281   7.893 -0.8066 -0.3237 -0.5238
 3986TIP3    H133517   2.688   6.189   7.867 -0.1851 -0.7586  1.0277
 3986TIP3    H233518   2.755   6.323   7.845  0.1402 -1.0425  0.2270
 3987TIP3   OH233519   5.103   0.120   1.120  0.2592 -0.4214  0.3925
 3987TIP3    H133520   5.143   0.176   1.187 -0.2697 -0.7410  0.9781
 3987TIP3    H233521   5.095   0.034   1.161 -0.6463 -0.4673  0.1563
 3988TIP3   OH233522   4.029   0.366   1.683  0.6046  0.1870 -0.0022
 3988TIP3    H133523   3.943   0.409   1.683  0.7415  0.4727  1.0244
 3988TIP3    H233524   4.055   0.363   1.775  2.5321  1.7903 -0.4305
 3989TIP3   OH233525   1.615   5.982   1.411  0.2997 -0.2414  0.2993
 3989TIP3    H133526   1.552   6.038   1.365 -0.6567  0.9631  2.9035
 3989TIP3    H233527   1.581   5.893   1.399  0.6251 -0.1231 -2.0370
 3990TIP3   OH233528   0.812   2.288   6.643 -0.0203 -0.5071  0.5590
 3990TIP3    H133529   0.727   2.292   6.686 -0.7777  1.2872 -0.9585
 3990TIP3    H233530   0.845   2.200   6.663 -2.8194 -1.7742  0.0653
 3991TIP3   OH233531   0.841   3.167   0.259  0.1904 -0.3135  0.5956
 3991TIP3    H133532   0.917   3.209   0.298  0.3473  0.9013 -0.9394
 3991TIP3    H233533   0.864   3.155   0.167 -1.8064  0.9868 -0.1417
 3992TIP3   OH233534   5.715   5.728   1.554  0.0004  0.0656  0.6036
 3992TIP3    H133535   5.636   5.697   1.511 -0.2293  1.4780 -0.0412
 3992TIP3    H233536   5.766   5.649   1.571 -2.2025 -1.0841  2.4529
 3993TIP3   OH233537   2.660   3.535   0.906 -0.2398  0.0060 -0.6257
 3993TIP3    H133538   2.568   3.560   0.916 -0.6990 -1.0541 -1.9250
 3993TIP3    H233539   2.708   3.618   0.910 -1.4044  0.7531 -1.6095
 3994TIP3   OH233540   2.361   3.014   7.869 -0.1661  0.1822 -0.5308
 3994TIP3    H133541   2.409   3.046   7.793  0.8604  3.5408  1.3014
 3994TIP3    H233542   2.429   2.976   7.925 -0.0794  1.8625  0.5901
 3995TIP3   OH233543   5.347   0.605   8.235 -0.4565  0.3183  0.0799
 3995TIP3    H133544   5.273   0.553   8.203 -0.6482 -0.6329  1.9438
 3995TIP3    H233545   5.408   0.608   8.162 -1.2386 -1.0094 -0.6574
 3996TIP3   OH233546   3.453   3.117   0.407  1.0287  0.3059 -0.2789
 3996TIP3    H133547   3.377   3.171   0.389  1.6012  1.3517  0.3607
 3996TIP3    H233548   3.528   3.168   0.375  1.4584 -0.7818 -1.0676
 3997TIP3   OH233549   3.635   3.208   6.870  0.1749 -0.6090 -0.0423
 3997TIP3    H133550   3.585   3.166   6.941  1.3498 -0.6518  0.7829
 3997TIP3    H233551   3.726   3.200   6.897  0.6343 -0.4201 -1.4735
 3998TIP3   OH233552   4.198   5.802   7.249  0.0538  0.2824  0.4168
 3998TIP3    H133553   4.239   5.880   7.211  0.0444  0.4092  0.6693
 3998TIP3    H233554   4.208   5.813   7.343 -2.4817  1.3787  0.6298
 3999TIP3   OH233555   1.981   0.403   8.615  0.4391 -0.4416  0.0931
 3999TIP3    H133556   2.015   0.354   8.690 -0.2062 -1.0080  0.0325
 3999TIP3    H233557   1.890   0.372   8.606  1.1981 -2.2343 -2.4492
 4000TIP3   OH233558   1.209   0.016   0.283 -0.0052  0.4957  0.2391
 4000TIP3    H133559   1.231   0.021   0.376 -0.0376  0.1362  0.2666
 4000TIP3    H233560   1.271  -0.047   0.247  0.5879  1.2776 -0.1585
 4001TIP3   OH233561   2.296   5.787   1.618  0.0738  0.2959 -0.3778
 4001TIP3    H133562   2.238   5.800   1.694  0.9605  1.8791  0.0726
 4001TIP3    H233563   2.380   5.824   1.646  1.5567 -2.5345 -0.7606
 4002TIP3   OH233564   2.955   3.542   1.622 -1.1510 -0.1053  0.1754
 4002TIP3    H133565   2.876   3.594   1.602 -1.5385 -0.4089  0.8814
 4002TIP3    H233566   2.965   3.549   1.717 -1.2229 -1.3389  0.2880
 4003TIP3   OH233567   0.524   1.154   2.513 -0.0444  0.5880  0.0130
 4003TIP3    H133568   0.442   1.147   2.561 -0.2835 -0.9777 -0.5503
 4003TIP3    H233569   0.591   1.127   2.577 -0.1805  0.1523 -0.0200
 4004TIP3   OH233570   4.779   0.775   1.324 -0.0389  0.2137 -0.6860
 4004TIP3    H133571   4.813   0.689   1.299 -0.2271  0.0154 -0.2611
 4004TIP3    H233572   4.839   0.837   1.283 -0.5945 -0.0882 -2.0103
 4005TIP3   OH233573   6.040   4.616   0.323  0.5769 -0.1319 -0.0584
 4005TIP3    H133574   5.959   4.566   0.317  2.0063 -2.5197 -1.0865
 4005TIP3    H233575   6.017   4.705   0.294 -1.2512 -1.2759 -2.4156
 4006TIP3   OH233576   5.230   1.697   0.959  0.5157  0.3823 -0.5813
 4006TIP3    H133577   5.307   1.690   1.016 -0.0182 -0.0670  0.1005
 4006TIP3    H233578   5.266   1.704   0.871  1.3575  0.8321 -0.2151
 4007TIP3   OH233579   1.957   4.076   8.170 -0.1033  0.1662 -0.4521
 4007TIP3    H133580   1.876   4.030   8.149  0.3785 -2.0349  1.9524
 4007TIP3    H233581   1.928   4.158   8.210 -1.1044 -0.0301 -0.7594
 4008TIP3   OH233582   5.917   6.619   1.828 -0.2254  0.4066  0.3003
 4008TIP3    H133583   5.937   6.534   1.789 -1.8653 -1.2868  2.8682
 4008TIP3    H233584   5.996   6.642   1.876 -0.1397 -0.1774  0.4457
 4009TIP3   OH233585   4.481   0.456   2.005 -0.3531  0.4776  0.1933
 4009TIP3    H133586   4.524   0.396   1.944  0.6288  1.1920  0.1487
 4009TIP3    H233587   4.442   0.400   2.072 -2.1301 -0.3923 -1.4583
 4010TIP3   OH233588   5.741   0.671   6.789  1.1890  0.4546  0.4779
 4010TIP3    H133589   5.816   0.730   6.793  1.8562 -0.3863  0.6246
 4010TIP3    H233590   5.725   0.659   6.695 -0.2188  2.3928  0.3822
 4011TIP3   OH233591   4.911   5.784   7.287  0.5772 -0.3667 -0.0244
 4011TIP3    H133592   4.874   5.827   7.364 -0.3642 -0.6658 -0.2950
 4011TIP3    H233593   4.870   5.828   7.213  1.5286 -0.0350 -0.3727
 4012TIP3   OH233594   0.780   3.920   8.275  0.1984  0.1909 -0.0873
 4012TIP3    H133595   0.729   3.991   8.314  1.9184  0.9851  0.8277
 4012TIP3    H233596   0.845   3.898   8.341  0.1108 -1.8191 -0.6159
 4013TIP3   OH233597   6.506   5.940   7.116  0.5221 -0.0867  0.1849
 4013TIP3    H133598   6.586   5.938   7.169  0.3658  1.1061  0.4892
 4013TIP3    H233599   6.537   5.956   7.027  0.5666  1.5318  0.4753
 4014TIP3   OH233600   2.467   5.308   8.471 -0.9695  0.1892 -0.1801
 4014TIP3    H133601   2.471   5.372   8.541 -0.9041 -0.2840  0.2572
 4014TIP3    H233602   2.374   5.289   8.461 -0.9057 -0.6428  0.6268
 4015TIP3   OH233603   3.929   6.654   7.903 -0.0514  0.1927 -0.1941
 4015TIP3    H133604   3.869   6.690   7.968  0.6373  1.8662 -0.4486
 4015TIP3    H233605   3.963   6.730   7.857  0.3690 -0.8857 -1.7427
 4016TIP3   OH233606   4.507   2.350   0.323  0.3257  0.7141 -0.4699
 4016TIP3    H133607   4.507   2.431   0.272 -0.5525  0.4354 -0.9362
 4016TIP3    H233608   4.591   2.309   0.302  0.7778  1.4967 -0.2269
 4017TIP3   OH233609   2.545   5.762   0.799  0.1799 -0.6337 -0.6008
 4017TIP3    H133610   2.602   5.763   0.876  0.7754  1.4510 -0.9987
 4017TIP3    H233611   2.463   5.800   0.830  1.3116  2.8874 -1.4995
 4018TIP3   OH233612   4.616   0.416   8.565  0.0171 -0.0501 -0.7461
 4018TIP3    H133613   4.535   0.389   8.520  0.5609 -1.2559 -1.0504
 4018TIP3    H233614   4.645   0.337   8.610  1.8286 -0.0618 -1.8646
 4019TIP3   OH233615   0.311   3.451   6.853 -0.1909 -0.4626 -0.1060
 4019TIP3    H133616   0.276   3.364   6.837 -1.3629  0.0654 -0.5353
 4019TIP3    H233617   0.353   3.476   6.770 -0.0658 -0.5169 -0.0597
 4020TIP3   OH233618   6.183   2.912   6.913 -0.2462  0.3906 -0.1080
 4020TIP3    H133619   6.102   2.885   6.956  0.3834  0.9882  1.5629
 4020TIP3    H233620   6.185   3.007   6.923  0.0438  0.5301 -1.3074
 4021TIP3   OH233621   1.352   2.700   2.083 -0.1001  0.5488 -0.1809
 4021TIP3    H133622   1.324   2.776   2.134  2.9609  2.3283 -0.8654
 4021TIP3    H233623   1.294   2.699   2.007 -2.4420 -0.0185  1.5091
 4022TIP3   OH233624   5.382   5.373   0.930 -1.0336 -0.0958 -0.0760
 4022TIP3    H133625   5.422   5.453   0.897  0.2317 -0.0841  1.3582
 4022TIP3    H233626   5.368   5.319   0.853  0.2766  0.5691 -0.8086
 4023TIP3   OH233627   4.738   2.689   1.516  0.2938 -0.3573 -0.6907
 4023TIP3    H133628   4.644   2.676   1.529  0.1324 -1.0542 -2.3051
 4023TIP3    H233629   4.770   2.603   1.489  1.7927 -0.6441  1.7002
 4024TIP3   OH233630   6.506   4.133   7.881 -0.4017 -0.0476 -0.0902
 4024TIP3    H133631   6.541   4.188   7.951  0.5495 -0.7127 -0.0187
 4024TIP3    H233632   6.554   4.161   7.803  0.7055 -1.2919  0.0974
 4025TIP3   OH233633   3.677   2.198   1.330 -0.0088  1.0895  0.3670
 4025TIP3    H133634   3.642   2.136   1.394  0.0019  0.7205  0.0179
 4025TIP3    H233635   3.691   2.279   1.380  1.5221  0.3363  1.1945
 4026TIP3   OH233636   5.244   2.044   1.052 -0.2147  0.3987  0.1136
 4026TIP3    H133637   5.259   2.045   1.147  0.7297  0.0327 -0.0201
 4026TIP3    H233638   5.317   2.094   1.016  0.1773 -0.5897 -0.5035
 4027TIP3   OH233639   6.704   6.671   7.815  0.7675  0.1975 -0.2350
 4027TIP3    H133640   6.663   6.602   7.867  1.2043  0.7447  0.8782
 4027TIP3    H233641   6.786   6.633   7.785  0.8163  0.0875  0.0339
 4028TIP3   OH233642   6.489   4.084   7.324  0.5667  0.1269 -0.1559
 4028TIP3    H133643   6.438   4.003   7.322 -0.1788  0.5904 -1.4666
 4028TIP3    H233644   6.473   4.121   7.411  1.4337 -1.4225  0.7095
 4029TIP3   OH233645   2.685   2.046   2.208 -0.4298 -0.0615 -0.1001
 4029TIP3    H133646   2.755   2.030   2.271 -1.5279  0.2809  1.2560
 4029TIP3    H233647   2.680   2.141   2.201  0.2010 -0.1066 -1.3274
 4030TIP3   OH233648   3.867   0.578   7.853  0.0892  0.0651 -0.3437
 4030TIP3    H133649   3.800   0.570   7.786  0.2063 -1.7086 -0.2932
 4030TIP3    H233650   3.948   0.593   7.804 -0.1745  1.2819 -0.4450
 4031TIP3   OH233651   5.373   1.685   6.457  0.1075  0.0651  0.0449
 4031TIP3    H133652   5.390   1.595   6.484 -1.4726 -0.5794 -0.9397
 4031TIP3    H233653   5.449   1.709   6.404 -0.7018 -1.7664 -2.1025
 4032TIP3   OH233654   6.879   4.079   1.585  0.0961 -0.6505 -0.2259
 4032TIP3    H133655   6.924   4.033   1.656 -0.6135 -1.7148 -0.4373
 4032TIP3    H233656   6.786   4.067   1.604 -0.0992 -0.5815 -1.0992
 4033TIP3   OH233657   6.297   3.066   8.230  0.0322 -0.4971 -0.1195
 4033TIP3    H133658   6.268   3.052   8.140 -1.9197 -3.0443  0.7874
 4033TIP3    H233659   6.216   3.069   8.281  0.8120  4.1850  1.3617
 4034TIP3   OH233660   1.966   3.068   0.421  0.1624 -0.6196 -0.5252
 4034TIP3    H133661   1.890   3.017   0.391  0.4632 -0.8306 -0.9501
 4034TIP3    H233662   1.932   3.123   0.491 -0.6218  0.0553 -1.4115
 4035TIP3   OH233663   5.278   2.740   2.123  0.3951  0.1314  0.3517
 4035TIP3    H133664   5.325   2.666   2.161 -1.1548 -0.4799  1.2010
 4035TIP3    H233665   5.284   2.808   2.190  0.3811  0.1751  0.3081
 4036TIP3   OH233666   1.308   4.130   1.178  0.1492  0.4664  0.1282
 4036TIP3    H133667   1.368   4.183   1.232  2.4038  0.9183 -2.5778
 4036TIP3    H233668   1.332   4.040   1.198 -0.5925  0.5403  1.4610
 4037TIP3   OH233669   0.977   6.537   0.758 -0.0356 -0.3678 -0.4454
 4037TIP3    H133670   1.013   6.605   0.815 -0.0851 -1.6645  1.2165
 4037TIP3    H233671   0.986   6.573   0.670  2.5475  0.6236  0.1210
 4038TIP3   OH233672   4.970   3.786   1.344 -0.5554 -0.3116  0.3251
 4038TIP3    H133673   4.988   3.728   1.418  0.5543 -1.1459 -0.5719
 4038TIP3    H233674   5.019   3.866   1.364  0.5358 -0.8972  0.0368
 4039TIP3   OH233675   1.485   1.773   0.764  0.2755  0.6209  0.3992
 4039TIP3    H133676   1.427   1.700   0.745 -0.0145  0.6257  1.2713
 4039TIP3    H233677   1.495   1.817   0.679  0.8114 -0.6704 -0.2373
 4040TIP3   OH233678   6.445   6.295   5.910  0.3812 -1.2043  0.2314
 4040TIP3    H133679   6.427   6.361   5.977  0.7170  0.4936 -1.2860
 4040TIP3    H233680   6.422   6.212   5.952  1.0781 -0.2721  2.6141
 4041TIP3   OH233681   2.019   1.408   7.504  0.1689  0.2338 -0.3486
 4041TIP3    H133682   2.086   1.427   7.438  0.9299  0.1675  0.3945
 4041TIP3    H233683   2.046   1.458   7.581  0.0033 -0.6887  0.3268
 4042TIP3   OH233684   4.619   5.756   1.507  0.3538  0.2261 -0.7449
 4042TIP3    H133685   4.533   5.722   1.530  0.4980  0.5450  0.2924
 4042TIP3    H233686   4.677   5.681   1.513  0.4732  0.3983  0.4371
 4043TIP3   OH233687   0.598   2.004   0.825  0.1093 -0.5113  0.2662
 4043TIP3    H133688   0.593   2.081   0.881 -0.7488 -0.4445  0.1140
 4043TIP3    H233689   0.686   1.968   0.841  1.4507  1.8082 -1.4182
 4044TIP3   OH233690   0.623   3.444   2.061  0.2781 -0.0536 -0.0906
 4044TIP3    H133691   0.548   3.394   2.030 -0.0148 -0.5577  1.3391
 4044TIP3    H233692   0.656   3.394   2.136  2.4677 -0.2029 -1.0743
 4045TIP3   OH233693   4.675   3.317   7.195 -0.0830 -0.1552 -0.2183
 4045TIP3    H133694   4.764   3.322   7.227 -0.9872 -2.2702  3.1056
 4045TIP3    H233695   4.633   3.397   7.227  0.2260  0.1349 -0.5226
 4046TIP3   OH233696   5.580   6.703   8.173  0.2003 -0.2482  0.1817
 4046TIP3    H133697   5.531   6.749   8.105  1.4273 -1.5810 -1.7033
 4046TIP3    H233698   5.645   6.651   8.125  1.1728 -1.2068  2.3893
 4047TIP3   OH233699   2.943   2.063   8.097  0.0346  0.3906  0.0139
 4047TIP3    H133700   2.904   2.150   8.100 -2.1759 -0.5584  0.9199
 4047TIP3    H233701   2.913   2.025   8.015 -2.4208 -0.9166  1.4189
 4048TIP3   OH233702   1.019   0.724   0.037 -0.0466 -0.3037  0.0771
 4048TIP3    H133703   0.928   0.752   0.036 -0.3226 -1.2083 -0.5611
 4048TIP3    H233704   1.048   0.734  -0.054  0.1084 -1.2442  0.0220
 4049TIP3   OH233705   4.712   0.899   0.320  0.2280  0.2237 -0.6884
 4049TIP3    H133706   4.662   0.944   0.388  0.7830 -1.0026  0.5824
 4049TIP3    H233707   4.669   0.814   0.311  1.1901 -0.2833 -0.6239
 4050TIP3   OH233708   5.858   6.714   0.020 -0.2017 -0.9207 -0.0449
 4050TIP3    H133709   5.765   6.707  -0.002  0.0057 -1.7791 -0.7408
 4050TIP3    H233710   5.862   6.695   0.113 -0.8363  0.2672  0.2496
 4051TIP3   OH233711   2.273   4.994   2.130  0.2419 -0.2652  0.1059
 4051TIP3    H133712   2.338   5.057   2.161 -0.6256  1.0391 -0.6370
 4051TIP3    H233713   2.227   4.966   2.210  1.0823 -0.4977  0.5218
 4052TIP3   OH233714   0.825   5.685   8.605 -0.1237 -0.3840 -0.2306
 4052TIP3    H133715   0.744   5.662   8.561 -0.8644  0.5887  0.5663
 4052TIP3    H233716   0.867   5.748   8.546 -1.8813  2.1708  1.0334
 4053TIP3   OH233717   0.637   0.268   8.459  0.2211 -0.2172 -0.2206
 4053TIP3    H133718   0.633   0.190   8.403  1.4361  0.5358 -1.4068
 4053TIP3    H233719   0.731   0.279   8.478 -0.0842  0.0430  1.2815
 4054TIP3   OH233720   6.559   0.121   0.691  0.0235  0.2883  0.5031
 4054TIP3    H133721   6.477   0.082   0.659  1.3928 -2.0167 -0.4611
 4054TIP3    H233722   6.534   0.209   0.720 -3.0131 -0.7019  1.3167
 4055TIP3   OH233723   5.700   3.238   0.509  0.3455  0.1566  0.2244
 4055TIP3    H133724   5.676   3.146   0.513 -1.5599  0.5612 -0.9855
 4055TIP3    H233725   5.692   3.269   0.600  0.8586 -0.7922  0.6122
 4056TIP3   OH233726   4.142   4.237   8.112 -0.2473  0.5471 -0.2619
 4056TIP3    H133727   4.135   4.168   8.178 -0.3405  0.9459  0.1524
 4056TIP3    H233728   4.236   4.248   8.099 -0.2244  0.5732 -0.0797
 4057TIP3   OH233729   4.861   4.537   1.197 -0.1839 -0.3655  0.1179
 4057TIP3    H133730   4.875   4.616   1.144  0.7264 -1.4513 -1.3523
 4057TIP3    H233731   4.948   4.498   1.204 -1.0078 -2.8976 -1.9828
 4058TIP3   OH233732   6.200   4.906   0.965  0.5449  0.2665 -0.3773
 4058TIP3    H133733   6.176   4.851   1.039  1.7791 -1.5254 -1.2426
 4058TIP3    H233734   6.240   4.983   1.005 -2.2982  1.2328  0.9027
 4059TIP3   OH233735   3.643   4.812   1.341  0.2557  0.5752  0.1109
 4059TIP3    H133736   3.727   4.784   1.376  0.4110  1.0588  0.1229
 4059TIP3    H233737   3.633   4.762   1.260  0.9902  1.1985 -0.3831
 4060TIP3   OH233738   0.247   6.861   0.113 -0.5832 -0.1863  0.8646
 4060TIP3    H133739   0.176   6.832   0.055 -1.2403  0.4243  1.3525
 4060TIP3    H233740   0.244   6.800   0.187  1.0126 -1.7046 -0.2491
 4061TIP3   OH233741   6.637   2.885   7.178 -0.1793 -0.0454 -0.1871
 4061TIP3    H133742   6.592   2.970   7.176 -0.3305  0.0276  2.6396
 4061TIP3    H233743   6.730   2.907   7.180 -0.1769 -0.0049 -0.6297
 4062TIP3   OH233744   2.042   1.898   1.454 -0.8582 -0.2029 -0.1667
 4062TIP3    H133745   2.021   1.825   1.395  1.2340 -2.3111  1.4826
 4062TIP3    H233746   1.994   1.877   1.534  0.1514 -0.0670  0.4907
 4063TIP3   OH233747   5.013   4.449   7.998  0.1452 -0.1111  0.3320
 4063TIP3    H133748   4.959   4.379   7.963 -1.6155  0.6502  1.3965
 4063TIP3    H233749   4.954   4.524   8.007  1.6949  1.1965  0.2859
 4064TIP3   OH233750   0.590   2.287   7.764  0.4262 -0.8063 -0.0205
 4064TIP3    H133751   0.640   2.266   7.843 -0.5261 -1.7724  0.3379
 4064TIP3    H233752   0.515   2.338   7.795  0.0197 -1.2322 -0.2902
 4065TIP3   OH233753   3.958   1.732   7.346 -0.3134 -1.0910 -0.4607
 4065TIP3    H133754   3.876   1.758   7.389 -0.9399 -2.8119 -0.5528
 4065TIP3    H233755   4.014   1.810   7.354 -1.0663 -0.6789  1.8035
 4066TIP3   OH233756   2.688   3.031   8.416 -0.8568  0.2755 -0.1087
 4066TIP3    H133757   2.685   2.941   8.386 -0.3699  0.7074 -1.5335
 4066TIP3    H233758   2.649   3.082   8.345  1.8520  1.5268 -0.8405
 4067TIP3   OH233759   6.264   5.910   0.894 -0.1304  0.3235 -0.7499
 4067TIP3    H133760   6.184   5.933   0.941 -0.5958  1.4275 -2.0212
 4067TIP3    H233761   6.240   5.833   0.844  0.2828 -0.6843  0.5574
 4068TIP3   OH233762   2.450   1.378   0.276  0.3303  0.2915 -0.4585
 4068TIP3    H133763   2.461   1.287   0.305 -0.3705  0.2082 -0.4365
 4068TIP3    H233764   2.356   1.394   0.284  0.5673  1.3168  0.4198
 4069TIP3   OH233765   1.914   1.116   0.598 -0.9125 -0.2109  0.9989
 4069TIP3    H133766   1.938   1.024   0.604 -0.9897 -0.2370  0.9075
 4069TIP3    H233767   1.845   1.128   0.663 -1.6061 -0.4463  0.3137
 4070TIP3   OH233768   3.949   1.883   0.409 -0.1101  0.4065  0.0167
 4070TIP3    H133769   3.894   1.958   0.387 -1.1711 -0.3642 -0.0223
 4070TIP3    H233770   3.903   1.808   0.372  0.7453 -0.3118  0.3786
 4071TIP3   OH233771   6.522   0.420   0.332 -0.2818  0.6926  0.0046
 4071TIP3    H133772   6.518   0.502   0.283  0.1433  1.4667  1.2241
 4071TIP3    H233773   6.470   0.437   0.411 -1.0898 -0.5836 -0.2325
 4072TIP3   OH233774   4.611   5.521   0.545 -0.0497  0.2917  0.2833
 4072TIP3    H133775   4.551   5.456   0.508 -0.4115  0.2751  0.8950
 4072TIP3    H233776   4.657   5.557   0.468  0.0187 -0.5379 -0.0750
 4073TIP3   OH233777   1.960   0.886   8.222 -0.0252  0.3313  0.2566
 4073TIP3    H133778   1.961   0.797   8.258 -0.8024 -0.4994 -1.6264
 4073TIP3    H233779   2.051   0.903   8.199 -0.0231 -0.4387 -0.3663
 4074TIP3   OH233780   0.161   6.861   7.811  0.6905 -0.0983  0.3133
 4074TIP3    H133781   0.074   6.872   7.850 -0.2554  0.8628 -1.9197
 4074TIP3    H233782   0.220   6.901   7.875 -0.6736  0.5433  1.2284
 4075TIP3   OH233783   6.848   0.811   6.599 -0.2821  0.5869  0.5174
 4075TIP3    H133784   6.785   0.868   6.644  0.2028  2.7653 -1.3430
 4075TIP3    H233785   6.838   0.834   6.506  1.5335 -0.8121 -0.0743
 4076TIP3   OH233786   0.396   3.865   6.824 -0.8085 -0.0544 -0.3553
 4076TIP3    H133787   0.381   3.803   6.753 -0.2580  0.9225 -1.3530
 4076TIP3    H233788   0.446   3.936   6.784 -0.7199  0.6512  0.9486
 4077TIP3   OH233789   6.786   6.621   7.060 -0.0189  0.8093 -0.5859
 4077TIP3    H133790   6.726   6.641   6.989 -2.0112 -0.2422  0.7054
 4077TIP3    H233791   6.729   6.608   7.136  1.8592 -0.1884  0.7164
 4078TIP3   OH233792   3.729   0.901   8.296  0.2593  0.3867 -0.9294
 4078TIP3    H133793   3.728   0.813   8.333  1.7496  0.4647 -0.6307
 4078TIP3    H233794   3.755   0.888   8.205  1.2910  0.5633 -0.6725
 4079TIP3   OH233795   5.297   5.722   2.016 -0.2271  0.3299  0.2015
 4079TIP3    H133796   5.384   5.698   1.985  0.0256  1.3746  0.0744
 4079TIP3    H233797   5.296   5.695   2.108 -0.0082 -0.2657  0.0377
 4080TIP3   OH233798   5.858   0.771   0.106  0.0410 -0.4917 -0.2947
 4080TIP3    H133799   5.837   0.848   0.054  0.2486 -0.4135 -0.2651
 4080TIP3    H233800   5.950   0.754   0.087  0.7979  0.9093  1.7668
 4081TIP3   OH233801   4.349   1.737   6.940 -0.0215 -0.1641 -0.3306
 4081TIP3    H133802   4.331   1.812   6.883  0.0962  0.4144  0.3747
 4081TIP3    H233803   4.346   1.773   7.029  0.8512 -0.8243 -0.0163
 4082TIP3   OH233804   1.900   0.012   7.281  0.4580 -0.7991 -0.0348
 4082TIP3    H133805   1.900  -0.076   7.245 -1.0371 -0.9478  0.2490
 4082TIP3    H233806   1.818   0.018   7.329 -1.0390  1.7666 -2.6116
 4083TIP3   OH233807   5.630   1.396   0.181 -0.0620  0.0746 -0.0565
 4083TIP3    H133808   5.632   1.311   0.138 -1.9782  0.4467 -0.9983
 4083TIP3    H233809   5.597   1.456   0.114 -1.6289  0.9729  1.4179
 4084TIP3   OH233810   2.449   2.112   7.352  0.8276  0.6396  0.1138
 4084TIP3    H133811   2.458   2.021   7.323  2.6628 -0.1896  2.8877
 4084TIP3    H233812   2.357   2.119   7.377  0.7637 -0.6278  0.3202
 4085TIP3   OH233813   3.645   1.751   7.933 -0.0467  0.2939  0.3278
 4085TIP3    H133814   3.566   1.725   7.886  0.6827  0.4710 -1.0389
 4085TIP3    H233815   3.628   1.842   7.960  0.0775  0.6896 -0.8697
 4086TIP3   OH233816   4.862   6.340   0.765 -0.0200 -0.0295 -0.1240
 4086TIP3    H133817   4.949   6.354   0.803  0.3986  1.3265 -1.4883
 4086TIP3    H233818   4.812   6.418   0.792 -0.3031 -0.0068 -0.7030
 4087TIP3   OH233819   1.277   3.181   2.146  0.2924  0.2036  0.1802
 4087TIP3    H133820   1.234   3.209   2.065  0.5777  0.3813  0.0883
 4087TIP3    H233821   1.254   3.249   2.209  0.3572  0.2475  0.1568
 4088TIP3   OH233822   6.483   4.144   0.761 -0.1499  0.4579 -0.0918
 4088TIP3    H133823   6.508   4.124   0.851 -2.6636  1.4326  0.9103
 4088TIP3    H233824   6.496   4.238   0.753 -0.1767  0.4129 -0.6821
 4089TIP3   OH233825   4.628   5.762   6.917 -0.0030  0.2479  0.2309
 4089TIP3    H133826   4.652   5.776   6.826  1.2404 -1.5993  0.2318
 4089TIP3    H233827   4.709   5.736   6.960 -0.5996  0.8925  1.8557
 4090TIP3   OH233828   1.877   5.327   2.541 -0.5783 -0.3864  0.2612
 4090TIP3    H133829   1.937   5.318   2.467  1.1252 -0.5653  1.5892
 4090TIP3    H233830   1.851   5.419   2.539  2.3066  0.5964  1.4083
 4091TIP3   OH233831   4.529   4.561   0.543  0.8857  0.0073  0.3733
 4091TIP3    H133832   4.556   4.649   0.516  2.9625 -1.1503 -1.6950
 4091TIP3    H233833   4.471   4.532   0.473  1.1996 -0.7123  0.4061
 4092TIP3   OH233834   0.753   4.136   6.584  0.4334 -0.5264 -0.4188
 4092TIP3    H133835   0.731   4.229   6.589  2.2248 -0.0881  0.2104
 4092TIP3    H233836   0.799   4.127   6.500 -0.1742 -0.9636 -0.7117
 4093TIP3   OH233837   5.838   3.227   7.892  0.1760  0.0840  0.7579
 4093TIP3    H133838   5.761   3.226   7.948 -0.0983 -2.1882  0.4247
 4093TIP3    H233839   5.846   3.318   7.864 -2.1426  0.4563  1.1287
 4094TIP3   OH233840   3.750   1.927   6.353 -0.2657  0.3716 -0.1589
 4094TIP3    H133841   3.672   1.872   6.360 -0.0746  0.1872  0.6742
 4094TIP3    H233842   3.719   2.016   6.369 -0.3751  0.3488 -0.2481
 4095TIP3   OH233843   1.068   1.290   8.364 -0.5256 -0.4080 -0.4883
 4095TIP3    H133844   1.160   1.268   8.379  0.0954  1.7003 -0.9006
 4095TIP3    H233845   1.050   1.261   8.275  0.2914  0.7461 -1.0492
 4096TIP3   OH233846   2.130   4.700   7.141 -0.1502  0.5846 -0.5266
 4096TIP3    H133847   2.180   4.781   7.133  1.5606 -0.4316 -0.5795
 4096TIP3    H233848   2.124   4.666   7.052  1.8724 -0.8710 -0.1768
 4097TIP3   OH233849   4.128   0.491   0.807  0.4574  0.2519 -0.8228
 4097TIP3    H133850   4.093   0.442   0.881 -2.0411  2.1784 -0.5926
 4097TIP3    H233851   4.164   0.424   0.748  2.2205 -1.3557  1.8619
 4098TIP3   OH233852   3.369   4.418   6.888 -0.3618 -0.2405  0.6262
 4098TIP3    H133853   3.415   4.438   6.807 -0.8094 -1.0940  0.1539
 4098TIP3    H233854   3.305   4.488   6.898  0.3085  0.3617  0.7238
 4099TIP3   OH233855   5.544   0.094   8.212  0.0223  0.3589 -0.5731
 4099TIP3    H133856   5.595   0.015   8.232  0.8259  0.6093 -1.5930
 4099TIP3    H233857   5.606   0.166   8.221 -0.8683  0.9938  1.0495
 4100TIP3   OH233858   5.954   4.971   7.676  0.3646  0.7266  0.0819
 4100TIP3    H133859   6.029   5.023   7.703 -0.2357  1.5517  0.2137
 4100TIP3    H233860   5.936   4.999   7.586  1.6898 -1.2264 -0.8638
 4101TIP3   OH233861   6.759   1.023   6.838 -0.1041  0.8467  0.0014
 4101TIP3    H133862   6.822   1.066   6.781  0.0781 -0.2930 -0.6912
 4101TIP3    H233863   6.755   1.079   6.916  1.0186  1.4577 -0.3535
 4102TIP3   OH233864   2.425   0.249   7.744 -0.1620  0.5936 -0.5885
 4102TIP3    H133865   2.446   0.181   7.808 -2.0434  1.7657  1.4202
 4102TIP3    H233866   2.419   0.202   7.661  0.1271 -1.4246  0.4672
 4103TIP3   OH233867   0.535   6.198   1.690  0.2597  0.1249 -0.4001
 4103TIP3    H133868   0.579   6.279   1.718  1.3005 -0.5014 -0.1499
 4103TIP3    H233869   0.607   6.140   1.665 -0.4501 -0.8748 -0.1645
 4104TIP3   OH233870   6.322   6.162   7.234 -0.1709  0.1933 -0.4648
 4104TIP3    H133871   6.366   6.091   7.188 -0.9160 -0.1850 -0.6091
 4104TIP3    H233872   6.241   6.176   7.185  1.1255  2.9557 -2.0326
 4105TIP3   OH233873   5.562   4.413   8.475 -0.0781  0.2237 -0.3211
 4105TIP3    H133874   5.535   4.324   8.500  2.6437 -1.3027 -2.2954
 4105TIP3    H233875   5.499   4.439   8.408  0.3677 -1.2416 -1.3726
 4106TIP3   OH233876   0.918   0.201   8.579 -0.1923 -0.3242 -0.0447
 4106TIP3    H133877   0.923   0.184   8.673 -0.6641 -0.4388 -0.0400
 4106TIP3    H233878   0.938   0.117   8.538 -2.2557 -0.8857 -0.0233
 4107TIP3   OH233879   6.060   1.648   7.590  0.0464  0.0524  0.1859
 4107TIP3    H133880   6.150   1.619   7.576 -0.2360 -1.1831  0.7685
 4107TIP3    H233881   6.045   1.633   7.683 -1.4663 -1.8833 -0.3164
 4108TIP3   OH233882   4.439   3.613   8.092 -0.0435 -0.3204 -0.7012
 4108TIP3    H133883   4.419   3.543   8.154 -1.7859 -0.2139 -1.0946
 4108TIP3    H233884   4.444   3.692   8.146  0.8517 -0.5667 -0.4027
 4109TIP3   OH233885   2.171   6.190   0.874  0.1346  0.2654 -0.2153
 4109TIP3    H133886   2.231   6.118   0.857  0.8436  0.8106 -0.0946
 4109TIP3    H233887   2.152   6.184   0.968 -0.7961 -0.4966 -0.4398
 4110TIP3   OH233888   5.148   1.047   1.981  0.6957  0.4776 -0.1815
 4110TIP3    H133889   5.150   0.957   2.014  1.2417  0.8576  0.8575
 4110TIP3    H233890   5.057   1.061   1.956  0.3986 -0.0358  0.5806
 4111TIP3   OH233891   4.055   4.368   0.478 -0.7591  0.3920  0.2263
 4111TIP3    H133892   4.033   4.355   0.386 -1.3572  1.5416  0.1882
 4111TIP3    H233893   4.133   4.423   0.477  0.6141 -1.4790  0.3993
 4112TIP3   OH233894   0.516   1.117   7.175  0.4167 -0.1746 -0.0983
 4112TIP3    H133895   0.609   1.111   7.196  0.3704 -0.8743 -0.0412
 4112TIP3    H233896   0.476   1.156   7.252  0.2471 -2.7366  1.2383
 4113TIP3   OH233897   4.890   0.156   0.849  0.3338 -0.1947  0.3506
 4113TIP3    H133898   4.918   0.091   0.914  1.6658  0.9959  1.0524
 4113TIP3    H233899   4.972   0.197   0.820 -0.4933  1.8051  0.6611
 4114TIP3   OH233900   6.459   1.975   0.469 -0.8734  0.8865  0.3879
 4114TIP3    H133901   6.440   1.995   0.561 -1.7303  0.3126  0.3451
 4114TIP3    H233902   6.490   1.884   0.470 -2.5984  0.2683 -0.0839
 4115TIP3   OH233903   5.901   6.336   1.387  0.3661 -0.3275 -0.6774
 4115TIP3    H133904   5.833   6.324   1.321  1.2392 -3.5761 -1.1633
 4115TIP3    H233905   5.895   6.428   1.411 -3.5518 -0.2375 -1.3553
 4116TIP3   OH233906   4.817   1.620   1.719 -0.4933 -0.9823  0.1152
 4116TIP3    H133907   4.901   1.610   1.765  0.3277  0.2197 -1.0817
 4116TIP3    H233908   4.752   1.591   1.783  0.3241  2.9718  3.1210
 4117TIP3   OH233909   1.530   4.858   1.309 -0.0249 -0.2381  0.3281
 4117TIP3    H133910   1.567   4.804   1.378  0.7390  0.0997  0.1968
 4117TIP3    H233911   1.438   4.868   1.332  0.7988  2.4542  3.0406
 4118TIP3   OH233912   5.128   3.950   1.468  0.3760 -0.3760  0.1232
 4118TIP3    H133913   5.125   4.036   1.510  1.3550 -0.3811  0.2373
 4118TIP3    H233914   5.166   3.892   1.534 -0.3274 -0.9151  0.0632
 4119TIP3   OH233915   4.484   6.313   8.411 -0.2108 -0.2500 -0.4069
 4119TIP3    H133916   4.541   6.261   8.354 -1.0142  0.6044 -2.0760
 4119TIP3    H233917   4.540   6.383   8.443  0.0650 -0.3047 -0.7625
 4120TIP3   OH233918   2.016   6.202   0.076  0.0885  0.2142  0.4600
 4120TIP3    H133919   1.932   6.159   0.061 -0.2285  1.0221 -0.1842
 4120TIP3    H233920   2.048   6.224  -0.012  0.8579  0.1329  0.7102
 4121TIP3   OH233921   0.920   0.220   1.840  0.2133  0.6716 -0.5469
 4121TIP3    H133922   0.860   0.202   1.768  0.8300  0.2174 -0.9548
 4121TIP3    H233923   0.974   0.141   1.846 -0.4202  0.3211  1.0112
 4122TIP3   OH233924   5.511   1.765   0.310 -0.0191 -0.2693  0.1366
 4122TIP3    H133925   5.478   1.855   0.317  2.0754  0.5103  0.5300
 4122TIP3    H233926   5.495   1.728   0.397 -0.3010 -0.0735  0.1720
 4123TIP3   OH233927   5.508   1.202   1.336 -0.1096  0.7286 -0.6199
 4123TIP3    H133928   5.530   1.188   1.428  1.5040  0.3765 -1.0278
 4123TIP3    H233929   5.472   1.118   1.307  0.9358  0.2950 -0.7117
 4124TIP3   OH233930   3.552   1.624   8.254  0.1720 -0.1189  0.0534
 4124TIP3    H133931   3.476   1.573   8.280 -0.1602 -0.3577 -1.2945
 4124TIP3    H233932   3.521   1.715   8.255 -1.3196 -0.3809 -3.8216
 4125TIP3   OH233933   5.962   1.690   2.148  0.3507 -0.4754  0.3923
 4125TIP3    H133934   5.905   1.677   2.224  1.6209  0.7164  1.6114
 4125TIP3    H233935   5.902   1.701   2.074 -0.9090 -2.1698  1.1005
 4126TIP3   OH233936   2.375   5.555   1.002  0.3875  0.0708  1.3295
 4126TIP3    H133937   2.466   5.526   1.001  0.4052  0.1055  0.0433
 4126TIP3    H233938   2.353   5.563   1.095  1.8842  0.6805  1.6528
 4127TIP3   OH233939   2.716   4.897   6.390  0.3161 -0.1491 -0.6531
 4127TIP3    H133940   2.782   4.914   6.323  0.2436  1.9036 -0.2580
 4127TIP3    H233941   2.632   4.912   6.345  0.2249 -0.0635 -0.4547
 4128TIP3   OH233942   5.934   1.700   7.170 -0.7263 -0.4897  0.3158
 4128TIP3    H133943   6.004   1.748   7.126 -1.9667  0.4692 -0.6508
 4128TIP3    H233944   5.902   1.637   7.105 -0.6901 -1.0267  0.7996
 4129TIP3   OH233945   6.358   4.568   1.351 -0.0680  0.3565  0.0486
 4129TIP3    H133946   6.382   4.503   1.416  0.5796 -1.0864 -1.5361
 4129TIP3    H233947   6.431   4.630   1.349  0.8367 -0.7108 -0.6547
 4130TIP3   OH233948   0.094   2.051   1.111 -0.0472 -0.6177 -0.5116
 4130TIP3    H133949   0.134   2.137   1.123  1.3532 -1.1522 -1.1904
 4130TIP3    H233950   0.163   1.997   1.073 -1.1891 -1.7867 -1.0057
 4131TIP3   OH233951   4.491   1.333   0.028  0.4693 -0.5856  0.0624
 4131TIP3    H133952   4.537   1.402  -0.021 -0.9979 -0.5859 -1.4117
 4131TIP3    H233953   4.485   1.261  -0.034  0.9295 -1.6161  1.1884
 4132TIP3   OH233954   3.217   3.009   6.326  0.3817  0.2305 -0.1230
 4132TIP3    H133955   3.227   2.930   6.379  0.5545  0.2732 -0.0901
 4132TIP3    H233956   3.138   2.994   6.274  1.3505 -0.6850 -1.3728
 4133TIP3   OH233957   3.515   6.856   8.032  0.0551 -0.0634  0.3417
 4133TIP3    H133958   3.441   6.825   8.084 -0.3713 -1.7058 -1.1356
 4133TIP3    H233959   3.475   6.894   7.954  0.6995  1.8927  0.8836
 4134TIP3   OH233960   6.677   1.539   8.643  0.2736  0.6772  0.0383
 4134TIP3    H133961   6.620   1.588   8.702 -2.3322 -0.7253 -1.1774
 4134TIP3    H233962   6.658   1.447   8.661  2.0120  0.1553 -0.5862
 4135TIP3   OH233963   6.162   2.823   6.664 -0.1648 -0.5126  0.2540
 4135TIP3    H133964   6.143   2.827   6.758 -0.6360 -2.3194  0.2780
 4135TIP3    H233965   6.240   2.768   6.658  1.8878  2.2070 -0.2571
 4136TIP3   OH233966   6.117   0.771   7.123 -0.0228 -0.0749 -0.3639
 4136TIP3    H133967   6.166   0.691   7.143  0.7193  0.2444 -0.8770
 4136TIP3    H233968   6.183   0.840   7.121 -0.6973  0.6024  0.3273
 4137TIP3   OH233969   2.623   1.394   0.550 -0.4165 -0.4262 -0.3090
 4137TIP3    H133970   2.703   1.375   0.599 -0.3372  0.1027 -0.2222
 4137TIP3    H233971   2.605   1.315   0.501  1.5423  0.2402 -2.2532
 4138TIP3   OH233972   3.992   2.808   8.298  0.1544 -0.1807  0.5226
 4138TIP3    H133973   4.028   2.829   8.384  1.1508 -0.1546  0.1119
 4138TIP3    H233974   3.953   2.890   8.268  0.6139  0.0643  0.5740
 4139TIP3   OH233975   2.732   4.632   6.389  0.4551 -0.5298  0.5277
 4139TIP3    H133976   2.735   4.726   6.404 -0.0077 -0.3045 -0.7487
 4139TIP3    H233977   2.639   4.609   6.395  0.4877 -0.7829  0.1059
 4140TIP3   OH233978   5.826   0.863   2.142  0.4474 -0.0070  0.4639
 4140TIP3    H133979   5.894   0.908   2.192 -1.2327  0.1629  2.7305
 4140TIP3    H233980   5.757   0.844   2.206 -1.2235 -1.0721 -1.5249
 4141TIP3   OH233981   4.626   1.638   7.555  0.0944  0.0765  0.1754
 4141TIP3    H133982   4.578   1.657   7.474  1.4116 -0.9241 -0.8952
 4141TIP3    H233983   4.621   1.719   7.606  1.3373  1.6522 -2.0246
 4142TIP3   OH233984   0.792   0.940   6.946 -0.0770 -0.1609  0.7347
 4142TIP3    H133985   0.801   0.912   6.855 -2.5870 -0.7592  0.5758
 4142TIP3    H233986   0.818   1.032   6.946  0.3020 -0.2509 -0.5084
 4143TIP3   OH233987   4.670   3.562   1.176 -0.7065  0.0125  0.3222
 4143TIP3    H133988   4.670   3.625   1.104 -0.3352 -0.4383 -0.0718
 4143TIP3    H233989   4.663   3.617   1.255 -1.3746  0.4916 -0.0602
 4144TIP3   OH233990   4.845   3.806   1.749 -0.1471  0.2384  0.3572
 4144TIP3    H133991   4.930   3.794   1.790 -0.2584  1.6168  1.0112
 4144TIP3    H233992   4.857   3.772   1.660  0.7996 -0.4440  0.7281
 4145TIP3   OH233993   3.516   0.202   0.957  0.8014 -0.5592 -0.0570
 4145TIP3    H133994   3.497   0.254   0.879  1.9591 -2.2202 -1.5365
 4145TIP3    H233995   3.495   0.112   0.931  0.8509 -1.1180  1.7033
 4146TIP3   OH233996   6.581   0.654   1.790 -0.3865  0.0791  0.3586
 4146TIP3    H133997   6.533   0.735   1.810 -0.0368  0.5660 -0.7169
 4146TIP3    H233998   6.673   0.682   1.786 -0.3807 -0.1099 -1.2855
 4147TIP3   OH233999   3.050   5.154   6.992  0.0858  0.2277 -0.1525
 4147TIP3    H134000   3.137   5.121   6.968  0.9167  0.8093  1.8164
 4147TIP3    H234001   2.990   5.082   6.972  1.0579 -0.3167 -1.2215
 4148TIP3   OH234002   3.350   2.702   8.556 -0.2221  0.5001 -0.1654
 4148TIP3    H134003   3.418   2.714   8.622  1.7254 -0.8267 -1.7912
 4148TIP3    H234004   3.358   2.778   8.499  1.5631 -0.6945 -1.6436
 4149TIP3   OH234005   0.645   2.659   0.620  0.2848 -0.1367 -0.2852
 4149TIP3    H134006   0.724   2.620   0.580  0.3931 -0.9968  0.7197
 4149TIP3    H234007   0.580   2.589   0.616  0.0759  0.0135  0.3558
 4150TIP3   OH234008   1.115   2.778   8.291  0.5023  0.0817  0.2144
 4150TIP3    H134009   1.122   2.845   8.222  0.2966 -0.7696 -0.6567
 4150TIP3    H234010   1.140   2.696   8.247 -0.3567 -0.6005  0.9564
 4151TIP3   OH234011   3.512   2.240   8.612 -0.7120  0.3312 -0.1777
 4151TIP3    H134012   3.599   2.213   8.642 -1.4910 -0.5157  1.4577
 4151TIP3    H234013   3.472   2.281   8.689 -2.4109 -0.9197 -0.3315
 4152TIP3   OH234014   3.323   3.325   0.601  0.8046  0.2474  0.3692
 4152TIP3    H134015   3.240   3.279   0.587 -1.1045  3.6998 -0.8646
 4152TIP3    H234016   3.346   3.360   0.515  1.9646  1.7909  1.2597
 4153TIP3   OH234017   3.967   4.479   7.855  0.1923 -0.0833 -0.1009
 4153TIP3    H134018   4.062   4.480   7.840  0.2137  0.6443  0.0525
 4153TIP3    H234019   3.931   4.532   7.785 -0.1330 -0.5977 -0.3271
 4154TIP3   OH234020   0.104   6.464   7.014 -0.0193 -0.7058 -0.4666
 4154TIP3    H134021   0.172   6.522   6.980  1.4099 -1.2375  1.3599
 4154TIP3    H234022   0.032   6.523   7.039 -0.8255 -0.2316 -3.4837
 4155TIP3   OH234023   0.458   1.698   7.434  0.3294 -0.2738 -0.7260
 4155TIP3    H134024   0.431   1.611   7.462  0.2928 -0.1040 -0.2069
 4155TIP3    H234025   0.518   1.728   7.503 -1.6086  1.1140  0.4916
 4156TIP3   OH234026   6.077   1.329   2.401  0.5886 -0.1541  0.7003
 4156TIP3    H134027   6.049   1.366   2.485 -1.5467 -2.6218  1.2121
 4156TIP3    H234028   6.129   1.252   2.425  1.5595  0.1650 -0.2857
 4157TIP3   OH234029   2.423   0.401   0.701 -0.0824  0.4551  0.5039
 4157TIP3    H134030   2.402   0.446   0.619  0.1259 -0.2189  0.0703
 4157TIP3    H234031   2.362   0.328   0.704  0.8452 -0.3503  0.2319
 4158TIP3   OH234032   1.309   4.836   0.977 -0.3593 -0.1730  0.2653
 4158TIP3    H134033   1.255   4.915   0.984 -2.2722 -1.4601  1.0016
 4158TIP3    H234034   1.292   4.803   0.889 -1.6584 -1.1398  0.8525
 4159TIP3   OH234035   1.110   0.015   7.090  0.7146 -0.2102 -0.2500
 4159TIP3    H134036   1.177   0.058   7.036  0.2089 -0.2080 -0.8839
 4159TIP3    H234037   1.050  -0.025   7.027 -0.8517  1.2410  0.2374
 4160TIP3   OH234038   4.833   4.201   1.709  0.8044  0.2955  0.1463
 4160TIP3    H134039   4.749   4.176   1.670  1.5050  1.1169 -2.0395
 4160TIP3    H234040   4.825   4.176   1.801 -1.0279 -1.6432 -0.4479
 4161TIP3   OH234041   2.156   0.330   7.500 -0.1138 -0.3896 -0.1999
 4161TIP3    H134042   2.104   0.400   7.540 -0.7486 -1.5618  1.1091
 4161TIP3    H234043   2.235   0.324   7.555 -0.8117 -1.7495  0.7157
 4162TIP3   OH234044   5.768   1.409   0.413  0.4540 -0.0287  0.0227
 4162TIP3    H134045   5.717   1.391   0.334  1.6773  2.4656 -1.4793
 4162TIP3    H234046   5.816   1.328   0.430  0.0755 -0.6568 -1.7519
 4163TIP3   OH234047   6.056   3.363   6.447 -0.0723  0.2892  0.3306
 4163TIP3    H134048   6.074   3.424   6.376  2.0233 -0.7468 -0.1342
 4163TIP3    H234049   5.990   3.303   6.413  2.8125 -1.9103 -2.0043
 4164TIP3   OH234050   5.585   3.531   7.767 -0.2645 -0.0855  0.1397
 4164TIP3    H134051   5.563   3.584   7.691  1.9970  1.0901  0.2050
 4164TIP3    H234052   5.536   3.450   7.755 -2.5371  1.3229 -0.8304
 4165TIP3   OH234053   6.509   4.596   7.991 -0.5306  0.0690  0.4296
 4165TIP3    H134054   6.541   4.676   7.948 -1.9347  0.3389 -0.1501
 4165TIP3    H234055   6.506   4.618   8.084 -1.2966  0.8326  0.2292
 4166TIP3   OH234056   6.576   3.776   1.048  0.1582  0.1595 -0.0470
 4166TIP3    H134057   6.523   3.712   1.095 -1.1377  1.4486  0.3049
 4166TIP3    H234058   6.662   3.771   1.091  0.4408 -2.0248 -0.6959
 4167TIP3   OH234059   1.079   3.240   0.402 -0.4175  0.1933 -0.0493
 4167TIP3    H134060   1.047   3.202   0.484 -0.5118 -0.3342 -0.3249
 4167TIP3    H234061   1.174   3.238   0.410 -0.4303  1.0074  0.4315
 4168TIP3   OH234062   5.537   3.348   1.814  0.2376  0.4532  0.3919
 4168TIP3    H134063   5.630   3.369   1.823  0.4873  0.2443 -1.3203
 4168TIP3    H234064   5.501   3.419   1.761 -0.5530  0.4504  0.9046
 4169TIP3   OH234065   4.577   6.032   2.473 -0.3259 -0.1993  0.0525
 4169TIP3    H134066   4.548   5.943   2.492  2.6835 -1.2143  0.3898
 4169TIP3    H234067   4.583   6.074   2.558 -0.3128 -0.1644  0.0341
 4170TIP3   OH234068   5.329   0.913   1.762 -0.7572  0.1658  0.0103
 4170TIP3    H134069   5.274   0.962   1.822 -0.7957 -0.5487  0.5786
 4170TIP3    H234070   5.398   0.876   1.818 -1.3153 -1.2649 -0.2111
 4171TIP3   OH234071   2.696   1.267   7.925 -0.5213 -0.2481  0.2518
 4171TIP3    H134072   2.725   1.194   7.871  0.0620  0.3452 -0.2516
 4171TIP3    H234073   2.622   1.232   7.975  0.0387 -1.3141  0.3617
 4172TIP3   OH234074   0.273   6.400   0.833 -0.1088  0.4505  0.1340
 4172TIP3    H134075   0.279   6.344   0.910 -1.0051  3.2988  2.4380
 4172TIP3    H234076   0.179   6.411   0.818  0.0563  0.4974 -0.9508
 4173TIP3   OH234077   4.179   1.022   1.423  0.2465  0.5770 -0.1612
 4173TIP3    H134078   4.181   0.964   1.499  2.1866  0.0690 -0.5280
 4173TIP3    H234079   4.159   1.108   1.458  0.0402  0.1567  0.7756
 4174TIP3   OH234080   2.690   0.564   7.291  0.2385  0.0561  0.6125
 4174TIP3    H134081   2.604   0.556   7.251  0.3461  1.6899 -0.0212
 4174TIP3    H234082   2.735   0.482   7.269 -0.2160  0.3004 -1.3685
 4175TIP3   OH234083   5.887   2.848   0.644 -0.2508 -0.6265  0.2135
 4175TIP3    H134084   5.852   2.907   0.711 -1.3295  1.8580 -2.3047
 4175TIP3    H234085   5.981   2.866   0.643  0.0178 -1.7333  1.9187
 4176TIP3   OH234086   5.128   3.431   8.393  0.2589  0.0393 -0.2005
 4176TIP3    H134087   5.066   3.504   8.391  1.1995  0.8603 -0.0709
 4176TIP3    H234088   5.208   3.468   8.430  0.4485 -1.3121  0.8137
 4177TIP3   OH234089   2.122   1.299   8.068  0.1055  0.1899  0.1396
 4177TIP3    H134090   2.167   1.380   8.045  0.2821 -0.0245 -0.2727
 4177TIP3    H234091   2.137   1.240   7.994  0.7544 -0.5462  0.8328
 4178TIP3   OH234092   1.870   4.189   7.590 -0.1173  0.4118  0.4575
 4178TIP3    H134093   1.923   4.268   7.582 -1.0964  1.0241 -0.0637
 4178TIP3    H234094   1.806   4.209   7.658 -0.8371  0.3496 -0.1879
 4179TIP3   OH234095   3.853   4.417   1.635  0.0357 -0.1292 -0.2698
 4179TIP3    H134096   3.852   4.328   1.600 -0.1865 -0.8854  1.5278
 4179TIP3    H234097   3.783   4.417   1.701  2.0365  0.3988  1.9848
 4180TIP3   OH234098   4.069   0.195   1.280  0.2573  0.2363 -0.0368
 4180TIP3    H134099   4.004   0.127   1.262 -1.2247  1.4422  0.5763
 4180TIP3    H234100   4.135   0.151   1.335 -1.2270 -0.4499  1.2663
 4181TIP3   OH234101   4.731   6.689   7.263  0.3777 -0.1224  0.2744
 4181TIP3    H134102   4.658   6.627   7.260 -0.2023  0.5401  0.4655
 4181TIP3    H234103   4.809   6.635   7.252 -0.1499 -0.8243 -0.0714
 4182TIP3   OH234104   5.233   4.646   1.828 -0.1312 -0.0952  0.0021
 4182TIP3    H134105   5.312   4.603   1.795  1.7422  2.5921  0.6421
 4182TIP3    H234106   5.186   4.577   1.874  3.8478 -1.1898  3.0873
 4183TIP3   OH234107   3.638   1.171   1.642 -0.6917 -0.0246  0.2428
 4183TIP3    H134108   3.553   1.148   1.604 -0.5446 -0.2243  0.0341
 4183TIP3    H234109   3.702   1.125   1.588 -0.2631  2.0452 -1.1684
 4184TIP3   OH234110   2.466   0.781   7.526  0.2638  0.0940  0.0668
 4184TIP3    H134111   2.522   0.732   7.466  2.3870  1.8369  0.5109
 4184TIP3    H234112   2.486   0.746   7.612  0.7510  0.7925  0.2395
 4185TIP3   OH234113   4.280   2.353   1.873  0.0045 -0.1339  0.3301
 4185TIP3    H134114   4.248   2.411   1.943 -0.3527 -0.3752  0.3675
 4185TIP3    H234115   4.342   2.296   1.917  0.4731  0.3166  0.2635
 4186TIP3   OH234116   6.145   6.052   8.004 -0.3928 -0.1710  0.1347
 4186TIP3    H134117   6.226   6.059   8.056 -0.2059 -0.7672 -0.0740
 4186TIP3    H234118   6.075   6.047   8.069 -0.1783 -0.6630  0.3286
 4187TIP3   OH234119   2.000   6.411   0.505  0.1175  0.3017  0.0572
 4187TIP3    H134120   2.022   6.323   0.477  0.2268 -0.2427  1.7457
 4187TIP3    H234121   1.905   6.412   0.514  0.1695  0.1384  0.6782
 4188TIP3   OH234122   1.729   3.095   0.763  0.2915  0.4101 -0.2717
 4188TIP3    H134123   1.660   3.095   0.830  0.9860  2.7360  0.5406
 4188TIP3    H234124   1.797   3.039   0.799 -0.6938 -1.0482 -0.5975
 4189TIP3   OH234125   2.997   2.965   7.108  0.0369  1.0640 -0.4098
 4189TIP3    H134126   2.910   2.999   7.088 -0.6947 -1.0174 -0.9454
 4189TIP3    H234127   3.015   2.902   7.038  0.7284 -0.6611  1.2463
 4190TIP3   OH234128   3.923   0.708   0.825  0.1336  0.8088 -0.4812
 4190TIP3    H134129   3.858   0.759   0.777 -1.8045 -0.4238  0.7026
 4190TIP3    H234130   3.922   0.622   0.784 -0.2715  0.2699  0.6202
 4191TIP3   OH234131   2.956   6.385   7.828  0.3369  0.4741  0.0693
 4191TIP3    H134132   2.931   6.411   7.739  0.1921  0.1539  0.0161
 4191TIP3    H234133   3.042   6.345   7.818  1.0593  1.8863  0.2989
 4192TIP3   OH234134   5.374   4.543   2.084 -0.1000  0.0301  0.0474
 4192TIP3    H134135   5.326   4.460   2.082 -1.3806  0.7584 -1.3767
 4192TIP3    H234136   5.463   4.519   2.057 -1.0775 -0.5632 -2.9966
 4193TIP3   OH234137   2.803   3.767   6.801  0.0576 -0.0563  0.3938
 4193TIP3    H134138   2.827   3.767   6.708  0.9595 -0.8376  0.6171
 4193TIP3    H234139   2.792   3.859   6.823  1.1634  0.2136 -0.1506
 4194TIP3   OH234140   1.004   5.242   7.841  0.2204  0.3479 -0.3541
 4194TIP3    H134141   1.003   5.221   7.934  1.2580  1.5183 -0.0537
 4194TIP3    H234142   1.086   5.290   7.828 -0.0518  0.4637 -1.8078
 4195TIP3   OH234143   3.319   0.121   2.318  0.4337 -0.1368  0.1199
 4195TIP3    H134144   3.328   0.033   2.355  1.6915  0.2505  0.8043
 4195TIP3    H234145   3.239   0.117   2.265  0.0166 -1.4453  0.8062
 4196TIP3   OH234146   6.292   1.931   7.738  0.4123 -0.4310 -0.5719
 4196TIP3    H134147   6.276   1.955   7.829  0.9611  0.8132 -0.7790
 4196TIP3    H234148   6.360   1.863   7.742 -0.0000 -0.8160 -0.0364
 4197TIP3   OH234149   5.676   2.747   0.143 -0.5803 -0.1355 -0.4564
 4197TIP3    H134150   5.714   2.791   0.067  1.3658 -3.6843 -1.7383
 4197TIP3    H234151   5.736   2.767   0.215 -1.1936  1.3711 -0.3191
 4198TIP3   OH234152   1.262   2.697   1.284  0.5453  0.2150 -0.0318
 4198TIP3    H134153   1.260   2.631   1.353  0.6668 -0.4956 -0.6935
 4198TIP3    H234154   1.195   2.760   1.309  0.2810 -0.2705  0.5033
 4199TIP3   OH234155   3.981   6.636   0.399 -0.0135  0.3762 -0.1780
 4199TIP3    H134156   4.055   6.626   0.339  0.8432  2.8297  0.3343
 4199TIP3    H234157   3.908   6.593   0.355  1.3180 -0.6592 -1.4806
 4200TIP3   OH234158   6.739   3.706   8.661  0.6904  0.8051  0.5302
 4200TIP3    H134159   6.696   3.702   8.576  0.9373  3.4450  0.1884
 4200TIP3    H234160   6.688   3.771   8.710  2.0729  1.2176  1.4697
 4201TIP3   OH234161   6.312   1.786   8.432  0.9385  0.3285 -0.6223
 4201TIP3    H134162   6.375   1.720   8.402 -0.3304 -0.5083 -1.5427
 4201TIP3    H234163   6.301   1.845   8.357 -0.7611 -0.6349 -1.1980
 4202TIP3   OH234164   6.120   5.507   7.209  0.2915 -0.2816 -0.0128
 4202TIP3    H134165   6.171   5.499   7.290 -0.3597 -0.1193  0.4130
 4202TIP3    H234166   6.173   5.565   7.154  0.9904 -0.8071  0.0867
 4203TIP3   OH234167   4.644   0.285   6.546 -0.1179  0.1895 -0.0973
 4203TIP3    H134168   4.707   0.354   6.563 -1.6597  2.5371 -2.9638
 4203TIP3    H234169   4.560   0.321   6.576 -0.7564 -1.0661 -0.2945
 4204TIP3   OH234170   2.746   1.934   7.161 -0.2019 -0.0692 -0.6452
 4204TIP3    H134171   2.767   1.848   7.126 -0.0347 -0.2055 -0.2084
 4204TIP3    H234172   2.778   1.933   7.251 -3.4097 -0.8536  0.6340
 4205TIP3   OH234173   3.977   4.789   1.497 -0.0887  0.0147  0.2078
 4205TIP3    H134174   3.895   4.810   1.541 -0.5238 -0.3753 -0.3957
 4205TIP3    H234175   4.008   4.710   1.540  1.4062  1.6343  2.2931
 4206TIP3   OH234176   2.802   3.676   8.089  0.4125  0.3135 -0.0787
 4206TIP3    H134177   2.737   3.668   8.019  2.1648 -2.5076 -1.5527
 4206TIP3    H234178   2.878   3.716   8.046  1.3773 -1.1126  0.2448
 4207TIP3   OH234179   4.288   1.216   8.414  0.1275 -0.7294  0.3376
 4207TIP3    H134180   4.310   1.262   8.333  1.8884 -1.2277  0.4894
 4207TIP3    H234181   4.252   1.132   8.385 -0.6271 -0.3365  0.0903
 4208TIP3   OH234182   2.203   1.576   8.024 -0.4116  0.2529  0.8095
 4208TIP3    H134183   2.282   1.571   8.078  0.3033  0.2114 -0.2097
 4208TIP3    H234184   2.189   1.670   8.011 -0.9717  0.2874  1.6011
 4209TIP3   OH234185   3.991   3.940   7.825 -0.1210  1.4513  0.8186
 4209TIP3    H134186   3.958   4.004   7.888 -2.1457  1.1497  0.1512
 4209TIP3    H234187   3.918   3.929   7.763  0.3384 -1.1433  0.6480
 4210TIP3   OH234188   6.603   1.431   0.275  0.1681 -0.8750  0.2865
 4210TIP3    H134189   6.667   1.366   0.304 -0.4342 -1.2444  0.8364
 4210TIP3    H234190   6.519   1.384   0.279 -0.4283  0.2304  1.7186
 4211TIP3   OH234191   3.903   4.914   7.875  0.0089 -0.3798 -0.3587
 4211TIP3    H134192   3.873   4.825   7.891 -2.9899  0.3445 -1.3342
 4211TIP3    H234193   3.875   4.963   7.952  0.5351 -0.0238 -0.3866
 4212TIP3   OH234194   5.316   1.419   1.343 -0.3339 -0.1361  0.4333
 4212TIP3    H134195   5.380   1.349   1.328  1.0853  0.8572  1.5423
 4212TIP3    H234196   5.320   1.435   1.437 -2.0710  0.1357  0.4936
 4213TIP3   OH234197   2.450   0.980   2.166 -0.5275 -0.4238  0.3886
 4213TIP3    H134198   2.545   0.971   2.161 -0.4704  0.7223 -1.4959
 4213TIP3    H234199   2.430   0.972   2.260  1.5682  0.5519  0.9894
 4214TIP3   OH234200   2.261   0.290   6.766  0.0162 -0.0144  0.1700
 4214TIP3    H134201   2.179   0.332   6.742 -0.7263 -0.9671  0.9523
 4214TIP3    H234202   2.260   0.207   6.718  0.8040  0.2152 -0.2634
 4215TIP3   OH234203   3.665   3.175   7.544 -0.1906  0.2340  0.5327
 4215TIP3    H134204   3.615   3.221   7.477 -0.6079 -0.7084  0.1765
 4215TIP3    H234205   3.604   3.110   7.579  0.9724 -1.4699 -0.4525
 4216TIP3   OH234206   1.993   2.346   6.261  0.1045  0.1054  0.0788
 4216TIP3    H134207   2.084   2.324   6.243 -0.0254 -2.3602  1.9181
 4216TIP3    H234208   1.979   2.320   6.352 -2.4542  0.3940 -0.1372
 4217TIP3   OH234209   1.313   2.354   7.105  0.7349 -0.1448  0.3691
 4217TIP3    H134210   1.290   2.261   7.101 -0.6006  0.1963 -0.8257
 4217TIP3    H234211   1.391   2.362   7.050 -0.0137 -0.3364 -0.7402
 4218TIP3   OH234212   3.177   2.194   8.104 -0.0960 -0.4712 -0.6646
 4218TIP3    H134213   3.222   2.141   8.038  0.0236 -1.5584  0.2523
 4218TIP3    H234214   3.093   2.150   8.116 -0.1231 -0.2650 -0.1022
 4219TIP3   OH234215   3.506   4.532   0.537  0.5839  0.2774 -0.3563
 4219TIP3    H134216   3.510   4.560   0.445 -1.2732 -1.2993 -0.9958
 4219TIP3    H234217   3.501   4.436   0.533  0.5026  0.1725  1.4053
 4220TIP3   OH234218   0.238   4.581   8.314 -0.0995  0.0920  0.6661
 4220TIP3    H134219   0.165   4.580   8.252 -0.1624  0.3507  0.7326
 4220TIP3    H234220   0.316   4.576   8.259 -0.1824 -1.9007  0.6690
 4221TIP3   OH234221   6.005   2.820   8.101  0.0282 -0.2746 -0.1656
 4221TIP3    H134222   6.010   2.876   8.023  1.1503  0.2374  0.2529
 4221TIP3    H234223   6.049   2.739   8.075 -0.1165 -0.3291 -0.2436
 4222TIP3   OH234224   3.006   2.141   7.401 -0.5659  0.1213 -0.3889
 4222TIP3    H134225   3.032   2.050   7.384 -0.4618  0.1227 -0.2399
 4222TIP3    H234226   2.985   2.143   7.494  0.5610  0.5137 -0.1223
 4223TIP3   OH234227   3.717   3.457   7.105  0.4735  0.2734 -0.2283
 4223TIP3    H134228   3.780   3.503   7.161 -1.2439  1.4976  0.7971
 4223TIP3    H234229   3.655   3.417   7.167  1.5165 -2.9895 -1.0935
 4224TIP3   OH234230   2.855   5.586   7.802  0.3046 -0.6598 -0.5792
 4224TIP3    H134231   2.935   5.585   7.749  1.6776  1.3706  1.2813
 4224TIP3    H234232   2.853   5.673   7.841 -2.6043 -0.8159 -0.1597
 4225TIP3   OH234233   0.314   4.390   6.702 -0.1125 -0.2611  0.1195
 4225TIP3    H134234   0.242   4.327   6.703  0.2627 -0.6931  0.1586
 4225TIP3    H234235   0.341   4.394   6.611  0.7455 -1.1825  0.3151
 4226TIP3   OH234236   3.003   4.630   1.467  0.0766  0.4597 -0.0219
 4226TIP3    H134237   3.019   4.720   1.494 -0.7791  0.4600  0.5395
 4226TIP3    H234238   2.942   4.637   1.394  0.6962  0.3630 -0.5593
 4227TIP3   OH234239   2.663   0.360   2.071  0.3575 -0.5767  0.7893
 4227TIP3    H134240   2.668   0.455   2.083 -0.0979 -0.3754 -0.4882
 4227TIP3    H234241   2.754   0.332   2.061  0.3977 -0.0219 -0.5445
 4228TIP3   OH234242   0.610   1.548   6.901  0.8896 -0.4023 -0.7085
 4228TIP3    H134243   0.615   1.638   6.869 -0.7168 -0.9086 -2.6334
 4228TIP3    H234244   0.638   1.495   6.826  0.3878 -1.5565 -0.1029
 4229TIP3   OH234245   2.673   2.336   1.069  0.3418  0.0558  0.2508
 4229TIP3    H134246   2.715   2.371   1.149 -1.5119 -2.1367  2.3317
 4229TIP3    H234247   2.710   2.248   1.060  2.1001  0.9652 -2.6789
 4230TIP3   OH234248   0.211   2.946   0.405  0.0067 -0.0484  0.2994
 4230TIP3    H134249   0.290   2.996   0.420  1.1813 -1.5087 -0.7062
 4230TIP3    H234250   0.144   3.011   0.385  1.7435  1.1098 -2.2303
 4231TIP3   OH234251   3.909   1.451   2.387 -0.1097  0.1877  0.2032
 4231TIP3    H134252   3.969   1.421   2.319 -1.5120 -1.0159 -0.5606
 4231TIP3    H234253   3.901   1.545   2.372  1.7504  0.4489  0.5049
 4232TIP3   OH234254   2.378   1.948   1.567  0.1555  0.1276 -0.2542
 4232TIP3    H134255   2.425   1.935   1.484  1.1914 -1.8242  0.5756
 4232TIP3    H234256   2.316   1.875   1.571 -0.7211  0.8839  0.1499
 4233TIP3   OH234257   6.860   3.782   7.369 -0.2031  0.4028 -0.1156
 4233TIP3    H134258   6.897   3.796   7.456  0.3232  1.0156 -0.4231
 4233TIP3    H234259   6.774   3.744   7.385  0.3495 -0.5902  0.6387
 4234TIP3   OH234260   0.516   4.795   1.986 -0.7358 -0.2932  0.4147
 4234TIP3    H134261   0.556   4.766   2.068 -0.4957  0.1394  0.4487
 4234TIP3    H234262   0.459   4.722   1.961 -1.8503  0.0902  1.6617
 4235TIP3   OH234263   0.086   6.700   8.450 -0.0670 -0.2622 -0.0998
 4235TIP3    H134264   0.065   6.789   8.419  0.3646 -0.0047  0.3342
 4235TIP3    H234265   0.067   6.703   8.543 -1.3662 -1.0366 -0.3126
 4236TIP3   OH234266   0.355   1.336   8.267  0.2425  0.0002 -0.0405
 4236TIP3    H134267   0.375   1.366   8.356 -0.2026  0.7305 -0.1780
 4236TIP3    H234268   0.438   1.299   8.236  0.2291 -0.9005  0.9157
 4237TIP3   OH234269   5.899   5.886   2.147 -0.4097  0.1046 -0.3699
 4237TIP3    H134270   5.882   5.915   2.237 -1.7011 -1.4485 -0.0683
 4237TIP3    H234271   5.833   5.932   2.094 -0.1117  0.4680 -0.4307
 4238TIP3   OH234272   0.289   4.831   0.729 -0.7312  0.1393 -0.4592
 4238TIP3    H134273   0.357   4.782   0.682 -0.1541  0.4665  0.0248
 4238TIP3    H234274   0.321   4.921   0.731 -0.3622  0.0195  1.1927
 4239TIP3   OH234275   0.622   5.336   7.704 -0.6726  0.4493  0.1754
 4239TIP3    H134276   0.581   5.280   7.770 -0.5053 -0.1185 -0.1916
 4239TIP3    H234277   0.573   5.418   7.708 -1.0282  0.2204  0.6116
 4240TIP3   OH234278   3.986   5.967   7.230 -0.2256 -0.2418  0.1904
 4240TIP3    H134279   3.966   5.983   7.138 -0.7951 -0.8793  0.1968
 4240TIP3    H234280   4.039   5.887   7.230  0.4869  0.2124  0.3593
 4241TIP3   OH234281   4.512   5.599   8.451  0.0478 -0.5069 -0.1706
 4241TIP3    H134282   4.440   5.587   8.389  1.1565  1.0087 -1.8711
 4241TIP3    H234283   4.588   5.559   8.408  0.5732 -0.6579  0.8591
 4242TIP3   OH234284   0.427   6.246   8.391 -0.1468 -0.3734  0.0163
 4242TIP3    H134285   0.343   6.293   8.397 -0.2641 -0.3959 -1.1983
 4242TIP3    H234286   0.422   6.179   8.458 -1.1749 -0.4678 -0.1403
 4243TIP3   OH234287   2.570   6.362   6.693 -0.1901 -0.1751 -0.1359
 4243TIP3    H134288   2.658   6.363   6.730  0.1347 -0.6095 -0.9019
 4243TIP3    H234289   2.560   6.447   6.651 -0.5935  0.3605  0.9806
 4244TIP3   OH234290   3.311   1.195   0.246  0.1624 -0.2192  0.1909
 4244TIP3    H134291   3.395   1.208   0.290  0.4006  0.6674 -0.5104
 4244TIP3    H234292   3.246   1.201   0.317  0.6949 -1.2849  0.7923
 4245TIP3   OH234293   6.299   1.667   1.654 -0.3680  0.0874  0.3493
 4245TIP3    H134294   6.314   1.742   1.596 -2.1721 -0.3901 -0.8271
 4245TIP3    H234295   6.222   1.691   1.705 -0.6668 -0.7573  0.3116
 4246TIP3   OH234296   3.257   1.278   6.781 -0.2504  0.0197  0.3530
 4246TIP3    H134297   3.339   1.251   6.739 -1.2068 -0.1336 -1.5326
 4246TIP3    H234298   3.284   1.336   6.852  1.6806 -2.9043  2.2214
 4247TIP3   OH234299   3.446   2.307   7.778  0.9780  0.1233  0.6536
 4247TIP3    H134300   3.381   2.358   7.826  0.1400 -0.9666  0.6948
 4247TIP3    H234301   3.473   2.365   7.706  0.1944  0.7046  0.8126
 4248TIP3   OH234302   0.685   5.585   7.347 -0.0324 -0.0763  0.1054
 4248TIP3    H134303   0.612   5.645   7.335 -0.8824 -0.8354  1.3284
 4248TIP3    H234304   0.760   5.642   7.365 -0.6423  0.6493  0.4067
 4249TIP3   OH234305   3.801   0.265   0.994  0.1392  0.2333 -0.5204
 4249TIP3    H134306   3.809   0.177   0.959 -0.0298 -0.1436  0.3603
 4249TIP3    H234307   3.711   0.271   1.025  0.3675  0.4417  0.1183
 4250TIP3   OH234308   2.407   3.649   7.434 -0.5161 -0.4011 -0.5528
 4250TIP3    H134309   2.413   3.565   7.480  0.7632 -0.2120 -0.3099
 4250TIP3    H234310   2.451   3.634   7.351 -0.6025 -0.0699 -0.6592
 4251TIP3   OH234311   5.407   6.734   7.463  0.7371 -0.1258 -0.0145
 4251TIP3    H134312   5.400   6.646   7.500 -1.3611 -0.3459 -0.7758
 4251TIP3    H234313   5.409   6.793   7.539 -2.0580 -0.6420  0.5564
 4252TIP3   OH234314   1.623   0.580   0.615  0.0369 -0.1016 -0.4649
 4252TIP3    H134315   1.566   0.625   0.678 -1.2052  0.7234 -2.1007
 4252TIP3    H234316   1.698   0.551   0.667 -0.9104  0.5844  1.3719
 4253TIP3   OH234317   1.562   5.167   1.487 -0.3037 -0.8120 -0.0838
 4253TIP3    H134318   1.579   5.094   1.546 -1.3092 -0.7055  0.3625
 4253TIP3    H234319   1.466   5.171   1.481 -0.2917  0.9118  0.4745
 4254TIP3   OH234320   6.041   1.749   1.322  0.3007 -0.3280 -0.1683
 4254TIP3    H134321   6.119   1.786   1.281 -0.2992  1.4259  0.1755
 4254TIP3    H234322   5.969   1.780   1.267 -0.2766 -0.6082  0.4135
 4255TIP3   OH234323   1.709   5.597   7.442  0.0579  0.0172  0.0754
 4255TIP3    H134324   1.785   5.547   7.413  0.6813  0.1538  1.4055
 4255TIP3    H234325   1.641   5.579   7.376  0.9897 -0.7203 -0.7026
 4256TIP3   OH234326   6.264   2.067   8.514 -0.0155 -0.0398 -0.3482
 4256TIP3    H134327   6.306   2.059   8.429  1.7161 -1.1075  0.5394
 4256TIP3    H234328   6.255   1.977   8.545  1.9739  0.3685  1.7309
 4257TIP3   OH234329   2.650   0.858   7.951  0.4078  0.1986  0.6049
 4257TIP3    H134330   2.648   0.907   8.034  0.8684  0.9008  0.2151
 4257TIP3    H234331   2.712   0.907   7.897  0.9478 -0.8863  0.2329
 4258TIP3   OH234332   2.693   3.995   1.462  0.3543 -0.6130 -0.3109
 4258TIP3    H134333   2.669   4.020   1.552  1.2980  1.7640 -0.6512
 4258TIP3    H234334   2.616   3.950   1.429 -0.9812  0.6358  0.9206
 4259TIP3   OH234335   4.314   1.311   7.509  0.6717  0.1811 -0.2122
 4259TIP3    H134336   4.258   1.383   7.478  0.7275 -0.8474 -2.9807
 4259TIP3    H234337   4.397   1.324   7.463  1.2431 -0.7214  0.5363
 4260TIP3   OH234338   4.152   4.005   0.609 -0.3414  0.1146  0.9623
 4260TIP3    H134339   4.109   4.077   0.655 -1.9784  0.0114 -0.3341
 4260TIP3    H234340   4.091   3.981   0.540  1.4073 -0.6847 -0.3769
 4261TIP3   OH234341   3.266   2.390   1.870 -0.4182 -0.4056  0.1178
 4261TIP3    H134342   3.179   2.428   1.881 -0.3763  0.7227 -2.7268
 4261TIP3    H234343   3.294   2.419   1.783  3.8678  1.4914  1.8334
 4262TIP3   OH234344   4.784   6.177   0.461  0.3291 -0.3445  0.3143
 4262TIP3    H134345   4.872   6.147   0.437 -0.0499 -0.3480 -1.1481
 4262TIP3    H234346   4.725   6.117   0.415 -0.4298  0.5611  0.0903
 4263TIP3   OH234347   2.315   3.722   1.239  0.3760 -0.5029 -0.5431
 4263TIP3    H134348   2.287   3.763   1.157  2.5767 -0.4038 -1.3102
 4263TIP3    H234349   2.312   3.628   1.222  0.8704 -0.4814 -0.7665
 4264TIP3   OH234350   3.303   6.845   0.350  0.1011  0.5097  0.5027
 4264TIP3    H134351   3.368   6.783   0.317 -0.6556  0.6306 -1.3530
 4264TIP3    H234352   3.223   6.793   0.360 -0.2259  0.9158  0.0766
 4265TIP3   OH234353   2.359   5.878   7.178 -0.5715  0.2449 -0.0826
 4265TIP3    H134354   2.361   5.963   7.223 -1.7410 -0.4443  1.3787
 4265TIP3    H234355   2.301   5.824   7.232  0.0730 -1.4718 -1.0245
 4266TIP3   OH234356   4.831   3.611   6.899 -0.2436  0.5528 -0.8946
 4266TIP3    H134357   4.907   3.567   6.937 -1.0714  0.7742  1.1472
 4266TIP3    H234358   4.757   3.557   6.925 -0.9822  1.4726 -1.0278
 4267TIP3   OH234359   1.040   5.829   0.315 -0.1623 -0.0944  0.6838
 4267TIP3    H134360   1.128   5.809   0.348  0.7301  1.1944 -0.7644
 4267TIP3    H234361   1.031   5.923   0.329 -0.5515  0.1182 -0.8456
 4268TIP3   OH234362   4.341   6.844   6.484 -0.3331 -0.3317 -0.1436
 4268TIP3    H134363   4.355   6.754   6.453  3.9651  0.7714 -2.1253
 4268TIP3    H234364   4.347   6.898   6.405  2.6202  1.9842  1.4595
 4269TIP3   OH234365   3.300   0.788   7.024 -0.2631 -0.5164  0.1737
 4269TIP3    H134366   3.304   0.878   6.993 -3.5493 -0.1956  0.3113
 4269TIP3    H234367   3.217   0.783   7.072 -0.1330 -3.5788  0.2690
 4270TIP3   OH234368   6.002   3.941   8.420  0.1358 -0.0184 -0.0924
 4270TIP3    H134369   5.992   3.985   8.336  0.5002 -1.4625 -0.9136
 4270TIP3    H234370   5.936   3.872   8.420  1.4920 -1.3664 -0.1058
 4271TIP3   OH234371   1.542   6.369   1.499 -0.5849  0.3632 -0.0167
 4271TIP3    H134372   1.587   6.444   1.538 -1.3582  0.4563  0.7250
 4271TIP3    H234373   1.599   6.343   1.426 -0.9525  2.5009 -1.1525
 4272TIP3   OH234374   3.821   4.238   7.763  0.2927  0.0793 -0.4241
 4272TIP3    H134375   3.830   4.248   7.668 -1.9344  1.8632 -0.5392
 4272TIP3    H234376   3.810   4.328   7.795 -0.4405 -0.5954  1.3350
 4273TIP3   OH234377   2.912   1.155   0.190  0.0028 -0.0642  0.3547
 4273TIP3    H134378   2.823   1.179   0.165  0.1952  1.4196  1.0019
 4273TIP3    H234379   2.967   1.190   0.120  0.0076 -2.7195 -1.1252
 4274TIP3   OH234380   5.808   5.834   1.088  0.3573  0.6129  0.9325
 4274TIP3    H134381   5.826   5.740   1.093  1.4694  0.5277 -2.2256
 4274TIP3    H234382   5.895   5.875   1.093 -0.0385  1.4076  1.3981
 4275TIP3   OH234383   6.567   5.321   8.039  0.5341 -0.0364 -0.2557
 4275TIP3    H134384   6.605   5.313   8.127  0.8021 -0.7223 -0.4300
 4275TIP3    H234385   6.642   5.325   7.980  0.5540  4.1361 -0.2673
 4276TIP3   OH234386   0.848   4.100   6.340  0.2194 -0.3705 -0.3928
 4276TIP3    H134387   0.871   4.178   6.290 -0.6957 -0.8338 -1.6310
 4276TIP3    H234388   0.795   4.048   6.278  0.5638 -1.8219  0.4863
 4277TIP3   OH234389   4.471   4.402   2.304 -0.1818 -0.1950 -0.2359
 4277TIP3    H134390   4.526   4.378   2.229  0.7890 -0.4351  0.5428
 4277TIP3    H234391   4.515   4.478   2.343  0.3446 -1.1793  1.1594
 4278TIP3   OH234392   1.111   4.950   8.252  0.1959 -0.6491 -0.1354
 4278TIP3    H134393   1.151   5.016   8.308  0.8407 -0.4740 -0.7893
 4278TIP3    H234394   1.125   4.867   8.298 -1.2048 -0.2675  1.0091
 4279TIP3   OH234395   4.708   5.116   7.082  0.1933  0.0074  0.4440
 4279TIP3    H134396   4.727   5.188   7.143 -0.7225  1.1117 -0.5251
 4279TIP3    H234397   4.721   5.037   7.134  2.2854  0.8068  1.2597
 4280TIP3   OH234398   4.202   2.860   7.447 -0.0283 -0.5110 -0.4742
 4280TIP3    H134399   4.166   2.772   7.458 -0.7400 -0.0270  1.2095
 4280TIP3    H234400   4.260   2.872   7.522 -1.6565  1.2872  0.5537
 4281TIP3   OH234401   2.641   0.043   7.600  0.3522 -0.2980 -0.6590
 4281TIP3    H134402   2.569   0.062   7.541 -0.5175 -1.3426  0.0351
 4281TIP3    H234403   2.612  -0.032   7.651  0.7193  1.0151  1.6394
 4282TIP3   OH234404   3.885   6.846   0.618 -0.9138  0.0483  0.0768
 4282TIP3    H134405   3.950   6.776   0.627 -0.7546  0.1346 -0.3841
 4282TIP3    H234406   3.915   6.897   0.542 -1.2883  0.3350  0.1211
 4283TIP3   OH234407   1.575   3.792   7.983  0.0333 -0.0050 -0.2632
 4283TIP3    H134408   1.647   3.780   7.920  0.2930 -1.2746  0.2457
 4283TIP3    H234409   1.498   3.809   7.928  0.0731 -1.9458 -1.0113
 4284TIP3   OH234410   1.258   4.850   1.374  0.3990  0.0800  0.2530
 4284TIP3    H134411   1.229   4.777   1.319 -0.8980  0.8792 -0.1805
 4284TIP3    H234412   1.220   4.831   1.460  2.4596 -1.1902  0.9411
 4285TIP3   OH234413   1.731   4.113   8.399  0.0996  0.5526  0.1424
 4285TIP3    H134414   1.743   4.018   8.403  2.2584  0.3692 -4.4860
 4285TIP3    H234415   1.812   4.149   8.435  0.6570  0.5043 -1.0515
 4286TIP3   OH234416   4.103   6.302   2.231 -0.7855 -0.0745 -0.9516
 4286TIP3    H134417   4.166   6.337   2.168 -0.0337  0.3363  0.0219
 4286TIP3    H234418   4.155   6.246   2.289 -1.1610  0.8268  0.2973
 4287TIP3   OH234419   3.047   2.386   8.561  0.2950 -0.1032  0.3978
 4287TIP3    H134420   3.088   2.434   8.489  1.4218 -1.0285  0.3912
 4287TIP3    H234421   2.985   2.327   8.518  0.3470 -0.0532  0.2508
 4288TIP3   OH234422   4.399   0.017   8.337  0.2505  0.2667  0.3796
 4288TIP3    H134423   4.480   0.027   8.288 -0.7596  0.9890 -1.2667
 4288TIP3    H234424   4.372  -0.074   8.321  1.2115 -0.2838  1.7654
 4289TIP3   OH234425   5.412   6.228   8.185 -0.1546  0.4387 -0.1986
 4289TIP3    H134426   5.491   6.280   8.195 -0.0372  0.4116 -0.9155
 4289TIP3    H234427   5.443   6.138   8.175 -0.2568  0.4454 -0.6341
 4290TIP3   OH234428   4.473   0.376   8.130 -0.5007  0.2926  0.0144
 4290TIP3    H134429   4.466   0.321   8.051  0.7355 -1.6257  1.1405
 4290TIP3    H234430   4.533   0.446   8.104 -0.7516  0.1616 -0.9766
 4291TIP3   OH234431   2.037   0.412   1.415  0.6462  0.0623 -0.1242
 4291TIP3    H134432   1.972   0.398   1.485 -1.2311 -1.1418 -1.9632
 4291TIP3    H234433   2.060   0.504   1.421  0.9632 -0.1137  2.3736
 4292TIP3   OH234434   4.896   4.171   7.925  0.0330 -0.0844  0.1206
 4292TIP3    H134435   4.839   4.185   7.849  1.2420  2.1495 -0.4647
 4292TIP3    H234436   4.971   4.123   7.891 -0.0084 -0.2066  0.1989
 4293TIP3   OH234437   5.579   0.264   0.818 -0.3059 -0.5152  0.1406
 4293TIP3    H134438   5.662   0.239   0.779  0.6917  0.1516  1.7427
 4293TIP3    H234439   5.516   0.259   0.746  1.3719  0.3675 -1.4580
 4294TIP3   OH234440   1.582   4.772   6.764  0.1152 -0.0746 -0.0257
 4294TIP3    H134441   1.508   4.719   6.796 -0.2110  0.8391  0.7583
 4294TIP3    H234442   1.542   4.854   6.735  0.9559  0.9422  1.5999
 4295TIP3   OH234443   4.930   6.160   7.282  0.4111 -0.2390 -0.6237
 4295TIP3    H134444   5.012   6.117   7.260  0.1824  0.1705 -2.5225
 4295TIP3    H234445   4.926   6.235   7.221 -1.0638  0.0983 -0.1540
 4296TIP3   OH234446   3.381   2.085   7.966 -0.4229  0.0251 -0.2355
 4296TIP3    H134447   3.341   2.030   7.899  1.1413  1.3511 -2.4052
 4296TIP3    H234448   3.408   2.164   7.919 -1.6828  2.2770  2.5312
 4297TIP3   OH234449   5.036   0.871   0.414  0.1976  0.0187  0.0110
 4297TIP3    H134450   4.998   0.958   0.399  2.6019  1.0898 -0.3266
 4297TIP3    H234451   4.987   0.813   0.356 -1.5803  1.0779  0.3686
 4298TIP3   OH234452   1.637   0.594   2.042 -0.3256 -0.6170  0.5829
 4298TIP3    H134453   1.606   0.584   2.132 -0.9608  0.8308  0.5556
 4298TIP3    H234454   1.595   0.522   1.995 -0.9606 -0.6825  1.2146
 4299TIP3   OH234455   3.885   5.495   0.192  0.7872  0.3158 -0.8467
 4299TIP3    H134456   3.900   5.512   0.285 -0.2246  0.2792 -0.6634
 4299TIP3    H234457   3.885   5.400   0.184  1.1309  0.3215 -0.9342
 4300TIP3   OH234458   1.969   4.782   1.210 -0.1175  0.3402  0.0204
 4300TIP3    H134459   2.022   4.803   1.287 -1.2129 -0.5983  1.0561
 4300TIP3    H234460   2.034   4.771   1.139  1.1948 -1.5341  1.4029
 4301TIP3   OH234461   0.827   6.853   0.530 -0.0669  0.6857  0.7342
 4301TIP3    H134462   0.747   6.821   0.573  0.6323  1.7362  2.9557
 4301TIP3    H234463   0.804   6.940   0.497 -0.3461  0.2250 -0.3580
 4302TIP3   OH234464   3.041   5.635   0.365  0.1086  0.0888 -0.4071
 4302TIP3    H134465   2.969   5.615   0.305 -2.2697  2.2545  1.4460
 4302TIP3    H234466   3.015   5.594   0.447  1.1099  0.7351  0.2516
 4303TIP3   OH234467   0.323   2.909   7.625 -0.6833 -0.2462 -0.3330
 4303TIP3    H134468   0.316   2.989   7.573 -0.2390  0.5017  0.7149
 4303TIP3    H234469   0.331   2.940   7.715 -2.5923 -1.5225  0.3454
 4304TIP3   OH234470   5.984   2.441   0.550  0.0050 -0.4728 -0.2635
 4304TIP3    H134471   6.062   2.484   0.584 -0.7033  1.5623 -1.0616
 4304TIP3    H234472   5.959   2.379   0.619  1.5597 -0.2041  0.5771
 4305TIP3   OH234473   3.107   0.908   8.604 -0.2100  0.0315  0.6921
 4305TIP3    H134474   3.127   0.851   8.530  2.1449 -0.4867  1.6389
 4305TIP3    H234475   3.042   0.860   8.656  0.9876 -1.3784  0.9396
 4306TIP3   OH234476   0.745   4.507   1.050  0.5412 -0.2219  0.4637
 4306TIP3    H134477   0.802   4.558   0.993  0.7643 -0.6322  0.3114
 4306TIP3    H234478   0.802   4.438   1.085  0.2091 -0.4600  0.5383
 4307TIP3   OH234479   0.286   6.201   1.038  0.1117  0.0862  0.2510
 4307TIP3    H134480   0.303   6.121   1.088 -1.8644  0.1271  1.0950
 4307TIP3    H234481   0.191   6.202   1.026  0.2445  1.5479 -1.0821
 4308TIP3   OH234482   1.878   4.792   7.175 -0.2436  0.4400  0.4961
 4308TIP3    H134483   1.972   4.786   7.159 -0.0496  0.9393  1.3653
 4308TIP3    H234484   1.838   4.746   7.102  0.7077 -0.4751  0.5255
 4309TIP3   OH234485   0.745   2.225   2.057  0.0929 -0.2579 -0.1691
 4309TIP3    H134486   0.758   2.165   2.131 -1.3321  2.1684  2.2168
 4309TIP3    H234487   0.694   2.174   1.994 -2.4445 -1.2047  2.4058
 4310TIP3   OH234488   4.811   2.404   0.848  0.2939  0.6537 -0.3177
 4310TIP3    H134489   4.901   2.418   0.876  0.0760 -0.9964  1.4323
 4310TIP3    H234490   4.758   2.436   0.922 -0.4399 -0.5322 -0.2919
 4311TIP3   OH234491   5.070   1.724   0.644 -0.4904 -0.0237  0.2711
 4311TIP3    H134492   5.075   1.770   0.560 -1.4054 -0.3135  0.0396
 4311TIP3    H234493   5.160   1.716   0.673 -0.3268  2.3838  0.5804
 4312TIP3   OH234494   2.403   5.762   7.505 -0.0071 -0.2653 -0.1137
 4312TIP3    H134495   2.394   5.723   7.418 -0.4274  1.4582 -0.8924
 4312TIP3    H234496   2.346   5.839   7.502  1.1334  0.6714  1.1688
 4313TIP3   OH234497   4.966   1.827   7.273 -0.1480  0.2577  0.5952
 4313TIP3    H134498   5.022   1.786   7.339  1.2387  0.3714 -0.4801
 4313TIP3    H234499   5.002   1.798   7.189 -1.1369  1.0839 -0.1372
 4314TIP3   OH234500   2.954   3.848   7.944 -0.8032  0.6257  0.0838
 4314TIP3    H134501   2.996   3.921   7.988  1.1580 -0.4507  0.0982
 4314TIP3    H234502   2.953   3.873   7.851 -1.8005  1.4135  0.2919
 4315TIP3   OH234503   2.531   2.048   6.195 -0.0542  0.3654  0.1269
 4315TIP3    H134504   2.541   2.100   6.274 -0.2061 -0.8196  0.9564
 4315TIP3    H234505   2.443   2.068   6.164  0.7130  2.3742 -0.9251
 4316TIP3   OH234506   6.277   4.047   0.116  0.3597  0.3054 -0.2450
 4316TIP3    H134507   6.251   3.955   0.124  1.0820  0.1522  0.4464
 4316TIP3    H234508   6.255   4.070   0.026  1.4841 -0.9588 -0.8868
 4317TIP3   OH234509   1.067   1.350   2.422  0.1951 -0.0162  0.7453
 4317TIP3    H134510   1.036   1.263   2.396  2.1505 -0.2778 -0.9687
 4317TIP3    H234511   1.045   1.356   2.515 -2.1330 -1.3551  0.3591
 4318TIP3   OH234512   5.312   1.822   6.905 -0.8015  0.3704 -0.0855
 4318TIP3    H134513   5.343   1.735   6.878  1.0261  0.1767  2.3483
 4318TIP3    H234514   5.311   1.873   6.825 -0.2130 -1.3935 -1.2833
 4319TIP3   OH234515   2.134   6.269   2.298 -0.3575 -0.8053 -0.5042
 4319TIP3    H134516   2.086   6.217   2.362  1.0404 -0.3703  0.9546
 4319TIP3    H234517   2.220   6.226   2.291  0.2167  0.3128 -0.5565
 4320TIP3   OH234518   0.558   0.435   7.519  0.1656  0.0651 -0.3169
 4320TIP3    H134519   0.645   0.395   7.527  0.1157 -0.2583 -1.2807
 4320TIP3    H234520   0.511   0.378   7.458 -1.2598 -0.6659  1.3739
 4321TIP3   OH234521   5.053   0.781   6.930  0.0500  0.0178  0.3921
 4321TIP3    H134522   5.042   0.835   7.008 -0.6999  0.6898 -0.1586
 4321TIP3    H234523   5.115   0.714   6.955  2.6530  2.3121  0.4981
 4322TIP3   OH234524   5.385   0.428   1.285 -0.3390  0.3921 -0.7522
 4322TIP3    H134525   5.387   0.503   1.225 -1.2929  0.6538 -0.4673
 4322TIP3    H234526   5.416   0.463   1.368  1.0423  0.0149 -1.0822
 4323TIP3   OH234527   5.577   1.403   2.063 -0.2725 -0.2422 -0.0828
 4323TIP3    H134528   5.602   1.455   2.140 -1.4298 -1.0909  0.9131
 4323TIP3    H234529   5.495   1.442   2.034 -0.4508 -0.6693 -0.1543
 4324TIP3   OH234530   6.124   1.134   0.238  0.7218  0.1348 -0.0002
 4324TIP3    H134531   6.185   1.063   0.257  0.8557 -0.1137 -1.3041
 4324TIP3    H234532   6.043   1.091   0.210  0.5152  0.4827  0.0448
 4325TIP3   OH234533   5.968   0.328   7.417 -0.3317  0.0748 -0.3416
 4325TIP3    H134534   6.048   0.284   7.388 -0.0235 -0.6940  1.5188
 4325TIP3    H234535   5.914   0.259   7.454 -1.4890  0.7321 -0.7394
 4326TIP3   OH234536   1.707   4.547   2.388 -0.4958 -0.1584  0.3628
 4326TIP3    H134537   1.712   4.634   2.348 -1.1290  0.0877  0.7866
 4326TIP3    H234538   1.724   4.562   2.481  0.9120 -0.7177  0.2170
 4327TIP3   OH234539   4.079   5.205   8.353  0.1208 -0.4981  0.4094
 4327TIP3    H134540   4.122   5.153   8.420  1.4636  3.0716  2.6136
 4327TIP3    H234541   3.986   5.205   8.378  0.4204 -0.2419  1.5863
 4328TIP3   OH234542   4.998   6.847   7.614 -0.4182 -0.0610 -0.5718
 4328TIP3    H134543   5.080   6.799   7.627 -0.1564  0.1689 -1.3120
 4328TIP3    H234544   5.020   6.938   7.633 -1.0345 -0.2566  1.3128
 4329TIP3   OH234545   3.311   0.630   2.105 -0.5906 -0.4487 -0.2622
 4329TIP3    H134546   3.382   0.567   2.117 -1.7658 -1.9868 -1.0707
 4329TIP3    H234547   3.237   0.593   2.153 -0.5648  1.7749  1.6798
 4330TIP3   OH234548   4.522   5.209   8.277 -0.0603  0.1963 -0.2327
 4330TIP3    H134549   4.448   5.179   8.225  0.6430 -0.2609 -0.9879
 4330TIP3    H234550   4.513   5.163   8.360 -0.7603  0.3450 -0.2142
 4331TIP3   OH234551   2.516   2.445   7.800 -0.4045  0.5457 -0.1019
 4331TIP3    H134552   2.547   2.388   7.729  1.0376 -0.2670  1.1195
 4331TIP3    H234553   2.574   2.520   7.798 -0.0407  0.2876  0.5088
 4332TIP3   OH234554   0.666   5.033   0.008 -0.0670 -0.0614  0.0990
 4332TIP3    H134555   0.752   5.029  -0.034  0.0729  0.3162  0.3461
 4332TIP3    H234556   0.639   4.941   0.015  0.9960 -0.3035  1.3930
 4333TIP3   OH234557   3.255   1.447   7.795 -0.1060 -0.1835  0.1361
 4333TIP3    H134558   3.285   1.361   7.822 -0.2642 -0.7375 -1.3698
 4333TIP3    H234559   3.159   1.440   7.795 -0.1516  0.2541  0.7485
 4334TIP3   OH234560   3.947   2.542   6.851  0.2350 -0.1334  0.2352
 4334TIP3    H134561   3.892   2.489   6.793 -1.9625 -1.0169  2.9256
 4334TIP3    H234562   4.010   2.479   6.887 -0.7764 -0.4090  1.5547
 4335TIP3   OH234563   3.616   4.636   8.623 -0.2457  0.6575 -0.1533
 4335TIP3    H134564   3.529   4.630   8.662 -0.1462  1.2897  0.1769
 4335TIP3    H234565   3.599   4.659   8.532 -0.5430 -2.1735 -0.9146
 4336TIP3   OH234566   6.829   3.148   7.920 -0.0878  0.2115 -0.8039
 4336TIP3    H134567   6.864   3.139   7.831  1.3385 -0.3835 -0.2082
 4336TIP3    H234568   6.789   3.063   7.939  0.3958  0.0363 -0.5578
 4337TIP3   OH234569   4.132   4.694   0.001 -0.0430  0.7198 -0.1840
 4337TIP3    H134570   4.093   4.608   0.017  1.0698  0.1236 -0.6300
 4337TIP3    H234571   4.061   4.756   0.019 -1.3715 -0.3565 -1.4697
 4338TIP3   OH234572   3.077   5.522   6.806 -0.2297 -0.3805  0.2966
 4338TIP3    H134573   3.007   5.465   6.775 -1.0423  1.0402 -0.6234
 4338TIP3    H234574   3.157   5.472   6.794 -0.8740 -1.1986 -0.7878
 4339TIP3   OH234575   4.635   0.336   1.801  0.1249 -0.9249  0.3573
 4339TIP3    H134576   4.685   0.343   1.720  0.1140 -2.0077  0.2395
 4339TIP3    H234577   4.549   0.304   1.773  0.4864 -2.4372  0.8888
 4340TIP3   OH234578   5.251   3.956   8.659 -0.4831  0.1183  0.3074
 4340TIP3    H134579   5.214   4.038   8.628  0.0588  1.1864  2.3356
 4340TIP3    H234580   5.303   3.980   8.736  1.5937 -1.8060 -0.3753
 4341TIP3   OH234581   1.973   2.978   8.502 -0.5021 -0.0457 -0.0038
 4341TIP3    H134582   1.939   3.024   8.579 -0.3199  0.0480  0.0219
 4341TIP3    H234583   1.967   2.885   8.526 -2.3175 -0.1279 -0.6566
 4342TIP3   OH234584   2.462   4.702   6.685  0.3101 -0.1656 -0.1325
 4342TIP3    H134585   2.453   4.716   6.779  3.0751  0.8546  0.0807
 4342TIP3    H234586   2.409   4.771   6.645 -0.0334  0.0587  0.6889
 4343TIP3   OH234587   1.211   6.559   8.312 -0.0455  0.3407  0.1223
 4343TIP3    H134588   1.175   6.632   8.261  2.4966  1.1774 -0.6371
 4343TIP3    H234589   1.266   6.601   8.378  0.1003 -0.8580  0.7799
 4344TIP3   OH234590   1.833   4.464   1.047 -0.0900 -1.1777  0.4187
 4344TIP3    H134591   1.796   4.550   1.064  1.6484 -0.1569 -0.6386
 4344TIP3    H234592   1.763   4.415   1.003 -0.0950  0.8708 -2.0820
 4345TIP3   OH234593   2.804   4.222   7.377 -0.1379 -0.2233  0.3277
 4345TIP3    H134594   2.881   4.168   7.390  0.4954  0.8671  1.2615
 4345TIP3    H234595   2.757   4.219   7.460  0.9230  2.1687  1.1006
 4346TIP3   OH234596   3.047   5.324   7.466  0.3837  0.1713  0.1807
 4346TIP3    H134597   3.130   5.300   7.425  0.5808 -0.4492  0.9270
 4346TIP3    H234598   3.039   5.265   7.541 -0.2510  0.8897  0.6949
 4347TIP3   OH234599   3.781   0.771   1.546 -0.1392  0.2054  0.4292
 4347TIP3    H134600   3.716   0.804   1.609 -0.2012 -0.4005  0.6845
 4347TIP3    H234601   3.858   0.749   1.600  1.3856  3.5062 -0.1182
 4348TIP3   OH234602   0.241   5.510   7.827 -0.0207 -0.8127  0.9259
 4348TIP3    H134603   0.198   5.541   7.907 -1.1432  0.5399 -0.1358
 4348TIP3    H234604   0.174   5.516   7.759  0.9202 -1.8460 -0.1516
 4349TIP3   OH234605   2.146   0.305   7.018  0.1084  0.1681  0.1220
 4349TIP3    H134606   2.215   0.301   6.952  1.2612  1.1387  1.2064
 4349TIP3    H234607   2.096   0.225   7.005  1.6932 -0.7839 -0.4717
 4350TIP3   OH234608   5.104   6.309   2.055  0.7840 -0.4347  0.1357
 4350TIP3    H134609   5.129   6.241   2.118 -0.7780 -0.5179  0.7047
 4350TIP3    H234610   5.027   6.273   2.011  0.2852  0.7204  0.0328
 4351TIP3   OH234611   0.360   4.733   7.021 -0.5867 -0.9372  0.3582
 4351TIP3    H134612   0.333   4.647   6.989  0.1939 -1.4248  0.9798
 4351TIP3    H234613   0.430   4.714   7.083 -1.6470  0.0034  1.9137
 4352TIP3   OH234614   0.348   5.099   0.765 -0.1590 -0.6371  0.0010
 4352TIP3    H134615   0.341   5.175   0.708  0.8610 -0.8466 -0.4107
 4352TIP3    H234616   0.432   5.109   0.809 -0.0275 -1.5118 -0.0413
 4353TIP3   OH234617   2.850   3.076   8.122  0.2459 -0.0928  0.4801
 4353TIP3    H134618   2.845   3.163   8.084  1.1799 -0.8171 -1.4366
 4353TIP3    H234619   2.766   3.036   8.101  0.0493  0.1299  0.8314
 4354TIP3   OH234620   1.513   4.823   0.417 -0.5076  0.5268 -0.6474
 4354TIP3    H134621   1.585   4.776   0.459 -1.3206 -0.2620 -0.0910
 4354TIP3    H234622   1.470   4.757   0.362 -1.0666  0.8697 -0.6326
 4355TIP3   OH234623   1.137   4.036   6.902  0.2826 -0.2315  0.1235
 4355TIP3    H134624   1.055   4.083   6.891  0.1308 -0.6288 -0.4820
 4355TIP3    H234625   1.199   4.102   6.933  0.5693  0.8359 -2.4563
 4356TIP3   OH234626   0.197   4.670   1.933 -0.7786 -0.0219 -0.2609
 4356TIP3    H134627   0.264   4.607   1.909  1.0833  0.8584  2.1579
 4356TIP3    H234628   0.140   4.677   1.856  0.3296 -2.7938 -1.4230
 4357TIP3   OH234629   4.168   3.543   0.145 -0.5298 -0.2895  0.1645
 4357TIP3    H134630   4.215   3.604   0.203  0.1605 -0.0957 -0.5797
 4357TIP3    H234631   4.200   3.456   0.170  0.7865 -0.1155 -0.7896
 4358TIP3   OH234632   4.603   4.704   7.361 -0.2047 -0.0369  0.1579
 4358TIP3    H134633   4.692   4.669   7.364  0.6629  1.8693 -1.3866
 4358TIP3    H234634   4.610   4.792   7.399 -1.4797  0.0809  0.1649
 4359TIP3   OH234635   3.981   4.524   1.304 -0.1980 -0.5025 -0.2560
 4359TIP3    H134636   3.959   4.475   1.384 -1.7573 -0.6686 -0.7572
 4359TIP3    H234637   4.056   4.578   1.330 -2.1304  1.3022  2.1125
 4360TIP3   OH234638   6.728   4.471   8.311 -0.4239 -0.4032 -0.7994
 4360TIP3    H134639   6.657   4.423   8.268 -1.0961  0.1426 -0.3236
 4360TIP3    H234640   6.698   4.562   8.312  0.2598 -0.1775 -0.5354
 4361TIP3   OH234641   3.553   0.869   7.706  0.3660  0.4337  0.2714
 4361TIP3    H134642   3.646   0.847   7.703  0.0886 -0.7537  0.0287
 4361TIP3    H234643   3.531   0.895   7.617  0.5271  1.0527  0.4029
 4362TIP3   OH234644   5.834   2.743   6.773  0.2720  0.2458 -0.3397
 4362TIP3    H134645   5.847   2.812   6.838 -2.0440 -0.0316  0.5149
 4362TIP3    H234646   5.758   2.772   6.722 -0.5325 -1.4946 -0.1803
 4363TIP3   OH234647   2.103   6.460   0.756 -0.3927 -0.1223 -0.5767
 4363TIP3    H134648   2.032   6.459   0.692 -0.9947 -0.9347  0.0807
 4363TIP3    H234649   2.132   6.368   0.760  0.0500  0.0358 -0.1325
 4364TIP3   OH234650   6.302   5.060   8.206  0.0263 -0.1877  0.2948
 4364TIP3    H134651   6.326   5.153   8.211  0.5510 -0.3762  1.6745
 4364TIP3    H234652   6.234   5.048   8.272 -0.5912 -0.6434 -0.4028
 4365TIP3   OH234653   6.267   0.170   7.023 -0.1114 -0.1021 -0.1547
 4365TIP3    H134654   6.303   0.218   6.949 -1.1416 -0.2403 -0.7678
 4365TIP3    H234655   6.172   0.178   7.013 -0.2754  0.8309  1.7857
 4366TIP3   OH234656   1.050   2.262   0.465 -0.1746  0.0144  0.0485
 4366TIP3    H134657   0.994   2.197   0.508 -1.0222 -0.2467 -1.3865
 4366TIP3    H234658   1.005   2.282   0.383  0.5327  1.7454  0.0351
 4367TIP3   OH234659   4.605   3.391   6.097 -0.1613  0.1836 -0.1358
 4367TIP3    H134660   4.673   3.457   6.111  0.1595  0.2531 -1.8521
 4367TIP3    H234661   4.610   3.370   6.004 -1.3177 -1.1194  0.0602
 4368TIP3   OH234662   4.285   5.819   2.308 -0.2799 -0.0609 -0.0442
 4368TIP3    H134663   4.246   5.759   2.245 -1.0010 -0.7943  1.0771
 4368TIP3    H234664   4.318   5.763   2.378  0.5707  0.7369  0.2192
 4369TIP3   OH234665   3.090   1.243   7.964 -0.3626 -0.1672 -0.6545
 4369TIP3    H134666   3.159   1.287   8.014  0.6500  1.8703 -3.5372
 4369TIP3    H234667   3.136   1.201   7.892 -1.9511 -0.5781 -1.4788
 4370TIP3   OH234668   5.975   5.748   7.047  0.5861 -0.2343 -0.1688
 4370TIP3    H134669   5.957   5.655   7.058 -1.2579  0.0960 -0.0519
 4370TIP3    H234670   5.919   5.775   6.973  0.0800  1.0309  0.6383
 4371TIP3   OH234671   6.438   3.764   7.634  0.3122  0.3255 -0.0220
 4371TIP3    H134672   6.381   3.696   7.671  0.3698  0.2667 -0.0416
 4371TIP3    H234673   6.420   3.841   7.687 -0.1525  0.4431 -0.3427
 4372TIP3   OH234674   4.062   1.386   2.158  0.0058 -0.4019  0.0471
 4372TIP3    H134675   4.074   1.461   2.100 -1.7051  0.9306  1.3411
 4372TIP3    H234676   4.098   1.312   2.108 -0.5077  0.8277 -2.2866
 4373TIP3   OH234677   1.305   3.200   1.413  0.2090  0.2314  0.3925
 4373TIP3    H134678   1.257   3.270   1.369  0.8825  0.6115  0.2475
 4373TIP3    H234679   1.321   3.233   1.501 -0.2869 -0.1308  0.6244
 4374TIP3   OH234680   1.424   1.440   0.431  0.4165 -0.2478 -0.7460
 4374TIP3    H134681   1.492   1.459   0.366  0.2507  2.1195 -0.3233
 4374TIP3    H234682   1.458   1.477   0.513 -0.4825 -0.9052 -0.0506
 4375TIP3   OH234683   3.884   5.678   1.528  0.2603 -0.3138 -0.5305
 4375TIP3    H134684   3.961   5.630   1.560  0.5722 -0.5950 -1.6811
 4375TIP3    H234685   3.832   5.612   1.483 -0.5843 -0.0837  0.0827
 4376TIP3   OH234686   2.680   3.822   0.773 -0.0973 -0.0863  0.3688
 4376TIP3    H134687   2.643   3.761   0.709 -1.9790  0.5563  0.7858
 4376TIP3    H234688   2.769   3.840   0.741 -0.9001  0.0447 -1.9506
 4377TIP3   OH234689   5.294   2.658   1.204  0.0888 -0.2646 -0.1549
 4377TIP3    H134690   5.365   2.709   1.243  1.1113 -1.8398  0.1281
 4377TIP3    H234691   5.269   2.596   1.272 -0.7293 -0.5250 -0.6868
 4378TIP3   OH234692   6.040   5.014   0.111  0.4245  0.1308  0.2686
 4378TIP3    H134693   5.982   4.944   0.141  0.2849 -0.0204 -0.3292
 4378TIP3    H234694   6.107   5.021   0.179 -0.1135  0.0883  0.8123
 4379TIP3   OH234695   5.783   4.286   7.646 -0.5149 -0.6724  0.2459
 4379TIP3    H134696   5.824   4.370   7.668 -2.1061  0.0822  0.4029
 4379TIP3    H234697   5.821   4.263   7.561 -0.3012  0.3672  0.0462
 4380TIP3   OH234698   5.326   1.416   0.738  0.3540 -0.1797 -0.8272
 4380TIP3    H134699   5.331   1.407   0.833  0.8164 -0.2767 -0.8597
 4380TIP3    H234700   5.393   1.356   0.704  0.6516  0.3463 -1.1889
 4381TIP3   OH234701   3.584   0.894   0.151  0.2162  0.3429 -0.0526
 4381TIP3    H134702   3.560   0.916   0.241 -0.1248 -1.6739  0.3985
 4381TIP3    H234703   3.507   0.918   0.099 -0.3821 -0.3701  0.4959
 4382TIP3   OH234704   2.730   2.901   6.288 -0.8624 -0.1272  0.4545
 4382TIP3    H134705   2.669   2.880   6.217  0.5527 -0.1261 -0.7885
 4382TIP3    H234706   2.799   2.835   6.281  0.3933  1.1423  0.4598
 4383TIP3   OH234707   1.467   2.224   0.951 -0.2024  0.4525 -0.7947
 4383TIP3    H134708   1.382   2.245   0.912 -1.2051 -1.1130  0.4154
 4383TIP3    H234709   1.470   2.128   0.952  1.7096  0.4582 -1.0132
 4384TIP3   OH234710   4.113   4.024   6.718  0.5426 -0.0132 -0.2776
 4384TIP3    H134711   4.055   4.050   6.646  0.0448 -2.5094 -0.8853
 4384TIP3    H234712   4.196   4.067   6.698 -0.1282  0.8593 -1.3113
 4385TIP3   OH234713   4.726   1.820   0.604  0.4502 -0.2771  0.2130
 4385TIP3    H134714   4.799   1.867   0.645 -0.1466 -0.5995  1.7230
 4385TIP3    H234715   4.665   1.888   0.578  1.6812  0.0713 -1.9703
 4386TIP3   OH234716   1.453   4.757   2.190  0.1773  0.0564  0.3521
 4386TIP3    H134717   1.466   4.852   2.197  0.4909  0.0262  0.2052
 4386TIP3    H234718   1.539   4.720   2.211  0.1087 -0.1872  0.2034
 4387TIP3   OH234719   0.600   5.227   6.860  0.2756  0.8677  0.3375
 4387TIP3    H134720   0.654   5.297   6.824  0.1355  0.5414 -0.5377
 4387TIP3    H234721   0.662   5.164   6.896  0.5220  0.3431 -0.9429
 4388TIP3   OH234722   4.894   5.295   7.969  0.2874 -0.4113 -0.3195
 4388TIP3    H134723   4.843   5.375   7.960  1.2277  0.2707  0.1881
 4388TIP3    H234724   4.846   5.243   8.034 -0.5395 -0.4457 -0.9434
 4389TIP3   OH234725   2.645   2.647   1.634 -0.0698 -0.5809  0.3541
 4389TIP3    H134726   2.613   2.709   1.699 -2.4685 -1.7414  0.3723
 4389TIP3    H234727   2.720   2.605   1.677 -0.0654  0.4095  1.3657
 4390TIP3   OH234728   2.365   1.570   2.061  0.1122 -0.3504  0.3314
 4390TIP3    H134729   2.454   1.573   2.026  0.4319 -2.6439  0.8388
 4390TIP3    H234730   2.365   1.497   2.122 -2.4908 -1.3069 -0.6705
 4391TIP3   OH234731   3.999   2.730   2.615  0.3388  0.0635  0.5581
 4391TIP3    H134732   4.057   2.656   2.632  0.5320  0.0067 -0.2898
 4391TIP3    H234733   4.057   2.805   2.607  0.2883  0.0395 -0.1015
 4392TIP3   OH234734   2.536   2.007   1.152  0.0754 -0.9886  0.0419
 4392TIP3    H134735   2.440   2.008   1.159  0.1350 -2.2676  1.3375
 4392TIP3    H234736   2.566   1.956   1.227  1.7418 -1.3586 -0.8221
 4393TIP3   OH234737   4.167   3.722   8.181  0.8211  0.2537  0.7014
 4393TIP3    H134738   4.157   3.627   8.180  0.1902  0.3070 -0.8080
 4393TIP3    H234739   4.089   3.754   8.225 -0.3776  0.1709 -1.2761
 4394TIP3   OH234740   2.921   1.635   0.787 -0.0509 -0.0588 -0.1743
 4394TIP3    H134741   2.932   1.612   0.695  0.3027  2.0291 -0.7246
 4394TIP3    H234742   2.831   1.609   0.808 -1.1621  1.9586 -2.0056
 4395TIP3   OH234743   3.467   6.805   2.034 -0.3598 -0.8346 -0.2975
 4395TIP3    H134744   3.472   6.761   2.119 -1.3027  1.5419  1.1050
 4395TIP3    H234745   3.513   6.888   2.047  0.0842 -0.7011 -2.3633
 4396TIP3   OH234746   2.277   2.198   1.588 -0.5941 -0.3098  0.3782
 4396TIP3    H134747   2.287   2.238   1.502  1.5864  1.9198  1.5338
 4396TIP3    H234748   2.312   2.109   1.577  0.2898  0.1594 -0.9091
 4397TIP3   OH234749   1.123   3.320   1.958 -0.4536  0.3606  0.0138
 4397TIP3    H134750   1.071   3.392   1.994 -1.0238  0.7488 -1.4976
 4397TIP3    H234751   1.064   3.245   1.960  0.6480 -0.5691  3.0936
 4398TIP3   OH234752   4.817   5.969   1.171  0.6700 -0.1200  0.0753
 4398TIP3    H134753   4.737   6.000   1.128  1.4467 -0.1332 -1.4480
 4398TIP3    H234754   4.797   5.880   1.198  0.0920 -0.0522 -0.1249
 4399TIP3   OH234755   5.375   2.138   6.758  0.1529 -0.3382  0.2065
 4399TIP3    H134756   5.298   2.123   6.813  0.6235  0.9587  1.2685
 4399TIP3    H234757   5.370   2.069   6.691 -0.1876 -2.2637  2.1004
 4400TIP3   OH234758   6.866   5.727   6.871 -0.0130 -0.0680 -0.8031
 4400TIP3    H134759   6.891   5.649   6.822  0.2374 -0.6581  0.2357
 4400TIP3    H234760   6.883   5.800   6.811  2.5471 -0.5579 -0.8073
 4401TIP3   OH234761   0.023   6.588   1.809 -0.2120 -0.4379 -0.3588
 4401TIP3    H134762  -0.004   6.676   1.838 -1.0088 -1.0706  0.9004
 4401TIP3    H234763   0.053   6.601   1.719 -0.1324  1.1579 -0.1343
 4402TIP3   OH234764   2.935   1.449   8.442  0.1008 -0.2185  0.2653
 4402TIP3    H134765   3.024   1.444   8.409  1.0682  0.9398  2.5132
 4402TIP3    H234766   2.902   1.359   8.436  1.1499 -0.5463 -1.1786
 4403TIP3   OH234767   1.435   4.564   1.104 -0.1043 -0.2481  0.2240
 4403TIP3    H134768   1.491   4.618   1.049  0.2671 -1.5297 -0.7054
 4403TIP3    H234769   1.463   4.583   1.194  1.3865 -0.3601 -0.1857
 4404TIP3   OH234770   1.974   5.036   7.381  0.1094 -0.5201  0.4896
 4404TIP3    H134771   1.888   5.071   7.357  0.4766  1.0777  1.3591
 4404TIP3    H234772   1.970   4.943   7.356 -1.4777 -0.2351 -0.4533
 4405TIP3   OH234773   5.611   1.757   6.349  0.4313  0.5936  0.3482
 4405TIP3    H134774   5.585   1.819   6.281  1.3817  0.1787 -0.4067
 4405TIP3    H234775   5.687   1.797   6.390  1.7383 -0.5421 -0.8765
 4406TIP3   OH234776   4.637   3.161   0.177 -0.0241 -0.5948 -0.2267
 4406TIP3    H134777   4.607   3.127   0.262  0.6845  0.6146  0.5215
 4406TIP3    H234778   4.731   3.170   0.187 -0.0844  0.7095 -0.7170
 4407TIP3   OH234779   0.954   4.560   7.727 -0.2942 -0.2524  0.1489
 4407TIP3    H134780   0.915   4.635   7.683  0.7839  0.2139 -0.0420
 4407TIP3    H234781   0.944   4.488   7.665  0.0503  0.1011 -0.3248
 4408TIP3   OH234782   2.724   1.366   7.127  0.4009 -0.1031 -0.4744
 4408TIP3    H134783   2.709   1.461   7.135 -0.6175 -0.3644  1.2085
 4408TIP3    H234784   2.765   1.356   7.041  0.0782  1.8127 -0.9126
 4409TIP3   OH234785   0.154   0.176   1.320  1.1406 -0.1194  0.1058
 4409TIP3    H134786   0.108   0.154   1.239 -1.0617 -0.5082  1.3841
 4409TIP3    H234787   0.210   0.250   1.297 -1.4466  1.5781 -1.1919
 4410TIP3   OH234788   3.193   5.297   6.520 -0.0187 -0.0532  0.0231
 4410TIP3    H134789   3.126   5.298   6.452  2.9106  2.2764 -3.1460
 4410TIP3    H234790   3.239   5.214   6.506  3.0631  2.0159 -3.8600
 4411TIP3   OH234791   2.630   4.830   7.763 -0.1618  0.5327 -0.4145
 4411TIP3    H134792   2.592   4.755   7.808  1.2815  0.1612  0.2541
 4411TIP3    H234793   2.643   4.800   7.673  2.2354 -0.8055  0.2751
 4412TIP3   OH234794   1.333   1.243   6.912 -0.4049 -0.0294  0.4254
 4412TIP3    H134795   1.240   1.263   6.916 -0.4454  0.3700 -1.4804
 4412TIP3    H234796   1.359   1.266   6.823  1.2853 -1.1640  0.5687
 4413TIP3   OH234797   1.361   2.040   0.360 -0.1209 -0.3715 -0.3913
 4413TIP3    H134798   1.284   1.989   0.335 -0.0915 -0.2359 -0.7539
 4413TIP3    H234799   1.352   2.051   0.455  0.4002 -1.9426 -0.1311
 4414TIP3   OH234800   2.442   6.693   1.510  0.7380 -0.0781  0.3824
 4414TIP3    H134801   2.496   6.663   1.437  2.0054  1.5556  0.5970
 4414TIP3    H234802   2.487   6.663   1.588 -0.2887 -1.2821  0.5460
 4415TIP3   OH234803   2.811   0.796   7.653 -0.1042  0.4010 -0.0503
 4415TIP3    H134804   2.797   0.712   7.611  0.5152 -0.4005  1.2864
 4415TIP3    H234805   2.853   0.775   7.737 -2.7865  1.7546  1.7927
 4416TIP3   OH234806   3.712   4.991   2.283 -0.0752  0.4196 -0.1320
 4416TIP3    H134807   3.624   4.984   2.248  0.3196  0.3043 -1.1281
 4416TIP3    H234808   3.729   4.905   2.322  0.0820 -0.0271 -1.1418
 4417TIP3   OH234809   0.230   2.325   8.527  0.0192  0.2111 -0.3076
 4417TIP3    H134810   0.252   2.274   8.606 -2.9430 -1.6815 -0.5556
 4417TIP3    H234811   0.257   2.414   8.549  1.9991 -0.7508  1.6497
 4418TIP3   OH234812   3.033   3.656   6.890  0.2058  0.0850  0.0625
 4418TIP3    H134813   2.957   3.712   6.903  0.5338  0.3804  0.7644
 4418TIP3    H234814   3.037   3.643   6.795 -1.5576 -1.1330  0.1155
 4419TIP3   OH234815   4.756   2.885   1.300  0.1124 -0.2461 -0.1822
 4419TIP3    H134816   4.842   2.847   1.281 -0.3570 -0.8666 -1.1635
 4419TIP3    H234817   4.717   2.826   1.365  0.3174 -0.1185  0.0573
 4420TIP3   OH234818   5.446   0.422   8.489 -0.5111 -0.2463 -0.2819
 4420TIP3    H134819   5.413   0.503   8.529  0.4420  0.7751 -1.4799
 4420TIP3    H234820   5.367   0.373   8.465 -1.1787  1.2685 -1.3490
 4421TIP3   OH234821   5.299   1.034   0.139 -0.4475  0.1755  0.5872
 4421TIP3    H134822   5.242   0.964   0.108  0.8855 -0.6217 -0.1176
 4421TIP3    H234823   5.319   1.010   0.229 -0.9431  0.2953  0.7358
 4422TIP3   OH234824   3.709   5.316   1.072  0.3911  0.1389  0.0801
 4422TIP3    H134825   3.752   5.372   1.137  0.0685 -0.7716  1.0989
 4422TIP3    H234826   3.717   5.365   0.990  1.6830  0.8567  0.6015
 4423TIP3   OH234827   5.594   4.539   7.261 -0.1765 -1.1833 -0.4923
 4423TIP3    H134828   5.636   4.454   7.248  0.6877 -0.7817 -0.3507
 4423TIP3    H234829   5.633   4.596   7.195 -1.6269 -1.1773 -1.3922
 4424TIP3   OH234830   2.098   3.199   0.920  0.3832 -0.5401 -0.3928
 4424TIP3    H134831   2.180   3.230   0.881  0.2594  0.9933  0.4824
 4424TIP3    H234832   2.063   3.136   0.857 -0.4795  2.7068 -3.4443
 4425TIP3   OH234833   2.412   6.131   7.269  0.6829  0.4617  0.5430
 4425TIP3    H134834   2.507   6.144   7.265  0.7625 -0.3231 -0.3184
 4425TIP3    H234835   2.375   6.207   7.224  0.9768 -0.0667 -0.6175
 4426TIP3   OH234836   4.086   4.262   1.460  0.1106  0.1444 -0.3255
 4426TIP3    H134837   4.074   4.189   1.521  0.3923  1.5526  1.4926
 4426TIP3    H234838   4.137   4.327   1.509 -1.8973  2.4566 -1.0883
 4427TIP3   OH234839   1.617   5.997   8.364  0.8024  0.3560 -0.1258
 4427TIP3    H134840   1.569   6.068   8.407  1.5125 -0.0119  1.3507
 4427TIP3    H234841   1.701   6.036   8.340  1.2827  0.0047  0.8892
 4428TIP3   OH234842   1.015   6.703   7.728 -0.2539  0.2532  0.2930
 4428TIP3    H134843   1.053   6.709   7.816  3.4034 -1.3279 -0.9780
 4428TIP3    H234844   0.972   6.618   7.726 -0.6129  0.4234  0.6230
 4429TIP3   OH234845   1.174   1.284   0.462  0.1456  0.5065 -0.4520
 4429TIP3    H134846   1.085   1.317   0.475 -0.0725  0.2606 -1.2606
 4429TIP3    H234847   1.217   1.351   0.408 -0.0342 -0.0886 -1.3680
 4430TIP3   OH234848   6.808   2.957   8.327 -0.2641 -0.4411  0.1804
 4430TIP3    H134849   6.847   3.032   8.372 -1.3966  0.0538  0.3677
 4430TIP3    H234850   6.728   2.991   8.287  0.0414 -1.1724 -1.1416
 4431TIP3   OH234851   2.631   4.208   1.273  0.7906 -1.1447  0.0087
 4431TIP3    H134852   2.645   4.141   1.340 -0.1006 -1.7428 -0.3852
 4431TIP3    H234853   2.544   4.242   1.291 -0.2455 -2.6010 -1.9095
 4432TIP3   OH234854   1.901   0.459   7.677  0.3180 -0.2075  0.0229
 4432TIP3    H134855   1.913   0.552   7.698  0.5684  0.2857 -2.0433
 4432TIP3    H234856   1.892   0.416   7.762  1.3559  1.5373  1.0856
 4433TIP3   OH234857   6.224   1.979   1.279  0.0897 -0.1484 -0.3485
 4433TIP3    H134858   6.253   2.048   1.339 -2.1632 -0.6031  1.4286
 4433TIP3    H234859   6.304   1.935   1.253  1.2362  0.1147  2.3688
 4434TIP3   OH234860   1.500   4.625   7.758  0.2344 -0.0502  0.0021
 4434TIP3    H134861   1.463   4.698   7.809  1.4667  0.9596 -0.4992
 4434TIP3    H234862   1.582   4.605   7.802 -0.2518 -1.3852  0.3293
 4435TIP3   OH234863   1.910   2.474   8.095  0.1487  0.3448  0.0795
 4435TIP3    H134864   1.833   2.490   8.149  0.3461  1.1978  0.1321
 4435TIP3    H234865   1.883   2.502   8.007  0.7303  1.7530  0.3097
 4436TIP3   OH234866   2.414   5.006   7.903  0.1901 -0.0161  0.3889
 4436TIP3    H134867   2.349   4.939   7.922  0.5760 -0.4545  0.1926
 4436TIP3    H234868   2.466   4.969   7.831  1.2605 -0.0938  1.1868
 4437TIP3   OH234869   4.285   1.485   2.562  0.5744  0.2328  0.2883
 4437TIP3    H134870   4.313   1.533   2.484 -1.3125  0.4948 -0.2761
 4437TIP3    H234871   4.331   1.401   2.557 -0.4110 -0.2516 -1.7821
 4438TIP3   OH234872   1.495   2.019   0.130  0.7947 -0.4911 -0.0804
 4438TIP3    H134873   1.433   2.064   0.073  0.5672 -0.2568  0.3516
 4438TIP3    H234874   1.473   2.047   0.218  2.4996  0.8326 -0.0156
 4439TIP3   OH234875   4.108   1.492   7.512  0.2968  0.1229  0.3833
 4439TIP3    H134876   4.038   1.432   7.485  1.1643 -0.8968  0.3664
 4439TIP3    H234877   4.062   1.574   7.532 -0.7694 -0.1309 -0.8528
 4440TIP3   OH234878   3.659   5.693   0.336 -0.2544 -0.1777  0.0154
 4440TIP3    H134879   3.714   5.666   0.409  0.6045 -0.2359 -0.6398
 4440TIP3    H234880   3.649   5.615   0.282  1.2112  0.4418 -1.2309
 4441TIP3   OH234881   4.246   6.100   2.355  0.4255 -0.5073  1.0256
 4441TIP3    H134882   4.263   6.008   2.334  1.5682 -0.3892  1.4135
 4441TIP3    H234883   4.330   6.135   2.383  0.2558  0.9464 -0.1437
 4442TIP3   OH234884   3.745   1.871   0.933  0.5772 -0.3629  0.2608
 4442TIP3    H134885   3.791   1.953   0.917 -2.5278  1.5492  0.1621
 4442TIP3    H234886   3.758   1.853   1.026  2.5187 -0.6624 -0.0291
 4443TIP3   OH234887   5.844   0.061   8.558 -0.4405 -0.1202  0.2303
 4443TIP3    H134888   5.926   0.111   8.560  0.7501 -2.0067  0.6644
 4443TIP3    H234889   5.862  -0.016   8.612 -2.7445 -0.2651  0.8825
 4444TIP3   OH234890   4.671   4.369   8.104 -0.2550 -0.1019 -0.2289
 4444TIP3    H134891   4.605   4.301   8.087  0.0635 -0.1205 -1.5603
 4444TIP3    H234892   4.722   4.372   8.023 -1.4422  3.0750 -1.0065
 4445TIP3   OH234893   5.435   2.320   6.515 -0.0241 -0.1548 -0.0693
 4445TIP3    H134894   5.404   2.385   6.452 -1.6198 -0.0733  0.7452
 4445TIP3    H234895   5.493   2.370   6.574  0.2206  0.1055 -0.5222
 4446TIP3   OH234896   3.175   5.716   7.863  0.2624 -0.2667  0.1759
 4446TIP3    H134897   3.179   5.630   7.820  0.5055  0.0709 -0.5046
 4446TIP3    H234898   3.218   5.775   7.801  0.3650  0.2956  0.7716
 4447TIP3   OH234899   6.343   3.928   1.676 -0.0470 -0.1393  0.4781
 4447TIP3    H134900   6.302   3.986   1.740 -0.0948  0.3290  0.0318
 4447TIP3    H234901   6.283   3.929   1.601  0.4033 -0.0440  0.1132
 4448TIP3   OH234902   1.530   3.908   2.133  0.6946  0.2478 -0.4621
 4448TIP3    H134903   1.591   3.850   2.178  0.5090 -0.0925 -0.6441
 4448TIP3    H234904   1.560   3.996   2.154  0.7771  0.0918  0.0951
 4449TIP3   OH234905   2.160   2.630   0.940 -0.2829 -0.3125  0.0424
 4449TIP3    H134906   2.109   2.552   0.919  0.7920 -1.5290  1.6631
 4449TIP3    H234907   2.101   2.685   0.991 -1.2694  0.3023 -1.7007
 4450TIP3   OH234908   4.766   0.404   0.870 -0.3535 -0.1612  0.5124
 4450TIP3    H134909   4.678   0.372   0.890  0.0668 -1.0918  0.9857
 4450TIP3    H234910   4.821   0.326   0.878  0.3865  0.2208 -0.6633
 4451TIP3   OH234911   3.050   1.897   2.133  0.1969 -0.3994 -0.0089
 4451TIP3    H134912   3.145   1.900   2.119  0.0836  0.9561 -0.6133
 4451TIP3    H234913   3.024   1.809   2.104  1.0647 -0.2922 -1.1546
 4452TIP3   OH234914   3.079   0.854   7.172 -0.3205 -0.2981 -0.1973
 4452TIP3    H134915   3.022   0.825   7.244 -0.4182 -0.3794 -0.3056
 4452TIP3    H234916   3.029   0.922   7.128 -0.5707 -0.7551 -0.6271
 4453TIP3   OH234917   4.923   3.223   6.476  0.3327  0.0544  0.0436
 4453TIP3    H134918   5.018   3.210   6.484  0.2566 -1.6659 -1.3283
 4453TIP3    H234919   4.886   3.175   6.550  0.4735 -0.5291 -0.2588
 4454TIP3   OH234920   5.840   6.300   7.597 -0.4892  0.4938 -0.4425
 4454TIP3    H134921   5.915   6.285   7.654 -1.6045 -1.9980  0.5182
 4454TIP3    H234922   5.874   6.289   7.508  0.6668  1.4694 -0.1358
 4455TIP3   OH234923   0.814   1.504   7.549 -0.2739 -0.1081 -0.2445
 4455TIP3    H134924   0.817   1.600   7.556 -0.6494 -0.0110 -1.2745
 4455TIP3    H234925   0.905   1.478   7.538 -0.3787  0.4020 -2.8592
 4456TIP3   OH234926   5.978   6.674   6.671 -0.3603  0.0301 -0.4144
 4456TIP3    H134927   5.953   6.759   6.706 -3.2351 -0.1026 -1.8401
 4456TIP3    H234928   5.969   6.684   6.576  1.3858 -1.2883 -0.7697
 4457TIP3   OH234929   5.756   6.174   1.797  0.0745 -0.4552  1.0345
 4457TIP3    H134930   5.687   6.153   1.859  0.0617 -1.2727  0.7538
 4457TIP3    H234931   5.824   6.108   1.813 -0.3362 -1.2789 -0.4459
 4458TIP3   OH234932   0.902   4.918   7.981 -0.3820 -0.6886  0.2039
 4458TIP3    H134933   0.826   4.868   7.953 -0.5811 -0.3911  0.2076
 4458TIP3    H234934   0.974   4.855   7.979 -0.9789 -1.4914  2.1043
 4459TIP3   OH234935   4.306   5.083   8.128  0.0959  0.2774 -0.9756
 4459TIP3    H134936   4.234   5.125   8.176  0.1119  1.3212 -1.8181
 4459TIP3    H234937   4.302   4.991   8.155 -2.1323  0.1018 -1.6493
 4460TIP3   OH234938   2.210   3.103   7.112  0.2076  0.4407  0.7406
 4460TIP3    H134939   2.154   3.139   7.044  0.8977 -1.8982 -1.1784
 4460TIP3    H234940   2.299   3.117   7.080  0.5435 -0.6429  1.1545
 4461TIP3   OH234941   0.658   3.166   6.958  0.1955 -0.1819 -0.1163
 4461TIP3    H134942   0.567   3.136   6.964  0.3601 -1.3987 -2.4416
 4461TIP3    H234943   0.709   3.092   6.991  0.3896  0.6957  1.6784
 4462TIP3   OH234944   2.803   0.769   1.261  0.0594 -0.5346  0.9742
 4462TIP3    H134945   2.832   0.689   1.217  0.2875 -0.2257  0.5657
 4462TIP3    H234946   2.825   0.840   1.201 -1.4599 -0.2761  0.6834
 4463TIP3   OH234947   0.024   0.889   1.468  0.9361  0.0787 -0.5037
 4463TIP3    H134948  -0.002   0.806   1.508  1.5068  0.2093  0.1548
 4463TIP3    H234949  -0.005   0.881   1.377 -0.7292 -0.0537  0.0111
 4464TIP3   OH234950   4.218   6.666   8.228 -0.2379 -0.4235  0.0431
 4464TIP3    H134951   4.187   6.599   8.167  0.2827 -0.6204 -0.0051
 4464TIP3    H234952   4.313   6.664   8.220 -0.1245 -0.9589  1.4224
 4465TIP3   OH234953   4.410   3.871   1.394 -0.1644 -0.1929  0.3685
 4465TIP3    H134954   4.405   3.779   1.368 -0.2254  0.1148 -0.7892
 4465TIP3    H234955   4.498   3.898   1.366 -0.9346  0.6658 -1.3898
 4466TIP3   OH234956   4.305   3.598   0.562  0.2365 -0.3602 -0.1506
 4466TIP3    H134957   4.379   3.553   0.603  0.6869 -0.1579 -0.7230
 4466TIP3    H234958   4.271   3.657   0.629  0.7851 -0.2378  0.0202
 4467TIP3   OH234959   0.446   0.860   8.150  0.2338 -0.4629 -0.1091
 4467TIP3    H134960   0.352   0.877   8.146  0.3451 -0.0884 -1.8551
 4467TIP3    H234961   0.479   0.887   8.064  2.2615  1.3851  1.1580
 4468TIP3   OH234962   0.577   6.595   0.897 -0.1592 -0.2364  0.0885
 4468TIP3    H134963   0.617   6.682   0.902  1.1043 -0.5959 -2.2523
 4468TIP3    H234964   0.486   6.609   0.924 -0.3754  2.1349 -1.5188
 4469TIP3   OH234965   4.527   4.565   7.027  0.2789 -0.0994  0.1414
 4469TIP3    H134966   4.451   4.511   7.003 -0.4887  0.4388  1.2549
 4469TIP3    H234967   4.532   4.557   7.123  0.7875  0.9748  0.2149
 4470TIP3   OH234968   0.010   2.983   7.188 -0.3943  0.0729 -0.3572
 4470TIP3    H134969   0.076   2.914   7.191  1.0335  1.3312 -1.4491
 4470TIP3    H234970   0.060   3.064   7.183 -2.0379  1.1709  0.3831
 4471TIP3   OH234971   3.648   6.133   0.745 -0.1121 -0.4020  0.4522
 4471TIP3    H134972   3.591   6.060   0.767  1.7970 -1.4868  2.1732
 4471TIP3    H234973   3.670   6.173   0.830 -1.0203  2.1640 -0.4117
 4472TIP3   OH234974   5.429   3.474   0.926  0.7214  0.0059  0.8585
 4472TIP3    H134975   5.460   3.455   0.837 -0.5162 -0.9647  0.6100
 4472TIP3    H234976   5.401   3.565   0.924  0.6133 -0.0414  0.2333
 4473TIP3   OH234977   4.652   4.266   0.578  0.6425 -0.3120  0.6380
 4473TIP3    H134978   4.614   4.352   0.562  1.1747  0.0079  1.0256
 4473TIP3    H234979   4.603   4.232   0.653  1.2499  0.1934  1.2779
 4474TIP3   OH234980   4.071   0.856   8.058 -0.1629  0.2980  0.8245
 4474TIP3    H134981   4.039   0.778   8.103 -0.7917  0.3113  0.4218
 4474TIP3    H234982   4.080   0.829   7.966  0.1942  0.5298  0.7916
 4475TIP3   OH234983   5.952   5.984   8.418  0.5534 -0.3357  0.2432
 4475TIP3    H134984   5.975   6.035   8.496 -0.3235  1.4034 -0.5753
 4475TIP3    H234985   5.948   6.049   8.347  2.1138 -1.9772 -1.4582
 4476TIP3   OH234986   3.814   0.493   0.143  0.7929  0.3739  0.3143
 4476TIP3    H134987   3.808   0.577   0.098  1.3311  0.4439  0.3686
 4476TIP3    H234988   3.753   0.436   0.096  0.7057  0.6883  0.0455
 4477TIP3   OH234989   3.362   6.311   2.862  0.0633  0.0662 -0.2942
 4477TIP3    H134990   3.345   6.391   2.912  1.8806 -1.2816  2.8029
 4477TIP3    H234991   3.276   6.276   2.841 -0.8093  1.1813  1.2325
 4478TIP3   OH234992   0.859   6.823   1.876  0.0841  0.4396 -0.4152
 4478TIP3    H134993   0.823   6.805   1.962 -3.1852 -0.7556 -1.8596
 4478TIP3    H234994   0.952   6.842   1.892  0.0703 -1.5952  3.1025
 4479TIP3   OH234995   3.215   2.506   8.357  0.3780 -0.0101  0.2410
 4479TIP3    H134996   3.288   2.444   8.350  0.6495  0.3067  0.2121
 4479TIP3    H234997   3.256   2.587   8.387  0.0276  0.1554  0.2709
 4480TIP3   OH234998   1.286   6.746   2.389  0.2497 -0.0287  0.1251
 4480TIP3    H134999   1.253   6.772   2.475  0.9797 -0.3763  0.5237
 4480TIP3    H235000   1.381   6.745   2.400  0.2970 -2.2525 -0.0358
 4481TIP3   OH235001   2.879   2.364   8.211  0.0435  0.3536  0.0447
 4481TIP3    H135002   2.921   2.449   8.225  1.8420 -0.0982 -1.8730
 4481TIP3    H235003   2.800   2.366   8.264  0.0778  3.1823  0.1265
 4482TIP3   OH235004   0.242   6.812   1.410  0.1449  0.2036 -0.1255
 4482TIP3    H135005   0.300   6.830   1.484 -1.6302 -0.2692  1.4436
 4482TIP3    H235006   0.231   6.897   1.367 -1.3477  1.2611  2.1231
 4483TIP3   OH235007   0.359   6.777   8.366 -0.2288 -0.6243 -0.4002
 4483TIP3    H135008   0.401   6.740   8.444 -2.0497 -2.4760 -0.2118
 4483TIP3    H235009   0.269   6.745   8.370 -0.9585  1.0491 -2.1399
 4484TIP3   OH235010   6.248   1.755   7.286 -0.4883  0.5168  0.2013
 4484TIP3    H135011   6.262   1.688   7.219 -1.7793 -0.4382  0.8335
 4484TIP3    H235012   6.329   1.757   7.336  0.6186  1.4612 -1.5219
 4485TIP3   OH235013   3.490   5.398   6.329 -0.2219 -0.0213  0.4848
 4485TIP3    H135014   3.557   5.455   6.367 -1.6574  1.1430  1.3571
 4485TIP3    H235015   3.512   5.311   6.363  0.9991  0.2762  0.5186
 4486TIP3   OH235016   3.768   2.021   2.069  0.0731  0.0854  0.3186
 4486TIP3    H135017   3.769   2.087   2.138  0.3619 -1.6099  2.0207
 4486TIP3    H235018   3.683   1.978   2.079 -0.0720  0.1153 -0.7087
 4487TIP3   OH235019   2.558   4.089   1.719 -0.2182  0.3728  0.0226
 4487TIP3    H135020   2.544   4.003   1.759  0.2713 -0.3507 -1.2916
 4487TIP3    H235021   2.638   4.122   1.760  0.6609 -0.6576 -0.8145
 4488TIP3   OH235022   1.027   3.117   1.510 -0.2381 -0.0740  0.0339
 4488TIP3    H135023   0.979   3.141   1.589  0.3106 -0.6656  0.5611
 4488TIP3    H235024   1.111   3.086   1.542  0.1968  0.1856 -0.8246
 4489TIP3   OH235025   2.311   3.648   7.832 -0.6500 -0.0617  0.3999
 4489TIP3    H135026   2.363   3.695   7.767 -1.5669  0.4131 -0.0088
 4489TIP3    H235027   2.273   3.717   7.887  0.4570 -0.4690  1.7332
 4490TIP3   OH235028   4.773   0.587   0.593 -0.1095 -0.6800 -0.4846
 4490TIP3    H135029   4.783   0.526   0.667  0.8926 -0.1963 -0.1986
 4490TIP3    H235030   4.850   0.644   0.599 -1.8826  1.7872  0.3263
 4491TIP3   OH235031   5.875   3.674   0.919  0.1440 -0.1354  0.0306
 4491TIP3    H135032   5.902   3.653   0.830 -0.9064 -0.7396 -0.1671
 4491TIP3    H235033   5.814   3.747   0.908  0.2186 -0.0336  0.2833
 4492TIP3   OH235034   1.258   1.571   7.818  0.1299 -1.2559 -0.0465
 4492TIP3    H135035   1.275   1.545   7.908 -0.9162  0.1139  0.5863
 4492TIP3    H235036   1.344   1.573   7.776  0.8740  0.0233  1.4704
 4493TIP3   OH235037   6.205   3.146   6.509 -0.6666  0.2200 -0.1319
 4493TIP3    H135038   6.183   3.234   6.477 -1.9026  0.2639  0.7708
 4493TIP3    H235039   6.124   3.114   6.549 -0.3210 -1.4630 -0.6956
 4494TIP3   OH235040   5.968   5.396   7.848 -0.3362 -0.3671 -0.2005
 4494TIP3    H135041   6.048   5.357   7.813 -1.7798 -1.1801 -2.9681
 4494TIP3    H235042   5.993   5.485   7.872  1.3359 -0.4975 -1.2940
 4495TIP3   OH235043   1.088   0.392   8.504 -0.5377 -0.1539  0.0582
 4495TIP3    H135044   1.029   0.333   8.551 -2.1032 -1.1718 -2.9353
 4495TIP3    H235045   1.031   0.458   8.466  0.7901  1.2047  0.3236
 4496TIP3   OH235046   2.144   4.632   2.033  0.1525  0.0380  0.1493
 4496TIP3    H135047   2.237   4.645   2.051  0.1992 -0.1041  0.0198
 4496TIP3    H235048   2.099   4.678   2.103  0.3238 -0.1371  0.3755
 4497TIP3   OH235049   2.639   4.191   7.646  0.1055  0.1851  0.4711
 4497TIP3    H135050   2.612   4.270   7.694 -0.1183 -0.0395  0.7224
 4497TIP3    H235051   2.556   4.153   7.616  0.1103 -0.5918  1.3703
 4498TIP3   OH235052   2.692   1.621   0.323  0.0580  0.2177 -0.8222
 4498TIP3    H135053   2.700   1.701   0.270  0.3178  0.4047 -0.5052
 4498TIP3    H235054   2.746   1.557   0.277 -0.0844  0.2484 -1.0330
 4499TIP3   OH235055   6.378   5.575   8.459  0.3169  0.1139  0.1015
 4499TIP3    H135056   6.470   5.586   8.434  0.4306  1.0638  0.8962
 4499TIP3    H235057   6.382   5.540   8.548 -0.1022 -0.3968 -0.0751
 4500TIP3   OH235058   2.448   3.418   7.552  0.0225  0.1136  0.2043
 4500TIP3    H135059   2.541   3.405   7.572 -0.4422 -1.3339  1.6426
 4500TIP3    H235060   2.405   3.416   7.637 -1.5478 -1.1789 -0.5673
 4501TIP3   OH235061   0.583   6.681   2.031  0.3538  0.3097 -0.2487
 4501TIP3    H135062   0.653   6.730   2.075  0.0668  0.7578 -0.2865
 4501TIP3    H235063   0.585   6.595   2.071  0.2758  0.6297  0.4552
 4502TIP3   OH235064   5.006   0.793   7.582  0.7578  0.5077 -0.5504
 4502TIP3    H135065   5.015   0.735   7.658 -0.9422 -0.7679 -1.2662
 4502TIP3    H235066   5.074   0.762   7.521  0.5204 -0.0856 -0.5216
 4503TIP3   OH235067   0.705   4.454   7.835 -0.4400 -0.1803 -0.0532
 4503TIP3    H135068   0.735   4.364   7.851 -0.6269 -0.2934 -0.3297
 4503TIP3    H235069   0.745   4.478   7.751  0.3331  0.3183  0.4477
 4504TIP3   OH235070   4.052   1.579   6.860 -0.1533  0.7048 -1.0200
 4504TIP3    H135071   4.083   1.608   6.946 -1.7074 -1.1869  0.2863
 4504TIP3    H235072   3.962   1.549   6.876 -0.7420  0.9371 -3.4787
 4505TIP3   OH235073   5.211   5.180   1.495  0.1531 -0.2510  0.4045
 4505TIP3    H135074   5.304   5.187   1.514  0.4240 -0.7968 -0.6614
 4505TIP3    H235075   5.207   5.136   1.410 -0.9862  1.7786 -0.6792
 4506TIP3   OH235076   4.095   4.661   0.489 -0.8816  0.0672  0.3887
 4506TIP3    H135077   4.014   4.655   0.438 -0.1932  1.4412 -0.9443
 4506TIP3    H235078   4.072   4.626   0.575 -2.1965 -1.9970 -0.7147
 4507TIP3   OH235079   4.764   2.755   0.041  0.2526  0.0261 -0.3757
 4507TIP3    H135080   4.806   2.749  -0.045 -0.1853  0.9125 -0.6723
 4507TIP3    H235081   4.789   2.675   0.086  1.5309  0.1171 -0.8641
 4508TIP3   OH235082   4.244   1.555   2.283  0.3692  0.2605 -0.2726
 4508TIP3    H135083   4.211   1.617   2.218  0.5314 -1.4097 -2.0256
 4508TIP3    H235084   4.196   1.474   2.266  0.5180 -0.2864  1.6218
 4509TIP3   OH235085   4.579   3.661   1.774 -0.0411  0.0894 -0.9430
 4509TIP3    H135086   4.634   3.739   1.782  1.1066 -0.7488 -0.5043
 4509TIP3    H235087   4.612   3.616   1.697  1.3773 -1.5370  0.5392
 4510TIP3   OH235088   6.823   6.281   8.172 -0.0097 -0.1882 -0.6592
 4510TIP3    H135089   6.758   6.279   8.101 -0.4328  2.6482 -0.4733
 4510TIP3    H235090   6.771   6.286   8.252  0.4771 -2.8584 -0.0642
 4511TIP3   OH235091   2.224   1.911   6.458 -0.5298 -0.0164 -0.7579
 4511TIP3    H135092   2.167   1.857   6.403  0.0290 -0.9757 -0.4230
 4511TIP3    H235093   2.277   1.961   6.395 -0.0000 -0.9884 -1.1102
 4512TIP3   OH235094   1.687   6.547   1.660  0.3001 -0.0191  0.2147
 4512TIP3    H135095   1.683   6.535   1.755  0.3269  1.5729  0.4358
 4512TIP3    H235096   1.656   6.636   1.645  2.6590  0.6913 -1.0378
 4513TIP3   OH235097   4.622   0.466   2.431  0.4771  0.2477  0.0569
 4513TIP3    H135098   4.572   0.545   2.454 -0.9397 -0.1561 -1.4611
 4513TIP3    H235099   4.572   0.394   2.470  0.9977 -0.0320  0.2257
 4514TIP3   OH235100   3.587   3.464   1.851 -0.2637 -0.0621 -0.2721
 4514TIP3    H135101   3.662   3.408   1.870 -0.4904 -0.1074  0.5188
 4514TIP3    H235102   3.581   3.464   1.756 -0.1814 -1.2843 -0.2957
 4515TIP3   OH235103   5.664   4.969   0.262  0.1142  0.3554 -0.1653
 4515TIP3    H135104   5.592   4.962   0.325 -0.0355 -0.2114 -0.3901
 4515TIP3    H235105   5.695   5.059   0.270 -2.6936  1.6390 -2.3051
 4516TIP3   OH235106   6.343   2.357   7.024 -0.0840  0.4053 -0.6097
 4516TIP3    H135107   6.424   2.306   7.025  1.2937  2.4681 -0.4718
 4516TIP3    H235108   6.355   2.419   6.952 -1.5473  0.7631 -0.5733
 4517TIP3   OH235109   0.053   1.395   8.447 -0.5107  0.7093  0.3454
 4517TIP3    H135110   0.110   1.464   8.412  1.7714 -1.2813 -0.1127
 4517TIP3    H235111   0.017   1.352   8.369 -0.1424 -0.0000  0.5588
 4518TIP3   OH235112   0.291   6.688   1.079  0.1782  0.1113 -0.0619
 4518TIP3    H135113   0.335   6.709   1.161  0.1725  1.7381 -0.4316
 4518TIP3    H235114   0.257   6.599   1.091  2.4537 -0.7231  0.7022
 4519TIP3   OH235115   3.402   4.303   8.558  0.2258 -0.5707 -0.0715
 4519TIP3    H135116   3.328   4.268   8.608 -0.5695  0.1602 -0.7020
 4519TIP3    H235117   3.366   4.321   8.471  0.8506  0.8693 -0.0563
 4520TIP3   OH235118   2.424   5.171   0.773 -0.4185  0.0490  0.5887
 4520TIP3    H135119   2.344   5.141   0.815  0.1126  0.3390  1.8532
 4520TIP3    H235120   2.406   5.262   0.749 -0.6830 -0.0826  0.2788
 4521TIP3   OH235121   2.164   6.517   8.076  0.0732  0.1567  0.4806
 4521TIP3    H135122   2.141   6.504   7.983 -1.4367  0.4212  0.7968
 4521TIP3    H235123   2.146   6.609   8.093 -0.9256 -0.1878  1.3707
 4522TIP3   OH235124   0.861   4.944   6.384  0.2594 -0.1537 -0.1636
 4522TIP3    H135125   0.930   4.878   6.377  3.1037  2.6817 -1.4353
 4522TIP3    H235126   0.794   4.916   6.322  0.1656 -3.0029  1.0891
 4523TIP3   OH235127   4.993   0.603   6.408 -0.5867 -0.0957  0.0296
 4523TIP3    H135128   5.007   0.692   6.376 -0.4283  0.0217  0.4104
 4523TIP3    H235129   5.077   0.579   6.448  0.3764 -1.5068 -2.5760
 4524TIP3   OH235130   4.632   1.509   8.506  0.6434 -0.3417  0.1124
 4524TIP3    H135131   4.660   1.600   8.513  0.8417 -0.0818 -2.9399
 4524TIP3    H235132   4.713   1.460   8.494  0.4428 -0.7586  0.4280
 4525TIP3   OH235133   5.914   5.647   6.620  0.3455 -0.2095 -1.2409
 4525TIP3    H135134   5.823   5.621   6.602  1.0988 -2.1362 -2.6931
 4525TIP3    H235135   5.958   5.635   6.536  1.8072  1.4339 -0.7431
 4526TIP3   OH235136   5.242   3.699   7.106 -0.3951  0.2272  0.5563
 4526TIP3    H135137   5.184   3.751   7.051 -1.9273 -3.1907 -1.3658
 4526TIP3    H235138   5.322   3.689   7.055  0.5392  1.8380  1.6057
 4527TIP3   OH235139   6.160   4.249   0.304  0.2257 -0.4957  0.1874
 4527TIP3    H135140   6.077   4.250   0.257  0.3688 -0.6912 -0.0703
 4527TIP3    H235141   6.211   4.180   0.262 -0.0580 -1.4374  1.3186
 4528TIP3   OH235142   4.633   0.987   7.311 -0.1161  0.2242 -0.4090
 4528TIP3    H135143   4.684   0.908   7.331 -0.3203  0.7678  2.6390
 4528TIP3    H235144   4.699   1.056   7.302 -0.1490  0.6250  1.9796
 4529TIP3   OH235145   0.190   0.730   0.843 -0.1174  0.2190  0.0719
 4529TIP3    H135146   0.278   0.755   0.815  0.2485 -1.4637 -0.3701
 4529TIP3    H235147   0.201   0.695   0.931 -0.2254 -0.6225 -0.2400
 4530TIP3   OH235148   2.912   0.150   7.006 -0.3114 -0.0295 -0.1156
 4530TIP3    H135149   2.939   0.063   7.037  1.1041 -0.3109 -1.9729
 4530TIP3    H235150   2.852   0.131   6.933  0.1877  0.5375 -0.6778
 4531TIP3   OH235151   6.104   2.592   7.969  0.3594  0.3521 -0.5850
 4531TIP3    H135152   6.108   2.627   7.880  1.1008 -2.1467 -1.6434
 4531TIP3    H235153   6.097   2.497   7.957  0.7895 -0.0969  2.0282
 4532TIP3   OH235154   6.624   2.991   0.727 -0.1980 -0.0027 -0.0895
 4532TIP3    H135155   6.697   3.048   0.704 -0.0095  0.1992  0.9549
 4532TIP3    H235156   6.558   3.050   0.762 -0.6931 -0.2363 -0.6134
 4533TIP3   OH235157   0.352   3.294   1.397 -0.0747 -0.4705  0.2055
 4533TIP3    H135158   0.324   3.208   1.368 -1.2812 -0.0865  0.1984
 4533TIP3    H235159   0.308   3.355   1.338  1.9541  0.1265 -0.7757
 4534TIP3   OH235160   6.100   6.679   8.032 -0.0794  0.4286  0.1093
 4534TIP3    H135161   6.025   6.703   7.977 -0.2327  3.6712  1.4850
 4534TIP3    H235162   6.061   6.648   8.114  0.0832  0.7420  0.3063
 4535TIP3   OH235163   1.974   2.340   0.412  0.2262 -0.1104 -0.0268
 4535TIP3    H135164   1.984   2.265   0.471 -2.5276 -0.3763  0.1981
 4535TIP3    H235165   1.932   2.407   0.465 -2.9255 -0.5645 -1.7128
 4536TIP3   OH235166   4.127   0.393   7.551  0.0384 -0.2647  0.9468
 4536TIP3    H135167   4.088   0.359   7.631 -0.4382  1.0727  1.3052
 4536TIP3    H235168   4.062   0.454   7.517  1.1430  0.8021  0.6929
 4537TIP3   OH235169   3.005   0.287   1.424 -0.3120 -0.6227 -0.1965
 4537TIP3    H135170   3.065   0.219   1.392 -1.2870 -0.5525 -2.3341
 4537TIP3    H235171   2.928   0.239   1.453  0.5623 -0.6867  2.2671
 4538TIP3   OH235172   1.630   2.553   7.146  0.8951 -0.0809  0.5855
 4538TIP3    H135173   1.619   2.606   7.225 -1.3302  1.4981 -0.6652
 4538TIP3    H235174   1.659   2.616   7.079 -0.6533 -0.6450 -0.6584
 4539TIP3   OH235175   4.425   5.614   7.696  0.0230 -0.4672 -0.6014
 4539TIP3    H135176   4.501   5.616   7.638 -0.2605 -2.3905 -1.1036
 4539TIP3    H235177   4.360   5.560   7.649 -1.5704  0.8845 -0.0642
 4540TIP3   OH235178   6.086   2.561   6.546  0.0376 -0.3172 -0.1523
 4540TIP3    H135179   6.058   2.635   6.600  1.1272 -0.5611  0.7857
 4540TIP3    H235180   6.075   2.484   6.602 -0.7711 -0.8413 -1.0081
 4541TIP3   OH235181   5.785   1.752   0.267 -0.6808  0.4955 -0.7850
 4541TIP3    H135182   5.713   1.702   0.306  1.0379 -0.6275  1.2144
 4541TIP3    H235183   5.835   1.687   0.218  1.3580  0.1947  1.5100
 4542TIP3   OH235184   6.797   4.659   0.852  0.0655 -0.6070 -0.1797
 4542TIP3    H135185   6.740   4.607   0.796  0.8583 -0.3501 -1.2532
 4542TIP3    H235186   6.808   4.741   0.805 -0.1953  0.0759  0.9219
 4543TIP3   OH235187   0.248   1.940   8.290 -0.1500  0.3708 -0.2776
 4543TIP3    H135188   0.180   1.911   8.351 -2.2025  0.6602 -2.2884
 4543TIP3    H235189   0.330   1.920   8.334 -1.5183 -1.0472  1.7978
 4544TIP3   OH235190   1.725   5.989   6.828 -0.2387  0.0757 -0.2691
 4544TIP3    H135191   1.771   5.937   6.762 -0.0133 -0.5620  0.3751
 4544TIP3    H235192   1.648   5.935   6.851 -1.1386  0.9671 -1.0771
 4545TIP3   OH235193   0.139   1.824   7.803 -0.2126 -0.2895  0.0791
 4545TIP3    H135194   0.204   1.870   7.751  0.5846 -0.8640  0.5430
 4545TIP3    H235195   0.134   1.873   7.885 -0.7645  0.0604 -0.1565
 4546TIP3   OH235196   4.696   2.985   1.008  0.1655 -0.1621  0.1629
 4546TIP3    H135197   4.706   2.898   0.969  1.9253  0.1624 -0.2014
 4546TIP3    H235198   4.711   2.971   1.102  1.7159 -0.1034 -0.0469
 4547TIP3   OH235199   0.392   4.812   0.267  0.1789 -0.2220  0.4725
 4547TIP3    H135200   0.438   4.769   0.195  0.1280  0.9431 -0.2952
 4547TIP3    H235201   0.440   4.894   0.281 -0.7243  0.2911  0.7035
 4548TIP3   OH235202   5.659   6.068   1.047 -0.5346  0.0063  0.9016
 4548TIP3    H135203   5.715   5.991   1.054  0.1622  0.4143  0.0294
 4548TIP3    H235204   5.611   6.055   0.964  0.6613  1.1743 -0.0199
 4549TIP3   OH235205   1.437   3.631   6.571 -0.0918  0.3882 -0.0229
 4549TIP3    H135206   1.349   3.624   6.533 -0.4172  0.9680  0.5824
 4549TIP3    H235207   1.424   3.686   6.649  0.7231  0.0632  0.3505
 4550TIP3   OH235208   5.756   4.716   7.108 -0.0609 -0.6394 -0.2360
 4550TIP3    H135209   5.724   4.787   7.164 -1.6568 -1.7540  0.3217
 4550TIP3    H235210   5.800   4.762   7.036  1.3357  0.8419  1.4648
 4551TIP3   OH235211   4.668   0.568   6.884 -0.1999  0.1767 -0.0581
 4551TIP3    H135212   4.607   0.600   6.818  1.0899 -1.8507 -2.4129
 4551TIP3    H235213   4.742   0.629   6.880 -1.2602  1.6712  1.6190
 4552TIP3   OH235214   3.460   2.699   0.745 -0.3008  0.0295  0.1061
 4552TIP3    H135215   3.394   2.693   0.814  0.7178 -2.3332  1.0044
 4552TIP3    H235216   3.430   2.770   0.689 -3.8830 -1.2425  0.1665
 4553TIP3   OH235217   4.585   4.143   7.791  0.2719 -1.0706 -0.1981
 4553TIP3    H135218   4.664   4.107   7.751 -0.4641 -0.5062 -2.2878
 4553TIP3    H235219   4.513   4.092   7.753 -0.5354  0.1888 -0.4414
 4554TIP3   OH235220   4.587   2.062   7.020  0.0288  0.2742 -0.3319
 4554TIP3    H135221   4.636   2.140   6.993  1.9073 -1.1899 -1.4519
 4554TIP3    H235222   4.652   2.007   7.065 -1.6898  0.1096  2.1034
 4555TIP3   OH235223   4.244   1.434   0.760 -0.8457 -0.0235 -0.1466
 4555TIP3    H135224   4.245   1.393   0.674  0.8649  3.4334 -2.0113
 4555TIP3    H235225   4.239   1.528   0.741  2.1178  1.0838  3.3722
 4556TIP3   OH235226   4.956   4.868   0.629 -0.7759 -0.3323  0.1252
 4556TIP3    H135227   4.873   4.912   0.607 -1.6412 -2.1843 -0.5218
 4556TIP3    H235228   4.947   4.780   0.592  1.8682 -0.3256 -0.7126
 4557TIP3   OH235229   3.273   4.141   6.958 -0.0079  0.4872  0.1241
 4557TIP3    H135230   3.284   4.169   7.049 -0.1864  0.4003  0.1736
 4557TIP3    H235231   3.324   4.204   6.907  0.6487  0.1300  0.3370
 4558TIP3   OH235232   0.768   4.103   0.280 -0.2283  0.0506 -0.6455
 4558TIP3    H135233   0.709   4.041   0.239 -0.0249 -0.1706 -0.6045
 4558TIP3    H235234   0.853   4.084   0.241  0.3953 -1.5245  1.3222
 4559TIP3   OH235235   3.723   1.551   1.104 -0.2817 -0.5205 -0.1656
 4559TIP3    H135236   3.745   1.532   1.013 -0.1057 -0.4277 -0.1421
 4559TIP3    H235237   3.807   1.571   1.146 -0.5460  1.0611 -0.3591
 4560TIP3   OH235238   0.984   4.139   0.523 -0.1647  0.0416 -0.0586
 4560TIP3    H135239   1.036   4.189   0.461 -1.6042  0.6567 -0.8137
 4560TIP3    H235240   0.926   4.085   0.469 -0.0247 -0.9579  0.7523
 4561TIP3   OH235241   2.199   1.360   7.303  0.0568  0.8867 -0.0356
 4561TIP3    H135242   2.213   1.268   7.283 -3.1932  0.2354  0.2401
 4561TIP3    H235243   2.176   1.400   7.219 -1.2266  0.8253  0.2684
 4562TIP3   OH235244   3.327   5.643   6.617 -0.1170 -0.1839  0.1095
 4562TIP3    H135245   3.379   5.606   6.688  0.5600 -1.8349 -1.1564
 4562TIP3    H235246   3.359   5.732   6.607 -0.0187 -0.0254  1.6529
 4563TIP3   OH235247   5.073   4.360   0.206 -0.3315 -0.0891  0.2077
 4563TIP3    H135248   5.034   4.327   0.286 -1.2325  2.1788  0.7979
 4563TIP3    H235249   5.001   4.405   0.160  0.5573  0.2103 -0.9720
 4564TIP3   OH235250   3.098   3.009   6.704 -0.2711  0.5622 -0.0842
 4564TIP3    H135251   3.190   2.997   6.682 -0.2470  0.1214  0.2527
 4564TIP3    H235252   3.051   2.985   6.624 -0.1559 -0.5782  0.1701
 4565TIP3   OH235253   5.137   1.748   6.353  0.2695  0.1902  0.1706
 4565TIP3    H135254   5.207   1.710   6.407  1.0650  0.7280 -0.4577
 4565TIP3    H235255   5.094   1.673   6.312 -0.2004 -0.2099  1.3639
 4566TIP3   OH235256   3.263   3.705   2.585 -0.4449  0.4769  0.3641
 4566TIP3    H135257   3.220   3.624   2.560 -0.9426  1.1308 -0.9922
 4566TIP3    H235258   3.193   3.758   2.624 -0.4830  0.8547 -0.2073
 4567TIP3   OH235259   3.345   2.423   0.897 -0.1308 -0.3396 -0.1980
 4567TIP3    H135260   3.268   2.469   0.867  0.7380  0.3281 -1.4778
 4567TIP3    H235261   3.380   2.478   0.968  0.7441  0.8834 -1.5280
 4568TIP3   OH235262   0.508   4.566   7.205 -0.1325  0.5416  0.4815
 4568TIP3    H135263   0.474   4.634   7.263 -0.1266  0.2635  0.8126
 4568TIP3    H235264   0.589   4.537   7.247  0.1688  0.7288  0.0445
 4569TIP3   OH235265   4.719   4.636   6.716 -0.7932 -0.5437 -0.1461
 4569TIP3    H135266   4.685   4.651   6.628  0.1021 -0.0326 -0.4166
 4569TIP3    H235267   4.685   4.709   6.767 -0.4284 -0.2477 -0.3243
 4570TIP3   OH235268   4.874   2.475   0.217  0.1276  0.4766  0.3665
 4570TIP3    H135269   4.845   2.536   0.285 -0.3707  0.1785  0.4336
 4570TIP3    H235270   4.822   2.396   0.233  0.1331  0.3423 -0.2525
 4571TIP3   OH235271   6.562   5.280   7.486  0.0572 -0.2971 -0.1724
 4571TIP3    H135272   6.480   5.246   7.451 -0.3049  0.4754 -0.0968
 4571TIP3    H235273   6.596   5.337   7.417  0.3620 -0.3564 -0.0719
 4572TIP3   OH235274   6.196   1.748   1.011  0.2466  0.1779  0.0013
 4572TIP3    H135275   6.219   1.792   0.929  1.3989  3.2859  1.7901
 4572TIP3    H235276   6.277   1.745   1.060 -0.9776  1.5947  2.3029
 4573TIP3   OH235277   6.285   6.010   7.564  0.3439  0.3094  0.8710
 4573TIP3    H135278   6.320   5.993   7.652 -1.0258 -1.1881  1.1924
 4573TIP3    H235279   6.284   5.924   7.522 -0.8675  0.6617  0.1272
 4574TIP3   OH235280   1.253   0.066   1.193 -0.4715  0.0943 -0.1142
 4574TIP3    H135281   1.276   0.153   1.159 -0.0028 -0.3967 -1.0743
 4574TIP3    H235282   1.303   0.059   1.274  0.7848  0.0689 -0.8752
 4575TIP3   OH235283   2.649   1.946   0.924  0.2928 -0.6904 -0.6797
 4575TIP3    H135284   2.598   1.960   1.003  0.1738 -1.4800 -0.6069
 4575TIP3    H235285   2.727   1.899   0.954 -0.3447 -2.1425 -1.1713
 4576TIP3   OH235286   6.835   1.643   0.570 -0.2954 -0.1528 -0.6737
 4576TIP3    H135287   6.900   1.705   0.601 -2.3142  2.6208 -1.5870
 4576TIP3    H235288   6.881   1.590   0.505  1.5145  0.3688  0.1281
 4577TIP3   OH235289   4.679   2.436   6.327 -0.1927  0.1102  0.2700
 4577TIP3    H135290   4.663   2.342   6.335  0.4349 -0.3330 -2.5143
 4577TIP3    H235291   4.592   2.476   6.329 -0.5637 -0.6745  0.1691
 4578TIP3   OH235292   5.356   6.030   8.449  0.0003 -0.1779 -0.2988
 4578TIP3    H135293   5.384   5.973   8.377 -0.0504 -0.3152 -0.2099
 4578TIP3    H235294   5.282   6.079   8.413 -0.5633 -0.8443 -0.0827
 4579TIP3   OH235295   0.431   1.037   0.605 -0.0962  0.3358 -0.1928
 4579TIP3    H135296   0.459   0.962   0.553 -0.0485  0.3938 -0.2513
 4579TIP3    H235297   0.476   1.112   0.565  1.2620  0.1624  0.9542
 4580TIP3   OH235298   3.744   2.920   0.808 -0.0832 -0.2752 -0.6928
 4580TIP3    H135299   3.688   2.867   0.751 -1.8071  0.8712 -0.1807
 4580TIP3    H235300   3.713   2.900   0.896 -0.5268  1.2324 -0.4691
 4581TIP3   OH235301   3.476   2.410   8.407 -0.5028  0.3937  0.2453
 4581TIP3    H135302   3.487   2.390   8.500  2.4642 -0.8376 -0.2427
 4581TIP3    H235303   3.467   2.325   8.365 -0.5894  0.8621 -0.7184
 4582TIP3   OH235304   2.288   3.225   0.451  0.5364  0.3704  0.1174
 4582TIP3    H135305   2.331   3.149   0.489 -0.6400 -0.2870  0.1728
 4582TIP3    H235306   2.224   3.252   0.516  0.0671  0.6163 -0.4351
 4583TIP3   OH235307   0.023   2.869   2.329 -0.6340 -0.3218  0.4758
 4583TIP3    H135308  -0.035   2.936   2.365 -1.2139 -0.6712  0.2173
 4583TIP3    H235309  -0.032   2.790   2.322 -0.5057 -0.3236 -0.9660
 4584TIP3   OH235310   2.174   2.970   0.712 -0.1702  0.0623 -0.2099
 4584TIP3    H135311   2.091   2.922   0.706 -0.2309  0.2323 -0.8588
 4584TIP3    H235312   2.226   2.937   0.639  0.7269 -0.7496  0.7800
 4585TIP3   OH235313   2.035   1.003   1.658 -0.0129 -0.4288 -0.4232
 4585TIP3    H135314   1.980   0.958   1.722 -2.6879  0.8704 -1.6099
 4585TIP3    H235315   2.058   1.086   1.700  1.1866 -1.0063  0.1045
 4586TIP3   OH235316   5.814   5.473   1.125  0.0371  0.2750 -0.6512
 4586TIP3    H135317   5.721   5.450   1.119 -0.1847  0.5667  1.1501
 4586TIP3    H235318   5.851   5.446   1.041 -1.4989 -0.6553 -1.0646
 4587TIP3   OH235319   5.827   0.037   6.622  0.0708  0.1798  0.1003
 4587TIP3    H135320   5.846   0.127   6.595 -1.1871  0.0492 -1.3582
 4587TIP3    H235321   5.734   0.038   6.644  0.2133 -0.6095  0.7892
 4588TIP3   OH235322   0.126   5.056   1.445  0.1726  0.3194 -0.0544
 4588TIP3    H135323   0.169   4.988   1.393  1.6080  1.5446 -0.5304
 4588TIP3    H235324   0.174   5.136   1.424 -0.3431  1.1707  1.8422
 4589TIP3   OH235325   3.743   4.913   7.658 -0.5574 -0.3243 -0.6036
 4589TIP3    H135326   3.767   4.996   7.616  0.7963 -0.5191 -0.2756
 4589TIP3    H235327   3.807   4.903   7.728 -0.8389 -1.5473 -0.5058
 4590TIP3   OH235328   3.151   1.117   0.988 -0.2545 -0.8979 -1.1770
 4590TIP3    H135329   3.204   1.144   0.913  2.0102  0.5020  0.7934
 4590TIP3    H235330   3.091   1.190   1.004 -0.3345 -0.9467 -1.2501
 4591TIP3   OH235331   6.550   3.348   7.585  0.2877 -0.4789 -0.7727
 4591TIP3    H135332   6.627   3.305   7.547  0.4030 -1.5087  0.5612
 4591TIP3    H235333   6.581   3.384   7.668 -0.2691  0.6411 -1.0200
 4592TIP3   OH235334   3.672   4.969   6.166 -0.2274  0.1116 -0.1996
 4592TIP3    H135335   3.681   4.898   6.229 -1.7795  0.1907  0.1498
 4592TIP3    H235336   3.655   5.047   6.220  0.5142  0.5782 -0.6221
 4593TIP3   OH235337   6.089   3.606   1.941 -0.2222 -0.4454 -0.1481
 4593TIP3    H135338   6.119   3.696   1.927 -0.5069 -0.0028  1.7460
 4593TIP3    H235339   5.999   3.605   1.909  0.2676 -0.4932 -1.5700
 4594TIP3   OH235340   5.229   0.092   2.030  0.1061  0.3013  0.2796
 4594TIP3    H135341   5.314   0.052   2.049  0.1360  0.8464  1.4062
 4594TIP3    H235342   5.165   0.028   2.062  0.1208  0.4452  0.5988
 4595TIP3   OH235343   4.165   3.550   8.536  0.2648  0.4477 -0.6966
 4595TIP3    H135344   4.194   3.637   8.511  2.3822 -0.5850 -2.1772
 4595TIP3    H235345   4.170   3.549   8.632  1.0805  1.6943 -0.7083
 4596TIP3   OH235346   6.682   4.293   7.717  0.0340  0.4872 -0.6729
 4596TIP3    H135347   6.722   4.263   7.636  0.4798  1.5641 -0.8698
 4596TIP3    H235348   6.755   4.324   7.771 -0.2018 -0.6336  0.3495
 4597TIP3   OH235349   5.495   0.944   8.013  0.5756  0.2471  0.0460
 4597TIP3    H135350   5.403   0.930   8.037  0.9386  0.6716  1.8497
 4597TIP3    H235351   5.525   0.857   7.986 -0.6066  0.3121 -1.6616
 4598TIP3   OH235352   0.659   0.581   7.889  0.1702 -0.2354  0.1182
 4598TIP3    H135353   0.605   0.612   7.816 -0.1675 -0.4906  0.2522
 4598TIP3    H235354   0.748   0.582   7.856  0.1513  0.7123  0.0633
 4599TIP3   OH235355   1.343   6.708   0.170 -0.5234 -0.3411 -0.0185
 4599TIP3    H135356   1.269   6.657   0.137  0.4495 -0.1901 -2.7235
 4599TIP3    H235357   1.354   6.680   0.261 -2.5181 -1.9597 -0.2143
 4600TIP3   OH235358   3.222   4.517   7.956  0.1985 -0.2997 -0.1573
 4600TIP3    H135359   3.217   4.441   8.014 -1.8142  0.4013  0.6669
 4600TIP3    H235360   3.160   4.498   7.886  2.9174 -1.3342 -2.4615
 4601TIP3   OH235361   5.737   5.461   1.454  0.0524  0.1522 -0.6587
 4601TIP3    H135362   5.814   5.410   1.427  0.1330  0.0946 -0.3292
 4601TIP3    H235363   5.704   5.499   1.373  0.4612  0.2223 -0.7975
 4602TIP3   OH235364   3.421   1.984   8.610  0.2586 -0.1980  0.7341
 4602TIP3    H135365   3.403   2.070   8.571 -1.6284 -1.1789 -0.6684
 4602TIP3    H235366   3.477   1.941   8.546 -1.8483 -1.3541 -0.4253
 4603TIP3   OH235367   0.024   1.141   6.638  0.2974  0.5775  0.4239
 4603TIP3    H135368   0.061   1.229   6.626  2.3310 -0.3608 -0.9224
 4603TIP3    H235369   0.063   1.089   6.567 -4.1574 -0.4956 -1.6074
 4604TIP3   OH235370   1.074   5.904   0.826  0.5431  0.1398  0.2726
 4604TIP3    H135371   1.139   5.909   0.896  0.8379  0.0826  0.0099
 4604TIP3    H235372   1.100   5.975   0.766  1.1866 -0.7441 -0.5200
 4605TIP3   OH235373   4.912   4.368   7.635 -0.4359  0.3490  0.0831
 4605TIP3    H135374   4.993   4.335   7.674 -0.0329 -1.6394 -2.2140
 4605TIP3    H235375   4.938   4.448   7.590  0.3239 -0.3643 -0.7756
 4606TIP3   OH235376   3.706   4.146   7.228 -0.0760 -0.5417 -0.6571
 4606TIP3    H135377   3.726   4.154   7.134  1.5039 -0.3540 -0.3431
 4606TIP3    H235378   3.646   4.072   7.234 -1.1769  0.2158 -1.9290
 4607TIP3   OH235379   6.401   2.498   8.358  0.0858  0.6636  0.1525
 4607TIP3    H135380   6.496   2.493   8.343  0.0781  0.2980  0.2210
 4607TIP3    H235381   6.385   2.436   8.429  0.1603  2.4710  1.8488
 4608TIP3   OH235382   4.880   2.701   8.426 -0.1370 -0.4156  0.7368
 4608TIP3    H135383   4.972   2.706   8.401 -0.4774  1.2966 -0.3120
 4608TIP3    H235384   4.836   2.765   8.370 -2.0055 -1.3346  1.0786
 4609TIP3   OH235385   0.256   1.253   0.830 -0.8987  0.2737 -0.3882
 4609TIP3    H135386   0.307   1.259   0.910 -2.1176  0.9014  0.3616
 4609TIP3    H235387   0.320   1.268   0.760 -0.0459  0.9750  0.5124
 4610TIP3   OH235388   4.594   4.804   6.922  0.2863  0.2962 -0.3706
 4610TIP3    H135389   4.539   4.731   6.952 -0.8122  1.1120 -0.3513
 4610TIP3    H235390   4.612   4.854   7.002 -2.0265  2.0603 -0.8503
 4611TIP3   OH235391   6.461   1.361   1.402  1.0785  0.3538  0.2181
 4611TIP3    H135392   6.390   1.387   1.343  0.2714 -1.7774  0.1466
 4611TIP3    H235393   6.452   1.420   1.477  1.2367  2.1775 -1.1274
 4612TIP3   OH235394   6.318   4.291   7.164 -0.0430 -0.1949  0.1567
 4612TIP3    H135395   6.341   4.215   7.218 -0.2891  0.7339  1.5886
 4612TIP3    H235396   6.245   4.333   7.209  1.0885  1.7868  0.2619
 4613TIP3   OH235397   0.223   2.231   7.743 -0.0359  0.5480  0.0163
 4613TIP3    H135398   0.140   2.271   7.718 -0.5559 -1.9348 -2.8663
 4613TIP3    H235399   0.280   2.245   7.667  0.5344 -1.8632 -0.0852
 4614TIP3   OH235400   1.237   3.828   6.414 -0.1441  0.1565  0.0315
 4614TIP3    H135401   1.168   3.885   6.379  0.4958  0.2053 -1.2142
 4614TIP3    H235402   1.244   3.757   6.351  0.1763 -0.4572  0.7388
 4615TIP3   OH235403   1.653   1.328   8.205 -0.2746 -0.1398  0.0722
 4615TIP3    H135404   1.700   1.245   8.214  1.6272  0.5410 -2.4755
 4615TIP3    H235405   1.563   1.302   8.188  0.2946 -1.7152 -0.7747
 4616TIP3   OH235406   4.517   6.312   0.893 -0.5221 -0.2201 -0.2479
 4616TIP3    H135407   4.576   6.388   0.891  0.5348 -0.9107  1.6665
 4616TIP3    H235408   4.434   6.345   0.860 -0.0580  1.7394  0.4099
 4617TIP3   OH235409   2.918   3.856   7.246  0.4367  0.5707 -0.2440
 4617TIP3    H135410   2.870   3.864   7.329 -0.2456 -1.1898 -0.4335
 4617TIP3    H235411   2.997   3.807   7.269 -0.9815 -2.2927 -0.9894
 4618TIP3   OH235412   2.004   4.765   0.523 -0.9677 -0.2630 -0.5135
 4618TIP3    H135413   2.013   4.759   0.618 -0.3673  0.1077 -0.5443
 4618TIP3    H235414   2.022   4.857   0.503 -2.3282 -0.0508 -0.8592
 4619TIP3   OH235415   4.214   3.517   7.170  0.1231 -0.6842 -0.2162
 4619TIP3    H135416   4.186   3.455   7.237  0.0876 -1.1461 -0.6531
 4619TIP3    H235417   4.217   3.602   7.215 -1.9349 -0.6080 -0.1466
 4620TIP3   OH235418   5.861   2.357   6.978  0.5395 -0.9424  0.4228
 4620TIP3    H135419   5.798   2.313   7.035  0.4456 -0.7009  0.5028
 4620TIP3    H235420   5.941   2.364   7.031  0.0381  0.5167  1.0099
 4621TIP3   OH235421   4.299   2.454   1.627 -0.1390  0.7284  0.4232
 4621TIP3    H135422   4.270   2.404   1.703  0.5722  1.1247  0.9681
 4621TIP3    H235423   4.381   2.412   1.600  0.3389  1.4280  0.7389
 4622TIP3   OH235424   3.127   6.365   2.176  0.6545 -0.0911 -0.6508
 4622TIP3    H135425   3.147   6.289   2.230 -0.6075  0.7570  1.1257
 4622TIP3    H235426   3.206   6.418   2.179  0.0612  0.7884  1.9449
 4623TIP3   OH235427   6.015   3.303   0.557  0.4424 -0.0438  0.0851
 4623TIP3    H135428   5.923   3.294   0.530  0.2861  0.4845  0.4111
 4623TIP3    H235429   6.036   3.221   0.600 -0.7591  0.8298  2.5358
 4624TIP3   OH235430   1.810   6.419   6.813  0.2331  0.5554  0.0592
 4624TIP3    H135431   1.868   6.495   6.823  1.9751 -0.6665 -0.3230
 4624TIP3    H235432   1.771   6.430   6.727  0.0861  1.2668  0.2109
 4625TIP3   OH235433   0.460   2.498   7.411  0.6497 -0.3476 -0.0263
 4625TIP3    H135434   0.544   2.488   7.456  0.9378 -0.2513 -0.5339
 4625TIP3    H235435   0.430   2.409   7.395  1.8206 -0.4556 -1.9673
 4626TIP3   OH235436   1.571   0.689   1.388 -0.4438 -0.0397  0.1148
 4626TIP3    H135437   1.546   0.641   1.309 -0.6288  0.4325 -0.1196
 4626TIP3    H235438   1.506   0.662   1.453  0.3137 -1.2259  0.4245
 4627TIP3   OH235439   5.716   0.047   0.992  0.0344 -0.8460 -0.4970
 4627TIP3    H135440   5.759   0.124   1.030 -1.3700  0.0109 -0.5945
 4627TIP3    H235441   5.758  -0.027   1.036  1.0284 -0.0170  0.0017
 4628TIP3   OH235442   1.822   0.851   6.838  0.0906  0.0467 -0.3703
 4628TIP3    H135443   1.871   0.817   6.762  1.0546  3.3007 -1.3881
 4628TIP3    H235444   1.888   0.858   6.907  0.2554  1.0705 -0.6151
 4629TIP3   OH235445   1.712   0.880   2.029  0.8136 -0.3471  0.1641
 4629TIP3    H135446   1.659   0.957   2.009  1.4089  0.0968  0.2330
 4629TIP3    H235447   1.657   0.805   2.008  0.8215  0.1017 -1.5983
 4630TIP3   OH235448   0.507   5.491   0.743  0.1323 -0.4436 -0.6222
 4630TIP3    H135449   0.552   5.461   0.822 -2.2083 -1.2296  0.5294
 4630TIP3    H235450   0.538   5.580   0.730  0.3690 -0.1654  1.4244
 4631TIP3   OH235451   4.968   0.377   7.438  0.1165 -0.0240 -0.1607
 4631TIP3    H135452   4.910   0.434   7.389 -0.1085  1.5504  1.8243
 4631TIP3    H235453   4.954   0.290   7.400 -2.3138  0.5778 -0.7991
 4632TIP3   OH235454   4.566   4.673   6.462  0.6320  0.0460  0.0975
 4632TIP3    H135455   4.580   4.767   6.450 -0.4411  0.5595  2.3394
 4632TIP3    H235456   4.546   4.640   6.374 -1.6198  2.4394 -0.4143
 4633TIP3   OH235457   6.004   3.224   8.136  0.3744  0.1665 -0.0843
 4633TIP3    H135458   5.983   3.199   8.046  2.6792 -0.6209 -0.4734
 4633TIP3    H235459   5.931   3.191   8.188 -0.8461  0.3437 -1.6019
 4634TIP3   OH235460   1.688   4.080   2.266  0.1307  0.1706  0.2919
 4634TIP3    H135461   1.758   4.029   2.226  1.3262  0.6255  1.7109
 4634TIP3    H235462   1.720   4.170   2.263  0.0077  0.2858  1.7048
 4635TIP3   OH235463   0.411   0.807   0.430 -0.0154 -0.0015 -0.6030
 4635TIP3    H135464   0.408   0.751   0.508 -0.7078  0.5491 -0.2140
 4635TIP3    H235465   0.489   0.778   0.382  0.7602  0.0321  0.5888
 4636TIP3   OH235466   6.064   1.082   6.593 -0.9029  0.2090  0.5689
 4636TIP3    H135467   5.990   1.022   6.580 -1.3441  1.0289 -1.0137
 4636TIP3    H235468   6.045   1.156   6.534  0.2805  1.2898  1.4813
 4637TIP3   OH235469   0.370   0.192   0.351  0.8213  0.1840 -0.2002
 4637TIP3    H135470   0.428   0.117   0.356  1.7267  0.6292 -2.6689
 4637TIP3    H235471   0.411   0.258   0.408  1.0818 -0.5071  0.4217
 4638TIP3   OH235472   5.449   3.996   1.909  0.2269  0.6274 -0.4904
 4638TIP3    H135473   5.410   4.052   1.841 -1.6001 -0.6550 -0.5876
 4638TIP3    H235474   5.423   4.037   1.991  1.0583  1.2947 -0.5533
 4639TIP3   OH235475   0.215   5.838   7.541  1.0910  0.2125 -0.1027
 4639TIP3    H135476   0.289   5.824   7.600 -0.6766 -0.1493  2.1968
 4639TIP3    H235477   0.229   5.925   7.504  1.1090  1.5461  2.8066
 4640TIP3   OH235478   4.303   6.593   6.713  0.0901  0.2960  0.3487
 4640TIP3    H135479   4.391   6.627   6.729  1.2263 -1.3683 -1.8428
 4640TIP3    H235480   4.288   6.609   6.620 -1.7156  0.0231  0.5646
 4641TIP3   OH235481   3.978   3.223   8.156 -0.3144 -0.2114  1.0075
 4641TIP3    H135482   3.947   3.134   8.137 -0.7852 -0.2417  1.8566
 4641TIP3    H235483   3.926   3.250   8.232 -0.2042  0.8067  0.7253
 4642TIP3   OH235484   1.828   1.506   8.114  0.7030 -0.3598 -0.2208
 4642TIP3    H135485   1.763   1.436   8.119  0.1923  0.2139  2.1034
 4642TIP3    H235486   1.896   1.481   8.176  0.7614  0.9213  0.2640
 4643TIP3   OH235487   5.622   1.545   8.094  0.2313  0.5010 -0.2861
 4643TIP3    H135488   5.623   1.617   8.032 -2.5641 -0.5144 -1.7317
 4643TIP3    H235489   5.611   1.586   8.180  1.0662  1.8418 -0.8114
 4644TIP3   OH235490   2.341   2.769   1.068 -0.0186 -0.3959  0.3116
 4644TIP3    H135491   2.269   2.733   1.016  2.5695 -0.6509 -3.4816
 4644TIP3    H235492   2.347   2.861   1.042  2.1739 -0.8498 -1.0285
 4645TIP3   OH235493   2.976   4.808   8.157  0.4493  0.2889  0.1278
 4645TIP3    H135494   2.890   4.815   8.199  1.2755 -0.6877  2.1215
 4645TIP3    H235495   2.956   4.785   8.066 -1.3889  0.3169  0.4721
 4646TIP3   OH235496   2.148   6.501   7.556  0.2285  0.4068 -0.1409
 4646TIP3    H135497   2.162   6.506   7.461  0.0032  1.3282 -0.1294
 4646TIP3    H235498   2.229   6.535   7.594  0.2638  0.1686  0.0016
 4647TIP3   OH235499   1.435   5.924   1.919  0.1390  0.2100 -0.1967
 4647TIP3    H135500   1.349   5.897   1.889 -0.4794  0.4027  1.3404
 4647TIP3    H235501   1.422   5.952   2.010  0.9624  4.2732 -1.1257
 4648TIP3   OH235502   3.984   1.537   0.662  0.1107  0.1296  0.4184
 4648TIP3    H135503   3.983   1.625   0.698  0.8700 -0.2143  1.2900
 4648TIP3    H235504   4.038   1.544   0.583  0.0295  0.4740  0.3923
 4649TIP3   OH235505   6.482   1.587   7.090 -0.1479  0.0567 -0.2253
 4649TIP3    H135506   6.511   1.529   7.160  0.1431  2.2938  1.6275
 4649TIP3    H235507   6.552   1.583   7.025  0.6187 -0.4565  0.6114
 4650TIP3   OH235508   4.261   1.414   1.938  0.0623 -0.2323 -0.7864
 4650TIP3    H135509   4.328   1.345   1.931  0.0971 -0.5423  1.8256
 4650TIP3    H235510   4.311   1.496   1.932  0.2397 -0.4048 -2.0287
 4651TIP3   OH235511   4.836   3.339   1.426  0.5545 -0.0634  0.1599
 4651TIP3    H135512   4.864   3.355   1.336  2.6605  1.3656  0.9997
 4651TIP3    H235513   4.789   3.256   1.422 -1.1081  0.8632 -2.5718
 4652TIP3   OH235514   3.272   2.873   2.242 -0.1635 -0.2264  0.0069
 4652TIP3    H135515   3.327   2.918   2.306  0.7555 -0.4988 -0.5772
 4652TIP3    H235516   3.262   2.784   2.277 -3.4872  0.7770  2.1142
 4653TIP3   OH235517   2.552   5.228   8.208  0.1956 -0.0822 -0.0387
 4653TIP3    H135518   2.506   5.286   8.147 -0.7647 -0.1042  0.6417
 4653TIP3    H235519   2.536   5.266   8.294 -0.9849 -1.6528  0.5010
 4654TIP3   OH235520   1.041   6.650   0.490  0.1521 -0.1043  0.5399
 4654TIP3    H135521   1.113   6.712   0.481  0.7775 -0.7605  0.9433
 4654TIP3    H235522   0.963   6.705   0.504  0.7072  0.5763  1.0076
 4655TIP3   OH235523   4.432   4.979   1.629  0.5511  0.3804  0.1795
 4655TIP3    H135524   4.424   4.902   1.572  0.8063 -0.9517  1.8659
 4655TIP3    H235525   4.357   4.973   1.688  0.5675  1.4568  0.3325
 4656TIP3   OH235526   3.504   5.648   8.228  0.3778  0.3326 -0.2919
 4656TIP3    H135527   3.455   5.660   8.309 -0.4997  1.4633 -0.9595
 4656TIP3    H235528   3.558   5.726   8.220 -0.2198  0.6661 -1.2309
 4657TIP3   OH235529   0.804   1.973   0.420 -0.1854 -1.0354 -0.1233
 4657TIP3    H135530   0.758   1.899   0.460 -2.5368  0.0178 -0.7231
 4657TIP3    H235531   0.802   2.041   0.487  2.6499 -1.6485  0.7214
 4658TIP3   OH235532   5.892   5.522   1.682  0.1597 -0.2198  0.0563
 4658TIP3    H135533   5.852   5.470   1.613  0.1911  0.3402 -0.3915
 4658TIP3    H235534   5.877   5.472   1.762 -0.3937 -0.5903 -0.2754
 4659TIP3   OH235535   0.751   1.015   7.565  0.3982 -0.1016 -0.2137
 4659TIP3    H135536   0.656   1.000   7.572  0.4947 -0.3242  0.7882
 4659TIP3    H235537   0.787   0.974   7.643  1.3845 -0.4641 -0.8476
 4660TIP3   OH235538   3.981   4.006   0.360  0.2836  0.2190  0.2338
 4660TIP3    H135539   4.053   4.064   0.335  2.3573 -1.6086  1.5697
 4660TIP3    H235540   3.967   3.950   0.284  0.8366  0.0603  0.2476
 4661TIP3   OH235541   1.630   0.687   6.483 -0.2688  0.2768 -0.3339
 4661TIP3    H135542   1.577   0.625   6.532  1.4309  0.0393  1.3313
 4661TIP3    H235543   1.591   0.772   6.502 -0.1737  0.0947  0.7539
 4662TIP3   OH235544   0.657   1.386   7.318  0.3753  0.7033 -0.8282
 4662TIP3    H135545   0.604   1.420   7.390  1.2208  0.2830  0.0258
 4662TIP3    H235546   0.676   1.296   7.344 -0.2368  0.1724 -2.1326
 4663TIP3   OH235547   1.020   1.368   0.688  0.1061  0.2585  0.0242
 4663TIP3    H135548   1.084   1.346   0.756  1.0425 -1.0361 -1.2137
 4663TIP3    H235549   0.962   1.292   0.683 -1.6590  1.4577  1.1995
 4664TIP3   OH235550   0.294   0.936   1.464  0.5408  0.4621 -0.1917
 4664TIP3    H135551   0.198   0.936   1.462  0.5152 -1.0104 -1.0989
 4664TIP3    H235552   0.317   0.998   1.533 -1.0926  0.0489  0.7821
 4665TIP3   OH235553   1.484   2.484   1.108  0.4854  0.2159 -0.8579
 4665TIP3    H135554   1.426   2.530   1.048 -1.3801 -0.3112  0.4323
 4665TIP3    H235555   1.519   2.411   1.058 -1.3558 -0.4551 -1.2187
 4666TIP3   OH235556   0.887   0.103   0.991 -0.6452  0.4552 -0.1364
 4666TIP3    H135557   0.965   0.069   0.948 -2.3385 -1.1163 -2.0909
 4666TIP3    H235558   0.922   0.162   1.059  2.1992  0.0293 -1.0990
 4667TIP3   OH235559   3.203   2.290   2.325 -0.0242 -0.3500  0.0662
 4667TIP3    H135560   3.113   2.282   2.293  0.3738 -0.0769 -1.1571
 4667TIP3    H235561   3.254   2.235   2.266  0.9892  1.5867 -0.9620
 4668TIP3   OH235562   6.530   2.063   1.073 -0.2483  0.0569 -0.3695
 4668TIP3    H135563   6.528   1.973   1.106 -1.2577 -0.3832 -1.5463
 4668TIP3    H235564   6.607   2.066   1.015  0.4618  0.3143  0.5495
 4669TIP3   OH235565   0.662   5.087   0.637 -0.5608  0.1884 -0.4819
 4669TIP3    H135566   0.655   5.059   0.546  0.8842 -1.6945 -0.0773
 4669TIP3    H235567   0.704   5.013   0.681  1.6365  2.2333  1.1062
 4670TIP3   OH235568   3.891   4.141   7.997 -0.4811 -0.0605  0.4369
 4670TIP3    H135569   3.845   4.179   7.922 -0.3961  0.4819  0.6592
 4670TIP3    H235570   3.976   4.184   7.999  0.3593 -1.5912 -0.4181
 4671TIP3   OH235571   4.442   4.132   0.733 -0.1541 -0.1191 -0.5705
 4671TIP3    H135572   4.405   4.177   0.809 -1.3773 -0.5998 -0.8634
 4671TIP3    H235573   4.401   4.175   0.658  0.4597 -0.1698 -0.9402
 4672TIP3   OH235574   3.387   3.666   8.448 -0.3986  0.1876 -0.1033
 4672TIP3    H135575   3.356   3.608   8.379  1.8596 -0.6222 -0.5197
 4672TIP3    H235576   3.336   3.746   8.437 -0.2942 -0.0222 -2.5404
 4673TIP3   OH235577   3.274   3.050   7.397 -0.2227  0.0357 -0.1938
 4673TIP3    H135578   3.348   3.007   7.354  1.1406  1.5075  0.5892
 4673TIP3    H235579   3.251   3.121   7.338  0.0487  0.5552  0.3181
 4674TIP3   OH235580   5.469   5.880   7.885  0.3700  0.2962  0.4842
 4674TIP3    H135581   5.407   5.851   7.818  0.5456 -0.1433  0.5051
 4674TIP3    H235582   5.510   5.799   7.916  1.0798  0.6018  0.3555
 4675TIP3   OH235583   2.911   6.025   8.100  0.0312  0.1360 -0.3999
 4675TIP3    H135584   2.949   5.982   8.177 -0.6125  0.6628  0.2235
 4675TIP3    H235585   2.925   6.118   8.115 -0.7048  0.2871 -0.5811
 4676TIP3   OH235586   5.576   1.485   6.610 -0.9423  0.6154  0.4312
 4676TIP3    H135587   5.597   1.422   6.541 -2.9720 -0.7582  0.9934
 4676TIP3    H235588   5.634   1.560   6.592 -1.4660  0.4051 -2.8377
 4677TIP3   OH235589   1.237   4.430   2.283 -0.3854 -0.0860 -0.0980
 4677TIP3    H135590   1.235   4.525   2.271  0.5589 -0.4110 -4.7859
 4677TIP3    H235591   1.325   4.404   2.257 -1.6154 -2.4294 -2.5041
 4678TIP3   OH235592   3.405   2.925   0.596  0.1924  0.3567  0.3414
 4678TIP3    H135593   3.416   3.001   0.539  2.6606  0.1880  0.4698
 4678TIP3    H235594   3.389   2.962   0.682  2.4894  0.8453  0.6212
 4679TIP3   OH235595   0.156   0.844   8.085 -0.3183 -0.5975  0.4495
 4679TIP3    H135596   0.164   0.766   8.031  0.6095  0.8084 -1.5674
 4679TIP3    H235597   0.169   0.917   8.024  0.2380  1.1034  2.4881
 4680TIP3   OH235598   5.134   1.726   7.454 -0.0343 -0.1355 -0.3367
 4680TIP3    H135599   5.202   1.658   7.459 -0.6778 -0.7133  1.0852
 4680TIP3    H235600   5.160   1.790   7.521 -0.4140  0.1063 -0.4185
 4681TIP3   OH235601   6.683   2.538   8.297  0.9001  0.3601 -0.3721
 4681TIP3    H135602   6.748   2.500   8.238  0.4555 -0.1457 -0.5435
 4681TIP3    H235603   6.675   2.474   8.368  0.2818  0.2153 -0.5657
 4682TIP3   OH235604   1.677   5.508   0.480  0.2266  0.7400  0.0082
 4682TIP3    H135605   1.621   5.546   0.413 -0.0778  0.2258 -0.0372
 4682TIP3    H235606   1.674   5.571   0.553 -1.0399  0.3604  0.3152
 4683TIP3   OH235607   1.434   0.194   7.227 -0.3979 -0.4154  0.1901
 4683TIP3    H135608   1.377   0.260   7.188  0.3000 -0.5637 -1.1632
 4683TIP3    H235609   1.488   0.243   7.289 -0.7869  0.0419  0.1719
 4684TIP3   OH235610   0.893   4.871   7.682  0.3434 -0.4227 -0.0547
 4684TIP3    H135611   0.986   4.876   7.704  0.6796 -2.8116 -0.6886
 4684TIP3    H235612   0.854   4.946   7.728  2.3385 -0.1888  1.4092
 4685TIP3   OH235613   0.796   1.397   6.311 -0.0251 -0.0834 -0.3597
 4685TIP3    H135614   0.835   1.483   6.299  0.4891 -0.3174 -0.3732
 4685TIP3    H235615   0.849   1.338   6.258 -1.3263 -0.1722 -1.6468
 4686TIP3   OH235616   0.140   4.155   1.920  0.2813 -0.2842 -0.2075
 4686TIP3    H135617   0.129   4.181   2.011  1.2629 -0.6196  0.0214
 4686TIP3    H235618   0.229   4.184   1.898 -0.6423  1.6557 -1.6967
 4687TIP3   OH235619   3.645   6.753   7.732 -0.1723 -0.1618  0.1937
 4687TIP3    H135620   3.703   6.678   7.720 -0.7508 -0.7285  0.8085
 4687TIP3    H235621   3.682   6.800   7.807 -0.1558 -0.1798  0.1968
 4688TIP3   OH235622   0.881   1.755   7.424 -0.5855  0.0068 -0.3768
 4688TIP3    H135623   0.911   1.837   7.386 -0.1557  0.3745  0.7184
 4688TIP3    H235624   0.948   1.691   7.400 -1.5206 -0.3491 -2.2836
 4689TIP3   OH235625   4.778   3.342   8.552  0.4267  0.0537 -0.0929
 4689TIP3    H135626   4.854   3.299   8.590  0.6317 -0.1126 -0.6843
 4689TIP3    H235627   4.705   3.284   8.572  0.5845 -0.1932 -0.2339
 4690TIP3   OH235628   6.820   2.477   1.710 -1.2322  0.9397 -0.9093
 4690TIP3    H135629   6.769   2.557   1.728 -0.8426  0.5831  2.6539
 4690TIP3    H235630   6.805   2.422   1.788  0.2966 -1.5213 -2.2389
 4691TIP3   OH235631   6.232   6.368   7.001 -0.3081  0.2719 -0.3217
 4691TIP3    H135632   6.183   6.329   6.928 -0.3952  0.9068 -0.6045
 4691TIP3    H235633   6.188   6.451   7.018  0.3311  0.5909 -0.2066
 4692TIP3   OH235634   4.015   5.963   2.495  0.0068 -0.0918  0.7775
 4692TIP3    H135635   4.001   5.878   2.452 -2.6559  0.5992  0.0636
 4692TIP3    H235636   4.110   5.973   2.499  0.3767 -2.5385 -0.2490
 4693TIP3   OH235637   0.323   1.229   8.589  0.6309  0.3806  0.6724
 4693TIP3    H135638   0.374   1.156   8.624  1.8086  1.3492  1.0435
 4693TIP3    H235639   0.258   1.187   8.532  1.8472 -0.9048  0.1545
 4694TIP3   OH235640   2.380   1.722   2.315  0.0082  0.4082 -0.5618
 4694TIP3    H135641   2.442   1.649   2.319 -0.5400 -0.0225  0.3804
 4694TIP3    H235642   2.431   1.798   2.345  0.1843  0.1290 -0.1428
 4695TIP3   OH235643   5.616   0.776   8.303  0.1323  0.0760  0.4767
 4695TIP3    H135644   5.558   0.715   8.256 -1.5325  1.9765 -0.0541
 4695TIP3    H235645   5.683   0.798   8.238  0.2174 -0.4596  0.3719
 4696TIP3   OH235646   2.248   0.872   0.974  0.3884  0.2976  0.0907
 4696TIP3    H135647   2.224   0.948   0.920  2.9338  2.1915  1.4444
 4696TIP3    H235648   2.173   0.812   0.965 -0.6266  1.8080 -3.0452
 4697TIP3   OH235649   5.324   5.564   1.471  0.6189  0.0218  0.3947
 4697TIP3    H135650   5.362   5.601   1.551 -1.2417  2.1526  0.4019
 4697TIP3    H235651   5.233   5.545   1.496  0.3970 -0.5900 -0.8414
 4698TIP3   OH235652   2.540   5.473   1.736 -0.2627  0.0491  0.1582
 4698TIP3    H135653   2.574   5.505   1.820  1.3893 -2.0330  0.3748
 4698TIP3    H235654   2.473   5.409   1.761 -0.0917 -0.2399 -0.1268
 4699TIP3   OH235655   1.767   2.804   1.540  0.3510  0.0612  0.3071
 4699TIP3    H135656   1.768   2.868   1.611  0.7529  3.0638 -2.1563
 4699TIP3    H235657   1.859   2.791   1.518  0.1959  0.1634 -0.4374
 4700TIP3   OH235658   4.457   0.170   7.942 -0.0091 -0.6508  0.3659
 4700TIP3    H135659   4.454   0.138   7.852 -3.9210 -1.0388  0.4398
 4700TIP3    H235660   4.461   0.090   7.995 -1.3367 -0.6542  0.4963
 4701TIP3   OH235661   0.364   3.713   0.745  0.1008  0.4925 -0.3161
 4701TIP3    H135662   0.280   3.691   0.706 -0.6564  0.1834  1.3901
 4701TIP3    H235663   0.358   3.807   0.764 -0.2938  0.2648  0.7515
 4702TIP3   OH235664   1.155   2.458   1.414  0.0758  0.5511 -0.2165
 4702TIP3    H135665   1.151   2.384   1.353  1.6005  0.1051  0.1617
 4702TIP3    H235666   1.172   2.417   1.499  1.3346  1.3287 -0.0631
 4703TIP3   OH235667   5.882   1.821   8.299  0.1549 -0.1448  0.3697
 4703TIP3    H135668   5.873   1.896   8.240 -1.7035 -0.7683 -0.2334
 4703TIP3    H235669   5.806   1.827   8.357  1.0578 -0.4817  1.6193
 4704TIP3   OH235670   1.961   0.416   7.937  0.0051  0.0676  0.4443
 4704TIP3    H135671   1.922   0.343   7.985  1.6110  0.5038  2.5765
 4704TIP3    H235672   1.938   0.493   7.989  1.1308  0.6628  0.0738
 4705TIP3   OH235673   1.584   3.432   0.235 -0.4452  0.2158  0.4212
 4705TIP3    H135674   1.675   3.446   0.258  0.2115 -0.5622 -1.5605
 4705TIP3    H235675   1.565   3.343   0.265 -0.5294  0.3383  0.7356
 4706TIP3   OH235676   0.056   1.220   8.183 -0.1384 -0.1676 -0.5369
 4706TIP3    H135677   0.050   1.130   8.216 -2.7189  0.6766  1.5867
 4706TIP3    H235678   0.150   1.240   8.185  0.4742 -2.6652 -0.7742
 4707TIP3   OH235679   2.020   3.886   7.279 -0.4250  0.4941  0.3625
 4707TIP3    H135680   1.988   3.824   7.213 -0.8629  0.8878  0.2069
 4707TIP3    H235681   2.095   3.928   7.236 -0.3695  0.3558  0.3213
 4708TIP3   OH235682   0.226   6.676   6.864  0.1487 -0.2949 -0.0063
 4708TIP3    H135683   0.217   6.654   6.771 -0.5564  0.0557 -0.0284
 4708TIP3    H235684   0.320   6.670   6.881  0.1582 -1.5824 -0.4275
 4709TIP3   OH235685   5.164   4.125   1.217  0.4291 -0.6438  0.0581
 4709TIP3    H135686   5.168   4.060   1.147 -1.3697 -2.6026  1.6668
 4709TIP3    H235687   5.242   4.107   1.270  0.4369 -0.8273 -0.0158
 4710TIP3   OH235688   1.102   6.671   8.014 -0.0111 -0.2912 -0.1363
 4710TIP3    H135689   1.051   6.616   8.074 -1.1658  0.0958 -0.7253
 4710TIP3    H235690   1.154   6.728   8.071 -0.7530 -0.2380  0.4998
 4711TIP3   OH235691   1.484   0.908   7.824  0.3278  0.3895  0.4569
 4711TIP3    H135692   1.510   0.893   7.733  1.4415  1.4486  0.5702
 4711TIP3    H235693   1.390   0.893   7.825 -0.1285  2.6061 -1.3995
 4712TIP3   OH235694   4.772   0.528   6.568  0.1365  0.5834  0.0549
 4712TIP3    H135695   4.855   0.519   6.520  0.0594  0.3353 -0.0342
 4712TIP3    H235696   4.795   0.575   6.648  0.2746  0.9669 -0.2073
 4713TIP3   OH235697   6.170   3.601   2.271 -0.2700  0.0309 -0.2226
 4713TIP3    H135698   6.145   3.591   2.363 -1.4045 -0.6062 -0.5806
 4713TIP3    H235699   6.091   3.581   2.223  0.5713 -0.5831 -1.3833
 4714TIP3   OH235700   1.142   5.021   2.203  0.2112 -0.4919  0.0093
 4714TIP3    H135701   1.140   5.102   2.255 -0.0310 -0.2664 -0.3450
 4714TIP3    H235702   1.215   5.033   2.142  1.5750 -1.4604  1.3981
 4715TIP3   OH235703   3.609   5.022   1.027 -0.1728 -0.2206 -0.0441
 4715TIP3    H135704   3.622   4.949   1.087  1.6145 -0.0615 -0.1800
 4715TIP3    H235705   3.683   5.081   1.046  1.5800 -1.0180 -3.5894
 4716TIP3   OH235706   4.872   2.052   8.321 -0.2578  0.1698 -0.0953
 4716TIP3    H135707   4.814   2.087   8.254  0.4151 -0.3829 -0.9923
 4716TIP3    H235708   4.953   2.033   8.275  0.0243 -0.7864  0.7491
 4717TIP3   OH235709   1.386   0.104   7.609  0.9264 -0.1149 -0.1733
 4717TIP3    H135710   1.320   0.081   7.544  0.7596  0.5747 -0.2544
 4717TIP3    H235711   1.445   0.028   7.611  0.4715 -0.4835 -0.5306
 4718TIP3   OH235712   4.386   2.682   7.171 -0.0345  0.3350 -0.1656
 4718TIP3    H135713   4.313   2.623   7.153  0.5399 -0.6237  0.5514
 4718TIP3    H235714   4.380   2.702   7.265 -0.5808  1.9461 -0.5001
 4719TIP3   OH235715   3.733   2.372   0.219  0.2044 -0.0881 -0.2856
 4719TIP3    H135716   3.786   2.427   0.277  0.1174  1.5635 -1.7152
 4719TIP3    H235717   3.644   2.407   0.227  0.1083 -0.1385 -1.0821
 4720TIP3   OH235718   1.398   2.353   2.390 -0.9576  0.1454  0.2274
 4720TIP3    H135719   1.380   2.421   2.456  1.4967  1.1354 -0.0033
 4720TIP3    H235720   1.348   2.277   2.420 -0.2302  0.6604  3.0897
 4721TIP3   OH235721   5.267   6.631   1.940  0.1312 -0.0536  0.0070
 4721TIP3    H135722   5.191   6.586   1.979  1.3555 -0.7620  1.7423
 4721TIP3    H235723   5.275   6.712   1.990  1.6900 -0.9409  1.2990
 4722TIP3   OH235724   6.270   5.440   1.588  0.0177 -0.2540  0.4285
 4722TIP3    H135725   6.343   5.462   1.530 -0.5522  0.4827 -0.0170
 4722TIP3    H235726   6.192   5.465   1.539 -0.5018 -0.2579  1.2448
 4723TIP3   OH235727   6.245   6.272   8.187  0.5296 -0.1637  0.5681
 4723TIP3    H135728   6.280   6.186   8.210 -1.0604 -0.2330  3.0265
 4723TIP3    H235729   6.305   6.334   8.228 -0.5874 -0.2362  2.4130
 4724TIP3   OH235730   1.175   0.055   0.004  0.0757 -0.0319 -1.2229
 4724TIP3    H135731   1.134   0.063   0.090  1.1074 -1.3383 -0.5638
 4724TIP3    H235732   1.113   0.004  -0.047  0.2673 -0.8774 -0.6407
 4725TIP3   OH235733   5.806   5.802   6.825  0.1836 -0.5042  0.6423
 4725TIP3    H135734   5.727   5.756   6.798  0.4576 -2.6932  3.1772
 4725TIP3    H235735   5.874   5.771   6.765 -0.2068 -1.3098  0.6041
 4726TIP3   OH235736   0.208   0.533   1.077  0.4237  0.4355  0.3060
 4726TIP3    H135737   0.205   0.547   1.171 -0.7198  0.2650  0.3161
 4726TIP3    H235738   0.118   0.509   1.054  1.1197 -1.6158 -0.5045
 4727TIP3   OH235739   5.881   0.124   1.278 -0.3157  0.4325  1.0322
 4727TIP3    H135740   5.957   0.122   1.219 -0.0598  0.9376  1.3306
 4727TIP3    H235741   5.916   0.099   1.364 -0.5840  0.2028  1.0764
 4728TIP3   OH235742   2.701   2.228   0.483 -0.0542  0.3368  0.2439
 4728TIP3    H135743   2.792   2.227   0.453  0.2643  1.0308  1.1330
 4728TIP3    H235744   2.690   2.145   0.529 -0.9906 -1.4396 -2.9153
 4729TIP3   OH235745   5.041   4.971   8.063  0.0612  0.0945  0.6967
 4729TIP3    H135746   5.096   4.907   8.107  1.4324  1.4897  1.0832
 4729TIP3    H235747   4.957   4.926   8.051  1.4721 -2.3983 -0.6512
 4730TIP3   OH235748   1.554   6.223   6.743  0.4124  0.7919  0.2225
 4730TIP3    H135749   1.596   6.263   6.667 -0.7782  0.2079 -0.7753
 4730TIP3    H235750   1.601   6.141   6.756 -0.5131  0.0423 -1.0179
 4731TIP3   OH235751   2.449   6.452   8.486 -0.6580  0.1508  0.7293
 4731TIP3    H135752   2.397   6.395   8.429 -1.4944  1.2318  0.3799
 4731TIP3    H235753   2.454   6.535   8.439 -2.4134  1.4941  2.6880
 4732TIP3   OH235754   1.565   3.671   8.228 -0.1021 -0.1848 -0.1758
 4732TIP3    H135755   1.488   3.692   8.282 -1.2189 -3.2409 -0.3719
 4732TIP3    H235756   1.559   3.732   8.154 -2.0465  0.0263  0.0970
 4733TIP3   OH235757   0.466   0.586   7.262 -0.1591  0.0575 -0.6400
 4733TIP3    H135758   0.437   0.537   7.338 -0.2864 -0.4823 -1.0297
 4733TIP3    H235759   0.560   0.568   7.256 -0.7192 -2.9361 -2.7137
 4734TIP3   OH235760   3.176   3.430   0.887  0.4701  0.1082  0.2009
 4734TIP3    H135761   3.251   3.384   0.848 -0.6868 -3.6312  1.9036
 4734TIP3    H235762   3.156   3.500   0.825  4.3765  0.3450 -1.0804
 4735TIP3   OH235763   3.094   4.131   2.095  0.0336  0.4060 -0.0635
 4735TIP3    H135764   3.154   4.061   2.069  1.2689  1.5491 -0.3732
 4735TIP3    H235765   3.014   4.085   2.122  0.3278 -1.0541 -1.5155
 4736TIP3   OH235766   2.060   4.548   8.075  0.6067  0.4200 -0.2489
 4736TIP3    H135767   2.073   4.625   8.129 -1.6414  0.7363 -0.0788
 4736TIP3    H235768   2.107   4.478   8.121 -0.0347  0.9892  1.3365
 4737TIP3   OH235769   4.510   5.178   0.313  0.2062 -0.0256 -0.3071
 4737TIP3    H135770   4.571   5.170   0.240 -1.1130 -2.0163 -1.2600
 4737TIP3    H235771   4.474   5.266   0.303  1.7848  0.6300 -0.5962
 4738TIP3   OH235772   2.371   1.362   1.091  0.5401  0.5206  0.0493
 4738TIP3    H135773   2.430   1.384   1.163  0.1651  0.3906  0.4038
 4738TIP3    H235774   2.283   1.372   1.128  0.2959 -2.8737  0.7106
 4739TIP3   OH235775   5.185   0.792   8.659  0.2096  0.4245  0.5176
 4739TIP3    H135776   5.129   0.717   8.679  0.5575 -0.2796 -1.0165
 4739TIP3    H235777   5.182   0.800   8.563  0.0920  2.4414  0.6377
 4740TIP3   OH235778   6.668   5.662   0.188 -0.0955  0.4883  0.4650
 4740TIP3    H135779   6.744   5.687   0.241  0.3581  0.1464 -0.0154
 4740TIP3    H235780   6.649   5.572   0.215 -0.5431  0.6878  0.8255
 4741TIP3   OH235781   4.712   6.147   0.047 -0.3199  0.0877  0.1083
 4741TIP3    H135782   4.715   6.076  -0.017 -1.8956  1.1810 -1.2654
 4741TIP3    H235783   4.652   6.116   0.115  0.5565 -0.6607  0.5669
 4742TIP3   OH235784   1.992   6.848   7.718  0.1002 -0.1479  0.4679
 4742TIP3    H135785   1.942   6.808   7.647 -0.2318 -2.3269  1.8286
 4742TIP3    H235786   1.990   6.942   7.699  0.7734 -0.6955 -2.8159
 4743TIP3   OH235787   3.657   4.631   0.786 -0.8815  0.4906  0.7139
 4743TIP3    H135788   3.742   4.671   0.806 -0.4221 -1.6056  3.5080
 4743TIP3    H235789   3.678   4.552   0.736 -1.1185 -0.2714  1.7940
 4744TIP3   OH235790   4.898   3.033   7.218 -0.0425  0.1089 -0.0318
 4744TIP3    H135791   4.876   3.037   7.125  0.6142  1.1001 -0.1617
 4744TIP3    H235792   4.939   2.947   7.229  0.2815  0.1583 -0.7643
 4745TIP3   OH235793   3.475   3.617   6.920  0.2911 -0.0462  0.4587
 4745TIP3    H135794   3.434   3.680   6.980  1.3937  0.7671  0.3812
 4745TIP3    H235795   3.565   3.648   6.910  0.3350 -0.5825 -1.0529
 4746TIP3   OH235796   3.561   5.610   6.803  0.2381  0.1138  0.0262
 4746TIP3    H135797   3.547   5.517   6.782 -1.6013  0.5568 -0.9243
 4746TIP3    H235798   3.651   5.627   6.774 -0.3032 -0.7356 -2.4090
 4747TIP3   OH235799   1.727   4.153   0.653 -0.4252 -0.1454 -1.0542
 4747TIP3    H135800   1.792   4.088   0.680  1.1868  0.3041 -3.5552
 4747TIP3    H235801   1.652   4.101   0.625  0.1006 -0.8443 -1.2011
 4748TIP3   OH235802   1.612   1.354   2.021  0.0520  0.1425 -0.0131
 4748TIP3    H135803   1.535   1.326   2.070 -0.7127  1.5148 -0.3844
 4748TIP3    H235804   1.673   1.280   2.027 -1.3430 -1.0246  0.1619
 4749TIP3   OH235805   3.534   2.590   8.199  0.0313  0.4344  0.4144
 4749TIP3    H135806   3.606   2.614   8.256  1.3751  0.9564 -1.3946
 4749TIP3    H235807   3.479   2.532   8.252  2.1869 -0.6206  1.6091
 4750TIP3   OH235808   4.972   4.357   0.961  0.1274  0.6681 -0.5832
 4750TIP3    H135809   4.946   4.428   0.901 -0.1626  1.1493  0.1024
 4750TIP3    H235810   5.037   4.397   1.018 -1.1774  0.8517  0.8327
 4751TIP3   OH235811   3.048   1.489   6.992 -0.0858  0.0306  0.5862
 4751TIP3    H135812   2.976   1.448   6.945 -0.1614  0.1754  0.5747
 4751TIP3    H235813   3.068   1.569   6.942 -0.8365  0.7147  1.3499
 4752TIP3   OH235814   2.915   3.882   6.551 -0.4329  0.3667  0.2909
 4752TIP3    H135815   2.942   3.792   6.567 -0.3845  0.8181  3.3956
 4752TIP3    H235816   2.983   3.918   6.494  0.0522 -1.2716 -0.2171
 4753TIP3   OH235817   5.443   5.567   8.164 -0.1141 -0.3010 -0.6065
 4753TIP3    H135818   5.534   5.544   8.184 -0.0261  1.2614  1.1381
 4753TIP3    H235819   5.390   5.504   8.213  0.1043  0.9054  1.2958
 4754TIP3   OH235820   0.816   0.122   7.549 -0.2440  0.3067 -0.1417
 4754TIP3    H135821   0.800   0.067   7.472 -2.3881 -0.6543  0.9007
 4754TIP3    H235822   0.904   0.100   7.577  1.0115  1.4204 -2.8521
 4755TIP3   OH235823   4.058   3.619   1.614 -0.3539  0.0947 -0.3163
 4755TIP3    H135824   4.089   3.681   1.680 -3.2332  1.8839 -0.4683
 4755TIP3    H235825   4.024   3.545   1.665  1.2933 -0.5333 -0.0561
 4756TIP3   OH235826   0.359   2.053   7.194  0.5061 -0.7446 -0.4560
 4756TIP3    H135827   0.450   2.037   7.217  0.9222 -1.3168 -2.3223
 4756TIP3    H235828   0.356   2.044   7.098 -1.1661  0.9326 -0.6323
 4757TIP3   OH235829   1.145   4.702   7.526  0.0658 -0.1862  0.7341
 4757TIP3    H135830   1.126   4.759   7.600  1.2355 -0.7055  1.4601
 4757TIP3    H235831   1.072   4.640   7.525 -1.0410  1.0803  0.1424
 4758TIP3   OH235832   5.826   6.857   7.958  0.5903 -0.3040  0.0250
 4758TIP3    H135833   5.814   6.762   7.956 -1.6510 -0.0582 -1.5337
 4758TIP3    H235834   5.802   6.882   8.048  0.0077 -1.0848  0.0958
 4759TIP3   OH235835   4.977   6.167   8.610  0.2697  0.2405 -0.1876
 4759TIP3    H135836   4.898   6.117   8.629  0.8480 -0.6360 -0.0125
 4759TIP3    H235837   4.947   6.239   8.555 -0.2758 -1.6859 -2.6048
 4760TIP3   OH235838   5.397   5.627   7.655  0.2689 -0.3368 -0.2374
 4760TIP3    H135839   5.320   5.573   7.637  0.6212 -0.4371 -1.5266
 4760TIP3    H235840   5.364   5.717   7.655 -0.0287 -0.4412  0.2796
 4761TIP3   OH235841   1.283   5.912   1.113 -0.4965 -0.4090  0.5119
 4761TIP3    H135842   1.236   5.835   1.144 -1.1229 -0.1584  0.1941
 4761TIP3    H235843   1.276   5.975   1.185  3.0982 -1.8243  2.3709
 4762TIP3   OH235844   0.033   5.129   0.734  0.0325 -0.8163  0.2587
 4762TIP3    H135845  -0.002   5.166   0.815  1.3675  1.4991 -0.1311
 4762TIP3    H235846   0.127   5.147   0.738 -0.1135  1.2198 -2.6272
 4763TIP3   OH235847   2.080   5.906   7.575  0.5035  0.1131 -0.1119
 4763TIP3    H135848   2.076   5.877   7.666  0.4310 -1.6615 -0.6554
 4763TIP3    H235849   2.154   5.966   7.572 -0.6477  1.7317  1.5003
 4764TIP3   OH235850   1.269   5.496   7.420 -0.8061 -0.5555  0.4466
 4764TIP3    H135851   1.287   5.444   7.498 -1.1229 -1.3869 -0.0233
 4764TIP3    H235852   1.174   5.490   7.410 -0.5229 -3.1299 -1.7882
 4765TIP3   OH235853   1.302   6.669   0.783 -0.0096  0.1116 -0.5679
 4765TIP3    H135854   1.378   6.633   0.828 -0.8962 -1.8211 -0.5055
 4765TIP3    H235855   1.239   6.687   0.853 -0.5278 -0.6962 -0.8113
 4766TIP3   OH235856   5.958   2.101   8.088 -0.4131  0.0711 -0.2801
 4766TIP3    H135857   5.943   2.164   8.159 -1.8943  0.0856 -0.5612
 4766TIP3    H235858   5.995   2.153   8.017 -0.3336  0.3553 -0.0321
 4767TIP3   OH235859   2.549   3.349   0.708 -0.4337  0.5247 -0.2653
 4767TIP3    H135860   2.569   3.394   0.790  1.7848  0.2855 -0.6296
 4767TIP3    H235861   2.518   3.419   0.650 -2.4117  0.6359  0.8286
 4768TIP3   OH235862   1.683   4.236   0.122 -0.6259 -0.4390  0.6996
 4768TIP3    H135863   1.740   4.252   0.198  0.6123  0.0504 -0.3072
 4768TIP3    H235864   1.630   4.316   0.115  0.0625 -0.0053  0.3724
 4769TIP3   OH235865   0.845   4.265   8.195 -0.1389 -0.4559 -0.0393
 4769TIP3    H135866   0.885   4.285   8.110  1.3561  4.5694  1.4938
 4769TIP3    H235867   0.919   4.245   8.252 -0.1954  2.7332  1.3838
 4770TIP3   OH235868   6.830   1.767   2.455 -1.1602 -0.4738 -0.0276
 4770TIP3    H135869   6.745   1.731   2.482 -1.1094 -0.6150 -0.0549
 4770TIP3    H235870   6.820   1.862   2.466 -1.8800 -0.3406 -1.5981
 4771TIP3   OH235871   3.647   1.981   6.960 -0.0515  0.3039 -0.0833
 4771TIP3    H135872   3.570   1.988   7.016 -0.7092 -0.1618 -0.9127
 4771TIP3    H235873   3.685   1.896   6.981  0.1743  0.4794  0.2338
 4772TIP3   OH235874   0.280   1.020   1.199 -0.0139 -0.5030  0.2320
 4772TIP3    H135875   0.306   0.986   1.285  0.7201 -0.0365  0.2052
 4772TIP3    H235876   0.303   0.951   1.137  2.6701  0.4574  0.0174
 4773TIP3   OH235877   6.368   5.619   8.016  0.1041  0.4116 -0.3156
 4773TIP3    H135878   6.383   5.681   8.087  0.2991 -0.1385  0.1285
 4773TIP3    H235879   6.421   5.652   7.944 -0.4478  1.2240 -0.3652
 4774TIP3   OH235880   2.389   2.439   8.594 -0.1370 -0.0605  0.1852
 4774TIP3    H135881   2.452   2.385   8.641 -0.4849 -1.8277 -1.2612
 4774TIP3    H235882   2.399   2.412   8.502 -1.5045  1.1603 -0.3525
 4775TIP3   OH235883   1.323   4.888   6.827  0.1156 -0.0224  0.0652
 4775TIP3    H135884   1.260   4.873   6.898 -1.5129  1.1136 -1.0805
 4775TIP3    H235885   1.342   4.982   6.831  2.1995 -0.4186  0.7078
 4776TIP3   OH235886   5.374   0.047   7.091  0.0418  0.4147 -0.4283
 4776TIP3    H135887   5.376   0.042   6.995  1.3203  4.8203 -0.8337
 4776TIP3    H235888   5.440  -0.016   7.119  0.1664 -0.4554 -2.4614
 4777TIP3   OH235889   0.195   1.057   7.900  0.3811 -0.0302  0.2490
 4777TIP3    H135890   0.198   1.011   7.816 -0.2514 -0.8320  0.6559
 4777TIP3    H235891   0.150   1.139   7.881  3.4311  1.5325 -0.9674
 4778TIP3   OH235892   3.414   5.615   2.262 -0.2632 -0.4834 -0.8476
 4778TIP3    H135893   3.450   5.686   2.210  1.2983 -1.1892 -0.7871
 4778TIP3    H235894   3.342   5.579   2.209  0.6157 -0.5150 -2.0402
 4779TIP3   OH235895   6.272   4.376   1.152  0.1438 -0.5354  0.2713
 4779TIP3    H135896   6.301   4.400   1.240 -1.6644 -0.6769  0.9377
 4779TIP3    H235897   6.230   4.290   1.163 -3.0065  0.8311 -0.0412
 4780TIP3   OH235898   2.188   0.785   8.608 -0.6881 -0.2543  0.0157
 4780TIP3    H135899   2.280   0.796   8.629 -0.5393 -1.5640  0.1495
 4780TIP3    H235900   2.143   0.852   8.659  0.1909  0.5073 -0.1819
 4781TIP3   OH235901   0.772   4.580   0.569  0.2782  0.2752  0.2736
 4781TIP3    H135902   0.850   4.585   0.514  0.7815  0.7238  1.0129
 4781TIP3    H235903   0.702   4.554   0.509  0.9516  0.0609 -0.4372
 4782TIP3   OH235904   1.018   6.821   8.484  0.0631  0.3415  0.4180
 4782TIP3    H135905   1.045   6.804   8.393 -0.2794  3.3101 -0.3492
 4782TIP3    H235906   0.968   6.743   8.509 -0.8625 -0.0907 -2.3956
 4783TIP3   OH235907   5.022   1.313   1.852  0.0818 -1.3278  0.3278
 4783TIP3    H135908   4.977   1.230   1.835 -1.1983 -0.8918  1.3343
 4783TIP3    H235909   4.952   1.372   1.883  0.8039  0.3726 -1.1179
 4784TIP3   OH235910   4.453   2.606   7.499 -0.1995  0.3802  0.2160
 4784TIP3    H135911   4.528   2.590   7.441  1.9932  0.6502  2.7975
 4784TIP3    H235912   4.446   2.526   7.551 -0.7461  0.9349  1.0138
 4785TIP3   OH235913   0.318   1.345   2.126 -0.2475  0.1121 -0.4787
 4785TIP3    H135914   0.349   1.262   2.089 -0.5821 -0.9187  1.4278
 4785TIP3    H235915   0.335   1.410   2.057  3.3122 -0.8752 -0.7217
 4786TIP3   OH235916   3.414   4.031   8.326  0.1233 -0.0025  0.2084
 4786TIP3    H135917   3.383   3.962   8.267  1.8028 -0.1325 -0.5715
 4786TIP3    H235918   3.480   3.988   8.380 -0.1857  0.5454  1.0394
 4787TIP3   OH235919   5.642   1.582   1.300  0.0936  0.0489 -0.0977
 4787TIP3    H135920   5.676   1.658   1.254  1.7659 -0.2884  0.5181
 4787TIP3    H235921   5.553   1.606   1.324  0.2223  1.3712 -0.8567
 4788TIP3   OH235922   0.009   1.277   0.031 -0.1437  0.3214 -0.0167
 4788TIP3    H135923   0.104   1.268   0.023 -0.3665 -1.5819 -1.1548
 4788TIP3    H235924  -0.017   1.317  -0.052 -0.4113  0.0476 -0.0650
 4789TIP3   OH235925   6.855   6.456   7.440 -0.3999 -0.6408 -0.3809
 4789TIP3    H135926   6.904   6.456   7.522  0.7510 -0.9542 -1.0484
 4789TIP3    H235927   6.774   6.503   7.460 -0.7938 -1.9455  1.3131
 4790TIP3   OH235928   5.198   6.594   2.321 -0.4415  0.1155 -0.2356
 4790TIP3    H135929   5.255   6.535   2.370 -0.6443  0.9046  0.9888
 4790TIP3    H235930   5.224   6.681   2.348  1.1943  0.7976 -3.4591
 4791TIP3   OH235931   0.867   3.086   8.652  0.0696  0.4343  0.3487
 4791TIP3    H135932   0.781   3.111   8.620  0.0524  0.6020  0.5200
 4791TIP3    H235933   0.923   3.161   8.631  0.2608  0.1588 -0.1229
 4792TIP3   OH235934   4.163   2.360   0.733 -0.0313  0.3742 -0.1912
 4792TIP3    H135935   4.102   2.336   0.663 -0.1001  0.5494 -0.1914
 4792TIP3    H235936   4.249   2.340   0.698  0.0672  2.0702 -0.9952
 4793TIP3   OH235937   2.439   1.554   1.746 -0.5407  0.2609 -0.0147
 4793TIP3    H135938   2.525   1.549   1.787 -0.0983  0.6285 -0.8542
 4793TIP3    H235939   2.401   1.468   1.759  0.4040 -0.2615 -0.5581
 4794TIP3   OH235940   3.342   5.034   5.683 -0.0988 -0.3528 -0.1133
 4794TIP3    H135941   3.369   5.059   5.595 -1.1693 -0.3614 -0.4623
 4794TIP3    H235942   3.267   5.091   5.702  0.4633  0.0423  1.0165
 4795TIP3   OH235943   5.550   5.574   1.304 -0.0272  0.3776  0.1513
 4795TIP3    H135944   5.468   5.577   1.353 -0.2957  1.8360 -0.3209
 4795TIP3    H235945   5.526   5.602   1.215  1.0869  1.6055  0.2018
 4796TIP3   OH235946   5.126   1.203   7.081  0.8861 -0.1711  0.1185
 4796TIP3    H135947   5.149   1.272   7.144  0.8590 -0.6296  0.6432
 4796TIP3    H235948   5.071   1.247   7.017 -1.3451 -0.2195  1.8757
 4797TIP3   OH235949   4.901   1.651   0.853 -0.1132  0.4290 -0.3521
 4797TIP3    H135950   4.832   1.715   0.868  0.8783  1.6499 -0.8541
 4797TIP3    H235951   4.941   1.676   0.770 -2.0694 -3.0692 -2.6162
 4798TIP3   OH235952   6.375   2.070   2.450 -0.0836  0.0452 -0.4170
 4798TIP3    H135953   6.336   2.156   2.436  0.0496 -0.1346 -2.0869
 4798TIP3    H235954   6.426   2.054   2.370 -0.5421 -1.8119 -0.3749
 4799TIP3   OH235955   4.522   2.278   1.569  0.2098 -0.2887 -0.0716
 4799TIP3    H135956   4.534   2.193   1.611  0.0815 -0.7814 -1.0141
 4799TIP3    H235957   4.589   2.334   1.610  1.5620 -1.3394 -0.7590
 4800TIP3   OH235958   5.684   4.672   0.550  0.2205 -0.4153 -0.3243
 4800TIP3    H135959   5.754   4.738   0.548 -0.2275  0.0709 -0.0805
 4800TIP3    H235960   5.620   4.702   0.486 -0.4388 -0.0957  0.4631
 4801TIP3   OH235961   5.140   0.364   8.473  0.8839 -0.4397 -0.3119
 4801TIP3    H135962   5.140   0.340   8.565  1.9669  0.1436 -0.1497
 4801TIP3    H235963   5.107   0.454   8.472  0.6201 -0.5369 -0.5229
 4802TIP3   OH235964   0.162   0.682   0.394  0.6235 -0.2585  0.1331
 4802TIP3    H135965   0.171   0.639   0.309 -1.3133  0.5673 -0.5284
 4802TIP3    H235966   0.241   0.736   0.402  1.9336 -2.0382 -0.0801
 4803TIP3   OH235967   4.925   3.788   0.832 -0.4485  0.1836  0.0413
 4803TIP3    H135968   5.000   3.745   0.789  0.7681  1.1311  1.1509
 4803TIP3    H235969   4.886   3.841   0.763  2.1982  2.6287  0.2384
 4804TIP3   OH235970   4.543   3.545   7.455  0.0439  0.3745  0.5015
 4804TIP3    H135971   4.453   3.532   7.485  0.2494  0.3440  1.1199
 4804TIP3    H235972   4.544   3.633   7.419  0.1223  0.9503  1.8578
 4805TIP3   OH235973   2.483   6.441   0.464 -0.0426  0.2016 -0.2377
 4805TIP3    H135974   2.411   6.459   0.404  0.3341  0.4002 -0.6319
 4805TIP3    H235975   2.500   6.347   0.454  0.8407  0.4528 -1.3845
 4806TIP3   OH235976   0.479   6.714   8.606 -0.1001  1.0728  0.2556
 4806TIP3    H135977   0.482   6.795   8.656  2.1759  1.2397 -0.0335
 4806TIP3    H235978   0.557   6.666   8.634 -1.6541 -1.3016  0.8263
 4807TIP3   OH235979   3.478   3.105   8.186  0.4237  0.2707 -0.0782
 4807TIP3    H135980   3.507   3.092   8.095 -2.0044 -0.7897 -0.7957
 4807TIP3    H235981   3.384   3.090   8.183  0.3963 -0.7221  2.8184
 4808TIP3   OH235982   0.398   5.281   7.064 -0.3867 -0.0446  0.2657
 4808TIP3    H135983   0.486   5.318   7.054  0.2169 -1.6299 -0.6939
 4808TIP3    H235984   0.375   5.298   7.155  2.8525 -3.5435  2.0191
 4809TIP3   OH235985   1.713   6.253   1.969  0.2421 -0.4053  0.2105
 4809TIP3    H135986   1.663   6.198   1.908 -0.6900  0.7243 -0.0727
 4809TIP3    H235987   1.781   6.194   2.003  0.6792 -1.1265 -1.7597
 4810TIP3   OH235988   3.157   1.170   7.635 -0.1870 -0.3698 -0.1648
 4810TIP3    H135989   3.221   1.214   7.579 -0.2542  0.9182  0.7210
 4810TIP3    H235990   3.170   1.077   7.618  0.5252 -0.0550 -1.5074
 4811TIP3   OH235991   0.934   5.123   8.507 -0.1921 -0.3332 -0.2096
 4811TIP3    H135992   0.900   5.208   8.534  0.6579 -0.1638  0.3445
 4811TIP3    H235993   1.029   5.136   8.501 -0.1115 -1.0978 -0.6454
 4812TIP3   OH235994   4.850   0.246   8.612 -0.2007  0.2016 -0.0456
 4812TIP3    H135995   4.917   0.295   8.659 -1.1964 -1.8613  4.0135
 4812TIP3    H235996   4.897   0.171   8.575  0.4865  1.4773 -1.8601
 4813TIP3   OH235997   5.077   4.763   2.462  0.1621  0.1309  0.2330
 4813TIP3    H135998   5.112   4.852   2.466  1.5024 -0.3486 -0.3879
 4813TIP3    H235999   5.137   4.716   2.405 -1.0905 -0.9356 -0.2634
 4814TIP3   OH236000   2.662   4.087   0.042 -0.7731 -0.3401  0.0589
 4814TIP3    H136001   2.726   4.050  -0.019  0.4847 -1.3511  1.8705
 4814TIP3    H236002   2.601   4.136  -0.013  0.5166 -0.8518 -1.9321
 4815TIP3   OH236003   0.971   6.145   8.569  0.3406  0.4992  0.3335
 4815TIP3    H136004   1.023   6.216   8.532 -0.3292  1.6167  1.4405
 4815TIP3    H236005   0.912   6.189   8.631 -0.9456 -0.8788  0.1441
 4816TIP3   OH236006   6.678   2.013   7.417  0.5904  0.6144  0.1403
 4816TIP3    H136007   6.649   2.097   7.380 -1.4665  0.1719  0.6218
 4816TIP3    H236008   6.640   1.947   7.360  1.7414 -0.0337  0.0851
 4817TIP3   OH236009   3.120   1.476   1.619  0.6502 -0.0153  0.2107
 4817TIP3    H136010   3.109   1.386   1.588 -0.3979 -0.5062  1.9215
 4817TIP3    H236011   3.036   1.519   1.601 -0.5488 -0.7279  3.5343
 4818TIP3   OH236012   3.886   3.967   1.336  0.2845  0.5664  0.3721
 4818TIP3    H136013   3.930   3.887   1.365 -2.3647 -0.4780  1.8533
 4818TIP3    H236014   3.932   3.992   1.255  0.8140 -2.8027 -0.4996
 4819TIP3   OH236015   4.800   1.671   1.240 -0.4763  0.4025 -0.4525
 4819TIP3    H136016   4.887   1.634   1.252 -0.6876 -0.2520 -0.8583
 4819TIP3    H236017   4.813   1.746   1.182  0.1070  1.6572  1.2159
 4820TIP3   OH236018   2.935   2.977   6.489 -0.1112  0.7977  0.5416
 4820TIP3    H136019   2.851   3.018   6.467  0.4991  1.5945 -0.4015
 4820TIP3    H236020   2.944   2.906   6.425  0.0788  0.9200  0.4316
 4821TIP3   OH236021   3.349   5.719   6.954 -0.3477 -0.0873 -0.2954
 4821TIP3    H136022   3.409   5.782   6.993 -0.8698  0.0159  0.3594
 4821TIP3    H236023   3.406   5.656   6.909  0.1848  0.7159 -0.7725
 4822TIP3   OH236024   1.092   5.065   7.522 -0.2675  0.5201 -0.1468
 4822TIP3    H136025   1.163   5.082   7.461 -1.2843  1.6753 -1.0677
 4822TIP3    H236026   1.049   5.150   7.533 -2.5428 -0.4314 -0.9546
 4823TIP3   OH236027   6.300   2.271   7.465  0.0521 -0.8490  0.5384
 4823TIP3    H136028   6.371   2.237   7.519  1.2564  0.0864 -0.4116
 4823TIP3    H236029   6.325   2.361   7.445  1.1521 -1.8966 -3.8641
 4824TIP3   OH236030   6.280   5.035   6.876  0.6132 -0.6602  0.0013
 4824TIP3    H136031   6.369   5.013   6.846 -0.1560 -2.4392 -1.1086
 4824TIP3    H236032   6.232   5.055   6.797 -0.4562 -1.6182  0.3760
 4825TIP3   OH236033   0.739   2.788   0.857  1.2043  0.4769  0.2743
 4825TIP3    H136034   0.732   2.877   0.823  3.7505  1.3475  1.6990
 4825TIP3    H236035   0.711   2.732   0.785 -0.1704  2.4047 -0.7650
 4826TIP3   OH236036   3.169   1.692   6.861 -0.8278  0.2997  0.4322
 4826TIP3    H136037   3.229   1.732   6.798  1.0378 -0.6982  1.4733
 4826TIP3    H236038   3.153   1.761   6.926 -0.0001  0.2891  0.6599
 4827TIP3   OH236039   5.214   6.012   8.134 -0.4552 -0.3057  0.0906
 4827TIP3    H136040   5.266   5.934   8.152 -0.5621 -0.0079  1.8571
 4827TIP3    H236041   5.131   5.996   8.177 -0.6138  0.6332  0.1590
 4828TIP3   OH236042   4.864   5.241   0.487 -0.0710  0.0323  0.4620
 4828TIP3    H136043   4.921   5.268   0.415 -2.3343  2.6983 -0.5158
 4828TIP3    H236044   4.892   5.295   0.561  0.4270 -0.6560  0.7817
 4829TIP3   OH236045   4.298   5.455   8.051 -0.1925 -0.3958  0.5735
 4829TIP3    H136046   4.303   5.506   8.132  0.0934  0.0935  0.2509
 4829TIP3    H236047   4.222   5.399   8.064 -0.9918  0.6653  0.6251
 4830TIP3   OH236048   4.819   4.049   7.163 -0.1040  0.0255 -0.3152
 4830TIP3    H136049   4.788   4.105   7.234  0.6292 -0.3441  0.3093
 4830TIP3    H236050   4.841   3.966   7.205  2.9774  0.6372 -0.4194
 4831TIP3   OH236051   6.449   2.492   2.192  0.6951  0.1861  1.0312
 4831TIP3    H136052   6.430   2.586   2.187  3.1245  0.7021 -0.3277
 4831TIP3    H236053   6.544   2.488   2.207  0.5766 -2.0687  1.5541
 4832TIP3   OH236054   1.303   1.622   7.164 -0.3000  0.2756  0.3049
 4832TIP3    H136055   1.377   1.574   7.127 -1.5595 -0.8477 -0.8434
 4832TIP3    H236056   1.321   1.714   7.143 -0.2287 -0.1846 -1.8714
 4833TIP3   OH236057   5.829   2.284   0.725 -0.1038  0.0795 -0.3997
 4833TIP3    H136058   5.769   2.256   0.656 -1.1978 -0.5447  0.7861
 4833TIP3    H236059   5.872   2.203   0.754  0.4351  0.3553 -0.4027
 4834TIP3   OH236060   2.564   2.258   2.408 -0.3939  0.3473  0.4415
 4834TIP3    H136061   2.486   2.313   2.418 -0.0918  0.8499  0.0720
 4834TIP3    H236062   2.596   2.277   2.319 -0.6072 -0.8479  0.0897
 4835TIP3   OH236063   3.602   5.789   5.998 -0.4223  0.1838 -1.2885
 4835TIP3    H136064   3.620   5.704   5.958 -0.5178 -0.8757  0.7387
 4835TIP3    H236065   3.521   5.818   5.956  0.4825  0.0937 -3.1855
 4836TIP3   OH236066   2.539   6.188   7.659  0.2046  0.1826  0.5011
 4836TIP3    H136067   2.524   6.218   7.748 -0.2801  1.9067 -0.1221
 4836TIP3    H236068   2.603   6.117   7.668  0.3415  0.4803  2.1916
 4837TIP3   OH236069   5.956   3.365   7.445  0.0143  0.2921  0.4404
 4837TIP3    H136070   5.992   3.433   7.388  0.1905 -0.6878 -0.6590
 4837TIP3    H236071   5.905   3.309   7.386 -0.1293 -0.5304  1.3226
 4838TIP3   OH236072   6.797   2.513   7.053  0.3047  0.0048  0.1094
 4838TIP3    H136073   6.764   2.437   7.006 -0.7610 -0.4105  1.4549
 4838TIP3    H236074   6.787   2.490   7.145  0.8059  1.4226  0.5415
 4839TIP3   OH236075   0.901   1.600   8.044  0.4873  0.2970 -0.6245
 4839TIP3    H136076   0.858   1.573   7.963 -0.9228  1.9973 -0.5123
 4839TIP3    H236077   0.831   1.596   8.110  1.0148  1.1349  0.0076
 4840TIP3   OH236078   1.892   4.549   5.906  0.0168 -0.5571 -0.1008
 4840TIP3    H136079   1.881   4.621   5.968 -2.3028 -0.7449 -0.1876
 4840TIP3    H236080   1.985   4.549   5.884  0.4774  0.9616  1.6177
 4841TIP3   OH236081   1.422   4.118   7.086 -0.1380  0.5941  0.1446
 4841TIP3    H136082   1.348   4.155   7.135 -0.2642 -0.8913  1.1487
 4841TIP3    H236083   1.416   4.023   7.102  0.9775  0.2706 -1.1812
 4842TIP3   OH236084   3.103   5.034   7.333  0.3880 -0.2035  0.5958
 4842TIP3    H136085   3.160   5.032   7.410 -0.0714  1.0387  0.9911
 4842TIP3    H236086   3.026   5.083   7.361 -0.5104 -1.1052 -0.1867
 4843TIP3   OH236087   2.287   0.890   7.862 -0.2182 -1.0265  0.6479
 4843TIP3    H136088   2.240   0.830   7.804 -0.3726 -0.1180 -0.1960
 4843TIP3    H236089   2.378   0.860   7.858 -0.0769 -0.5213 -0.7192
 4844TIP3   OH236090   5.266   3.619   7.701  0.4750 -0.5138  0.5113
 4844TIP3    H136091   5.264   3.560   7.776 -1.2272 -2.1184 -0.6809
 4844TIP3    H236092   5.242   3.563   7.627  0.2320  1.3978 -0.9315
 4845TIP3   OH236093   3.219   2.169   6.762 -0.5106  0.4743 -0.1420
 4845TIP3    H136094   3.268   2.138   6.686 -2.7343 -0.5249 -1.2354
 4845TIP3    H236095   3.178   2.250   6.732 -1.0562  0.2977  0.1257
 4846TIP3   OH236096   3.295   5.303   8.213 -0.1597 -0.6351  0.0237
 4846TIP3    H136097   3.311   5.288   8.306 -0.7788 -0.4881  0.1586
 4846TIP3    H236098   3.367   5.258   8.169 -0.4185 -1.5838  0.5368
 4847TIP3   OH236099   3.575   1.316   1.094  0.4073 -0.0240  0.1705
 4847TIP3    H136100   3.631   1.239   1.088  0.5737  0.0774  0.3815
 4847TIP3    H236101   3.633   1.385   1.127 -0.0420 -0.1448  1.2656
 4848TIP3   OH236102   1.586   2.666   8.440 -0.0356 -0.6684  0.5427
 4848TIP3    H136103   1.500   2.675   8.399 -0.1666  0.3133  1.0167
 4848TIP3    H236104   1.614   2.756   8.458  1.0357 -0.9793  0.5099
 4849TIP3   OH236105   3.689   4.711   2.304  0.0014 -0.5290 -0.4291
 4849TIP3    H136106   3.608   4.665   2.282  0.5788 -0.6884 -2.3686
 4849TIP3    H236107   3.759   4.659   2.264  0.8682  0.8031 -0.7378
 4850TIP3   OH236108   0.623   4.754   0.045  0.4344 -0.4420  0.2166
 4850TIP3    H136109   0.626   4.732  -0.048  0.4107  1.0577 -0.1724
 4850TIP3    H236110   0.633   4.671   0.090  0.1584 -1.2343 -1.1291
 4851TIP3   OH236111   1.977   4.047   0.161  0.2284 -0.4471 -0.2702
 4851TIP3    H136112   1.898   4.027   0.111 -0.1504  2.2949 -0.9818
 4851TIP3    H236113   1.945   4.091   0.240  0.9906  1.2722 -0.8636
 4852TIP3   OH236114   3.409   2.097   6.552  0.5708 -0.3543  0.7849
 4852TIP3    H136115   3.453   2.160   6.495 -0.5839 -0.1802  0.0603
 4852TIP3    H236116   3.480   2.048   6.593  1.4396 -0.0158 -0.2724
 4853TIP3   OH236117   0.969   0.307   0.533 -0.1704 -0.0091 -0.3676
 4853TIP3    H136118   0.930   0.336   0.615 -2.2577 -0.6202 -1.0746
 4853TIP3    H236119   0.999   0.388   0.491 -3.5741  0.9744 -1.1692
 4854TIP3   OH236120   3.179   3.249   1.388 -0.1137 -0.1518  0.4111
 4854TIP3    H136121   3.211   3.200   1.311  0.4191 -0.9686  1.1264
 4854TIP3    H236122   3.244   3.230   1.456  0.1138  1.5881  0.7263
 4855TIP3   OH236123   0.447   4.670   1.364  0.3700 -0.4140  0.0630
 4855TIP3    H136124   0.378   4.676   1.430  0.0987 -0.6052 -0.1978
 4855TIP3    H236125   0.426   4.590   1.315  1.0273 -0.7249  0.2637
 4856TIP3   OH236126   5.226   0.990   7.495  0.3527 -0.6210  0.2797
 4856TIP3    H136127   5.284   1.066   7.497 -1.0851  0.5618 -0.9248
 4856TIP3    H236128   5.267   0.930   7.433  1.8638 -1.1992  1.7612
 4857TIP3   OH236129   2.761   1.906   0.590 -0.0704 -0.4032  0.4150
 4857TIP3    H136130   2.808   1.926   0.671 -1.3996 -0.8017  1.3358
 4857TIP3    H236131   2.829   1.878   0.529  1.0579  0.6256  1.1436
 4858TIP3   OH236132   6.051   1.586   7.861  0.1324  0.2487  0.8088
 4858TIP3    H136133   6.068   1.582   7.955  0.8337  2.5744  0.8617
 4858TIP3    H236134   5.965   1.628   7.854 -0.3075 -0.7023  0.4075
 4859TIP3   OH236135   2.923   3.916   0.729  0.2915  0.5415 -0.4969
 4859TIP3    H136136   2.914   3.874   0.815  1.4518  0.7856 -0.2388
 4859TIP3    H236137   3.000   3.973   0.738  0.8177  0.0944 -1.8810
 4860TIP3   OH236138   5.349   5.194   0.704  0.8222  0.2109 -0.2554
 4860TIP3    H136139   5.262   5.157   0.685  0.5365  0.4946  0.4578
 4860TIP3    H236140   5.360   5.264   0.640  0.9284 -0.4386 -0.9556
 4861TIP3   OH236141   4.203   2.661   6.389  0.3097 -0.2488  0.1932
 4861TIP3    H136142   4.127   2.623   6.434 -0.0481  1.3349  0.9916
 4861TIP3    H236143   4.166   2.709   6.315  0.6250 -0.3272 -0.0167
 4862TIP3   OH236144   3.747   6.752   7.290 -0.3256  0.0742  0.1069
 4862TIP3    H136145   3.710   6.766   7.203  0.0353  1.7786  0.1966
 4862TIP3    H236146   3.711   6.668   7.318 -1.4875  0.1210 -1.1449
 4863TIP3   OH236147   2.411   4.669   1.195  0.2609 -0.3910  0.9381
 4863TIP3    H136148   2.446   4.747   1.238 -1.5351  1.4234 -0.7622
 4863TIP3    H236149   2.364   4.623   1.265  0.0375  0.8355  1.6219
 4864TIP3   OH236150   2.150   3.002   1.807  0.3727 -0.0180  0.3676
 4864TIP3    H136151   2.229   3.010   1.753 -0.5987 -2.4515 -1.6194
 4864TIP3    H236152   2.183   2.996   1.897  2.3052  0.6750 -0.2325
 4865TIP3   OH236153   1.806   3.367   8.026  0.0899  0.2801  0.1994
 4865TIP3    H136154   1.831   3.434   8.089  1.8834  0.6447 -0.8412
 4865TIP3    H236155   1.816   3.284   8.074 -0.4796  0.6343  0.9622
 4866TIP3   OH236156   5.349   2.859   8.461  0.3021  0.2925  0.2676
 4866TIP3    H136157   5.331   2.773   8.498  1.4826  0.4265  1.2136
 4866TIP3    H236158   5.443   2.873   8.476 -0.2989  2.8139  2.4551
 4867TIP3   OH236159   1.907   3.961   0.448  0.2825  0.3629 -0.1676
 4867TIP3    H136160   1.928   3.942   0.539  0.7668 -2.3253 -0.7320
 4867TIP3    H236161   1.891   3.875   0.409  0.0155  1.4317 -2.6036
 4868TIP3   OH236162   1.165   2.081   1.682 -0.1171 -0.1085  0.5228
 4868TIP3    H136163   1.228   2.012   1.661  0.0918  0.5345 -1.0582
 4868TIP3    H236164   1.088   2.033   1.712  0.0096 -1.0584 -0.5844
 4869TIP3   OH236165   5.604   6.115   7.564  0.1679  0.8631  0.0907
 4869TIP3    H136166   5.673   6.182   7.558  1.7166 -0.6942 -0.1023
 4869TIP3    H236167   5.609   6.083   7.654  0.8078 -0.3853 -0.3763
 4870TIP3   OH236168   5.595   2.526   1.127 -0.0664  0.4808  0.3512
 4870TIP3    H136169   5.681   2.497   1.156 -0.0410  0.0537 -0.1237
 4870TIP3    H236170   5.557   2.570   1.203 -0.9051 -2.5630  1.8537
 4871TIP3   OH236171   2.375   5.239   1.211 -0.7286  0.4858 -0.4459
 4871TIP3    H136172   2.350   5.149   1.231 -1.4841  0.7545 -0.1244
 4871TIP3    H236173   2.470   5.241   1.224 -1.1064  0.6704  3.4671
 4872TIP3   OH236174   3.483   1.192   8.505 -0.2671 -0.3724  0.7334
 4872TIP3    H136175   3.454   1.136   8.577  0.2598 -2.2740 -0.4698
 4872TIP3    H236176   3.418   1.261   8.501 -1.4219 -1.3516  1.7435
 4873TIP3   OH236177   3.157   4.500   1.242  0.2446 -0.0603  0.1283
 4873TIP3    H136178   3.150   4.591   1.213  0.1355 -0.2355 -0.4099
 4873TIP3    H236179   3.248   4.489   1.267 -0.1610  0.7543  2.1200
 4874TIP3   OH236180   1.377   0.886   0.610  0.3953 -0.4229  0.2062
 4874TIP3    H136181   1.307   0.881   0.545  1.6135  0.1469 -1.2050
 4874TIP3    H236182   1.398   0.795   0.631 -0.1963 -0.6006  0.0225
 4875TIP3   OH236183   3.154   0.663   0.298 -0.1016 -0.4714 -0.1969
 4875TIP3    H136184   3.179   0.588   0.353  1.0840  0.7243  0.9830
 4875TIP3    H236185   3.221   0.665   0.229  2.0384  1.4756  1.7591
 4876TIP3   OH236186   2.525   2.157   8.547 -0.5128  0.1571  0.6120
 4876TIP3    H136187   2.533   2.108   8.465  0.5949 -0.5794  1.1224
 4876TIP3    H236188   2.436   2.140   8.577 -0.5691 -0.4845  0.1098
 4877TIP3   OH236189   0.921   2.615   1.270  0.0040 -0.2623 -0.2113
 4877TIP3    H136190   0.992   2.621   1.334  1.3427 -0.9976 -1.5732
 4877TIP3    H236191   0.898   2.706   1.251 -0.0927 -0.0286  0.9404
 4878TIP3   OH236192   3.714   3.644   2.498 -0.6125  0.1175 -0.3861
 4878TIP3    H136193   3.769   3.694   2.558 -0.5321  0.1563 -0.4933
 4878TIP3    H236194   3.722   3.689   2.414  1.9531 -1.8445 -1.3124
 4879TIP3   OH236195   5.347   6.308   1.704  0.0797  0.4823 -0.3594
 4879TIP3    H136196   5.265   6.270   1.673 -0.2021  1.1662 -0.4771
 4879TIP3    H236197   5.326   6.401   1.717 -0.1731  0.0759  3.0130
 4880TIP3   OH236198   3.468   4.161   1.170  0.4582 -0.3791  0.9558
 4880TIP3    H136199   3.375   4.143   1.184  0.2599 -1.0861 -0.9806
 4880TIP3    H236200   3.511   4.076   1.180  0.1914 -1.1579 -3.0068
 4881TIP3   OH236201   1.664   1.090   1.763  0.4087  0.5546  0.6303
 4881TIP3    H136202   1.598   1.059   1.825  1.1848  0.0671  1.2206
 4881TIP3    H236203   1.717   1.152   1.813  0.6468  0.6402  0.2739
 4882TIP3   OH236204   2.843   4.945   0.663  0.2027 -0.7555  0.0774
 4882TIP3    H136205   2.810   4.870   0.714 -0.4688  0.2610  1.1949
 4882TIP3    H236206   2.764   4.992   0.636  0.6405  0.7922  1.3484
 4883TIP3   OH236207   2.927   3.062   2.014 -0.4887  0.4017 -0.3413
 4883TIP3    H136208   3.020   3.077   2.031 -0.0601 -0.9066 -1.3645
 4883TIP3    H236209   2.883   3.131   2.062  0.9572  0.4701  0.9723
 4884TIP3   OH236210   1.915   6.429   1.542  0.4280 -1.2484 -0.2060
 4884TIP3    H136211   1.927   6.390   1.628 -0.3541 -0.3363  0.3385
 4884TIP3    H236212   1.845   6.494   1.554  1.4508  0.0784 -1.1381
 4885TIP3   OH236213   2.159   1.387   2.324 -0.0500  0.0346  0.3055
 4885TIP3    H136214   2.140   1.367   2.232  1.7867 -1.0975  0.1154
 4885TIP3    H236215   2.147   1.482   2.331 -1.6798 -0.0567 -0.6962
 4886TIP3   OH236216   0.799   2.308   7.958  0.0812 -0.3001 -0.1357
 4886TIP3    H136217   0.837   2.221   7.942 -0.0187 -0.4447  0.4048
 4886TIP3    H236218   0.790   2.313   8.053 -0.8259 -0.0913 -0.2240
 4887TIP3   OH236219   1.361   1.845   7.943 -0.1654 -0.1703  0.4179
 4887TIP3    H136220   1.448   1.822   7.977  0.8330  0.9618 -1.2319
 4887TIP3    H236221   1.307   1.768   7.961  1.8632 -2.0107 -0.8432
 4888TIP3   OH236222   3.208   0.149   6.968 -1.1530  0.3893 -0.0480
 4888TIP3    H136223   3.116   0.165   6.991 -1.8791 -1.4103 -1.4138
 4888TIP3    H236224   3.217   0.182   6.879 -1.5071 -2.4276 -1.2434
 4889TIP3   OH236225   3.562   1.200   7.573 -0.1741  0.0557 -0.7750
 4889TIP3    H136226   3.482   1.247   7.550 -0.3777 -0.0858 -0.3571
 4889TIP3    H236227   3.549   1.112   7.539 -0.2001  0.0293 -0.6963
 4890TIP3   OH236228   4.929   3.164   0.035 -0.1670 -0.3523  0.4728
 4890TIP3    H136229   4.941   3.073   0.008 -1.2249  0.0022 -1.3102
 4890TIP3    H236230   5.018   3.197   0.049  0.2550 -1.4625  0.5117
 4891TIP3   OH236231   0.082   6.308   0.476 -1.0782 -0.1011  0.2858
 4891TIP3    H136232   0.167   6.343   0.503 -1.7060  0.3340  1.7924
 4891TIP3    H236233   0.018   6.371   0.510 -2.1220 -1.6189  1.2587
 4892TIP3   OH236234   2.392   4.721   2.051 -0.4518 -0.5221 -0.7533
 4892TIP3    H136235   2.382   4.815   2.043 -1.0029 -0.6294 -1.4441
 4892TIP3    H236236   2.441   4.708   2.132  0.4226  0.3944 -1.1258
 4893TIP3   OH236237   4.988   6.545   8.021 -0.3401  0.0611 -0.1894
 4893TIP3    H136238   4.971   6.566   7.929  0.6133 -0.5832 -0.5211
 4893TIP3    H236239   5.015   6.453   8.020 -1.6047 -0.3610  0.9002
 4894TIP3   OH236240   3.010   6.268   1.564  0.1699  0.7719  0.3834
 4894TIP3    H136241   3.011   6.173   1.580 -1.3450  0.5734 -0.4928
 4894TIP3    H236242   3.100   6.288   1.538  0.2102 -0.7122 -0.8255
 4895TIP3   OH236243   4.694   6.234   7.349  0.3234  0.2518 -0.2948
 4895TIP3    H136244   4.781   6.196   7.339 -0.3131 -1.0605 -1.1050
 4895TIP3    H236245   4.668   6.258   7.261 -0.4528 -0.1057 -0.1720
 4896TIP3   OH236246   1.415   3.158   7.440  0.7334 -0.2067 -0.2872
 4896TIP3    H136247   1.504   3.191   7.448  0.8975 -0.1416 -1.9808
 4896TIP3    H236248   1.377   3.206   7.366 -0.3452 -0.9811 -0.2765
 4897TIP3   OH236249   2.510   6.842   8.520 -0.0169 -0.0858 -0.6891
 4897TIP3    H136250   2.582   6.789   8.553  0.4647  0.8288 -0.2210
 4897TIP3    H236251   2.549   6.890   8.446  0.3757  1.6360  0.5514
 4898TIP3   OH236252   0.515   2.231   0.976 -0.2232  0.6011 -0.2112
 4898TIP3    H136253   0.562   2.301   1.022 -1.5961  0.8690  0.8634
 4898TIP3    H236254   0.428   2.230   1.016 -0.3948 -1.4270 -0.4932
 4899TIP3   OH236255   4.548   5.231   1.639 -0.5004  0.1803  0.1698
 4899TIP3    H136256   4.572   5.248   1.730 -0.5954  0.7342  0.0974
 4899TIP3    H236257   4.517   5.140   1.638  0.3038 -0.1071  0.5237
 4900TIP3   OH236258   0.999   3.569   8.180  0.2945 -0.8021  0.3969
 4900TIP3    H136259   1.090   3.597   8.186  0.6875 -2.2465  1.8601
 4900TIP3    H236260   0.979   3.572   8.086  1.4703  0.6193  0.1594
 4901TIP3   OH236261   6.119   0.193   2.042 -0.2345 -0.0020  0.5794
 4901TIP3    H136262   6.084   0.126   2.100  0.5247  0.6658  1.8614
 4901TIP3    H236263   6.209   0.205   2.070 -0.2399  1.2816  0.1319
 4902TIP3   OH236264   1.020   4.353   7.346 -0.2187  0.6910 -0.7067
 4902TIP3    H136265   1.050   4.366   7.436 -2.8938  0.9183  0.2503
 4902TIP3    H236266   1.022   4.441   7.308 -1.3072  1.0172 -0.0604
 4903TIP3   OH236267   3.788   4.073   0.561 -0.2710 -0.6642  0.8569
 4903TIP3    H136268   3.851   4.065   0.489 -0.0600 -0.9757  1.0732
 4903TIP3    H236269   3.719   4.129   0.526  1.4344  1.9955  1.4981
 4904TIP3   OH236270   1.265   3.897   7.116 -0.4678 -0.3627 -0.5775
 4904TIP3    H136271   1.211   3.971   7.145 -0.5885 -0.2728 -1.0233
 4904TIP3    H236272   1.232   3.822   7.165  0.4738  0.0926  0.8277
 4905TIP3   OH236273   3.488   4.797   6.745 -0.5692  0.1179  0.0146
 4905TIP3    H136274   3.417   4.859   6.731 -1.2994 -0.5237  0.7545
 4905TIP3    H236275   3.525   4.821   6.830 -0.3907 -0.0193 -0.0220
 4906TIP3   OH236276   1.381   0.065   1.420 -0.4151 -0.1264 -0.3564
 4906TIP3    H136277   1.390   0.000   1.489 -3.3677 -1.5386 -1.1118
 4906TIP3    H236278   1.464   0.113   1.420  1.0204 -2.3998  1.7328
 4907TIP3   OH236279   5.158   5.484   7.625 -0.2387 -0.0560  0.0842
 4907TIP3    H136280   5.161   5.401   7.672 -2.1255 -2.0728 -3.0068
 4907TIP3    H236281   5.082   5.529   7.662 -0.7029 -0.8540  0.1369
 4908TIP3   OH236282   3.087   3.259   0.102  0.4155  0.1031 -0.0865
 4908TIP3    H136283   3.009   3.313   0.115  0.4868  1.2467 -3.5825
 4908TIP3    H236284   3.053   3.175   0.072  0.4453  0.6733 -1.8303
 4909TIP3   OH236285   1.885   1.782   8.483  0.1667  0.1405 -0.2349
 4909TIP3    H136286   1.825   1.709   8.470 -0.6295  0.6692  0.3936
 4909TIP3    H236287   1.867   1.813   8.572  0.9307  0.7102 -0.2641
 4910TIP3   OH236288   6.653   2.921   7.928 -0.4415  0.3058 -0.3190
 4910TIP3    H136289   6.570   2.879   7.905 -0.3870 -0.4302  0.7475
 4910TIP3    H236290   6.720   2.864   7.890 -0.3657 -0.6415  1.1718
 4911TIP3   OH236291   3.963   5.570   0.907 -0.2907  0.1666 -0.6074
 4911TIP3    H136292   4.055   5.570   0.935 -0.3550  0.2747 -0.3923
 4911TIP3    H236293   3.946   5.659   0.878 -0.5350  0.3427  0.0550
 4912TIP3   OH236294   6.209   4.319   7.908 -0.1149 -0.6012  0.1037
 4912TIP3    H136295   6.305   4.313   7.909 -0.0551  0.1060  1.8444
 4912TIP3    H236296   6.187   4.335   7.816  1.4927  0.1737 -0.1781
 4913TIP3   OH236297   5.891   2.476   6.736  0.0305  0.1701 -0.0874
 4913TIP3    H136298   5.848   2.562   6.742 -0.7690 -0.1958 -0.3674
 4913TIP3    H236299   5.877   2.437   6.823 -0.2923  0.0173 -0.2048
 4914TIP3   OH236300   2.419   0.753   0.610  0.3046 -0.1250 -0.5395
 4914TIP3    H136301   2.331   0.761   0.647  0.1865  0.5787 -0.9516
 4914TIP3    H236302   2.413   0.682   0.547  0.0308 -0.0857 -0.5597
 4915TIP3   OH236303   1.064   4.441   0.106 -0.0575  0.3409 -0.5301
 4915TIP3    H136304   1.054   4.426   0.012 -1.6925  0.4966 -0.4242
 4915TIP3    H236305   1.101   4.360   0.140 -0.7683 -0.2502 -1.1288
 4916TIP3   OH236306   3.876   5.801   8.318 -0.2536  0.7348  0.4385
 4916TIP3    H136307   3.950   5.742   8.330 -0.8008  0.1194  0.8904
 4916TIP3    H236308   3.915   5.882   8.286  0.2967 -0.5598 -2.5331
 4917TIP3   OH236309   5.367   4.349   0.373  0.3902 -0.1250 -0.2245
 4917TIP3    H136310   5.393   4.419   0.434 -3.2997  1.7677 -0.5060
 4917TIP3    H236311   5.374   4.389   0.287 -1.5338 -0.0953 -0.4095
 4918TIP3   OH236312   0.527   4.984   8.284  0.5242 -0.3192  0.0619
 4918TIP3    H136313   0.488   4.925   8.219  1.1376  1.1053 -1.6996
 4918TIP3    H236314   0.616   4.951   8.295  1.3754  1.0176 -2.0669
 4919TIP3   OH236315   4.315   3.522   6.889  0.0686 -0.0259  0.6887
 4919TIP3    H136316   4.290   3.613   6.875 -0.9080 -0.4944 -0.7483
 4919TIP3    H236317   4.293   3.505   6.980 -1.1367  0.7474  0.5587
 4920TIP3   OH236318   2.689   2.838   0.968  0.1105  0.0176  0.0082
 4920TIP3    H136319   2.785   2.836   0.977  0.1028  0.2070  0.1317
 4920TIP3    H236320   2.671   2.776   0.898  0.3691  0.3920 -0.3926
 4921TIP3   OH236321   0.333   1.513   8.582  0.0867  0.2735  0.1387
 4921TIP3    H136322   0.420   1.477   8.598 -1.1251 -2.0198  2.3576
 4921TIP3    H236323   0.278   1.436   8.565 -1.5633  1.6341 -1.0333
 4922TIP3   OH236324   3.309   1.411   7.054 -0.2399 -0.5455 -0.3145
 4922TIP3    H136325   3.235   1.466   7.025  0.6613  0.7392 -0.2455
 4922TIP3    H236326   3.384   1.445   7.006  0.4228 -1.4895  0.0246
 4923TIP3   OH236327   3.845   5.437   8.186 -0.5886  0.9751 -0.5275
 4923TIP3    H136328   3.770   5.407   8.238  0.3742 -0.8685 -0.0972
 4923TIP3    H236329   3.806   5.470   8.105 -1.8598 -0.6155 -0.6302
 4924TIP3   OH236330   0.698   1.829   1.535 -0.3337 -0.1644 -0.1722
 4924TIP3    H136331   0.786   1.853   1.507 -0.5728  0.3659 -0.4815
 4924TIP3    H236332   0.672   1.758   1.476 -1.0373  1.2876 -1.6798
 4925TIP3   OH236333   3.842   3.721   1.908  0.2510  0.8079  0.4378
 4925TIP3    H136334   3.870   3.759   1.991  0.3602 -0.4619  1.0182
 4925TIP3    H236335   3.888   3.637   1.904  1.2003  1.3649 -1.4964
 4926TIP3   OH236336   4.449   4.200   0.991 -0.3235  0.7278  0.0806
 4926TIP3    H136337   4.544   4.215   0.999  0.1083 -1.6418 -0.0058
 4926TIP3    H236338   4.432   4.125   1.047 -1.5708 -0.8178 -2.1975
 4927TIP3   OH236339   0.589   1.143   0.430 -0.1657 -0.5002  0.0812
 4927TIP3    H136340   0.657   1.083   0.459 -0.7501 -1.1579  0.1019
 4927TIP3    H236341   0.560   1.108   0.346  0.8581  0.8643 -0.8914
 4928TIP3   OH236342   6.881   5.739   7.150  0.2436  0.1497  0.0922
 4928TIP3    H136343   6.856   5.733   7.057  0.5817  1.0700 -0.0678
 4928TIP3    H236344   6.885   5.833   7.168 -2.6612  0.0711  1.8342
 4929TIP3   OH236345   3.799   3.947   8.172  0.4136 -0.0028 -0.1353
 4929TIP3    H136346   3.877   3.938   8.227 -0.2892 -0.3457  0.8273
 4929TIP3    H236347   3.818   4.023   8.116  1.3767 -0.0071  0.1654
 4930TIP3   OH236348   6.281   2.036   1.751 -0.3384  0.2769 -0.5470
 4930TIP3    H136349   6.233   2.032   1.669  0.9803  0.7794 -1.3631
 4930TIP3    H236350   6.333   2.116   1.745  2.0236 -1.1745 -0.5244
 4931TIP3   OH236351   0.056   5.612   8.011  0.7182 -0.2203  0.4353
 4931TIP3    H136352  -0.038   5.607   7.992  0.2359 -1.3843  2.8243
 4931TIP3    H236353   0.070   5.702   8.041  0.3646 -0.0647  0.1373
 4932TIP3   OH236354   3.508   5.050   0.762 -0.4104  0.0247  0.0029
 4932TIP3    H136355   3.414   5.058   0.773 -0.6572 -2.4097  0.2669
 4932TIP3    H236356   3.542   5.036   0.851 -0.2535 -2.2768 -0.3535
 4933TIP3   OH236357   6.859   6.849   1.855  0.2337  0.3258  0.1410
 4933TIP3    H136358   6.935   6.864   1.911  0.5276 -1.0225  0.1383
 4933TIP3    H236359   6.830   6.937   1.830 -1.5843  1.2615  4.5435
 4934TIP3   OH236360   6.454   0.062   7.842 -0.0595 -0.2139 -0.4578
 4934TIP3    H136361   6.389   0.062   7.912 -2.0491 -1.2966 -2.1871
 4934TIP3    H236362   6.462  -0.030   7.817  3.6966 -0.4459  0.9447
 4935TIP3   OH236363   6.470   6.448   6.785 -0.3456 -0.6498  0.5828
 4935TIP3    H136364   6.542   6.504   6.813 -0.3487  0.5280 -1.6133
 4935TIP3    H236365   6.411   6.445   6.861 -0.2784  2.2490  0.8332
 4936TIP3   OH236366   4.790   0.110   1.357 -0.2236  0.1576 -0.1977
 4936TIP3    H136367   4.743   0.096   1.275  0.6832  0.8083 -0.8538
 4936TIP3    H236368   4.760   0.039   1.414 -0.5054 -0.6084 -1.2557
 4937TIP3   OH236369   1.360   4.260   0.585 -0.0960  0.0076 -0.1339
 4937TIP3    H136370   1.296   4.253   0.514 -0.6094 -2.5145  0.4935
 4937TIP3    H236371   1.373   4.170   0.615  1.7565  0.7602  1.5408
 4938TIP3   OH236372   5.295   4.826   7.098  0.3345  0.2274  0.2800
 4938TIP3    H136373   5.345   4.891   7.149 -0.1673 -0.1420  1.2567
 4938TIP3    H236374   5.288   4.865   7.011  1.3379  0.8073  0.4404
 4939TIP3   OH236375   5.644   6.581   6.901 -0.2525 -0.2268  0.1676
 4939TIP3    H136376   5.685   6.667   6.904 -0.9418  0.1280 -0.3783
 4939TIP3    H236377   5.717   6.520   6.913  0.1985  0.4283  0.8852
 4940TIP3   OH236378   4.607   2.188   7.613  0.2431 -0.2333  0.0278
 4940TIP3    H136379   4.582   2.276   7.641  1.8872  0.0332  0.7882
 4940TIP3    H236380   4.570   2.130   7.679 -1.5449 -0.2258 -0.9149
 4941TIP3   OH236381   1.932   2.437   1.718 -0.1934  0.4506  0.2929
 4941TIP3    H136382   1.942   2.532   1.709  0.3059  0.2475 -2.0828
 4941TIP3    H236383   1.923   2.405   1.628  0.0905 -1.8067  0.9936
 4942TIP3   OH236384   0.180   1.020   6.939  0.3680 -0.0951  0.3815
 4942TIP3    H136385   0.206   1.063   6.857  0.5580 -1.5918 -0.3857
 4942TIP3    H236386   0.145   1.091   6.993  0.3340  0.9540 -0.9515
 4943TIP3   OH236387   4.135   5.340   7.155 -0.6293 -0.0449  0.4437
 4943TIP3    H136388   4.053   5.294   7.172 -0.7517 -0.8945 -2.1159
 4943TIP3    H236389   4.147   5.334   7.061  1.8236  1.0576  0.6179
 4944TIP3   OH236390   2.945   2.359   0.724 -0.0791  0.6794 -0.3469
 4944TIP3    H136391   2.857   2.329   0.748  0.5539 -1.0485 -0.0019
 4944TIP3    H236392   2.954   2.334   0.632 -0.5704  2.4794 -0.9133
 4945TIP3   OH236393   3.593   0.409   7.322  0.2711  0.0560  0.1261
 4945TIP3    H136394   3.518   0.403   7.381  1.0406  0.7631  1.2351
 4945TIP3    H236395   3.652   0.340   7.351  1.6536  1.8081  1.7534
 4946TIP3   OH236396   3.501   2.038   7.316 -0.2806 -0.1978  0.4641
 4946TIP3    H136397   3.506   2.079   7.402 -1.5464 -0.5398  0.7287
 4946TIP3    H236398   3.433   1.971   7.325 -0.1865 -0.4851 -0.7016
 4947TIP3   OH236399   2.473   2.444   6.855  0.0754  0.2400 -0.4460
 4947TIP3    H136400   2.518   2.398   6.783  1.9861 -0.9331  1.3906
 4947TIP3    H236401   2.437   2.374   6.910  1.4738  0.9394  1.4523
 4948TIP3   OH236402   5.056   0.476   1.525 -0.1356 -0.2329 -0.2092
 4948TIP3    H136403   5.005   0.509   1.599 -1.6566 -3.3655  0.2956
 4948TIP3    H236404   5.138   0.526   1.528 -1.6235  2.3261  1.2492
 4949TIP3   OH236405   3.316   1.825   7.425 -0.2100  0.1116 -0.1793
 4949TIP3    H136406   3.221   1.819   7.412 -0.1945 -0.6754  0.0012
 4949TIP3    H236407   3.341   1.737   7.455  0.2526  0.8854  1.8301
 4950TIP3   OH236408   3.129   1.868   7.067  0.0354 -0.0133 -0.2384
 4950TIP3    H136409   3.124   1.828   7.154 -2.1067  4.0855  1.7943
 4950TIP3    H236410   3.204   1.927   7.072 -0.9309  1.2941 -0.5710
 4951TIP3   OH236411   2.688   1.006   8.220  0.6091 -0.2136 -0.0145
 4951TIP3    H136412   2.775   1.023   8.184  0.4756  0.8817  0.1503
 4951TIP3    H236413   2.633   1.074   8.181  0.0614 -0.2209  0.7378
 4952TIP3   OH236414   5.689   1.502   6.214 -0.0077 -0.3595  0.5040
 4952TIP3    H136415   5.646   1.576   6.258  0.7658 -0.4206  1.4040
 4952TIP3    H236416   5.702   1.437   6.284 -0.8031 -1.4233 -0.3023
 4953TIP3   OH236417   5.823   6.687   0.543  0.0623 -0.3162 -0.0255
 4953TIP3    H136418   5.757   6.619   0.554  1.1360 -1.3167  0.4692
 4953TIP3    H236419   5.794   6.758   0.600 -0.3159 -0.9587  0.6089
 4954TIP3   OH236420   1.799   0.513   0.783 -0.1063 -0.1496  0.2276
 4954TIP3    H136421   1.818   0.506   0.877  0.2026 -0.6481  0.1294
 4954TIP3    H236422   1.884   0.518   0.741 -0.2459  2.2536  0.1079
 4955TIP3   OH236423   0.097   4.059   0.545 -0.0205 -0.2269 -0.9068
 4955TIP3    H136424   0.032   4.034   0.480  0.0079 -0.2578 -0.9234
 4955TIP3    H236425   0.137   4.139   0.511 -1.0427  0.6029 -0.2117
 4956TIP3   OH236426   3.159   0.144   1.083  0.7193 -0.2727  0.5032
 4956TIP3    H136427   3.136   0.153   1.175  2.0107 -0.6294  0.8886
 4956TIP3    H236428   3.204   0.060   1.078  0.1666 -0.5286 -0.5725
 4957TIP3   OH236429   6.334   3.727   2.112 -0.2214 -0.2893  0.5379
 4957TIP3    H136430   6.299   3.814   2.093  1.9184  0.4254 -0.4318
 4957TIP3    H236431   6.264   3.683   2.160 -2.1400  1.2419 -0.7056
 4958TIP3   OH236432   3.731   5.318   1.858 -0.1168 -0.2112  0.1433
 4958TIP3    H136433   3.787   5.392   1.834 -0.3542 -0.3217 -0.7999
 4958TIP3    H236434   3.651   5.330   1.806 -0.1356 -1.1522 -0.0747
 4959TIP3   OH236435   5.976   0.287   6.728 -0.2118  0.0092  0.5562
 4959TIP3    H136436   5.972   0.375   6.766  0.0655 -0.0138  0.6397
 4959TIP3    H236437   6.012   0.301   6.640 -2.4239  0.2704 -0.3657
 4960TIP3   OH236438   3.831   1.346   0.187 -0.5947 -0.2227  0.1162
 4960TIP3    H136439   3.824   1.251   0.184 -2.4484 -0.1394  0.6085
 4960TIP3    H236440   3.872   1.370   0.103  1.4835 -1.5252  0.7043
 4961TIP3   OH236441   5.951   2.781   7.023  0.2716  0.1055 -0.2284
 4961TIP3    H136442   5.996   2.736   7.095 -2.3709  0.3355  1.7036
 4961TIP3    H236443   5.859   2.756   7.033 -0.3731  1.0938 -2.8664
 4962TIP3   OH236444   3.756   6.741   1.877 -0.3471  0.7091  0.5180
 4962TIP3    H136445   3.735   6.787   1.796 -1.5341  0.9917  0.9726
 4962TIP3    H236446   3.739   6.806   1.946 -1.0266 -0.0738  1.0988
 4963TIP3   OH236447   3.779   3.316   1.955 -0.6853  0.0557 -0.0460
 4963TIP3    H136448   3.765   3.223   1.940 -2.8858  0.5127 -1.3260
 4963TIP3    H236449   3.781   3.325   2.050 -1.4506 -1.2001  0.1156
 4964TIP3   OH236450   4.750   2.223   0.191  0.7140 -0.2745  0.0408
 4964TIP3    H136451   4.813   2.153   0.208 -0.4140 -1.5165 -0.7324
 4964TIP3    H236452   4.719   2.207   0.102  0.4072  1.2148 -0.1584
 4965TIP3   OH236453   6.133   6.157   1.404  0.7423 -0.0977 -0.3349
 4965TIP3    H136454   6.066   6.118   1.460  0.1556  1.1495 -0.1276
 4965TIP3    H236455   6.086   6.225   1.355  1.4991 -0.3740 -1.4791
 4966TIP3   OH236456   5.858   5.481   7.063 -0.0311  0.3467  0.5933
 4966TIP3    H136457   5.952   5.491   7.077  0.0991  1.3535 -0.8215
 4966TIP3    H236458   5.845   5.387   7.055  1.2840  0.3069 -1.7769
 4967TIP3   OH236459   4.724   6.790   0.544 -0.0547 -0.0272  0.4615
 4967TIP3    H136460   4.647   6.797   0.487  1.1163  1.5405 -1.0308
 4967TIP3    H236461   4.750   6.698   0.537 -1.0618 -0.2963  0.0066
 4968TIP3   OH236462   2.262   2.233   0.574 -0.3492 -0.3349 -0.2656
 4968TIP3    H136463   2.262   2.195   0.486  0.3383 -1.7347  0.3191
 4968TIP3    H236464   2.331   2.300   0.570 -0.9786  0.2988 -1.0458
 4969TIP3   OH236465   5.686   5.650   7.584 -0.5425 -0.0038 -0.9226
 4969TIP3    H136466   5.714   5.577   7.639  0.0399  1.5767  1.0134
 4969TIP3    H236467   5.591   5.641   7.578 -0.6867  0.0017  0.7696
 4970TIP3   OH236468   5.995   1.435   0.722  0.0573 -0.1204  0.2428
 4970TIP3    H136469   6.085   1.429   0.755  0.1674 -2.5312 -0.3234
 4970TIP3    H236470   5.951   1.360   0.760 -1.5909  0.7070  0.0371
 4971TIP3   OH236471   0.471   0.101   1.052 -0.5728  0.0752  0.1937
 4971TIP3    H136472   0.537   0.149   1.101 -0.6311 -1.0782  1.4730
 4971TIP3    H236473   0.387   0.135   1.083 -0.6052  0.5890 -0.4350
 4972TIP3   OH236474   5.770   6.700   6.183  0.1034  0.3983  0.6205
 4972TIP3    H136475   5.828   6.712   6.258 -0.3956  0.0478  1.0731
 4972TIP3    H236476   5.688   6.742   6.209  0.2307  1.1431 -0.1246
 4973TIP3   OH236477   5.874   5.751   8.151  0.0701  0.8512  0.2395
 4973TIP3    H136478   5.897   5.696   8.075 -2.8209 -0.7949  0.4136
 4973TIP3    H236479   5.895   5.840   8.122 -0.2958  0.2220 -2.2556
 4974TIP3   OH236480   1.771   6.804   8.613 -0.5186  0.3348  0.0311
 4974TIP3    H136481   1.693   6.825   8.664 -0.9048  1.5080 -0.9920
 4974TIP3    H236482   1.760   6.852   8.531  0.2566 -1.1973 -1.0168
 4975TIP3   OH236483   1.452   3.862   1.631 -0.2927 -0.2528  0.0764
 4975TIP3    H136484   1.406   3.911   1.564 -0.2359 -0.3679 -0.0468
 4975TIP3    H236485   1.424   3.902   1.714  1.0702  1.1430 -0.0839
 4976TIP3   OH236486   3.755   1.411   0.507 -0.0296 -0.0745 -0.0396
 4976TIP3    H136487   3.843   1.435   0.538  0.2543 -0.6846 -0.3524
 4976TIP3    H236488   3.760   1.423   0.412  0.2349 -1.6793 -0.2505
 4977TIP3   OH236489   5.161   3.196   7.923  0.5144  0.3127 -0.1038
 4977TIP3    H136490   5.095   3.169   7.859 -0.4122 -0.5372  1.1648
 4977TIP3    H236491   5.110   3.231   7.996  1.5427  0.9589  0.3254
 4978TIP3   OH236492   1.614   0.724   7.080  0.1412  0.1329 -0.4526
 4978TIP3    H136493   1.578   0.708   7.167  0.2906  1.0768 -0.2160
 4978TIP3    H236494   1.695   0.672   7.078  1.9246  2.5966  1.2119
 4979TIP3   OH236495   5.401   0.950   2.259  0.0628  0.2040  0.2503
 4979TIP3    H136496   5.471   0.896   2.296  1.0571  0.1907 -1.5398
 4979TIP3    H236497   5.447   1.025   2.220 -0.6396 -0.8820 -2.8818
 4980TIP3   OH236498   0.403   0.240   2.263  0.3555 -0.1929 -0.1062
 4980TIP3    H136499   0.343   0.168   2.283 -0.7228  0.5861 -0.4410
 4980TIP3    H236500   0.485   0.196   2.239 -0.0882 -1.2846  0.2661
 4981TIP3   OH236501   4.054   1.459   0.980  0.1449  1.1428 -0.3791
 4981TIP3    H136502   4.023   1.543   0.947  0.6778  0.8495 -1.7075
 4981TIP3    H236503   4.100   1.420   0.905 -0.0412 -0.3008  0.2372
 4982TIP3   OH236504   1.599   1.962   8.465 -0.6880 -0.1467 -0.1793
 4982TIP3    H136505   1.596   1.926   8.376 -1.2255 -0.2202 -0.1357
 4982TIP3    H236506   1.669   1.913   8.508 -0.3507 -0.0339 -0.5923
 4983TIP3   OH236507   3.001   4.547   0.357  0.1699 -0.5621 -0.7153
 4983TIP3    H136508   2.991   4.566   0.450  3.4706 -1.0811 -0.1598
 4983TIP3    H236509   3.052   4.621   0.323  2.0247 -2.0250 -1.2830
 4984TIP3   OH236510   4.556   1.191   1.179 -0.1471 -0.1023  0.1375
 4984TIP3    H136511   4.560   1.133   1.103  2.0047  0.6953 -0.4455
 4984TIP3    H236512   4.618   1.262   1.158  0.6271  0.0604  2.6850
 4985TIP3   OH236513   6.045   6.361   1.736  0.3314  0.1270  0.0835
 4985TIP3    H136514   6.104   6.290   1.763 -2.6633 -1.7860  2.2394
 4985TIP3    H236515   5.994   6.323   1.664  0.4634  1.0952 -0.5345
 4986TIP3   OH236516   5.271   3.210   1.465 -0.3827 -0.2844 -0.1453
 4986TIP3    H136517   5.364   3.194   1.477 -0.2060  0.0790 -0.9239
 4986TIP3    H236518   5.268   3.284   1.404 -1.1740 -1.1734 -1.2307
 4987TIP3   OH236519   6.193   3.173   6.910  0.4678 -0.0257 -0.1075
 4987TIP3    H136520   6.168   3.231   6.982  0.0635  0.2756 -0.4853
 4987TIP3    H236521   6.160   3.216   6.832 -2.5933 -2.2093 -0.1797
 4988TIP3   OH236522   4.810   4.342   6.723  0.0854 -0.6528  0.1159
 4988TIP3    H136523   4.890   4.301   6.690 -0.4794 -1.1657 -0.6721
 4988TIP3    H236524   4.752   4.345   6.647 -0.9348 -1.0228  0.8566
 4989TIP3   OH236525   6.093   0.582   6.548 -0.2634 -0.0563  0.0959
 4989TIP3    H136526   6.030   0.554   6.614  0.0206 -0.5538  0.1627
 4989TIP3    H236527   6.098   0.508   6.487  0.2789 -0.0368  0.1110
 4990TIP3   OH236528   2.003   3.866   7.635 -0.1142 -0.6846 -0.8306
 4990TIP3    H136529   2.035   3.876   7.725 -1.9472 -1.5816 -0.0125
 4990TIP3    H236530   2.060   3.799   7.597 -0.0145 -1.1336  0.0687
 4991TIP3   OH236531   4.723   0.648   6.314 -0.3244  0.3449 -0.3373
 4991TIP3    H136532   4.811   0.636   6.348  0.1411  0.5917 -1.3926
 4991TIP3    H236533   4.668   0.589   6.365  0.3252  0.7168  0.8182
 4992TIP3   OH236534   0.997   1.807   6.403 -0.3170  0.0914 -0.6983
 4992TIP3    H136535   0.987   1.902   6.406 -3.3319 -0.0949 -1.6823
 4992TIP3    H236536   0.922   1.773   6.453  1.3114 -1.8193  0.6306
 4993TIP3   OH236537   3.246   5.721   1.553  0.1472  0.3979  0.4515
 4993TIP3    H136538   3.255   5.719   1.648  0.5330  0.5370  0.4181
 4993TIP3    H236539   3.180   5.654   1.534  0.4877 -0.0323  0.7679
 4994TIP3   OH236540   5.526   6.719   7.117  0.0449  0.0782  0.4021
 4994TIP3    H136541   5.556   6.644   7.170 -0.0953 -0.4245 -0.2240
 4994TIP3    H236542   5.542   6.692   7.027  0.9856  1.2277  0.1984
 4995TIP3   OH236543   6.164   0.643   1.626 -0.1755 -0.4150 -0.4566
 4995TIP3    H136544   6.118   0.577   1.574  0.2041 -0.2904 -0.9683
 4995TIP3    H236545   6.202   0.702   1.560 -1.2255  0.8223 -0.0080
 4996TIP3   OH236546   1.129   4.371   1.270 -0.0474  0.5945 -0.0741
 4996TIP3    H136547   1.155   4.443   1.328 -0.1193 -0.5131  1.4185
 4996TIP3    H236548   1.146   4.292   1.322 -2.6633 -0.3528 -0.5205
 4997TIP3   OH236549   4.528   3.174   6.229 -0.6181 -0.0317  0.2220
 4997TIP3    H136550   4.433   3.184   6.222 -0.5907 -0.5717 -1.0549
 4997TIP3    H236551   4.563   3.247   6.178 -0.3410 -0.1435  0.2545
 4998TIP3   OH236552   2.268   4.348   7.857  0.6169  0.4216 -0.2684
 4998TIP3    H136553   2.176   4.359   7.881  0.6034  0.3582 -0.2913
 4998TIP3    H236554   2.308   4.307   7.934  0.0038 -2.4271 -1.3150
 4999TIP3   OH236555   4.798   5.809   0.694 -0.3375 -0.1093 -0.3122
 4999TIP3    H136556   4.781   5.885   0.750  0.7577  1.4590 -1.9748
 4999TIP3    H236557   4.716   5.797   0.646 -0.0219  1.1074 -1.2063
 5000TIP3   OH236558   6.053   2.559   8.400 -0.3543  0.1922  0.5179
 5000TIP3    H136559   6.122   2.625   8.390 -0.0647 -0.1745  0.0593
 5000TIP3    H236560   6.089   2.494   8.460  0.1207 -0.5390 -0.5250
 5001TIP3   OH236561   4.144   2.102   7.034 -0.0877 -0.6480 -0.0782
 5001TIP3    H136562   4.060   2.094   6.990 -0.1704 -0.5431  0.0627
 5001TIP3    H236563   4.135   2.178   7.091  0.0645 -0.7037  0.0227
 5002TIP3   OH236564   5.657   3.048   7.692  0.3466 -0.2702  0.4123
 5002TIP3    H136565   5.740   3.067   7.647 -0.3319  0.9924 -0.3338
 5002TIP3    H236566   5.670   2.960   7.728  1.7256 -0.4177 -0.3615
 5003TIP3   OH236567   2.960   0.963   6.292  0.1913  0.0346  0.9135
 5003TIP3    H136568   2.910   0.885   6.266  0.6933  0.2678 -0.8925
 5003TIP3    H236569   2.907   1.003   6.361 -1.9865  0.0813 -0.6762
 5004TIP3   OH236570   4.514   4.391   8.417  0.3311  0.5680  0.2714
 5004TIP3    H136571   4.568   4.433   8.484  1.4644 -1.3522  0.6591
 5004TIP3    H236572   4.457   4.332   8.466 -0.6226  0.9930 -0.3024
 5005TIP3   OH236573   0.994   5.450   1.206 -0.8412  0.3171  0.0588
 5005TIP3    H136574   1.014   5.382   1.142 -2.1223  1.7626 -1.9738
 5005TIP3    H236575   0.920   5.415   1.255 -3.1708  1.0977 -2.6304
 5006TIP3   OH236576   4.789   5.349   8.518  0.1823  0.1881 -0.0374
 5006TIP3    H136577   4.868   5.387   8.479  0.4204  0.4156  0.6546
 5006TIP3    H236578   4.730   5.423   8.530  1.3554  0.7795  3.0760
 5007TIP3   OH236579   0.929   1.767   8.592 -0.2907 -0.3277  0.3073
 5007TIP3    H136580   0.965   1.684   8.623 -0.2874 -0.1799  0.6939
 5007TIP3    H236581   0.988   1.792   8.520 -0.8413 -1.1299 -0.4498
 5008TIP3   OH236582   1.208   4.507   1.769  0.0350 -0.1361  0.1576
 5008TIP3    H136583   1.270   4.564   1.814 -0.0693 -0.7984  1.1951
 5008TIP3    H236584   1.122   4.535   1.800 -0.0993 -0.0866 -0.2501
 5009TIP3   OH236585   6.254   5.748   8.260 -0.5832  0.2907 -0.6392
 5009TIP3    H136586   6.162   5.739   8.285 -0.4070  1.3239  0.5204
 5009TIP3    H236587   6.302   5.696   8.325 -0.2536  1.2685 -0.0629
 5010TIP3   OH236588   1.186   5.328   7.130  0.1312  0.2101  0.1990
 5010TIP3    H136589   1.176   5.295   7.220  0.1168 -0.2061  0.0473
 5010TIP3    H236590   1.279   5.315   7.111 -0.2489 -1.6973 -0.6010
 5011TIP3   OH236591   6.534   0.020   8.522  0.2330  0.1334 -0.2402
 5011TIP3    H136592   6.550  -0.044   8.591  1.3204 -0.4944 -1.0526
 5011TIP3    H236593   6.438   0.030   8.520  0.2032  0.5305  1.6497
 5012TIP3   OH236594   2.631   3.430   0.339 -0.2885  0.1583 -0.4838
 5012TIP3    H136595   2.612   3.517   0.305 -0.0362 -0.1392 -1.4186
 5012TIP3    H236596   2.567   3.373   0.296 -2.3383  0.2475  2.2417
 5013TIP3   OH236597   5.991   0.634   0.415 -0.1235  0.4879 -0.5179
 5013TIP3    H136598   6.080   0.669   0.402  0.0722 -0.0445 -0.6346
 5013TIP3    H236599   5.936   0.712   0.421  0.5309  0.8844  0.9731
 5014TIP3   OH236600   5.408   6.413   7.061  0.0018  0.0279 -0.2187
 5014TIP3    H136601   5.463   6.368   6.996 -0.5794 -2.7805  1.0972
 5014TIP3    H236602   5.468   6.432   7.134  0.8733  3.9899 -1.6976
 5015TIP3   OH236603   4.469   2.681   1.547 -0.3733 -0.3973 -0.4542
 5015TIP3    H136604   4.445   2.732   1.625 -1.1036 -0.1727 -0.8165
 5015TIP3    H236605   4.386   2.653   1.511 -0.0103 -0.9996 -0.8298
 5016TIP3   OH236606   5.512   3.255   7.153  0.1491  0.3725 -0.2409
 5016TIP3    H136607   5.454   3.323   7.119 -1.6594 -1.1312 -0.2718
 5016TIP3    H236608   5.494   3.254   7.247  1.3282  0.9562  0.0147
 5017TIP3   OH236609   1.349   3.552   0.960 -1.1445  0.0284 -0.3944
 5017TIP3    H136610   1.340   3.472   0.907 -0.4909 -0.3928  0.1097
 5017TIP3    H236611   1.425   3.535   1.015 -1.0656  0.9709 -0.2061
 5018TIP3   OH236612   1.387   5.987   2.738  0.2370  0.1017 -0.3396
 5018TIP3    H136613   1.307   6.027   2.771 -0.7707 -0.8233 -1.5380
 5018TIP3    H236614   1.417   6.046   2.669  0.5443  0.4016  0.0476
 5019TIP3   OH236615   4.778   0.694   0.852  0.9441 -0.4204 -0.8721
 5019TIP3    H136616   4.686   0.666   0.845  0.6392  0.3451 -0.0724
 5019TIP3    H236617   4.825   0.614   0.877  0.6076 -0.9643 -1.8884
 5020TIP3   OH236618   4.940   5.525   1.201  0.1636  0.1468  0.0574
 5020TIP3    H136619   4.957   5.567   1.117 -0.3214 -1.2666 -0.7735
 5020TIP3    H236620   5.024   5.489   1.228  0.5352  1.4020  0.6744
 5021TIP3   OH236621   4.054   5.759   8.604 -0.5084  0.3185  0.0215
 5021TIP3    H136622   4.108   5.777   8.682 -0.2031 -0.1474 -0.0759
 5021TIP3    H236623   3.974   5.720   8.639 -0.5986  0.6044  0.1369
 5022TIP3   OH236624   6.858   5.321   2.018 -0.1379 -0.1606  0.4585
 5022TIP3    H136625   6.860   5.399   1.963 -0.4171 -0.9621 -0.7133
 5022TIP3    H236626   6.914   5.342   2.092 -0.9667  1.5098  0.6532
 5023TIP3   OH236627   1.341   0.272   2.551 -0.2975  0.0860  0.6295
 5023TIP3    H136628   1.432   0.283   2.523  0.3017  3.2754  3.1815
 5023TIP3    H236629   1.290   0.326   2.490 -0.3638 -0.8476 -0.1557
 5024TIP3   OH236630   4.695   5.492   8.262  0.5500  0.2330  0.3065
 5024TIP3    H136631   4.655   5.420   8.213 -0.4329  0.0350  1.3626
 5024TIP3    H236632   4.775   5.455   8.298  0.0420 -0.3484  0.8531
 5025TIP3   OH236633   0.237   1.518   6.370 -0.3681  0.6937 -0.4775
 5025TIP3    H136634   0.156   1.539   6.416 -1.0625  0.4549 -1.5452
 5025TIP3    H236635   0.251   1.593   6.312 -0.7988 -0.0282 -1.5612
 5026TIP3   OH236636   4.287   2.546   0.326  0.5768  0.3874  0.2197
 5026TIP3    H136637   4.274   2.507   0.240  0.5927  1.7181 -0.4122
 5026TIP3    H236638   4.324   2.476   0.379 -0.4013 -0.7527 -0.5607
 5027TIP3   OH236639   1.410   4.137   1.443  0.4964  0.2437 -0.5871
 5027TIP3    H136640   1.460   4.192   1.503  0.4931  1.3083 -1.5249
 5027TIP3    H236641   1.325   4.127   1.485  0.4056  1.1878 -0.5217
 5028TIP3   OH236642   1.204   5.185   0.617 -0.0840  0.1276 -0.0542
 5028TIP3    H136643   1.262   5.110   0.614 -1.5819 -1.0651 -0.5117
 5028TIP3    H236644   1.126   5.158   0.569 -0.7973  1.8675  0.0255
 5029TIP3   OH236645   0.727   1.712   1.776  0.3677 -0.0468 -0.2457
 5029TIP3    H136646   0.694   1.758   1.698  0.5267  1.1905  0.3804
 5029TIP3    H236647   0.658   1.650   1.798 -2.5009  3.4352  1.8648
 5030TIP3   OH236648   0.885   1.915   7.710 -0.2565  0.0387  0.0518
 5030TIP3    H136649   0.922   1.964   7.637  0.8909  0.4790  0.9012
 5030TIP3    H236650   0.952   1.849   7.730 -0.5513 -0.0596  0.7252
 5031TIP3   OH236651   0.110   1.336   1.783 -0.4707 -0.1261 -0.0910
 5031TIP3    H136652   0.146   1.405   1.838 -0.0893 -0.2241 -0.2137
 5031TIP3    H236653   0.102   1.260   1.842 -1.1348  0.0914  0.1087
 5032TIP3   OH236654   4.662   1.700   1.518  0.6236 -0.4309  0.0217
 5032TIP3    H136655   4.702   1.668   1.598  0.5875 -2.0323 -0.5471
 5032TIP3    H236656   4.722   1.673   1.448  0.5174  0.6803 -0.5193
 5033TIP3   OH236657   3.938   4.313   7.514 -1.1501 -0.1605 -0.2918
 5033TIP3    H136658   4.019   4.355   7.542  0.0409 -0.8023 -2.5189
 5033TIP3    H236659   3.888   4.382   7.471 -1.5517  0.1037  0.5788
 5034TIP3   OH236660   1.858   1.049   7.997  0.6549 -0.0807  0.5723
 5034TIP3    H136661   1.764   1.049   7.981  0.8485 -1.0739 -0.6480
 5034TIP3    H236662   1.870   0.986   8.068  0.5670 -1.3552 -0.5054
 5035TIP3   OH236663   1.600   2.512   1.372  0.3885 -0.0794 -0.2477
 5035TIP3    H136664   1.574   2.603   1.361  0.3186 -0.3446 -3.1038
 5035TIP3    H236665   1.582   2.471   1.287  0.1450 -2.8412  1.0153
 5036TIP3   OH236666   6.739   5.553   1.911  0.5324 -0.1331 -0.4917
 5036TIP3    H136667   6.791   5.577   1.988  0.3647 -0.6972 -0.1964
 5036TIP3    H236668   6.660   5.607   1.917  0.7056  0.1214 -0.4903
 5037TIP3   OH236669   2.448   3.930   0.004 -0.9320 -0.3623  0.1559
 5037TIP3    H136670   2.375   3.940   0.065 -1.2607 -0.6544 -0.1856
 5037TIP3    H236671   2.516   3.988   0.038 -1.7582  0.8506 -0.1983
 5038TIP3   OH236672   6.234   0.273   7.967  0.0035 -0.5608 -0.6102
 5038TIP3    H136673   6.243   0.208   8.037 -0.0113 -0.8318 -0.8563
 5038TIP3    H236674   6.144   0.305   7.975 -0.2441 -1.1583 -0.9935
 5039TIP3   OH236675   0.163   4.869   8.098 -0.2741  0.4205  0.0179
 5039TIP3    H136676   0.208   4.950   8.121 -3.9435  2.9607 -0.8320
 5039TIP3    H236677   0.071   4.887   8.117 -1.1849 -4.0823  0.9593
 5040TIP3   OH236678   3.825   2.251   7.548 -0.2524  0.3669 -0.0709
 5040TIP3    H136679   3.891   2.238   7.617  1.0741  1.0295 -1.1721
 5040TIP3    H236680   3.820   2.346   7.537  0.5544  0.2567 -1.7677
 5041TIP3   OH236681   2.941   6.495   1.314 -0.3556  0.2432  0.1139
 5041TIP3    H136682   2.878   6.452   1.372  0.4989 -0.3475  0.6136
 5041TIP3    H236683   2.964   6.576   1.359  0.0201 -0.0332  0.4219
 5042TIP3   OH236684   4.421   3.158   7.092 -0.5350 -0.0508  1.1819
 5042TIP3    H136685   4.387   3.163   7.181  0.5179  0.9588  1.5441
 5042TIP3    H236686   4.488   3.227   7.087  1.4487 -1.8905  0.5165
 5043TIP3   OH236687   1.260   4.572   7.094 -0.5461  0.1406 -0.0288
 5043TIP3    H136688   1.295   4.543   7.178  1.0852 -2.7140 -1.5069
 5043TIP3    H236689   1.322   4.639   7.064  1.3937 -1.8445 -0.7239
 5044TIP3   OH236690   1.145   3.711   7.280  0.5985 -0.4021  0.0511
 5044TIP3    H136691   1.078   3.663   7.232 -0.5746 -1.7813  2.8241
 5044TIP3    H236692   1.185   3.646   7.338 -0.2176  1.6041  3.1166
 5045TIP3   OH236693   0.443   2.462   0.597  0.8196  0.2875  0.5134
 5045TIP3    H136694   0.443   2.377   0.552  3.4496  0.4039  0.1291
 5045TIP3    H236695   0.359   2.501   0.574 -1.0977 -2.6861  1.7679
 5046TIP3   OH236696   3.397   4.680   1.915 -0.0614  0.1492 -0.3980
 5046TIP3    H136697   3.429   4.656   2.002  0.8221  1.4732 -0.3185
 5046TIP3    H236698   3.362   4.769   1.927 -1.2480 -0.2090 -1.0996
 5047TIP3   OH236699   3.226   3.702   0.506 -0.0395 -0.1158 -0.2670
 5047TIP3    H136700   3.318   3.673   0.509 -0.2368 -0.6884  1.0200
 5047TIP3    H236701   3.198   3.683   0.416  2.0707  3.3280 -1.8347
 5048TIP3   OH236702   3.462   5.906   5.692  0.6763 -0.5732  0.2414
 5048TIP3    H136703   3.375   5.916   5.730  0.8524 -2.1279  1.1219
 5048TIP3    H236704   3.461   5.962   5.614 -0.9274 -0.1955  0.5109
 5049TIP3   OH236705   4.753   3.976   8.051 -0.1748 -0.1975  0.1268
 5049TIP3    H136706   4.798   4.024   7.981 -0.4138 -0.2707 -0.0796
 5049TIP3    H236707   4.815   3.974   8.123  0.5727 -1.2121 -0.5155
 5050TIP3   OH236708   3.204   4.213   0.084 -0.2831  0.5149 -0.3903
 5050TIP3    H136709   3.124   4.161   0.075  0.1244  0.0272 -1.3578
 5050TIP3    H236710   3.264   4.156   0.133 -1.0165  1.4813  1.7658
 5051TIP3   OH236711   1.530   4.019   0.336  0.3609  0.1883 -0.7317
 5051TIP3    H136712   1.504   4.024   0.428  0.1465 -0.8727 -0.7142
 5051TIP3    H236713   1.607   4.074   0.329  0.2133  0.4985  0.0243
 5052TIP3   OH236714   5.419   0.226   0.558  0.1493  0.2172  0.7492
 5052TIP3    H136715   5.424   0.137   0.592 -0.2366  0.1879  0.7376
 5052TIP3    H236716   5.372   0.217   0.475  0.5817  0.3625  0.4851
 5053TIP3   OH236717   1.477   1.568   7.614  0.0299 -0.1666  0.2404
 5053TIP3    H136718   1.403   1.604   7.565 -1.1585 -0.5610  1.6801
 5053TIP3    H236719   1.550   1.567   7.551 -1.8655 -2.4049 -2.1348
 5054TIP3   OH236720   4.685   5.526   7.251 -0.1798  0.0904 -0.0743
 5054TIP3    H136721   4.688   5.532   7.347  0.0706  0.2356 -0.0906
 5054TIP3    H236722   4.609   5.579   7.226  0.1431  0.5873 -0.0004
 5055TIP3   OH236723   2.189   0.240   0.718  0.2077 -0.2479  0.0339
 5055TIP3    H136724   2.185   0.182   0.794 -0.2795 -1.6705 -1.0461
 5055TIP3    H236725   2.233   0.189   0.651 -0.3176  0.5943 -0.9871
 5056TIP3   OH236726   1.675   0.685   8.429 -0.2775  0.0246  0.4611
 5056TIP3    H136727   1.633   0.738   8.361  0.5700  1.3263  0.9083
 5056TIP3    H236728   1.635   0.715   8.511  1.3318  1.2013  0.8854
 5057TIP3   OH236729   5.375   6.867   0.600  0.4910  0.6027 -0.0282
 5057TIP3    H136730   5.400   6.873   0.692  2.0270 -0.9907 -0.3070
 5057TIP3    H236731   5.372   6.774   0.581  2.0468  0.9032 -2.0627
 5058TIP3   OH236732   2.305   3.007   0.946 -0.5126  0.2676  0.5592
 5058TIP3    H136733   2.257   2.998   0.864 -1.0171 -0.8775  0.9662
 5058TIP3    H236734   2.386   3.052   0.921 -1.8529  2.5359 -0.1095
 5059TIP3   OH236735   3.254   6.660   8.497  0.1297  0.0201 -0.2342
 5059TIP3    H136736   3.215   6.575   8.476 -0.2497  0.0970  0.1286
 5059TIP3    H236737   3.192   6.724   8.462 -0.6912  0.1525  1.3410
 5060TIP3   OH236738   5.000   3.055   7.739 -0.0700 -0.2117  0.0220
 5060TIP3    H136739   4.908   3.078   7.728 -0.1130 -0.7539 -0.8574
 5060TIP3    H236740   4.999   2.961   7.757  0.4034 -0.6474 -1.9849
 5061TIP3   OH236741   3.432   2.312   0.217  0.1303  1.0129  0.0398
 5061TIP3    H136742   3.342   2.291   0.192  0.0970  1.7018 -0.4244
 5061TIP3    H236743   3.426   2.342   0.308  0.1207 -0.5246  0.5775
 5062TIP3   OH236744   1.443   6.432   6.540 -0.3635  0.3137  0.4746
 5062TIP3    H136745   1.431   6.339   6.556  2.5407 -0.3227 -0.5925
 5062TIP3    H236746   1.391   6.450   6.461 -0.8402 -0.4049  0.6191
 5063TIP3   OH236747   6.181   2.563   6.866  0.4662  0.2303 -0.0279
 5063TIP3    H136748   6.101   2.512   6.855  1.0646 -1.0859  1.3738
 5063TIP3    H236749   6.157   2.633   6.928  0.3604 -0.0769  0.2797
 5064TIP3   OH236750   3.517   5.567   0.075  0.4341  0.0328  0.2742
 5064TIP3    H136751   3.588   5.631   0.067 -1.1033  1.7683 -0.3264
 5064TIP3    H236752   3.446   5.604   0.022 -1.4841 -0.7968  2.1010
 5065TIP3   OH236753   1.092   6.183   0.702  0.0321 -0.2536 -0.3540
 5065TIP3    H136754   1.059   6.198   0.791  0.8831 -0.0362 -0.0724
 5065TIP3    H236755   1.013   6.171   0.649 -0.4753 -2.0783  0.7171
 5066TIP3   OH236756   6.261   4.563   0.937 -0.7257 -1.0615 -0.5361
 5066TIP3    H136757   6.257   4.640   0.994 -0.9387 -0.6239 -1.1297
 5066TIP3    H236758   6.250   4.489   0.996 -0.2381 -0.6527  0.0850
 5067TIP3   OH236759   1.556   4.340   8.369  0.6992  0.5486 -0.0186
 5067TIP3    H136760   1.614   4.374   8.301  1.7016  0.7879  0.9304
 5067TIP3    H236761   1.599   4.260   8.400  0.5351  0.7185  0.6766
 5068TIP3   OH236762   0.489   0.824   6.442 -0.2896 -0.1977  0.2117
 5068TIP3    H136763   0.476   0.754   6.507 -2.3978  0.7836  0.9496
 5068TIP3    H236764   0.491   0.778   6.358  0.2491 -1.2951  0.7957
 5069TIP3   OH236765   4.887   4.857   7.672  0.4752 -0.0129  0.0051
 5069TIP3    H136766   4.866   4.797   7.743 -0.3909 -0.0495 -0.2715
 5069TIP3    H236767   4.896   4.942   7.713 -1.5261  0.2501 -0.0115
 5070TIP3   OH236768   3.356   6.305   8.356 -0.9187 -0.2104 -0.0135
 5070TIP3    H136769   3.357   6.390   8.312 -1.9668  0.2339  0.7910
 5070TIP3    H236770   3.444   6.296   8.393 -1.0635  0.9245  0.6346
 5071TIP3   OH236771   6.154   0.848   8.507  0.5030  0.0719  0.1674
 5071TIP3    H136772   6.097   0.778   8.477 -1.9900  1.6349  0.9755
 5071TIP3    H236773   6.242   0.820   8.481 -0.5143 -2.7320 -0.5910
 5072TIP3   OH236774   3.487   6.318   1.058  0.3522  0.2648  0.4230
 5072TIP3    H136775   3.448   6.352   0.977 -2.9854  0.5488  1.9933
 5072TIP3    H236776   3.442   6.235   1.074  2.2225 -0.6801  1.1404
 5073TIP3   OH236777   2.722   1.605   1.068 -0.6757 -0.0156  0.5810
 5073TIP3    H136778   2.741   1.528   1.015 -0.4197 -0.5159  1.3815
 5073TIP3    H236779   2.631   1.626   1.049 -1.1499 -1.2997  1.3219
 5074TIP3   OH236780   4.583   1.527   7.807  0.1093  0.0373  0.0788
 5074TIP3    H136781   4.589   1.519   7.712 -0.0165 -2.5135  0.2296
 5074TIP3    H236782   4.638   1.602   7.828  0.0791  0.7004 -1.9994
 5075TIP3   OH236783   6.795   5.243   7.921 -0.1086  0.6678 -0.1063
 5075TIP3    H136784   6.834   5.271   7.838  0.9524  2.1405  0.8385
 5075TIP3    H236785   6.870   5.231   7.980 -0.9286  1.0180  1.0305
 5076TIP3   OH236786   6.040   1.416   8.102 -0.0126  0.4744 -0.3518
 5076TIP3    H136787   6.012   1.359   8.173 -0.6938 -0.8714 -1.6555
 5076TIP3    H236788   6.134   1.401   8.094  0.1447  0.9458  0.5140
 5077TIP3   OH236789   6.240   0.981   8.274  0.3707  0.5599  0.6817
 5077TIP3    H136790   6.187   0.946   8.346  0.1683 -1.2436 -0.2753
 5077TIP3    H236791   6.328   0.989   8.310  0.1853  0.0837  1.2600
 5078TIP3   OH236792   0.650   3.200   0.435  0.1064  0.0784 -0.3440
 5078TIP3    H136793   0.679   3.183   0.345  1.7295  2.8320 -0.4412
 5078TIP3    H236794   0.729   3.189   0.488 -1.1137 -2.9988  1.1199
 5079TIP3   OH236795   5.432   4.004   7.940 -0.3726  0.6378  0.0011
 5079TIP3    H136796   5.495   4.006   7.868  1.3820 -0.2200  1.4574
 5079TIP3    H236797   5.399   3.914   7.941  2.3595 -0.4905  2.4392
 5080TIP3   OH236798   5.184   0.495   0.880  0.0076 -0.2428 -0.1484
 5080TIP3    H136799   5.198   0.402   0.901  1.4465 -0.6251 -2.4575
 5080TIP3    H236800   5.263   0.521   0.833 -1.2529  1.5597 -1.4117
 5081TIP3   OH236801   2.648   6.270   0.293 -0.2814 -0.0129  0.0011
 5081TIP3    H136802   2.643   6.365   0.288  0.1832 -0.0383 -1.6739
 5081TIP3    H236803   2.735   6.249   0.260 -0.2090 -0.9996  0.7872
 5082TIP3   OH236804   3.327   4.597   7.697  0.1626  0.2304 -0.1754
 5082TIP3    H136805   3.291   4.650   7.768  1.4210  1.0717 -0.1373
 5082TIP3    H236806   3.416   4.577   7.724 -0.6075 -3.0065  0.3793
 5083TIP3   OH236807   1.604   4.740   8.479 -0.2001 -0.5161 -0.0316
 5083TIP3    H136808   1.573   4.763   8.567  0.2199  0.0961 -0.0444
 5083TIP3    H236809   1.536   4.681   8.445  0.3273 -1.9077  1.2358
 5084TIP3   OH236810   3.998   2.781   1.425  0.4251 -0.2745  0.2796
 5084TIP3    H136811   4.048   2.860   1.444  0.7440 -0.1191 -1.0494
 5084TIP3    H236812   4.064   2.711   1.425 -0.1327 -0.9119  3.3442
 5085TIP3   OH236813   3.798   1.070   0.154  0.0826 -0.3123  0.2338
 5085TIP3    H136814   3.725   1.008   0.159  0.5754 -0.8880  0.4756
 5085TIP3    H236815   3.849   1.041   0.078 -0.0954  0.2705 -0.1175
 5086TIP3   OH236816   3.850   4.011   1.787  0.5569  0.0585 -0.3768
 5086TIP3    H136817   3.792   4.066   1.839 -0.5365 -1.2610 -0.1320
 5086TIP3    H236818   3.838   3.923   1.823  1.2925 -0.5467 -1.5547
 5087TIP3   OH236819   0.032   0.575   8.226  0.1653 -0.1823  0.0540
 5087TIP3    H136820   0.088   0.575   8.148 -0.3058 -1.2103 -0.2997
 5087TIP3    H236821   0.074   0.637   8.285  1.1567 -0.2221 -0.5795
 5088TIP3   OH236822   5.217   4.999   8.426 -0.0120 -0.1440  0.3710
 5088TIP3    H136823   5.286   4.942   8.458 -0.1902 -0.3973  0.3062
 5088TIP3    H236824   5.254   5.087   8.432  0.7429 -0.3628 -0.7424
 5089TIP3   OH236825   6.494   5.756   7.451 -0.6897  0.4102  0.5104
 5089TIP3    H136826   6.401   5.758   7.428 -0.5881 -0.1618  0.0137
 5089TIP3    H236827   6.533   5.699   7.385  0.0314  0.7273  0.6561
 5090TIP3   OH236828   5.089   6.740   0.651 -0.2926  0.0801  0.3000
 5090TIP3    H136829   5.081   6.715   0.559 -3.1187 -1.4189  0.8487
 5090TIP3    H236830   5.113   6.833   0.649 -0.9870  0.2648 -1.9372
 5091TIP3   OH236831   1.659   3.305   7.033 -0.0449 -0.1459  0.7982
 5091TIP3    H136832   1.687   3.319   7.124 -1.3056 -1.0043  1.3373
 5091TIP3    H236833   1.739   3.278   6.988  1.3562  3.3383  0.8725
 5092TIP3   OH236834   3.516   6.571   1.279 -0.2608 -0.2206 -0.1156
 5092TIP3    H136835   3.553   6.575   1.191 -0.0604 -2.1988 -0.1668
 5092TIP3    H236836   3.438   6.517   1.270  1.0511 -2.5212  1.2666
 5093TIP3   OH236837   6.606   0.809   7.564 -0.3119 -0.0849  0.1743
 5093TIP3    H136838   6.634   0.878   7.504 -1.1636 -1.0845 -1.4553
 5093TIP3    H236839   6.625   0.728   7.518  1.4272 -1.0277  2.3827
 5094TIP3   OH236840   5.409   1.161   7.434 -0.2903 -0.1042 -0.0267
 5094TIP3    H136841   5.473   1.149   7.504  0.6642 -1.3200 -1.0804
 5094TIP3    H236842   5.459   1.152   7.353 -1.7443 -0.8577 -0.8863
 5095TIP3   OH236843   3.116   1.308   7.276  0.2851 -0.1106  0.0711
 5095TIP3    H136844   3.071   1.392   7.288 -0.1869 -0.6425  2.5597
 5095TIP3    H236845   3.154   1.314   7.189 -1.9612  1.6288 -0.9144
 5096TIP3   OH236846   2.390   1.969   6.786  0.3405  0.6313 -0.9802
 5096TIP3    H136847   2.397   1.883   6.829 -1.4438  0.5882 -0.6970
 5096TIP3    H236848   2.400   2.032   6.857  0.8694  0.6496 -1.0667
 5097TIP3   OH236849   3.035   1.350   0.668 -0.6111 -0.5047 -0.0464
 5097TIP3    H136850   3.000   1.279   0.614 -0.9831  1.2145 -2.1752
 5097TIP3    H236851   3.039   1.426   0.610  2.0261  0.6685  1.4796
 5098TIP3   OH236852   6.608   2.261   7.865  0.2357 -0.0684  0.2304
 5098TIP3    H136853   6.566   2.223   7.788 -1.0305  1.5337  0.0926
 5098TIP3    H236854   6.547   2.328   7.896  2.6504  2.3903  0.0483
 5099TIP3   OH236855   0.226   3.344   0.092  0.0276 -0.1105 -0.0510
 5099TIP3    H136856   0.236   3.251   0.111  0.1714 -0.2338 -0.6945
 5099TIP3    H236857   0.282   3.359   0.016 -1.5915  0.0513 -1.2696
 5100TIP3   OH236858   1.870   3.355   1.433 -0.0629  0.0951  0.7605
 5100TIP3    H136859   1.840   3.385   1.519  0.2239 -2.3034  1.7749
 5100TIP3    H236860   1.861   3.260   1.436  2.1049 -0.2443 -1.0411
 5101TIP3   OH236861   0.689   2.693   0.175  0.1647 -0.1415 -0.0062
 5101TIP3    H136862   0.768   2.644   0.200  0.9782 -1.0291 -3.7820
 5101TIP3    H236863   0.621   2.626   0.168 -0.1719  0.1678  0.2610
 5102TIP3   OH236864   2.547   3.294   6.839 -0.1602 -0.3791 -0.3571
 5102TIP3    H136865   2.616   3.234   6.810  1.8436  1.9283 -0.7051
 5102TIP3    H236866   2.580   3.380   6.815 -1.1372  1.2289  3.4886
 5103TIP3   OH236867   2.198   6.046   7.015  0.0410  0.7619 -0.4684
 5103TIP3    H136868   2.283   6.002   7.019  0.1164  1.0198  1.3451
 5103TIP3    H236869   2.216   6.130   6.974  0.9414  1.3789  1.1285
 5104TIP3   OH236870   2.372   3.039   1.654 -0.2392  0.1111  0.1710
 5104TIP3    H136871   2.442   2.976   1.634 -0.6679  0.2696 -2.1104
 5104TIP3    H236872   2.418   3.122   1.670  0.1729 -0.1657  0.4360
 5105TIP3   OH236873   1.424   6.703   7.380 -0.1081 -0.1511 -0.3455
 5105TIP3    H136874   1.409   6.693   7.474 -0.5080  0.9889 -0.2811
 5105TIP3    H236875   1.352   6.654   7.340  0.3111 -1.0172 -0.0815
 5106TIP3   OH236876   3.705   3.173   0.948  0.3209  0.5747 -0.9479
 5106TIP3    H136877   3.631   3.210   0.899 -0.7554  0.0780  0.2514
 5106TIP3    H236878   3.666   3.106   1.004  1.8725 -0.6113 -1.2056
 5107TIP3   OH236879   0.610   1.941   0.222  0.5380 -0.2791 -0.7319
 5107TIP3    H136880   0.686   1.938   0.280  0.0867 -0.3455 -0.1363
 5107TIP3    H236881   0.577   2.031   0.231  0.8232 -0.1044 -1.3597
 5108TIP3   OH236882   5.027   5.819   7.869  0.1122  0.0559 -0.2564
 5108TIP3    H136883   5.018   5.886   7.936  0.1075 -1.6417  1.5232
 5108TIP3    H236884   4.943   5.821   7.822 -1.2522 -0.8903  1.9646
 5109TIP3   OH236885   4.615   6.019   8.212  0.6055 -0.4046 -0.1283
 5109TIP3    H136886   4.668   5.949   8.173  0.7409 -1.2387  1.4909
 5109TIP3    H236887   4.532   5.977   8.235 -0.7384  0.8185 -2.3406
 5110TIP3   OH236888   6.658   2.282   7.329  0.2568 -0.1123  0.2091
 5110TIP3    H136889   6.742   2.326   7.319 -0.4201  1.1024 -0.4576
 5110TIP3    H236890   6.610   2.335   7.393 -0.7801  0.5316 -1.0234
 5111TIP3   OH236891   0.622   1.147   0.825  0.3264 -0.7178 -0.2777
 5111TIP3    H136892   0.531   1.162   0.848  0.0963  0.4144 -1.7190
 5111TIP3    H236893   0.670   1.214   0.875  0.1649 -0.2140 -0.7852
 5112TIP3   OH236894   4.475   6.648   7.689  0.0289  0.0979 -0.0168
 5112TIP3    H136895   4.443   6.617   7.604 -1.5757 -0.6186  0.8148
 5112TIP3    H236896   4.539   6.582   7.716 -0.6603 -0.5459  0.0662
 5113TIP3   OH236897   2.257   4.867   6.606  0.0377  0.1556  0.0809
 5113TIP3    H136898   2.232   4.878   6.514  0.7319 -0.3904 -0.1842
 5113TIP3    H236899   2.175   4.868   6.654 -0.3346  0.4090 -0.5530
 5114TIP3   OH236900   5.019   0.369   6.732  0.3654 -0.1839 -0.1812
 5114TIP3    H136901   5.016   0.452   6.684 -0.2422 -0.5786 -0.8469
 5114TIP3    H236902   5.065   0.309   6.674  1.6022 -0.1033  0.6700
 5115TIP3   OH236903   6.882   4.090   1.114 -0.0425  0.3181  0.5136
 5115TIP3    H136904   6.969   4.082   1.074 -0.0402 -0.8123  0.7003
 5115TIP3    H236905   6.821   4.073   1.043 -0.0875  0.4132  0.5299
 5116TIP3   OH236906   1.576   4.473   0.158 -0.3895  0.0874 -0.2264
 5116TIP3    H136907   1.655   4.512   0.196 -0.5892  1.1708 -0.8790
 5116TIP3    H236908   1.505   4.507   0.212 -0.2800 -3.8576  2.8577
 5117TIP3   OH236909   4.064   6.751   0.106  0.1721 -0.2890 -0.2691
 5117TIP3    H136910   4.120   6.677   0.127  0.9216 -0.2259 -1.9243
 5117TIP3    H236911   4.093   6.780   0.020  0.9947  2.9288  0.9369
 5118TIP3   OH236912   4.462   6.438   6.299  0.5449  0.1848  0.3495
 5118TIP3    H136913   4.507   6.454   6.382  2.0058 -0.4864 -0.2727
 5118TIP3    H236914   4.533   6.419   6.237 -0.6278 -1.5833 -0.5337
 5119TIP3   OH236915   3.883   3.869   5.760 -0.3864  0.1515  0.2700
 5119TIP3    H136916   3.803   3.920   5.743 -0.0640  1.2432  1.8304
 5119TIP3    H236917   3.852   3.792   5.807 -0.4427  1.3818  2.4067
 5120TIP3   OH236918   1.115   2.676   7.933  0.3082  0.1938  0.2376
 5120TIP3    H136919   1.062   2.755   7.943  0.8718  0.3575  2.5574
 5120TIP3    H236920   1.053   2.607   7.911 -0.0512  1.4358 -3.1363
 5121TIP3   OH236921   0.024   5.911   7.984  0.2864 -0.2622  0.2486
 5121TIP3    H136922   0.036   5.895   7.891 -0.0693  0.6528  0.0360
 5121TIP3    H236923   0.061   5.998   7.999  0.6326 -0.5284  1.0322
 5122TIP3   OH236924   4.591   6.875   7.104  0.2091 -0.5434  0.2723
 5122TIP3    H136925   4.590   6.958   7.151 -1.2127 -0.6920  0.5498
 5122TIP3    H236926   4.647   6.818   7.157 -1.7201 -0.8485  2.1311
 5123TIP3   OH236927   1.208   4.258   0.344  0.1778 -0.1734  0.2431
 5123TIP3    H136928   1.260   4.282   0.267 -1.3614 -0.2086 -0.8635
 5123TIP3    H236929   1.214   4.162   0.347  0.0857 -0.1867  0.0449
 5124TIP3   OH236930   6.410   1.120   1.730  0.5551  0.1237 -0.0809
 5124TIP3    H136931   6.401   1.197   1.674 -0.8020 -0.1901 -0.3407
 5124TIP3    H236932   6.478   1.143   1.793  1.2247  0.9528 -1.0933
 5125TIP3   OH236933   4.591   6.034   0.322 -0.0052 -0.1699 -0.1674
 5125TIP3    H136934   4.609   5.964   0.258 -0.0403  1.1024 -1.6198
 5125TIP3    H236935   4.513   6.078   0.287 -1.2788 -0.6743  1.8543
 5126TIP3   OH236936   2.882   4.083   7.668 -0.3815  0.6404 -0.3282
 5126TIP3    H136937   2.870   4.165   7.715 -1.7708  0.0151  0.4589
 5126TIP3    H236938   2.805   4.075   7.612 -0.5501 -0.3733  0.0199
 5127TIP3   OH236939   5.970   5.918   7.554  0.6444 -0.4343 -0.1126
 5127TIP3    H136940   5.977   5.996   7.500  1.4260  0.9190  1.8249
 5127TIP3    H236941   5.922   5.855   7.500 -1.3957  1.8821 -1.1976
 5128TIP3   OH236942   1.184   1.886   1.294  0.4577  0.4135  0.0586
 5128TIP3    H136943   1.269   1.923   1.271  0.2839  0.6146 -0.2725
 5128TIP3    H236944   1.170   1.816   1.231  0.0203  0.9078 -0.4045
 5129TIP3   OH236945   4.125   4.597   2.339  0.8137 -0.0730 -0.2111
 5129TIP3    H136946   4.197   4.593   2.403  1.7752 -1.2754 -1.3229
 5129TIP3    H236947   4.140   4.679   2.292  1.2319 -0.1244 -0.1706
 5130TIP3   OH236948   6.256   3.239   1.581  0.3356 -0.0706 -0.1046
 5130TIP3    H136949   6.269   3.153   1.622 -0.1273 -0.3315 -0.4880
 5130TIP3    H236950   6.175   3.271   1.620  0.3008  0.0198 -0.2539
 5131TIP3   OH236951   6.704   6.863   7.393 -0.5346  0.9964 -0.3931
 5131TIP3    H136952   6.693   6.772   7.422 -1.3009  0.8630 -1.0445
 5131TIP3    H236953   6.615   6.898   7.390 -0.5088  1.0116 -2.4451
 5132TIP3   OH236954   1.757   2.505   8.615  0.2111 -0.2629  0.6548
 5132TIP3    H136955   1.733   2.434   8.674  0.8919  1.2380  2.8616
 5132TIP3    H236956   1.675   2.531   8.574  0.2426 -3.7996 -2.1381
 5133TIP3   OH236957   5.881   5.341   2.511  0.0948  0.0594  0.1528
 5133TIP3    H136958   5.938   5.326   2.587 -1.5185 -0.5099  1.3085
 5133TIP3    H236959   5.902   5.270   2.450  2.8389  1.6450 -0.9136
 5134TIP3   OH236960   1.290   5.190   7.374  0.3132  0.4179  0.3230
 5134TIP3    H136961   1.345   5.261   7.406  0.7909 -0.3941  1.3580
 5134TIP3    H236962   1.349   5.134   7.324  0.7572 -1.0546  2.3549
 5135TIP3   OH236963   4.176   5.047   8.546  0.2999 -0.0586  0.6959
 5135TIP3    H136964   4.197   5.046   8.640 -1.8210  0.2200  1.2400
 5135TIP3    H236965   4.108   4.980   8.536 -0.5871  0.9445 -0.3319
 5136TIP3   OH236966   5.701   5.518   0.852  0.4443  0.1976  0.4957
 5136TIP3    H136967   5.793   5.528   0.828  0.6098 -1.5028  0.2802
 5136TIP3    H236968   5.658   5.488   0.772  0.0085 -0.5063  0.9824
 5137TIP3   OH236969   0.480   0.214   7.372 -0.0466  0.1501 -0.0187
 5137TIP3    H136970   0.398   0.164   7.369  0.1282 -0.0920 -1.3971
 5137TIP3    H236971   0.544   0.153   7.410 -0.4134  0.2228  0.7350
 5138TIP3   OH236972   3.975   1.047   6.876 -0.0464  0.1644 -1.0916
 5138TIP3    H136973   4.008   1.058   6.787 -1.2279  1.1033 -1.4396
 5138TIP3    H236974   4.042   1.087   6.931  0.0405  0.8620 -1.6826
 5139TIP3   OH236975   3.262   4.866   6.248  0.2309 -0.1576  0.6306
 5139TIP3    H136976   3.188   4.912   6.209  0.1186 -2.6416 -2.5467
 5139TIP3    H236977   3.222   4.805   6.310 -0.1048  0.4449  1.0095
 5140TIP3   OH236978   2.432   4.750   6.951 -0.0499 -0.1052 -0.5303
 5140TIP3    H136979   2.449   4.676   7.010  1.2327  1.0086  0.5575
 5140TIP3    H236980   2.502   4.812   6.969  0.0376  0.5753 -2.8056
 5141TIP3   OH236981   1.637   5.539   8.359  0.2189  0.4224 -0.0508
 5141TIP3    H136982   1.696   5.568   8.289  0.6056  1.8595  0.8311
 5141TIP3    H236983   1.577   5.613   8.371 -3.1959 -1.6768 -2.3058
 5142TIP3   OH236984   3.714   1.172   8.168 -0.3042 -0.1359 -0.1197
 5142TIP3    H136985   3.745   1.178   8.258  0.9191  0.2317 -0.5421
 5142TIP3    H236986   3.793   1.153   8.117 -0.9983 -0.4704 -1.0999
 5143TIP3   OH236987   0.457   5.696   7.242  0.5320  0.2472 -0.4758
 5143TIP3    H136988   0.446   5.790   7.259 -1.2657 -0.0306  0.0070
 5143TIP3    H236989   0.386   5.674   7.183  1.1843 -0.7486 -0.9084
 5144TIP3   OH236990   1.137   4.693   0.142  0.1271  0.3815  0.1103
 5144TIP3    H136991   1.108   4.603   0.131  2.2612 -0.2706 -0.6556
 5144TIP3    H236992   1.171   4.718   0.056  0.7916  1.4450  0.6640
 5145TIP3   OH236993   2.172   0.670   7.715  0.5307 -0.0794  0.3083
 5145TIP3    H136994   2.081   0.698   7.722  1.0128  1.2923  1.5507
 5145TIP3    H236995   2.188   0.663   7.621 -0.8942 -0.5158  0.0727
 5146TIP3   OH236996   3.997   6.396   1.602  0.0124  0.0012 -0.3171
 5146TIP3    H136997   3.931   6.429   1.663 -0.2628 -1.4186  0.1998
 5146TIP3    H236998   4.038   6.474   1.565  1.0688  0.9359  2.6023
 5147TIP3   OH236999   1.251   4.483   1.482  0.5010  0.6920  0.0525
 5147TIP3    H137000   1.336   4.510   1.448  1.0985  1.4080  2.0041
 5147TIP3    H237001   1.265   4.469   1.575 -1.4493  0.4438  0.3566
 5148TIP3   OH237002   0.122   2.667   1.214  0.1519 -0.4768 -0.3207
 5148TIP3    H137003   0.212   2.650   1.188 -0.0047  0.4382 -1.5439
 5148TIP3    H237004   0.129   2.730   1.286  0.5125 -1.3916  0.4659
 5149TIP3   OH237005   3.448   1.104   0.637  0.2809 -0.1341 -0.0505
 5149TIP3    H137006   3.497   1.049   0.699  0.0376 -1.9380 -1.3615
 5149TIP3    H237007   3.367   1.126   0.684  0.8555  0.0247  0.8950
 5150TIP3   OH237008   4.906   3.732   0.164  0.5640  0.0403  0.8572
 5150TIP3    H137009   4.882   3.693   0.080  1.6459  0.4298  0.3384
 5150TIP3    H237010   4.924   3.824   0.142 -2.6003  1.1037  2.1505
 5151TIP3   OH237011   4.133   3.691   7.733  0.1233  0.3783  0.2008
 5151TIP3    H137012   4.088   3.773   7.752  0.4042  0.6975 -0.4837
 5151TIP3    H237013   4.098   3.628   7.797  1.3703  1.5157  2.1259
 5152TIP3   OH237014   1.432   6.570   8.535 -0.2860  0.7924  0.0898
 5152TIP3    H137015   1.523   6.571   8.506 -0.8369  0.7629 -1.7511
 5152TIP3    H237016   1.436   6.598   8.627  1.7536 -1.1302  0.6750
 5153TIP3   OH237017   1.756   1.313   8.510 -0.0458 -0.0493  0.0881
 5153TIP3    H137018   1.758   1.364   8.429 -0.1750  0.3811  0.3577
 5153TIP3    H237019   1.844   1.276   8.516 -0.3389 -0.9430 -0.7924
 5154TIP3   OH237020   4.681   1.820   2.174 -0.0864 -0.0598 -0.5559
 5154TIP3    H137021   4.738   1.772   2.114 -1.2564 -1.4164 -0.6713
 5154TIP3    H237022   4.606   1.845   2.120 -0.5667 -0.1822  0.0388
 5155TIP3   OH237023   2.975   0.897   1.047 -0.0429  0.3110  0.2058
 5155TIP3    H137024   3.034   0.971   1.030 -2.2482  1.8357 -1.4486
 5155TIP3    H237025   3.022   0.821   1.013  2.0098  0.9831  1.3262
 5156TIP3   OH237026   0.571   2.896   8.637 -0.0953  0.0413  0.1852
 5156TIP3    H137027   0.580   2.990   8.621  0.2225 -0.4058 -2.8702
 5156TIP3    H237028   0.613   2.882   8.722  0.8509  2.4719  0.1940
 5157TIP3   OH237029   0.467   3.842   8.145  0.2388  0.0210  0.0579
 5157TIP3    H137030   0.533   3.829   8.077  0.3020 -1.2868  0.3578
 5157TIP3    H237031   0.409   3.910   8.108  1.1920  0.5008 -0.5985
 5158TIP3   OH237032   2.148   4.466   1.655  0.1889 -0.1417 -0.1113
 5158TIP3    H137033   2.116   4.376   1.667  0.7545 -0.1779  1.2853
 5158TIP3    H237034   2.228   4.470   1.707  0.2463  1.1307 -0.2768
 5159TIP3   OH237035   3.427   5.817   2.483  0.1695  0.0262 -0.0007
 5159TIP3    H137036   3.408   5.761   2.408  2.1910  1.9199 -2.0744
 5159TIP3    H237037   3.522   5.815   2.491  0.2239  2.3097  0.4915
 5160TIP3   OH237038   3.723   2.524   1.141  0.1074 -0.4784 -0.0902
 5160TIP3    H137039   3.682   2.453   1.093 -0.6208  0.7885 -1.4109
 5160TIP3    H237040   3.817   2.513   1.125 -0.0507 -0.7048 -0.9025
 5161TIP3   OH237041   0.882   0.598   0.661 -0.0233 -0.4495  0.5830
 5161TIP3    H137042   0.903   0.682   0.621  0.6952 -0.7679  0.2670
 5161TIP3    H237043   0.792   0.581   0.633 -0.5203  0.6541  1.4510
 5162TIP3   OH237044   3.508   3.626   0.451  0.4005  0.1810 -0.2175
 5162TIP3    H137045   3.584   3.650   0.397  0.0167  1.0033 -0.4089
 5162TIP3    H237046   3.540   3.635   0.541  1.0556 -1.2438 -0.2772
 5163TIP3   OH237047   4.842   3.788   7.269  0.4478 -0.1262  0.4716
 5163TIP3    H137048   4.894   3.707   7.275  1.1222  0.2844  0.2602
 5163TIP3    H237049   4.752   3.758   7.277  0.6876 -0.9071  0.4062
 5164TIP3   OH237050   3.473   2.978   2.403 -0.5091 -0.0571 -0.0098
 5164TIP3    H137051   3.529   3.032   2.348 -1.5131  0.9489 -0.0897
 5164TIP3    H237052   3.528   2.953   2.477  0.5050 -0.4486 -0.8862
 5165TIP3   OH237053   4.842   3.118   2.457 -0.4402 -0.1155  0.0966
 5165TIP3    H137054   4.906   3.099   2.388  0.4889  0.4392  0.7912
 5165TIP3    H237055   4.865   3.058   2.528  1.2134  2.0274  1.5007
 5166TIP3   OH237056   1.550   0.554   0.131 -0.0283 -0.3821  0.5227
 5166TIP3    H137057   1.498   0.560   0.211 -1.9288 -0.3646 -0.6550
 5166TIP3    H237058   1.486   0.540   0.062  1.4972  0.3848 -1.1180
 5167TIP3   OH237059   5.278   0.657   7.019 -0.2978 -0.2331 -0.0712
 5167TIP3    H137060   5.278   0.570   7.057 -0.6509 -0.3104 -0.2497
 5167TIP3    H237061   5.352   0.657   6.958  0.8353  0.1765  1.2585
 5168TIP3   OH237062   2.290   3.598   2.108  0.1589  0.1972 -0.4160
 5168TIP3    H137063   2.373   3.638   2.083  1.5270 -2.2366 -0.1820
 5168TIP3    H237064   2.287   3.516   2.057 -2.8986  0.8967 -1.6078
 5169TIP3   OH237065   3.946   3.760   2.613  0.5913 -0.7937  0.0509
 5169TIP3    H137066   4.014   3.765   2.680  2.1359 -3.3680 -1.1567
 5169TIP3    H237067   3.962   3.836   2.557 -0.3503  1.0597  2.1275
 5170TIP3   OH237068   1.822   5.549   0.218  0.1885  0.6961 -0.5441
 5170TIP3    H137069   1.875   5.622   0.186 -0.1268  2.4923  2.5773
 5170TIP3    H237070   1.828   5.555   0.314  0.7486 -3.8936 -0.0377
 5171TIP3   OH237071   0.498   5.062   2.331  0.2716  0.0259  0.7418
 5171TIP3    H137072   0.561   5.011   2.280  1.1078  0.4626  1.3161
 5171TIP3    H237073   0.506   5.027   2.420  0.0128  0.3763  0.9050
 5172TIP3   OH237074   4.166   6.100   7.675  0.1294 -0.0748  0.4511
 5172TIP3    H137075   4.145   6.148   7.595 -0.1934 -0.6893  0.1583
 5172TIP3    H237076   4.095   6.037   7.684  1.1761 -1.3539  0.1230
 5173TIP3   OH237077   4.071   4.068   1.667 -0.4975 -0.3757 -0.1370
 5173TIP3    H137078   4.121   3.991   1.691  0.0282  0.4968  1.7090
 5173TIP3    H237079   3.983   4.051   1.700 -0.4669 -0.3376 -0.0350
 5174TIP3   OH237080   6.141   0.771   0.118 -0.1174 -0.2613  0.0407
 5174TIP3    H137081   6.179   0.805   0.038  0.8773 -1.3392  0.0375
 5174TIP3    H237082   6.198   0.804   0.188  0.5032 -1.3729  0.0842
 5175TIP3   OH237083   1.694   5.382   7.621  0.6527  0.3190 -0.4449
 5175TIP3    H137084   1.723   5.471   7.601 -0.7568  0.5114 -1.7919
 5175TIP3    H237085   1.775   5.334   7.640  1.6176  1.4113 -1.6321
 5176TIP3   OH237086   4.663   4.056   1.507  0.4578  0.4051  0.1865
 5176TIP3    H137087   4.733   4.000   1.473  0.3672  1.5184 -2.0540
 5176TIP3    H237088   4.672   4.138   1.457 -1.5592  1.0820  0.8473
 5177TIP3   OH237089   3.203   0.938   7.972 -0.3777 -0.5390 -0.0064
 5177TIP3    H137090   3.199   0.884   8.051 -0.3639 -1.8924 -0.9088
 5177TIP3    H237091   3.259   0.889   7.912  1.2786  1.4211 -0.1688
 5178TIP3   OH237092   3.080   4.680   8.636 -0.1105  0.3672 -0.4604
 5178TIP3    H137093   3.069   4.707   8.727  0.7676 -0.7155 -0.0054
 5178TIP3    H237094   3.011   4.726   8.589 -0.2889  1.3146  0.6708
 5179TIP3   OH237095   4.227   3.014   1.909  0.4408 -0.6905 -0.0468
 5179TIP3    H137096   4.233   2.987   2.000 -0.0180 -0.1057  0.1696
 5179TIP3    H237097   4.285   3.090   1.903  0.7739 -0.9651 -0.3414
 5180TIP3   OH237098   6.301   0.863   7.994  0.0259 -0.8504 -0.6348
 5180TIP3    H137099   6.215   0.862   7.952 -0.2904  2.6649 -0.3563
 5180TIP3    H237100   6.281   0.870   8.088  0.6976 -2.5748 -0.3255
 5181TIP3   OH237101   6.654   3.571   6.905 -0.2798 -0.2375  0.0420
 5181TIP3    H137102   6.584   3.628   6.938 -0.4906 -0.8461  0.6766
 5181TIP3    H237103   6.686   3.615   6.826 -0.7062  0.5514  0.3007
 5182TIP3   OH237104   0.622   2.834   2.121 -0.1468 -0.2853 -0.3031
 5182TIP3    H137105   0.602   2.758   2.067 -2.4746  0.1286 -0.1217
 5182TIP3    H237106   0.582   2.908   2.074  2.5534  0.9991 -0.7936
 5183TIP3   OH237107   4.100   1.643   7.132  0.0171 -0.2214 -0.5829
 5183TIP3    H137108   4.054   1.657   7.214  1.2931  0.5450  0.0261
 5183TIP3    H237109   4.174   1.703   7.135  1.5465 -1.9928 -1.1515
 5184TIP3   OH237110   4.612   2.979   7.281  0.2093 -0.2168 -0.1259
 5184TIP3    H137111   4.620   2.909   7.216 -1.9846  1.0343 -1.8685
 5184TIP3    H237112   4.680   3.042   7.257 -0.4964  0.1713 -1.1453
 5185TIP3   OH237113   5.608   2.509   6.614  0.2550  0.0844 -0.1484
 5185TIP3    H137114   5.582   2.601   6.614 -0.9137 -0.2235  0.5713
 5185TIP3    H237115   5.670   2.501   6.541 -1.3689  0.9696 -1.7028
 5186TIP3   OH237116   1.274   0.549   1.401 -0.8238  0.5840  0.1080
 5186TIP3    H137117   1.307   0.605   1.472  0.6822  0.2750 -0.3150
 5186TIP3    H237118   1.251   0.467   1.445 -0.3908  0.5749  0.3286
 5187TIP3   OH237119   2.238   0.841   1.787  0.5289  0.1401  0.1031
 5187TIP3    H137120   2.243   0.821   1.881 -1.1485 -1.1232 -0.0334
 5187TIP3    H237121   2.152   0.881   1.776  0.5677 -0.0539 -0.9701
 5188TIP3   OH237122   1.303   4.974   0.480 -0.3293 -0.7566  0.1938
 5188TIP3    H137123   1.366   4.930   0.423  0.1707 -0.8231  0.7838
 5188TIP3    H237124   1.253   5.031   0.421  1.3126  0.4825 -0.0830
 5189TIP3   OH237125   4.460   3.368   7.954 -0.5720 -0.1426 -0.1958
 5189TIP3    H137126   4.485   3.455   7.987  0.7471 -0.7200  0.3973
 5189TIP3    H237127   4.401   3.333   8.021 -1.2481  0.3405 -0.5190
 5190TIP3   OH237128   0.624   2.282   7.223 -0.1709 -0.3223  0.8647
 5190TIP3    H137129   0.658   2.322   7.303  1.6495 -0.5121  0.2537
 5190TIP3    H237130   0.649   2.190   7.230 -3.0986 -1.1654  1.6227
 5191TIP3   OH237131   4.490   3.024   2.140  0.2733  0.1256  0.0850
 5191TIP3    H137132   4.513   3.029   2.233  0.8791 -0.6435 -0.0143
 5191TIP3    H237133   4.409   2.973   2.138 -0.8923  1.8397  0.3321
 5192TIP3   OH237134   4.545   1.088   8.524  0.6068  0.4512 -0.0290
 5192TIP3    H137135   4.498   1.124   8.449 -0.9756 -2.4455 -0.5696
 5192TIP3    H237136   4.482   1.031   8.568  1.9348  0.8992  2.7049
 5193TIP3   OH237137   3.888   3.237   6.963  0.3155 -0.0484  0.0179
 5193TIP3    H137138   3.881   3.264   7.055  0.1592 -0.4027  0.1146
 5193TIP3    H237139   3.969   3.277   6.932 -0.1363  0.8921  0.0246
 5194TIP3   OH237140   5.844   3.772   7.141 -0.2737 -0.1725 -0.3988
 5194TIP3    H137141   5.785   3.696   7.141  0.6486 -0.8997 -0.4191
 5194TIP3    H237142   5.825   3.816   7.059  0.5123 -1.4468 -1.2972
 5195TIP3   OH237143   0.822   5.891   0.653  0.1929  0.2805 -0.0759
 5195TIP3    H137144   0.774   5.814   0.683  2.3353 -0.9664  0.3572
 5195TIP3    H237145   0.893   5.902   0.717  0.6240  1.9141 -0.7745
 5196TIP3   OH237146   3.099   1.676   1.016  0.4995  0.4153  0.2149
 5196TIP3    H137147   3.065   1.655   0.928 -0.4999  0.0572  0.6682
 5196TIP3    H237148   3.192   1.695   1.002  0.7301 -1.2238 -0.6827
 5197TIP3   OH237149   4.267   6.788   0.407 -0.2137 -0.4787  0.2819
 5197TIP3    H137150   4.246   6.695   0.398 -0.3305 -0.5609  1.2811
 5197TIP3    H237151   4.184   6.833   0.387  0.4335 -0.3942 -2.8132
 5198TIP3   OH237152   3.924   0.265   7.683 -0.2393  0.6522  0.1445
 5198TIP3    H137153   3.875   0.318   7.746  1.4978  2.2569  0.2435
 5198TIP3    H237154   3.867   0.259   7.607 -0.2387  3.4661 -0.2026
 5199TIP3   OH237155   2.505   5.519   8.061 -0.7498  0.0133 -0.3885
 5199TIP3    H137156   2.489   5.465   7.984 -0.4147 -1.6731  0.6684
 5199TIP3    H237157   2.419   5.535   8.099 -0.9145  0.8479 -1.0904
 5200TIP3   OH237158   2.908   5.669   0.965  0.1128 -0.0000 -0.1668
 5200TIP3    H137159   2.998   5.668   0.935  0.6012  1.4299  1.1120
 5200TIP3    H237160   2.887   5.762   0.976 -2.3145 -0.1308 -2.6301
 5201TIP3   OH237161   4.694   5.369   1.224  0.1457  0.0747  0.1733
 5201TIP3    H137162   4.691   5.303   1.294 -0.2311 -0.1879 -0.0870
 5201TIP3    H237163   4.773   5.420   1.242  1.2839 -1.4006 -0.4867
 5202TIP3   OH237164   6.246   5.333   0.302 -0.4669  0.1744 -0.5228
 5202TIP3    H137165   6.195   5.263   0.343  2.9297 -1.0780  1.9915
 5202TIP3    H237166   6.260   5.302   0.212 -2.4008 -0.3293 -0.6996
 5203TIP3   OH237167   0.291   2.608   8.608 -0.6421 -0.3662 -0.3819
 5203TIP3    H137168   0.309   2.701   8.593  1.6066 -0.6254  0.2853
 5203TIP3    H237169   0.225   2.585   8.542  0.0260  1.2965 -1.7025
 5204TIP3   OH237170   2.415   6.212   6.871  0.0446  0.0349  0.4283
 5204TIP3    H137171   2.438   6.122   6.849 -0.8610 -0.5926  1.9178
 5204TIP3    H237172   2.467   6.266   6.811  0.3016 -1.4750 -0.7574
 5205TIP3   OH237173   0.971   4.547   0.775 -0.3121  0.6546  0.4792
 5205TIP3    H137174   1.036   4.479   0.758 -0.3916  0.8524 -0.6929
 5205TIP3    H237175   0.902   4.531   0.711 -1.3189  0.5873  1.5560
 5206TIP3   OH237176   4.280   3.165   8.028  0.2910 -0.2249 -0.0096
 5206TIP3    H137177   4.188   3.187   8.043  0.2940 -0.1398 -0.1131
 5206TIP3    H237178   4.303   3.106   8.100  0.0333 -0.5818 -0.2159
 5207TIP3   OH237179   3.799   3.757   0.527  0.4715 -0.0388 -0.6417
 5207TIP3    H137180   3.800   3.717   0.614 -3.6241  0.7726 -0.0072
 5207TIP3    H237181   3.811   3.851   0.544  2.5419 -0.1300 -1.3428
 5208TIP3   OH237182   5.187   0.803   2.124  0.3319  0.1813  0.1143
 5208TIP3    H137183   5.119   0.826   2.187  0.9427  2.6438 -0.0286
 5208TIP3    H237184   5.267   0.840   2.160  1.0864 -0.2718 -1.0469
 5209TIP3   OH237185   0.774   3.700   1.147  0.8990 -0.1066  0.3573
 5209TIP3    H137186   0.806   3.769   1.089  1.0409 -1.3060 -1.0494
 5209TIP3    H237187   0.696   3.738   1.189  0.8534  0.8337 -0.5292
 5210TIP3   OH237188   1.953   1.515   7.070  0.9304  0.3229  0.4391
 5210TIP3    H137189   1.925   1.556   6.989  0.3806 -0.7448  0.0697
 5210TIP3    H237190   2.048   1.526   7.071  0.7126  2.6524  0.9675
 5211TIP3   OH237191   2.849   1.189   8.420 -0.0352  0.0019  0.1828
 5211TIP3    H137192   2.866   1.156   8.331  2.5557 -0.6310  0.8217
 5211TIP3    H237193   2.798   1.120   8.462  0.0881 -0.4272 -0.3561
 5212TIP3   OH237194   0.755   1.502   7.819 -0.1662 -0.7485 -0.2806
 5212TIP3    H137195   0.781   1.485   7.729 -1.5234 -2.9642 -0.3322
 5212TIP3    H237196   0.671   1.548   7.811  0.5472  0.6241 -0.1144
 5213TIP3   OH237197   0.521   4.937   1.532  0.1869  0.5878 -0.0427
 5213TIP3    H137198   0.588   4.888   1.580 -1.5983 -1.0999  0.9091
 5213TIP3    H237199   0.501   4.882   1.456  0.1669  1.2831 -0.5512
 5214TIP3   OH237200   2.978   4.336   1.073  0.2894  0.0484  0.0762
 5214TIP3    H137201   2.962   4.255   1.121  0.0759  0.6652  1.0881
 5214TIP3    H237202   3.040   4.385   1.127  1.5496 -0.0445 -1.2320
 5215TIP3   OH237203   1.391   3.358   0.743 -0.3377  0.3514  0.1056
 5215TIP3    H137204   1.478   3.396   0.746 -0.1753 -0.0624  1.1802
 5215TIP3    H237205   1.406   3.264   0.735 -0.6766  0.2768  0.3049
 5216TIP3   OH237206   0.552   3.432   7.833 -0.2748  0.1499 -0.0620
 5216TIP3    H137207   0.510   3.516   7.816  1.3439  0.6188 -2.1506
 5216TIP3    H237208   0.568   3.432   7.927 -2.0396  1.2911  0.2903
 5217TIP3   OH237209   2.468   5.447   0.456  0.2360 -0.4399  0.0680
 5217TIP3    H137210   2.410   5.466   0.530 -0.3868  0.9188 -0.7222
 5217TIP3    H237211   2.423   5.378   0.407 -0.5847  0.3643 -0.3496
 5218TIP3   OH237212   0.415   2.945   0.731 -0.4333  0.2304  0.1073
 5218TIP3    H137213   0.475   2.989   0.791 -0.9612  1.0995  0.0054
 5218TIP3    H237214   0.406   3.005   0.657 -0.7234 -0.3009 -0.3010
 5219TIP3   OH237215   3.267   2.772   6.530  0.3800 -0.3740 -0.2730
 5219TIP3    H137216   3.217   2.691   6.533  2.2144 -1.5789 -0.1809
 5219TIP3    H237217   3.356   2.744   6.506  1.4972  1.3618  1.5238
 5220TIP3   OH237218   5.800   6.195   0.842  0.6462 -0.1915  0.2055
 5220TIP3    H137219   5.890   6.163   0.844  1.6333  2.4016  0.9521
 5220TIP3    H237220   5.765   6.175   0.929  0.9325 -0.0565  0.3508
 5221TIP3   OH237221   3.353   5.286   7.026  0.0540 -0.3804  0.6999
 5221TIP3    H137222   3.423   5.224   7.005  1.7734  1.1682  1.5524
 5221TIP3    H237223   3.323   5.318   6.941  1.5663  0.1464  0.3296
 5222TIP3   OH237224   5.615   1.734   2.196 -0.3266 -0.2239  0.0305
 5222TIP3    H137225   5.662   1.674   2.254  0.0648 -0.8323 -0.8913
 5222TIP3    H237226   5.544   1.769   2.250  1.3904  1.0468  1.5949
 5223TIP3   OH237227   1.745   1.669   1.651 -0.2146 -0.1706 -0.2224
 5223TIP3    H137228   1.783   1.755   1.667  1.7329 -1.1472  0.8367
 5223TIP3    H237229   1.655   1.675   1.682  0.4393  0.9708  1.5638
 5224TIP3   OH237230   6.428   3.869   1.360  0.6038  0.0593 -0.0102
 5224TIP3    H137231   6.497   3.935   1.353  0.8422  0.0809  1.9763
 5224TIP3    H237232   6.358   3.913   1.408  0.2076 -0.7203  0.1438
 5225TIP3   OH237233   0.355   4.357   7.110  0.0181 -0.0004 -0.8155
 5225TIP3    H137234   0.359   4.293   7.181 -2.1965  0.7747  0.0874
 5225TIP3    H237235   0.411   4.429   7.139 -0.4528  0.0788 -0.0813
 5226TIP3   OH237236   1.354   0.235   0.141  0.3690  0.3637 -0.4307
 5226TIP3    H137237   1.293   0.163   0.122 -1.7373  1.9606 -0.1173
 5226TIP3    H237238   1.369   0.229   0.235 -0.5285  0.8290 -0.2447
 5227TIP3   OH237239   5.964   3.058   7.083 -0.0842 -0.3821  0.1275
 5227TIP3    H137240   5.923   3.091   7.002 -0.0739 -1.3318 -0.2806
 5227TIP3    H237241   5.950   2.964   7.079  0.6002 -0.5174  0.8685
 5228TIP3   OH237242   3.704   0.017   7.507 -0.3444  0.1600  0.4164
 5228TIP3    H137243   3.712  -0.045   7.434 -0.0997  0.4222  0.2135
 5228TIP3    H237244   3.656  -0.030   7.574 -3.2628  0.8404 -0.9907
 5229TIP3   OH237245   3.443   4.855   7.347 -0.1895  0.4432  0.4402
 5229TIP3    H137246   3.367   4.799   7.362  0.4781 -0.4190  0.7335
 5229TIP3    H237247   3.513   4.794   7.321  0.6856  1.0799  1.2019
 5230TIP3   OH237248   3.542   3.666   0.730  0.9242 -0.0642 -0.6276
 5230TIP3    H137249   3.552   3.581   0.774  1.1085  0.0788 -0.3861
 5230TIP3    H237250   3.619   3.716   0.758 -1.2124  1.7307  2.7546
 5231TIP3   OH237251   4.093   0.677   7.688 -0.3554  0.6078 -0.5147
 5231TIP3    H137252   4.113   0.770   7.687  2.4254  0.1045 -0.0586
 5231TIP3    H237253   4.173   0.635   7.659 -0.5871 -1.7761  1.8924
 5232TIP3   OH237254   6.230   3.351   0.118 -0.4179  0.3170 -0.2712
 5232TIP3    H137255   6.320   3.322   0.103 -0.5384 -0.0860 -0.2033
 5232TIP3    H237256   6.211   3.327   0.209 -1.0087 -0.7028 -0.6496
 5233TIP3   OH237257   0.371   2.834   8.122 -0.6117  0.1282  0.0219
 5233TIP3    H137258   0.432   2.801   8.188 -0.2807  0.4811 -0.1023
 5233TIP3    H237259   0.291   2.854   8.170  0.1725  2.0273  0.6445
 5234TIP3   OH237260   1.461   0.573   2.547  0.4485  0.7650  0.3118
 5234TIP3    H137261   1.429   0.646   2.494  0.5547  1.1591  0.7824
 5234TIP3    H237262   1.522   0.613   2.609  0.1044  0.3635  0.9237
 5235TIP3   OH237263   3.965   6.849   1.242 -0.0691  0.0105 -0.1105
 5235TIP3    H137264   3.894   6.806   1.195  1.2437 -0.3737 -1.8495
 5235TIP3    H237265   4.036   6.855   1.178  2.1490 -1.3299  2.0623
 5236TIP3   OH237266   2.746   3.233   6.534 -0.4882  0.2899  0.1998
 5236TIP3    H137267   2.802   3.310   6.536 -1.9643  1.4298 -0.5181
 5236TIP3    H237268   2.657   3.268   6.525 -1.0875 -1.5090 -1.7868
 5237TIP3   OH237269   5.165   3.512   1.999  0.3601 -0.3680  0.3781
 5237TIP3    H137270   5.258   3.489   2.003 -0.0551 -2.5829 -1.0240
 5237TIP3    H237271   5.124   3.453   2.062 -0.2357 -0.3854 -0.0227
 5238TIP3   OH237272   4.601   6.627   0.187  0.8208  0.4941  0.5322
 5238TIP3    H137273   4.633   6.675   0.111  0.4233  0.6672  0.4726
 5238TIP3    H237274   4.570   6.544   0.152  0.2877  0.7261  0.4519
 5239TIP3   OH237275   2.986   2.764   1.500 -0.5094  0.3501  0.4990
 5239TIP3    H137276   2.916   2.789   1.439  1.1547  0.0302 -1.6792
 5239TIP3    H237277   3.025   2.686   1.461  0.8254  0.3008  1.8406
 5240TIP3   OH237278   6.635   5.577   7.287  0.2396  0.3860 -0.0388
 5240TIP3    H137279   6.699   5.523   7.332 -0.9246  0.9701  2.5240
 5240TIP3    H237280   6.687   5.637   7.234  1.6393 -1.2652 -0.6320
 5241TIP3   OH237281   4.584   1.315   8.178  0.2039  0.2532  0.1255
 5241TIP3    H137282   4.551   1.375   8.245  0.1848 -0.8077  1.0971
 5241TIP3    H237283   4.672   1.346   8.159  0.2803  0.4506  0.7819
 5242TIP3   OH237284   2.287   6.867   2.406 -0.0818 -0.5116  0.8900
 5242TIP3    H137285   2.239   6.784   2.409 -0.4079 -0.3102  1.5543
 5242TIP3    H237286   2.378   6.841   2.391 -0.4756 -0.8558 -1.2437
 5243TIP3   OH237287   3.041   5.230   8.199  0.1521  0.1549  0.6964
 5243TIP3    H137288   3.006   5.225   8.110 -0.7388  2.7232  0.8372
 5243TIP3    H237289   3.120   5.283   8.192 -0.3566  1.0596  1.5309
 5244TIP3   OH237290   2.060   1.253   1.805  0.3092  0.4559 -0.0068
 5244TIP3    H137291   2.147   1.293   1.813  0.2447  1.0135 -1.6913
 5244TIP3    H237292   2.005   1.323   1.769 -0.2740 -0.5640 -1.1520
 5245TIP3   OH237293   3.830   5.521   6.773 -0.3944 -0.2928 -0.0293
 5245TIP3    H137294   3.866   5.500   6.687 -0.2032  0.3153 -0.1014
 5245TIP3    H237295   3.850   5.445   6.827  1.4131  0.2026  0.0623
 5246TIP3   OH237296   2.422   1.392   7.860  0.2278  0.6364  0.6354
 5246TIP3    H137297   2.416   1.447   7.939  0.5135 -0.0740  1.1541
 5246TIP3    H237298   2.379   1.310   7.885 -0.2702  0.6393 -0.1660
 5247TIP3   OH237299   5.366   5.242   8.450 -0.5309  0.6776 -0.1717
 5247TIP3    H137300   5.310   5.319   8.441 -0.8757  0.6717  1.6571
 5247TIP3    H237301   5.451   5.269   8.414 -1.2047  1.2111 -1.4462
 5248TIP3   OH237302   4.117   3.098   1.250  0.3352  0.1772 -0.3197
 5248TIP3    H137303   4.210   3.119   1.242  0.0469  2.0518  0.8639
 5248TIP3    H237304   4.105   3.078   1.343 -0.4586 -0.0831 -0.4732
 5249TIP3   OH237305   0.851   5.608   0.394  0.5682  0.1543 -0.4237
 5249TIP3    H137306   0.768   5.599   0.347 -1.3353 -0.0295  2.6872
 5249TIP3    H237307   0.884   5.694   0.369 -1.6623  1.1323 -0.1610
 5250TIP3   OH237308   1.861   0.215   1.303  0.6058  0.0071 -0.8819
 5250TIP3    H137309   1.891   0.173   1.383 -0.3353 -0.3565 -0.7039
 5250TIP3    H237310   1.932   0.274   1.278  0.0991  1.6881  1.3496
 5251TIP3   OH237311   6.498   4.147   0.272 -0.3837 -0.0692 -0.0890
 5251TIP3    H137312   6.406   4.164   0.255  0.2669  0.5769 -3.9117
 5251TIP3    H237313   6.514   4.061   0.233  1.0742  0.9705 -1.9974
 5252TIP3   OH237314   6.151   3.773   1.225 -0.5910  0.3017 -0.4337
 5252TIP3    H137315   6.062   3.800   1.200 -1.3585 -0.6880  1.0365
 5252TIP3    H237316   6.176   3.836   1.293 -0.6286 -0.0797 -0.0648
 5253TIP3   OH237317   3.340   6.793   1.359 -0.4404 -0.4596 -0.6324
 5253TIP3    H137318   3.294   6.748   1.430 -1.6558 -0.3738 -1.3339
 5253TIP3    H237319   3.426   6.752   1.356 -0.1680 -0.0920  1.2367
 5254TIP3   OH237320   2.024   2.409   0.849 -0.3039 -0.7196 -0.2060
 5254TIP3    H137321   2.098   2.351   0.833  0.1025  0.1845 -1.7718
 5254TIP3    H237322   1.950   2.366   0.806 -0.4472 -1.0636  0.3794
 5255TIP3   OH237323   2.036   5.837   1.492 -0.9010  0.4952  0.3886
 5255TIP3    H137324   2.053   5.905   1.558  0.2997  0.3396  0.2716
 5255TIP3    H237325   1.993   5.767   1.540 -0.3649  0.5363  0.9433
 5256TIP3   OH237326   3.385   5.940   6.570 -0.0755 -0.3002  0.0253
 5256TIP3    H137327   3.413   6.022   6.529  1.7942 -1.0066 -0.2103
 5256TIP3    H237328   3.289   5.943   6.566 -0.0196  0.9220 -1.8688
 5257TIP3   OH237329   1.047   0.174   6.478 -0.3088  0.3055  0.2912
 5257TIP3    H137330   1.045   0.267   6.499 -1.1382  0.5408 -0.7480
 5257TIP3    H237331   1.025   0.131   6.561 -1.8412  1.1295  0.3670
 5258TIP3   OH237332   6.697   2.237   0.526 -0.2486 -0.0328 -0.2639
 5258TIP3    H137333   6.696   2.177   0.450 -0.5261 -0.6982  0.2539
 5258TIP3    H237334   6.713   2.323   0.488 -0.6539 -0.3186 -1.1143
 5259TIP3   OH237335   4.570   0.240   7.239 -0.0916  0.1283  0.2146
 5259TIP3    H137336   4.620   0.298   7.182 -0.7949  0.8252  0.3000
 5259TIP3    H237337   4.518   0.298   7.294 -1.3428 -0.5797 -0.1707
 5260TIP3   OH237338   1.592   4.869   0.073  0.0608 -0.0513  0.2519
 5260TIP3    H137339   1.684   4.853   0.094 -0.1650  0.2209  1.5398
 5260TIP3    H237340   1.556   4.911   0.151 -1.4511 -1.2286  0.2472
 5261TIP3   OH237341   4.422   1.355   7.957  0.1734 -0.1040  0.5051
 5261TIP3    H137342   4.487   1.405   7.908 -1.4963  1.3026 -0.4343
 5261TIP3    H237343   4.470   1.316   8.030  1.9245  1.3262  0.1734
 5262TIP3   OH237344   4.685   0.873   6.161 -0.1738  0.0975 -0.1578
 5262TIP3    H137345   4.748   0.937   6.194 -1.3080 -0.0515  2.6139
 5262TIP3    H237346   4.703   0.794   6.212 -1.2251 -0.5791 -0.8103
 5263TIP3   OH237347   4.027   1.006   8.289  0.4106 -0.1427 -0.3068
 5263TIP3    H137348   3.980   0.978   8.368 -1.9991  1.2378 -1.1574
 5263TIP3    H237349   4.066   0.926   8.255 -1.3337 -1.4151  0.5055
 5264TIP3   OH237350   1.176   2.824   0.863 -0.2687 -0.1490  0.1519
 5264TIP3    H137351   1.244   2.771   0.904  1.1796  1.0007 -0.6722
 5264TIP3    H237352   1.209   2.841   0.775 -1.0139  1.5332  0.1597
 5265TIP3   OH237353   5.869   0.944   8.188 -0.0141 -0.0637 -0.3916
 5265TIP3    H137354   5.896   1.001   8.259 -0.3137 -0.6155  0.1695
 5265TIP3    H237355   5.885   0.995   8.109  1.3683  0.1378 -0.0046
 5266TIP3   OH237356   6.880   3.428   7.766 -0.4468 -0.1006  0.1684
 5266TIP3    H137357   6.788   3.432   7.740 -0.4138  0.4420  0.1176
 5266TIP3    H237358   6.921   3.372   7.700 -0.8767 -0.9930  0.6312
 5267TIP3   OH237359   6.271   5.685   6.379 -0.0992 -0.3761 -0.0095
 5267TIP3    H137360   6.298   5.614   6.438  0.6959 -0.1317 -0.0581
 5267TIP3    H237361   6.354   5.726   6.352 -0.4838 -0.1645 -0.8937
 5268TIP3   OH237362   6.033   2.662   0.875  0.5797  0.0724 -0.2910
 5268TIP3    H137363   6.083   2.738   0.848  0.8791 -0.7397 -2.1342
 5268TIP3    H237364   6.024   2.672   0.970 -3.0378  4.6448 -0.7173
 5269TIP3   OH237365   1.851   2.996   1.743  0.1686 -0.0873 -0.6838
 5269TIP3    H137366   1.787   3.049   1.791 -0.6287  0.0103 -1.8091
 5269TIP3    H237367   1.935   3.035   1.766 -0.2476  0.4410  0.0192
 5270TIP3   OH237368   6.079   2.946   8.346 -0.3423 -0.1756 -0.0237
 5270TIP3    H137369   6.138   2.883   8.389 -0.0507 -0.5586 -0.9616
 5270TIP3    H237370   6.060   2.906   8.261  1.1909  1.7768 -1.3555
 5271TIP3   OH237371   2.554   5.961   6.831  0.5268  0.5985  0.2530
 5271TIP3    H137372   2.615   5.969   6.757  0.5150  0.0958  0.1838
 5271TIP3    H237373   2.511   5.876   6.817  2.2466 -0.6804  2.1028
 5272TIP3   OH237374   4.069   6.586   7.526  0.3527  0.3022  0.2572
 5272TIP3    H137375   4.037   6.628   7.447  1.5408  0.1043 -0.3507
 5272TIP3    H237376   4.111   6.656   7.576 -0.1362  0.3690  0.5838
 5273TIP3   OH237377   3.960   0.677   7.065 -0.4503 -0.6872 -0.3974
 5273TIP3    H137378   3.982   0.620   6.991 -1.4157  0.4245 -1.5829
 5273TIP3    H237379   3.871   0.653   7.088 -0.2637 -0.8103  0.2226
 5274TIP3   OH237380   4.670   4.041   1.110  0.0279  0.1289  0.5899
 5274TIP3    H137381   4.701   4.092   1.035  0.3200  0.7944  1.1461
 5274TIP3    H237382   4.710   3.955   1.099  1.6528  0.7825  0.9677
 5275TIP3   OH237383   1.520   1.164   8.562  0.2497 -0.0308 -0.8413
 5275TIP3    H137384   1.569   1.115   8.628 -1.6550  0.1117  0.7696
 5275TIP3    H237385   1.583   1.228   8.528  1.8048 -1.3303 -0.5406
 5276TIP3   OH237386   4.532   2.122   7.337  0.4971 -0.1510  1.0960
 5276TIP3    H137387   4.597   2.151   7.401  1.8919  0.0491 -0.3378
 5276TIP3    H237388   4.516   2.199   7.283  1.2811 -0.9374 -0.3290
 5277TIP3   OH237389   4.034   6.216   7.966  0.3913 -0.4010 -0.0996
 5277TIP3    H137390   4.010   6.278   7.896  0.6816 -0.7351 -0.5010
 5277TIP3    H237391   3.990   6.135   7.941  0.2700 -0.4451  0.2580
 5278TIP3   OH237392   2.059   6.783   8.106 -0.1511  0.0588  0.0150
 5278TIP3    H137393   2.105   6.857   8.145  1.2572 -1.4032  1.2689
 5278TIP3    H237394   2.100   6.772   8.020 -1.3393  1.5570 -0.7862
 5279TIP3   OH237395   4.579   0.681   7.167 -0.2437  0.7222  0.4327
 5279TIP3    H137396   4.657   0.735   7.152  0.8424 -0.8371  0.1369
 5279TIP3    H237397   4.538   0.674   7.081 -0.2897  0.9315  0.4372
 5280TIP3   OH237398   0.268   0.411   7.709  0.0208  0.0560  0.1664
 5280TIP3    H137399   0.196   0.374   7.761  0.2022  0.7880  0.9550
 5280TIP3    H237400   0.336   0.344   7.711 -0.4614 -0.4536 -0.2071
 5281TIP3   OH237401   4.584   2.658   1.274  0.3956 -0.3370  0.1803
 5281TIP3    H137402   4.528   2.730   1.245 -0.8961 -1.6868 -0.8656
 5281TIP3    H237403   4.537   2.620   1.349  0.0447 -1.2688 -0.4907
 5282TIP3   OH237404   2.944   1.057   7.051 -0.5183  0.2883 -0.7319
 5282TIP3    H137405   2.872   1.060   6.988 -1.7607  1.2999  0.6463
 5282TIP3    H237406   2.913   1.110   7.124  0.8091 -0.9436  0.7899
 5283TIP3   OH237407   4.945   2.039   6.745  0.0840 -0.1307 -0.4598
 5283TIP3    H137408   4.969   1.946   6.751  3.5867  0.4769 -2.0912
 5283TIP3    H237409   4.912   2.049   6.656  2.8798  0.6081 -1.5371
 5284TIP3   OH237410   5.373   4.528   7.613 -0.1007  0.1851  0.1719
 5284TIP3    H137411   5.338   4.576   7.688  1.1337  1.5366 -0.0852
 5284TIP3    H237412   5.415   4.451   7.652 -0.8485  0.0388  0.7122
 5285TIP3   OH237413   4.815   0.485   7.682 -0.2245  0.1303 -0.0010
 5285TIP3    H137414   4.730   0.447   7.704 -0.4560  0.6718  0.0577
 5285TIP3    H237415   4.863   0.413   7.640 -0.4215 -0.4045  0.6630
 5286TIP3   OH237416   4.029   4.390   0.187  0.5231  0.5513  0.6619
 5286TIP3    H137417   4.103   4.407   0.129 -0.6958 -0.7405 -1.3811
 5286TIP3    H237418   3.960   4.448   0.155  0.3170  1.0399  1.9287
 5287TIP3   OH237419   0.612   2.999   7.794  0.2000 -0.1322 -0.1843
 5287TIP3    H137420   0.630   2.909   7.822 -1.3794 -0.7340 -0.9764
 5287TIP3    H237421   0.521   3.014   7.818  0.3805  1.1981 -0.2609
 5288TIP3   OH237422   6.029   5.885   0.136  0.8606 -0.8225 -0.2533
 5288TIP3    H137423   5.958   5.846   0.187 -0.3509  1.2359 -0.2571
 5288TIP3    H237424   6.046   5.822   0.066 -1.9825 -0.7836 -1.1119
 5289TIP3   OH237425   4.785   1.013   0.041 -0.3797  0.1368 -0.0065
 5289TIP3    H137426   4.769   0.969   0.125  0.3868  2.0035  1.1739
 5289TIP3    H237427   4.698   1.034   0.008 -0.7115 -1.0841  0.0238
 5290TIP3   OH237428   1.776   5.350   1.494 -0.1198 -0.1019 -0.4159
 5290TIP3    H137429   1.845   5.284   1.505 -1.2454 -1.4474 -1.1244
 5290TIP3    H237430   1.695   5.299   1.493 -1.2318  1.5163  1.3660
 5291TIP3   OH237431   6.006   2.472   1.729  0.1042 -0.1642  0.6809
 5291TIP3    H137432   6.031   2.516   1.810 -0.4251 -1.8930  1.8340
 5291TIP3    H237433   5.911   2.482   1.725  0.1780  0.3450 -0.0196
 5292TIP3   OH237434   0.504   1.193   1.800 -0.8993  0.2771  0.6043
 5292TIP3    H137435   0.439   1.133   1.762  0.8201 -0.7949 -0.7927
 5292TIP3    H237436   0.538   1.146   1.876  0.7230 -0.8054 -0.7077
 5293TIP3   OH237437   0.403   6.295   0.263 -0.5451  0.5832  0.7045
 5293TIP3    H137438   0.340   6.227   0.243  1.6178 -0.8693 -1.8575
 5293TIP3    H237439   0.447   6.313   0.179  3.4526  0.3420  2.5140
 5294TIP3   OH237440   3.526   1.263   0.435 -0.3580  0.0276 -0.3144
 5294TIP3    H137441   3.499   1.190   0.491 -0.2306  0.1285 -0.1207
 5294TIP3    H237442   3.605   1.297   0.477 -0.4910  0.3604 -0.3326
 5295TIP3   OH237443   1.515   2.944   8.081 -0.3400 -0.0258  0.2175
 5295TIP3    H137444   1.486   2.934   8.172 -0.6243  1.0936  0.2717
 5295TIP3    H237445   1.444   2.993   8.039  0.4169  0.6895 -0.2549
 5296TIP3   OH237446   5.974   3.555   0.665  0.1141 -0.4664  0.0778
 5296TIP3    H137447   6.029   3.481   0.637 -1.5182 -1.0746 -1.8257
 5296TIP3    H237448   5.911   3.566   0.593 -1.3358  1.1104  1.4907
 5297TIP3   OH237449   4.096   3.024   2.360 -0.0005 -0.0176 -0.1559
 5297TIP3    H137450   4.017   3.065   2.396  1.0552  2.5141 -0.5294
 5297TIP3    H237451   4.133   2.976   2.435 -2.4141 -2.3133 -0.2660
 5298TIP3   OH237452   1.170   5.476   1.839 -0.5654 -0.2714  0.2058
 5298TIP3    H137453   1.078   5.493   1.859 -0.6823 -2.4603  1.8638
 5298TIP3    H237454   1.207   5.442   1.921  1.3161 -0.9707 -0.8698
 5299TIP3   OH237455   5.258   3.769   1.134 -0.3073  0.0226  0.3626
 5299TIP3    H137456   5.236   3.703   1.200 -1.9504 -0.1685 -0.3380
 5299TIP3    H237457   5.174   3.806   1.108  0.2773  0.0594 -1.6543
 5300TIP3   OH237458   3.332   5.045   6.517  0.4277  0.4540  0.5848
 5300TIP3    H137459   3.407   5.037   6.458 -0.2719  1.0498 -0.4001
 5300TIP3    H237460   3.284   4.963   6.506 -0.5752  1.1929 -0.9369
 5301TIP3   OH237461   4.961   0.980   1.236  0.8743  0.2048  0.5086
 5301TIP3    H137462   5.009   0.912   1.285 -2.0381 -1.3855  1.3893
 5301TIP3    H237463   4.914   1.029   1.304  0.6832  1.2876 -0.3783
 5302TIP3   OH237464   4.828   5.165   6.812 -0.0629 -0.2614 -0.0803
 5302TIP3    H137465   4.913   5.123   6.821  0.8438  1.2497 -1.0832
 5302TIP3    H237466   4.783   5.147   6.894  2.1985  0.9653  1.5322
 5303TIP3   OH237467   3.189   6.573   1.226 -0.7475 -0.6605 -0.4038
 5303TIP3    H137468   3.225   6.653   1.187 -3.5482  1.3894  0.8475
 5303TIP3    H237469   3.107   6.558   1.179 -0.6203 -2.4139 -0.1355
 5304TIP3   OH237470   5.935   5.714   7.370  0.1058  0.2152  0.5518
 5304TIP3    H137471   5.871   5.646   7.391  0.4031  0.0824  1.0557
 5304TIP3    H237472   5.968   5.691   7.284  2.2582 -1.9206  1.8277
 5305TIP3   OH237473   6.732   0.786   7.828  0.0009 -0.4097 -0.1749
 5305TIP3    H137474   6.686   0.777   7.745 -0.4209  1.1206 -0.1476
 5305TIP3    H237475   6.673   0.838   7.882  0.5689 -0.8013  0.8443
 5306TIP3   OH237476   2.705   6.272   8.504 -0.3283 -1.1236  0.3840
 5306TIP3    H137477   2.681   6.364   8.491 -1.7864 -1.4990  0.1424
 5306TIP3    H237478   2.797   6.274   8.529 -0.1651  0.3579 -0.2144
 5307TIP3   OH237479   1.931   1.648   6.649 -0.0042  0.8124  0.3901
 5307TIP3    H137480   1.850   1.663   6.601  0.2097  1.2608  0.1624
 5307TIP3    H237481   1.934   1.554   6.664 -0.3670  0.7473  0.0489
 5308TIP3   OH237482   6.166   6.624   6.900 -0.3797  0.4319  0.6093
 5308TIP3    H137483   6.155   6.704   6.848 -1.1414 -0.9706 -1.5198
 5308TIP3    H237484   6.250   6.637   6.945  0.2103  1.8505 -0.7798
 5309TIP3   OH237485   2.300   3.574   8.237 -0.7783 -0.0667  0.4067
 5309TIP3    H137486   2.394   3.557   8.243 -0.4810  1.3102 -0.0401
 5309TIP3    H237487   2.261   3.487   8.221  0.3532 -0.7235  1.0732
 5310TIP3   OH237488   3.820   3.698   1.144 -0.3410  0.4338 -0.7361
 5310TIP3    H137489   3.755   3.643   1.102  0.7239 -0.0417 -1.7962
 5310TIP3    H237490   3.853   3.754   1.074  1.3394 -0.2574 -0.5353
 5311TIP3   OH237491   3.476   0.708   7.345 -0.3424  0.2384 -0.6713
 5311TIP3    H137492   3.427   0.626   7.348 -1.6436  1.0106  1.4289
 5311TIP3    H237493   3.568   0.681   7.355 -0.5990 -1.0302 -1.4756
 5312TIP3   OH237494   2.371   3.752   0.933  0.1224 -0.3194 -0.0585
 5312TIP3    H137495   2.423   3.827   0.903 -1.0023 -0.1053 -1.5658
 5312TIP3    H237496   2.426   3.709   0.998  1.0569  1.4466  0.3678
 5313TIP3   OH237497   5.221   6.596   7.190  0.2275  0.1503  0.1676
 5313TIP3    H137498   5.294   6.577   7.131  0.6368 -0.8993  0.9804
 5313TIP3    H237499   5.259   6.654   7.256  0.7332 -1.4869  1.3722
 5314TIP3   OH237500   6.622   6.575   7.527 -0.0779  0.1229 -0.0634
 5314TIP3    H137501   6.669   6.577   7.611  1.1233 -0.7597 -0.6794
 5314TIP3    H237502   6.532   6.596   7.550  0.2323 -0.0562  1.4588
 5315TIP3   OH237503   5.391   1.585   6.797 -0.3394  0.2808 -0.3687
 5315TIP3    H137504   5.452   1.538   6.740 -0.4989  0.6270 -0.8283
 5315TIP3    H237505   5.307   1.582   6.751 -1.3649 -2.4899  1.4620
 5316TIP3   OH237506   1.289   2.020   8.594 -0.2184 -0.0516  0.1941
 5316TIP3    H137507   1.320   1.944   8.545 -2.2810  0.8369 -2.7854
 5316TIP3    H237508   1.202   1.995   8.624 -0.9035  1.0326 -0.7861
 5317TIP3   OH237509   5.277   3.902   7.623 -0.2969 -0.0992  0.0513
 5317TIP3    H137510   5.286   3.870   7.533 -1.2094 -0.2555  0.0120
 5317TIP3    H237511   5.294   3.825   7.677 -0.4228 -0.1660 -0.0029
 5318TIP3   OH237512   1.371   1.304   7.690  0.0455 -0.0767  0.3833
 5318TIP3    H137513   1.424   1.384   7.694 -2.1125  1.5089 -0.9148
 5318TIP3    H237514   1.431   1.237   7.656  1.4811  1.3584 -0.0334
 5319TIP3   OH237515   6.290   6.733   0.023 -0.7967 -0.4598 -0.7806
 5319TIP3    H137516   6.285   6.824   0.053  3.2385 -0.2064 -0.4161
 5319TIP3    H237517   6.286   6.681   0.103  0.7066 -0.3203 -0.5878
 5320TIP3   OH237518   3.966   1.271   8.252 -0.0208 -0.0737 -0.3847
 5320TIP3    H137519   3.973   1.182   8.287 -2.6885 -0.7115 -1.2616
 5320TIP3    H237520   4.049   1.285   8.206 -0.2026 -2.8593 -1.7771
 5321TIP3   OH237521   1.466   4.120   8.620  0.1719  0.0353 -0.4112
 5321TIP3    H137522   1.420   4.040   8.647  0.6950 -0.0233  0.3496
 5321TIP3    H237523   1.532   4.133   8.688 -0.2526  1.4181 -0.2365
 5322TIP3   OH237524   6.295   5.448   2.189 -0.1560  0.1614 -0.9071
 5322TIP3    H137525   6.353   5.489   2.254 -0.9233 -0.5147  0.2473
 5322TIP3    H237526   6.315   5.355   2.195 -1.1624 -0.0535 -0.6672
 5323TIP3   OH237527   1.243   2.626   0.304  0.2613 -0.4923  0.4418
 5323TIP3    H137528   1.249   2.532   0.321 -0.2054 -0.5847  0.1172
 5323TIP3    H237529   1.168   2.635   0.245 -0.2829  0.1765  1.2004
 5324TIP3   OH237530   1.760   3.986   1.213 -0.0409  0.0312  0.0027
 5324TIP3    H137531   1.724   3.934   1.285  1.6556 -0.5396  0.4956
 5324TIP3    H237532   1.779   3.921   1.145 -0.6938  0.4342 -0.5713
 5325TIP3   OH237533   1.500   2.778   0.832 -0.0327  0.0598 -0.4146
 5325TIP3    H137534   1.430   2.713   0.834  0.1717 -0.1318  0.7446
 5325TIP3    H237535   1.502   2.815   0.920  0.5826  0.8611 -0.7538
 5326TIP3   OH237536   2.202   5.606   8.317 -0.0793  0.3528  0.7818
 5326TIP3    H137537   2.221   5.516   8.343  0.6447  0.5615  0.9843
 5326TIP3    H237538   2.275   5.657   8.350  0.4422  0.7573 -0.8875
 5327TIP3   OH237539   0.337   5.284   7.375  0.0186  0.1228  0.3182
 5327TIP3    H137540   0.286   5.261   7.452  1.6886 -1.0117  1.1358
 5327TIP3    H237541   0.350   5.379   7.382 -2.9991  0.7038 -0.6199
 5328TIP3   OH237542   3.763   2.401   1.502  0.0627  0.2611 -0.3516
 5328TIP3    H137543   3.789   2.476   1.556 -0.4599  0.0527  0.1917
 5328TIP3    H237544   3.842   2.380   1.451 -0.8049  3.6300 -3.4925
 5329TIP3   OH237545   2.788   0.079   0.570 -0.4866  0.1021  0.5105
 5329TIP3    H137546   2.752   0.107   0.486 -2.2315 -2.4106  0.3004
 5329TIP3    H237547   2.715   0.035   0.613  0.5839  0.6770  3.0543
 5330TIP3   OH237548   2.584   4.413   0.360  0.0884  0.3034  0.3600
 5330TIP3    H137549   2.628   4.448   0.282  2.9721 -0.9701  1.2669
 5330TIP3    H237550   2.578   4.319   0.345  0.3441  0.0843  1.4789
 5331TIP3   OH237551   1.636   4.447   0.494 -0.1401  0.2529 -0.7301
 5331TIP3    H137552   1.683   4.447   0.577 -0.0766 -0.4428 -0.7654
 5331TIP3    H237553   1.545   4.426   0.517 -0.5486  1.9559 -0.6154
 5332TIP3   OH237554   2.396   0.950   2.700  0.0362  0.2344 -0.0486
 5332TIP3    H137555   2.472   0.911   2.743 -1.5260 -2.4951  0.4562
 5332TIP3    H237556   2.420   1.042   2.688  3.1226 -0.3696  0.6506
 5333TIP3   OH237557   6.643   6.362   1.328  0.2443  0.3085 -0.4361
 5333TIP3    H137558   6.624   6.452   1.299  0.2896  0.4250 -0.1081
 5333TIP3    H237559   6.568   6.338   1.382 -0.3289 -0.2835 -1.4758
 5334TIP3   OH237560   6.393   3.628   1.205  0.2460 -0.0803  0.3025
 5334TIP3    H137561   6.352   3.564   1.262 -0.3237  0.9585  1.0902
 5334TIP3    H237562   6.349   3.710   1.225 -0.1114  0.3000 -1.7883
 5335TIP3   OH237563   1.634   2.914   8.537  0.4339 -0.1058 -0.6432
 5335TIP3    H137564   1.636   2.904   8.632 -0.8805 -0.0924 -0.5974
 5335TIP3    H237565   1.639   3.009   8.523 -2.4287  0.1647 -0.4152
 5336TIP3   OH237566   3.101   1.314   1.279 -0.3504 -0.0178  0.5034
 5336TIP3    H137567   3.144   1.392   1.243 -2.7487  1.1352 -0.1113
 5336TIP3    H237568   3.158   1.242   1.255  0.2874  1.1965 -1.9556
 5337TIP3   OH237569   4.423   4.140   1.298 -0.2090  0.0744  0.2524
 5337TIP3    H137570   4.381   4.054   1.301 -0.2740  0.1013  0.1307
 5337TIP3    H237571   4.508   4.127   1.340 -0.1479 -0.0900  0.0781
 5338TIP3   OH237572   3.368   2.818   6.866 -0.1459  0.1621 -0.3166
 5338TIP3    H137573   3.337   2.729   6.850  0.3810 -0.2155  0.6303
 5338TIP3    H237574   3.300   2.857   6.921  0.3954 -0.2463  0.6941
 5339TIP3   OH237575   3.074   2.919   8.255 -0.1550 -0.0628 -0.2442
 5339TIP3    H137576   3.035   2.898   8.340 -0.5210  0.5712 -0.2474
 5339TIP3    H237577   3.020   2.872   8.192 -0.6769  0.4877 -0.2176
 5340TIP3   OH237578   6.438   2.035   8.298 -0.3539 -0.1248  0.0945
 5340TIP3    H137579   6.490   2.054   8.220 -0.1772  3.4578  0.9084
 5340TIP3    H237580   6.503   2.024   8.368 -0.5779 -1.2714  0.1418
 5341TIP3   OH237581   2.406   0.301   0.274 -0.1407 -0.6815  0.2796
 5341TIP3    H137582   2.424   0.208   0.290 -0.8195 -1.0209 -0.8558
 5341TIP3    H237583   2.376   0.305   0.184  2.4191  1.0160 -0.6234
 5342TIP3   OH237584   5.398   0.672   0.336 -0.2086  0.5655  0.1439
 5342TIP3    H137585   5.448   0.753   0.347 -0.5931  0.6163  1.7413
 5342TIP3    H237586   5.460   0.602   0.358 -0.2167  0.4963 -0.0508
 5343TIP3   OH237587   5.175   5.584   7.970 -0.2981 -0.1282 -0.0133
 5343TIP3    H137588   5.255   5.559   7.924 -1.6950 -0.9073 -2.1597
 5343TIP3    H237589   5.150   5.667   7.930 -0.9339 -0.2464  0.1303
 5344TIP3   OH237590   5.335   5.481   0.477  0.0944  0.3752 -0.3312
 5344TIP3    H137591   5.315   5.553   0.417  0.8136  1.4241  0.6251
 5344TIP3    H237592   5.428   5.463   0.463 -0.1222 -0.5166 -0.6947
 5345TIP3   OH237593   5.209   3.250   0.092 -0.0172 -0.2419 -0.2754
 5345TIP3    H137594   5.279   3.303   0.054  0.1251  1.2093  1.8402
 5345TIP3    H237595   5.255   3.186   0.146 -0.2403  1.1959  1.7318
 5346TIP3   OH237596   5.022   2.872   0.255  0.4826 -0.1172 -0.9849
 5346TIP3    H137597   5.004   2.890   0.162  1.1725  1.5120 -0.8467
 5346TIP3    H237598   4.940   2.891   0.299  0.0025 -1.3821 -1.2934
 5347TIP3   OH237599   0.203   3.519   7.922 -0.0549  0.3900  0.3845
 5347TIP3    H137600   0.270   3.541   7.857  0.7295 -0.1830  0.9725
 5347TIP3    H237601   0.128   3.488   7.871 -0.0671  1.5295 -0.3064
 5348TIP3   OH237602   0.781   2.814   1.137  0.5147  0.3446  0.0704
 5348TIP3    H137603   0.772   2.808   1.042 -0.0678  3.3422 -0.1509
 5348TIP3    H237604   0.803   2.906   1.153  0.0597  0.0377  2.8770
 5349TIP3   OH237605   2.006   4.210   1.457  0.2150 -0.1249  0.3124
 5349TIP3    H137606   2.015   4.301   1.430  0.7239 -0.2109  0.1858
 5349TIP3    H237607   2.020   4.211   1.552 -2.4730  0.3107  0.7793
 5350TIP3   OH237608   1.908   0.673   0.155 -0.1907  0.3438 -0.0407
 5350TIP3    H137609   1.841   0.712   0.099  1.3498  2.0388 -0.8396
 5350TIP3    H237610   1.946   0.604   0.101  0.3125  1.0135 -0.5778
 5351TIP3   OH237611   4.887   1.952   1.179 -0.5222 -0.2818  0.5390
 5351TIP3    H137612   4.823   2.022   1.168 -0.9436 -0.9851 -2.3160
 5351TIP3    H237613   4.920   1.936   1.091  2.1950 -1.2830  1.6548
 5352TIP3   OH237614   4.859   3.309   1.151 -0.0487  0.2566 -0.1557
 5352TIP3    H137615   4.840   3.289   1.059  0.2053  0.8586 -0.3435
 5352TIP3    H237616   4.798   3.379   1.173 -0.7133 -0.4739  0.4051
 5353TIP3   OH237617   0.117   3.541   7.259 -0.2043 -0.2108  0.4428
 5353TIP3    H137618   0.048   3.598   7.292 -0.2679  0.2074 -0.4109
 5353TIP3    H237619   0.093   3.522   7.168  0.0555 -1.2303  0.5658
 5354TIP3   OH237620   0.531   1.492   1.811 -0.0608 -0.5117 -0.0302
 5354TIP3    H137621   0.510   1.398   1.809 -2.1166 -0.0937 -1.6838
 5354TIP3    H237622   0.462   1.531   1.863  0.9427  0.0878  0.8845
 5355TIP3   OH237623   3.039   3.674   7.417  0.2764  0.2323  0.0539
 5355TIP3    H137624   3.072   3.585   7.425 -1.0449 -0.5132 -2.2072
 5355TIP3    H237625   2.951   3.671   7.454 -0.4098  0.1602 -1.5265
 5356TIP3   OH237626   1.127   4.867   7.021 -0.1334 -0.6799 -0.2309
 5356TIP3    H137627   1.131   4.889   7.114  1.2710  1.4418 -0.7199
 5356TIP3    H237628   1.079   4.940   6.981 -0.0481 -1.1740 -1.2661
 5357TIP3   OH237629   2.845   1.558   0.079 -0.1396 -0.0880  0.1958
 5357TIP3    H137630   2.844   1.546  -0.016 -1.2015  0.9590  0.0576
 5357TIP3    H237631   2.928   1.602   0.097  0.3397 -0.8279 -0.1638
 5358TIP3   OH237632   3.444   3.456   7.740  0.5960  0.4897 -0.3167
 5358TIP3    H137633   3.352   3.457   7.713  1.3040  0.5456 -3.1228
 5358TIP3    H237634   3.448   3.392   7.810 -1.4595 -0.0860 -0.6557
 5359TIP3   OH237635   1.837   1.003   0.313  0.0091  0.4908  0.1299
 5359TIP3    H137636   1.787   0.922   0.324  1.1150 -0.2372 -0.1030
 5359TIP3    H237637   1.880   1.016   0.397 -0.7819  1.2770  0.4274
 5360TIP3   OH237638   4.245   2.819   1.726  0.3736  0.2030  0.6158
 5360TIP3    H137639   4.176   2.756   1.747 -0.1570  0.6605  0.2789
 5360TIP3    H237640   4.239   2.884   1.796  0.0013  0.6080  0.2147
 5361TIP3   OH237641   1.045   3.408   0.174  0.4150  0.1756 -0.7685
 5361TIP3    H137642   1.135   3.431   0.198  0.0204  1.2446 -0.1954
 5361TIP3    H237643   1.015   3.352   0.246 -0.0059  1.4676  0.1079
 5362TIP3   OH237644   5.239   0.802   8.395 -0.1001  0.1023 -0.3576
 5362TIP3    H137645   5.279   0.715   8.389  1.5860  0.5806  2.4216
 5362TIP3    H237646   5.313   0.863   8.390 -1.2277  1.4186 -1.9471
 5363TIP3   OH237647   6.210   0.486   0.051 -0.3113 -0.1685  0.1238
 5363TIP3    H137648   6.184   0.578   0.050  1.3471  0.3573  1.2247
 5363TIP3    H237649   6.131   0.438   0.025 -1.6833  1.4590  1.1102
 5364TIP3   OH237650   2.331   4.121   8.013 -0.2246  0.3709  0.0118
 5364TIP3    H137651   2.398   4.077   7.960 -0.9793 -0.5941 -0.1765
 5364TIP3    H237652   2.365   4.116   8.103  0.8483  1.6118 -0.3041
 5365TIP3   OH237653   1.997   4.591   7.803 -0.2250 -0.2389  0.1560
 5365TIP3    H137654   2.061   4.661   7.793 -0.2644 -0.1359  0.6006
 5365TIP3    H237655   1.999   4.569   7.896 -0.3053 -0.7420  0.0444
 5366TIP3   OH237656   4.204   1.804   1.381 -0.3076  0.3416  0.3020
 5366TIP3    H137657   4.130   1.792   1.441 -0.4759 -0.3853 -0.0318
 5366TIP3    H237658   4.257   1.725   1.393 -0.1240  0.3853 -0.2059
 5367TIP3   OH237659   4.275   3.378   7.736 -0.1674 -0.0308  0.6076
 5367TIP3    H137660   4.351   3.373   7.678 -0.4906  3.6731 -0.3334
 5367TIP3    H237661   4.312   3.376   7.824  0.9090  0.4314  0.1805
 5368TIP3   OH237662   4.465   5.398   0.078 -0.0088 -0.1933  0.3815
 5368TIP3    H137663   4.517   5.318   0.070 -1.6978 -1.3415  0.3778
 5368TIP3    H237664   4.400   5.392   0.009 -0.4032  1.0120  0.6179
 5369TIP3   OH237665   4.125   2.764   0.339 -0.0757  0.1802 -0.0314
 5369TIP3    H137666   4.187   2.692   0.356 -1.6254 -1.5314 -1.1957
 5369TIP3    H237667   4.074   2.771   0.420  1.0390  1.0187  0.6237
 5370TIP3   OH237668   1.547   6.748   8.165 -0.2039 -0.2678  0.2371
 5370TIP3    H137669   1.584   6.813   8.105 -0.8381  0.0525  0.1842
 5370TIP3    H237670   1.525   6.797   8.244 -0.9842 -0.3472  0.0783
 5371TIP3   OH237671   3.661   4.649   1.127 -0.0778 -0.0771  0.5030
 5371TIP3    H137672   3.620   4.626   1.044  0.5895  0.5840 -0.0206
 5371TIP3    H237673   3.736   4.591   1.134 -1.1188 -1.3835  1.5287
 5372TIP3   OH237674   1.936   2.705   8.506  0.5974  0.0972  0.2213
 5372TIP3    H137675   1.867   2.644   8.529  0.6531  0.6123  1.9322
 5372TIP3    H237676   2.017   2.659   8.527  0.7034  0.1137 -0.1531
 5373TIP3   OH237677   5.440   0.208   1.132 -0.2547  0.4873  0.0558
 5373TIP3    H137678   5.508   0.226   1.066  1.0977 -0.4821  1.1170
 5373TIP3    H237679   5.425   0.293   1.174 -1.5797  1.2526 -1.8377
 5374TIP3   OH237680   4.064   6.442   6.727  0.2017  0.1331  0.6765
 5374TIP3    H137681   4.070   6.416   6.635  0.6235 -0.5746  0.9013
 5374TIP3    H237682   4.137   6.502   6.740 -0.8156  1.5298  0.1388
 5375TIP3   OH237683   6.834   3.055   7.474  0.7131 -0.1598  0.1852
 5375TIP3    H137684   6.861   3.026   7.387 -0.0952  0.4907 -0.2939
 5375TIP3    H237685   6.764   2.996   7.500 -1.4480  1.6824 -1.1027
 5376TIP3   OH237686   1.801   5.208   2.783 -0.4140 -0.1750  0.2692
 5376TIP3    H137687   1.722   5.161   2.759 -0.7623 -0.2549  1.5305
 5376TIP3    H237688   1.827   5.253   2.703 -1.2621 -0.8106 -0.3779
 5377TIP3   OH237689   6.229   5.415   7.782  0.2219  0.1647 -0.0254
 5377TIP3    H137690   6.277   5.494   7.806 -0.3133  0.1902  0.9848
 5377TIP3    H237691   6.295   5.345   7.785  0.6107  0.4989 -0.5460
 5378TIP3   OH237692   6.275   3.444   1.354 -0.1365  0.0397  0.6752
 5378TIP3    H137693   6.328   3.370   1.383 -1.0882 -0.2333  1.8039
 5378TIP3    H237694   6.225   3.470   1.432  0.3563  2.0331  0.3865
 5379TIP3   OH237695   0.372   0.316   1.257  0.7685  0.4382 -0.6619
 5379TIP3    H137696   0.388   0.385   1.192  2.8733  1.0993  0.4776
 5379TIP3    H237697   0.415   0.346   1.336 -2.4791  0.0711  1.4446
 5380TIP3   OH237698   3.736   1.524   0.825  0.2124  0.5226  0.2233
 5380TIP3    H137699   3.715   1.590   0.758  0.9934  0.3911 -0.1553
 5380TIP3    H237700   3.829   1.537   0.843  0.9065 -1.7487 -1.3026
 5381TIP3   OH237701   4.094   6.461   0.581  0.4698  0.0603 -0.0899
 5381TIP3    H137702   4.068   6.542   0.536  0.2580  0.3261  0.5002
 5381TIP3    H237703   4.183   6.444   0.550  0.2540  0.1284 -0.7581
 5382TIP3   OH237704   3.051   5.657   7.563  0.0322  0.4234 -0.0415
 5382TIP3    H137705   3.049   5.752   7.564  1.1149  0.4663 -0.5917
 5382TIP3    H237706   3.015   5.633   7.477 -2.1286  0.2359  0.8535
 5383TIP3   OH237707   3.912   5.955   0.761 -0.5053 -0.2133 -0.3707
 5383TIP3    H137708   3.875   6.027   0.710  0.1141  0.7004  0.4391
 5383TIP3    H237709   3.835   5.907   0.792 -1.0906  1.7229  1.3824
 5384TIP3   OH237710   5.630   5.304   8.361 -0.0136  0.0565 -0.0655
 5384TIP3    H137711   5.678   5.237   8.313  3.0761  2.5784 -0.8375
 5384TIP3    H237712   5.605   5.368   8.295 -1.1643  0.6548  0.9028
 5385TIP3   OH237713   3.226   5.058   1.629  0.1448  0.4180  0.3354
 5385TIP3    H137714   3.228   5.064   1.725  2.1436  0.4520  0.3358
 5385TIP3    H237715   3.223   5.149   1.599  1.6920  0.5172  0.3963
 5386TIP3   OH237716   4.257   4.483   7.858 -0.0831 -0.1334  0.6289
 5386TIP3    H137717   4.278   4.466   7.950  2.0293 -0.1891  0.1847
 5386TIP3    H237718   4.341   4.498   7.816 -1.1142  1.4154 -1.0327
 5387TIP3   OH237719   3.489   3.004   7.215  0.2448  0.3144 -0.2962
 5387TIP3    H137720   3.535   2.938   7.268  1.4225  0.8358 -0.6294
 5387TIP3    H237721   3.530   2.997   7.128 -1.6214 -0.4935 -1.1567
 5388TIP3   OH237722   1.569   0.335   7.406  0.4886  0.5536  0.4073
 5388TIP3    H137723   1.664   0.345   7.414  0.3595  2.0377  0.3127
 5388TIP3    H237724   1.541   0.411   7.355 -1.0491  1.5228  2.5315
 5389TIP3   OH237725   1.778   2.881   6.743  0.5167 -0.1230 -0.7023
 5389TIP3    H137726   1.753   2.936   6.669 -0.8295  0.1157 -0.1047
 5389TIP3    H237727   1.822   2.940   6.804  1.0730 -0.1914 -1.0320
 5390TIP3   OH237728   5.188   1.908   7.105 -0.0352  0.7239 -0.5198
 5390TIP3    H137729   5.243   1.860   7.043 -0.9279  0.9423 -1.4943
 5390TIP3    H237730   5.172   1.993   7.064  2.0819  2.2218  1.4716
 5391TIP3   OH237731   5.990   6.118   8.648 -0.0398 -0.3593 -0.8931
 5391TIP3    H137732   6.006   6.056   8.719 -3.1358  0.4297  0.6505
 5391TIP3    H237733   6.066   6.176   8.649 -0.1560 -0.1283  2.0826
 5392TIP3   OH237734   3.113   3.517   2.464 -0.3259 -0.2592  0.3554
 5392TIP3    H137735   3.157   3.439   2.430 -0.6875 -0.7010  0.8764
 5392TIP3    H237736   3.020   3.493   2.465 -0.5405  0.5055 -0.3265
 5393TIP3   OH237737   4.429   4.927   1.004 -0.6033 -0.0949  0.2137
 5393TIP3    H137738   4.359   4.989   1.023  0.4666  1.0861  0.3590
 5393TIP3    H237739   4.496   4.978   0.960  0.5766 -0.9934  0.9094
 5394TIP3   OH237740   2.571   4.386   6.785  0.4185 -0.3235 -0.6172
 5394TIP3    H137741   2.646   4.393   6.845 -0.0793  0.6550 -0.0848
 5394TIP3    H237742   2.570   4.295   6.759  2.6126 -0.0968 -1.7001
 5395TIP3   OH237743   5.636   1.587   8.362 -0.4527  0.4991  0.3275
 5395TIP3    H137744   5.672   1.630   8.439  3.4599 -1.0704 -0.3776
 5395TIP3    H237745   5.635   1.494   8.384 -0.2693  0.1226 -1.1192
 5396TIP3   OH237746   4.303   1.939   1.149  0.2090 -0.6083 -0.4795
 5396TIP3    H137747   4.394   1.915   1.131  0.2625 -1.1210  0.4220
 5396TIP3    H237748   4.278   1.884   1.223 -0.3216  0.7041  0.3535
 5397TIP3   OH237749   6.042   3.406   8.596  0.3798 -0.0139  0.0298
 5397TIP3    H137750   6.108   3.381   8.661  0.1204 -1.8691 -0.3690
 5397TIP3    H237751   6.064   3.355   8.519 -0.7880  0.3059 -0.5389
 5398TIP3   OH237752   0.817   5.395   8.511 -0.4960 -0.1405  0.2504
 5398TIP3    H137753   0.732   5.374   8.550 -1.3010  1.5709 -0.4588
 5398TIP3    H237754   0.803   5.386   8.417 -0.2902  1.3364  0.0508
 5399TIP3   OH237755   6.660   0.190   8.341  0.0998  0.6090  0.4622
 5399TIP3    H137756   6.751   0.168   8.321  0.1709  1.9096 -0.8316
 5399TIP3    H237757   6.635   0.129   8.411  2.0303  0.4045  1.0225
 5400TIP3   OH237758   3.932   0.636   0.378  0.0471  0.1870  0.1782
 5400TIP3    H137759   3.842   0.662   0.401  0.5512  0.3157  2.2486
 5400TIP3    H237760   3.985   0.712   0.402  0.8084 -0.2166 -0.2009
 5401TIP3   OH237761   6.616   6.177   7.606  0.0389 -0.2919 -0.2914
 5401TIP3    H137762   6.533   6.224   7.593  0.2480  0.5071  1.1118
 5401TIP3    H237763   6.665   6.193   7.525  0.3599  2.4888  0.3590
 5402TIP3   OH237764   4.460   0.252   1.293 -0.1915  0.0046  0.2093
 5402TIP3    H137765   4.509   0.257   1.375  0.8420 -3.5761 -0.0126
 5402TIP3    H237766   4.378   0.208   1.317 -2.6295  4.0406  0.1838
 5403TIP3   OH237767   1.316   3.626   8.546  0.3684 -0.4346 -0.1323
 5403TIP3    H137768   1.224   3.634   8.572  0.9447  0.3067  1.8600
 5403TIP3    H237769   1.327   3.691   8.477 -0.1618  0.9487  1.0345
 5404TIP3   OH237770   4.024   1.457   2.651  0.1501  0.3220  0.1771
 5404TIP3    H137771   3.980   1.442   2.568  0.4220  0.4332  0.0106
 5404TIP3    H237772   4.117   1.443   2.631  0.0517 -1.8402  0.9310
 5405TIP3   OH237773   1.897   6.038   1.340 -0.4469 -0.2111 -0.0710
 5405TIP3    H137774   1.952   5.988   1.400  0.6025 -0.3018 -1.0708
 5405TIP3    H237775   1.810   6.034   1.378  0.0401 -0.9472  1.0126
 5406TIP3   OH237776   3.507   2.048   1.487 -0.1266 -0.2881  0.0703
 5406TIP3    H137777   3.526   2.014   1.574  0.4550  0.5587  0.2894
 5406TIP3    H237778   3.464   1.976   1.442  0.1596 -0.9581  0.8435
 5407TIP3   OH237779   3.496   2.362   1.590  0.7056  0.0702 -0.0076
 5407TIP3    H137780   3.591   2.364   1.580  0.9130  0.8502  1.6783
 5407TIP3    H237781   3.472   2.453   1.607  0.0676 -0.4737  2.4366
 5408TIP3   OH237782   0.960   3.082   2.260  0.2075 -0.6660 -0.7014
 5408TIP3    H137783   0.924   2.994   2.271  3.3246 -2.0210 -0.2068
 5408TIP3    H237784   1.014   3.077   2.182  1.6992  0.3223  0.2076
 5409TIP3   OH237785   5.334   6.361   0.255  0.2314 -0.1401  0.4954
 5409TIP3    H137786   5.255   6.405   0.286  0.4165  0.2971  0.3530
 5409TIP3    H237787   5.301   6.296   0.192  0.1672  2.5458 -2.5083
 5410TIP3   OH237788   4.236   4.473   8.355  0.3371 -0.0426 -0.0332
 5410TIP3    H137789   4.144   4.451   8.368 -0.0804  1.5410 -0.1539
 5410TIP3    H237790   4.280   4.388   8.345 -0.9808 -0.8491  0.7697
 5411TIP3   OH237791   4.103   4.695   7.420  0.0946 -0.2452 -0.1955
 5411TIP3    H137792   4.176   4.723   7.365 -1.7903  2.2321 -1.6218
 5411TIP3    H237793   4.134   4.709   7.510  1.1683  1.3093 -0.7836
 5412TIP3   OH237794   6.785   5.951   1.910 -0.1434  0.6018 -0.2164
 5412TIP3    H137795   6.877   5.958   1.886 -0.3432 -0.4093 -1.3995
 5412TIP3    H237796   6.741   5.921   1.830 -1.3240 -0.0352  0.6227
 5413TIP3   OH237797   2.475   1.207   2.648  0.4799  0.4441  0.3335
 5413TIP3    H137798   2.453   1.265   2.575  0.6400  0.4987  0.3275
 5413TIP3    H237799   2.547   1.252   2.693 -0.6693  1.1985  1.4754
 5414TIP3   OH237800   0.209   3.645   8.427  0.0058  0.0659  0.0341
 5414TIP3    H137801   0.184   3.645   8.334  0.9725  0.9166 -0.2373
 5414TIP3    H237802   0.278   3.710   8.434 -0.2334  0.2106  1.4135
 5415TIP3   OH237803   4.352   6.528   0.472  0.0366 -0.2356 -0.4066
 5415TIP3    H137804   4.386   6.594   0.533 -2.0178 -0.8534  1.5385
 5415TIP3    H237805   4.415   6.456   0.478  0.0335 -0.1566  0.7922
 5416TIP3   OH237806   4.577   3.143   2.384 -0.2179 -0.9093  0.5108
 5416TIP3    H137807   4.554   3.234   2.401  0.0929 -0.7390  0.0450
 5416TIP3    H237808   4.673   3.143   2.385 -0.2189 -1.3930  1.3427
 5417TIP3   OH237809   4.431   2.711   6.900 -0.3136  0.5182 -0.4762
 5417TIP3    H137810   4.422   2.686   6.992 -1.0721 -1.3022 -1.0001
 5417TIP3    H237811   4.343   2.699   6.863  0.2886 -0.1380 -1.7511
 5418TIP3   OH237812   4.543   0.320   1.048 -0.0085 -0.1443  1.0381
 5418TIP3    H137813   4.463   0.293   1.002 -1.1746  0.9241  2.3401
 5418TIP3    H237814   4.524   0.302   1.140  2.0659 -1.7516  1.2030
 5419TIP3   OH237815   0.679   5.702   0.808  0.0501 -0.1447  0.5194
 5419TIP3    H137816   0.717   5.646   0.876 -1.2611 -1.5934  0.1087
 5419TIP3    H237817   0.635   5.772   0.856  1.3386  0.3409  1.0489
 5420TIP3   OH237818   2.459   0.635   8.232 -0.0319  0.3934  0.0287
 5420TIP3    H137819   2.507   0.571   8.180 -0.4042 -0.5652  0.8369
 5420TIP3    H237820   2.378   0.651   8.183  0.0550  0.2271 -0.1685
 5421TIP3   OH237821   1.184   2.384   8.020 -0.0002 -0.6999  0.5672
 5421TIP3    H137822   1.219   2.467   7.987  0.5080 -1.7838 -1.7385
 5421TIP3    H237823   1.260   2.329   8.034 -0.4502 -1.3526  0.4899
 5422TIP3   OH237824   1.726   6.591   0.322  0.0013 -0.0460  0.7516
 5422TIP3    H137825   1.750   6.538   0.398  0.9243  0.7410  1.0226
 5422TIP3    H237826   1.664   6.536   0.273  1.4062 -1.6561  0.6677
 5423TIP3   OH237827   6.703   4.910   1.581  0.2483 -0.4534  0.0746
 5423TIP3    H137828   6.714   4.954   1.497 -0.0935 -1.5914 -0.5892
 5423TIP3    H237829   6.779   4.937   1.633  0.6781 -0.0694 -0.7525
 5424TIP3   OH237830   5.973   4.717   8.364 -0.6031 -0.0959 -0.1372
 5424TIP3    H137831   5.942   4.673   8.443 -0.7041  1.0623  0.4942
 5424TIP3    H237832   5.907   4.785   8.347  0.7900  1.4379  0.3713
 5425TIP3   OH237833   6.536   5.365   7.189 -0.1672  0.0058  0.6243
 5425TIP3    H137834   6.563   5.360   7.097 -2.4827 -2.6505 -0.0860
 5425TIP3    H237835   6.547   5.457   7.212  1.1943  0.6427 -2.0646
 5426TIP3   OH237836   5.785   1.077   1.048 -0.6643  0.1111  0.1904
 5426TIP3    H137837   5.794   1.160   1.096  0.4775 -1.1544  2.3416
 5426TIP3    H237838   5.694   1.051   1.060 -0.8622  0.7358  0.0539
 5427TIP3   OH237839   3.412   3.880   2.107 -0.4414  0.1708  0.0504
 5427TIP3    H137840   3.458   3.837   2.035  0.0433 -1.4321  1.2633
 5427TIP3    H237841   3.479   3.934   2.148 -0.9564  1.8704 -1.2395
 5428TIP3   OH237842   1.575   6.755   2.441  0.3546 -0.2916 -0.1980
 5428TIP3    H137843   1.646   6.815   2.465 -0.6482  0.6948  0.4119
 5428TIP3    H237844   1.615   6.668   2.445  1.6184  0.2658 -0.2230
 5429TIP3   OH237845   2.301   6.005   7.869  0.1711  0.3311  0.2755
 5429TIP3    H137846   2.346   5.974   7.948 -2.3623  0.2672  1.8068
 5429TIP3    H237847   2.245   6.076   7.900 -0.6732  0.5160 -1.5501
 5430TIP3   OH237848   1.432   4.486   8.567  0.0945  0.7505 -0.0795
 5430TIP3    H137849   1.474   4.454   8.646 -0.9325 -0.3770  0.0338
 5430TIP3    H237850   1.474   4.438   8.495  1.1098  1.8590 -0.2602
 5431TIP3   OH237851   3.297   5.451   0.233  0.6854  0.0343 -0.2108
 5431TIP3    H137852   3.282   5.496   0.315 -0.5467  0.7849 -0.8273
 5431TIP3    H237853   3.367   5.502   0.190  1.3257 -0.3573  0.3453
 5432TIP3   OH237854   6.039   1.836   0.533  0.2696  0.5061  0.5029
 5432TIP3    H137855   5.985   1.758   0.527  2.0029 -0.6939 -0.5639
 5432TIP3    H237856   5.978   1.909   0.526 -1.6032 -0.6580  3.2073
 5433TIP3   OH237857   5.688   6.309   8.158  0.0687 -0.6255 -0.1266
 5433TIP3    H137858   5.774   6.277   8.184  0.8975  2.3774  1.2539
 5433TIP3    H237859   5.683   6.398   8.194 -2.7041  0.1749 -2.1271
 5434TIP3   OH237860   3.253   3.238   1.107 -0.3189 -0.1579  0.0702
 5434TIP3    H137861   3.296   3.322   1.119  0.7135 -0.5432 -0.8501
 5434TIP3    H237862   3.186   3.254   1.040 -2.3765  0.6767  2.1854
 5435TIP3   OH237863   6.271   2.740   8.395 -0.3480  0.3527 -0.6036
 5435TIP3    H137864   6.314   2.658   8.371  0.4678  0.5117  0.2098
 5435TIP3    H237865   6.341   2.806   8.390 -0.7188  0.7924 -0.1390
 5436TIP3   OH237866   3.326   3.642   7.968  0.2403 -0.1009  0.6489
 5436TIP3    H137867   3.299   3.550   7.978  0.2229  0.0706  2.5081
 5436TIP3    H237868   3.404   3.638   7.913 -1.3680 -0.9424 -1.7379
 5437TIP3   OH237869   4.108   5.635   6.352  0.2937 -0.2381 -0.4138
 5437TIP3    H137870   4.198   5.623   6.383  0.2978 -1.2124 -0.7662
 5437TIP3    H237871   4.054   5.588   6.416  0.0677  0.0208 -0.4131
 5438TIP3   OH237872   0.509   0.836   7.860 -0.0421  0.3690  0.0226
 5438TIP3    H137873   0.452   0.902   7.821  1.3856  2.0307  0.6022
 5438TIP3    H237874   0.480   0.753   7.821 -0.6586  1.5512 -2.2059
 5439TIP3   OH237875   1.770   1.353   7.199  0.1854  0.4848  0.0613
 5439TIP3    H137876   1.691   1.398   7.228  0.0697  0.3242 -0.0028
 5439TIP3    H237877   1.820   1.420   7.153  0.0893  0.5873  0.1047
 5440TIP3   OH237878   2.038   0.070   0.886  0.0106 -0.5175  0.4908
 5440TIP3    H137879   2.099   0.018   0.833  0.5992  0.2292  0.4226
 5440TIP3    H237880   2.074   0.067   0.974 -0.1836 -0.5748  0.5680
 5441TIP3   OH237881   4.031   2.502   7.185 -0.7383 -0.0207 -0.4164
 5441TIP3    H137882   4.101   2.444   7.213 -0.9268  0.3061  0.7933
 5441TIP3    H237883   4.072   2.563   7.124  0.6823  1.7583  2.1460
 5442TIP3   OH237884   6.047   2.375   2.310 -0.1858 -0.1585  0.0090
 5442TIP3    H137885   6.131   2.336   2.286 -0.8970 -1.3012 -0.6961
 5442TIP3    H237886   5.986   2.302   2.314 -1.0743  0.6001  0.9270
 5443TIP3   OH237887   3.096   2.869   7.848 -0.0685 -0.4611 -0.3953
 5443TIP3    H137888   3.097   2.775   7.832  1.9297 -0.2435 -1.9386
 5443TIP3    H237889   3.062   2.907   7.766 -0.0002  0.2032 -0.1219
 5444TIP3   OH237890   3.383   1.670   0.926 -0.4272  0.3066  0.2359
 5444TIP3    H137891   3.405   1.734   0.859 -0.2397  0.5985  0.5750
 5444TIP3    H237892   3.389   1.585   0.881 -0.4042  0.5075 -0.1409
 5445TIP3   OH237893   4.239   5.839   1.764  0.4873 -0.1839  0.1609
 5445TIP3    H137894   4.184   5.870   1.692  1.8576  1.4317 -0.2531
 5445TIP3    H237895   4.329   5.844   1.729  1.3856  2.4603  2.5182
 5446TIP3   OH237896   1.559   6.238   1.745 -0.0829 -0.9118  0.0717
 5446TIP3    H137897   1.482   6.268   1.792  0.3949 -1.6192  1.3483
 5446TIP3    H237898   1.550   6.276   1.658 -1.1325  0.2047  0.6355
 5447TIP3   OH237899   1.758   5.052   0.426  0.2116 -0.0667 -0.2757
 5447TIP3    H137900   1.695   4.987   0.396  0.0013  0.6484 -1.4207
 5447TIP3    H237901   1.762   5.116   0.356  1.8310  0.1797  0.0047
 5448TIP3   OH237902   4.078   5.228   7.796  0.4072  0.7270  0.2708
 5448TIP3    H137903   4.085   5.288   7.870 -4.0273 -0.3929  1.9289
 5448TIP3    H237904   4.105   5.143   7.832 -1.5845  0.2142  0.6752
 5449TIP3   OH237905   0.933   0.633   8.025 -0.5521 -0.7994 -0.0697
 5449TIP3    H137906   1.023   0.647   8.053 -0.9694  2.4922  0.1087
 5449TIP3    H237907   0.940   0.611   7.932  0.4857  0.9202 -0.4594
 5450TIP3   OH237908   0.140   6.892   0.678  0.0336  0.8561  0.1253
 5450TIP3    H137909   0.182   6.976   0.659  1.7618 -0.4885 -2.4624
 5450TIP3    H237910   0.049   6.905   0.651  0.2968  1.8839 -0.3304
 5451TIP3   OH237911   1.124   5.400   8.215  0.1731 -0.6705 -0.3185
 5451TIP3    H137912   1.082   5.483   8.196 -0.7600 -1.3441 -1.3619
 5451TIP3    H237913   1.144   5.403   8.308 -2.0453 -0.2280  0.2053
 5452TIP3   OH237914   6.074   3.418   7.677  0.6739  0.6006  0.3660
 5452TIP3    H137915   5.999   3.472   7.702 -0.3437 -0.4344 -0.3829
 5452TIP3    H237916   6.048   3.376   7.596  1.7380 -0.4503  0.5344
 5453TIP3   OH237917   3.225   0.869   7.615 -0.0888 -0.1531 -0.1383
 5453TIP3    H137918   3.314   0.874   7.650 -0.0265  0.0940 -0.3260
 5453TIP3    H237919   3.227   0.795   7.554  0.1749  0.2721 -0.6567
 5454TIP3   OH237920   4.613   1.870   8.418  0.3458 -0.1952  0.4047
 5454TIP3    H137921   4.692   1.924   8.421  1.2821 -1.4103 -0.9634
 5454TIP3    H237922   4.620   1.821   8.335 -1.1138 -1.4098  0.9450
 5455TIP3   OH237923   4.490   5.621   1.787 -0.0912  0.3811 -0.7385
 5455TIP3    H137924   4.585   5.630   1.797 -0.0601  0.1887 -0.8419
 5455TIP3    H237925   4.454   5.643   1.873  0.1928 -1.6662 -0.0444
 5456TIP3   OH237926   1.056   6.177   1.624  0.5643  0.0380 -0.1172
 5456TIP3    H137927   1.131   6.121   1.646  1.3781  0.9397 -0.5545
 5456TIP3    H237928   1.059   6.186   1.529 -1.3790 -1.6582 -0.4277
 5457TIP3   OH237929   1.056   1.229   8.090  0.3117  0.1031  0.0908
 5457TIP3    H137930   1.039   1.135   8.101  0.3823  0.3249  2.6941
 5457TIP3    H237931   1.145   1.233   8.055  1.2416 -0.8496  2.1395
 5458TIP3   OH237932   0.061   2.544   0.953 -0.0171  0.5127 -0.3667
 5458TIP3    H137933   0.127   2.612   0.945 -1.6640  2.1385 -0.8474
 5458TIP3    H237934   0.041   2.540   1.047 -1.9099  2.8187 -0.5653
 5459TIP3   OH237935   5.579   6.511   7.278  0.2365  0.1141 -0.1046
 5459TIP3    H137936   5.517   6.495   7.350  0.7434  1.6150  0.7030
 5459TIP3    H237937   5.662   6.528   7.322  0.1982  2.7462 -0.9296
 5460TIP3   OH237938   4.943   5.861   0.122 -0.2892  0.2748 -0.1079
 5460TIP3    H137939   4.877   5.887   0.058  0.3944  0.3255 -0.8112
 5460TIP3    H237940   5.026   5.869   0.075  0.0244 -2.7211 -0.2488
 5461TIP3   OH237941   6.307   0.844   1.511  0.2867  0.3013 -0.0245
 5461TIP3    H137942   6.271   0.892   1.586  0.8370 -0.7372  0.9307
 5461TIP3    H237943   6.402   0.850   1.524  0.3679 -0.9483  0.0654
 5462TIP3   OH237944   6.041   1.570   6.486  0.7210 -0.1529 -0.0834
 5462TIP3    H137945   6.095   1.581   6.565 -0.3676 -0.1164  0.6764
 5462TIP3    H237946   5.955   1.606   6.510  0.2050 -0.6601 -1.1025
 5463TIP3   OH237947   1.647   4.306   0.878  0.0602  0.1057 -0.4203
 5463TIP3    H137948   1.702   4.238   0.838  1.2222  1.0234 -0.4150
 5463TIP3    H237949   1.661   4.383   0.823  0.4618  0.9547  0.8416
 5464TIP3   OH237950   4.465   5.743   0.376  0.5709 -0.5296 -0.6140
 5464TIP3    H137951   4.470   5.793   0.294  2.2721 -0.6546 -0.6203
 5464TIP3    H237952   4.495   5.805   0.443 -0.8976 -0.3962 -0.0389
 5465TIP3   OH237953   6.790   2.994   1.117  0.6649  0.3804 -0.5701
 5465TIP3    H137954   6.866   3.047   1.095  1.2474 -0.1667  0.1067
 5465TIP3    H237955   6.786   2.929   1.047  1.2694 -0.0505 -0.2142
 5466TIP3   OH237956   0.243   3.778   1.208 -0.1872 -0.5913 -0.0672
 5466TIP3    H137957   0.222   3.833   1.132 -0.0869  0.2797  0.5220
 5466TIP3    H237958   0.194   3.817   1.280  1.6411  0.1317  0.8589
 5467TIP3   OH237959   4.750   0.357   7.069 -0.4640  0.0509 -0.9422
 5467TIP3    H137960   4.751   0.402   6.984 -0.1899 -0.4566 -1.2098
 5467TIP3    H237961   4.842   0.350   7.093 -0.5185 -0.2179 -0.8168
 5468TIP3   OH237962   2.979   5.725   8.218  0.2540 -0.4011 -0.3985
 5468TIP3    H137963   2.909   5.689   8.165 -0.2480  0.3328 -0.2592
 5468TIP3    H237964   3.055   5.671   8.198  0.0524 -0.2077 -1.7828
 5469TIP3   OH237965   5.829   3.555   8.484 -0.4410  0.3917 -0.2487
 5469TIP3    H137966   5.855   3.615   8.413 -1.0631 -0.1321 -0.9309
 5469TIP3    H237967   5.912   3.526   8.522 -0.1104  1.0119 -0.4827
 5470TIP3   OH237968   5.649   4.120   6.887  0.0139  0.1184  0.3449
 5470TIP3    H137969   5.677   4.161   6.805  1.5535 -1.1302  0.2200
 5470TIP3    H237970   5.722   4.064   6.912 -0.6463  0.0966  2.3244
 5471TIP3   OH237971   3.647   5.356   7.130 -0.4347  0.2269 -0.4798
 5471TIP3    H137972   3.589   5.390   7.199 -1.2995  1.1450 -1.6296
 5471TIP3    H237973   3.599   5.282   7.093  1.5651 -2.6577  2.2122
 5472TIP3   OH237974   1.924   1.533   0.904 -0.5028  0.3294  0.1269
 5472TIP3    H137975   1.965   1.555   0.988  1.1557 -0.0441 -0.5584
 5472TIP3    H237976   1.908   1.618   0.862 -0.8970  0.4955  0.5987
 5473TIP3   OH237977   3.799   6.847   0.167  0.3874  0.2909 -0.0195
 5473TIP3    H137978   3.882   6.819   0.131 -0.0375 -0.8758 -0.1432
 5473TIP3    H237979   3.741   6.771   0.157 -0.0888  0.3088  2.0093
 5474TIP3   OH237980   3.463   3.914   0.522 -0.3401  0.1667  0.2716
 5474TIP3    H137981   3.439   3.840   0.578 -0.2271  1.0642  1.5430
 5474TIP3    H237982   3.485   3.985   0.583  0.5629  0.9393 -0.9082
 5475TIP3   OH237983   4.142   6.253   6.910 -0.5804 -0.2172  0.3057
 5475TIP3    H137984   4.109   6.294   6.830 -0.5137 -0.5107  0.1276
 5475TIP3    H237985   4.145   6.325   6.974 -1.6428 -0.2026  0.3581
 5476TIP3   OH237986   3.363   4.731   1.416 -0.1728  0.0470  0.0198
 5476TIP3    H137987   3.443   4.689   1.382 -1.9248 -1.1550 -2.9943
 5476TIP3    H237988   3.321   4.662   1.467 -0.2696  0.0321 -0.0816
 5477TIP3   OH237989   2.946   3.259   2.367 -0.1902  0.3189 -0.1345
 5477TIP3    H137990   2.880   3.253   2.298  0.2508 -1.4875 -0.4552
 5477TIP3    H237991   2.895   3.262   2.448 -0.7204 -1.1137 -0.3731
 5478TIP3   OH237992   6.207   1.355   0.884  0.2799  0.0661 -0.0326
 5478TIP3    H137993   6.283   1.412   0.889 -0.9422  1.7078  0.8096
 5478TIP3    H237994   6.176   1.349   0.975 -0.7871 -0.3013 -0.4029
 5479TIP3   OH237995   4.766   4.455   7.845  0.2031  0.3202 -0.1333
 5479TIP3    H137996   4.821   4.449   7.767 -0.5959  0.2425 -0.7111
 5479TIP3    H237997   4.790   4.539   7.885 -0.0023  0.7977 -0.9755
 5480TIP3   OH237998   5.116   0.052   0.275  0.0608 -0.3592 -0.0112
 5480TIP3    H137999   5.037   0.096   0.305 -1.1851 -1.6401 -1.2910
 5480TIP3    H238000   5.125  -0.023   0.334  2.6231  1.8125  2.6875
 5481TIP3   OH238001   4.994   0.635   8.493 -0.6531  0.2016 -0.0095
 5481TIP3    H138002   4.952   0.720   8.479 -1.6927 -0.3913 -0.6626
 5481TIP3    H238003   4.958   0.604   8.576 -1.6946 -0.3762 -0.6443
 5482TIP3   OH238004   0.091   4.225   6.635 -0.4030  0.1234  0.2841
 5482TIP3    H138005   0.029   4.297   6.628 -0.2385  0.1280 -2.0637
 5482TIP3    H238006   0.043   4.157   6.683 -1.5329  0.8196  0.1833
 5483TIP3   OH238007   1.058   4.111   1.812  0.7186  0.1275  0.2941
 5483TIP3    H138008   1.004   4.191   1.807  1.9809  0.9628 -0.8627
 5483TIP3    H238009   1.051   4.083   1.903 -3.0362 -0.8384 -0.1063
 5484TIP3   OH238010   3.175   6.052   0.782  0.7729 -0.0378  0.1840
 5484TIP3    H138011   3.146   6.059   0.691 -0.7881  0.5453  0.6945
 5484TIP3    H238012   3.262   6.011   0.776 -0.1493 -1.9406 -1.4494
 5485TIP3   OH238013   5.753   1.182   8.358 -0.0262  0.9031  0.1887
 5485TIP3    H138014   5.846   1.191   8.341  0.0958  0.6949  0.7218
 5485TIP3    H238015   5.711   1.191   8.272  0.4920  0.8453 -0.0700
 5486TIP3   OH238016   0.349   2.796   1.371 -0.1999 -0.0711 -0.0567
 5486TIP3    H138017   0.428   2.814   1.320 -0.4981 -1.9023 -1.2646
 5486TIP3    H238018   0.378   2.730   1.435 -0.2779  0.8337  0.9397
 5487TIP3   OH238019   0.337   4.065   8.366 -0.1732 -0.3360  0.2585
 5487TIP3    H138020   0.338   4.160   8.379 -1.1682 -0.2910  0.0741
 5487TIP3    H238021   0.429   4.040   8.367  0.0923  0.6060  0.4945
 5488TIP3   OH238022   5.386   3.524   7.302 -0.2095  0.0578 -0.7463
 5488TIP3    H138023   5.388   3.519   7.206 -1.4923  0.9694 -0.8504
 5488TIP3    H238024   5.300   3.491   7.325 -0.1969  0.5583  0.0371
 5489TIP3   OH238025   6.171   4.574   8.235 -0.0913  0.7938 -0.4784
 5489TIP3    H138026   6.175   4.592   8.141 -2.0026  0.3882 -0.6611
 5489TIP3    H238027   6.088   4.612   8.264  0.4508  0.9061  1.0704
 5490TIP3   OH238028   0.647   1.251   2.252  0.2225  0.0215 -0.2809
 5490TIP3    H138029   0.601   1.319   2.301  2.6532  0.6916  1.2324
 5490TIP3    H238030   0.601   1.170   2.275 -2.0779  0.9549 -1.3031
 5491TIP3   OH238031   1.725   2.469   8.294  0.9740  0.0666  0.4565
 5491TIP3    H138032   1.680   2.528   8.354  1.1052  0.0578  0.5645
 5491TIP3    H238033   1.677   2.386   8.301  0.5127  0.2853 -0.0314
 5492TIP3   OH238034   1.647   1.826   8.211 -0.1562 -0.5990 -0.2685
 5492TIP3    H138035   1.730   1.801   8.172 -0.7174 -0.4859 -1.5886
 5492TIP3    H238036   1.624   1.753   8.269  0.0342 -1.4356 -1.2214
 5493TIP3   OH238037   5.581   2.047   1.466  0.5441 -0.3762 -0.2063
 5493TIP3    H138038   5.613   2.030   1.377 -0.0666 -2.2685 -0.1123
 5493TIP3    H238039   5.584   2.142   1.474  0.2765 -0.1213 -2.3839
 5494TIP3   OH238040   6.749   3.720   6.686 -0.0635  0.0043 -0.0881
 5494TIP3    H138041   6.826   3.702   6.740  0.6812 -1.9820 -1.6857
 5494TIP3    H238042   6.767   3.806   6.647  0.4876  0.3688  0.9357
 5495TIP3   OH238043   0.658   6.080   7.115 -0.2314  0.5907  0.0821
 5495TIP3    H138044   0.740   6.109   7.075  0.7282 -0.7840  0.9472
 5495TIP3    H238045   0.624   6.157   7.159  0.0252  1.4648 -1.2129
 5496TIP3   OH238046   5.471   1.006   8.323 -0.2643 -0.2612 -0.3190
 5496TIP3    H138047   5.539   0.941   8.306  1.1233  0.6674  1.3324
 5496TIP3    H238048   5.475   1.066   8.248  0.9633 -0.0536 -0.1035
 5497TIP3   OH238049   5.007   6.735   0.938 -0.0944  0.0099 -0.2051
 5497TIP3    H138050   5.012   6.742   0.842  1.7774 -3.2968 -0.5158
 5497TIP3    H238051   5.057   6.655   0.958 -1.4286 -0.0693  3.4461
 5498TIP3   OH238052   4.534   0.404   0.611  0.3464  0.1082 -0.5345
 5498TIP3    H138053   4.601   0.472   0.600  0.5392 -0.0646 -0.4450
 5498TIP3    H238054   4.584   0.322   0.611  0.0806 -0.0604 -1.0148
 5499TIP3   OH238055   2.655   6.543   0.666 -0.3570 -0.0474  0.4705
 5499TIP3    H138056   2.595   6.506   0.601  0.0054 -3.4253  1.8565
 5499TIP3    H238057   2.602   6.608   0.713 -1.6361 -0.0034 -0.9550
 5500TIP3   OH238058   4.213   5.221   0.146  0.2978 -0.4279  0.2681
 5500TIP3    H138059   4.211   5.315   0.130 -1.0107 -0.8505 -2.5416
 5500TIP3    H238060   4.136   5.204   0.200 -2.2565 -0.3682 -3.0873
 5501TIP3   OH238061   2.632   6.449   8.127  0.2201 -0.1642 -0.0554
 5501TIP3    H138062   2.660   6.381   8.066 -1.3733 -0.8430 -0.0836
 5501TIP3    H238063   2.568   6.406   8.184  1.1749  0.6289  1.6865
 5502TIP3   OH238064   0.760   0.825   8.099 -0.4113  0.6094 -0.5323
 5502TIP3    H138065   0.674   0.807   8.061 -0.2218  1.7905 -1.5694
 5502TIP3    H238066   0.814   0.751   8.071 -0.9129  0.1886 -0.4090
 5503TIP3   OH238067   4.256   2.099   1.563 -0.3910  0.6061  0.4350
 5503TIP3    H138068   4.268   2.026   1.502  0.7568 -0.0548  1.3942
 5503TIP3    H238069   4.306   2.171   1.524  0.0006  0.3162  0.3988
 5504TIP3   OH238070   2.489   1.296   6.481  0.0523  0.0759 -0.4167
 5504TIP3    H138071   2.451   1.234   6.419  0.0570 -0.0478 -0.2955
 5504TIP3    H238072   2.583   1.287   6.470  0.0468  0.3513 -0.6862
 5505TIP3   OH238073   1.397   2.486   0.654  0.1421 -0.1693 -0.2658
 5505TIP3    H138074   1.452   2.411   0.675 -1.4922 -1.6682 -1.0959
 5505TIP3    H238075   1.384   2.481   0.559 -1.0184  0.4251 -0.1600
 5506TIP3   OH238076   2.750   6.361   6.145  0.0004  0.1515  0.1344
 5506TIP3    H138077   2.725   6.452   6.134 -0.7753  0.2246  2.0379
 5506TIP3    H238078   2.826   6.363   6.204  0.8659 -0.3775 -0.9294
 5507TIP3   OH238079   6.252   5.260   0.028 -0.1245 -0.2251  0.0130
 5507TIP3    H138080   6.170   5.307   0.014 -0.5059 -1.1545 -0.9877
 5507TIP3    H238081   6.273   5.221  -0.057  0.3843 -1.5364  0.7040
 5508TIP3   OH238082   1.574   4.986   6.548  0.3599 -0.6025  0.0072
 5508TIP3    H138083   1.564   5.030   6.632 -1.5429  2.3712 -1.6217
 5508TIP3    H238084   1.658   5.016   6.514 -0.3773  0.8922 -0.5567
 5509TIP3   OH238085   1.588   6.511   8.034 -0.4041 -0.1972  0.3175
 5509TIP3    H138086   1.574   6.600   8.066  1.3516 -0.0135  0.6518
 5509TIP3    H238087   1.582   6.456   8.112 -0.4039 -0.2442  0.2842
 5510TIP3   OH238088   1.111   0.441   1.809 -0.0014 -0.0237 -0.5818
 5510TIP3    H138089   1.060   0.361   1.821 -0.7513  0.2572 -1.7650
 5510TIP3    H238090   1.046   0.510   1.798  0.6432  0.6505 -0.2609
 5511TIP3   OH238091   3.846   4.549   7.405  0.2618 -0.1585  0.0457
 5511TIP3    H138092   3.934   4.588   7.409  0.0359  0.2352  1.7194
 5511TIP3    H238093   3.803   4.579   7.484 -0.3627 -2.8158  0.8012
 5512TIP3   OH238094   5.280   1.403   7.976 -0.3104  0.7184  0.2464
 5512TIP3    H138095   5.210   1.458   7.939  0.0579  1.5945  0.8004
 5512TIP3    H238096   5.325   1.367   7.900 -1.5875 -0.1699 -0.1256
 5513TIP3   OH238097   3.297   5.190   1.883  0.3199 -0.2430  0.6602
 5513TIP3    H138098   3.217   5.237   1.857  1.2165 -0.6465 -3.4769
 5513TIP3    H238099   3.352   5.256   1.924 -0.3921  1.1550 -0.5565
 5514TIP3   OH238100   1.375   1.262   8.122 -0.5303  0.5043  1.0345
 5514TIP3    H138101   1.374   1.215   8.038  1.5506  0.9349  0.7209
 5514TIP3    H238102   1.351   1.352   8.099  2.9745  1.3830  0.2864
 5515TIP3   OH238103   2.587   2.083   1.784  0.0783  0.8342 -0.1050
 5515TIP3    H138104   2.493   2.079   1.805 -0.4574  1.0997 -2.1363
 5515TIP3    H238105   2.619   2.159   1.831 -0.4001 -0.0313  1.6892
 5516TIP3   OH238106   6.148   0.019   6.235  0.0265 -0.2650 -0.2782
 5516TIP3    H138107   6.188  -0.039   6.170  1.4484  0.4215 -0.0522
 5516TIP3    H238108   6.220   0.076   6.263 -0.9992  0.6370  0.5696
 5517TIP3   OH238109   5.973   5.224   7.174 -0.0240 -0.1169  0.5241
 5517TIP3    H138110   5.980   5.254   7.265  0.8023  1.8566 -0.1342
 5517TIP3    H238111   6.062   5.231   7.140 -0.3371 -0.7747 -0.4714
 5518TIP3   OH238112   6.706   1.097   1.641  0.2367  0.3343 -0.6544
 5518TIP3    H138113   6.669   1.094   1.729 -1.0654 -1.1426 -1.2019
 5518TIP3    H238114   6.694   1.188   1.613  0.2159  0.6997  0.4855
 5519TIP3   OH238115   3.970   3.778   8.390 -0.1180  0.3325 -0.1403
 5519TIP3    H138116   3.987   3.793   8.483  0.0685  3.1048 -0.5422
 5519TIP3    H238117   3.877   3.757   8.386 -0.0483 -0.1856  0.6819
 5520TIP3   OH238118   4.948   2.709   0.972 -0.0825 -0.4992 -0.3222
 5520TIP3    H138119   5.023   2.650   0.963  0.6912  0.4416 -0.1469
 5520TIP3    H238120   4.947   2.733   1.064 -1.1729 -1.2208 -0.1231
 5521TIP3   OH238121   2.181   6.535   7.283 -0.5502 -0.5147  0.5164
 5521TIP3    H138122   2.206   6.506   7.195 -0.0719  0.5985  0.2699
 5521TIP3    H238123   2.093   6.498   7.296  0.0428 -2.0872  0.2530
 5522TIP3   OH238124   3.064   6.829   8.395  0.1285  0.3318  0.2964
 5522TIP3    H138125   2.995   6.883   8.356 -0.1430  0.4945  0.9842
 5522TIP3    H238126   3.130   6.893   8.424  0.9210  0.1325 -1.0096
 5523TIP3   OH238127   3.024   5.008   0.467  0.5968  0.7076  0.4845
 5523TIP3    H138128   2.974   4.958   0.531 -0.6185  2.3275  0.8556
 5523TIP3    H238129   3.003   5.099   0.485  1.0306  1.2686 -1.5536
 5524TIP3   OH238130   6.250   5.215   7.090 -0.3471  0.7185 -0.3365
 5524TIP3    H138131   6.277   5.158   7.018 -1.5265  1.1417 -1.1437
 5524TIP3    H238132   6.288   5.301   7.069  1.4821  0.2774  0.9103
 5525TIP3   OH238133   6.878   1.587   7.867 -0.0984 -0.7791 -0.1381
 5525TIP3    H138134   6.884   1.591   7.963  0.0129 -0.3117 -0.1645
 5525TIP3    H238135   6.903   1.674   7.838 -1.0948 -0.6244 -0.5505
 5526TIP3   OH238136   4.127   0.376   0.442  0.8444 -0.0779 -0.2619
 5526TIP3    H138137   4.154   0.455   0.489 -0.2772  0.0785  0.1510
 5526TIP3    H238138   4.181   0.306   0.480  0.3566  0.1428  0.8901
 5527TIP3   OH238139   4.869   5.098   6.215  0.4863 -0.4580 -0.3921
 5527TIP3    H138140   4.855   5.004   6.218  1.4531 -0.5831  0.6564
 5527TIP3    H238141   4.812   5.134   6.283  0.5466 -0.3398 -0.4026
 5528TIP3   OH238142   5.630   5.317   7.364 -0.1239 -0.0254  0.1280
 5528TIP3    H138143   5.724   5.297   7.367 -0.3369 -1.2634 -0.4516
 5528TIP3    H238144   5.625   5.412   7.372  1.1652  0.0376  0.4186
 5529TIP3   OH238145   4.421   1.858   1.728  0.4084  0.0216  0.4049
 5529TIP3    H138146   4.452   1.842   1.817  2.0847  0.9004  0.0321
 5529TIP3    H238147   4.349   1.796   1.716  0.9196 -0.9380  1.9457
 5530TIP3   OH238148   3.462   0.098   0.558 -0.6319  0.6666 -0.3461
 5530TIP3    H138149   3.386   0.046   0.586 -0.7206  0.7013 -0.5181
 5530TIP3    H238150   3.432   0.142   0.478  0.2820 -1.0693 -1.7286
 5531TIP3   OH238151   3.265   6.891   0.767  0.1353 -0.6570 -0.5845
 5531TIP3    H138152   3.276   6.796   0.775 -0.9453 -0.7390  0.1334
 5531TIP3    H238153   3.188   6.902   0.711 -0.1299 -0.2126 -0.1401
 5532TIP3   OH238154   6.052   2.628   1.162 -0.0793  0.6717 -0.7942
 5532TIP3    H138155   6.003   2.622   1.244 -1.1474 -1.2366 -1.4987
 5532TIP3    H238156   6.094   2.714   1.165  1.5407 -0.0622  2.6201
 5533TIP3   OH238157   4.225   1.363   6.923 -0.7367 -0.3281  0.1650
 5533TIP3    H138158   4.151   1.407   6.881 -0.8457  2.0038  2.5163
 5533TIP3    H238159   4.302   1.395   6.878 -0.9626  0.5586  0.3894
 5534TIP3   OH238160   3.133   4.402   8.479 -0.2367  0.5370  0.4960
 5534TIP3    H138161   3.159   4.449   8.558  0.0192  0.5590  0.3990
 5534TIP3    H238162   3.116   4.471   8.414  1.1494  0.4733  0.0405
 5535TIP3   OH238163   1.684   0.140   7.825  0.4420  0.4796 -0.0012
 5535TIP3    H138164   1.743   0.140   7.750  1.0354 -0.7866  0.4318
 5535TIP3    H238165   1.714   0.067   7.879 -1.7856 -0.5334  0.0086
 5536TIP3   OH238166   3.676   3.821   8.662  0.0728 -0.2251  0.5386
 5536TIP3    H138167   3.659   3.886   8.594 -3.1470  1.2554  2.4914
 5536TIP3    H238168   3.733   3.866   8.725 -0.1652 -0.1586  0.7085
 5537TIP3   OH238169   5.500   2.854   7.061 -0.3089  0.4248  0.2315
 5537TIP3    H138170   5.464   2.790   7.001  0.6749  0.0530  0.0126
 5537TIP3    H238171   5.534   2.923   7.005  1.6010 -0.4337  0.2454
 5538TIP3   OH238172   5.126   1.284   0.094 -0.4442  0.4750 -0.1523
 5538TIP3    H138173   5.158   1.199   0.124 -2.9592 -0.1539  0.9770
 5538TIP3    H238174   5.123   1.275  -0.002  1.6048  0.2132 -0.2340
 5539TIP3   OH238175   3.968   1.950   2.473 -0.5306  0.3211  0.2313
 5539TIP3    H138176   3.959   2.044   2.459  1.3282  0.4049 -0.6473
 5539TIP3    H238177   3.988   1.942   2.566 -3.2714  0.5229  0.9415
 5540TIP3   OH238178   4.020   4.939   0.644  0.6603 -0.4131  0.4764
 5540TIP3    H138179   4.074   4.860   0.651  1.2560 -0.3021 -2.0243
 5540TIP3    H238180   4.082   5.009   0.624 -0.0562  0.3974  0.9999
 5541TIP3   OH238181   5.199   2.539   0.605 -0.3955 -0.2271  0.1544
 5541TIP3    H138182   5.189   2.576   0.517  0.5726 -2.0365 -0.7727
 5541TIP3    H238183   5.114   2.553   0.647 -0.0861  3.0112 -0.0759
 5542TIP3   OH238184   2.664   5.240   1.184 -0.3101  0.1428  0.1393
 5542TIP3    H138185   2.726   5.214   1.116 -1.3789  0.6049 -1.0466
 5542TIP3    H238186   2.624   5.320   1.151 -1.5356 -0.1371  0.8832
 5543TIP3   OH238187   1.733   3.727   1.127  0.2840 -0.3542  0.1125
 5543TIP3    H138188   1.669   3.750   1.195  0.5945 -0.6546  0.5111
 5543TIP3    H238189   1.750   3.634   1.140 -0.4632 -0.6823 -1.0736
 5544TIP3   OH238190   1.702   4.035   7.344 -0.0208 -0.6641  0.2038
 5544TIP3    H138191   1.675   4.033   7.252  0.6994 -0.8502 -0.0069
 5544TIP3    H238192   1.643   4.100   7.384 -0.5241 -0.7830 -0.3225
 5545TIP3   OH238193   0.066   6.341   1.917 -0.0265 -0.1017 -0.3024
 5545TIP3    H138194   0.063   6.401   1.842  0.3202 -0.3731 -0.5349
 5545TIP3    H238195   0.134   6.278   1.894  0.3416  0.0283  0.4048
 5546TIP3   OH238196   4.486   4.745   1.432 -0.3737 -0.0739  0.3775
 5546TIP3    H138197   4.498   4.669   1.490  1.6896 -2.0845 -2.3706
 5546TIP3    H238198   4.574   4.781   1.421 -0.6322  0.0848 -1.5968
 5547TIP3   OH238199   3.267   0.102   8.460  0.5292 -0.1249  0.2473
 5547TIP3    H138200   3.268   0.108   8.556  2.1971  0.0708  0.2363
 5547TIP3    H238201   3.340   0.157   8.431  0.7604 -1.0829 -1.0746
 5548TIP3   OH238202   2.246   5.228   7.041  0.0797  0.5254  0.2322
 5548TIP3    H138203   2.306   5.299   7.014  2.0698 -0.4309  1.8400
 5548TIP3    H238204   2.227   5.247   7.132 -1.0236  0.0611  0.1066
 5549TIP3   OH238205   3.838   0.418   8.074 -0.2597  0.5207  0.0034
 5549TIP3    H138206   3.845   0.468   7.993  0.8034  1.3418  0.5645
 5549TIP3    H238207   3.861   0.329   8.050 -1.8884  0.3367 -0.9613
 5550TIP3   OH238208   0.815   0.382   7.432  0.2677 -0.8857  0.4129
 5550TIP3    H138209   0.836   0.292   7.457 -1.5296 -1.5242 -0.2219
 5550TIP3    H238210   0.887   0.408   7.374 -0.0684 -2.5931 -0.8672
 5551TIP3   OH238211   3.461   4.008   7.224 -0.0260 -0.3704 -0.0495
 5551TIP3    H138212   3.424   3.960   7.150  0.4554  0.5678 -0.9204
 5551TIP3    H238213   3.415   3.973   7.301  1.2938 -3.2378 -0.4534
 5552TIP3   OH238214   1.165   6.874   8.200 -0.0161 -0.8556  0.0333
 5552TIP3    H138215   1.161   6.924   8.119 -2.5033  0.8294  1.0618
 5552TIP3    H238216   1.185   6.939   8.267 -0.9031 -1.6384  1.1061
 5553TIP3   OH238217   2.512   3.750   2.062  0.4589  0.0391  0.7960
 5553TIP3    H138218   2.509   3.752   1.966 -0.6184  1.3845  0.8201
 5553TIP3    H238219   2.603   3.767   2.084  0.3140  2.1771 -0.0032
 5554TIP3   OH238220   4.733   5.782   7.801 -0.1237 -0.3342 -0.0015
 5554TIP3    H138221   4.703   5.691   7.806  1.2397 -0.8292 -0.3257
 5554TIP3    H238222   4.664   5.828   7.752 -0.1973 -1.4902 -1.0186
 5555TIP3   OH238223   4.083   3.573   6.658  0.2589  0.2758  0.3990
 5555TIP3    H138224   4.131   3.525   6.590 -1.0645  0.1615 -0.4903
 5555TIP3    H238225   4.082   3.514   6.733 -1.0402 -0.9893 -0.5620
 5556TIP3   OH238226   4.883   4.810   8.311 -0.4199 -0.3158 -0.2903
 5556TIP3    H138227   4.957   4.752   8.330  2.6428  2.9332 -1.3652
 5556TIP3    H238228   4.864   4.794   8.219  0.8619  0.7666 -0.7643
 5557TIP3   OH238229   6.745   4.113   6.951 -0.4943  0.0488 -0.4000
 5557TIP3    H138230   6.664   4.073   6.982 -0.9275  1.6337  0.6806
 5557TIP3    H238231   6.722   4.156   6.869 -0.9554  1.0446  0.2266
 5558TIP3   OH238232   2.011   4.161   7.308 -0.2055 -0.2327 -0.9944
 5558TIP3    H138233   2.072   4.115   7.250  0.8110 -0.4710  0.2323
 5558TIP3    H238234   2.050   4.247   7.321 -1.5475  0.6542 -2.3917
 5559TIP3   OH238235   0.107   3.423   0.328 -0.2893 -0.2775  0.0110
 5559TIP3    H138236   0.149   3.414   0.242 -1.5847  3.5740 -1.2567
 5559TIP3    H238237   0.180   3.420   0.390  0.8945 -1.4754 -1.3423
 5560TIP3   OH238238   2.191   2.665   7.368 -0.0565 -0.5971 -0.3046
 5560TIP3    H138239   2.272   2.614   7.367 -0.9742 -2.1821  0.6325
 5560TIP3    H238240   2.129   2.612   7.319 -0.3915  0.9456 -1.6467
 5561TIP3   OH238241   6.295   2.304   1.650  0.0644  0.2582 -0.5751
 5561TIP3    H138242   6.216   2.358   1.663  0.0180 -0.1593  1.0094
 5561TIP3    H238243   6.358   2.338   1.714  0.1378 -1.3408  0.2465
 5562TIP3   OH238244   3.518   6.831   8.478 -0.2466  0.0404 -0.2076
 5562TIP3    H138245   3.427   6.803   8.476 -0.2259 -0.0479  0.0269
 5562TIP3    H238246   3.519   6.914   8.429 -0.6067  0.4697  0.4872
 5563TIP3   OH238247   6.012   3.576   8.149  0.3772 -0.4221 -0.1072
 5563TIP3    H138248   6.056   3.628   8.082 -0.4547  1.6180  0.8637
 5563TIP3    H238249   6.056   3.490   8.145  2.1569  0.4833 -1.3958
 5564TIP3   OH238250   5.311   4.672   2.334  0.5439  0.0095 -0.1357
 5564TIP3    H138251   5.339   4.763   2.326  0.6503  0.1324  1.2648
 5564TIP3    H238252   5.311   4.639   2.245  2.6826  0.7300 -0.4574
 5565TIP3   OH238253   5.762   3.517   1.657  0.7195 -0.1153  0.2010
 5565TIP3    H138254   5.680   3.559   1.632  0.6639 -0.0319  0.5264
 5565TIP3    H238255   5.795   3.478   1.575  1.5031  1.7770 -0.4495
 5566TIP3   OH238256   3.205   5.253   0.074 -0.2707 -0.1512 -0.0352
 5566TIP3    H138257   3.261   5.301   0.135  1.1225 -1.2233 -0.4036
 5566TIP3    H238258   3.122   5.299   0.077  0.4034  1.0888  1.0797
 5567TIP3   OH238259   0.767   3.037   1.364  0.8292 -0.5209  0.2684
 5567TIP3    H138260   0.825   3.093   1.415 -0.2943  1.0691 -0.1344
 5567TIP3    H238261   0.687   3.089   1.353  0.1534 -1.7852 -1.0444
 5568TIP3   OH238262   1.565   5.569   0.112 -0.3699  0.6431  0.6029
 5568TIP3    H138263   1.656   5.543   0.131 -0.6729 -0.7647  0.2678
 5568TIP3    H238264   1.523   5.572   0.198  0.0938  1.7725  0.8072
 5569TIP3   OH238265   4.352   5.640   1.560  0.5769 -0.3641  0.4252
 5569TIP3    H138266   4.407   5.621   1.636 -0.0381  0.1950  1.0254
 5569TIP3    H238267   4.284   5.574   1.563  0.6286 -0.4248  0.2770
 5570TIP3   OH238268   5.459   4.766   7.825 -0.2097 -0.0383  0.0562
 5570TIP3    H138269   5.542   4.812   7.836 -0.8480  1.1860 -0.1213
 5570TIP3    H238270   5.401   4.807   7.889 -0.7821 -0.6502 -0.0633
 5571TIP3   OH238271   0.051   5.672   7.410 -0.7149 -1.0793  0.2450
 5571TIP3    H138272   0.111   5.723   7.465  2.3525 -2.5367 -1.4538
 5571TIP3    H238273   0.029   5.731   7.338 -2.1512 -0.2404  1.3185
 5572TIP3   OH238274   0.959   6.311   0.199  0.2822 -0.8138  0.0887
 5572TIP3    H138275   0.890   6.331   0.137  1.3461  1.5394 -0.4575
 5572TIP3    H238276   0.922   6.335   0.284  0.1993 -0.1177 -0.1341
 5573TIP3   OH238277   4.727   4.282   1.267 -0.4215  0.2753  0.3547
 5573TIP3    H138278   4.737   4.370   1.231 -1.8090  0.0974 -0.5795
 5573TIP3    H238279   4.713   4.226   1.190  0.0369 -0.6973  0.9527
 5574TIP3   OH238280   4.122   2.692   7.011  0.2150 -0.6621 -0.0227
 5574TIP3    H138281   4.133   2.786   6.997  1.2124 -1.0183 -1.9241
 5574TIP3    H238282   4.060   2.664   6.943 -2.3070 -0.9825  2.2414
 5575TIP3   OH238283   5.112   1.151   1.446 -0.7745  0.0384 -0.0527
 5575TIP3    H138284   5.025   1.117   1.465 -0.5986 -0.0712  0.5845
 5575TIP3    H238285   5.103   1.246   1.456 -1.0818  0.1334 -1.0882
 5576TIP3   OH238286   4.076   1.947   6.677 -0.3768  0.0897 -0.1609
 5576TIP3    H138287   4.054   1.865   6.632  0.0956 -0.5678  0.7849
 5576TIP3    H238288   4.003   2.005   6.656 -0.1903 -0.2041 -1.7414
 5577TIP3   OH238289   3.013   5.632   0.027 -0.1123 -0.5699 -0.0106
 5577TIP3    H138290   2.972   5.575   0.093 -0.4252  1.2073  1.3973
 5577TIP3    H238291   2.941   5.656  -0.031 -0.3093 -0.3891  0.3042
 5578TIP3   OH238292   0.675   1.627   1.341 -0.2234 -0.6638 -0.5245
 5578TIP3    H138293   0.762   1.591   1.358 -0.1887 -1.2843 -1.8570
 5578TIP3    H238294   0.633   1.561   1.285 -1.1325  0.1461 -0.8253
 5579TIP3   OH238295   2.124   0.310   1.846  0.3399  0.6343 -0.9431
 5579TIP3    H138296   2.162   0.357   1.921  1.5064  0.9293 -1.7057
 5579TIP3    H238297   2.030   0.332   1.850  0.3496  0.5733  0.4721
 5580TIP3   OH238298   3.711   3.331   1.609 -0.8326  0.2392  0.0114
 5580TIP3    H138299   3.764   3.333   1.528 -0.1904  0.6877  0.4310
 5580TIP3    H238300   3.763   3.280   1.670 -0.0168  2.1429  0.9924
 5581TIP3   OH238301   0.560   0.605   1.395 -0.0003 -0.2702 -0.3001
 5581TIP3    H138302   0.598   0.677   1.445  2.9492 -1.5875 -0.4318
 5581TIP3    H238303   0.488   0.644   1.347 -0.9453  1.7179  2.5280
 5582TIP3   OH238304   4.191   5.030   7.027  0.6502  0.1337  0.0094
 5582TIP3    H138305   4.242   5.093   7.078 -1.9651  0.8994  1.9199
 5582TIP3    H238306   4.183   4.954   7.085  0.2741 -0.2679 -0.5631
 5583TIP3   OH238307   4.826   3.990   7.734  1.1632 -0.1185 -0.2326
 5583TIP3    H138308   4.752   3.932   7.717 -0.8552  1.7186  1.7134
 5583TIP3    H238309   4.883   3.979   7.658 -1.9328 -0.3353 -2.7168
 5584TIP3   OH238310   2.843   1.575   7.709  0.0894  0.1537  0.0958
 5584TIP3    H138311   2.881   1.508   7.653  0.8694 -0.3367  1.1933
 5584TIP3    H238312   2.916   1.608   7.761 -0.5286  0.9221  0.5060
 5585TIP3   OH238313   4.707   5.752   8.148 -0.1432 -0.2132  0.0829
 5585TIP3    H138314   4.702   5.660   8.170 -1.3101 -0.0996  0.3401
 5585TIP3    H238315   4.800   5.775   8.161  0.3544 -1.5464 -0.8741
 5586TIP3   OH238316   2.526   6.089   6.393  0.3217 -0.0647 -0.1638
 5586TIP3    H138317   2.539   6.141   6.314  0.9200  0.5223  0.3112
 5586TIP3    H238318   2.435   6.060   6.388 -0.4296  2.0596  0.1476
 5587TIP3   OH238319   3.483   1.398   0.839  0.7111 -0.1954  0.0789
 5587TIP3    H138320   3.486   1.396   0.935 -0.4868  1.9351  0.2290
 5587TIP3    H238321   3.565   1.439   0.814  0.8651 -0.4186  0.2107
 5588TIP3   OH238322   5.759   2.744   1.606 -0.0670  0.5174 -0.4426
 5588TIP3    H138323   5.760   2.649   1.619  1.8361  0.7321  1.5884
 5588TIP3    H238324   5.844   2.764   1.566  0.3351  1.5073  0.8386
 5589TIP3   OH238325   4.493   2.363   7.171 -0.2435 -0.3025 -0.0982
 5589TIP3    H138326   4.437   2.341   7.096 -0.9184  0.6228  0.1203
 5589TIP3    H238327   4.563   2.417   7.133  0.5471 -1.4719 -0.3743
 5590TIP3   OH238328   2.801   2.442   1.293  0.1670  0.2360  0.6188
 5590TIP3    H138329   2.848   2.442   1.377  0.2084 -0.2824  0.6004
 5590TIP3    H238330   2.710   2.459   1.317  0.2536  0.5700  0.7205
 5591TIP3   OH238331   2.040   4.797   6.781 -0.3553 -0.1207 -0.1993
 5591TIP3    H138332   1.961   4.761   6.738 -0.2662 -0.8658  0.2410
 5591TIP3    H238333   2.072   4.725   6.836  0.3756  0.3329 -0.0214
 5592TIP3   OH238334   3.591   5.013   0.331 -0.1760  0.2345  0.1962
 5592TIP3    H138335   3.649   5.014   0.407 -1.4982 -3.2805  1.4439
 5592TIP3    H238336   3.504   4.995   0.367 -1.1363  0.1117 -2.0372
 5593TIP3   OH238337   6.065   1.751   1.782 -0.1187 -0.5381 -0.5014
 5593TIP3    H138338   6.040   1.825   1.727  1.7339 -0.2864 -1.0878
 5593TIP3    H238339   6.099   1.792   1.862 -0.0531 -0.7963 -0.3955
 5594TIP3   OH238340   4.068   3.902   8.622 -0.3663 -0.1348  0.2643
 5594TIP3    H138341   4.054   3.991   8.656 -3.1099 -0.5770  0.5256
 5594TIP3    H238342   4.144   3.910   8.564 -1.1592  2.6330 -0.5474
 5595TIP3   OH238343   0.638   5.159   1.093  0.1970 -0.1221  0.1942
 5595TIP3    H138344   0.654   5.105   1.015  0.5431  0.3807 -0.0892
 5595TIP3    H238345   0.649   5.099   1.167  1.4545 -0.2419 -0.0779
 5596TIP3   OH238346   6.309   0.905   0.277 -0.3785 -0.6979 -0.2688
 5596TIP3    H138347   6.368   0.940   0.210 -1.7673  0.8029 -0.7854
 5596TIP3    H238348   6.365   0.853   0.335  1.0652 -0.9866 -1.8737
 5597TIP3   OH238349   2.901   0.085   1.936  0.5556 -0.0075 -0.3637
 5597TIP3    H138350   2.909   0.176   1.966  0.0819  0.0549 -0.4226
 5597TIP3    H238351   2.824   0.085   1.879  0.9864 -0.2899 -0.9635
 5598TIP3   OH238352   0.302   0.996   1.794  0.5581 -0.1824  0.0282
 5598TIP3    H138353   0.273   0.978   1.883 -1.1657 -0.7366 -0.6080
 5598TIP3    H238354   0.225   0.980   1.740  1.5026  0.3729 -1.5462
 5599TIP3   OH238355   1.889   6.649   7.508 -0.0445 -0.3434  0.0715
 5599TIP3    H138356   1.980   6.619   7.516  0.4048  0.8869 -0.2768
 5599TIP3    H238357   1.869   6.639   7.415 -0.4281 -1.0114  0.2142
 5600TIP3   OH238358   3.562   5.304   0.090 -0.0698 -0.0285  0.7178
 5600TIP3    H138359   3.566   5.261   0.004 -0.1386 -1.2456  1.2979
 5600TIP3    H238360   3.544   5.396   0.070  1.0340 -0.0693 -0.6212
 5601TIP3   OH238361   3.289   4.782   5.818 -0.0346  0.3640 -0.3573
 5601TIP3    H138362   3.327   4.850   5.763  1.5611 -0.1884 -0.0125
 5601TIP3    H238363   3.340   4.787   5.900 -0.1116 -0.9870 -0.2027
 5602TIP3   OH238364   5.984   4.234   0.115  0.1948  0.4026 -0.1362
 5602TIP3    H138365   5.970   4.151   0.160 -0.2756  1.1989  1.2315
 5602TIP3    H238366   5.914   4.238   0.050 -1.8205  1.1793  1.9783
 5603TIP3   OH238367   3.511   5.310   2.264  0.5398  0.1659 -0.3840
 5603TIP3    H138368   3.420   5.279   2.263  0.7522 -0.6729  1.3702
 5603TIP3    H238369   3.507   5.395   2.307  0.7158 -0.5075  1.0157
 5604TIP3   OH238370   5.120   2.431   0.084  0.1251  0.0185  0.0147
 5604TIP3    H138371   5.108   2.406  -0.007  0.7437  0.4627 -0.1982
 5604TIP3    H238372   5.032   2.432   0.121 -0.3249  1.4206 -0.9991
 5605TIP3   OH238373   1.554   1.735   0.200 -0.0972 -0.3299  0.0938
 5605TIP3    H138374   1.526   1.810   0.147 -0.5675 -0.1127  0.6363
 5605TIP3    H238375   1.511   1.659   0.160 -2.5824  0.1345  1.6338
 5606TIP3   OH238376   0.676   1.801   8.273 -0.2310 -0.1630 -0.3193
 5606TIP3    H138377   0.694   1.726   8.216 -2.5520 -0.2988 -0.9543
 5606TIP3    H238378   0.756   1.853   8.269  1.4091 -2.4851  0.0251
 5607TIP3   OH238379   2.097   1.311   0.833 -0.5161 -0.2848 -0.1299
 5607TIP3    H138380   2.088   1.290   0.740 -2.8516 -0.0376 -0.0276
 5607TIP3    H238381   2.026   1.373   0.850  0.1071 -0.0282  1.7379
 5608TIP3   OH238382   4.427   5.949   6.924  0.1326  0.0633 -0.1230
 5608TIP3    H138383   4.479   5.872   6.949 -1.0546 -0.8299 -0.2732
 5608TIP3    H238384   4.440   5.957   6.829 -0.8939 -0.8901 -0.3690
 5609TIP3   OH238385   3.008   6.730   1.791  0.5209  0.2388  0.2611
 5609TIP3    H138386   3.030   6.639   1.808  1.1977  0.0632 -1.3817
 5609TIP3    H238387   2.927   6.745   1.839  0.5993 -1.1094  0.8561
 5610TIP3   OH238388   5.038   3.618   7.357 -0.6767 -0.6776  0.1333
 5610TIP3    H138389   5.106   3.551   7.365 -1.1494 -1.1112  0.6247
 5610TIP3    H238390   4.991   3.614   7.440 -0.4268  0.5899  0.3482
 5611TIP3   OH238391   2.047   2.673   1.467 -0.0384  0.1588 -0.0471
 5611TIP3    H138392   2.074   2.754   1.424  0.6234  0.6808  1.3222
 5611TIP3    H238393   2.097   2.671   1.548 -0.7581 -1.1562  0.3831
 5612TIP3   OH238394   5.517   4.165   8.589 -0.1340 -0.5907  0.1051
 5612TIP3    H138395   5.438   4.118   8.563  1.4836 -4.0896  0.8388
 5612TIP3    H238396   5.525   4.146   8.683  1.7092 -0.5981 -0.0276
 5613TIP3   OH238397   6.338   2.342   7.962 -0.1219  0.3676 -0.3913
 5613TIP3    H138398   6.326   2.308   8.051  0.1601  0.5007 -0.3013
 5613TIP3    H238399   6.269   2.299   7.911  0.6053 -0.8492 -0.4093
 5614TIP3   OH238400   2.280   0.075   8.113 -0.4318 -0.1583 -0.4233
 5614TIP3    H138401   2.335   0.073   8.035 -0.8989 -0.8327 -0.7487
 5614TIP3    H238402   2.268   0.168   8.131 -0.1746  0.0043 -1.0506
 5615TIP3   OH238403   3.284   4.123   6.212 -0.0030  0.3220  0.3010
 5615TIP3    H138404   3.355   4.154   6.269  1.5638 -0.5622 -1.0900
 5615TIP3    H238405   3.268   4.197   6.154 -0.1193  0.4721  0.5221
 5616TIP3   OH238406   0.387   0.310   0.828 -0.5085 -0.5186  0.1395
 5616TIP3    H138407   0.428   0.271   0.905 -0.4165  1.8650  1.3829
 5616TIP3    H238408   0.297   0.328   0.856 -0.2928  0.9574 -0.0508
 5617TIP3   OH238409   4.836   1.296   0.077 -0.1144  0.2519  0.2787
 5617TIP3    H138410   4.924   1.333   0.089  0.5777 -1.1684 -0.1237
 5617TIP3    H238411   4.852   1.212   0.033 -1.6975  0.0504  0.0459
 5618TIP3   OH238412   6.642   0.462   8.318  0.4225  0.3528 -0.0427
 5618TIP3    H138413   6.734   0.478   8.297 -0.0528  0.9120 -1.8376
 5618TIP3    H238414   6.634   0.366   8.316  1.1422  0.2361  1.1238
 5619TIP3   OH238415   1.274   3.558   1.918 -0.0333  0.9396  0.0083
 5619TIP3    H138416   1.215   3.483   1.929 -0.5064  1.6190  2.8385
 5619TIP3    H238417   1.347   3.539   1.976  0.0927  2.4157  0.3700
 5620TIP3   OH238418   1.797   0.598   8.061 -0.2477 -0.1442  0.3783
 5620TIP3    H138419   1.752   0.673   8.099  0.2303  0.7606 -0.7886
 5620TIP3    H238420   1.744   0.574   7.985 -0.3774 -0.9795  0.7180
 5621TIP3   OH238421   0.673   1.597   8.644  0.3489 -0.2212  0.0155
 5621TIP3    H138422   0.752   1.542   8.642 -0.1110 -0.9077 -2.6337
 5621TIP3    H238423   0.698   1.676   8.596 -0.3354 -0.0552 -0.0683
 5622TIP3   OH238424   0.663   4.135   0.863  0.0287  0.2728 -0.2204
 5622TIP3    H138425   0.680   4.174   0.777  2.3446 -0.7739 -0.3087
 5622TIP3    H238426   0.736   4.166   0.917 -1.4616  1.0257  1.4507
 5623TIP3   OH238427   6.858   6.153   0.263 -0.5051  0.1051 -0.0155
 5623TIP3    H138428   6.918   6.161   0.336 -0.2187 -0.1268 -0.2272
 5623TIP3    H238429   6.832   6.243   0.243 -0.9827  0.1303  0.6996
 5624TIP3   OH238430   1.017   1.998   0.049 -0.2208  0.0109 -0.0129
 5624TIP3    H138431   0.973   1.924   0.009  0.9515 -0.8081  0.1641
 5624TIP3    H238432   1.056   1.963   0.129  0.1270  0.8729  0.2069
 5625TIP3   OH238433   6.817   5.987   6.547 -0.4188 -0.3321  0.8473
 5625TIP3    H138434   6.761   6.064   6.554 -1.2417 -0.9049  0.7146
 5625TIP3    H238435   6.757   5.915   6.527  0.4422 -0.8527  0.0489
 5626TIP3   OH238436   0.731   1.728   0.552  0.4614  0.4918 -0.5968
 5626TIP3    H138437   0.788   1.752   0.626  0.4822 -0.1267 -0.4053
 5626TIP3    H238438   0.729   1.632   0.554  0.5856  0.4636 -1.4975
 5627TIP3   OH238439   3.341   1.624   0.471 -0.2054 -0.2451 -0.0838
 5627TIP3    H138440   3.381   1.709   0.456 -1.3757  0.0304 -1.9181
 5627TIP3    H238441   3.411   1.561   0.453  0.6285  0.2810  1.1583
 5628TIP3   OH238442   2.773   1.403   7.421  0.0052 -0.5460 -0.1068
 5628TIP3    H138443   2.824   1.386   7.500  0.8990  2.3990  0.0839
 5628TIP3    H238444   2.693   1.444   7.453  0.0103 -0.0866 -0.6692
 5629TIP3   OH238445   6.580   5.307   8.622  0.0980 -0.0982  0.0980
 5629TIP3    H138446   6.668   5.343   8.633 -0.3146  0.6969  0.9377
 5629TIP3    H238447   6.522   5.376   8.654 -0.9324  0.0057 -1.8131
 5630TIP3   OH238448   3.106   0.043   1.392  0.6764  0.4515 -0.4379
 5630TIP3    H138449   3.171  -0.017   1.355  1.3512 -0.2891  1.7476
 5630TIP3    H238450   3.026   0.026   1.343  1.5310 -0.3476 -1.6018
 5631TIP3   OH238451   5.516   2.619   1.375  0.0506 -0.0210  0.4779
 5631TIP3    H138452   5.592   2.622   1.433  2.4966 -0.5092 -2.4739
 5631TIP3    H238453   5.443   2.648   1.430  2.3248  0.5228  3.4668
 5632TIP3   OH238454   3.805   0.845   6.905 -0.0366 -0.1884  0.1752
 5632TIP3    H138455   3.856   0.789   6.964  1.7177 -0.9508 -1.9288
 5632TIP3    H238456   3.869   0.905   6.868 -1.1947  0.6397 -0.5496
 5633TIP3   OH238457   1.850   3.678   8.098  0.1294  0.4864 -0.0408
 5633TIP3    H138458   1.909   3.625   8.152  2.0084  1.9353 -0.5380
 5633TIP3    H238459   1.769   3.684   8.149  0.9109 -0.3865  1.3686
 5634TIP3   OH238460   5.851   6.320   7.312  0.0290  0.1082  0.4129
 5634TIP3    H138461   5.818   6.335   7.223  1.0322  0.7486  0.1362
 5634TIP3    H238462   5.890   6.232   7.308 -0.4991 -0.1330  0.4088
 5635TIP3   OH238463   2.828   0.995   1.888 -0.0242  0.2841 -0.2540
 5635TIP3    H138464   2.902   0.960   1.937 -1.2609 -1.0600  0.7585
 5635TIP3    H238465   2.867   1.037   1.811  1.7779 -0.1870  0.3648
 5636TIP3   OH238466   6.390   6.875   7.497 -0.3183 -0.1187 -0.0351
 5636TIP3    H138467   6.333   6.932   7.548  1.0506  0.6234  0.7074
 5636TIP3    H238468   6.397   6.796   7.550 -1.2041 -0.5124 -0.4736
 5637TIP3   OH238469   0.859   2.820   1.522 -0.5882  0.0639 -0.1609
 5637TIP3    H138470   0.854   2.871   1.441  0.4715 -0.2439 -0.4289
 5637TIP3    H238471   0.943   2.775   1.517 -1.2176 -1.2130  0.3731
 5638TIP3   OH238472   2.445   5.639   8.416  0.4521 -0.0056  0.5148
 5638TIP3    H138473   2.523   5.600   8.374 -0.6788 -0.2747 -1.4557
 5638TIP3    H238474   2.463   5.733   8.417  0.2887  0.0720 -1.1586
 5639TIP3   OH238475   6.145   3.795   0.040  0.3193  0.2590 -0.1691
 5639TIP3    H138476   6.059   3.778   0.001 -0.8825  1.4805  1.7862
 5639TIP3    H238477   6.206   3.748  -0.017 -1.7081 -1.4250 -1.1148
 5640TIP3   OH238478   4.804   2.549   2.495 -0.1522 -0.3166  0.2325
 5640TIP3    H138479   4.892   2.522   2.467  0.4142  0.3833  1.2972
 5640TIP3    H238480   4.815   2.579   2.585 -1.3096  0.6897  0.0671
 5641TIP3   OH238481   5.992   5.647   6.326 -0.4210 -0.2457 -0.1590
 5641TIP3    H138482   5.966   5.733   6.294  0.1323 -0.1298 -0.3178
 5641TIP3    H238483   6.085   5.657   6.347 -0.6402 -0.4548  1.0049
 5642TIP3   OH238484   1.534   4.462   1.354  0.1755 -0.2934 -0.2008
 5642TIP3    H138485   1.546   4.406   1.277  1.3963 -2.3623  1.3901
 5642TIP3    H238486   1.563   4.408   1.428  1.6022  2.5048  1.4436
 5643TIP3   OH238487   3.931   1.661   1.256  0.0134  0.2003  0.3958
 5643TIP3    H138488   3.970   1.727   1.199 -0.1770  0.8267  0.9768
 5643TIP3    H238489   4.005   1.610   1.289 -0.0494 -2.8775 -3.5415
 5644TIP3   OH238490   0.010   0.810   1.126  0.2587 -0.4779 -0.4454
 5644TIP3    H138491  -0.086   0.806   1.126  0.2709 -1.1387  0.2893
 5644TIP3    H238492   0.032   0.863   1.049 -0.7105  0.2418 -0.2422
 5645TIP3   OH238493   6.361   4.242   7.521 -0.3142 -0.0210  0.8595
 5645TIP3    H138494   6.403   4.324   7.548 -0.8440  1.8663 -3.3627
 5645TIP3    H238495   6.269   4.253   7.544 -0.4639  0.8100 -0.0811
 5646TIP3   OH238496   3.787   2.926   7.579 -0.1921 -0.0970 -0.2439
 5646TIP3    H138497   3.757   3.017   7.580  1.1902  0.4084 -1.8183
 5646TIP3    H238498   3.830   2.914   7.664  1.4171  1.3746 -0.8129
 5647TIP3   OH238499   2.499   3.164   7.092 -0.3057  0.4113  0.1576
 5647TIP3    H138500   2.487   3.215   7.012 -0.3262  0.3947  0.1502
 5647TIP3    H238501   2.591   3.176   7.115 -0.3479  0.5736  0.2391
 5648TIP3   OH238502   5.697   3.502   2.010  0.3341  0.4307 -0.0653
 5648TIP3    H138503   5.766   3.475   2.071  0.3911 -1.7328 -0.9812
 5648TIP3    H238504   5.733   3.577   1.963  0.8167  1.2572  1.5896
 5649TIP3   OH238505   6.771   6.167   1.207  0.4379  0.3141 -0.0881
 5649TIP3    H138506   6.827   6.131   1.276 -0.6606  1.0218  1.2285
 5649TIP3    H238507   6.723   6.238   1.250 -1.0753  0.0722 -1.2983
 5650TIP3   OH238508   2.005   4.140   2.296 -0.3715  0.2492 -0.5226
 5650TIP3    H138509   1.994   4.060   2.245 -0.6953 -0.3798  0.5105
 5650TIP3    H238510   2.099   4.160   2.289 -0.7888  1.7216 -3.5680
 5651TIP3   OH238511   6.499   6.481   8.599  0.1829 -0.3554 -0.0769
 5651TIP3    H138512   6.550   6.436   8.531  1.0499  0.8846 -0.2872
 5651TIP3    H238513   6.536   6.449   8.682  0.6145 -0.2386 -0.2212
 5652TIP3   OH238514   2.197   6.229   7.950  0.3463  0.5601  0.4567
 5652TIP3    H138515   2.132   6.290   7.916  1.2089  2.2464  1.6972
 5652TIP3    H238516   2.279   6.278   7.948  2.3538 -2.3479 -3.7400
 5653TIP3   OH238517   2.957   5.276   0.466  0.3337 -0.2694 -0.0545
 5653TIP3    H138518   2.892   5.275   0.396 -0.4753  0.1560  0.6746
 5653TIP3    H238519   2.942   5.358   0.512  2.4371  0.5994 -0.8073
 5654TIP3   OH238520   5.962   6.681   7.790  0.2909 -0.8341 -0.2194
 5654TIP3    H138521   6.042   6.661   7.740  0.5350 -2.1592  0.6460
 5654TIP3    H238522   5.892   6.681   7.725  0.9382 -0.0511 -0.9325
 5655TIP3   OH238523   5.276   5.529   7.372 -0.2671  0.7040 -0.0892
 5655TIP3    H138524   5.242   5.473   7.442  1.3880  1.2471  1.2332
 5655TIP3    H238525   5.370   5.533   7.388  0.0359  1.5828 -1.8401
 5656TIP3   OH238526   2.166   0.126   6.549 -0.1036  0.1619 -0.0873
 5656TIP3    H138527   2.092   0.083   6.593 -0.6596  0.5781 -0.5986
 5656TIP3    H238528   2.132   0.149   6.463  0.7317  0.0673 -0.4541
 5657TIP3   OH238529   2.132   2.680   6.816  0.2586  0.0802 -0.1127
 5657TIP3    H138530   2.136   2.602   6.871 -0.4652  0.0390 -0.1128
 5657TIP3    H238531   2.049   2.722   6.839  0.2406  0.3960 -0.7207
 5658TIP3   OH238532   5.021   6.849   2.126 -0.9149 -0.0382 -0.5759
 5658TIP3    H138533   4.950   6.867   2.188  0.2082  0.3525  0.6606
 5658TIP3    H238534   5.021   6.754   2.116  0.3254 -0.3831  1.9037
 5659TIP3   OH238535   2.953   2.613   0.424 -0.2184  0.1925  0.2947
 5659TIP3    H138536   2.923   2.691   0.377 -0.2345  0.3105  0.4987
 5659TIP3    H238537   2.975   2.551   0.355 -1.5858 -0.1462  0.1421
 5660TIP3   OH238538   3.314   3.798   0.814 -0.6492  0.5391 -0.5506
 5660TIP3    H138539   3.346   3.798   0.905 -1.3396  0.5975 -0.3045
 5660TIP3    H238540   3.384   3.756   0.764  0.4196  1.8563 -0.2359
 5661TIP3   OH238541   4.182   1.923   8.535  0.3437  0.4059  0.4698
 5661TIP3    H138542   4.201   1.870   8.612  0.5844 -1.9965 -1.1543
 5661TIP3    H238543   4.265   1.964   8.513  0.5655  0.1254  0.7778
 5662TIP3   OH238544   6.797   0.617   1.431 -0.3039 -0.0662 -0.1082
 5662TIP3    H138545   6.814   0.523   1.442 -0.2754  0.0399  0.8804
 5662TIP3    H238546   6.741   0.622   1.354  1.1624 -0.7311 -1.2750
 5663TIP3   OH238547   1.979   4.703   8.619  0.1986 -0.2184 -0.4340
 5663TIP3    H138548   1.949   4.672   8.534  0.4419 -0.0557 -0.5799
 5663TIP3    H238549   1.898   4.727   8.666 -0.2873 -3.4460  0.6595
 5664TIP3   OH238550   1.418   6.528   1.022  0.5892  0.3084  0.1200
 5664TIP3    H138551   1.448   6.579   1.098 -0.5409  0.2222  0.6340
 5664TIP3    H238552   1.488   6.465   1.008  0.8169  0.3204  1.0974
 5665TIP3   OH238553   6.823   0.335   0.314  0.0508  0.0747 -0.7517
 5665TIP3    H138554   6.746   0.387   0.339 -0.1672 -0.4314 -0.3429
 5665TIP3    H238555   6.798   0.245   0.335  1.1273  0.0024  0.3289
 5666TIP3   OH238556   4.157   6.032   6.608  0.6435  0.0505  0.2036
 5666TIP3    H138557   4.172   6.010   6.517 -0.5004  0.7441 -0.1713
 5666TIP3    H238558   4.241   6.064   6.640  0.7581  0.9039 -0.9356
 5667TIP3   OH238559   2.944   6.174   7.269  0.0615  0.4293 -0.2445
 5667TIP3    H138560   2.945   6.080   7.282  1.7695  0.3517 -0.7989
 5667TIP3    H238561   3.021   6.206   7.316 -0.8790  1.6531  0.5360
 5668TIP3   OH238562   0.019   6.060   8.576  0.4770 -0.6809  0.4977
 5668TIP3    H138563   0.033   6.057   8.482 -2.1566 -1.0649  0.0472
 5668TIP3    H238564  -0.005   6.151   8.594 -1.9502 -1.1853  0.2165
 5669TIP3   OH238565   6.332   4.715   2.009 -0.8289 -0.1083  0.0293
 5669TIP3    H138566   6.356   4.671   2.091  1.2624  0.7989 -0.0362
 5669TIP3    H238567   6.317   4.806   2.034 -1.6284 -0.1179 -0.3830
 5670TIP3   OH238568   1.811   0.201   0.888 -0.1754  0.1548 -0.3101
 5670TIP3    H138569   1.887   0.146   0.907 -0.6375 -0.0387  1.0889
 5670TIP3    H238570   1.845   0.291   0.890 -0.4196  0.3433  3.3887
 5671TIP3   OH238571   5.747   4.988   7.194 -0.7023 -0.1060 -0.6550
 5671TIP3    H138572   5.816   4.961   7.255 -1.3038 -0.6088 -0.1833
 5671TIP3    H238573   5.792   5.046   7.132  0.5084 -1.6522 -1.3151
 5672TIP3   OH238574   6.089   1.992   6.545 -0.1546 -0.2867 -0.1938
 5672TIP3    H138575   6.087   1.918   6.606  0.0257 -1.8739 -2.0209
 5672TIP3    H238576   6.001   1.993   6.506  0.5246 -0.9704 -1.7923
 5673TIP3   OH238577   2.366   1.068   6.354  0.3232 -0.7299  0.3516
 5673TIP3    H138578   2.321   1.040   6.274  1.5299 -0.5917 -0.4147
 5673TIP3    H238579   2.414   0.990   6.382 -2.0321 -1.5427  2.4042
 5674TIP3   OH238580   3.944   2.925   7.087 -0.1249  0.3551 -0.4841
 5674TIP3    H138581   4.026   2.944   7.042 -0.1177 -3.1710 -2.3290
 5674TIP3    H238582   3.882   2.990   7.054  0.7479 -0.0201 -3.0807
 5675TIP3   OH238583   6.664   3.503   0.553  0.5306  0.0891 -0.5039
 5675TIP3    H138584   6.682   3.528   0.644  2.2761  0.0781 -0.8092
 5675TIP3    H238585   6.608   3.426   0.560 -0.4430  0.8456  0.5257
 5676TIP3   OH238586   5.131   4.642   7.734 -0.0135  0.1124 -0.4945
 5676TIP3    H138587   5.098   4.635   7.823 -2.4385 -0.5310 -1.3581
 5676TIP3    H238588   5.056   4.619   7.679  1.0563  1.5937 -2.7349
 5677TIP3   OH238589   4.384   2.246   6.659 -0.3370 -0.2729 -0.5461
 5677TIP3    H138590   4.478   2.255   6.645  0.2575  0.2214  2.9812
 5677TIP3    H238591   4.345   2.279   6.578  2.4659  1.6660 -1.2602
 5678TIP3   OH238592   4.431   0.934   7.910 -0.0544 -0.4225  0.0607
 5678TIP3    H138593   4.494   1.004   7.925 -0.6151  0.4055 -1.2323
 5678TIP3    H238594   4.374   0.968   7.841 -1.7240 -1.2596  0.9656
 5679TIP3   OH238595   0.043   3.234   1.000 -0.4525 -0.3208  0.3674
 5679TIP3    H138596  -0.029   3.296   0.987 -0.0972  0.0817  0.2872
 5679TIP3    H238597   0.051   3.189   0.916  0.4151  0.7475 -0.1523
 5680TIP3   OH238598   0.624   3.256   1.127 -0.7720  0.0210  0.1505
 5680TIP3    H138599   0.657   3.339   1.093 -1.0990  0.0937  0.0059
 5680TIP3    H238600   0.542   3.241   1.078 -0.7948 -0.3065  0.2857
 5681TIP3   OH238601   2.332   5.943   1.386  0.5228  0.2225 -0.0351
 5681TIP3    H138602   2.318   5.887   1.310  0.9029  0.0865 -0.0067
 5681TIP3    H238603   2.304   5.890   1.460 -0.7793  0.7059 -0.1565
 5682TIP3   OH238604   1.252   6.561   6.373 -0.5370  0.1122  0.2628
 5682TIP3    H138605   1.262   6.650   6.342 -0.6984  1.0102  2.5643
 5682TIP3    H238606   1.220   6.570   6.463 -2.2820 -2.2965 -0.0085
 5683TIP3   OH238607   0.016   4.351   1.606 -0.6595  0.0919  0.2326
 5683TIP3    H138608  -0.007   4.356   1.698  1.2771 -0.3869  0.7964
 5683TIP3    H238609   0.009   4.258   1.584  0.3320 -0.0133  0.3269
 5684TIP3   OH238610   1.115   0.974   8.503 -0.0671  0.1833  0.1898
 5684TIP3    H138611   1.149   0.997   8.590 -2.2508  1.4338  0.7591
 5684TIP3    H238612   1.175   1.016   8.442  0.1512  1.2778  1.1327
 5685TIP3   OH238613   2.252   2.063   7.589  0.3905 -0.3855 -0.3347
 5685TIP3    H138614   2.225   2.119   7.661  1.5916  0.1743 -0.2996
 5685TIP3    H238615   2.170   2.033   7.549 -0.2720  1.4693 -0.4233
 5686TIP3   OH238616   5.027   1.177   7.975 -0.1342  0.2601  0.5578
 5686TIP3    H138617   5.063   1.129   7.900  2.5349  1.0683  1.2156
 5686TIP3    H238618   4.979   1.110   8.024  0.6743 -0.9815 -0.2755
 5687TIP3   OH238619   6.288   0.260   1.221 -0.0818  0.3574  0.3813
 5687TIP3    H138620   6.234   0.228   1.293  0.8908  0.3275  1.1221
 5687TIP3    H238621   6.345   0.326   1.260  0.9796 -0.1877 -0.1806
 5688TIP3   OH238622   1.355   4.017   1.853 -0.1006  0.0271  0.2673
 5688TIP3    H138623   1.398   4.066   1.922  1.3953  2.0205 -1.9225
 5688TIP3    H238624   1.264   4.048   1.854  0.3186  1.2909  0.2730
 5689TIP3   OH238625   2.396   3.310   0.213 -0.1304  0.2106 -0.0515
 5689TIP3    H138626   2.367   3.400   0.194  2.0113  1.1515  0.7952
 5689TIP3    H238627   2.347   3.286   0.292  1.7707  2.0677  1.8159
 5690TIP3   OH238628   5.949   0.473   1.247  0.2215  0.2978  0.5832
 5690TIP3    H138629   5.913   0.386   1.235  1.5830 -0.0486 -1.6299
 5690TIP3    H238630   5.999   0.468   1.329  0.6718 -1.1434  0.2395
 5691TIP3   OH238631   2.919   4.119   1.238 -0.8634  0.3050 -0.1468
 5691TIP3    H138632   2.897   4.087   1.325  0.0017 -2.5452 -0.8832
 5691TIP3    H238633   2.869   4.063   1.178  0.8608  0.1924 -1.5440
 5692TIP3   OH238634   2.561   2.925   8.630 -0.2975 -0.1097  0.1940
 5692TIP3    H138635   2.473   2.961   8.621 -0.8014 -1.6745 -2.5049
 5692TIP3    H238636   2.612   2.971   8.564  0.6334 -0.0389  0.9450
 5693TIP3   OH238637   0.308   1.879   6.963 -0.1122  0.1462 -0.2194
 5693TIP3    H138638   0.243   1.936   6.921  0.3271  0.7138 -0.1464
 5693TIP3    H238639   0.320   1.807   6.901  0.5449  0.9856 -1.0888
 5694TIP3   OH238640   4.519   4.552   7.768 -0.4207 -0.3331 -0.3751
 5694TIP3    H138641   4.507   4.520   7.678 -2.5535 -0.2291 -0.1857
 5694TIP3    H238642   4.586   4.495   7.805  0.1038 -0.7319 -1.8478
 5695TIP3   OH238643   6.624   2.054   0.279 -0.1687  0.3604 -0.3891
 5695TIP3    H138644   6.572   2.023   0.353 -1.3203 -0.1108 -1.3636
 5695TIP3    H238645   6.671   1.977   0.248 -0.4051  0.3416 -0.7098
 5696TIP3   OH238646   2.994   4.769   1.031 -0.2659 -0.4543 -0.3401
 5696TIP3    H138647   2.998   4.841   0.968 -1.0980 -1.1246 -1.1965
 5696TIP3    H238648   3.072   4.780   1.085 -0.0448  0.7096 -0.8644
 5697TIP3   OH238649   0.746   3.486   1.000 -0.5637  0.2345  0.0044
 5697TIP3    H138650   0.743   3.536   0.919  0.8630 -1.1039 -0.9337
 5697TIP3    H238651   0.756   3.552   1.069 -0.3404  1.3176 -1.0364
 5698TIP3   OH238652   2.110   0.474   6.416  0.0379  0.0326 -0.0488
 5698TIP3    H138653   2.180   0.451   6.356 -0.3827 -1.0578 -0.1483
 5698TIP3    H238654   2.154   0.517   6.489  0.8732 -1.0002  0.0787
 5699TIP3   OH238655   5.950   1.561   0.158  0.3055  0.4080  0.9128
 5699TIP3    H138656   5.985   1.587   0.073  1.3573 -1.3918  0.7425
 5699TIP3    H238657   5.923   1.470   0.145  0.2495  0.1922  2.4485
 5700TIP3   OH238658   3.652   2.585   1.864  0.0540 -0.3766  0.2243
 5700TIP3    H138659   3.638   2.608   1.772 -2.3013 -2.9542 -0.2008
 5700TIP3    H238660   3.570   2.608   1.907  0.9963  0.4617  1.6750
 5701TIP3   OH238661   6.873   0.326   8.594  0.0235  0.3314  0.7245
 5701TIP3    H138662   6.811   0.399   8.602  0.3910  0.7287  0.0814
 5701TIP3    H238663   6.834   0.270   8.527  0.2605  0.4821  0.4594
 5702TIP3   OH238664   6.405   0.659   7.821 -0.1380  0.5585  0.4944
 5702TIP3    H138665   6.417   0.592   7.889  0.5737  1.1598  0.9668
 5702TIP3    H238666   6.383   0.738   7.869  2.9497  1.6715  0.2822
 5703TIP3   OH238667   1.181   1.720   0.067  0.0314 -0.1211 -0.3285
 5703TIP3    H138668   1.217   1.663  -0.002  1.2246  0.1067  0.0812
 5703TIP3    H238669   1.184   1.666   0.146 -2.3174 -0.7486 -0.6070
 5704TIP3   OH238670   0.281   1.668   6.784 -0.3102 -0.0408  0.2734
 5704TIP3    H138671   0.346   1.702   6.721  0.0530 -0.2787  0.5156
 5704TIP3    H238672   0.329   1.602   6.833 -0.4816  0.4280  1.0778
 5705TIP3   OH238673   5.605   2.905   8.502  0.7810  0.6394  0.0515
 5705TIP3    H138674   5.641   2.876   8.419  1.0481 -0.8786  0.6530
 5705TIP3    H238675   5.671   2.965   8.537  3.2985 -2.6165  1.4599
 5706TIP3   OH238676   5.384   2.262   0.648 -0.2187  0.2850 -0.3404
 5706TIP3    H138677   5.324   2.202   0.692 -0.1478 -0.4621 -1.2473
 5706TIP3    H238678   5.328   2.336   0.621 -0.2560  0.7846  1.0062
 5707TIP3   OH238679   5.861   3.747   0.026 -0.2538 -0.2033  0.0479
 5707TIP3    H138680   5.814   3.708  -0.048  1.9454 -2.6651 -0.2156
 5707TIP3    H238681   5.807   3.724   0.103 -1.1294 -0.1017 -0.5255
 5708TIP3   OH238682   2.557   1.104   7.095 -0.2046 -0.3706  0.0242
 5708TIP3    H138683   2.480   1.143   7.054 -0.0327 -0.2762 -0.2153
 5708TIP3    H238684   2.618   1.090   7.022  1.4389  2.8914  0.5621
 5709TIP3   OH238685   1.212   6.686   2.738 -0.0557 -0.1147 -0.5100
 5709TIP3    H138686   1.191   6.769   2.695 -2.0351  0.9391  2.1829
 5709TIP3    H238687   1.151   6.623   2.700  0.3851  0.0048 -1.4455
 5710TIP3   OH238688   5.387   2.680   6.876  0.3881 -0.5679 -0.6256
 5710TIP3    H138689   5.358   2.592   6.899 -0.2524 -0.2674 -0.2659
 5710TIP3    H238690   5.411   2.674   6.784  0.9307 -1.2601 -0.4564
 5711TIP3   OH238691   1.252   3.526   0.565  0.1958  0.6534 -0.5086
 5711TIP3    H138692   1.157   3.519   0.573  0.3499  0.0102  1.1618
 5711TIP3    H238693   1.285   3.450   0.614  1.5448 -0.1874 -2.6014
 5712TIP3   OH238694   2.668   6.366   1.845  0.7059  0.3032 -0.0527
 5712TIP3    H138695   2.732   6.435   1.862  1.9547 -0.6689 -0.7113
 5712TIP3    H238696   2.717   6.297   1.802 -0.7022 -0.6631 -0.1796
 5713TIP3   OH238697   2.178   3.324   8.200  0.3180  0.3240 -0.2322
 5713TIP3    H138698   2.237   3.288   8.133  0.4556  0.4061 -0.1547
 5713TIP3    H238699   2.116   3.253   8.217  0.2962  0.2943 -0.4326
 5714TIP3   OH238700   1.462   6.890   6.501  0.0818 -0.5863  0.2138
 5714TIP3    H138701   1.503   6.961   6.450 -0.7045  0.8668  1.5392
 5714TIP3    H238702   1.372   6.887   6.469  0.2553 -1.4024 -0.2280
 5715TIP3   OH238703   0.168   1.540   7.632  0.3195  0.4843  0.6849
 5715TIP3    H138704   0.178   1.571   7.722 -1.7323  0.6620  0.9027
 5715TIP3    H238705   0.096   1.592   7.596 -0.3455 -1.0662 -0.3386
 5716TIP3   OH238706   5.381   3.706   0.757 -0.2394 -0.0764  0.0132
 5716TIP3    H138707   5.408   3.765   0.827 -0.5778  0.4837 -0.3134
 5716TIP3    H238708   5.298   3.744   0.725 -1.3558 -1.6600  0.8965
 5717TIP3   OH238709   1.383   3.836   8.372 -0.0019  0.2614  0.2136
 5717TIP3    H138710   1.419   3.906   8.426  0.4316  0.2043 -0.0041
 5717TIP3    H238711   1.339   3.881   8.300 -1.3103  0.3746  1.0392
 5718TIP3   OH238712   6.882   2.000   0.050 -0.6475  0.6861  0.0267
 5718TIP3    H138713   6.816   1.939   0.082  0.3331 -0.3626  0.1382
 5718TIP3    H238714   6.927   2.031   0.128 -0.3610  0.6185 -0.1088
 5719TIP3   OH238715   2.915   1.304   7.638  0.3692  0.0142 -0.1367
 5719TIP3    H138716   2.999   1.263   7.618  0.8313  1.0077 -0.2696
 5719TIP3    H238717   2.867   1.237   7.688  2.1614  0.2640  2.0610
 5720TIP3   OH238718   4.777   5.941   7.088  0.5847 -0.3647 -0.1333
 5720TIP3    H138719   4.745   5.983   7.008 -0.3599 -0.8313 -0.0179
 5720TIP3    H238720   4.698   5.926   7.140  1.2264  0.3423  1.0968
 5721TIP3   OH238721   0.141   2.652   7.711 -0.3986  0.2435 -0.0018
 5721TIP3    H138722   0.147   2.686   7.800 -1.1870 -0.3044  0.2661
 5721TIP3    H238723   0.198   2.710   7.660  0.4986  0.2262  0.9495
 5722TIP3   OH238724   3.964   4.430   8.405  0.3891 -0.1087  0.2404
 5722TIP3    H138725   3.958   4.454   8.312 -1.0503  1.2564  0.6447
 5722TIP3    H238726   3.930   4.340   8.408 -2.9991  1.0052 -0.1750
 5723TIP3   OH238727   6.042   0.915   1.143 -0.0792  0.3601 -1.2723
 5723TIP3    H138728   6.050   0.868   1.226  0.5583  2.9150  0.2223
 5723TIP3    H238729   5.948   0.925   1.131 -0.2981  3.7422  1.6090
 5724TIP3   OH238730   1.886   0.480   1.042  0.1627 -0.1351  0.5186
 5724TIP3    H138731   1.882   0.550   1.108  2.2518  0.6433 -0.0966
 5724TIP3    H238732   1.935   0.410   1.085  1.0009  0.1380  0.0407
 5725TIP3   OH238733   5.385   3.377   0.650 -0.3558  0.5750 -0.3223
 5725TIP3    H138734   5.450   3.425   0.599  0.0637  1.0051  0.5892
 5725TIP3    H238735   5.305   3.428   0.640 -0.3830  0.4311 -0.8767
 5726TIP3   OH238736   1.685   2.790   7.282 -0.0101 -0.2053 -0.3078
 5726TIP3    H138737   1.723   2.877   7.269  1.2290 -0.7430 -0.4869
 5726TIP3    H238738   1.753   2.742   7.330 -0.6138 -1.1079 -0.3445
 5727TIP3   OH238739   0.227   5.987   6.076  0.0123  0.1964  0.2126
 5727TIP3    H138740   0.199   5.899   6.050 -1.0941  0.2203  1.2293
 5727TIP3    H238741   0.146   6.037   6.084  0.4301  0.6674  1.8423
 5728TIP3   OH238742   1.961   0.095   1.553  0.8637 -0.5380 -0.4663
 5728TIP3    H138743   1.911   0.103   1.635  1.3342 -1.9557 -0.0121
 5728TIP3    H238744   1.953   0.003   1.529  0.1957 -0.0375 -2.3906
 5729TIP3   OH238745   0.133   6.191   8.018 -0.0929 -0.1647 -0.6714
 5729TIP3    H138746   0.074   6.248   8.066  0.6473 -0.6244  0.8357
 5729TIP3    H238747   0.156   6.240   7.939 -0.4392  1.0927 -0.0080
 5730TIP3   OH238748   4.676   6.547   0.941 -0.3279  0.6446 -0.4160
 5730TIP3    H138749   4.743   6.606   0.977 -0.1768  0.5773 -0.5829
 5730TIP3    H238750   4.603   6.552   1.003 -0.1124  0.6103 -0.1556
 5731TIP3   OH238751   2.627   0.236   8.060 -0.0263 -0.1032 -0.2865
 5731TIP3    H138752   2.630   0.153   8.013 -0.0294 -0.9382  1.1195
 5731TIP3    H238753   2.583   0.215   8.143 -1.3716  1.6240 -0.5102
 5732TIP3   OH238754   2.219   5.646   0.175  0.2947 -0.1351  0.0102
 5732TIP3    H138755   2.257   5.574   0.123 -0.6487 -1.2502  0.8003
 5732TIP3    H238756   2.152   5.603   0.228 -1.3979  1.6067 -0.6235
 5733TIP3   OH238757   3.304   4.794   0.881  0.1738 -0.0288 -0.5265
 5733TIP3    H138758   3.332   4.831   0.965  0.3905 -0.8565 -0.2237
 5733TIP3    H238759   3.229   4.848   0.855  1.5865  1.8067 -1.0143
 5734TIP3   OH238760   2.238   0.834   2.069 -0.1491  0.4906  0.2284
 5734TIP3    H138761   2.304   0.903   2.077  0.8460 -0.3809 -0.1264
 5734TIP3    H238762   2.195   0.831   2.154  1.8134 -0.4115  1.2560
 5735TIP3   OH238763   0.766   0.971   7.839  0.1631 -0.5637 -0.3516
 5735TIP3    H138764   0.683   0.923   7.844 -0.4476  0.3772 -1.0084
 5735TIP3    H238765   0.760   1.037   7.908  0.6493 -0.9083  0.0231
 5736TIP3   OH238766   0.776   4.819   0.730  0.3031  0.0528  0.6184
 5736TIP3    H138767   0.746   4.738   0.690  0.7188 -0.6569  1.7051
 5736TIP3    H238768   0.862   4.835   0.691  0.2210 -0.0272  0.4067
 5737TIP3   OH238769   6.221   4.932   7.958  0.1689 -0.1575  0.4776
 5737TIP3    H138770   6.267   4.973   8.031  1.7317 -0.1757 -0.4423
 5737TIP3    H238771   6.287   4.874   7.918 -0.7020 -0.3083 -0.8075
 5738TIP3   OH238772   5.711   2.321   8.410  0.2350  0.6177  0.1247
 5738TIP3    H138773   5.618   2.318   8.388  0.3118 -0.3805 -0.0813
 5738TIP3    H238774   5.719   2.271   8.491  0.6008  0.6578  0.1170
 5739TIP3   OH238775   3.139   2.603   0.059  0.1520 -0.0837  0.0582
 5739TIP3    H138776   3.213   2.637   0.009  0.5664 -0.1887  0.5981
 5739TIP3    H238777   3.097   2.540   0.001  0.0150  0.5523 -0.5442
 5740TIP3   OH238778   5.797   5.199   0.789  0.3636 -0.2688 -0.0409
 5740TIP3    H138779   5.842   5.117   0.809 -0.5004 -0.6056  0.5574
 5740TIP3    H238780   5.814   5.214   0.695  1.0275 -0.8059 -0.0089
 5741TIP3   OH238781   5.239   2.023   8.462  0.1428 -0.3699 -0.1670
 5741TIP3    H138782   5.256   1.935   8.429  1.6498  0.4787 -1.7754
 5741TIP3    H238783   5.308   2.038   8.526  1.4923  0.5682 -1.7867
 5742TIP3   OH238784   2.143   6.721   1.513  0.3043  0.3018 -0.0272
 5742TIP3    H138785   2.224   6.675   1.533  1.7154  3.3207  1.9577
 5742TIP3    H238786   2.150   6.743   1.420  1.7394  0.4366  0.0947
 5743TIP3   OH238787   3.280   6.034   8.198 -0.3554  0.1329  0.1896
 5743TIP3    H138788   3.292   5.963   8.136 -1.3393  0.0302  0.1016
 5743TIP3    H238789   3.368   6.069   8.213 -0.1858  0.6975 -1.9056
 5744TIP3   OH238790   4.356   4.212   0.490 -0.6202 -0.1029  0.0718
 5744TIP3    H138791   4.423   4.265   0.447 -2.7215  0.7663 -2.3673
 5744TIP3    H238792   4.353   4.131   0.439 -0.3363 -0.8191  1.1724
 5745TIP3   OH238793   4.516   3.209   6.535 -0.1681  0.0938  0.0956
 5745TIP3    H138794   4.421   3.214   6.547 -0.2965  5.3170 -0.3590
 5745TIP3    H238795   4.528   3.209   6.440  0.3276 -1.0334  0.1452
 5746TIP3   OH238796   5.185   2.731   7.559  0.3445  0.0727 -0.4818
 5746TIP3    H138797   5.251   2.680   7.606 -0.8797 -0.4253  0.7516
 5746TIP3    H238798   5.223   2.819   7.552  0.5032  0.2115  1.6108
 5747TIP3   OH238799   0.220   5.571   7.156 -0.7404 -0.5538 -1.0409
 5747TIP3    H138800   0.138   5.613   7.130 -1.5563 -2.1967 -1.2110
 5747TIP3    H238801   0.271   5.565   7.075 -0.0390  1.2604 -0.7806
 5748TIP3   OH238802   2.629   2.440   7.529  0.2870 -0.5055 -0.1244
 5748TIP3    H138803   2.704   2.466   7.476  1.0157  0.0058  1.0932
 5748TIP3    H238804   2.629   2.345   7.526 -0.8493 -0.4852 -2.5459
 5749TIP3   OH238805   3.054   4.789   0.239 -0.0101 -0.5854 -0.1870
 5749TIP3    H138806   3.065   4.865   0.181 -0.3034 -1.1318 -0.9661
 5749TIP3    H238807   3.112   4.807   0.313  0.3143  0.1556 -0.6095
 5750TIP3   OH238808   4.485   6.006   1.640  0.1632  0.2683 -0.2916
 5750TIP3    H138809   4.535   5.959   1.573  1.5451 -0.2482  1.0419
 5750TIP3    H238810   4.549   6.025   1.709 -1.3945 -0.0060  1.2963
 5751TIP3   OH238811   5.670   4.043   7.722 -0.9578  0.4735  0.0411
 5751TIP3    H138812   5.755   4.003   7.739 -0.0623  0.4005 -3.7573
 5751TIP3    H238813   5.690   4.135   7.702 -1.8753  0.6799  0.0233
 5752TIP3   OH238814   3.537   6.764   1.593  0.0951 -0.0240 -0.3764
 5752TIP3    H138815   3.614   6.740   1.541  1.2395  0.2418  1.1205
 5752TIP3    H238816   3.569   6.830   1.654 -1.2273 -0.2042  0.5617
 5753TIP3   OH238817   3.243   2.703   0.301 -0.6044 -0.2157 -0.3527
 5753TIP3    H138818   3.200   2.781   0.266  0.0131  0.2800 -0.0387
 5753TIP3    H238819   3.201   2.630   0.257 -2.3835  0.1877  0.5733
 5754TIP3   OH238820   6.441   5.263   7.777  0.0275  0.5770 -0.1147
 5754TIP3    H138821   6.502   5.253   7.850 -1.3359  0.6973  1.0936
 5754TIP3    H238822   6.495   5.252   7.699  1.6016  0.7873  0.8920
 5755TIP3   OH238823   3.989   3.477   1.881 -0.2077 -0.3158  0.1752
 5755TIP3    H138824   4.048   3.492   1.956  1.0423 -1.4496 -0.5213
 5755TIP3    H238825   3.925   3.413   1.914  0.1297 -0.5517  0.3869
 5756TIP3   OH238826   2.319   3.135   8.652 -0.1509 -0.2981  0.0390
 5756TIP3    H138827   2.340   3.138   8.745  1.2456  0.2185 -0.2677
 5756TIP3    H238828   2.282   3.222   8.634  1.1118  0.2119 -0.2037
 5757TIP3   OH238829   6.871   2.116   0.681  0.0865 -0.3365 -0.0758
 5757TIP3    H138830   6.904   2.195   0.725 -2.1540 -0.0850  1.3547
 5757TIP3    H238831   6.801   2.148   0.624 -0.9233 -1.2821  0.5989
 5758TIP3   OH238832   3.596   3.991   7.971  0.4009  0.6399 -0.4209
 5758TIP3    H138833   3.682   3.968   8.006  0.4147  2.3557  0.8518
 5758TIP3    H238834   3.539   3.920   8.000  0.8470  0.9361  1.3308
 5759TIP3   OH238835   4.046   3.266   7.864  0.0213  0.5413 -0.0549
 5759TIP3    H138836   3.994   3.315   7.928 -2.0232 -0.5042 -0.8046
 5759TIP3    H238837   4.101   3.332   7.822 -0.1458  1.5919  1.2949
 5760TIP3   OH238838   0.677   0.672   6.967 -0.0336  0.4869 -0.4045
 5760TIP3    H138839   0.753   0.618   6.989 -0.2461  1.8900  5.2261
 5760TIP3    H238840   0.713   0.760   6.954 -0.4296  0.4960 -1.5742
 5761TIP3   OH238841   5.655   0.581   0.112 -0.5643 -0.1776 -0.0825
 5761TIP3    H138842   5.689   0.491   0.113 -2.0282 -0.7804 -1.1728
 5761TIP3    H238843   5.733   0.636   0.121  0.3237 -1.5465  0.9333
 5762TIP3   OH238844   4.923   0.971   8.144  0.0767  0.2375  0.2422
 5762TIP3    H138845   4.834   1.006   8.152  0.3318  1.4950 -1.6561
 5762TIP3    H238846   4.912   0.886   8.102 -0.2202  0.6100 -0.4510
 5763TIP3   OH238847   0.028   4.858   0.678 -0.3378 -0.3361  0.8275
 5763TIP3    H138848  -0.000   4.948   0.694 -0.6221 -0.5993  1.8981
 5763TIP3    H238849   0.117   4.855   0.713 -0.0637 -0.2820  0.1357
 5764TIP3   OH238850   3.136   4.357   8.136 -0.2531  0.5209  0.0652
 5764TIP3    H138851   3.041   4.352   8.124 -0.1853  1.3102 -0.9837
 5764TIP3    H238852   3.152   4.445   8.171 -0.0207 -0.1392  1.6746
 5765TIP3   OH238853   0.445   5.753   6.315  0.0122  0.0649 -0.0826
 5765TIP3    H138854   0.497   5.817   6.268  1.0936 -1.7326 -1.4837
 5765TIP3    H238855   0.505   5.679   6.329 -0.6620 -0.0205  2.9974
 5766TIP3   OH238856   3.134   5.841   1.948 -0.3831  0.1163  0.2768
 5766TIP3    H138857   3.114   5.852   2.041 -2.7099  0.4619 -0.2168
 5766TIP3    H238858   3.075   5.772   1.919 -0.3578  0.6584 -1.1407
 5767TIP3   OH238859   1.787   1.769   7.079  0.2713  0.1439  0.0481
 5767TIP3    H138860   1.856   1.804   7.135 -0.8646  1.5578  0.6347
 5767TIP3    H238861   1.757   1.691   7.124  2.0201 -0.9990 -0.6538
 5768TIP3   OH238862   5.733   0.475   7.004  0.4790 -0.1139 -0.5413
 5768TIP3    H138863   5.744   0.547   7.066  0.0713 -0.3537 -0.1875
 5768TIP3    H238864   5.754   0.514   6.919  0.8732  0.2594 -0.2788
 5769TIP3   OH238865   0.777   1.116   7.292 -0.1823  0.0751 -0.1345
 5769TIP3    H138866   0.831   1.122   7.213  0.7349 -0.8161  0.4080
 5769TIP3    H238867   0.810   1.040   7.339 -0.8459  0.4691  1.0247
 5770TIP3   OH238868   2.160   3.708   7.485  0.2033 -0.5298 -0.2342
 5770TIP3    H138869   2.250   3.695   7.456 -0.1325 -0.4869 -1.3357
 5770TIP3    H238870   2.118   3.756   7.414 -0.0660  1.6457  1.2993
 5771TIP3   OH238871   1.806   3.076   1.464  0.4045 -0.1194 -0.7852
 5771TIP3    H138872   1.839   3.047   1.548  1.3770  3.2048  0.1201
 5771TIP3    H238873   1.713   3.054   1.465  0.5817 -0.8622  0.7836
 5772TIP3   OH238874   0.264   5.900   0.362  0.0182 -0.0545  0.1010
 5772TIP3    H138875   0.321   5.842   0.311 -0.3008  0.5700 -0.9906
 5772TIP3    H238876   0.321   5.936   0.430  0.2808 -1.4496  0.6626
 5773TIP3   OH238877   4.858   2.566   7.884 -0.0981 -0.4832 -0.1659
 5773TIP3    H138878   4.931   2.605   7.932 -0.0581  1.0242 -1.3938
 5773TIP3    H238879   4.899   2.510   7.818 -0.1219 -1.2024  0.4115
 5774TIP3   OH238880   6.220   6.727   1.406 -0.0177  0.0340 -0.2903
 5774TIP3    H138881   6.260   6.793   1.350 -0.4656 -0.2563 -0.9819
 5774TIP3    H238882   6.243   6.643   1.364 -0.3367 -0.1890 -0.0282
 5775TIP3   OH238883   3.027   2.493   1.914  0.2729  0.0253 -0.1897
 5775TIP3    H138884   2.960   2.460   1.854  1.6552 -0.3041 -1.6605
 5775TIP3    H238885   2.979   2.532   1.986 -1.4739 -0.7262 -0.8928
 5776TIP3   OH238886   3.877   5.846   2.690  0.3247  0.4074  0.3235
 5776TIP3    H138887   3.940   5.774   2.686 -1.4765 -1.2155 -2.3779
 5776TIP3    H238888   3.916   5.915   2.636 -0.0401 -0.5349 -1.2299
 5777TIP3   OH238889   6.065   2.984   1.403  0.1145 -0.2147  0.2338
 5777TIP3    H138890   6.140   2.945   1.447  1.1048  1.0914 -0.2207
 5777TIP3    H238891   6.061   2.940   1.318 -0.4605 -1.1940  0.7438
 5778TIP3   OH238892   4.564   4.098   7.404 -0.0352  0.3435 -0.0457
 5778TIP3    H138893   4.513   4.118   7.325  1.3130 -1.0536 -1.3355
 5778TIP3    H238894   4.499   4.065   7.465 -1.0402  0.9462 -0.7433
 5779TIP3   OH238895   1.915   5.470   7.318  0.0221  0.3521  0.2737
 5779TIP3    H138896   2.002   5.505   7.296  0.4052  1.1520  2.7732
 5779TIP3    H238897   1.859   5.501   7.247  1.7509 -0.2723 -1.4768
 5780TIP3   OH238898   0.316   1.721   0.108 -0.6444  1.0097 -0.0001
 5780TIP3    H138899   0.227   1.739   0.136 -0.7265  1.3405 -0.4588
 5780TIP3    H238900   0.315   1.630   0.079 -1.0515  1.2670 -0.8256
 5781TIP3   OH238901   2.264   6.122   1.597 -0.0985 -0.7435 -0.2966
 5781TIP3    H138902   2.314   6.202   1.608 -1.3762  0.1335 -0.6086
 5781TIP3    H238903   2.271   6.102   1.504 -0.7873 -0.2730 -0.4633
 5782TIP3   OH238904   4.232   2.133   7.709  0.3148  0.0308 -0.6438
 5782TIP3    H138905   4.255   2.040   7.700  2.0213  0.4039 -0.5027
 5782TIP3    H238906   4.196   2.140   7.798 -0.4574 -0.5912 -0.8924
 5783TIP3   OH238907   2.405   5.703   7.764  0.1324  0.1098  0.3787
 5783TIP3    H138908   2.412   5.738   7.675 -3.0494 -1.3119 -0.5791
 5783TIP3    H238909   2.358   5.770   7.813 -0.7144 -0.2948  0.1450
 5784TIP3   OH238910   5.910   6.614   1.409  0.4174  0.0017  0.2841
 5784TIP3    H138911   5.969   6.680   1.443  3.7656 -0.6136 -3.5258
 5784TIP3    H238912   5.898   6.638   1.317 -1.4891 -2.5433 -0.2402
 5785TIP3   OH238913   2.217   6.575   2.308  0.3142 -0.3610  0.0460
 5785TIP3    H138914   2.174   6.505   2.258 -2.1933 -0.1769  1.7510
 5785TIP3    H238915   2.274   6.618   2.245 -1.4007 -1.2029 -2.2203
 5786TIP3   OH238916   3.304   5.367   6.750 -0.3009  0.2299  0.2852
 5786TIP3    H138917   3.268   5.359   6.661 -0.8892  2.0142  0.3245
 5786TIP3    H238918   3.397   5.381   6.736 -0.7029  2.8395 -0.2322
 5787TIP3   OH238919   0.767   0.334   7.732  0.3486  0.0379  0.4811
 5787TIP3    H138920   0.789   0.266   7.668 -0.3898 -1.0252  1.3177
 5787TIP3    H238921   0.832   0.403   7.717 -0.1426  0.0887 -1.7800
 5788TIP3   OH238922   1.136   3.351   7.052  0.0112  0.4632  0.3089
 5788TIP3    H138923   1.048   3.371   7.083 -0.0258 -0.3403  0.7654
 5788TIP3    H238924   1.123   3.293   6.978  0.1570 -0.4760  0.9946
 5789TIP3   OH238925   4.229   0.597   0.560 -0.2204 -0.0189 -0.4771
 5789TIP3    H138926   4.209   0.604   0.653 -0.9386 -1.0657 -0.5340
 5789TIP3    H238927   4.301   0.659   0.546 -0.1088  0.1568  0.7643
 5790TIP3   OH238928   1.994   0.275   8.348 -0.0771  0.0093 -0.4268
 5790TIP3    H138929   2.050   0.312   8.416 -1.6166  0.1224  0.8639
 5790TIP3    H238930   1.922   0.338   8.341 -1.9966 -1.8817  0.7479
 5791TIP3   OH238931   5.018   5.743   8.535  0.7270  0.4980  0.4737
 5791TIP3    H138932   5.007   5.653   8.505 -0.9940  0.3783  1.3571
 5791TIP3    H238933   4.998   5.796   8.458 -1.8119  0.1562  0.8101
 5792TIP3   OH238934   6.344   1.290   0.631  0.3065 -0.0948  0.0074
 5792TIP3    H138935   6.289   1.303   0.708  1.1429  1.3001  0.4220
 5792TIP3    H238936   6.355   1.378   0.595 -2.1497 -0.9314 -3.2576
 5793TIP3   OH238937   2.374   4.535   1.803  0.4043 -0.4400  0.1708
 5793TIP3    H138938   2.356   4.598   1.873 -1.9507 -2.7007  1.7632
 5793TIP3    H238939   2.420   4.463   1.846  1.9342 -0.4544 -1.3626
 5794TIP3   OH238940   0.575   1.634   0.265 -0.0240  0.2825  0.0300
 5794TIP3    H138941   0.551   1.675   0.349  0.0709  1.7749 -0.6277
 5794TIP3    H238942   0.529   1.550   0.265  1.2572 -0.5024  2.2528
 5795TIP3   OH238943   0.441   2.783   7.380  0.1126  0.3923 -0.0473
 5795TIP3    H138944   0.451   2.691   7.404  1.3828  0.2661 -0.9836
 5795TIP3    H238945   0.411   2.826   7.460 -2.6107 -1.1458 -0.1157
 5796TIP3   OH238946   6.503   5.506   0.717  0.0077  0.6522  0.1632
 5796TIP3    H138947   6.548   5.454   0.784 -0.8824  1.0089  1.0637
 5796TIP3    H238948   6.556   5.494   0.638  0.0707 -1.2707  0.4488
 5797TIP3   OH238949   5.200   3.206   7.623 -0.2600 -0.3971  0.4709
 5797TIP3    H138950   5.272   3.209   7.686  1.2641 -2.2103 -1.0661
 5797TIP3    H238951   5.127   3.169   7.672  1.3572 -3.3491  0.8890
 5798TIP3   OH238952   4.448   2.770   2.341 -0.0536  0.3548 -0.1602
 5798TIP3    H138953   4.359   2.746   2.318 -0.3726  0.2347  1.0847
 5798TIP3    H238954   4.486   2.689   2.375  0.4691  0.4446 -0.5294
 5799TIP3   OH238955   5.291   0.739   7.359  0.2811  0.3465  0.1156
 5799TIP3    H138956   5.386   0.737   7.360  0.4030  0.5638  4.1279
 5799TIP3    H238957   5.265   0.647   7.349  0.7862  0.4001 -2.1887
 5800TIP3   OH238958   4.948   3.878   0.484  0.3519  0.9031 -0.4822
 5800TIP3    H138959   4.939   3.944   0.553  0.9611  1.0660 -0.5494
 5800TIP3    H238960   4.858   3.854   0.461  0.0736 -1.2689  2.3562
 5801TIP3   OH238961   1.917   2.361   8.439  0.7081  0.5429  0.8938
 5801TIP3    H138962   1.849   2.392   8.378  1.7355 -0.0371 -0.6235
 5801TIP3    H238963   1.908   2.416   8.516  0.2629  2.2858 -0.3525
 5802TIP3   OH238964   2.330   3.652   2.372  0.2798 -0.1911 -0.0821
 5802TIP3    H138965   2.299   3.576   2.420  0.0987 -1.1263 -1.6294
 5802TIP3    H238966   2.319   3.630   2.280 -0.3145  1.9270 -0.5842
 5803TIP3   OH238967   1.846   2.974   1.188 -0.3696  0.5278  0.3944
 5803TIP3    H138968   1.864   3.020   1.271  1.5129  0.2453  0.1947
 5803TIP3    H238969   1.827   3.044   1.126 -0.4985  0.8315  0.7705
 5804TIP3   OH238970   4.101   4.237   6.057  0.3499 -0.5777 -0.5573
 5804TIP3    H138971   4.028   4.298   6.064 -0.0307 -0.9208 -1.4154
 5804TIP3    H238972   4.067   4.165   6.005  0.4228 -2.0979  1.3644
 5805TIP3   OH238973   4.598   6.083   1.029  0.4547 -0.5912  0.0706
 5805TIP3    H138974   4.574   6.168   0.990  0.3672 -0.8479 -0.4452
 5805TIP3    H238975   4.653   6.042   0.962 -1.4699 -1.9721 -0.7468
 5806TIP3   OH238976   3.524   0.600   1.890 -0.4315 -0.2978 -0.4151
 5806TIP3    H138977   3.613   0.567   1.899 -0.4568 -0.0359  1.0332
 5806TIP3    H238978   3.482   0.581   1.974 -2.8877 -3.6320 -2.1455
 5807TIP3   OH238979   4.190   0.828   7.129 -0.5162 -0.5524  0.0944
 5807TIP3    H138980   4.119   0.774   7.093  0.6682 -0.3214 -2.8168
 5807TIP3    H238981   4.173   0.916   7.095  0.3496 -0.1862  0.5826
 5808TIP3   OH238982   4.980   1.422   1.244  1.3515 -0.2785 -0.0439
 5808TIP3    H138983   5.059   1.407   1.193  0.7363 -0.3629 -1.0033
 5808TIP3    H238984   5.000   1.388   1.331  2.0011 -1.2693 -0.5639
 5809TIP3   OH238985   4.480   5.116   7.930 -1.0732 -0.3564 -0.6920
 5809TIP3    H138986   4.509   5.027   7.951 -2.8703 -1.2623 -1.8373
 5809TIP3    H238987   4.387   5.116   7.952 -1.0753  1.2958 -0.6131
 5810TIP3   OH238988   5.252   0.461   7.348  0.8713  0.1850  0.2464
 5810TIP3    H138989   5.306   0.461   7.427  0.9979  0.2538  0.1599
 5810TIP3    H238990   5.165   0.436   7.378  1.2433 -1.2214  0.1859
 5811TIP3   OH238991   4.451   5.820   8.002  0.0876 -0.3840 -0.6432
 5811TIP3    H138992   4.530   5.767   8.015 -0.5002 -1.1927 -0.3526
 5811TIP3    H238993   4.390   5.762   7.958 -1.4289 -0.7668  1.7926
 5812TIP3   OH238994   5.826   1.083   1.836 -0.0455  0.0997  0.5037
 5812TIP3    H138995   5.816   1.164   1.787 -0.1708 -0.2717 -0.0956
 5812TIP3    H238996   5.745   1.074   1.885  1.0323  1.7429  2.7554
 5813TIP3   OH238997   4.926   4.858   0.901 -0.8814 -0.4844 -0.8632
 5813TIP3    H138998   4.840   4.894   0.921 -0.1439  2.1002 -1.8510
 5813TIP3    H238999   4.934   4.867   0.806  1.0591  0.9970 -0.6370
 5814TIP3   OH239000   4.137   0.333   8.196 -0.1955 -0.4287  0.5897
 5814TIP3    H139001   4.076   0.326   8.269  0.0319 -0.3206  0.7913
 5814TIP3    H239002   4.186   0.414   8.213 -1.1079  0.3559 -0.4094
 5815TIP3   OH239003   0.849   3.177   0.604  0.2125 -0.0880 -0.0283
 5815TIP3    H139004   0.910   3.124   0.656  2.8071  0.2875 -2.3973
 5815TIP3    H239005   0.869   3.268   0.629  2.0974  0.1509 -2.0932
 5816TIP3   OH239006   0.150   5.234   7.582 -0.1401 -0.3015  0.5516
 5816TIP3    H139007   0.151   5.243   7.677 -0.3542  1.2862  0.4197
 5816TIP3    H239008   0.061   5.207   7.561 -0.1008 -0.6227  0.7899
 5817TIP3   OH239009   5.933   4.781   7.407  0.2130 -0.1108  0.1600
 5817TIP3    H139010   5.866   4.834   7.451  0.2222  0.3476 -0.3601
 5817TIP3    H239011   5.997   4.845   7.377  0.3181 -0.4390 -0.3142
 5818TIP3   OH239012   5.318   4.181   7.530  0.5435 -0.1163  0.1261
 5818TIP3    H139013   5.274   4.239   7.591 -2.5861 -0.9295 -1.1204
 5818TIP3    H239014   5.307   4.094   7.568 -0.8264 -0.5493 -1.1400
 5819TIP3   OH239015   6.211   2.342   8.536  0.5479 -0.3440 -0.8216
 5819TIP3    H139016   6.188   2.249   8.547 -0.6668  0.0223 -0.0510
 5819TIP3    H239017   6.207   2.378   8.624 -1.5745  0.9828 -1.3852
 5820TIP3   OH239018   2.894   1.776   6.929  0.1727 -0.0888  0.0243
 5820TIP3    H139019   2.978   1.812   6.959  0.8233 -1.3393 -0.1953
 5820TIP3    H239020   2.881   1.813   6.842  2.2734 -2.4524 -1.4401
 5821TIP3   OH239021   0.282   0.463   7.421 -0.2613 -0.8326 -0.4523
 5821TIP3    H139022   0.212   0.442   7.360 -1.0290 -0.2007  0.1885
 5821TIP3    H239023   0.253   0.425   7.505 -0.8606  1.2009  0.3164
 5822TIP3   OH239024   4.780   1.832   0.080 -0.2825 -0.2222  0.2024
 5822TIP3    H139025   4.780   1.913   0.130 -1.8957 -0.8493  1.3249
 5822TIP3    H239026   4.792   1.763   0.146 -1.1011 -0.9950 -0.4273
 5823TIP3   OH239027   0.940   0.586   7.755  0.3444 -0.2492 -0.3133
 5823TIP3    H139028   1.030   0.616   7.746 -0.3148  2.9687  2.0311
 5823TIP3    H239029   0.891   0.633   7.688  0.0316  0.1635  0.1922
 5824TIP3   OH239030   6.236   4.565   0.644 -0.3156 -0.2968 -0.1799
 5824TIP3    H139031   6.219   4.474   0.619  0.9163 -0.4494 -0.5538
 5824TIP3    H239032   6.262   4.561   0.736  1.0083 -0.5079 -0.5448
 5825TIP3   OH239033   3.032   2.375   1.174 -0.0818 -0.3614  0.0197
 5825TIP3    H139034   2.949   2.381   1.221 -0.8875  0.0155 -1.3961
 5825TIP3    H239035   3.070   2.292   1.203 -0.4826 -0.0960  1.3893
 5826TIP3   OH239036   4.774   6.504   2.241  0.0015 -0.0514  0.0905
 5826TIP3    H139037   4.801   6.448   2.169  0.6988 -1.2762  1.2600
 5826TIP3    H239038   4.851   6.560   2.257 -0.0942  0.1083 -0.0069
 5827TIP3   OH239039   5.309   5.507   8.433 -0.6659  0.0606  0.1169
 5827TIP3    H139040   5.265   5.571   8.376 -2.7017 -1.8024 -0.5514
 5827TIP3    H239041   5.398   5.542   8.443 -0.3274  0.8409 -3.7505
 5828TIP3   OH239042   1.134   5.708   1.225 -0.0199 -0.0787  0.1584
 5828TIP3    H139043   1.074   5.745   1.289 -0.9424  1.1382 -1.3341
 5828TIP3    H239044   1.091   5.629   1.193  0.2957 -0.5117  0.7796
 5829TIP3   OH239045   1.574   5.607   1.922  0.4646 -0.2178 -0.0888
 5829TIP3    H139046   1.583   5.651   2.007  1.4173  0.3848 -0.4898
 5829TIP3    H239047   1.605   5.518   1.937  0.3705 -0.1928  0.2594
 5830TIP3   OH239048   5.369   3.427   2.350 -0.1840  0.2679 -0.3978
 5830TIP3    H139049   5.332   3.340   2.330  1.4572  0.1023 -3.3620
 5830TIP3    H239050   5.298   3.488   2.331 -1.5029 -0.3460  2.1482
 5831TIP3   OH239051   6.647   6.659   6.841  0.0966 -0.2638  0.2720
 5831TIP3    H139052   6.720   6.673   6.780 -0.8886 -1.5773 -1.2972
 5831TIP3    H239053   6.604   6.745   6.846 -0.0607 -0.2196 -1.2738
 5832TIP3   OH239054   0.833   1.029   2.246 -0.3055 -0.1954 -0.3085
 5832TIP3    H139055   0.925   1.050   2.261 -0.2040 -1.3652  0.9500
 5832TIP3    H239056   0.787   1.112   2.260  0.5111  0.3072 -0.5253
 5833TIP3   OH239057   1.939   5.381   0.828 -0.1238 -0.0109 -0.0168
 5833TIP3    H139058   2.004   5.403   0.895 -0.4580 -0.9177  0.6263
 5833TIP3    H239059   1.991   5.358   0.751  0.3494 -1.0719  0.6006
 5834TIP3   OH239060   3.326   2.540   2.267 -0.2795  1.1457 -0.3780
 5834TIP3    H139061   3.252   2.481   2.281  1.7012 -1.2729  0.4411
 5834TIP3    H239062   3.403   2.486   2.277  1.6722  3.4688 -1.6803
 5835TIP3   OH239063   4.402   1.935   0.778 -0.0373  0.1823  0.1044
 5835TIP3    H139064   4.319   1.888   0.779  0.3255 -0.6425  3.2812
 5835TIP3    H239065   4.467   1.868   0.756  0.4303 -0.9845  4.2256
 5836TIP3   OH239066   4.904   4.354   0.393 -0.0803  0.3159 -0.2318
 5836TIP3    H139067   4.967   4.388   0.456  1.8836  0.4791 -2.1442
 5836TIP3    H239068   4.824   4.341   0.443  1.6669 -0.7115  2.5417
 5837TIP3   OH239069   5.430   2.570   0.718 -0.2778 -0.1858  0.2615
 5837TIP3    H139070   5.425   2.666   0.712 -1.3585 -0.2048  0.5513
 5837TIP3    H239071   5.351   2.540   0.674 -0.1185 -0.9324  0.4750
 5838TIP3   OH239072   4.900   4.824   7.088  0.0167  0.0568 -0.2346
 5838TIP3    H139073   4.965   4.849   7.155 -0.0332 -0.9171  0.2062
 5838TIP3    H239074   4.950   4.820   7.007  0.7288 -1.4625  0.2319
 5839TIP3   OH239075   2.403   3.873   6.675  0.3366 -0.1077  0.3782
 5839TIP3    H139076   2.317   3.832   6.683  1.9378 -3.5166  2.0121
 5839TIP3    H239077   2.422   3.870   6.582 -0.0042 -2.4442  0.3295
 5840TIP3   OH239078   1.403   3.337   8.005 -0.1842 -0.0713 -0.0154
 5840TIP3    H139079   1.475   3.378   7.958  0.7807 -1.6578  0.0161
 5840TIP3    H239080   1.327   3.392   7.985  1.1263  2.0794  0.5431
 5841TIP3   OH239081   2.792   0.824   1.530 -0.4634  0.6380 -0.4406
 5841TIP3    H139082   2.790   0.797   1.438 -0.1948  0.1528 -0.3091
 5841TIP3    H239083   2.715   0.879   1.541 -0.8323  0.2023 -0.8091
 5842TIP3   OH239084   1.560   2.302   6.971 -0.0939  0.2864 -0.2379
 5842TIP3    H139085   1.631   2.343   6.921  0.8703  0.0499  0.9211
 5842TIP3    H239086   1.587   2.309   7.062 -0.7824 -1.2867  0.1147
 5843TIP3   OH239087   0.833   5.112   7.005  0.5613  0.5786  0.3344
 5843TIP3    H139088   0.908   5.119   6.946  0.5937  1.6067  0.4870
 5843TIP3    H239089   0.863   5.151   7.087 -0.2684  1.3826  0.2648
 5844TIP3   OH239090   4.842   1.209   7.284 -0.1937 -0.1786 -0.1092
 5844TIP3    H139091   4.899   1.157   7.340 -1.1717  0.7301  1.8290
 5844TIP3    H239092   4.843   1.297   7.322  0.2264  0.8966 -2.4016
 5845TIP3   OH239093   4.329   4.377   6.998  0.2240  0.0302 -0.0845
 5845TIP3    H139094   4.371   4.359   6.913  0.0664 -0.4684 -0.0596
 5845TIP3    H239095   4.311   4.290   7.035  0.3022  0.2454  0.4670
 5846TIP3   OH239096   2.918   2.595   1.050 -0.2546 -0.3673 -0.3080
 5846TIP3    H139097   2.980   2.535   1.092  1.2053  2.1819  1.4820
 5846TIP3    H239098   2.832   2.561   1.075  0.4790 -1.9379  0.2547
 5847TIP3   OH239099   5.125   0.125   0.604 -0.2611 -0.3887 -0.2639
 5847TIP3    H139100   5.139   0.184   0.677  0.2321  0.3038 -0.9002
 5847TIP3    H239101   5.213   0.105   0.572 -0.5037  0.1804 -1.3311
 5848TIP3   OH239102   4.628   5.400   6.970 -0.1290  0.7251  0.1068
 5848TIP3    H139103   4.680   5.321   6.957 -0.8178 -0.2017  2.5022
 5848TIP3    H239104   4.694   5.470   6.981  0.4970  0.3307 -1.0190
 5849TIP3   OH239105   6.545   0.823   0.844  0.2331  0.3297 -0.6049
 5849TIP3    H139106   6.620   0.830   0.903  0.7744 -0.1177 -1.2260
 5849TIP3    H239107   6.581   0.786   0.763  0.1782  3.7951 -2.4185
 5850TIP3   OH239108   5.070   5.208   7.402  0.9563  0.1826  0.1253
 5850TIP3    H139109   5.032   5.170   7.322  1.6444  0.3045 -0.2671
 5850TIP3    H239110   5.089   5.133   7.458 -2.4001  0.2179  1.5391
 5851TIP3   OH239111   6.887   2.479   8.116  0.0554 -0.1840  0.0394
 5851TIP3    H139112   6.847   2.539   8.053  0.9528 -0.0727 -0.4461
 5851TIP3    H239113   6.925   2.410   8.062 -1.6902 -1.6893  0.6362
 5852TIP3   OH239114   5.829   3.042   7.447  0.1707 -0.2144  0.2156
 5852TIP3    H139115   5.848   3.117   7.389 -1.3100  0.9264  1.1210
 5852TIP3    H239116   5.743   3.011   7.418 -1.2002  1.1653  2.4762
 5853TIP3   OH239117   1.523   1.531   8.026 -0.4841  0.2112 -0.1736
 5853TIP3    H139118   1.542   1.520   7.933 -0.9170  0.8005 -0.3389
 5853TIP3    H239119   1.602   1.501   8.071  0.1176  0.8525 -0.7731
 5854TIP3   OH239120   6.416   3.755   0.473 -0.1208 -0.1573  0.3440
 5854TIP3    H139121   6.398   3.849   0.477 -0.4328 -0.1173 -1.2657
 5854TIP3    H239122   6.492   3.747   0.416  0.1314 -0.8747  0.7571
 5855TIP3   OH239123   6.248   4.824   0.292 -0.2576 -0.2650 -0.7701
 5855TIP3    H139124   6.247   4.890   0.360 -1.2635 -1.9525  0.9457
 5855TIP3    H239125   6.296   4.864   0.219 -0.9296  2.3289  0.1430
 5856TIP3   OH239126   6.639   2.889   0.382 -0.0786  0.0644  0.6235
 5856TIP3    H139127   6.630   2.974   0.424  0.4278  0.6315 -0.4010
 5856TIP3    H239128   6.550   2.867   0.355  0.0293  1.1045 -0.6803
 5857TIP3   OH239129   4.394   3.943   7.603 -0.3401  0.0637 -0.0055
 5857TIP3    H139130   4.382   3.891   7.682  0.9547 -0.0095  0.1484
 5857TIP3    H239131   4.304   3.967   7.577 -0.8971 -1.3721  0.4809
 5858TIP3   OH239132   3.826   0.952   1.976 -0.0093 -0.6942 -0.1160
 5858TIP3    H139133   3.812   0.885   2.043  0.0462  0.4211  1.0761
 5858TIP3    H239134   3.768   1.024   2.003  0.2182 -0.1159 -1.1266
 5859TIP3   OH239135   1.391   0.703   1.614 -0.0001 -0.0292 -0.4117
 5859TIP3    H139136   1.341   0.778   1.582  1.0396  1.7760  1.8833
 5859TIP3    H239137   1.385   0.709   1.709  2.0876 -1.4798 -0.1081
 5860TIP3   OH239138   6.607   3.701   7.453 -0.3609 -0.8608  0.9044
 5860TIP3    H139139   6.547   3.737   7.518 -0.3739  0.2191  0.3178
 5860TIP3    H239140   6.550   3.675   7.380 -0.2278 -0.9099  0.8166
 5861TIP3   OH239141   1.039   0.279   2.651 -0.5860 -0.4303  0.7158
 5861TIP3    H139142   1.071   0.298   2.563 -0.9280  1.0553  0.8908
 5861TIP3    H239143   1.069   0.352   2.704 -1.0291 -0.9333  1.6838
 5862TIP3   OH239144   4.353   5.918   8.229  0.6461 -0.6603  0.8681
 5862TIP3    H139145   4.380   5.903   8.139  0.2261  0.5223  0.5222
 5862TIP3    H239146   4.290   5.990   8.223  1.3229  0.0672  2.2092
 5863TIP3   OH239147   2.464   1.255   2.077 -0.4989 -0.2282  0.0951
 5863TIP3    H139148   2.533   1.273   2.140  1.9197 -0.1542 -2.3651
 5863TIP3    H239149   2.434   1.167   2.098  2.8911 -1.7762 -0.7688
 5864TIP3   OH239150   3.130   1.193   1.560  0.3235  0.4898 -0.1827
 5864TIP3    H139151   3.090   1.137   1.494  0.7382  0.4287 -0.3856
 5864TIP3    H239152   3.214   1.152   1.578  0.4546  0.8231 -0.0360
 5865TIP3   OH239153   0.062   3.140   7.695 -0.5111  0.2493 -0.5393
 5865TIP3    H139154   0.006   3.107   7.625  0.2024 -0.3833 -0.8320
 5865TIP3    H239155   0.142   3.168   7.651 -0.1811  0.1462 -0.0172
 5866TIP3   OH239156   2.811   4.046   0.472  0.0001  0.3647  0.0317
 5866TIP3    H139157   2.857   3.989   0.534 -0.0234 -0.2928 -0.5373
 5866TIP3    H239158   2.852   4.132   0.482  0.0513  0.2460  0.8952
 5867TIP3   OH239159   4.162   1.601   0.154  0.4862 -0.9221 -0.3592
 5867TIP3    H139160   4.180   1.695   0.166  0.5549 -1.0047  0.1918
 5867TIP3    H239161   4.152   1.591   0.059 -1.2245 -0.0415 -0.3131
 5868TIP3   OH239162   1.971   4.841   6.251  0.2295  0.4416 -0.5580
 5868TIP3    H139163   2.063   4.860   6.234  0.5211 -2.4902 -3.5353
 5868TIP3    H239164   1.926   4.869   6.172 -1.2816  0.8434  0.4105
 5869TIP3   OH239165   5.436   5.831   8.255  0.0716 -0.0267  0.1074
 5869TIP3    H139166   5.498   5.884   8.205 -0.1634  0.7397  0.6240
 5869TIP3    H239167   5.429   5.750   8.204 -0.7165  0.9964 -1.4957
 5870TIP3   OH239168   6.460   5.769   6.774  0.1968 -0.4547  0.2824
 5870TIP3    H139169   6.392   5.750   6.839 -0.2454  0.3910  0.0856
 5870TIP3    H239170   6.504   5.846   6.808  0.5864 -0.5697  0.0423
 5871TIP3   OH239171   6.623   2.386   8.518  0.0532  0.4867 -0.3578
 5871TIP3    H139172   6.616   2.294   8.543 -1.6565  0.2441 -1.5387
 5871TIP3    H239173   6.665   2.429   8.592 -0.0828 -1.0567  0.6439
 5872TIP3   OH239174   0.194   0.348   6.995 -0.1940 -0.4367 -0.7799
 5872TIP3    H139175   0.140   0.281   7.038 -0.0483  0.8808  1.6123
 5872TIP3    H239176   0.142   0.375   6.919 -2.3093 -0.1709  0.6714
 5873TIP3   OH239177   5.147   0.963   0.922 -0.3421 -0.1696  0.0128
 5873TIP3    H139178   5.153   1.058   0.931 -0.0796 -0.1895  0.0733
 5873TIP3    H239179   5.222   0.930   0.972  0.9764 -0.3080 -1.9179
 5874TIP3   OH239180   2.166   5.884   8.580 -0.1885  0.1637 -0.2383
 5874TIP3    H139181   2.234   5.899   8.514  0.3634  0.5232  0.4091
 5874TIP3    H239182   2.213   5.885   8.664 -0.8670 -0.3935  0.1592
 5875TIP3   OH239183   1.703   1.744   1.926 -0.1090  0.3478 -0.0082
 5875TIP3    H139184   1.759   1.818   1.953  0.3455 -0.1635  0.4766
 5875TIP3    H239185   1.758   1.694   1.865 -0.4779  0.4997 -0.4680
 5876TIP3   OH239186   3.910   5.994   6.690 -0.1633  0.0494  0.3928
 5876TIP3    H139187   4.005   6.000   6.681 -0.2293  0.6430  0.0028
 5876TIP3    H239188   3.895   5.912   6.737  0.5073 -0.3749 -0.1079
 5877TIP3   OH239189   0.021   1.416   0.787 -0.5986  0.4950  0.3491
 5877TIP3    H139190   0.113   1.392   0.775 -0.4908  1.0282  0.0592
 5877TIP3    H239191  -0.020   1.337   0.821  0.0827  0.4181  1.0196
 5878TIP3   OH239192   5.736   2.193   7.467  0.7220  0.5756  0.5605
 5878TIP3    H139193   5.643   2.200   7.490  0.4159  0.0909 -0.4512
 5878TIP3    H239194   5.778   2.157   7.545  0.0981  1.0116  1.1027
 5879TIP3   OH239195   0.808   2.955   7.439 -0.5041  0.3765 -0.0457
 5879TIP3    H139196   0.764   2.873   7.463 -3.1437  2.2087  2.0233
 5879TIP3    H239197   0.881   2.928   7.384 -2.3225 -3.2134 -0.9995
 5880TIP3   OH239198   6.001   5.709   8.382  0.1949 -0.8862 -0.1312
 5880TIP3    H139199   5.970   5.711   8.291  0.4287 -0.1866 -0.1979
 5880TIP3    H239200   5.974   5.793   8.419  0.9194 -0.7810  0.1706
 5881TIP3   OH239201   2.558   6.636   0.989  0.0545  0.5730 -0.5235
 5881TIP3    H139202   2.640   6.588   1.007  0.3270  1.1046 -0.3370
 5881TIP3    H239203   2.509   6.578   0.931 -0.7946 -1.1757  1.7549
 5882TIP3   OH239204   6.567   6.199   8.013 -0.7310 -0.3163 -0.6073
 5882TIP3    H139205   6.582   6.118   7.964  0.8594 -0.6684  0.3827
 5882TIP3    H239206   6.523   6.172   8.093 -0.9715 -0.0849 -0.6588
 5883TIP3   OH239207   4.969   2.963   0.871  0.1256  0.1722  0.3508
 5883TIP3    H139208   5.008   2.876   0.873  0.9103  0.4019 -1.7926
 5883TIP3    H239209   5.003   3.007   0.949  0.9164 -0.9559  0.6642
 5884TIP3   OH239210   2.601   2.999   1.510 -0.1080 -0.3131  0.2868
 5884TIP3    H139211   2.534   3.023   1.446  1.1209  1.2037 -0.4741
 5884TIP3    H239212   2.659   2.939   1.463  1.8447  2.2038 -0.7333
 5885TIP3   OH239213   6.603   6.806   2.308 -0.0285 -0.1414 -0.2404
 5885TIP3    H139214   6.582   6.725   2.261 -1.0476  0.7869 -1.4751
 5885TIP3    H239215   6.571   6.875   2.250 -2.4132  1.0657  2.2780
 5886TIP3   OH239216   6.744   5.951   1.628  0.2899 -0.0559 -0.2529
 5886TIP3    H139217   6.829   5.995   1.636 -0.1964  0.8120  0.1640
 5886TIP3    H239218   6.727   5.949   1.534  0.5085  0.2784 -0.3020
 5887TIP3   OH239219   5.818   2.939   6.389 -0.1710  0.0044  0.2920
 5887TIP3    H139220   5.725   2.960   6.392 -0.1708 -0.0457  0.9474
 5887TIP3    H239221   5.822   2.850   6.355 -0.1323  1.1947 -3.1794
 5888TIP3   OH239222   5.487   0.075   7.600 -0.1175 -0.0214 -0.6043
 5888TIP3    H139223   5.551   0.054   7.668  0.9798  0.1913 -1.5399
 5888TIP3    H239224   5.540   0.101   7.524 -1.2830 -0.7687 -1.7187
 5889TIP3   OH239225   4.665   2.602   6.768 -0.0778 -0.4020  0.5193
 5889TIP3    H139226   4.583   2.643   6.795  0.9056  0.3745  2.5123
 5889TIP3    H239227   4.719   2.674   6.737  0.2927 -0.7448  0.3568
 5890TIP3   OH239228   3.603   2.627   0.217  0.3429 -0.1246  0.2063
 5890TIP3    H139229   3.618   2.718   0.190 -1.0113 -0.4045 -1.6714
 5890TIP3    H239230   3.542   2.633   0.290 -0.9659  0.4665 -0.8885
 5891TIP3   OH239231   1.741   4.550   7.885  0.0535  0.0929 -0.3974
 5891TIP3    H139232   1.757   4.461   7.917 -0.9299 -0.3608 -1.0973
 5891TIP3    H239233   1.822   4.575   7.840 -0.0871 -0.9369 -1.2518
 5892TIP3   OH239234   3.606   0.559   0.579 -0.0688 -0.4909  0.4676
 5892TIP3    H139235   3.641   0.632   0.527 -0.8411  0.7677  1.6444
 5892TIP3    H239236   3.544   0.600   0.638 -0.3652 -2.1033  1.3196
 5893TIP3   OH239237   3.088   0.064   8.063 -0.3083  0.0900  0.6729
 5893TIP3    H139238   3.021   0.132   8.071  1.2120  1.6922  0.5620
 5893TIP3    H239239   3.105   0.057   7.968 -0.5812 -0.5805  0.6692
 5894TIP3   OH239240   2.865   0.652   0.827  0.0749 -0.2500 -0.3646
 5894TIP3    H139241   2.785   0.617   0.867  0.5712  0.9264  1.8293
 5894TIP3    H239242   2.933   0.588   0.849  0.5437  0.8719  1.6857
 5895TIP3   OH239243   2.298   2.408   7.353 -0.2980 -0.5090 -0.2576
 5895TIP3    H139244   2.257   2.395   7.268 -0.2019  0.3901 -0.4472
 5895TIP3    H239245   2.237   2.369   7.415 -1.4442  0.7773 -0.5388
 5896TIP3   OH239246   2.577   5.826   0.061 -0.3960  0.2299  0.3956
 5896TIP3    H139247   2.659   5.876   0.052 -0.3428  0.2465  0.9110
 5896TIP3    H239248   2.596   5.761   0.129 -1.1733  1.0234  1.4055
 5897TIP3   OH239249   0.957   2.208   8.539 -0.3461  0.2479 -0.1586
 5897TIP3    H139250   0.987   2.124   8.575 -1.5493 -0.4680 -0.7722
 5897TIP3    H239251   0.883   2.233   8.593 -0.2327  0.7200 -0.2178
 5898TIP3   OH239252   2.710   1.864   8.024  0.2217  0.7051  0.1263
 5898TIP3    H139253   2.720   1.899   8.112 -2.8895 -0.6780  1.1856
 5898TIP3    H239254   2.695   1.770   8.038 -0.2467  0.4412 -1.8940
 5899TIP3   OH239255   4.698   1.073   7.974  0.0629 -0.3685  0.1329
 5899TIP3    H139256   4.702   1.157   7.929 -3.9218  0.2136  0.5164
 5899TIP3    H239257   4.732   1.009   7.910  3.1390  1.3584 -0.1746
 5900TIP3   OH239258   2.869   6.453   7.542  0.2219  0.0878  0.2683
 5900TIP3    H139259   2.942   6.467   7.482  0.2104  0.6493  0.3803
 5900TIP3    H239260   2.816   6.386   7.501  1.0703 -0.6944  0.4232
 5901TIP3   OH239261   2.623   2.007   6.630 -0.8158 -0.4029 -0.0340
 5901TIP3    H139262   2.551   1.991   6.691 -0.9582  0.5811  0.0700
 5901TIP3    H239263   2.581   2.042   6.552 -0.2568  3.9161  1.3492
 5902TIP3   OH239264   5.539   5.983   0.815 -0.2998  0.0778 -0.0557
 5902TIP3    H139265   5.517   5.967   0.724  3.3646 -0.6453 -1.0050
 5902TIP3    H239266   5.498   5.911   0.863 -2.2617  0.4652 -1.0745
 5903TIP3   OH239267   0.645   3.110   0.817  0.0014  0.0402 -0.3535
 5903TIP3    H139268   0.696   3.128   0.896  0.6102 -2.1645 -0.1981
 5903TIP3    H239269   0.709   3.106   0.747 -0.1368 -1.1956 -0.4180
 5904TIP3   OH239270   5.826   2.481   0.939  0.0372  0.4340 -0.2306
 5904TIP3    H139271   5.842   2.430   0.859 -0.7228  0.8775 -0.6797
 5904TIP3    H239272   5.904   2.536   0.948  0.8391 -0.7356  0.2259
 5905TIP3   OH239273   5.189   6.337   7.375 -0.0984  0.1070  0.3364
 5905TIP3    H139274   5.150   6.421   7.351 -2.4912 -1.2545 -0.8710
 5905TIP3    H239275   5.205   6.293   7.291  0.9877 -0.7145  0.9418
 5906TIP3   OH239276   0.077   6.191   2.390  0.2921  0.0265 -0.3322
 5906TIP3    H139277   0.036   6.278   2.385 -1.3584 -0.6803  0.1315
 5906TIP3    H239278   0.039   6.151   2.468  2.1441 -0.5963  0.2997
 5907TIP3   OH239279   1.774   1.662   0.404 -0.4144 -0.7375  0.2146
 5907TIP3    H139280   1.762   1.667   0.310  0.8507 -0.3849  0.0565
 5907TIP3    H239281   1.761   1.569   0.425 -1.4694 -0.6863 -0.1798
 5908TIP3   OH239282   4.747   4.867   0.035 -0.1810  0.1289 -0.1054
 5908TIP3    H139283   4.829   4.884  -0.012  0.3225 -0.7538  0.4359
 5908TIP3    H239284   4.681   4.866  -0.034 -0.1241  3.0506 -0.3376
 5909TIP3   OH239285   3.691   4.981   0.075 -0.3221  0.2651  0.9019
 5909TIP3    H139286   3.676   5.064   0.030 -5.0270 -0.5679  0.4377
 5909TIP3    H239287   3.664   4.998   0.165 -0.0677 -0.4307  1.1136
 5910TIP3   OH239288   3.155   4.011   7.168  0.2235  0.0333 -0.0968
 5910TIP3    H139289   3.078   4.048   7.126  0.5221 -0.3842 -1.0274
 5910TIP3    H239290   3.148   4.039   7.259 -1.7530 -1.1445  0.1815
 5911TIP3   OH239291   2.992   4.523   0.876 -0.0432 -0.1868 -0.6358
 5911TIP3    H139292   2.962   4.457   0.938  1.5123 -1.0337 -0.7337
 5911TIP3    H239293   2.993   4.605   0.926 -1.0828 -0.3957 -0.2471
 5912TIP3   OH239294   4.801   4.254   7.395 -0.4771 -0.4863 -0.1894
 5912TIP3    H139295   4.715   4.227   7.425 -1.1220  1.5266 -0.0457
 5912TIP3    H239296   4.848   4.280   7.475 -0.1413 -0.5259 -0.3699
 5913TIP3   OH239297   4.579   4.375   7.269  0.0282  0.4428  0.0308
 5913TIP3    H139298   4.666   4.356   7.305 -0.1847  0.0020  0.3232
 5913TIP3    H239299   4.576   4.325   7.188  0.1463  0.6698 -0.1145
 5914TIP3   OH239300   3.532   2.276   1.113 -0.1576  0.2020 -0.3218
 5914TIP3    H139301   3.451   2.283   1.165  0.9327  0.5762  1.4233
 5914TIP3    H239302   3.599   2.251   1.177  1.1057 -0.2262 -1.7512
 5915TIP3   OH239303   6.191   2.198   0.596  0.3612  0.0843 -0.7975
 5915TIP3    H139304   6.144   2.266   0.547  0.3417  0.6487 -0.0083
 5915TIP3    H239305   6.276   2.236   0.615 -0.1480  0.4805  0.8987
 5916TIP3   OH239306   2.911   5.827   7.900 -0.6560 -0.3369 -0.1094
 5916TIP3    H139307   3.002   5.811   7.876 -0.4753  1.8540 -1.1604
 5916TIP3    H239308   2.916   5.882   7.978 -1.0990 -0.9286  0.3384
 5917TIP3   OH239309   5.609   3.400   0.306 -0.2379 -0.0151  0.2146
 5917TIP3    H139310   5.649   3.333   0.361 -1.0777 -1.4273 -0.8312
 5917TIP3    H239311   5.592   3.473   0.365  0.4717 -0.8122  1.4396
 5918TIP3   OH239312   4.109   6.646   1.525  0.6910 -0.0633  0.0700
 5918TIP3    H139313   4.058   6.721   1.494  0.0652 -0.4036  0.2602
 5918TIP3    H239314   4.199   6.677   1.524  0.4856  0.5445 -0.2892
 5919TIP3   OH239315   4.466   4.228   0.150 -0.6828  0.1361  0.0120
 5919TIP3    H139316   4.561   4.235   0.140 -0.5782 -0.4300  0.5539
 5919TIP3    H239317   4.449   4.134   0.153 -1.2175  0.2391  0.2999
 5920TIP3   OH239318   6.322   6.408   0.441  0.4428  0.4506 -0.0511
 5920TIP3    H139319   6.309   6.314   0.432 -2.5585  0.8530 -0.9745
 5920TIP3    H239320   6.326   6.423   0.535 -0.9364 -0.4260  0.1704
 5921TIP3   OH239321   5.300   2.890   1.601 -0.1013 -0.0410 -0.1041
 5921TIP3    H139322   5.353   2.962   1.633 -2.0738  1.0109  0.9896
 5921TIP3    H239323   5.259   2.854   1.680  0.0694 -1.7373 -0.7467
 5922TIP3   OH239324   6.563   4.896   0.352 -0.3450  0.4827 -0.3413
 5922TIP3    H139325   6.509   4.968   0.319 -3.0321 -0.8221  0.8226
 5922TIP3    H239326   6.590   4.848   0.274  0.2889  1.9386 -1.0364
 5923TIP3   OH239327   5.445   0.622   6.811  0.5283  0.2386 -0.4738
 5923TIP3    H139328   5.454   0.685   6.740  0.3396  1.2395  0.3619
 5923TIP3    H239329   5.528   0.575   6.812  0.7765  0.6578 -0.9524
 5924TIP3   OH239330   1.689   2.199   8.604  0.2125  0.2944 -0.3028
 5924TIP3    H139331   1.772   2.167   8.639 -0.3353 -0.8477 -0.0063
 5924TIP3    H239332   1.658   2.129   8.546 -0.9736  0.3053  0.2889
 5925TIP3   OH239333   4.425   0.984   7.525 -0.6116  0.5984  0.1588
 5925TIP3    H139334   4.495   0.940   7.575 -0.7342 -1.1722 -1.1291
 5925TIP3    H239335   4.464   0.998   7.439 -1.7086 -0.0650 -0.4560
 5926TIP3   OH239336   5.420   5.029   0.932  0.0939  0.2389  0.4750
 5926TIP3    H139337   5.383   5.081   0.861 -2.0950  0.3611  1.6301
 5926TIP3    H239338   5.416   5.087   1.009  2.4647  0.1368  0.7429
 5927TIP3   OH239339   0.527   4.083   6.717 -0.6972  0.2594 -0.2256
 5927TIP3    H139340   0.500   4.175   6.716 -1.0329  0.1817 -2.3854
 5927TIP3    H239341   0.615   4.084   6.679 -0.6476 -0.3091 -0.1336
 5928TIP3   OH239342   4.892   0.235   2.200  0.1166  0.2463 -0.6026
 5928TIP3    H139343   4.862   0.276   2.119 -0.5306 -0.6524 -0.8306
 5928TIP3    H239344   4.813   0.219   2.250  0.5704  1.4135  0.5257
 5929TIP3   OH239345   2.622   1.803   2.104 -0.2519  0.0335  0.2879
 5929TIP3    H139346   2.650   1.879   2.156  0.7984  1.2403 -1.9289
 5929TIP3    H239347   2.671   1.730   2.142  1.7962  1.1699 -0.0189
 5930TIP3   OH239348   1.802   0.556   6.938  0.6810  0.1107 -0.3440
 5930TIP3    H139349   1.862   0.602   6.880 -0.1623  1.7185 -0.0158
 5930TIP3    H239350   1.727   0.534   6.883  0.4452  0.4711 -0.1728
 5931TIP3   OH239351   1.475   0.589   7.303  0.2548  0.1148  0.4325
 5931TIP3    H139352   1.519   0.616   7.383 -0.9574  0.0808  1.1212
 5931TIP3    H239353   1.388   0.561   7.331 -0.9645  2.1177 -1.1478
 5932TIP3   OH239354   1.725   2.299   7.229 -0.8040  0.1774  0.7079
 5932TIP3    H139355   1.807   2.271   7.189 -0.4583 -0.4900  1.8167
 5932TIP3    H239356   1.707   2.384   7.191 -0.0619 -0.0618 -0.2125
 5933TIP3   OH239357   6.568   6.656   0.652 -0.3444 -0.1349  0.1627
 5933TIP3    H139358   6.500   6.600   0.688 -0.7053  0.1127 -0.1280
 5933TIP3    H239359   6.639   6.595   0.628 -0.5091 -0.4041  0.3545
 5934TIP3   OH239360   3.756   2.137   0.365 -0.1623 -0.0854 -0.5528
 5934TIP3    H139361   3.711   2.181   0.438  0.5978 -0.3983  0.1265
 5934TIP3    H239362   3.753   2.199   0.293 -1.5979 -0.0608 -0.5033
 5935TIP3   OH239363   5.718   4.854   7.833 -0.1986  0.1780  0.3364
 5935TIP3    H139364   5.769   4.933   7.819 -0.0514  0.2352  1.1330
 5935TIP3    H239365   5.763   4.809   7.905 -1.4113  0.3725  1.2605
 5936TIP3   OH239366   3.925   0.673   1.088  0.0177 -0.4180 -0.2058
 5936TIP3    H139367   3.977   0.744   1.126 -0.5111  0.3290 -0.8373
 5936TIP3    H239368   3.948   0.674   0.995  1.2072 -2.1456  0.0357
 5937TIP3   OH239369   0.249   1.656   1.086 -0.2841  0.6161 -0.1009
 5937TIP3    H139370   0.162   1.635   1.053 -0.6979 -1.1214  1.8932
 5937TIP3    H239371   0.271   1.583   1.144  1.4643  2.1908  1.3377
 5938TIP3   OH239372   6.213   4.688   8.536 -0.3051  0.0552  0.1810
 5938TIP3    H139373   6.216   4.677   8.441 -0.3530 -1.3716  0.3234
 5938TIP3    H239374   6.126   4.657   8.561 -0.4493  0.8142  0.6599
 5939TIP3   OH239375   3.434   4.920   2.191 -0.7765  0.2252  0.0562
 5939TIP3    H139376   3.457   4.829   2.213  1.0327  0.8262  0.8659
 5939TIP3    H239377   3.345   4.914   2.157 -0.9841 -1.7643  0.7697
 5940TIP3   OH239378   5.611   2.957   7.303  0.4335 -0.4741  0.2454
 5940TIP3    H139379   5.580   2.923   7.219  2.3716  1.8655 -1.5888
 5940TIP3    H239380   5.545   3.023   7.328  0.3701 -0.4534  0.0223
 5941TIP3   OH239381   6.094   1.971   7.393 -0.1480  0.3993  0.7683
 5941TIP3    H139382   6.049   1.937   7.470  0.7424  1.3207  1.7388
 5941TIP3    H239383   6.135   1.895   7.354  1.3929  0.1785  2.6157
 5942TIP3   OH239384   2.811   4.481   7.996 -0.0718 -0.0233  0.3211
 5942TIP3    H139385   2.817   4.466   8.091 -2.0071 -0.2888  0.4514
 5942TIP3    H239386   2.798   4.575   7.987  2.9083  0.4479  0.0874
 5943TIP3   OH239387   4.258   1.214   7.775 -0.3697 -0.5772  0.2387
 5943TIP3    H139388   4.333   1.261   7.812 -2.6612  2.4542  1.4535
 5943TIP3    H239389   4.254   1.242   7.684 -1.3333  1.1953  0.7886
 5944TIP3   OH239390   2.834   1.787   1.262  0.0121 -0.4961  0.1913
 5944TIP3    H139391   2.802   1.710   1.214  1.4106 -1.2644  0.4503
 5944TIP3    H239392   2.924   1.766   1.284 -0.1257  0.4874  1.8366
 5945TIP3   OH239393   6.605   4.520   0.040  0.4889  0.2488  0.1312
 5945TIP3    H139394   6.689   4.534   0.082 -0.6027 -1.0262  2.9909
 5945TIP3    H239395   6.600   4.425   0.027 -1.2380  0.0539  1.8387
 5946TIP3   OH239396   4.011   0.612   7.341 -0.0781  0.0425  0.3973
 5946TIP3    H139397   4.067   0.670   7.393 -0.0995  0.2721  0.1654
 5946TIP3    H239398   3.962   0.671   7.284 -1.0033 -0.1029  1.0267
 5947TIP3   OH239399   1.253   3.045   1.834  0.7110  0.0689 -0.0053
 5947TIP3    H139400   1.257   3.141   1.841  0.1341  0.0970 -0.0154
 5947TIP3    H239401   1.163   3.023   1.858  1.2695 -0.6163  1.6107
 5948TIP3   OH239402   4.633   3.018   8.625  0.1332 -0.2958  0.3235
 5948TIP3    H139403   4.666   2.930   8.642 -0.5050 -0.4745  0.6581
 5948TIP3    H239404   4.657   3.068   8.704 -0.3602 -0.4176  0.5532
 5949TIP3   OH239405   2.065   3.612   1.105  0.1365  0.1298  0.0981
 5949TIP3    H139406   2.066   3.517   1.121  1.8794  0.3803  1.8031
 5949TIP3    H239407   2.010   3.622   1.027 -0.3018 -2.2511  0.0140
 5950TIP3   OH239408   0.618   1.874   1.231 -0.4494 -0.5928  0.5085
 5950TIP3    H139409   0.641   1.793   1.277  0.0489 -1.3016 -0.9593
 5950TIP3    H239410   0.552   1.848   1.167 -0.7099  0.2735  0.4135
 5951TIP3   OH239411   5.236   0.670   1.571  0.2474  0.0239 -0.4353
 5951TIP3    H139412   5.304   0.605   1.585  0.8619  0.8089  0.3642
 5951TIP3    H239413   5.253   0.737   1.638 -0.4202  0.9511 -1.1667
 5952TIP3   OH239414   4.648   2.795   0.627  0.1344  0.3325  0.1392
 5952TIP3    H139415   4.683   2.740   0.696  2.6046 -0.6883 -1.7845
 5952TIP3    H239416   4.708   2.868   0.620 -0.1906  0.5382 -0.7606
 5953TIP3   OH239417   0.941   4.835   0.271 -0.2405 -0.6008 -0.1278
 5953TIP3    H139418   0.916   4.860   0.182  0.6273 -0.3005 -0.3046
 5953TIP3    H239419   1.030   4.801   0.262 -0.2211 -0.7589  0.5964
 5954TIP3   OH239420   0.919   2.906   0.445 -0.5044  0.0911  0.2617
 5954TIP3    H139421   0.871   2.983   0.416  0.9960  0.6038 -0.9728
 5954TIP3    H239422   0.959   2.932   0.528  0.2627  0.7855 -0.3109
 5955TIP3   OH239423   1.201   1.301   0.009  0.3965 -0.1241 -0.3499
 5955TIP3    H139424   1.188   1.220  -0.040  0.8375  0.4359 -1.4297
 5955TIP3    H239425   1.150   1.289   0.089  0.7726 -1.6245 -0.2950
 5956TIP3   OH239426   6.006   2.951   8.658 -0.1294 -0.3385 -0.0121
 5956TIP3    H139427   5.978   3.010   8.589 -1.9334 -0.2851  0.6887
 5956TIP3    H239428   5.962   2.868   8.638 -1.4027 -0.0848  1.4685
 5957TIP3   OH239429   0.787   5.330   1.328 -0.1774  0.6004  0.2500
 5957TIP3    H139430   0.771   5.290   1.413  2.1479 -0.2475  0.3621
 5957TIP3    H239431   0.732   5.281   1.267 -0.2516 -0.2000  0.9483
 5958TIP3   OH239432   5.386   3.626   0.150  0.4399  0.2419 -0.0231
 5958TIP3    H139433   5.389   3.532   0.130  0.7577 -0.0339  1.2121
 5958TIP3    H239434   5.304   3.637   0.200  0.2431  0.6862 -0.4380
 5959TIP3   OH239435   2.437   0.931   8.300  0.1310 -0.2519  0.1875
 5959TIP3    H139436   2.517   0.982   8.306 -0.2524  0.3230  0.6006
 5959TIP3    H239437   2.463   0.842   8.321  0.6376 -0.0430  0.4640
 5960TIP3   OH239438   5.012   3.776   6.768 -0.5367  0.2274 -0.2209
 5960TIP3    H139439   5.013   3.716   6.843 -2.4110 -1.9115 -1.7675
 5960TIP3    H239440   5.105   3.792   6.750 -0.0193 -0.4041  1.5868
 5961TIP3   OH239441   5.571   2.778   6.627 -0.5310 -0.1339 -0.5315
 5961TIP3    H139442   5.506   2.832   6.671 -2.0204 -1.9033 -0.4916
 5961TIP3    H239443   5.605   2.834   6.557 -0.8440  1.3961  0.5028
 5962TIP3   OH239444   3.894   4.681   0.321  0.5504 -0.2234 -0.3053
 5962TIP3    H139445   3.887   4.605   0.263 -0.4819 -0.9042  0.6803
 5962TIP3    H239446   3.883   4.756   0.263 -2.0402 -0.9147 -0.8425
 5963TIP3   OH239447   6.699   6.017   0.058  0.5987 -0.1193 -0.0942
 5963TIP3    H139448   6.730   6.054   0.141  0.9948  1.0572 -0.7502
 5963TIP3    H239449   6.778   5.993   0.011  0.5596  1.9229 -1.3313
 5964TIP3   OH239450   3.250   5.528   0.679  0.0896 -0.4301  0.6152
 5964TIP3    H139451   3.314   5.587   0.638  0.9656 -0.8974  1.2751
 5964TIP3    H239452   3.214   5.477   0.607 -2.0110  2.0829 -0.2558
 5965TIP3   OH239453   6.651   3.321   8.020 -0.6335  0.5556 -0.6611
 5965TIP3    H139454   6.616   3.379   7.952 -1.5217  0.9069  0.0780
 5965TIP3    H239455   6.726   3.279   7.979 -0.1532  1.9922 -1.3266
 5966TIP3   OH239456   5.714   3.521   7.027 -0.5520  0.5830  0.7110
 5966TIP3    H139457   5.721   3.538   6.933  0.3976  1.0248  0.8503
 5966TIP3    H239458   5.620   3.525   7.045 -1.1069 -2.5560 -0.7538
 5967TIP3   OH239459   5.021   1.445   0.967 -0.3293  0.4633  0.1065
 5967TIP3    H139460   4.974   1.527   0.957  2.1831  2.1266  0.9613
 5967TIP3    H239461   5.113   1.468   0.956  0.4919 -2.2171  0.5514
 5968TIP3   OH239462   0.521   3.812   1.230  0.5866 -0.0797  0.5994
 5968TIP3    H139463   0.447   3.760   1.198  0.6993  0.4304 -0.5083
 5968TIP3    H239464   0.481   3.893   1.262  0.5840 -0.1643  0.8149
 5969TIP3   OH239465   3.576   2.239   0.565 -0.1084  0.1633  0.2274
 5969TIP3    H139466   3.604   2.242   0.656 -0.0353 -0.1997  0.2200
 5969TIP3    H239467   3.500   2.181   0.565  0.3414 -0.4373 -0.0515
 5970TIP3   OH239468   0.291   1.034   0.307 -0.8072 -0.0075  0.5884
 5970TIP3    H139469   0.342   1.052   0.228 -1.4010  0.3547  0.2828
 5970TIP3    H239470   0.349   0.980   0.361  0.7763  2.1448  1.1915
 5971TIP3   OH239471   1.790   5.631   7.048 -0.1271  0.3777  0.2273
 5971TIP3    H139472   1.795   5.644   6.953  0.2431 -0.4368  0.1238
 5971TIP3    H239473   1.701   5.658   7.071 -0.2303  0.5607 -0.3552
 5972TIP3   OH239474   4.421   6.126   0.688 -0.3037 -0.3369 -0.4071
 5972TIP3    H139475   4.332   6.134   0.722 -0.3284 -0.0226 -0.5362
 5972TIP3    H239476   4.473   6.187   0.741  0.5668 -3.0143  2.0441
 5973TIP3   OH239477   1.835   2.566   0.506  0.5678  1.1716  0.9301
 5973TIP3    H139478   1.764   2.629   0.512 -1.9520 -0.8198 -3.2659
 5973TIP3    H239479   1.873   2.581   0.419  1.2966 -1.5738  0.6669
 5974TIP3   OH239480   0.608   5.458   7.116 -0.0383 -0.0482  0.1534
 5974TIP3    H139481   0.588   5.524   7.050 -0.3344 -0.6847 -0.4071
 5974TIP3    H239482   0.637   5.508   7.193 -1.0877  0.7639  0.0341
 5975TIP3   OH239483   5.860   6.453   7.023  0.0422  0.1012 -0.0317
 5975TIP3    H139484   5.918   6.465   6.947 -2.2142  1.6614 -1.6641
 5975TIP3    H239485   5.883   6.526   7.081  0.5366 -0.0273 -0.0549
 5976TIP3   OH239486   4.555   1.474   0.910  0.1621  0.2124 -0.1765
 5976TIP3    H139487   4.469   1.509   0.931  0.0292 -0.8490  1.1252
 5976TIP3    H239488   4.596   1.456   0.995  0.6873 -1.6492 -0.7758
 5977TIP3   OH239489   1.731   3.100   6.560  0.3535 -0.0227 -0.0377
 5977TIP3    H139490   1.799   3.072   6.499  0.2199  1.1628 -0.7771
 5977TIP3    H239491   1.668   3.147   6.505 -1.5913 -1.8925  0.4515
 5978TIP3   OH239492   2.175   2.491   7.126  0.0456  0.2907 -0.0731
 5978TIP3    H139493   2.103   2.555   7.129 -0.0436  0.1628  1.1005
 5978TIP3    H239494   2.151   2.431   7.055  0.2590  1.6902 -1.3835
 5979TIP3   OH239495   5.595   6.654   8.654  0.4317  0.5285  0.4160
 5979TIP3    H139496   5.531   6.716   8.689  1.0147  0.3748  1.8159
 5979TIP3    H239497   5.547   6.605   8.587 -1.0698  0.1306  1.7116
 5980TIP3   OH239498   3.718   1.779   1.443 -0.0788  0.1352  0.0726
 5980TIP3    H139499   3.705   1.685   1.432  0.3642 -0.0594  1.1145
 5980TIP3    H239500   3.707   1.815   1.355  1.2927 -1.0744 -0.6371
 5981TIP3   OH239501   1.220   4.151   7.294 -0.2667  0.4868 -0.0303
 5981TIP3    H139502   1.155   4.221   7.283 -0.7824  0.2654  1.3078
 5981TIP3    H239503   1.213   4.127   7.387 -0.1608 -1.4032 -0.4760
 5982TIP3   OH239504   5.779   3.660   0.455  0.2739 -0.5678  0.0287
 5982TIP3    H139505   5.699   3.662   0.403  1.2264 -2.0802 -1.5854
 5982TIP3    H239506   5.850   3.645   0.392  1.9364  1.1872  1.3351
 5983TIP3   OH239507   5.328   5.285   1.759 -0.1426 -0.2631 -0.4090
 5983TIP3    H139508   5.326   5.290   1.854 -0.5586 -0.3595 -0.4089
 5983TIP3    H239509   5.401   5.341   1.733 -0.4992  0.3600 -0.0716
 5984TIP3   OH239510   1.030   0.869   2.103 -0.1105 -0.0382  0.2541
 5984TIP3    H139511   0.956   0.885   2.161 -0.3485  0.1121 -0.0879
 5984TIP3    H239512   1.063   0.956   2.081 -1.4348  0.0635 -1.6439
 5985TIP3   OH239513   6.832   4.439   6.930 -0.2075 -0.2642 -0.6392
 5985TIP3    H139514   6.820   4.491   6.850 -0.3323 -1.5309 -1.4651
 5985TIP3    H239515   6.909   4.478   6.972 -1.0853  1.4566 -0.5110
 5986TIP3   OH239516   2.244   1.305   0.074 -0.1693 -0.6576  0.0478
 5986TIP3    H139517   2.284   1.252   0.006 -1.2460 -0.8850 -0.4335
 5986TIP3    H239518   2.254   1.253   0.154 -0.2964 -1.1146 -0.2304
 5987TIP3   OH239519   4.802   1.730   0.328  0.1588  0.2165 -0.2162
 5987TIP3    H139520   4.775   1.756   0.416  1.4477  0.4616  0.1214
 5987TIP3    H239521   4.753   1.649   0.311 -1.0152  0.8081  0.2256
 5988TIP3   OH239522   3.318   1.457   2.132  0.2172 -0.6927  0.0401
 5988TIP3    H139523   3.332   1.494   2.045  0.8045 -1.1974 -0.0860
 5988TIP3    H239524   3.273   1.374   2.115 -1.0866 -0.0623  0.3180
 5989TIP3   OH239525   6.576   3.006   8.214 -0.2805 -0.1291  0.1597
 5989TIP3    H139526   6.581   3.004   8.118  1.0237  0.7998  0.1784
 5989TIP3    H239527   6.495   3.055   8.232  0.1232  0.8178 -0.4946
 5990TIP3   OH239528   1.742   1.885   0.032 -0.6403 -0.4988  0.0789
 5990TIP3    H139529   1.737   1.810   0.092  0.4147  0.0923  0.9273
 5990TIP3    H239530   1.655   1.925   0.038 -1.4105 -1.9410 -0.8032
 5991TIP3   OH239531   6.046   5.272   8.139  0.4703 -0.4809  0.0774
 5991TIP3    H139532   6.139   5.290   8.142  0.1628  1.1232  1.2719
 5991TIP3    H239533   6.022   5.282   8.047  1.6791 -2.2492 -0.4824
 5992TIP3   OH239534   4.261   4.382   0.001 -0.1659  0.1102 -0.4836
 5992TIP3    H139535   4.305   4.301   0.027  0.1014  0.6258  0.7809
 5992TIP3    H239536   4.279   4.391  -0.092 -0.8977 -1.7036 -0.8376
 5993TIP3   OH239537   6.633   2.959   7.638 -0.7217 -0.0180  0.2832
 5993TIP3    H139538   6.540   2.980   7.625 -1.1393 -1.8714  0.0177
 5993TIP3    H239539   6.648   2.976   7.731 -1.2649  0.5086  0.2823
 5994TIP3   OH239540   2.941   3.247   6.785  0.9141  0.1774  0.0130
 5994TIP3    H139541   2.994   3.169   6.770 -0.8431 -0.7711 -1.6461
 5994TIP3    H239542   2.944   3.294   6.702 -0.0038  0.6478  0.2358
 5995TIP3   OH239543   2.607   5.518   7.722  0.1862 -0.0524  0.3308
 5995TIP3    H139544   2.533   5.574   7.748  0.3034 -0.1048  0.7893
 5995TIP3    H239545   2.684   5.565   7.753  0.2217 -1.0569  1.8702
 5996TIP3   OH239546   1.971   4.566   6.522 -0.4126  0.3485  0.5656
 5996TIP3    H139547   1.993   4.567   6.429  1.3404 -0.7495  0.9321
 5996TIP3    H239548   1.933   4.653   6.537  1.4963  1.4899 -0.6882
 5997TIP3   OH239549   0.221   0.099   8.045 -0.4277 -0.3063  0.4985
 5997TIP3    H139550   0.294   0.126   8.100 -0.7297 -1.0815  1.3076
 5997TIP3    H239551   0.145   0.146   8.079 -0.4876 -0.2523  0.2924
 5998TIP3   OH239552   5.348   0.214   0.302  0.0025 -0.3116  0.3139
 5998TIP3    H139553   5.381   0.244   0.217  1.0599 -1.8581  0.1365
 5998TIP3    H239554   5.278   0.153   0.280 -0.9268  0.5900  0.6361
 5999TIP3   OH239555   6.623   0.615   1.185  0.3047  0.1887  0.0048
 5999TIP3    H139556   6.599   0.704   1.157  1.5416  0.2075 -1.1528
 5999TIP3    H239557   6.553   0.559   1.151  1.0128  0.4020 -1.9922
 6000TIP3   OH239558   1.446   2.394   1.825  0.6261 -0.3952 -0.3006
 6000TIP3    H139559   1.490   2.438   1.752  0.2852  1.2899  0.4723
 6000TIP3    H239560   1.514   2.382   1.890  0.1052  1.9962  0.7977
 6001TIP3   OH239561   6.631   5.835   8.056 -0.3412  0.2047 -0.1636
 6001TIP3    H139562   6.594   5.909   8.007  0.0938  0.1940 -0.5079
 6001TIP3    H239563   6.706   5.872   8.101 -0.2947  0.0381 -0.1051
 6002TIP3   OH239564   2.855   5.187   0.977 -0.0319 -0.1903  0.0492
 6002TIP3    H139565   2.811   5.226   0.901 -0.3172  0.0530  0.3385
 6002TIP3    H239566   2.916   5.255   1.006  2.6782 -1.5282 -2.0816
 6003TIP3   OH239567   1.814   1.474   1.197  0.0410  0.1087 -0.3075
 6003TIP3    H139568   1.732   1.516   1.171 -0.9967 -0.4678  1.8041
 6003TIP3    H239569   1.810   1.387   1.159  0.5506  0.6808 -1.7259
 6004TIP3   OH239570   0.391   5.018   6.973 -0.1072 -0.2936  0.7547
 6004TIP3    H139571   0.348   4.969   7.043 -2.4895  0.9698  0.3017
 6004TIP3    H239572   0.390   5.109   7.004 -1.7016  0.3694 -1.0926
 6005TIP3   OH239573   4.126   5.100   6.567  0.3813 -0.0630  0.2501
 6005TIP3    H139574   4.191   5.046   6.522  1.0929 -0.8340  2.0975
 6005TIP3    H239575   4.043   5.057   6.550  0.4544  0.3335 -1.2558
 6006TIP3   OH239576   1.541   0.802   2.732  0.0094 -0.0650  0.3782
 6006TIP3    H139577   1.468   0.810   2.794  0.8104 -0.5099  1.4093
 6006TIP3    H239578   1.611   0.856   2.770  0.4977 -0.3029 -0.1647
 6007TIP3   OH239579   1.044   6.105   6.497  0.0478 -0.1530 -0.1891
 6007TIP3    H139580   1.078   6.187   6.532 -0.9973 -0.0871  0.7407
 6007TIP3    H239581   1.085   6.037   6.549  0.8754 -0.2382 -0.9271
 6008TIP3   OH239582   0.016   1.766   1.276 -0.2156  0.2134 -0.3421
 6008TIP3    H139583  -0.015   1.721   1.197 -0.4679  0.6449 -0.4960
 6008TIP3    H239584   0.015   1.859   1.252  2.3123  0.2209 -0.7628
 6009TIP3   OH239585   5.631   2.047   0.827  0.5832 -0.1605  0.1316
 6009TIP3    H139586   5.602   1.957   0.815 -2.2042  0.7215 -0.5806
 6009TIP3    H239587   5.641   2.082   0.739  1.6693  0.2348  0.3958
 6010TIP3   OH239588   3.942   5.922   7.680  0.2460  0.3729 -0.0496
 6010TIP3    H139589   3.851   5.907   7.703  0.7865 -0.8006  1.4768
 6010TIP3    H239590   3.971   5.841   7.638  0.4371  0.9712 -1.1250
 6011TIP3   OH239591   4.978   5.642   1.665  0.3010  0.1617  0.2152
 6011TIP3    H139592   4.916   5.590   1.717  1.8693  0.8156  2.9697
 6011TIP3    H239593   5.030   5.578   1.617  1.9902 -0.9946  3.3047
 6012TIP3   OH239594   4.578   2.518   8.133  0.2037  0.0582 -0.3712
 6012TIP3    H139595   4.650   2.463   8.103 -0.6090 -0.1932 -2.0153
 6012TIP3    H239596   4.593   2.603   8.091 -0.4146  0.0193 -0.6917
 6013TIP3   OH239597   6.890   2.182   8.473 -0.5670  1.3422 -0.0058
 6013TIP3    H139598   6.973   2.224   8.494 -0.3881  0.8345  0.3352
 6013TIP3    H239599   6.882   2.111   8.538  0.5105 -1.0116 -2.2625
 6014TIP3   OH239600   2.787   4.025   1.840  0.3898 -0.2346  0.0125
 6014TIP3    H139601   2.835   4.059   1.915  2.7802  0.4181 -1.6898
 6014TIP3    H239602   2.831   3.943   1.819 -1.2463 -1.2079  0.2094
 6015TIP3   OH239603   5.253   1.027   0.456  0.8060 -0.3040 -0.7217
 6015TIP3    H139604   5.235   1.114   0.420 -0.3192  0.6234  1.7603
 6015TIP3    H239605   5.169   0.981   0.450  0.3611  0.1382  1.1537
 6016TIP3   OH239606   2.556   6.535   6.970  0.1029  0.7042  0.6709
 6016TIP3    H139607   2.629   6.503   7.023 -0.2473  0.0210  0.7530
 6016TIP3    H239608   2.592   6.542   6.881  0.7567  2.0697  1.0131
 6017TIP3   OH239609   5.664   1.748   7.858 -0.3087  0.3858 -0.0786
 6017TIP3    H139610   5.739   1.696   7.829 -0.0201  0.8868 -0.2366
 6017TIP3    H239611   5.700   1.834   7.879 -0.5631  0.1465  1.4622
 6018TIP3   OH239612   3.954   6.434   8.155  0.2551 -0.2301  0.1254
 6018TIP3    H139613   3.950   6.346   8.117  0.8129 -0.6585  1.0217
 6018TIP3    H239614   4.032   6.474   8.115 -0.4675  0.1807 -0.9164
 6019TIP3   OH239615   6.168   2.431   0.136 -0.1863 -0.4616  0.7704
 6019TIP3    H139616   6.203   2.391   0.216 -0.8750 -1.7292  0.4583
 6019TIP3    H239617   6.095   2.485   0.167 -0.7963 -1.3783  0.9434
 6020TIP3   OH239618   0.643   4.952   0.926 -0.0467  0.2789  0.6910
 6020TIP3    H139619   0.592   4.895   0.983  0.2644 -1.3572 -0.5869
 6020TIP3    H239620   0.677   4.894   0.858 -0.5159  2.1608 -1.2602
 6021TIP3   OH239621   1.824   1.024   7.719 -0.0599 -0.2101 -0.6423
 6021TIP3    H139622   1.729   1.027   7.716 -0.2150 -2.9994 -1.4806
 6021TIP3    H239623   1.848   1.070   7.799 -2.1642 -0.1257 -0.0158
 6022TIP3   OH239624   3.003   4.011   0.055 -0.1815 -0.2230  0.4526
 6022TIP3    H139625   3.055   3.931   0.046  0.9246  0.3263  1.7263
 6022TIP3    H239626   2.954   4.016  -0.027  1.9676 -0.6186 -0.9395
 6023TIP3   OH239627   2.201   1.170   8.302 -0.3124 -0.0143 -0.2920
 6023TIP3    H139628   2.191   1.233   8.231 -0.2905 -0.1985 -0.4602
 6023TIP3    H239629   2.204   1.085   8.258  0.7506 -0.0568 -0.1539
 6024TIP3   OH239630   3.310   1.328   8.102  0.0019 -0.5167 -0.0645
 6024TIP3    H139631   3.350   1.243   8.120  1.1193  0.2482  1.2712
 6024TIP3    H239632   3.383   1.388   8.092 -0.7676  0.5942  0.6746
 6025TIP3   OH239633   4.805   2.377   8.051  0.0763 -0.1549  0.3284
 6025TIP3    H139634   4.839   2.460   8.018  1.4532 -0.6658  0.4085
 6025TIP3    H239635   4.823   2.314   7.982 -1.2816 -0.3574  0.1170
 6026TIP3   OH239636   4.300   1.369   1.120  0.3054 -0.3802 -0.0504
 6026TIP3    H139637   4.235   1.439   1.123 -0.8430 -1.4221 -0.0303
 6026TIP3    H239638   4.330   1.361   1.211 -1.6600 -1.7958  0.5371
 6027TIP3   OH239639   2.267   1.969   1.300  0.1436  0.8357 -0.0428
 6027TIP3    H139640   2.244   2.049   1.252  0.2265  1.3657  0.7655
 6027TIP3    H239641   2.194   1.957   1.361  0.2486  0.4255 -0.0000
 6028TIP3   OH239642   1.194   4.703   8.321  0.3410  0.0649  0.4963
 6028TIP3    H139643   1.282   4.668   8.302 -0.2276 -0.0741 -2.1660
 6028TIP3    H239644   1.135   4.632   8.297 -0.5805  0.8837  0.3107
 6029TIP3   OH239645   3.938   4.762   6.956 -0.1996  0.1704  0.1876
 6029TIP3    H139646   3.949   4.685   7.012 -0.8747  1.5627  2.3799
 6029TIP3    H239647   4.027   4.791   6.937  0.0720  0.1178  1.2698
 6030TIP3   OH239648   4.522   0.606   1.214 -0.0029  0.5686 -0.4451
 6030TIP3    H139649   4.596   0.657   1.249 -0.3734  0.6558  0.2408
 6030TIP3    H239650   4.556   0.517   1.207 -0.0428  0.4529  0.5947
 6031TIP3   OH239651   4.028   3.262   0.238  0.0871  0.5021  0.0485
 6031TIP3    H139652   4.085   3.188   0.218 -1.2118 -0.1487 -1.4396
 6031TIP3    H239653   4.003   3.248   0.329  0.3823 -0.5392 -0.0091
 6032TIP3   OH239654   1.194   2.256   0.872 -0.0543 -0.1966 -0.1679
 6032TIP3    H139655   1.145   2.331   0.837 -0.1238  0.0177  0.3785
 6032TIP3    H239656   1.159   2.244   0.961 -3.2834 -3.6912 -1.6474
 6033TIP3   OH239657   5.602   3.600   8.032  0.3076 -0.0227 -0.6295
 6033TIP3    H139658   5.619   3.600   7.938  0.1886  0.4985 -0.6540
 6033TIP3    H239659   5.606   3.692   8.058  3.0442 -0.3296  0.3858
 6034TIP3   OH239660   5.425   1.327   7.777 -0.3322 -0.1216  0.9029
 6034TIP3    H139661   5.437   1.232   7.777 -1.9534 -0.4158 -1.5311
 6034TIP3    H239662   5.510   1.362   7.749  0.4307 -0.7685  2.3146
 6035TIP3   OH239663   3.323   3.619   1.479  0.3026  0.6477  0.3693
 6035TIP3    H139664   3.311   3.606   1.573 -0.2701  0.7082  0.3090
 6035TIP3    H239665   3.418   3.624   1.467  0.7911 -4.0782  0.3141
 6036TIP3   OH239666   0.889   0.757   6.699 -0.4059  0.2625 -0.9841
 6036TIP3    H139667   0.901   0.685   6.760  1.2861  1.7533  0.5843
 6036TIP3    H239668   0.872   0.715   6.615 -0.5880 -1.9042  0.0650
 6037TIP3   OH239669   1.507   1.416   7.068 -0.1278 -0.1155  0.3068
 6037TIP3    H139670   1.584   1.414   7.011 -0.5518  0.6614 -0.3156
 6037TIP3    H239671   1.458   1.337   7.046  0.5970 -0.7396  0.8770
 6038TIP3   OH239672   2.758   6.555   8.350 -0.3809  0.2307  0.1481
 6038TIP3    H139673   2.712   6.522   8.273  0.7233  1.8052 -1.2517
 6038TIP3    H239674   2.847   6.573   8.320 -0.0889  1.4829  1.6047
 6039TIP3   OH239675   4.154   4.422   7.609 -0.1902 -0.3482 -0.0444
 6039TIP3    H139676   4.194   4.460   7.687  0.1719  2.7200 -1.5670
 6039TIP3    H239677   4.223   4.424   7.543 -2.2529  4.2433 -2.4831
 6040TIP3   OH239678   0.843   1.033   1.498  0.0755 -0.2234  0.3663
 6040TIP3    H139679   0.917   1.010   1.442  1.2348  0.3923  1.5870
 6040TIP3    H239680   0.806   1.111   1.458 -1.5065 -1.8704 -1.6337
 6041TIP3   OH239681   0.462   5.745   6.609 -0.0316  0.1962  0.2793
 6041TIP3    H139682   0.476   5.705   6.523 -1.3052 -0.6926  0.4606
 6041TIP3    H239683   0.387   5.699   6.645  0.4931  0.5420  1.8969
 6042TIP3   OH239684   1.311   6.415   7.374 -1.0973 -0.3856 -0.2365
 6042TIP3    H139685   1.393   6.389   7.331 -1.3979 -1.3731 -0.2426
 6042TIP3    H239686   1.333   6.415   7.468 -0.5439  1.4023 -0.3271
 6043TIP3   OH239687   1.697   5.314   1.778  0.0279 -0.1805 -0.8421
 6043TIP3    H139688   1.612   5.323   1.736  0.4762  2.5605 -1.3282
 6043TIP3    H239689   1.692   5.229   1.823 -2.2126 -0.9879 -2.4168
 6044TIP3   OH239690   3.785   4.849   6.737  0.0438  0.5495  0.1113
 6044TIP3    H139691   3.837   4.826   6.814  1.6353  0.6852 -0.8734
 6044TIP3    H239692   3.708   4.792   6.742  0.5833 -0.1103  1.2924
 6045TIP3   OH239693   5.338   2.406   6.907  0.0552 -0.2364 -0.1614
 6045TIP3    H139694   5.431   2.396   6.885  0.0899  0.0124 -0.1377
 6045TIP3    H239695   5.302   2.317   6.903 -0.0161 -0.1650 -1.5680
 6046TIP3   OH239696   5.375   0.734   0.922  0.2429 -0.5799  0.0156
 6046TIP3    H139697   5.325   0.768   0.848  0.4937  2.2867  1.0149
 6046TIP3    H239698   5.309   0.708   0.986  0.0365 -1.0894 -0.4001
 6047TIP3   OH239699   4.417   6.388   8.114 -0.0148 -0.3812  0.0659
 6047TIP3    H139700   4.506   6.390   8.079 -0.0564 -1.1774 -0.0956
 6047TIP3    H239701   4.420   6.445   8.191  0.9436 -1.3640  0.7851
 6048TIP3   OH239702   5.947   0.064   7.182 -0.1748  0.7267 -0.0009
 6048TIP3    H139703   5.942   0.130   7.112 -1.6285 -0.7101 -1.3327
 6048TIP3    H239704   5.858   0.058   7.216 -0.0555 -0.5108  0.1319
 6049TIP3   OH239705   5.498   6.400   7.956  0.1396  0.4579 -0.3232
 6049TIP3    H139706   5.469   6.310   7.966  0.9564  0.2881  0.6468
 6049TIP3    H239707   5.440   6.451   8.013 -0.1185  0.5035 -0.6265
 6050TIP3   OH239708   0.422   4.217   7.751  0.3616  0.0027  0.4297
 6050TIP3    H139709   0.480   4.173   7.813  0.0596  0.6739  1.2134
 6050TIP3    H239710   0.390   4.293   7.799  1.1405  1.2753 -1.0085
 6051TIP3   OH239711   6.116   5.994   7.023  0.3942  0.0384  0.0185
 6051TIP3    H139712   6.042   6.054   7.030  0.1616  0.0042 -1.6408
 6051TIP3    H239713   6.092   5.919   7.077 -0.4969  0.3088  0.0067
 6052TIP3   OH239714   6.812   2.724   7.861 -0.4596 -0.4008  0.3399
 6052TIP3    H139715   6.836   2.708   7.769 -0.7403 -0.5039  0.2838
 6052TIP3    H239716   6.894   2.717   7.909 -0.5036 -1.6169  0.2623
 6053TIP3   OH239717   6.174   5.840   7.808 -0.1974  0.1124  0.4324
 6053TIP3    H139718   6.194   5.911   7.868  0.4199  1.6247 -1.4349
 6053TIP3    H239719   6.107   5.877   7.750  1.2889 -0.1780 -1.5742
 6054TIP3   OH239720   5.895   1.609   0.527 -0.2547  0.4235  0.1864
 6054TIP3    H139721   5.836   1.553   0.478  1.1820  0.4239 -1.6516
 6054TIP3    H239722   5.934   1.551   0.593  1.3858 -0.9066 -1.8321
 6055TIP3   OH239723   4.124   5.490   1.617 -0.6700  0.3835  0.0599
 6055TIP3    H139724   4.172   5.407   1.608 -1.0680  0.1651 -0.0606
 6055TIP3    H239725   4.094   5.490   1.708 -0.9272  0.2564 -0.0259
 6056TIP3   OH239726   1.627   3.498   7.412  0.5120 -0.1020 -0.1513
 6056TIP3    H139727   1.560   3.566   7.418  1.9855  1.2755  2.6098
 6056TIP3    H239728   1.702   3.542   7.372  0.9663 -0.5728  0.1813
 6057TIP3   OH239729   1.600   4.291   1.553 -0.4373 -0.4865 -0.2804
 6057TIP3    H139730   1.675   4.240   1.584 -0.5455 -1.0979 -0.9944
 6057TIP3    H239731   1.568   4.336   1.631 -1.3877 -2.8307  0.7926
 6058TIP3   OH239732   1.954   2.059   0.827 -0.2314  0.0156  0.8941
 6058TIP3    H139733   1.939   2.047   0.733  0.8730  1.5187  0.4723
 6058TIP3    H239734   2.044   2.093   0.832  0.4091 -1.7903  2.6648
 6059TIP3   OH239735   2.884   1.717   8.375 -0.8311 -0.0693  0.2298
 6059TIP3    H139736   2.909   1.632   8.412 -1.2697  0.1988  1.1745
 6059TIP3    H239737   2.828   1.756   8.442  0.5922  1.6115  0.4923
 6060TIP3   OH239738   1.595   5.725   2.174  0.4180 -0.5192  0.1303
 6060TIP3    H139739   1.660   5.783   2.214 -0.9762 -1.1656  3.7019
 6060TIP3    H239740   1.511   5.766   2.195 -0.4906 -1.0872 -2.0824
 6061TIP3   OH239741   6.757   0.396   8.001 -0.5339  0.5291  0.0253
 6061TIP3    H139742   6.739   0.358   7.916 -0.5630  0.6549 -0.0244
 6061TIP3    H239743   6.803   0.478   7.982  0.1559  0.1813  0.1482
 6062TIP3   OH239744   3.868   3.558   1.384 -0.5381  0.0204  0.2917
 6062TIP3    H139745   3.867   3.622   1.313 -0.2073  0.7068  0.8891
 6062TIP3    H239746   3.897   3.608   1.460 -1.6025 -0.5358  1.0773
 6063TIP3   OH239747   2.752   3.008   1.781  0.1808  0.5968 -0.0409
 6063TIP3    H139748   2.801   2.930   1.755 -0.1382  0.1388  0.6950
 6063TIP3    H239749   2.796   3.039   1.860 -0.2614  0.6192  0.2011
 6064TIP3   OH239750   0.989   4.998   1.372 -0.5774  0.2291 -0.3878
 6064TIP3    H139751   1.012   5.087   1.397 -0.0960 -0.0286  0.1105
 6064TIP3    H239752   0.987   4.949   1.455  0.1920 -0.4510 -0.7594
 6065TIP3   OH239753   3.962   1.692   0.890 -0.5885  0.1326  0.4770
 6065TIP3    H139754   3.997   1.751   0.957 -0.4943  1.4120 -0.6348
 6065TIP3    H239755   3.892   1.743   0.848 -0.2213 -0.3733 -0.8043
 6066TIP3   OH239756   0.746   0.479   1.740 -0.5227  0.6386  0.3182
 6066TIP3    H139757   0.651   0.468   1.748 -0.6472  1.9979  0.8767
 6066TIP3    H239758   0.767   0.552   1.799  0.9762 -0.1082  0.7584
 6067TIP3   OH239759   3.537   1.839   0.755 -0.8272  0.1646 -0.2511
 6067TIP3    H139760   3.627   1.854   0.783 -1.0417  1.9435 -0.3914
 6067TIP3    H239761   3.543   1.768   0.691  0.1726 -1.1814  1.2790
 6068TIP3   OH239762   5.539   0.931   1.053  0.2483 -0.3601 -0.0426
 6068TIP3    H139763   5.530   0.897   1.142 -1.3985  0.1102  0.0019
 6068TIP3    H239764   5.480   0.878   1.001 -0.1464  0.5240 -0.5136
 6069TIP3   OH239765   2.905   1.971   2.370  0.2302 -0.3943 -0.2571
 6069TIP3    H139766   2.907   1.887   2.416 -1.3394 -1.0560 -1.3091
 6069TIP3    H239767   2.959   1.956   2.292  0.4920 -0.2041 -0.1145
 6070TIP3   OH239768   3.087   6.450   1.768 -0.6714 -0.6310  0.9677
 6070TIP3    H139769   3.066   6.388   1.698  1.4080  0.2971 -0.5907
 6070TIP3    H239770   3.169   6.418   1.804  1.9935  2.4641 -1.7173
 6071TIP3   OH239771   5.615   6.846   6.387  0.0041 -0.3033  0.5952
 6071TIP3    H139772   5.591   6.928   6.344 -1.9615 -1.0711  0.1255
 6071TIP3    H239773   5.553   6.837   6.459  0.0907 -1.4441  0.5556
 6072TIP3   OH239774   3.464   3.812   8.142 -0.4104 -0.6266  0.4035
 6072TIP3    H139775   3.393   3.753   8.117 -0.4524 -0.6432  0.5641
 6072TIP3    H239776   3.526   3.757   8.189  0.4725 -0.9584 -1.0761
 6073TIP3   OH239777   1.154   4.170   2.236  0.2220  0.3907 -0.3197
 6073TIP3    H139778   1.212   4.152   2.310 -0.3460  0.2476  0.0969
 6073TIP3    H239779   1.134   4.263   2.243 -1.6477 -0.0708  1.0583
 6074TIP3   OH239780   5.381   6.893   8.042  0.1465  0.2561  0.7013
 6074TIP3    H139781   5.370   6.964   7.979  1.6886 -0.9003 -0.9422
 6074TIP3    H239782   5.445   6.926   8.105 -0.3799  0.9064  0.9096
 6075TIP3   OH239783   4.566   5.978   7.283  0.0146  0.2296  0.4105
 6075TIP3    H139784   4.617   6.014   7.355  1.4351  0.0038 -0.4249
 6075TIP3    H239785   4.542   6.054   7.231  0.4082  0.2631  0.2673
 6076TIP3   OH239786   4.085   5.669   7.599  0.1825 -0.3120  0.0118
 6076TIP3    H139787   4.098   5.583   7.560  2.1796  0.2683 -0.7441
 6076TIP3    H239788   4.156   5.722   7.563 -0.5739  1.4592  1.0183
 6077TIP3   OH239789   0.709   6.614   0.062 -0.1650 -0.4743  0.4072
 6077TIP3    H139790   0.690   6.555   0.135  0.6110 -0.1218  0.9213
 6077TIP3    H239791   0.771   6.566   0.007  1.9433  0.4883  1.8064
 6078TIP3   OH239792   6.368   3.654   8.104  0.0033  0.3663  0.0907
 6078TIP3    H139793   6.439   3.709   8.072 -0.3706 -0.5039 -2.5115
 6078TIP3    H239794   6.290   3.708   8.094 -0.0922  0.1552 -0.3390
 6079TIP3   OH239795   1.824   1.751   0.755 -0.3967 -0.1078  0.0377
 6079TIP3    H139796   1.832   1.844   0.772  0.3826 -0.7273  4.2235
 6079TIP3    H239797   1.730   1.737   0.743 -0.8911  0.9659  2.1401
 6080TIP3   OH239798   1.891   3.928   2.110  0.5815 -0.9087  0.0272
 6080TIP3    H139799   1.957   3.859   2.117  0.8386 -0.8092 -1.1981
 6080TIP3    H239800   1.892   3.952   2.018  0.7202  0.9556  0.4831
 6081TIP3   OH239801   5.382   3.893   0.353  0.0292  0.3478 -0.4736
 6081TIP3    H139802   5.461   3.929   0.312 -1.1229  0.8439 -2.3811
 6081TIP3    H239803   5.349   3.963   0.409  1.0119  0.0774  0.4657
 6082TIP3   OH239804   0.280   0.249   8.494 -0.0600 -0.2240 -0.3438
 6082TIP3    H139805   0.263   0.343   8.492 -1.6355 -0.4689 -0.0199
 6082TIP3    H239806   0.324   0.231   8.412  0.1207  0.7737 -0.4792
 6083TIP3   OH239807   0.640   0.934   1.195 -0.1639 -0.2895  0.0391
 6083TIP3    H139808   0.705   0.993   1.157 -1.7381  0.3285 -1.9133
 6083TIP3    H239809   0.569   0.992   1.223 -0.5619 -1.0495  0.6328
 6084TIP3   OH239810   1.995   5.036   0.206 -0.1854  0.2011  0.7387
 6084TIP3    H139811   2.046   5.004   0.131  1.1686 -0.0968  1.7603
 6084TIP3    H239812   1.940   5.106   0.169 -1.3818 -1.5474 -1.0387
 6085TIP3   OH239813   4.712   0.292   0.420 -0.2358  0.5176  0.3442
 6085TIP3    H139814   4.625   0.270   0.385 -0.4722  1.1821  0.4950
 6085TIP3    H239815   4.723   0.234   0.495 -0.5454  0.4212  0.3169
 6086TIP3   OH239816   0.449   5.982   0.524 -0.4801  0.1178  0.5627
 6086TIP3    H139817   0.535   5.965   0.563  0.3180  0.4947 -0.9747
 6086TIP3    H239818   0.404   6.038   0.589  1.3705  1.9924  0.3408
 6087TIP3   OH239819   0.290   2.819   2.204  0.2901  0.0934  0.4943
 6087TIP3    H139820   0.331   2.898   2.239 -0.2054 -0.3843  2.2621
 6087TIP3    H239821   0.197   2.828   2.227 -0.9566  1.5113 -4.0382
 6088TIP3   OH239822   4.514   6.408   0.055  0.1302 -0.5726  0.1749
 6088TIP3    H139823   4.452   6.337   0.070 -1.1322  0.3397 -0.4380
 6088TIP3    H239824   4.578   6.372  -0.006  1.3238 -2.1112  2.2159
 6089TIP3   OH239825   0.701   0.072   1.684 -0.1956 -0.2044  0.1089
 6089TIP3    H139826   0.617   0.089   1.727 -0.6441 -0.5033 -0.6286
 6089TIP3    H239827   0.734  -0.007   1.727 -1.3849 -1.4202 -1.1116
 6090TIP3   OH239828   6.453   4.859   8.481 -0.2539  0.0145  0.3566
 6090TIP3    H139829   6.463   4.954   8.492  1.6313 -0.2850  1.5733
 6090TIP3    H239830   6.362   4.842   8.506 -1.1935  1.6730 -1.5774
 6091TIP3   OH239831   3.547   5.645   1.553 -0.6233  0.3875 -0.1053
 6091TIP3    H139832   3.570   5.672   1.464  0.7329 -0.1825  0.0452
 6091TIP3    H239833   3.547   5.726   1.604 -2.5528  0.8950 -0.8052
 6092TIP3   OH239834   4.328   3.265   0.376  0.9066  0.5746  0.5951
 6092TIP3    H139835   4.340   3.305   0.290  2.7990 -0.1328  0.4653
 6092TIP3    H239836   4.271   3.325   0.424 -2.3503 -0.2488 -1.9093
 6093TIP3   OH239837   3.014   0.672   1.590 -0.4689 -0.0849 -0.1135
 6093TIP3    H139838   2.933   0.720   1.570 -1.2711 -1.6169 -0.7493
 6093TIP3    H239839   3.062   0.671   1.507  0.6388  1.5526  0.4744
 6094TIP3   OH239840   1.900   6.194   8.287  0.3626 -0.2193  0.2016
 6094TIP3    H139841   1.908   6.287   8.311 -2.4752 -0.1400  1.1909
 6094TIP3    H239842   1.898   6.194   8.192 -0.5677  0.8681  0.2018
 6095TIP3   OH239843   0.595   0.755   1.958 -0.5094 -0.1107 -0.2618
 6095TIP3    H139844   0.624   0.845   1.975 -0.4465 -0.4440  1.5301
 6095TIP3    H239845   0.513   0.747   2.005 -1.1924 -0.6146 -1.5066
 6096TIP3   OH239846   2.855   6.787   7.976  0.5315  0.1847 -0.6509
 6096TIP3    H139847   2.859   6.859   7.912  0.0531 -0.3771 -1.3354
 6096TIP3    H239848   2.920   6.809   8.042 -0.0244  1.5549 -0.5259
 6097TIP3   OH239849   4.271   6.217   8.283  0.1813  0.2609  0.2814
 6097TIP3    H139850   4.302   6.248   8.198  0.7240  0.3921  0.5228
 6097TIP3    H239851   4.309   6.278   8.346  0.9593 -0.6525  0.7305
 6098TIP3   OH239852   4.901   2.062   0.784  0.7084  0.3943 -0.0706
 6098TIP3    H139853   4.812   2.090   0.806  0.3909  0.6541 -1.5468
 6098TIP3    H239854   4.928   2.009   0.858 -1.3228 -1.0986 -0.3044
 6099TIP3   OH239855   3.619   6.044   1.947 -0.9968 -0.3797  0.0243
 6099TIP3    H139856   3.608   6.079   1.858 -0.1910  1.1399  0.4835
 6099TIP3    H239857   3.714   6.044   1.961 -1.1503  0.3167  1.2218
 6100TIP3   OH239858   6.751   4.534   7.509 -0.0951  0.5268 -0.5460
 6100TIP3    H139859   6.794   4.566   7.588  1.8696  0.1112 -1.3899
 6100TIP3    H239860   6.772   4.598   7.441 -2.1732  1.1420 -0.6732
 6101TIP3   OH239861   2.039   0.970   1.380  0.4039 -0.1334 -0.2036
 6101TIP3    H139862   2.070   0.997   1.467  0.8403 -1.8669  0.2217
 6101TIP3    H239863   1.944   0.971   1.388  0.4415 -0.7084  0.4500
 6102TIP3   OH239864   6.112   3.747   7.958 -0.7372 -0.4953  0.2686
 6102TIP3    H139865   6.065   3.784   7.883 -0.5601  0.9002  0.8085
 6102TIP3    H239866   6.133   3.823   8.013 -0.3940 -1.4200  1.4691
 6103TIP3   OH239867   2.266   2.380   6.230  0.0869 -0.2123  0.5240
 6103TIP3    H139868   2.210   2.442   6.277 -0.5917  0.8807 -1.5938
 6103TIP3    H239869   2.355   2.413   6.245 -0.3208  1.9461 -1.3501
 6104TIP3   OH239870   0.962   6.702   1.235 -0.8051  0.4704  0.2174
 6104TIP3    H139871   1.045   6.701   1.282 -0.9353 -1.7535  0.4980
 6104TIP3    H239872   0.911   6.770   1.278  0.0895  0.3910  1.4580
 6105TIP3   OH239873   1.205   4.048   1.583  0.1148 -0.3681  0.4627
 6105TIP3    H139874   1.132   4.084   1.632  0.1749 -0.6289  0.7463
 6105TIP3    H239875   1.180   3.957   1.565 -0.6648  0.1830 -1.4738
 6106TIP3   OH239876   4.603   6.667   8.032 -0.2435 -0.2641  0.0768
 6106TIP3    H139877   4.679   6.687   7.977 -0.4935  0.3572 -0.0452
 6106TIP3    H239878   4.533   6.720   7.996 -0.6841 -0.6708  0.3290
 6107TIP3   OH239879   4.429   5.879   8.479 -0.4486 -0.0825 -0.1877
 6107TIP3    H139880   4.405   5.888   8.387  0.0613  0.2390 -0.2931
 6107TIP3    H239881   4.436   5.785   8.493  1.1443 -0.1045 -0.9238
 6108TIP3   OH239882   6.558   0.252   7.511  0.0797 -0.0153  0.0545
 6108TIP3    H139883   6.521   0.214   7.431 -0.4710  1.5058 -0.4512
 6108TIP3    H239884   6.482   0.276   7.563  0.3680  1.1839 -0.0450
 6109TIP3   OH239885   5.197   4.369   8.208  0.1473  0.3119  0.1187
 6109TIP3    H139886   5.133   4.398   8.143  0.8585 -1.2151 -1.3671
 6109TIP3    H239887   5.210   4.276   8.189 -0.5636 -0.5678  3.3425
 6110TIP3   OH239888   1.192   6.090   7.227  0.1240  0.6354  0.2896
 6110TIP3    H139889   1.177   6.183   7.210  0.2668  0.5091 -0.5556
 6110TIP3    H239890   1.287   6.080   7.222  0.0130  0.1364 -1.3426
 6111TIP3   OH239891   4.926   6.377   8.436 -0.0026  0.3831  0.4448
 6111TIP3    H139892   5.001   6.409   8.385  0.3210 -0.1827  0.5533
 6111TIP3    H239893   4.863   6.349   8.370  0.1835  0.1813  0.3500
 6112TIP3   OH239894   1.655   3.694   0.511  0.0879 -0.5053 -0.1736
 6112TIP3    H139895   1.595   3.719   0.582  0.5363  0.4822 -0.1346
 6112TIP3    H239896   1.597   3.676   0.437 -0.3515 -1.0554  0.2821
 6113TIP3   OH239897   1.267   3.617   8.131  0.2403  0.1543 -0.1659
 6113TIP3    H139898   1.289   3.615   8.038 -0.8224 -1.0858 -0.4146
 6113TIP3    H239899   1.235   3.707   8.146  0.8367  0.4943 -0.8827
 6114TIP3   OH239900   0.347   4.059   1.599 -0.1275  0.0016  0.2152
 6114TIP3    H139901   0.350   4.115   1.676 -1.8590  1.1470 -0.4768
 6114TIP3    H239902   0.293   3.984   1.625  1.4522 -0.9609  0.8670
 6115TIP3   OH239903   0.535   2.211   6.986 -0.1739 -0.1382  0.3433
 6115TIP3    H139904   0.554   2.117   6.997  0.8823  0.1063  0.6714
 6115TIP3    H239905   0.574   2.253   7.062 -1.8096  0.4513  0.9061
 6116TIP3   OH239906   2.720   2.572   6.652 -0.2684  0.0848 -0.4873
 6116TIP3    H139907   2.787   2.531   6.598 -1.2168 -1.2229 -0.7208
 6116TIP3    H239908   2.652   2.505   6.662 -0.8624  0.8406  0.9939
 6117TIP3   OH239909   2.322   1.613   7.322  0.5876  0.3900  0.0204
 6117TIP3    H139910   2.296   1.570   7.404 -0.3861 -0.4642 -0.7026
 6117TIP3    H239911   2.414   1.589   7.311  0.1736 -1.2804 -0.1792
 6118TIP3   OH239912   2.668   6.653   1.668 -0.1350 -0.2960  0.1777
 6118TIP3    H139913   2.698   6.653   1.759 -1.3875 -0.2498  0.6162
 6118TIP3    H239914   2.709   6.576   1.628 -1.2484 -1.5607  1.3782
 6119TIP3   OH239915   6.843   0.343   1.438  0.2517 -0.4852 -0.4527
 6119TIP3    H139916   6.915   0.285   1.412 -0.2619 -1.6938  0.6468
 6119TIP3    H239917   6.766   0.307   1.393 -0.1147 -0.8460  0.4307
 6120TIP3   OH239918   6.430   2.311   0.605  0.0075 -0.2502  0.7655
 6120TIP3    H139919   6.460   2.364   0.679  0.7316 -0.7905  0.8777
 6120TIP3    H239920   6.509   2.267   0.575  0.1006  1.2923 -1.4557
 6121TIP3   OH239921   3.970   4.903   0.096  0.4702  0.0634 -0.0848
 6121TIP3    H139922   4.001   4.956   0.170  0.3727  0.0866 -0.0605
 6121TIP3    H239923   3.878   4.927   0.086 -0.0244 -1.2565  0.9455
 6122TIP3   OH239924   2.578   1.529   8.581  0.0934  0.3238 -0.8386
 6122TIP3    H139925   2.587   1.435   8.562 -1.9029  0.2079 -1.4869
 6122TIP3    H239926   2.485   1.548   8.563  0.2188  2.2116  0.2547
 6123TIP3   OH239927   1.733   5.767   8.578 -0.0804 -0.0549 -0.5050
 6123TIP3    H139928   1.767   5.793   8.492  1.6636 -1.0533 -0.1723
 6123TIP3    H239929   1.638   5.769   8.567  0.0772  0.6702 -2.1962
 6124TIP3   OH239930   3.285   4.836   8.494 -0.5576 -0.1185  0.0629
 6124TIP3    H139931   3.220   4.798   8.554 -1.5746 -0.4549 -1.2085
 6124TIP3    H239932   3.243   4.915   8.460 -0.4539 -0.5218 -1.0325
 6125TIP3   OH239933   3.748   0.394   8.364 -0.3501  0.2009 -0.2882
 6125TIP3    H139934   3.786   0.398   8.276 -0.9151 -0.6312 -0.5876
 6125TIP3    H239935   3.800   0.327   8.410  0.1536  0.8634  0.1312
 6126TIP3   OH239936   6.412   2.888   7.827 -0.3863  0.3791  0.0208
 6126TIP3    H139937   6.401   2.923   7.738 -0.5952 -0.8252 -0.4525
 6126TIP3    H239938   6.330   2.911   7.872 -0.3056  0.9409 -0.1188
 6127TIP3   OH239939   3.616   6.765   0.591  0.6494  0.5087 -0.5288
 6127TIP3    H139940   3.576   6.839   0.545  0.2017 -0.9482 -2.6679
 6127TIP3    H239941   3.709   6.789   0.599  0.4694  1.4045 -0.9780
 6128TIP3   OH239942   6.063   0.433   0.602 -0.3949  0.1147 -0.6269
 6128TIP3    H139943   5.974   0.398   0.604 -0.0148 -0.9591 -1.4088
 6128TIP3    H239944   6.057   0.513   0.550 -0.9446  0.1648 -0.4875
 6129TIP3   OH239945   4.412   2.363   6.917  0.2629  0.0978  0.6534
 6129TIP3    H139946   4.408   2.295   6.849  0.4137  0.8125 -0.0966
 6129TIP3    H239947   4.411   2.445   6.868 -2.2406  0.7291  1.6153
 6130TIP3   OH239948   3.323   1.804   8.263 -0.0142 -0.0046 -0.9128
 6130TIP3    H139949   3.237   1.842   8.284  0.5242  0.5626  0.3888
 6130TIP3    H239950   3.315   1.712   8.285 -0.2156  0.1002 -0.5414
 6131TIP3   OH239951   5.757   4.571   1.725 -0.3049  0.7803 -0.2627
 6131TIP3    H139952   5.768   4.477   1.710 -2.8040  0.2222  0.8874
 6131TIP3    H239953   5.829   4.594   1.784 -1.7539 -1.3715  2.6424
 6132TIP3   OH239954   5.344   3.821   7.342  0.0563  0.1005  0.3545
 6132TIP3    H139955   5.408   3.868   7.288 -2.1920  3.2768  0.1967
 6132TIP3    H239956   5.292   3.771   7.279 -0.0092  0.5875  0.0153
 6133TIP3   OH239957   4.921   0.134   1.805  0.1028  0.1877  0.0636
 6133TIP3    H139958   5.015   0.120   1.807  0.3289  0.9556 -2.1809
 6133TIP3    H239959   4.901   0.176   1.889  1.7920  0.2605  0.4673
 6134TIP3   OH239960   6.798   1.219   0.283 -0.1111  0.1983  0.2365
 6134TIP3    H139961   6.849   1.245   0.206 -0.4027 -1.9133 -0.7509
 6134TIP3    H239962   6.825   1.128   0.300 -1.9359 -0.2422  1.0381
 6135TIP3   OH239963   1.904   2.669   0.850 -0.0985  0.2203  0.2960
 6135TIP3    H139964   1.810   2.666   0.867  0.1491 -0.5311  1.6116
 6135TIP3    H239965   1.927   2.580   0.824  0.3066  0.3222  0.2927
 6136TIP3   OH239966   3.152   5.993   1.546  0.4938 -0.0081 -0.0425
 6136TIP3    H139967   3.058   5.981   1.564  0.2223  0.8147 -0.8159
 6136TIP3    H239968   3.181   5.908   1.514  0.4900 -0.8558  2.0696
 6137TIP3   OH239969   0.817   2.648   1.906 -0.0058 -0.0415 -0.0189
 6137TIP3    H139970   0.780   2.603   1.982 -0.1839 -1.0827 -0.7037
 6137TIP3    H239971   0.813   2.584   1.835  0.9816  0.6020 -0.6958
 6138TIP3   OH239972   6.566   3.955   7.048 -0.1173 -0.1879 -0.4985
 6138TIP3    H139973   6.492   3.914   7.003 -0.0768  0.2279 -0.9538
 6138TIP3    H239974   6.542   3.952   7.141 -0.9076  0.3236 -0.6781
 6139TIP3   OH239975   2.482   1.700   1.121  0.2127  0.0623 -0.6192
 6139TIP3    H139976   2.539   1.735   1.189 -1.4157 -0.2111  0.9800
 6139TIP3    H239977   2.413   1.654   1.169 -0.5452 -0.8856 -2.4998
 6140TIP3   OH239978   5.719   1.100   0.639  0.7850 -0.3879 -0.5556
 6140TIP3    H139979   5.782   1.140   0.578  2.1708 -0.4954  0.7617
 6140TIP3    H239980   5.755   1.117   0.726 -1.1573 -0.2394  0.2733
 6141TIP3   OH239981   4.582   5.221   7.676  0.4135 -0.0715 -0.3246
 6141TIP3    H139982   4.661   5.275   7.663 -0.3104  0.8084 -1.2045
 6141TIP3    H239983   4.572   5.216   7.771  0.5597  1.2707 -0.2170
 6142TIP3   OH239984   1.551   0.979   8.349 -0.5446  0.5077  0.2897
 6142TIP3    H139985   1.526   1.022   8.431 -1.0504  0.5767  0.1059
 6142TIP3    H239986   1.630   1.024   8.322  0.2332 -0.2211  1.2834
 6143TIP3   OH239987   3.523   0.435   6.392  0.1498 -0.6191  0.6875
 6143TIP3    H139988   3.593   0.421   6.329  0.3478 -0.3400  0.8439
 6143TIP3    H239989   3.520   0.354   6.444 -0.7828 -1.3259 -0.4090
 6144TIP3   OH239990   0.181   0.117   1.038 -0.2816  0.4512  0.0287
 6144TIP3    H139991   0.149   0.176   0.970 -1.3776  0.1023  0.2127
 6144TIP3    H239992   0.130   0.037   1.026 -1.8670  1.0069  2.3854
 6145TIP3   OH239993   5.541   2.462   7.837  0.2821  0.2331  0.2327
 6145TIP3    H139994   5.528   2.374   7.872 -0.6378  0.0674 -0.5075
 6145TIP3    H239995   5.618   2.454   7.781 -0.2705 -0.2943 -0.4641
 6146TIP3   OH239996   3.699   4.431   8.067 -0.0967 -0.0683 -0.9382
 6146TIP3    H139997   3.789   4.408   8.089  0.2733  1.6965 -0.4429
 6146TIP3    H239998   3.647   4.357   8.099  1.2018 -1.3386 -1.6809
 6147TIP3   OH239999   6.129   6.756   1.932 -0.6718 -0.4530  0.1993
 6147TIP3    H140000   6.219   6.764   1.963 -0.1784  1.4745 -1.4629
 6147TIP3    H240001   6.079   6.815   1.989 -0.7949 -1.1396  0.8054
 6148TIP3   OH240002   5.017   0.362   7.026  0.6376  0.5698 -0.1554
 6148TIP3    H140003   5.036   0.355   6.933 -0.9405  1.3538 -0.5551
 6148TIP3    H240004   5.101   0.389   7.065  1.2169  0.6157 -1.3774
 6149TIP3   OH240005   4.875   3.546   0.359  0.2908 -0.1000 -0.2028
 6149TIP3    H140006   4.886   3.613   0.291 -0.9151 -1.0667 -1.4197
 6149TIP3    H240007   4.949   3.487   0.347  0.7804  0.4102  0.1943
 6150TIP3   OH240008   1.907   1.340   7.864  0.5413 -0.1758  0.7359
 6150TIP3    H140009   1.955   1.350   7.946 -0.0280 -1.8137  1.3058
 6150TIP3    H240010   1.863   1.255   7.872 -1.0756  0.4922 -0.4629
 6151TIP3   OH240011   6.888   3.324   7.501  0.3577 -0.3450  0.1611
 6151TIP3    H140012   6.946   3.373   7.443  1.2748  0.0704  1.4034
 6151TIP3    H240013   6.865   3.246   7.450  0.7227  0.2456 -0.9519
 6152TIP3   OH240014   5.557   2.316   0.869  0.0768  0.0525  0.1338
 6152TIP3    H140015   5.575   2.224   0.889  1.6162 -0.2170 -2.1132
 6152TIP3    H240016   5.503   2.313   0.790  3.0606  0.9774 -2.1211
 6153TIP3   OH240017   2.077   1.178   7.626  0.0989 -0.0594  0.1867
 6153TIP3    H140018   1.998   1.127   7.643  0.5321 -1.1235 -0.8272
 6153TIP3    H240019   2.046   1.251   7.572 -0.5709  0.9444  1.8723
 6154TIP3   OH240020   4.277   3.364   1.675  0.3385  0.4021 -0.6781
 6154TIP3    H140021   4.315   3.308   1.743  0.1355  0.9230 -0.1298
 6154TIP3    H240022   4.323   3.447   1.683 -0.9526  1.0735  0.0547
 6155TIP3   OH240023   6.468   3.776   6.683  0.3552 -0.2157 -0.1038
 6155TIP3    H140024   6.457   3.790   6.777  1.6047  0.8787 -0.0943
 6155TIP3    H240025   6.555   3.736   6.675  0.3537 -0.0919 -0.8192
 6156TIP3   OH240026   5.973   1.378   1.128  0.2935 -0.4129  0.6210
 6156TIP3    H140027   5.881   1.357   1.146  0.3136  1.3504  3.3619
 6156TIP3    H240028   5.970   1.446   1.061 -0.3213 -1.1136 -0.0751
 6157TIP3   OH240029   3.895   3.917   0.989  0.0494 -0.1004  0.1206
 6157TIP3    H140030   3.965   3.906   1.053  1.2353  0.4937 -1.0276
 6157TIP3    H240031   3.921   3.993   0.937 -1.5369  0.2437 -0.2391
 6158TIP3   OH240032   1.954   4.148   6.306 -0.0966  0.4189 -0.1020
 6158TIP3    H140033   1.956   4.054   6.326  0.4488  0.4741  0.1270
 6158TIP3    H240034   1.868   4.177   6.337  0.3518  0.3108  1.3410
 6159TIP3   OH240035   2.154   5.569   7.196  0.2746  0.6165 -0.2298
 6159TIP3    H140036   2.094   5.588   7.124  1.3756  1.7744 -0.8874
 6159TIP3    H240037   2.155   5.650   7.248  0.4239  0.2158  0.4021
 6160TIP3   OH240038   0.364   0.114   6.710 -0.4189 -0.6388  0.0018
 6160TIP3    H140039   0.381   0.204   6.681  1.0248 -0.7228  0.4880
 6160TIP3    H240040   0.269   0.108   6.715 -0.6410  2.0036  3.2827
 6161TIP3   OH240041   1.787   5.599   0.902  0.4757 -0.0447 -0.3390
 6161TIP3    H140042   1.815   5.515   0.867  0.9446 -0.3514  0.7527
 6161TIP3    H240043   1.867   5.650   0.911  0.6057 -0.5281  1.7428
 6162TIP3   OH240044   1.860   3.457   0.255 -0.2631 -0.0140  0.4116
 6162TIP3    H140045   1.874   3.423   0.167 -2.0605  0.6377 -0.1583
 6162TIP3    H240046   1.900   3.545   0.253 -1.5956  0.6038 -0.2477
 6163TIP3   OH240047   2.170   0.028   1.125 -0.1257 -0.4534  0.1724
 6163TIP3    H140048   2.255   0.017   1.082 -0.4922 -1.0192 -0.4306
 6163TIP3    H240049   2.178   0.110   1.173  0.6254 -0.2927 -0.2088
 6164TIP3   OH240050   2.717   0.231   0.348 -0.6176  0.1835  0.0755
 6164TIP3    H140051   2.726   0.302   0.284 -0.5125  0.1784  0.0838
 6164TIP3    H240052   2.672   0.161   0.300  2.4837 -1.1784 -1.1222
 6165TIP3   OH240053   3.031   3.587   8.389  0.2501 -0.5219  0.0477
 6165TIP3    H140054   3.104   3.546   8.435  1.2742 -0.0863 -1.1155
 6165TIP3    H240055   2.967   3.517   8.379  0.6327 -0.9994  0.8274
 6166TIP3   OH240056   5.950   5.156   2.329 -0.6801 -0.5289  0.2289
 6166TIP3    H140057   5.900   5.074   2.327 -1.8146  0.1455 -0.0876
 6166TIP3    H240058   5.996   5.157   2.245 -2.0565 -0.0321 -0.5526
 6167TIP3   OH240059   0.938   2.380   0.835  0.3531  0.2155  0.1148
 6167TIP3    H140060   0.926   2.318   0.764  0.0422  2.6058 -2.0372
 6167TIP3    H240061   0.854   2.380   0.881  0.0657 -0.2920 -0.3979
 6168TIP3   OH240062   2.889   2.135   1.978  0.1162  0.3585  0.5022
 6168TIP3    H140063   2.893   2.052   2.027 -0.6249  0.5220  0.8548
 6168TIP3    H240064   2.919   2.201   2.041  0.7220  0.3652  0.2160
 6169TIP3   OH240065   0.121   2.977   0.082  0.6354  0.2707 -0.2968
 6169TIP3    H140066   0.176   2.960   0.006  0.8797  1.2370 -0.3545
 6169TIP3    H240067   0.182   2.975   0.156  0.9007  2.0046 -0.4297
 6170TIP3   OH240068   5.777   1.164   6.666 -0.4368  0.2294  0.3811
 6170TIP3    H140069   5.753   1.214   6.588  3.5778  0.0842 -1.2170
 6170TIP3    H240070   5.792   1.075   6.633  1.0013  0.0865  1.3210
 6171TIP3   OH240071   6.769   2.624   1.159  0.1969 -0.3281 -0.3189
 6171TIP3    H140072   6.751   2.689   1.091 -0.7062  0.1983  0.4155
 6171TIP3    H240073   6.861   2.640   1.183  0.4196 -0.2889 -1.1476
 6172TIP3   OH240074   5.564   3.651   7.531  0.3885 -0.0834 -0.2959
 6172TIP3    H140075   5.507   3.613   7.465  4.1067 -2.0359 -2.7289
 6172TIP3    H240076   5.592   3.734   7.494  0.1596  0.2699  0.3016
 6173TIP3   OH240077   5.542   5.242   7.614 -0.9125  0.0734 -0.1959
 6173TIP3    H140078   5.497   5.158   7.607 -0.3016 -0.2024 -1.0649
 6173TIP3    H240079   5.572   5.260   7.525  0.8578  0.1349  0.3614
 6174TIP3   OH240080   1.310   6.354   1.818  0.2478  0.3454 -0.0084
 6174TIP3    H140081   1.289   6.359   1.724  0.6819  0.3816 -0.1080
 6174TIP3    H240082   1.355   6.436   1.837 -1.8713  1.3964  0.7787
 6175TIP3   OH240083   0.730   5.762   8.200  0.0825 -0.1043  0.1543
 6175TIP3    H140084   0.735   5.844   8.151 -0.3104 -0.3807 -0.3617
 6175TIP3    H240085   0.819   5.726   8.196  0.6991  1.1310  1.8757
 6176TIP3   OH240086   1.647   5.325   0.677 -0.1311 -0.2616  0.3381
 6176TIP3    H140087   1.646   5.384   0.601 -0.4669  0.8890  1.2034
 6176TIP3    H240088   1.740   5.313   0.697 -0.0641  1.1440  0.9984
 6177TIP3   OH240089   3.052   3.921   1.509 -0.0136 -0.8914 -0.0377
 6177TIP3    H140090   3.054   3.995   1.570  1.7090 -1.3969  0.5953
 6177TIP3    H240091   2.973   3.935   1.457  0.8223  2.0434 -0.7298
 6178TIP3   OH240092   3.739   2.213   1.844 -1.1177  0.3567  0.0103
 6178TIP3    H140093   3.700   2.177   1.765 -1.4692  0.9228 -0.0761
 6178TIP3    H240094   3.668   2.258   1.889 -0.4453  1.9871 -0.4881
 6179TIP3   OH240095   5.826   6.042   2.379  0.0830  0.5215 -0.2539
 6179TIP3    H140096   5.753   6.033   2.440 -0.1298  1.4624 -0.3473
 6179TIP3    H240097   5.784   6.050   2.293  0.3928 -1.2003 -0.5952
 6180TIP3   OH240098   6.892   5.856   7.714  0.0391  0.0207 -0.0083
 6180TIP3    H140099   6.821   5.792   7.713 -0.6771  0.7830  0.6893
 6180TIP3    H240100   6.952   5.826   7.646 -2.2736  0.8211 -2.6162
 6181TIP3   OH240101   4.745   6.109   6.887  0.2569  0.1927  0.6200
 6181TIP3    H140102   4.737   6.079   6.796 -2.7272  1.1553  0.4608
 6181TIP3    H240103   4.739   6.204   6.882  0.1475  0.2662  1.8368
 6182TIP3   OH240104   1.427   1.287   6.657  0.0534  0.0465 -0.1049
 6182TIP3    H140105   1.400   1.312   6.569 -0.8678  1.3079  0.5058
 6182TIP3    H240106   1.504   1.342   6.675  1.0201 -1.1051 -0.5602
 6183TIP3   OH240107   0.311   5.081   8.143  0.0399  0.1124 -0.2305
 6183TIP3    H140108   0.386   5.109   8.194  0.1915  2.9152 -1.8011
 6183TIP3    H240109   0.238   5.133   8.176 -0.7357 -0.9073 -0.2767
 6184TIP3   OH240110   1.751   2.108   7.584  0.1563 -0.1080  0.3155
 6184TIP3    H140111   1.759   2.032   7.642  1.8683 -0.0480  0.2100
 6184TIP3    H240112   1.714   2.177   7.640 -1.4560 -0.9922  0.4009
 6185TIP3   OH240113   0.204   4.538   6.947  0.2578  0.2049 -0.0128
 6185TIP3    H140114   0.209   4.518   6.853 -1.3219 -2.5730  0.3793
 6185TIP3    H240115   0.243   4.461   6.989  2.9122  2.2934  1.6950
 6186TIP3   OH240116   5.077   6.231   1.635 -0.3723  0.4484 -0.4511
 6186TIP3    H140117   5.038   6.159   1.684  0.8137  0.2565  0.2395
 6186TIP3    H240118   5.020   6.306   1.653  0.1167  0.4247  1.3956
 6187TIP3   OH240119   5.530   4.922   1.453 -0.8679 -0.7746  0.4077
 6187TIP3    H140120   5.469   4.908   1.381  0.8429  0.8559 -1.4988
 6187TIP3    H240121   5.519   5.015   1.476  0.6864 -0.4992  0.1599
 6188TIP3   OH240122   5.926   4.589   8.610  0.0862  0.1636  0.0010
 6188TIP3    H140123   5.972   4.563   8.690  1.0215 -0.9347 -0.8566
 6188TIP3    H240124   5.838   4.554   8.620  0.1572  0.1437  0.6001
 6189TIP3   OH240125   4.353   4.623   2.500 -0.0326  0.1599  0.0528
 6189TIP3    H140126   4.395   4.581   2.575 -1.6812  1.8246  2.0126
 6189TIP3    H240127   4.426   4.653   2.446  1.3766  1.7425  2.6360
 6190TIP3   OH240128   0.945   2.350   6.861 -0.0733  0.3055  0.2189
 6190TIP3    H140129   1.031   2.319   6.834 -0.9210 -0.4750 -1.7268
 6190TIP3    H240130   0.899   2.371   6.779 -1.8918  0.2677  1.1629
 6191TIP3   OH240131   6.758   3.467   0.210  0.1716  0.8670 -0.7974
 6191TIP3    H140132   6.762   3.534   0.141 -0.6897  2.3713  0.5356
 6191TIP3    H240133   6.843   3.471   0.252  0.2978  0.7752 -1.0441
 6192TIP3   OH240134   3.813   3.669   8.085 -0.1051 -0.2126  0.3756
 6192TIP3    H140135   3.731   3.664   8.135 -0.0649  0.5149  0.5255
 6192TIP3    H240136   3.848   3.756   8.107 -0.9240  0.8581 -2.2137
 6193TIP3   OH240137   5.000   2.055   8.574 -0.7199 -0.1665 -0.0116
 6193TIP3    H140138   4.928   2.049   8.512 -0.4315 -1.7231 -0.2461
 6193TIP3    H240139   5.076   2.021   8.526 -0.6157 -2.0338  1.3428
 6194TIP3   OH240140   6.774   6.455   0.593  0.3136 -0.4548 -0.0517
 6194TIP3    H140141   6.726   6.376   0.569 -0.8683  0.4964 -0.9442
 6194TIP3    H240142   6.810   6.436   0.680 -3.1853 -0.6098  1.5208
 6195TIP3   OH240143   5.579   5.632   7.904  0.0849 -0.5596 -0.1434
 6195TIP3    H140144   5.562   5.588   7.821 -1.1386 -0.3001 -0.0555
 6195TIP3    H240145   5.540   5.575   7.970  0.0067 -0.1913  0.1312
 6196TIP3   OH240146   2.722   5.743   0.426  0.6376 -0.2340 -0.1868
 6196TIP3    H140147   2.759   5.691   0.498  1.1415  2.6978  1.8758
 6196TIP3    H240148   2.637   5.771   0.459  0.3279  0.1702 -1.2925
 6197TIP3   OH240149   3.502   6.175   6.436  0.3701 -0.2812 -0.5355
 6197TIP3    H140150   3.531   6.256   6.395 -0.7242  0.5083  0.1887
 6197TIP3    H240151   3.566   6.160   6.506 -1.0259  1.6541  1.2961
 6198TIP3   OH240152   4.028   1.469   0.366 -0.3016  0.1607 -0.0278
 6198TIP3    H140153   4.097   1.517   0.322  0.5955 -0.1327  1.0152
 6198TIP3    H240154   3.972   1.438   0.295  1.4561 -0.8828 -1.0380
 6199TIP3   OH240155   3.940   5.316   0.830  0.3912  0.2771 -0.2609
 6199TIP3    H140156   3.879   5.295   0.759 -0.5966  1.2791  0.2582
 6199TIP3    H240157   3.935   5.411   0.839 -0.0658  0.1227  1.6168
 6200TIP3   OH240158   6.666   0.769   6.917  0.1507  0.2510 -0.3411
 6200TIP3    H140159   6.638   0.806   7.001  1.4898  0.0943  0.1878
 6200TIP3    H240160   6.709   0.842   6.872 -1.0116  0.4800 -1.1379
 6201TIP3   OH240161   2.851   5.513   0.203  0.1968 -0.1486 -0.0846
 6201TIP3    H140162   2.848   5.427   0.245  0.1677  0.6585  1.6684
 6201TIP3    H240163   2.759   5.534   0.184  0.2202 -0.5683 -0.6694
 6202TIP3   OH240164   6.081   0.966   6.258  0.4152 -0.6784 -0.1916
 6202TIP3    H140165   6.046   1.046   6.219  0.1932  0.0933  1.5011
 6202TIP3    H240166   6.010   0.902   6.249 -0.9802  0.4833  1.9759
 6203TIP3   OH240167   4.241   6.376   0.826  0.0215  0.0645 -0.0816
 6203TIP3    H140168   4.194   6.389   0.743 -0.8044  2.0766  0.6311
 6203TIP3    H240169   4.203   6.297   0.863 -2.2890  1.1480  0.0493
 6204TIP3   OH240170   2.069   3.705   8.352  0.2305 -1.1597 -0.3287
 6204TIP3    H140171   2.164   3.714   8.352  0.1590 -0.3695 -0.8232
 6204TIP3    H240172   2.054   3.610   8.356  1.0191 -1.2628  1.7301
 6205TIP3   OH240173   1.507   6.136   8.111 -0.1836  0.5450  0.5460
 6205TIP3    H140174   1.572   6.080   8.152  0.2366  0.5694 -0.0761
 6205TIP3    H240175   1.510   6.218   8.161 -0.6338  0.1014  1.3076
 6206TIP3   OH240176   4.013   0.002   0.382  0.6339  0.4041  0.2115
 6206TIP3    H140177   3.977  -0.084   0.359  0.6864  0.1753  0.9569
 6206TIP3    H240178   4.026   0.046   0.298 -0.0897 -0.0369 -0.1377
 6207TIP3   OH240179   0.663   5.198   1.565  0.0386 -0.0672 -0.3448
 6207TIP3    H140180   0.569   5.216   1.567 -0.2040 -1.1676 -0.7427
 6207TIP3    H240181   0.676   5.132   1.633  0.6929  0.7356  0.3328
 6208TIP3   OH240182   2.940   4.242   0.213 -0.0509  0.1093  0.6683
 6208TIP3    H140183   2.899   4.267   0.130 -0.2586  0.4025  0.8606
 6208TIP3    H240184   2.976   4.155   0.196 -1.0675 -0.3148  0.6044
 6209TIP3   OH240185   4.653   3.528   1.531  0.2443  0.4423  0.2588
 6209TIP3    H140186   4.715   3.462   1.502  0.4091  0.8606 -0.3614
 6209TIP3    H240187   4.571   3.506   1.485 -0.3599 -0.6817  1.8110
 6210TIP3   OH240188   4.245   6.594   6.445 -0.2511  0.4604 -0.3936
 6210TIP3    H140189   4.151   6.604   6.433 -0.1626 -0.0280 -1.6700
 6210TIP3    H240190   4.267   6.511   6.402  0.7993  0.6958 -0.3569
 6211TIP3   OH240191   0.252   0.731   7.525 -0.0870 -0.3657 -0.0014
 6211TIP3    H140192   0.251   0.648   7.479  1.3049 -0.0541 -0.6674
 6211TIP3    H240193   0.336   0.731   7.573  0.3774  1.0018 -0.7494
 6212TIP3   OH240194   1.382   2.556   7.627  0.3025  0.3297  0.1102
 6212TIP3    H140195   1.323   2.481   7.635  0.5913 -0.0421 -1.0988
 6212TIP3    H240196   1.462   2.520   7.589  0.9870  0.9992  0.8663
 6213TIP3   OH240197   1.833   1.935   1.672  0.1486 -0.1294  0.4103
 6213TIP3    H140198   1.767   2.001   1.653 -0.2383 -0.1026  1.7427
 6213TIP3    H240199   1.910   1.986   1.699 -0.0436 -0.2076  1.1167
 6214TIP3   OH240200   4.088   0.909   0.757  0.0364 -0.1235 -0.3288
 6214TIP3    H140201   4.054   0.998   0.772  0.8669 -0.0716  1.6257
 6214TIP3    H240202   4.021   0.852   0.794  1.0273 -0.1141  1.5863
 6215TIP3   OH240203   4.958   4.947   8.532  0.3266  0.0702  0.0690
 6215TIP3    H140204   5.048   4.921   8.513 -0.5098 -4.0424  0.8070
 6215TIP3    H240205   4.909   4.921   8.454 -0.3831  1.8977 -0.1558
 6216TIP3   OH240206   4.755   0.210   7.811 -0.0526  0.5142 -0.0041
 6216TIP3    H140207   4.663   0.236   7.806 -0.6118 -1.2426  0.5698
 6216TIP3    H240208   4.779   0.224   7.902 -0.6884 -1.8661  0.5881
 6217TIP3   OH240209   4.426   5.625   7.034  0.0306 -0.6338 -0.2009
 6217TIP3    H140210   4.456   5.538   7.009 -0.5298 -0.1836 -2.7120
 6217TIP3    H240211   4.483   5.685   6.986 -0.6613  0.3479  0.1634
 6218TIP3   OH240212   6.313   0.603   1.282  0.0430  0.2934  0.5481
 6218TIP3    H140213   6.260   0.577   1.208  0.9166 -0.0166  0.0193
 6218TIP3    H240214   6.260   0.668   1.328 -1.4434 -1.1464  0.9373
 6219TIP3   OH240215   5.330   4.652   0.984 -0.0033 -0.2620  0.5600
 6219TIP3    H140216   5.284   4.726   0.944  2.0596  2.1544  2.2847
 6219TIP3    H240217   5.404   4.635   0.925  1.6630  1.7016  1.9196
 6220TIP3   OH240218   0.204   6.087   7.357 -0.0620  0.0319 -0.0862
 6220TIP3    H140219   0.175   6.177   7.341 -2.5649 -0.5624  0.5317
 6220TIP3    H240220   0.152   6.034   7.297  0.2595 -1.1044  0.6000
 6221TIP3   OH240221   1.037   0.730   8.419  0.4493 -0.0857  0.0821
 6221TIP3    H140222   1.046   0.825   8.419  1.8950 -0.1975  0.9732
 6221TIP3    H240223   1.098   0.700   8.352 -0.2669 -0.3783 -0.4505
 6222TIP3   OH240224   6.336   3.425   1.032 -0.4614  0.3397  0.5061
 6222TIP3    H140225   6.337   3.353   1.094 -1.3679  0.4716  0.6857
 6222TIP3    H240226   6.379   3.497   1.078  0.5578 -0.1032  0.2813
 6223TIP3   OH240227   5.001   2.404   6.971 -0.0237 -0.2568  0.5236
 6223TIP3    H140228   5.013   2.499   6.970 -0.0262 -0.1706  2.8120
 6223TIP3    H240229   4.912   2.390   7.002  0.2754 -0.9978  1.1021
 6224TIP3   OH240230   1.781   4.767   7.594  0.1786  0.0283 -0.5364
 6224TIP3    H140231   1.847   4.701   7.571  0.6471  0.3881 -0.2374
 6224TIP3    H240232   1.830   4.837   7.635 -0.5828 -0.4717  1.3522
 6225TIP3   OH240233   2.688   0.030   1.745  0.2241  0.1674  0.3356
 6225TIP3    H140234   2.599   0.045   1.778 -1.1314 -0.6106 -2.6203
 6225TIP3    H240235   2.678  -0.042   1.682  2.5680  1.3286 -1.5138
 6226TIP3   OH240236   0.158   2.340   0.780  0.5243 -0.1829 -0.1035
 6226TIP3    H140237   0.174   2.306   0.868  1.5127  1.3260  0.3434
 6226TIP3    H240238   0.140   2.433   0.793 -0.7925 -0.2226 -1.3811
 6227TIP3   OH240239   2.263   2.151   8.623  0.2049  0.2653  0.0750
 6227TIP3    H140240   2.213   2.190   8.552  1.3782  0.7285 -0.5279
 6227TIP3    H240241   2.232   2.196   8.702 -1.1800 -0.3322 -0.0944
 6228TIP3   OH240242   3.828   5.716   1.825  0.3046 -0.1681 -0.3021
 6228TIP3    H140243   3.868   5.665   1.755  0.3179  0.8332 -1.0452
 6228TIP3    H240244   3.901   5.745   1.879  0.3502 -0.4297 -0.2233
 6229TIP3   OH240245   2.501   4.359   1.950 -0.1830  0.4808 -0.2637
 6229TIP3    H140246   2.593   4.353   1.974  0.6823  0.1808 -3.2750
 6229TIP3    H240247   2.462   4.279   1.985  0.4031  1.0557  1.8755
 6230TIP3   OH240248   1.233   6.694   1.347  0.3010 -0.5637  0.5394
 6230TIP3    H140249   1.312   6.671   1.297 -0.2800 -2.0468  0.2553
 6230TIP3    H240250   1.266   6.746   1.420  1.6596 -1.8873  0.9095
 6231TIP3   OH240251   3.574   4.607   1.664  0.2929 -0.3444  0.3699
 6231TIP3    H140252   3.606   4.518   1.680  0.7353 -0.4362 -0.8740
 6231TIP3    H240253   3.508   4.621   1.731 -1.7731 -2.6563 -0.9848
 6232TIP3   OH240254   2.412   6.389   1.606 -0.4837 -0.0840 -0.0287
 6232TIP3    H140255   2.404   6.426   1.694  0.7506 -1.4290  0.6868
 6232TIP3    H240256   2.348   6.437   1.554 -1.5792  0.4085  1.7040
 6233TIP3   OH240257   0.172   1.011   8.467 -0.0262 -0.4388 -0.5450
 6233TIP3    H140258   0.211   0.925   8.479 -1.5736 -1.3288 -1.5600
 6233TIP3    H240259   0.093   0.995   8.415  0.1252  1.7003 -1.5596
 6234TIP3   OH240260   5.547   1.457   7.269 -0.6439  0.2735 -0.5704
 6234TIP3    H140261   5.534   1.532   7.327  0.9293 -0.3655  0.6958
 6234TIP3    H240262   5.590   1.494   7.191  1.3099  0.5749  0.5777
 6235TIP3   OH240263   5.077   3.958   7.048 -0.0860  0.1026  0.5459
 6235TIP3    H140264   5.114   3.969   7.136  0.7109  1.7996  0.0352
 6235TIP3    H240265   4.991   4.001   7.053 -1.4239 -2.4708  1.2929
 6236TIP3   OH240266   4.898   5.574   7.978 -0.0004  0.4897  0.0602
 6236TIP3    H140267   4.985   5.558   7.940  0.7042  3.0688  0.4279
 6236TIP3    H240268   4.882   5.667   7.963 -2.5365  0.1684  0.4150
 6237TIP3   OH240269   5.101   2.058   7.675  0.3881  0.2632 -0.3322
 6237TIP3    H140270   5.032   2.080   7.612 -0.3805 -0.3304  0.2958
 6237TIP3    H240271   5.139   2.143   7.699 -0.7158  0.6820 -0.0098
 6238TIP3   OH240272   2.315   2.549   0.421  0.2197 -0.6746  0.1698
 6238TIP3    H140273   2.234   2.581   0.461 -1.0551 -3.7488  0.3174
 6238TIP3    H240274   2.372   2.529   0.494  0.0176 -1.1377  0.2023
 6239TIP3   OH240275   4.480   6.626   8.267  0.1093 -0.3831  0.1612
 6239TIP3    H140276   4.544   6.615   8.338 -0.2807 -1.9293  0.3084
 6239TIP3    H240277   4.532   6.653   8.192  0.5068  1.5294  1.0616
 6240TIP3   OH240278   0.470   6.776   7.674  0.1647 -0.0332  0.0179
 6240TIP3    H140279   0.521   6.839   7.725 -0.8756  0.3804  0.5785
 6240TIP3    H240280   0.501   6.691   7.703  0.8014  0.2103  0.0661
 6241TIP3   OH240281   6.610   1.382   7.511 -0.3733  0.9175 -0.5572
 6241TIP3    H140282   6.591   1.381   7.605  2.0937 -0.4530  0.0268
 6241TIP3    H240283   6.645   1.469   7.494 -1.5906  1.4551 -0.4236
 6242TIP3   OH240284   0.612   1.245   8.176 -0.2286 -0.8152  0.2390
 6242TIP3    H140285   0.684   1.224   8.116 -1.9266 -0.9961 -1.8511
 6242TIP3    H240286   0.594   1.162   8.221  0.6828 -0.8184  0.6385
 6243TIP3   OH240287   4.543   0.371   7.728  0.8959 -0.5068  0.4587
 6243TIP3    H140288   4.490   0.446   7.757  1.0993  0.3579 -1.3103
 6243TIP3    H240289   4.506   0.348   7.643  1.8459 -1.4407  0.2903
 6244TIP3   OH240290   1.613   0.820   8.085  0.0785 -0.2385 -0.3010
 6244TIP3    H140291   1.559   0.868   8.022  1.4338  2.4409  0.4084
 6244TIP3    H240292   1.594   0.860   8.170  1.3292 -0.9066  0.3317
 6245TIP3   OH240293   2.100   5.026   0.487  0.9158  0.0705 -1.1903
 6245TIP3    H140294   2.025   5.054   0.541  1.2503 -0.1141 -0.6289
 6245TIP3    H240295   2.073   5.048   0.397  0.4001  0.4852 -0.9447
 6246TIP3   OH240296   0.894   3.898   0.991  0.3594  1.0412 -0.1559
 6246TIP3    H140297   0.955   3.847   0.939  1.4613  2.1806 -0.0395
 6246TIP3    H240298   0.939   3.982   1.005 -1.4335  2.1241 -0.5162
 6247TIP3   OH240299   0.740   3.796   0.389  0.3948  0.2029 -0.1049
 6247TIP3    H140300   0.730   3.776   0.296  1.3879 -0.7128 -0.0398
 6247TIP3    H240301   0.652   3.816   0.419 -0.4914 -2.5426 -0.5938
 6248TIP3   OH240302   4.513   2.162   8.178  0.6559  0.4287  0.0706
 6248TIP3    H140303   4.597   2.121   8.157  0.3174 -0.0186 -0.4444
 6248TIP3    H240304   4.486   2.205   8.097 -0.4380 -0.9049 -0.3023
 6249TIP3   OH240305   5.156   1.677   1.455 -0.4155 -0.2401  0.4407
 6249TIP3    H140306   5.145   1.717   1.369  0.0859 -0.8946  0.0538
 6249TIP3    H240307   5.211   1.738   1.504 -1.7452  0.7400  0.7414
 6250TIP3   OH240308   1.284   2.300   7.627  0.2111 -1.1217  0.0552
 6250TIP3    H140309   1.310   2.227   7.572 -0.0475 -1.0494 -0.1656
 6250TIP3    H240310   1.192   2.281   7.650 -1.2325  1.0648 -3.2383
 6251TIP3   OH240311   3.362   5.178   7.851  0.1311  0.2414  0.2171
 6251TIP3    H140312   3.403   5.174   7.938  1.2595  0.8482 -0.2727
 6251TIP3    H240313   3.387   5.095   7.809  1.3504  0.8445 -0.2816
 6252TIP3   OH240314   0.622   4.717   6.307  0.4272 -0.4056  0.2513
 6252TIP3    H140315   0.558   4.728   6.378  0.9140 -0.7312  0.7542
 6252TIP3    H240316   0.600   4.786   6.244 -0.7690 -0.8664  0.1372
 6253TIP3   OH240317   2.712   4.953   0.992 -0.3108  0.6922 -0.3765
 6253TIP3    H140318   2.740   4.898   1.066 -1.4232 -0.1078 -0.5225
 6253TIP3    H240319   2.769   5.030   0.997  1.3519 -0.4982 -0.2179
 6254TIP3   OH240320   3.790   4.205   8.402  0.4050  0.5595  0.2870
 6254TIP3    H140321   3.725   4.215   8.332  0.3859 -0.8310  0.0749
 6254TIP3    H240322   3.759   4.262   8.472 -0.6854  0.4438 -0.0797
 6255TIP3   OH240323   1.884   2.326   7.441  0.4599 -0.3309 -0.2574
 6255TIP3    H140324   1.841   2.320   7.356 -0.7905 -0.1366  0.3410
 6255TIP3    H240325   1.847   2.254   7.492  2.0936 -1.2101 -0.2375
 6256TIP3   OH240326   5.526   3.525   8.286 -0.1602  0.8424  0.0213
 6256TIP3    H140327   5.587   3.543   8.215 -0.7931  2.4535 -0.1492
 6256TIP3    H240328   5.464   3.461   8.250 -0.1656  1.2545 -0.7096
 6257TIP3   OH240329   6.369   5.950   8.528  0.4876  0.7066  0.2219
 6257TIP3    H140330   6.441   5.930   8.468 -0.3646  0.7994 -0.8490
 6257TIP3    H240331   6.319   6.019   8.484 -1.3419 -0.6684  0.0507
 6258TIP3   OH240332   4.402   5.251   6.994 -0.1176 -0.4295 -0.1006
 6258TIP3    H140333   4.335   5.317   7.005 -0.9728 -0.9093 -1.9260
 6258TIP3    H240334   4.485   5.298   7.005 -0.6823  1.1211 -1.9143
 6259TIP3   OH240335   5.604   2.581   0.441  0.0251 -0.1684  0.1235
 6259TIP3    H140336   5.652   2.658   0.412  2.0290 -1.8830 -1.5004
 6259TIP3    H240337   5.602   2.587   0.536  0.5643  1.6150  0.0480
 6260TIP3   OH240338   6.577   3.892   0.178 -0.5163 -0.9240 -0.0628
 6260TIP3    H140339   6.508   3.829   0.157  0.6804 -2.4949  0.4881
 6260TIP3    H240340   6.632   3.847   0.243  0.1514  0.8731  0.6990
 6261TIP3   OH240341   5.601   5.875   1.304  0.3376 -0.4890 -0.5519
 6261TIP3    H140342   5.683   5.882   1.255 -0.6130  0.8068 -2.0539
 6261TIP3    H240343   5.551   5.808   1.258 -0.9101  1.3353 -2.0026
 6262TIP3   OH240344   6.185   0.820   6.507  0.4688  0.2472  0.3322
 6262TIP3    H140345   6.143   0.734   6.505  0.5168  0.2088  0.8098
 6262TIP3    H240346   6.156   0.863   6.427  0.9356 -0.4457 -0.2195
 6263TIP3   OH240347   0.800   6.191   7.759 -0.0265  0.2840 -0.4170
 6263TIP3    H140348   0.811   6.273   7.808 -0.8688  0.7573 -0.9989
 6263TIP3    H240349   0.706   6.173   7.764  0.2930 -1.2983  0.7156
 6264TIP3   OH240350   5.338   6.306   0.921 -0.2090 -0.0463  0.6466
 6264TIP3    H140351   5.429   6.328   0.904 -0.6431  0.6956 -0.9833
 6264TIP3    H240352   5.328   6.312   1.016  1.7440 -1.5017  1.0073
 6265TIP3   OH240353   3.548   4.799   7.932 -0.1429 -0.0150 -0.5773
 6265TIP3    H140354   3.625   4.786   7.986  0.7793 -0.4500 -1.9439
 6265TIP3    H240355   3.479   4.748   7.975  1.0240 -1.8168 -0.7627
 6266TIP3   OH240356   6.315   2.287   2.256  0.0145  0.3749 -0.4050
 6266TIP3    H140357   6.366   2.357   2.217  1.0489 -0.8904 -1.3763
 6266TIP3    H240358   6.361   2.207   2.232 -1.2930 -0.6691  0.4417
 6267TIP3   OH240359   1.383   5.642   7.988 -0.0124 -0.4803 -0.0209
 6267TIP3    H140360   1.456   5.584   8.008  0.1690 -0.6751 -1.1914
 6267TIP3    H240361   1.419   5.730   7.996 -0.0245 -0.5368  0.7587
 6268TIP3   OH240362   3.367   2.042   6.970  0.0409  0.1080  0.6365
 6268TIP3    H140363   3.361   2.080   6.882 -1.4196  0.8445  1.0114
 6268TIP3    H240364   3.329   2.108   7.027 -0.8551 -1.1481  1.5606
 6269TIP3   OH240365   3.214   5.322   1.632 -0.3838 -0.1823 -0.5299
 6269TIP3    H140366   3.223   5.386   1.703 -0.3796  1.1752 -1.6979
 6269TIP3    H240367   3.133   5.347   1.588  0.4274  0.0063 -1.9537
 6270TIP3   OH240368   5.204   6.232   7.000  0.2834 -0.0326 -0.3880
 6270TIP3    H140369   5.258   6.157   6.974  1.8299  0.5735  0.8810
 6270TIP3    H240370   5.267   6.295   7.035 -1.1267  1.3374 -0.2322
 6271TIP3   OH240371   2.408   0.067   1.464  0.5209  0.6959 -0.2427
 6271TIP3    H140372   2.336   0.099   1.519  0.9233  0.7498  0.2598
 6271TIP3    H240373   2.406  -0.028   1.475  1.7690  0.8075  1.3838
 6272TIP3   OH240374   2.308   4.164   6.351 -0.0487  0.3298  0.4990
 6272TIP3    H140375   2.282   4.208   6.433 -1.5371  1.2979 -0.4375
 6272TIP3    H240376   2.240   4.190   6.288  1.6360  0.4883 -1.3345
 6273TIP3   OH240377   5.423   2.988   6.748  0.1236 -0.0465  0.0526
 6273TIP3    H140378   5.350   3.046   6.726 -0.4576 -1.0116 -0.6470
 6273TIP3    H240379   5.477   3.039   6.809 -0.8762  0.8582  0.2096
 6274TIP3   OH240380   4.530   1.678   0.721 -0.0580 -0.1324  0.2375
 6274TIP3    H140381   4.555   1.598   0.766 -0.4516 -1.1270 -1.2376
 6274TIP3    H240382   4.606   1.700   0.667 -0.6941 -0.7278 -0.9519
 6275TIP3   OH240383   1.469   3.754   7.638  0.0828 -0.4231  0.0310
 6275TIP3    H140384   1.557   3.774   7.670  1.3782  0.2560 -3.4346
 6275TIP3    H240385   1.435   3.838   7.608 -0.1938 -1.1583 -1.9130
 6276TIP3   OH240386   2.985   1.155   0.467 -0.0422 -0.3412 -0.3762
 6276TIP3    H140387   2.953   1.066   0.454 -0.5468 -0.1807 -0.2516
 6276TIP3    H240388   2.976   1.197   0.382 -0.8395 -0.0861 -0.1752
 6277TIP3   OH240389   0.320   5.561   7.428  0.2459  0.1422  0.5876
 6277TIP3    H140390   0.354   5.614   7.357  0.4344 -2.7966 -1.6962
 6277TIP3    H240391   0.225   5.573   7.423  0.2023 -0.5821 -0.6787
 6278TIP3   OH240392   4.094   0.008   8.266 -0.5663  0.2597 -0.1607
 6278TIP3    H140393   4.152   0.072   8.224  0.6211 -0.4967  0.2565
 6278TIP3    H240394   4.137  -0.076   8.251 -1.4755 -0.3032  0.3206
 6279TIP3   OH240395   5.771   5.185   8.166  0.0898  0.3119 -0.1798
 6279TIP3    H140396   5.733   5.242   8.099 -0.4676  2.4705  1.8408
 6279TIP3    H240397   5.864   5.206   8.166 -0.5306  3.9573  2.7944
 6280TIP3   OH240398   0.934   0.049   7.834 -0.1319  0.1425  0.4518
 6280TIP3    H140399   0.972  -0.023   7.784 -1.0753 -0.3436  0.4271
 6280TIP3    H240400   1.004   0.075   7.895 -0.3320 -1.9075  1.6340
 6281TIP3   OH240401   5.641   6.558   1.483  0.0204 -0.4990 -0.2346
 6281TIP3    H140402   5.636   6.472   1.526  1.1690 -1.2056 -1.4264
 6281TIP3    H240403   5.734   6.569   1.465 -0.0446  1.2669  0.3783
 6282TIP3   OH240404   6.059   4.913   7.028  0.7312 -0.5337 -0.0958
 6282TIP3    H140405   6.132   4.951   6.978  1.4023 -2.2627 -0.5026
 6282TIP3    H240406   6.009   4.864   6.962  1.2788 -2.3412  0.7638
 6283TIP3   OH240407   5.959   6.785   6.390  0.0660 -0.0155  0.0492
 6283TIP3    H140408   5.914   6.864   6.420  1.4392  0.4393  1.0032
 6283TIP3    H240409   6.026   6.817   6.329  1.0325 -0.3635  0.9120
 6284TIP3   OH240410   4.394   3.419   8.523 -0.3578 -0.0672  0.8030
 6284TIP3    H140411   4.456   3.420   8.450  0.9805  0.2117  1.9023
 6284TIP3    H240412   4.309   3.436   8.483  0.2729 -0.4439 -0.7451
 6285TIP3   OH240413   3.151   2.471   8.087 -0.2422 -0.0076 -0.2784
 6285TIP3    H140414   3.140   2.494   8.179 -1.2500  0.9186 -0.6084
 6285TIP3    H240415   3.165   2.376   8.087  0.0148  0.0196  0.8349
 6286TIP3   OH240416   6.802   1.219   0.957 -0.8406  0.2567  0.5685
 6286TIP3    H140417   6.759   1.180   1.033 -0.4500 -2.4270 -0.4955
 6286TIP3    H240418   6.760   1.177   0.881  2.4471 -1.2952 -0.5590
 6287TIP3   OH240419   5.836   0.222   0.706  0.3261 -0.0075  0.7396
 6287TIP3    H140420   5.891   0.163   0.760  0.5257 -0.7248 -0.2179
 6287TIP3    H240421   5.806   0.167   0.634 -0.5323  0.7538  0.4993
 6288TIP3   OH240422   4.890   0.998   0.672 -0.0292 -0.2541  0.0688
 6288TIP3    H140423   4.889   1.007   0.577  2.1228 -1.2607 -0.1103
 6288TIP3    H240424   4.871   1.086   0.705  2.8160  1.0304 -1.3668
 6289TIP3   OH240425   4.332   1.881   7.658 -0.1041 -0.3245 -0.4179
 6289TIP3    H140426   4.305   1.804   7.607  0.4499 -0.5981 -0.3123
 6289TIP3    H240427   4.427   1.873   7.664 -0.0959  0.0830  0.0618
 6290TIP3   OH240428   3.526   5.174   8.518 -0.0406 -0.0903  0.8399
 6290TIP3    H140429   3.433   5.161   8.534 -0.4661  1.8534  0.2124
 6290TIP3    H240430   3.553   5.100   8.464 -1.4716 -0.1578  0.1906
 6291TIP3   OH240431   6.270   1.779   0.708 -0.4190 -0.2568 -0.4524
 6291TIP3    H140432   6.197   1.813   0.657  0.3920  1.1008 -0.7447
 6291TIP3    H240433   6.324   1.856   0.728  0.3401 -1.0608  0.7216
 6292TIP3   OH240434   3.194   4.068   1.175  0.5281  0.3075 -0.8735
 6292TIP3    H140435   3.111   4.086   1.218  1.1466 -0.5261  0.8124
 6292TIP3    H240436   3.175   4.070   1.082 -0.8036  2.7127 -0.6248
 6293TIP3   OH240437   3.660   0.748   0.969 -0.3342  0.3883  0.7658
 6293TIP3    H140438   3.741   0.710   1.002  1.8533  0.9302 -3.3316
 6293TIP3    H240439   3.602   0.673   0.955 -0.0724 -0.1652  2.3714
 6294TIP3   OH240440   6.409   0.229   8.219  0.0867 -0.0797 -0.1954
 6294TIP3    H140441   6.387   0.173   8.145  0.9800 -0.7317  0.0007
 6294TIP3    H240442   6.500   0.207   8.239  0.5417  1.6122 -0.2356
 6295TIP3   OH240443   3.693   6.156   1.697 -0.1989  0.2063  0.3744
 6295TIP3    H140444   3.762   6.176   1.761  0.5161  0.3740 -0.4434
 6295TIP3    H240445   3.723   6.195   1.615 -1.5522  0.7984  0.1363
 6296TIP3   OH240446   0.471   0.551   0.955 -0.6744 -0.0112 -0.7532
 6296TIP3    H140447   0.383   0.553   0.993  0.2278 -0.8923  1.5029
 6296TIP3    H240448   0.467   0.479   0.891 -1.0817 -1.3954  0.7680
 6297TIP3   OH240449   0.551   5.410   8.366 -0.0440 -0.0608 -0.2911
 6297TIP3    H140450   0.522   5.319   8.372  0.0445 -0.0439  0.3997
 6297TIP3    H240451   0.640   5.405   8.331 -0.8228 -0.1177 -2.4262
 6298TIP3   OH240452   5.070   1.286   8.484 -0.8944 -0.1703 -0.0945
 6298TIP3    H140453   5.085   1.196   8.454 -1.3121  0.0092 -0.8774
 6298TIP3    H240454   5.065   1.337   8.403  1.5142  0.9394  0.3915
 6299TIP3   OH240455   3.551   1.533   0.317  0.5264  0.3820 -0.8002
 6299TIP3    H140456   3.566   1.449   0.275  1.9370  0.1485  0.1187
 6299TIP3    H240457   3.543   1.595   0.244  1.5466 -0.2169 -1.4399
 6300TIP3   OH240458   2.689   1.800   8.551 -0.2225 -0.5053  0.7303
 6300TIP3    H140459   2.664   1.849   8.629 -3.8431 -1.9606  0.6654
 6300TIP3    H240460   2.664   1.710   8.570  0.0180 -1.1279 -1.6294
 6301TIP3   OH240461   6.586   5.173   1.427 -0.2693  0.2518 -0.2060
 6301TIP3    H140462   6.526   5.109   1.389  0.0841  0.2354 -0.7438
 6301TIP3    H240463   6.530   5.229   1.481 -0.3112 -1.8130  2.0981
 6302TIP3   OH240464   2.009   4.065   1.199  0.4015  0.4296 -0.2014
 6302TIP3    H140465   2.014   4.123   1.275 -0.2325 -1.5623  1.4557
 6302TIP3    H240466   1.918   4.037   1.196  0.8817 -1.2030 -0.3504
 6303TIP3   OH240467   1.449   5.572   6.982  0.5205  0.2614 -0.3162
 6303TIP3    H140468   1.439   5.477   6.971 -1.3413  0.4626 -0.6618
 6303TIP3    H240469   1.488   5.601   6.899  2.1559 -0.3081  0.2168
 6304TIP3   OH240470   0.786   6.050   1.622  0.0779 -0.6298 -0.3980
 6304TIP3    H140471   0.855   6.114   1.643 -1.8171  0.7211  2.2847
 6304TIP3    H240472   0.834   5.970   1.601  2.5689 -0.2169  2.9012
 6305TIP3   OH240473   3.856   6.326   1.834  0.1837  0.2671 -0.3257
 6305TIP3    H140474   3.931   6.271   1.857 -0.2608 -0.3135 -0.2366
 6305TIP3    H240475   3.854   6.394   1.902 -0.7450 -1.0668  1.0438
 6306TIP3   OH240476   4.220   2.337   7.256  0.5313 -0.0934  0.4246
 6306TIP3    H140477   4.314   2.356   7.258  0.3339  1.0752 -0.5136
 6306TIP3    H240478   4.210   2.263   7.316  2.1714 -0.8148 -0.1187
 6307TIP3   OH240479   0.081   4.730   7.113 -0.7158  0.6170  0.1683
 6307TIP3    H140480   0.102   4.673   7.039 -2.8478  0.0136 -0.0252
 6307TIP3    H240481   0.164   4.739   7.161  0.3120 -0.3078 -1.3670
 6308TIP3   OH240482   6.246   4.127   8.520 -0.1357  0.3920  0.2015
 6308TIP3    H140483   6.290   4.074   8.453 -1.0028  1.0281 -0.8989
 6308TIP3    H240484   6.154   4.123   8.497 -0.5950 -0.2296  1.9926
 6309TIP3   OH240485   1.263   6.651   1.851  0.0884  0.3828  0.2387
 6309TIP3    H140486   1.263   6.733   1.901  0.1874  0.3679  0.2614
 6309TIP3    H240487   1.174   6.616   1.864 -0.5167  1.3217 -1.1301
 6310TIP3   OH240488   1.944   1.684   2.140  0.0244  0.0930 -0.1486
 6310TIP3    H140489   1.861   1.688   2.187  0.1095  1.0505 -0.0518
 6310TIP3    H240490   1.923   1.640   2.057 -0.7123  0.8235 -0.3690
 6311TIP3   OH240491   0.780   0.598   2.129  0.4218  0.4187 -0.2016
 6311TIP3    H140492   0.791   0.504   2.119 -1.3798  0.1731 -0.2619
 6311TIP3    H240493   0.712   0.621   2.066 -0.0193  1.5392  0.6379
 6312TIP3   OH240494   1.494   1.843   7.698 -0.1128  0.3252  0.4283
 6312TIP3    H140495   1.455   1.814   7.780  1.0796  0.5254  1.0959
 6312TIP3    H240496   1.539   1.766   7.664  0.3020  0.5175  0.5287
 6313TIP3   OH240497   4.467   4.197   1.672  0.6895 -0.5353 -0.1788
 6313TIP3    H140498   4.453   4.140   1.748 -3.7761 -0.5221 -0.7171
 6313TIP3    H240499   4.478   4.136   1.599 -1.5555 -0.8321 -0.3613
 6314TIP3   OH240500   0.455   0.385   2.000  0.2738  0.2222 -0.4645
 6314TIP3    H140501   0.508   0.322   1.951 -0.0761 -0.0607 -0.4883
 6314TIP3    H240502   0.458   0.354   2.090  0.9731  0.7824 -0.2899
 6315TIP3   OH240503   4.675   6.630   1.621  0.5215  0.6471  0.0829
 6315TIP3    H140504   4.702   6.595   1.536  0.2147 -1.7933  0.9075
 6315TIP3    H240505   4.757   6.661   1.660  1.0467 -0.2831 -0.2294
 6316TIP3   OH240506   2.554   3.591   7.194  0.4211  0.2988  0.5935
 6316TIP3    H140507   2.514   3.611   7.109 -0.0555  0.9234  0.9497
 6316TIP3    H240508   2.643   3.563   7.173  0.2451  0.2636 -0.1244
 6317TIP3   OH240509   0.799   2.896   6.995  0.4236 -0.3787 -0.3830
 6317TIP3    H140510   0.877   2.927   6.948 -0.2337  1.1765 -0.4993
 6317TIP3    H240511   0.786   2.806   6.963  2.8657 -1.1472  0.5808
 6318TIP3   OH240512   4.583   1.983   1.529 -0.5663  0.3269 -0.0943
 6318TIP3    H140513   4.534   1.949   1.604 -1.7187 -0.3276 -1.1060
 6318TIP3    H240514   4.619   1.905   1.487  1.1635  0.7792  0.4692
 6319TIP3   OH240515   5.395   2.888   1.344  0.2549 -0.3186  0.4030
 6319TIP3    H140516   5.484   2.911   1.370  0.9509 -0.9562 -1.2769
 6319TIP3    H240517   5.345   2.888   1.426  1.6956  0.4363  1.3233
 6320TIP3   OH240518   6.269   3.387   7.095 -0.4723  0.2487  0.0551
 6320TIP3    H140519   6.215   3.411   7.170 -2.0828  0.1239 -1.0098
 6320TIP3    H240520   6.358   3.387   7.129 -1.0826  0.8562  1.7919
 6321TIP3   OH240521   2.794   3.059   1.240  0.1190  0.2320  0.0884
 6321TIP3    H140522   2.842   3.073   1.321 -0.6813  1.3162  0.4077
 6321TIP3    H240523   2.840   2.988   1.196  1.1225  0.2647  1.0503
 6322TIP3   OH240524   1.261   4.806   0.708 -0.5036 -0.4747  0.8112
 6322TIP3    H140525   1.169   4.830   0.718 -0.9867 -1.2599 -1.2660
 6322TIP3    H240526   1.292   4.860   0.635  0.4248 -0.8914  0.8774
 6323TIP3   OH240527   6.780   5.131   7.570  0.2734 -0.5805  0.2271
 6323TIP3    H140528   6.707   5.187   7.542 -0.3807  0.0263  2.8343
 6323TIP3    H240529   6.780   5.059   7.508 -2.1299 -0.2429 -0.2700
 6324TIP3   OH240530   2.568   2.745   2.339  0.1401 -0.1336 -0.1669
 6324TIP3    H140531   2.475   2.765   2.328  0.1714 -0.9809 -2.6650
 6324TIP3    H240532   2.611   2.830   2.330 -0.3643  0.2776  1.0774
 6325TIP3   OH240533   4.338   3.670   0.316  0.2857 -0.4918  0.3202
 6325TIP3    H140534   4.407   3.618   0.275 -1.2215 -2.8915  0.6193
 6325TIP3    H240535   4.354   3.662   0.410  1.7683  2.2112  0.4092
 6326TIP3   OH240536   3.552   5.110   7.008 -0.3305  1.1078  0.3519
 6326TIP3    H140537   3.508   5.026   6.995  0.4382  0.6087  0.8652
 6326TIP3    H240538   3.639   5.086   7.039  1.1660  1.9280 -2.7529
 6327TIP3   OH240539   6.420   4.785   0.613 -0.4197  0.3730 -0.1348
 6327TIP3    H140540   6.449   4.821   0.530  0.4717 -3.5163 -1.7138
 6327TIP3    H240541   6.336   4.744   0.594 -0.1106 -0.7443  0.8236
 6328TIP3   OH240542   4.733   5.365   6.186  0.8804  0.6068  0.3979
 6328TIP3    H140543   4.663   5.384   6.123  0.2035 -1.2498  0.5309
 6328TIP3    H240544   4.772   5.284   6.154  0.1612 -0.7015  2.6330
 6329TIP3   OH240545   6.635   1.437   0.970 -0.2592 -0.0534  0.4106
 6329TIP3    H140546   6.704   1.372   0.958  1.2748  1.5777 -0.0270
 6329TIP3    H240547   6.589   1.438   0.886  0.5972  0.3929 -0.0628
 6330TIP3   OH240548   2.481   1.390   7.327  0.1335 -0.2670  0.0866
 6330TIP3    H140549   2.393   1.360   7.304  0.2816 -1.6230  1.1601
 6330TIP3    H240550   2.475   1.411   7.421  0.6005  1.0376 -0.1557
 6331TIP3   OH240551   3.528   1.716   0.109  0.1448  0.0949  0.3973
 6331TIP3    H140552   3.448   1.769   0.110  0.4555  0.6850 -1.8144
 6331TIP3    H240553   3.546   1.702   0.017  2.7910  0.2126  0.8381
 6332TIP3   OH240554   3.804   1.697   0.252  0.1437  0.1828  0.1918
 6332TIP3    H140555   3.711   1.697   0.275 -0.1549 -0.5780 -0.9292
 6332TIP3    H240556   3.819   1.612   0.210  0.4994  1.5421 -2.7243
 6333TIP3   OH240557   4.125   2.191   0.983 -0.2354 -0.6662  0.0006
 6333TIP3    H140558   4.118   2.102   0.948 -0.4315 -0.2089 -1.1808
 6333TIP3    H240559   4.140   2.246   0.906 -0.1746  0.3378  0.7035
 6334TIP3   OH240560   2.173   4.174   7.635 -0.1072 -1.0385  0.0772
 6334TIP3    H140561   2.145   4.245   7.577  1.5482 -0.8243 -0.5151
 6334TIP3    H240562   2.218   4.219   7.707  1.1719 -1.4671 -0.4281
 6335TIP3   OH240563   0.218   2.196   0.105  0.0814  0.0083 -0.8954
 6335TIP3    H140564   0.221   2.120   0.164  0.4502 -0.3847 -1.4116
 6335TIP3    H240565   0.128   2.227   0.110 -0.0503 -0.4135 -0.6135
 6336TIP3   OH240566   2.110   2.291   8.131 -0.4982  0.3238 -0.2459
 6336TIP3    H140567   2.039   2.353   8.147 -2.7957 -2.4211  1.2076
 6336TIP3    H240568   2.075   2.233   8.062  0.0480 -1.3778  0.8435
 6337TIP3   OH240569   5.263   5.864   7.679 -0.4150 -0.2068 -0.6550
 6337TIP3    H140570   5.254   5.957   7.654 -0.2464  0.4619  1.6098
 6337TIP3    H240571   5.185   5.845   7.730  1.1858 -0.2394  1.9243
 6338TIP3   OH240572   6.623   4.236   0.023  0.0139 -0.0498  0.2850
 6338TIP3    H140573   6.704   4.186   0.028  0.1669  0.2469  0.8635
 6338TIP3    H240574   6.567   4.200   0.092 -0.3805 -0.3076 -0.1635
 6339TIP3   OH240575   5.566   6.008   8.120  0.0420  0.1585  0.2905
 6339TIP3    H140576   5.616   6.090   8.118 -0.7418  0.6975  1.6199
 6339TIP3    H240577   5.533   5.998   8.030  0.8847  0.8283 -0.1038
 6340TIP3   OH240578   0.265   4.022   1.019  0.5135 -0.2236  0.3600
 6340TIP3    H140579   0.350   3.986   0.996  0.0412  0.1749 -2.4062
 6340TIP3    H240580   0.260   4.105   0.972 -1.7442 -0.6724 -0.3461
 6341TIP3   OH240581   5.227   2.335   1.261 -0.1867 -0.0809  0.0959
 6341TIP3    H140582   5.224   2.289   1.345 -0.8127  0.0722  0.1633
 6341TIP3    H240583   5.138   2.367   1.248 -0.2651 -0.6652 -0.9451
 6342TIP3   OH240584   1.508   3.109   2.036  0.5866  0.1963  0.5272
 6342TIP3    H140585   1.475   3.137   1.951  1.2462 -0.1131  0.1657
 6342TIP3    H240586   1.429   3.095   2.089  0.1736  0.3756 -0.0351
 6343TIP3   OH240587   6.676   0.612   7.291 -0.1330 -0.0832 -0.1938
 6343TIP3    H140588   6.753   0.566   7.323 -0.4770  0.4613  1.4943
 6343TIP3    H240589   6.689   0.618   7.196  2.6158  1.2317  0.1752
 6344TIP3   OH240590   4.504   4.852   7.982 -0.0418  0.4103 -0.7448
 6344TIP3    H140591   4.590   4.838   7.943  0.1947  1.1948 -0.5162
 6344TIP3    H240592   4.501   4.793   8.057  0.5100  0.7774 -0.4314
 6345TIP3   OH240593   3.676   0.066   2.052  0.4134 -0.3676 -0.1320
 6345TIP3    H140594   3.702   0.021   2.133 -2.0640 -1.1192  0.3326
 6345TIP3    H240595   3.708   0.155   2.063  0.1837 -0.4661  1.6697
 6346TIP3   OH240596   6.228   1.855   0.358 -0.1535 -0.4409 -0.1530
 6346TIP3    H140597   6.159   1.831   0.420  1.7732 -2.7918  1.2756
 6346TIP3    H240598   6.289   1.909   0.409 -1.3705  2.6400 -1.7160
 6347TIP3   OH240599   2.026   4.254   0.616 -0.0455  0.2528 -0.4940
 6347TIP3    H140600   2.031   4.266   0.710 -2.4265  2.1321 -0.4947
 6347TIP3    H240601   2.052   4.163   0.601 -0.2184 -0.2699  2.0307
 6348TIP3   OH240602   4.635   5.716   0.992 -0.0741 -0.3301  0.4393
 6348TIP3    H140603   4.661   5.716   1.084  0.8087  0.1845  0.1940
 6348TIP3    H240604   4.568   5.784   0.986  0.0568 -0.1833  0.6443
 6349TIP3   OH240605   0.140   2.903   6.919 -0.2411  0.0931  0.0047
 6349TIP3    H140606   0.097   2.963   6.858 -0.6397 -0.7485 -0.5494
 6349TIP3    H240607   0.168   2.829   6.865  0.6557 -0.0264  0.6048
 6350TIP3   OH240608   3.349   1.182   1.182  0.5657  0.1074  0.4540
 6350TIP3    H140609   3.423   1.232   1.148  2.2531 -0.4081  3.0337
 6350TIP3    H240610   3.294   1.165   1.106  2.3197  1.8283 -1.3115
 6351TIP3   OH240611   1.624   2.750   0.569  0.4740 -0.9620  0.1215
 6351TIP3    H140612   1.588   2.742   0.657 -0.0558 -0.9717 -0.0926
 6351TIP3    H240613   1.547   2.755   0.512  0.7987 -0.0460 -0.2610
 6352TIP3   OH240614   4.825   0.908   7.807  0.0414  0.1935  0.7855
 6352TIP3    H140615   4.890   0.945   7.748 -0.1362  1.5645  1.4018
 6352TIP3    H240616   4.749   0.892   7.751 -0.2393  1.7889  0.6642
 6353TIP3   OH240617   5.460   0.191   1.615 -0.3033 -0.1473 -0.1101
 6353TIP3    H140618   5.380   0.178   1.665 -1.0769  1.2229 -0.9201
 6353TIP3    H240619   5.493   0.103   1.598 -2.2634 -0.8008 -0.7255
 6354TIP3   OH240620   5.705   2.651   8.056 -0.4544 -0.5925 -0.5884
 6354TIP3    H140621   5.632   2.605   8.097  0.2269 -0.0976  1.2998
 6354TIP3    H240622   5.780   2.633   8.113  0.6093  0.0034 -1.7317
 6355TIP3   OH240623   6.830   2.255   0.164  0.9082  0.1443 -0.1955
 6355TIP3    H140624   6.815   2.345   0.136  0.9748  0.3339  0.3626
 6355TIP3    H240625   6.745   2.223   0.193  0.9506  0.1417 -0.0725
 6356TIP3   OH240626   3.293   6.140   0.370  0.1757 -0.1364 -0.5571
 6356TIP3    H140627   3.370   6.169   0.419 -0.7717 -0.3148  1.1060
 6356TIP3    H240628   3.231   6.111   0.437 -1.1053 -0.6045 -1.8855
 6357TIP3   OH240629   3.480   0.593   1.368 -0.1481 -0.2103 -0.2642
 6357TIP3    H140630   3.557   0.584   1.312  0.4273  0.0603  0.4806
 6357TIP3    H240631   3.414   0.538   1.325  0.9328 -1.7352 -0.0593
 6358TIP3   OH240632   0.516   3.973   6.464  0.1810  0.0716 -0.1761
 6358TIP3    H140633   0.436   4.017   6.493  0.1597  0.7383 -1.2224
 6358TIP3    H240634   0.519   3.894   6.518 -0.2911  0.8538  1.0510
 6359TIP3   OH240635   3.402   1.166   1.488  0.2632  0.5522  0.1475
 6359TIP3    H140636   3.388   1.260   1.498 -0.0697  0.5437 -0.2035
 6359TIP3    H240637   3.381   1.149   1.396 -2.2848 -0.3046  0.7884
 6360TIP3   OH240638   5.730   3.349   0.763  0.5561 -0.3564 -0.3355
 6360TIP3    H140639   5.704   3.404   0.837  0.1893  1.0191 -1.4431
 6360TIP3    H240640   5.819   3.320   0.785  0.5668  0.2742  0.5023
 6361TIP3   OH240641   3.333   5.960   2.255  0.2968 -0.3642  0.6091
 6361TIP3    H140642   3.243   5.936   2.233  0.1191  1.8695 -1.6639
 6361TIP3    H240643   3.348   5.922   2.342 -2.3507 -1.9281  0.4896
 6362TIP3   OH240644   4.287   4.895   6.500  0.0217  0.6269  0.0698
 6362TIP3    H140645   4.382   4.893   6.486  0.3283  0.9728  1.8554
 6362TIP3    H240646   4.254   4.822   6.448  1.2663  0.4380 -0.5086
 6363TIP3   OH240647   1.164   4.372   8.526  0.2989 -0.2880 -0.3377
 6363TIP3    H140648   1.255   4.392   8.547  0.8077 -1.6014 -1.1587
 6363TIP3    H240649   1.170   4.305   8.458 -1.2729 -2.2559  1.3399
 6364TIP3   OH240650   3.217   4.121   7.750 -0.2124  0.2435 -0.2293
 6364TIP3    H140651   3.224   4.037   7.795  1.8648 -0.9273 -2.4797
 6364TIP3    H240652   3.124   4.143   7.755 -0.8824 -2.3268  0.2176
 6365TIP3   OH240653   3.903   1.761   6.531 -0.7236 -0.5157  0.0340
 6365TIP3    H140654   3.861   1.807   6.459  0.2652  1.9286  0.9070
 6365TIP3    H240655   3.833   1.749   6.596 -1.0792 -0.5830 -0.3561
 6366TIP3   OH240656   6.500   5.935   0.239  0.2399  0.4177 -0.4881
 6366TIP3    H140657   6.553   5.948   0.160 -0.4467  0.0966 -1.0161
 6366TIP3    H240658   6.456   5.851   0.225 -0.4661  0.7159 -0.1016
 6367TIP3   OH240659   2.099   2.859   7.828  0.5357 -0.1175 -0.1306
 6367TIP3    H140660   2.127   2.798   7.897 -1.7113 -0.6813  0.3460
 6367TIP3    H240661   2.156   2.935   7.839  1.3563 -0.8994  1.2484
 6368TIP3   OH240662   6.332   4.006   6.588  0.2254  0.2946 -0.4013
 6368TIP3    H140663   6.242   4.009   6.621  0.2565  4.1163 -0.2282
 6368TIP3    H240664   6.368   3.925   6.624 -2.5879 -0.4645  0.9991
 6369TIP3   OH240665   6.467   3.148   0.088  0.4651  0.3301  0.2459
 6369TIP3    H140666   6.550   3.102   0.084  0.6718  0.6539  0.7977
 6369TIP3    H240667   6.405   3.090   0.043  1.2392  0.6551 -1.2995
 6370TIP3   OH240668   4.221   0.621   0.094  0.5711 -0.0343 -0.1461
 6370TIP3    H140669   4.259   0.570   0.165  2.0793  0.8281 -0.2998
 6370TIP3    H240670   4.225   0.564   0.017 -0.9317 -0.9150  0.3947
 6371TIP3   OH240671   5.047   6.573   2.105 -0.3792 -0.1342 -0.8208
 6371TIP3    H140672   5.045   6.479   2.088  0.7580 -0.2742 -0.3005
 6371TIP3    H240673   5.112   6.583   2.175 -1.2879  0.9248 -0.0877
 6372TIP3   OH240674   2.032   5.256   1.418  0.0167  0.3019  0.1177
 6372TIP3    H140675   1.984   5.183   1.379 -0.2320  0.1170  0.7655
 6372TIP3    H240676   2.005   5.332   1.366  0.9963 -0.1880 -1.1740
 6373TIP3   OH240677   0.683   1.264   6.997  0.0699 -0.0018 -0.5229
 6373TIP3    H140678   0.631   1.185   6.986  0.5948 -0.2230 -1.5294
 6373TIP3    H240679   0.771   1.240   6.968  0.2223  0.9576 -0.9215
 6374TIP3   OH240680   2.505   5.183   6.142 -0.6513  0.0437  0.2295
 6374TIP3    H140681   2.488   5.089   6.152 -1.2630  0.1444  0.1636
 6374TIP3    H240682   2.535   5.192   6.052  0.7891 -0.2783  0.6501
 6375TIP3   OH240683   1.571   0.858   7.576 -0.1580 -0.2394 -0.1151
 6375TIP3    H140684   1.516   0.780   7.586 -1.8118  0.8008 -0.6386
 6375TIP3    H240685   1.650   0.826   7.533 -0.7462 -1.6481 -0.2250
 6376TIP3   OH240686   0.149   2.619   7.379  0.2473  0.0857  0.5520
 6376TIP3    H140687   0.226   2.577   7.417 -0.0569 -1.0535 -0.0382
 6376TIP3    H240688   0.084   2.619   7.449 -0.0597 -1.3179  0.3096
 6377TIP3   OH240689   3.976   5.657   7.108  0.8423 -0.5985 -0.1918
 6377TIP3    H140690   4.029   5.679   7.185 -0.5083 -0.8631  0.8509
 6377TIP3    H240691   4.040   5.645   7.038  2.1876 -1.1311  1.0708
 6378TIP3   OH240692   5.500   2.052   6.489  0.5002 -0.4959  0.6351
 6378TIP3    H140693   5.479   2.141   6.516  2.1409  0.3318 -0.6414
 6378TIP3    H240694   5.436   2.032   6.421  0.0414 -0.3558  1.0204
 6379TIP3   OH240695   3.648   2.548   8.625 -0.0796  0.1815  0.7197
 6379TIP3    H140696   3.640   2.551   8.720  0.3842 -1.0693  0.8227
 6379TIP3    H240697   3.562   2.573   8.592 -1.0420 -1.7993  1.5427
 6380TIP3   OH240698   5.230   1.342   7.341  0.3889 -0.3887  0.2673
 6380TIP3    H140699   5.297   1.279   7.370 -0.2434 -0.8051  0.8540
 6380TIP3    H240700   5.234   1.412   7.407 -2.3409 -2.2173  2.6111
 6381TIP3   OH240701   0.403   2.669   6.315  0.0856 -0.2849 -0.0614
 6381TIP3    H140702   0.366   2.655   6.403  0.8662 -1.5028  0.0958
 6381TIP3    H240703   0.394   2.763   6.300 -1.3864 -0.2679  0.7182
 6382TIP3   OH240704   2.913   3.156   8.554  0.0161 -0.0144 -0.3364
 6382TIP3    H140705   2.957   3.146   8.470  1.6522 -3.9034  0.7675
 6382TIP3    H240706   2.831   3.107   8.545 -0.8528  1.3797 -0.2690
 6383TIP3   OH240707   4.944   2.034   0.179  0.2791 -0.2430  0.3011
 6383TIP3    H140708   4.982   2.015   0.092 -0.4203 -4.2314  0.6639
 6383TIP3    H240709   5.009   2.001   0.241  0.2196  1.4458  1.3225
 6384TIP3   OH240710   1.043   5.969   1.997  0.4395  0.4331 -0.3957
 6384TIP3    H140711   1.035   6.061   1.971 -2.9423  0.0241 -1.2971
 6384TIP3    H240712   0.992   5.963   2.078 -0.2226 -0.7911 -0.8793
 6385TIP3   OH240713   6.573   2.854   1.569 -0.0744 -0.0630  0.0704
 6385TIP3    H140714   6.553   2.852   1.662  1.0133  1.4044  0.3830
 6385TIP3    H240715   6.668   2.844   1.564 -0.0538  0.4003 -0.8384
 6386TIP3   OH240716   2.353   6.820   0.092  0.4483 -0.1102 -0.2677
 6386TIP3    H140717   2.341   6.725   0.094  0.0410 -0.0497  0.4121
 6386TIP3    H240718   2.387   6.838   0.004  0.3228 -0.8580 -0.4753
 6387TIP3   OH240719   5.498   4.991   7.305  0.1121  0.0783 -0.5311
 6387TIP3    H140720   5.499   4.932   7.381  1.6392 -0.2957 -0.8094
 6387TIP3    H240721   5.582   4.977   7.263 -0.3552  0.9369 -1.8100
 6388TIP3   OH240722   6.438   5.129   0.785  0.0549 -0.2203 -0.2116
 6388TIP3    H140723   6.497   5.054   0.796  0.8434  0.1973 -1.4342
 6388TIP3    H240724   6.494   5.199   0.752 -0.8533  0.6380  0.0274
 6389TIP3   OH240725   0.860   4.884   7.389 -0.7108 -0.5201 -0.7115
 6389TIP3    H140726   0.924   4.937   7.342 -0.5079 -0.0880  0.0447
 6389TIP3    H240727   0.892   4.880   7.479 -1.7415 -0.2774 -0.3120
 6390TIP3   OH240728   5.620   5.369   0.447  0.5492 -0.0291 -0.1256
 6390TIP3    H140729   5.630   5.447   0.501 -1.9587  0.1456  0.2281
 6390TIP3    H240730   5.699   5.366   0.393  1.2039  2.1311  0.6222
 6391TIP3   OH240731   1.248   0.374   8.166 -0.0790 -0.3444  0.3383
 6391TIP3    H140732   1.213   0.298   8.212  1.4276 -0.7668  0.8413
 6391TIP3    H240733   1.307   0.416   8.229  0.7071  0.0492 -0.6294
 6392TIP3   OH240734   0.408   3.548   0.503 -0.0803 -0.4160  0.1344
 6392TIP3    H140735   0.403   3.642   0.483 -0.7133 -0.5714 -0.4724
 6392TIP3    H240736   0.345   3.536   0.574  0.2236 -0.3338  0.4217
 6393TIP3   OH240737   3.650   0.057   1.750 -0.0526  0.5498  0.0487
 6393TIP3    H140738   3.685   0.122   1.689 -0.8195  1.3454  0.4151
 6393TIP3    H240739   3.622   0.109   1.826  0.2214 -0.3322  0.7775
 6394TIP3   OH240740   3.049   6.868   0.620 -0.9698 -0.2222 -0.0584
 6394TIP3    H140741   3.072   6.811   0.546 -2.0299 -1.0680  0.2311
 6394TIP3    H240742   2.956   6.886   0.608 -0.7140  1.2410  0.0249
 6395TIP3   OH240743   5.378   4.022   8.383 -0.4722 -0.3765 -1.1356
 6395TIP3    H140744   5.354   3.960   8.452 -1.3202  0.4358 -0.6779
 6395TIP3    H240745   5.472   4.012   8.373 -0.1123  0.3901  1.0586
 6396TIP3   OH240746   0.277   5.749   2.374  0.0351 -0.2786  0.0224
 6396TIP3    H140747   0.194   5.718   2.411 -0.9125 -0.8013 -2.3795
 6396TIP3    H240748   0.301   5.683   2.309  0.9696  1.1675 -1.1750
 6397TIP3   OH240749   2.236   1.167   0.341  0.1243  0.0457  0.4737
 6397TIP3    H140750   2.276   1.154   0.427  0.3381 -2.0400  0.1144
 6397TIP3    H240751   2.272   1.096   0.287  1.4356  2.3389 -1.9076
 6398TIP3   OH240752   1.768   6.154   0.287  0.6337 -0.1719 -0.1440
 6398TIP3    H140753   1.807   6.067   0.277 -0.4056 -0.7434  0.6318
 6398TIP3    H240754   1.835   6.214   0.254  1.3108 -1.2676 -0.8166
 6399TIP3   OH240755   1.119   1.650   0.630 -0.6145  0.0729 -0.7585
 6399TIP3    H140756   1.074   1.567   0.615 -0.0406 -0.5244  0.6078
 6399TIP3    H240757   1.057   1.702   0.681 -0.6292  0.1348 -0.8396
 6400TIP3   OH240758   1.471   3.571   1.245  0.3185  0.4958 -0.4784
 6400TIP3    H140759   1.555   3.528   1.231 -0.7095 -1.6140 -0.6424
 6400TIP3    H240760   1.441   3.537   1.330 -0.1546  1.5866 -0.1984
 6401TIP3   OH240761   5.758   6.840   6.903 -0.0693  0.1560 -0.5020
 6401TIP3    H140762   5.814   6.831   6.825  1.5549  0.6882  0.5492
 6401TIP3    H240763   5.698   6.912   6.881  3.6194  3.9073  0.4445
 6402TIP3   OH240764   6.828   1.682   6.803 -0.0459 -0.1244  0.2203
 6402TIP3    H140765   6.857   1.711   6.890  0.1481  0.6074 -0.0798
 6402TIP3    H240766   6.766   1.749   6.775  0.2555 -0.1050 -0.4096
 6403TIP3   OH240767   5.772   3.653   2.297  0.5192 -0.2889  0.2131
 6403TIP3    H140768   5.762   3.648   2.392  0.4134 -1.7934  0.1433
 6403TIP3    H240769   5.789   3.563   2.270  2.7483  0.4176 -0.9766
 6404TIP3   OH240770   6.410   3.475   2.463  0.0951  0.1995 -0.4230
 6404TIP3    H140771   6.505   3.464   2.470 -0.0462 -1.4901 -0.6754
 6404TIP3    H240772   6.375   3.415   2.528 -0.8137  1.1244 -0.0389
 6405TIP3   OH240773   2.725   3.812   7.768 -0.1186  0.3959  0.4737
 6405TIP3    H140774   2.688   3.855   7.845  3.4087  0.8076  2.1577
 6405TIP3    H240775   2.779   3.741   7.804  1.9736  0.8479 -1.5256
 6406TIP3   OH240776   6.220   5.090   7.726  1.1552 -0.0071  0.4391
 6406TIP3    H140777   6.215   5.021   7.791  1.8333 -0.1897  0.3044
 6406TIP3    H240778   6.297   5.140   7.749  0.0510  1.4131  1.2059
 6407TIP3   OH240779   3.659   3.955   8.419 -0.0467  0.1676 -0.0908
 6407TIP3    H140780   3.651   3.918   8.332  0.5812  0.1520 -0.1451
 6407TIP3    H240781   3.723   4.025   8.410 -0.9877  1.0794  0.0754
 6408TIP3   OH240782   4.566   2.709   0.278 -0.1233 -0.4407  0.7714
 6408TIP3    H140783   4.656   2.683   0.293 -1.1036 -3.9666  1.5051
 6408TIP3    H240784   4.557   2.711   0.182  0.6724 -0.2576  0.6942
 6409TIP3   OH240785   2.747   0.779   7.043 -0.7639 -0.2569  0.2534
 6409TIP3    H140786   2.773   0.789   7.135  2.1097  0.0584 -0.5029
 6409TIP3    H240787   2.766   0.864   7.004  0.7611 -1.2137 -1.1883
 6410TIP3   OH240788   4.469   5.729   7.297  0.1617 -0.2456 -0.6255
 6410TIP3    H140789   4.438   5.707   7.208  0.9547  0.1095 -0.9952
 6410TIP3    H240790   4.496   5.820   7.291  1.7030 -0.6723 -0.4334
 6411TIP3   OH240791   3.079   0.307   0.620 -0.2702  0.2564  0.1539
 6411TIP3    H140792   3.147   0.277   0.680 -1.8538 -0.7205  1.5636
 6411TIP3    H240793   3.000   0.261   0.648 -1.6265  1.6440 -1.1446
 6412TIP3   OH240794   6.446   2.507   1.164 -0.4927 -0.0809  0.0077
 6412TIP3    H140795   6.456   2.417   1.195 -1.4559  0.1264  0.9789
 6412TIP3    H240796   6.458   2.561   1.242  0.3106  0.6643 -0.6075
 6413TIP3   OH240797   3.483   4.232   6.382 -0.0529 -0.0849 -0.4160
 6413TIP3    H140798   3.418   4.302   6.390 -0.1849 -0.1499 -0.9002
 6413TIP3    H240799   3.562   4.276   6.351  0.4262  0.1481  1.0603
 6414TIP3   OH240800   1.154   6.434   1.333  0.2134  0.6159 -0.1934
 6414TIP3    H140801   1.064   6.451   1.303  0.7610  0.5203 -2.0695
 6414TIP3    H240802   1.193   6.520   1.341 -0.2185  0.6974  1.3278
 6415TIP3   OH240803   2.212   1.098   7.233 -0.5034 -0.1898  0.2597
 6415TIP3    H140804   2.192   1.005   7.235 -0.6691 -0.1388  0.9626
 6415TIP3    H240805   2.244   1.113   7.144 -0.4929 -0.9098  0.1357
 6416TIP3   OH240806   0.109   3.019   0.789 -0.2841  0.1058  0.5092
 6416TIP3    H140807   0.058   3.050   0.714  0.7625  1.4925  0.3167
 6416TIP3    H240808   0.189   2.983   0.751  0.8087  1.9237  0.9434
 6417TIP3   OH240809   2.778   5.373   7.488 -0.3539  0.1805 -0.3364
 6417TIP3    H140810   2.871   5.357   7.501 -0.5357 -1.4510 -0.7529
 6417TIP3    H240811   2.745   5.396   7.575  0.0801 -1.3774  0.2768
 6418TIP3   OH240812   5.930   0.916   6.975 -0.7537 -0.3182  0.3077
 6418TIP3    H140813   5.945   0.894   6.883  1.0447  3.6680 -0.5801
 6418TIP3    H240814   6.004   0.878   7.022  0.7875  1.2554 -0.7095
 6419TIP3   OH240815   3.711   1.971   0.091  0.0437 -0.1956  0.0451
 6419TIP3    H140816   3.680   1.921   0.166  1.3848 -0.5794  0.3629
 6419TIP3    H240817   3.661   1.937   0.017 -1.2648  0.1533  0.7261
 6420TIP3   OH240818   6.144   4.158   8.125  0.2434  0.1275 -0.5874
 6420TIP3    H140819   6.132   4.188   8.035 -0.1234 -0.3644 -0.7037
 6420TIP3    H240820   6.202   4.224   8.164 -0.0455  0.6491 -1.0180
 6421TIP3   OH240821   3.404   1.185   7.828 -0.0055 -0.2952 -0.1473
 6421TIP3    H140822   3.399   1.111   7.888 -0.6391 -2.2095 -2.4228
 6421TIP3    H240823   3.480   1.167   7.774  1.0190  1.8014  0.4975
 6422TIP3   OH240824   3.150   6.659   7.621  0.0033  0.1973 -0.2844
 6422TIP3    H140825   3.224   6.671   7.561  0.3451  0.9061  0.2688
 6422TIP3    H240826   3.136   6.564   7.622  2.4510 -0.2492  1.4069
 6423TIP3   OH240827   3.397   0.100   7.818  0.2818  0.0889 -0.0765
 6423TIP3    H140828   3.387   0.187   7.778  1.9108  0.2703 -0.1628
 6423TIP3    H240829   3.316   0.054   7.795  0.7228  0.5005 -2.8559
 6424TIP3   OH240830   5.037   6.870   0.014  0.6462  0.0749  0.2034
 6424TIP3    H140831   5.043   6.910   0.100  0.9556  0.3634  0.0517
 6424TIP3    H240832   5.014   6.779   0.031  0.9766  0.0650  0.6005
 6425TIP3   OH240833   3.087   4.459   7.696  0.0436 -0.6840 -0.1971
 6425TIP3    H140834   3.022   4.497   7.637 -1.6557 -3.0674 -0.0290
 6425TIP3    H240835   3.169   4.501   7.673 -1.5775  2.9258 -0.0357
 6426TIP3   OH240836   0.603   4.323   8.306 -0.5524 -0.1079  0.0351
 6426TIP3    H140837   0.690   4.320   8.265  0.2612  0.5936  1.6132
 6426TIP3    H240838   0.608   4.263   8.379 -0.5319  1.7265  1.6296
 6427TIP3   OH240839   3.994   4.137   0.082 -0.4440  0.0380 -0.6432
 6427TIP3    H140840   3.914   4.185   0.104  0.7563  2.0512 -0.3825
 6427TIP3    H240841   4.065   4.200   0.098  1.5233 -2.5615  2.2379
 6428TIP3   OH240842   0.472   5.541   8.027 -0.2529  0.3923 -0.0528
 6428TIP3    H140843   0.456   5.455   8.066  0.0308  0.4808  0.2618
 6428TIP3    H240844   0.398   5.554   7.968 -1.1909  0.6413  1.1227
 6429TIP3   OH240845   6.238   3.607   0.321 -0.4880 -0.1416  0.0920
 6429TIP3    H140846   6.289   3.624   0.241  2.1570  0.4310  1.7864
 6429TIP3    H240847   6.288   3.648   0.391 -2.2302 -1.4143  2.2224
 6430TIP3   OH240848   2.426   5.190   2.214 -0.1548 -0.1534  0.6595
 6430TIP3    H140849   2.395   5.270   2.172 -1.0732 -0.2573  1.1099
 6430TIP3    H240850   2.506   5.216   2.259 -0.1896  0.4022  0.4082
 6431TIP3   OH240851   6.406   0.537   7.557  0.2252  0.2760  0.4866
 6431TIP3    H140852   6.439   0.579   7.637 -1.4587 -0.8310  1.8453
 6431TIP3    H240853   6.382   0.449   7.586  0.5519 -0.5145 -1.5196
 6432TIP3   OH240854   6.250   0.689   0.563  0.2567 -0.1968  0.1837
 6432TIP3    H140855   6.205   0.731   0.637 -2.2092 -0.3773 -1.0976
 6432TIP3    H240856   6.297   0.761   0.520 -0.1824  0.3638  0.6182
 6433TIP3   OH240857   0.881   4.313   1.788 -0.4683  0.6063 -0.2313
 6433TIP3    H140858   0.913   4.375   1.854 -2.8250  0.0405  1.5643
 6433TIP3    H240859   0.786   4.326   1.787 -0.5934  0.0641 -3.0565
 6434TIP3   OH240860   2.417   3.934   8.376  0.2309  0.1702 -0.5039
 6434TIP3    H140861   2.323   3.917   8.379  0.4030 -0.9618 -0.8876
 6434TIP3    H240862   2.436   3.983   8.456 -0.6200  0.1027 -0.2515
 6435TIP3   OH240863   6.078   6.139   2.366 -0.3970 -0.1765  0.1096
 6435TIP3    H140864   6.034   6.213   2.324 -0.9306  0.2084  1.3029
 6435TIP3    H240865   6.014   6.068   2.361 -0.2024 -0.3310 -0.2938
 6436TIP3   OH240866   1.529   0.155   2.188  0.4896  0.1757 -0.1074
 6436TIP3    H140867   1.569   0.232   2.228  1.1635  0.2874 -0.9507
 6436TIP3    H240868   1.575   0.145   2.105 -0.0508 -0.7461 -0.3128
 6437TIP3   OH240869   5.526   1.126   1.908 -0.2083 -0.1293  0.0259
 6437TIP3    H140870   5.490   1.214   1.902  1.3739  0.5186 -0.5264
 6437TIP3    H240871   5.558   1.119   1.998  1.2608  0.5515 -0.4129
 6438TIP3   OH240872   2.849   2.943   0.551 -0.0579  0.6715 -0.0309
 6438TIP3    H140873   2.853   3.016   0.613 -1.5615 -1.9995  3.6386
 6438TIP3    H240874   2.939   2.911   0.547  0.2607  1.5565 -0.1155
 6439TIP3   OH240875   3.836   2.659   8.066 -0.0441 -0.1153  0.4097
 6439TIP3    H140876   3.781   2.702   8.132  0.1289  1.3727 -0.3848
 6439TIP3    H240877   3.879   2.588   8.114  0.2028  1.0330  1.9593
 6440TIP3   OH240878   4.275   1.685   0.953 -0.4407  0.1951  0.3655
 6440TIP3    H140879   4.222   1.618   0.910  0.1456 -1.0944  1.5635
 6440TIP3    H240880   4.276   1.758   0.891 -0.5378 -1.1506 -1.3092
 6441TIP3   OH240881   1.511   5.789   1.010 -0.6796 -0.6502  0.3483
 6441TIP3    H140882   1.432   5.826   1.049 -1.3143  1.2115 -2.4018
 6441TIP3    H240883   1.580   5.851   1.032 -0.6837 -0.5167 -0.0101
 6442TIP3   OH240884   0.972   5.100   0.477  0.4551 -0.1731  0.0679
 6442TIP3    H140885   0.938   5.036   0.414  0.4440 -0.8396  0.7354
 6442TIP3    H240886   0.977   5.182   0.427 -2.8307  0.1761  0.1076
 6443TIP3   OH240887   2.615   0.524   0.881 -0.9195  0.4833  0.4249
 6443TIP3    H140888   2.556   0.502   0.809  0.6914  0.1052 -0.8330
 6443TIP3    H240889   2.574   0.599   0.923 -1.5035  1.2375 -1.3979
 6444TIP3   OH240890   3.416   1.945   1.240 -0.0663 -0.1365  0.0237
 6444TIP3    H140891   3.426   1.987   1.155  1.7504  1.4668  0.9654
 6444TIP3    H240892   3.410   1.851   1.220 -1.3091  0.2971 -1.9353
 6445TIP3   OH240893   2.227   5.323   8.321  0.2825  0.1629  0.4664
 6445TIP3    H140894   2.140   5.312   8.360  0.1158  2.6480  0.9739
 6445TIP3    H240895   2.210   5.342   8.229  0.2871  0.4433  0.5222
 6446TIP3   OH240896   4.272   1.064   8.091 -0.1838 -0.3095  0.6364
 6446TIP3    H140897   4.316   1.004   8.032 -1.9406 -1.1827  0.1433
 6446TIP3    H240898   4.186   1.025   8.105 -1.7233  2.4701 -0.3502
 6447TIP3   OH240899   6.021   1.220   8.331 -0.7602 -0.6350  0.0614
 6447TIP3    H140900   6.073   1.299   8.346 -1.2241 -0.8516  3.7558
 6447TIP3    H240901   6.085   1.150   8.320 -0.3522  0.0573 -2.3024
 6448TIP3   OH240902   5.322   6.049   6.373 -0.0382  0.5353  0.2611
 6448TIP3    H140903   5.399   6.081   6.326  2.1443 -3.3903  0.7592
 6448TIP3    H240904   5.357   6.012   6.454 -1.7931 -4.2523 -0.8299
 6449TIP3   OH240905   1.344   3.304   8.276 -0.4348 -0.4239 -0.0064
 6449TIP3    H140906   1.307   3.392   8.286  0.5086 -0.0168 -0.0878
 6449TIP3    H240907   1.357   3.294   8.182 -0.4139 -0.6079  0.0162
 6450TIP3   OH240908   4.256   4.812   0.338  0.2612 -0.3610 -0.5046
 6450TIP3    H140909   4.189   4.760   0.382 -1.1351  0.2627 -1.7825
 6450TIP3    H240910   4.324   4.827   0.404 -1.5549  0.2426  1.3110
 6451TIP3   OH240911   6.302   1.796   8.134  0.1938  0.2510 -0.1494
 6451TIP3    H140912   6.226   1.739   8.144  0.0861  0.7592  3.6763
 6451TIP3    H240913   6.376   1.736   8.125 -0.3671 -0.3305 -0.9824
 6452TIP3   OH240914   5.526   3.330   1.482  0.1675  0.2724 -0.1639
 6452TIP3    H140915   5.619   3.314   1.498  0.0366 -1.3812 -0.8955
 6452TIP3    H240916   5.506   3.408   1.534  1.8287  0.3492  0.4151
 6453TIP3   OH240917   2.023   0.773   7.344  0.0309  0.0074  0.0537
 6453TIP3    H140918   2.050   0.783   7.253 -2.2447  1.1689 -0.5713
 6453TIP3    H240919   2.091   0.819   7.394  0.2124  1.2188 -1.2491
 6454TIP3   OH240920   1.816   4.770   6.604  0.6961  0.0789 -0.1339
 6454TIP3    H140921   1.812   4.852   6.555 -0.7142  0.7036  0.9447
 6454TIP3    H240922   1.731   4.764   6.649  1.3652 -1.1743  1.0620
 6455TIP3   OH240923   0.514   6.500   7.411  0.5987  0.0390 -0.0817
 6455TIP3    H140924   0.518   6.595   7.400  0.0606  0.3053  1.6601
 6455TIP3    H240925   0.532   6.486   7.504  0.1176 -1.5299 -0.1895
 6456TIP3   OH240926   3.859   2.954   1.200  0.4447  0.3754 -0.0838
 6456TIP3    H140927   3.891   2.883   1.255  1.6133 -0.1895 -1.4169
 6456TIP3    H240928   3.938   3.003   1.177  0.4559 -0.9394 -3.3223
 6457TIP3   OH240929   1.111   2.051   6.870  0.6712  0.2081  0.4646
 6457TIP3    H140930   1.144   2.133   6.834 -1.1400  1.3789  1.2997
 6457TIP3    H240931   1.051   2.017   6.803 -0.3262  0.7797  1.0478
 6458TIP3   OH240932   3.487   1.878   7.633  0.4444 -0.2501  0.2811
 6458TIP3    H140933   3.427   1.873   7.559  1.0795 -1.0951 -0.1956
 6458TIP3    H240934   3.474   1.796   7.680 -0.8912  0.8026  1.8895
 6459TIP3   OH240935   3.371   3.400   0.347 -0.3472 -0.1689 -0.1332
 6459TIP3    H140936   3.401   3.479   0.391 -0.2784 -0.0283 -0.4278
 6459TIP3    H240937   3.386   3.417   0.254 -0.0441 -0.6495 -0.1784
 6460TIP3   OH240938   6.455   2.130   7.631 -0.1896 -0.4519  0.1933
 6460TIP3    H140939   6.376   2.095   7.672 -0.3079 -0.4612 -0.0431
 6460TIP3    H240940   6.500   2.053   7.596 -0.5082 -0.3642 -0.4292
 6461TIP3   OH240941   0.537   2.385   6.494  0.0354 -0.7722  0.3615
 6461TIP3    H140942   0.553   2.332   6.572  0.3188 -0.2439  0.6666
 6461TIP3    H240943   0.496   2.465   6.528  3.3718  1.0498  0.4172
 6462TIP3   OH240944   1.567   1.128   7.560 -0.3697  0.0045  0.3989
 6462TIP3    H140945   1.660   1.136   7.537  0.1416  0.4553  2.3993
 6462TIP3    H240946   1.548   1.035   7.548  0.2314 -0.0350 -0.3456
 6463TIP3   OH240947   6.808   2.767   1.541  0.1278  0.1868 -0.4935
 6463TIP3    H140948   6.849   2.683   1.559  0.8973  0.9668  1.8271
 6463TIP3    H240949   6.870   2.813   1.484  0.3607 -0.2972 -0.6341
 6464TIP3   OH240950   2.536   3.258   1.756 -0.3351 -0.1388  0.0082
 6464TIP3    H140951   2.492   3.341   1.739 -1.1221 -0.5503 -0.0233
 6464TIP3    H240952   2.591   3.275   1.833  0.2598  0.6628 -0.5746
 6465TIP3   OH240953   5.505   6.212   0.411  0.4942 -0.4683 -0.3367
 6465TIP3    H140954   5.474   6.279   0.351  0.5430  0.8310  1.0272
 6465TIP3    H240955   5.599   6.206   0.395  0.5081 -0.1251 -0.3797
 6466TIP3   OH240956   2.631   6.655   7.506  0.0591  0.5546  0.9044
 6466TIP3    H140957   2.726   6.663   7.513  0.2654  1.6114 -1.8175
 6466TIP3    H240958   2.614   6.561   7.512  1.1469  0.4254  2.3523
 6467TIP3   OH240959   0.591   3.172   8.606  0.5237 -0.0689 -0.0907
 6467TIP3    H140960   0.581   3.266   8.622 -0.3659 -0.1060 -0.4172
 6467TIP3    H240961   0.622   3.167   8.516  0.4160 -0.1022 -0.1251
 6468TIP3   OH240962   2.550   3.847   1.124 -0.0848 -0.0727 -0.1627
 6468TIP3    H140963   2.604   3.778   1.161 -2.1443 -2.4540 -1.3161
 6468TIP3    H240964   2.477   3.855   1.185 -0.2311  0.5960 -0.4159
 6469TIP3   OH240965   1.991   1.406   8.345 -0.2144 -0.6210  0.1645
 6469TIP3    H140966   2.021   1.331   8.294 -2.5556 -1.9085  0.5272
 6469TIP3    H240967   2.019   1.387   8.435  1.5575  0.3293 -0.1458
 6470TIP3   OH240968   5.933   0.900   1.541  0.0673 -0.1486  0.0018
 6470TIP3    H140969   5.913   0.978   1.490  0.6763 -0.4320 -0.7013
 6470TIP3    H240970   5.995   0.930   1.608  0.3047 -0.0305 -0.2700
 6471TIP3   OH240971   2.835   5.983   2.656 -0.3944 -0.5130  0.0062
 6471TIP3    H140972   2.885   5.948   2.730  1.8980  1.6648 -0.3737
 6471TIP3    H240973   2.884   5.955   2.579 -1.4439 -0.7731 -0.5849
 6472TIP3   OH240974   5.672   0.866   1.563  0.6460 -0.5684 -0.0337
 6472TIP3    H140975   5.643   0.953   1.591 -1.4278 -1.8095  2.0583
 6472TIP3    H240976   5.767   0.867   1.575  0.4450  0.7841  2.0301
 6473TIP3   OH240977   1.026   3.827   8.414 -0.2500 -0.0228 -0.2436
 6473TIP3    H140978   1.033   3.764   8.485 -1.7137 -1.4637 -1.3072
 6473TIP3    H240979   1.048   3.777   8.335 -0.7886  0.9692 -1.0404
 6474TIP3   OH240980   6.825   1.539   1.145 -0.6958 -0.0918 -0.1800
 6474TIP3    H140981   6.865   1.455   1.165 -1.5792  0.1921  3.3472
 6474TIP3    H240982   6.758   1.518   1.079  2.6494 -1.0776 -3.6869
 6475TIP3   OH240983   5.845   5.009   1.581 -0.6150 -0.1462 -0.3932
 6475TIP3    H140984   5.819   5.078   1.519  1.1917  1.1953  0.2733
 6475TIP3    H240985   5.824   4.927   1.535 -1.0614  0.8164 -1.9878
 6476TIP3   OH240986   1.048   3.495   1.608 -0.5878 -0.6474 -0.6901
 6476TIP3    H140987   1.033   3.569   1.667  0.2503 -0.5590 -0.5705
 6476TIP3    H240988   1.002   3.519   1.528 -0.9701 -0.3516 -0.3908
 6477TIP3   OH240989   0.967   5.259   1.762  0.1353  0.3956  0.9009
 6477TIP3    H140990   0.972   5.165   1.742  0.9149  0.2407  1.7864
 6477TIP3    H240991   1.058   5.287   1.770 -0.0563  1.4575 -0.3253
 6478TIP3   OH240992   4.274   0.927   1.012 -0.1686  0.0688 -0.5169
 6478TIP3    H140993   4.247   0.888   0.929  0.1637  1.3271 -1.2521
 6478TIP3    H240994   4.282   1.021   0.993  0.0307  0.3709  0.9102
 6479TIP3   OH240995   0.740   2.041   7.918  0.4494  0.0577  0.1006
 6479TIP3    H140996   0.789   2.000   7.847  0.6785  0.5799 -0.0546
 6479TIP3    H240997   0.653   2.001   7.914 -0.2335  1.5602 -1.8456
 6480TIP3   OH240998   6.038   0.059   7.774 -0.0610  0.2777  0.0700
 6480TIP3    H140999   6.018   0.099   7.858 -0.9519  0.1865 -0.0909
 6480TIP3    H241000   6.008  -0.031   7.782 -0.3551  0.3274 -0.4213
 6481TIP3   OH241001   1.711   1.669   7.789 -0.1425 -0.3200 -0.4643
 6481TIP3    H141002   1.692   1.611   7.716 -0.9976 -0.7042  0.0429
 6481TIP3    H241003   1.806   1.666   7.798 -0.1036 -0.9487 -1.0047
 6482TIP3   OH241004   4.495   5.060   8.507 -0.3028  0.4129  0.1233
 6482TIP3    H141005   4.449   5.046   8.590 -1.5084  0.0219 -0.5843
 6482TIP3    H241006   4.541   4.978   8.491  0.1822  0.5954  0.5394
 6483TIP3   OH241007   4.408   0.970   1.307 -0.0414  0.4754  0.5312
 6483TIP3    H141008   4.347   0.992   1.378  0.4854  1.3764  0.7241
 6483TIP3    H241009   4.435   1.055   1.272  0.4832  0.0618 -0.0821
 6484TIP3   OH241010   0.309   6.695   2.082  0.3602 -0.1453  0.5307
 6484TIP3    H141011   0.385   6.660   2.035  0.1897 -0.5415  0.5549
 6484TIP3    H241012   0.340   6.707   2.172  0.0856 -1.3064  0.7896
 6485TIP3   OH241013   2.631   5.853   7.110 -0.7256 -0.1101 -0.3512
 6485TIP3    H141014   2.536   5.848   7.121 -0.8277  0.0687 -1.0975
 6485TIP3    H241015   2.643   5.892   7.024 -0.0001 -2.7226 -1.5539
 6486TIP3   OH241016   0.035   6.749   0.963  0.6305  0.1716 -0.3754
 6486TIP3    H141017   0.124   6.717   0.975  1.3156  2.6416  2.0411
 6486TIP3    H241018   0.027   6.762   0.869  2.9569  0.1609 -0.6362
 6487TIP3   OH241019   5.274   6.434   7.763  0.2523  0.1292  0.2432
 6487TIP3    H141020   5.180   6.421   7.776 -0.0452 -3.5302 -3.3622
 6487TIP3    H241021   5.316   6.373   7.824 -0.1496 -2.4909 -1.9318
 6488TIP3   OH241022   1.544   0.453   2.280  0.4438 -0.2248 -0.4348
 6488TIP3    H141023   1.562   0.498   2.362  0.6607 -2.2224  0.6814
 6488TIP3    H241024   1.452   0.426   2.287 -0.3618  1.8219 -2.0359
 6489TIP3   OH241025   3.486   0.056   7.262  0.2485  0.0453  0.2608
 6489TIP3    H141026   3.449   0.004   7.334  2.8869 -1.4766  0.6571
 6489TIP3    H241027   3.458   0.010   7.183  0.7317 -0.7352  0.5271
 6490TIP3   OH241028   3.317   0.620   6.459  0.4837  0.6406  0.2612
 6490TIP3    H141029   3.292   0.678   6.387  0.5442  0.3644  0.0127
 6490TIP3    H241030   3.360   0.546   6.415  0.4176  0.4160  0.5733
 6491TIP3   OH241031   4.814   1.326   1.566 -0.1350 -0.1849  0.2135
 6491TIP3    H141032   4.796   1.383   1.640 -0.0216 -0.0111  0.1091
 6491TIP3    H241033   4.901   1.352   1.536  0.0335 -0.6011  0.3368
 6492TIP3   OH241034   1.033   5.599   7.616  0.4428  0.0512  0.3420
 6492TIP3    H141035   1.116   5.628   7.653 -0.3407 -0.2824  2.5630
 6492TIP3    H241036   0.967   5.649   7.664 -0.7465 -2.1245  1.1606
 6493TIP3   OH241037   3.253   5.789   0.254 -0.1750 -0.1068  0.2853
 6493TIP3    H141038   3.171   5.743   0.274 -0.5433  1.2131  2.0259
 6493TIP3    H241039   3.294   5.802   0.339  2.0075 -0.9512 -0.5793
 6494TIP3   OH241040   2.856   0.074   8.653 -0.6543 -0.0901  0.0395
 6494TIP3    H141041   2.784   0.080   8.716 -0.2946  0.2041  0.4180
 6494TIP3    H241042   2.847  -0.014   8.616 -1.5975  0.1677 -0.3842
 6495TIP3   OH241043   0.851   1.426   1.730 -0.9544  0.6531  0.2945
 6495TIP3    H141044   0.832   1.514   1.697 -3.4827  0.8049  1.8954
 6495TIP3    H241045   0.780   1.372   1.695 -1.2828 -0.0365  1.9535
 6496TIP3   OH241046   3.548   5.308   8.059 -0.3466 -0.3448  0.4523
 6496TIP3    H141047   3.611   5.341   7.995 -1.6417 -2.6142 -2.1997
 6496TIP3    H241048   3.469   5.358   8.041 -0.9659 -1.5759 -0.4191
 6497TIP3   OH241049   6.312   5.816   1.564  0.2465 -0.0932  0.3003
 6497TIP3    H141050   6.244   5.762   1.604  1.4560 -2.0795 -0.1882
 6497TIP3    H241051   6.378   5.826   1.632  1.5789 -2.1479 -0.6129
 6498TIP3   OH241052   6.359   1.324   8.320 -0.2124 -0.0392  0.7893
 6498TIP3    H141053   6.425   1.378   8.363  0.1903 -0.3492  0.5611
 6498TIP3    H241054   6.363   1.350   8.228 -1.8723  1.4670  1.0696
 6499TIP3   OH241055   0.596   0.484   8.275  0.2166 -0.7001  0.0474
 6499TIP3    H141056   0.598   0.407   8.331  1.2267 -1.2691 -0.7450
 6499TIP3    H241057   0.688   0.508   8.264 -0.1006  1.5508  1.4945
 6500TIP3   OH241058   3.567   5.341   6.671  0.0988 -0.3381 -0.0194
 6500TIP3    H141059   3.579   5.252   6.702  0.9927 -0.4096 -0.5299
 6500TIP3    H241060   3.627   5.349   6.597  0.1988  0.7627  0.1613
 6501TIP3   OH241061   4.698   6.369   1.381 -0.0952  0.0822 -0.5103
 6501TIP3    H141062   4.724   6.457   1.354  1.5594  0.0825  0.9055
 6501TIP3    H241063   4.739   6.311   1.317 -0.8036  0.3019 -1.1760
 6502TIP3   OH241064   4.433   1.854   0.014  0.1846  0.4907 -0.5688
 6502TIP3    H141065   4.509   1.870  -0.043  0.1760  3.7833  0.1252
 6502TIP3    H241066   4.466   1.794   0.081  1.9677  1.1654 -0.7695
 6503TIP3   OH241067   1.611   4.924   1.676  0.1500 -0.1713  0.1388
 6503TIP3    H141068   1.543   4.911   1.741 -1.2241 -3.7311 -1.7252
 6503TIP3    H241069   1.620   4.839   1.633  3.2658  1.1057 -2.1392
 6504TIP3   OH241070   0.427   2.581   1.559 -0.3394 -0.5094  0.0382
 6504TIP3    H141071   0.501   2.603   1.503 -1.0489 -0.3031 -0.8527
 6504TIP3    H241072   0.454   2.503   1.606  0.1101 -0.9687 -0.9484
 6505TIP3   OH241073   6.061   0.540   1.002 -0.1290  0.1540  0.4159
 6505TIP3    H141074   6.051   0.513   1.094  0.8552  1.4425  0.9189
 6505TIP3    H241075   6.000   0.612   0.991 -0.1472  0.0913  0.0823
 6506TIP3   OH241076   2.154   5.311   1.059  0.2048  0.1096  0.1614
 6506TIP3    H141077   2.242   5.293   1.092 -0.1018 -0.5537  0.6436
 6506TIP3    H241078   2.109   5.227   1.063 -0.4560  0.4431 -0.0751
 6507TIP3   OH241079   2.202   6.482   1.466 -0.2308  0.4232  0.2940
 6507TIP3    H141080   2.176   6.479   1.374  2.2639 -1.8632 -0.4675
 6507TIP3    H241081   2.120   6.475   1.515 -1.4919 -0.0350 -1.7837
 6508TIP3   OH241082   0.710   5.333   7.461  0.2832  0.0707 -0.6721
 6508TIP3    H141083   0.696   5.421   7.427 -0.6982 -0.6882 -2.3332
 6508TIP3    H241084   0.679   5.337   7.552  0.6595  1.5143 -0.5772
 6509TIP3   OH241085   5.336   3.612   8.516 -0.1255  0.3172  0.0454
 6509TIP3    H141086   5.356   3.664   8.594 -1.1322  0.4271  0.2420
 6509TIP3    H241087   5.422   3.591   8.479  0.3600  0.4181  1.0747
 6510TIP3   OH241088   5.979   4.686   0.694  0.2387  0.6453 -0.3131
 6510TIP3    H141089   6.069   4.678   0.662  0.7969  2.3134  0.7425
 6510TIP3    H241090   5.938   4.749   0.634 -0.3984 -0.4227 -1.0499
 6511TIP3   OH241091   6.581   6.617   1.296  0.6741  0.3718 -0.5570
 6511TIP3    H141092   6.592   6.648   1.207 -0.4792  0.8338 -0.5612
 6511TIP3    H241093   6.527   6.684   1.338 -1.9590 -1.5617 -0.5800
 6512TIP3   OH241094   3.571   0.377   8.642 -0.0095  0.1070 -0.4487
 6512TIP3    H141095   3.514   0.307   8.675 -0.9479  1.5449  1.1784
 6512TIP3    H241096   3.512   0.435   8.594 -0.0401  1.6563  1.3177
 6513TIP3   OH241097   6.011   1.952   7.708 -0.7180 -0.1580  0.1227
 6513TIP3    H141098   5.986   1.916   7.793  0.6544 -0.0102  0.6201
 6513TIP3    H241099   6.100   1.921   7.694  0.6584  3.1219  0.6915
 6514TIP3   OH241100   4.190   5.490   8.570 -0.3968 -0.7086 -0.5650
 6514TIP3    H141101   4.141   5.441   8.503 -3.0534 -0.9312  1.3628
 6514TIP3    H241102   4.180   5.582   8.545  0.4967 -0.8574 -1.5772
 6515TIP3   OH241103   2.004   2.105   0.562 -0.4410  0.1437  0.1217
 6515TIP3    H141104   2.096   2.111   0.585 -0.0587  1.1879 -1.5218
 6515TIP3    H241105   1.992   2.014   0.534  0.1956  0.1110 -0.0539
 6516TIP3   OH241106   2.800   6.604   0.252  1.0219 -0.2048  0.7314
 6516TIP3    H141107   2.842   6.560   0.179  1.1502 -0.6959  1.0955
 6516TIP3    H241108   2.768   6.686   0.215  1.4713 -0.2477  0.2304
 6517TIP3   OH241109   1.932   3.239   0.641 -0.6307  0.1114  0.6350
 6517TIP3    H141110   1.863   3.205   0.699 -0.2317  2.1335  2.4021
 6517TIP3    H241111   1.901   3.325   0.614  0.7615  0.6423  0.6588
 6518TIP3   OH241112   1.570   0.853   2.457 -0.8086 -0.1847 -0.0039
 6518TIP3    H141113   1.592   0.942   2.429 -1.0971  0.3274  1.3312
 6518TIP3    H241114   1.555   0.860   2.551 -3.6697 -1.0757 -0.3073
 6519TIP3   OH241115   2.146   0.499   0.414 -0.0005  0.2564  0.2956
 6519TIP3    H141116   2.053   0.518   0.421 -0.4049 -1.3592 -0.2518
 6519TIP3    H241117   2.159   0.478   0.322  1.1501  1.5034  0.1355
 6520TIP3   OH241118   3.868   2.719   7.267  0.5641 -0.2784  0.1663
 6520TIP3    H141119   3.902   2.636   7.235  0.5299  0.3271 -1.5148
 6520TIP3    H241120   3.921   2.785   7.223 -0.3470  0.6117  0.3853
 6521TIP3   OH241121   0.964   2.787   7.250  0.2971 -0.2611 -0.5396
 6521TIP3    H141122   1.010   2.703   7.245  2.1992  0.7438 -0.9216
 6521TIP3    H241123   0.931   2.802   7.162 -1.9311 -1.5240 -0.0177
 6522TIP3   OH241124   5.500   4.525   7.996 -0.0485  0.5262  0.0814
 6522TIP3    H141125   5.458   4.583   7.933 -0.8492  0.2224  0.3247
 6522TIP3    H241126   5.583   4.501   7.955 -0.9035 -0.3001 -1.2212
 6523TIP3   OH241127   0.456   3.756   8.397  0.0122 -0.1025 -0.7802
 6523TIP3    H141128   0.542   3.713   8.398  0.4219  0.6252 -2.2241
 6523TIP3    H241129   0.445   3.785   8.307  0.1423  3.5510  0.2053
 6524TIP3   OH241130   4.812   6.756   1.117 -0.5875 -0.0403 -0.6948
 6524TIP3    H141131   4.752   6.822   1.080 -0.6387  0.2824 -0.0449
 6524TIP3    H241132   4.883   6.751   1.053  0.2398  1.8537 -0.0169
 6525TIP3   OH241133   6.573   2.368   6.760 -0.0218 -0.3864 -0.0766
 6525TIP3    H141134   6.643   2.325   6.810 -0.5336 -2.4744 -1.0683
 6525TIP3    H241135   6.609   2.455   6.740  0.4689  0.3317  3.2542
 6526TIP3   OH241136   1.650   3.631   6.934  0.5239 -0.3674  0.2901
 6526TIP3    H141137   1.614   3.565   6.994 -0.5769  0.0416  0.0862
 6526TIP3    H241138   1.672   3.705   6.991 -0.8111  0.1413  0.1652
 6527TIP3   OH241139   1.798   0.852   1.675  0.0791 -0.1400  0.0761
 6527TIP3    H141140   1.807   0.771   1.725 -0.2872 -0.3983 -0.2677
 6527TIP3    H241141   1.764   0.916   1.738  1.7380  0.1531  0.7289
 6528TIP3   OH241142   5.692   6.012   6.966  0.2128  0.0697  0.4064
 6528TIP3    H141143   5.613   5.975   7.006 -1.0153 -1.3573 -3.0239
 6528TIP3    H241144   5.721   5.946   6.903  2.8477  1.5515 -0.0776
 6529TIP3   OH241145   1.398   3.261   0.372  0.3733  0.5312  0.2831
 6529TIP3    H141146   1.455   3.204   0.320  0.0869 -0.4373  1.0143
 6529TIP3    H241147   1.456   3.296   0.440  0.3408  0.4038  0.3759
 6530TIP3   OH241148   0.371   1.833   0.789 -0.2817 -0.0221  0.2425
 6530TIP3    H141149   0.442   1.892   0.765 -0.5907  0.9787  1.6294
 6530TIP3    H241150   0.322   1.820   0.708  1.7871 -1.2423 -0.9002
 6531TIP3   OH241151   0.124   6.778   8.152 -0.3649 -0.1298  0.1029
 6531TIP3    H141152   0.129   6.858   8.100 -1.4918 -1.0274 -1.4537
 6531TIP3    H241153   0.191   6.720   8.115 -0.2631 -0.2978  0.5361
 6532TIP3   OH241154   4.828   6.361   0.205  0.1181  0.1004 -0.2972
 6532TIP3    H141155   4.815   6.299   0.133 -0.6450  0.1436 -0.2082
 6532TIP3    H241156   4.773   6.327   0.276  2.2093 -0.9202  0.8968
 6533TIP3   OH241157   1.920   4.617   1.542 -0.4773  0.3890  0.4771
 6533TIP3    H141158   1.996   4.673   1.525  0.7170 -0.7497  1.8434
 6533TIP3    H241159   1.949   4.558   1.612 -2.4612 -0.4164  0.6697
 6534TIP3   OH241160   2.134   3.616   0.787 -0.2510  0.4665  0.7163
 6534TIP3    H141161   2.199   3.625   0.857 -1.0327  0.2734  1.4890
 6534TIP3    H241162   2.175   3.657   0.711  1.3624 -0.9218  0.7784
 6535TIP3   OH241163   6.065   4.020   6.654 -0.2534 -0.0736 -0.5940
 6535TIP3    H141164   5.998   3.951   6.658  0.4400 -0.7092  0.6277
 6535TIP3    H241165   6.047   4.075   6.730  0.8441 -0.4898 -0.0139
 6536TIP3   OH241166   3.040   1.172   8.610  0.1701 -0.0784 -0.4653
 6536TIP3    H141167   3.052   1.077   8.609 -0.5649 -0.1759 -1.3953
 6536TIP3    H241168   2.993   1.191   8.529  0.5626  1.1181 -0.4353
 6537TIP3   OH241169   4.268   3.106   6.726 -0.4513  0.0007 -0.3403
 6537TIP3    H141170   4.245   3.159   6.650  0.9643 -0.0098 -0.8029
 6537TIP3    H241171   4.305   3.026   6.688  0.0761 -0.0886  0.3475
 6538TIP3   OH241172   3.278   0.229   6.647 -0.1267 -0.1205 -0.7257
 6538TIP3    H141173   3.233   0.145   6.656 -0.2801  0.0070 -0.2948
 6538TIP3    H241174   3.353   0.209   6.590 -2.8780  0.4667 -5.0869
 6539TIP3   OH241175   5.023   1.901   0.946 -0.2826  0.0400 -0.3359
 6539TIP3    H141176   5.039   1.813   0.911 -0.9938 -0.0887 -0.3555
 6539TIP3    H241177   5.110   1.933   0.970 -0.1305 -1.1479  0.8135
 6540TIP3   OH241178   3.562   4.446   7.337 -0.1412  0.0830 -0.8640
 6540TIP3    H141179   3.653   4.471   7.352 -0.1152  0.0376 -0.9444
 6540TIP3    H241180   3.526   4.433   7.425  0.2205 -0.9207 -0.8447
 6541TIP3   OH241181   3.035   0.835   8.325  0.3334  0.1162 -0.2407
 6541TIP3    H141182   3.045   0.764   8.388 -0.3290 -1.1015 -1.4475
 6541TIP3    H241183   2.977   0.799   8.257 -1.9353  2.5704  0.2288
 6542TIP3   OH241184   1.272   2.764   0.581 -0.1063  0.4337  0.1271
 6542TIP3    H141185   1.223   2.689   0.615  0.0889 -0.3005 -1.1242
 6542TIP3    H241186   1.262   2.757   0.486  0.9992  1.2562 -0.0673
 6543TIP3   OH241187   2.641   6.616   1.332  0.4719  0.2673 -0.5817
 6543TIP3    H141188   2.595   6.576   1.258 -0.9653  0.9360 -0.0860
 6543TIP3    H241189   2.700   6.547   1.364  0.6090 -0.2516 -1.9027
 6544TIP3   OH241190   3.708   6.242   1.200 -0.1664 -0.1614  0.2193
 6544TIP3    H141191   3.772   6.224   1.131  1.0340 -0.6519  1.4164
 6544TIP3    H241192   3.638   6.291   1.155  2.1863  2.6740 -0.6892
 6545TIP3   OH241193   1.244   2.271   0.024  0.1438  0.1678  0.0336
 6545TIP3    H141194   1.254   2.190  -0.025 -1.5903 -0.3492  0.4763
 6545TIP3    H241195   1.178   2.320  -0.025  1.9563  1.8686 -0.8696
 6546TIP3   OH241196   0.696   2.485   2.106 -0.3500  0.3566  0.1749
 6546TIP3    H141197   0.602   2.494   2.121 -0.8047 -1.4131 -1.2586
 6546TIP3    H241198   0.707   2.395   2.077  1.4067  1.2394 -2.2544
 6547TIP3   OH241199   4.008   3.543   7.932 -0.8888  0.1515  0.5376
 6547TIP3    H141200   4.069   3.523   8.002 -2.0613 -1.3582  1.1859
 6547TIP3    H241201   3.946   3.604   7.971 -1.3662 -0.4525  0.7312
 6548TIP3   OH241202   6.894   6.617   0.307  0.2875 -0.2242  0.4764
 6548TIP3    H141203   6.972   6.589   0.353 -0.4497 -0.3907  1.6692
 6548TIP3    H241204   6.850   6.677   0.367 -0.6543 -0.3672 -0.0372
 6549TIP3   OH241205   2.814   6.062   8.377 -0.0600  0.2521  0.4010
 6549TIP3    H141206   2.885   6.121   8.351 -1.7369  2.1379 -0.1090
 6549TIP3    H241207   2.740   6.120   8.395 -0.4867 -1.2659  4.7408
 6550TIP3   OH241208   3.630   6.114   2.467  0.2538 -0.0096  0.0174
 6550TIP3    H141209   3.600   6.115   2.558  0.4346  2.4542  0.1046
 6550TIP3    H241210   3.706   6.172   2.466  2.0911 -2.2685 -1.1754
 6551TIP3   OH241211   6.216   0.295   7.302 -0.4360 -0.4589 -0.4618
 6551TIP3    H141212   6.287   0.235   7.324 -0.8895 -0.4691  1.0495
 6551TIP3    H241213   6.196   0.275   7.210  1.1484 -0.8009 -0.7722
 6552TIP3   OH241214   0.801   1.277   7.993  0.0608 -0.2333  0.0605
 6552TIP3    H141215   0.802   1.357   7.939  0.9655 -0.6180 -0.5182
 6552TIP3    H241216   0.889   1.273   8.030  0.4641 -1.6575 -0.9840
 6553TIP3   OH241217   5.080   5.434   1.504  0.2450  0.4717 -0.2492
 6553TIP3    H141218   5.024   5.399   1.434 -3.2087  2.3617  1.3877
 6553TIP3    H241219   5.141   5.362   1.522 -2.3962 -2.2978 -1.3524
 6554TIP3   OH241220   3.837   5.499   8.576 -0.0501 -0.0405  0.1034
 6554TIP3    H141221   3.870   5.478   8.664 -3.5476 -0.1507  1.5549
 6554TIP3    H241222   3.759   5.551   8.592  0.2244  1.5744 -3.0845
 6555TIP3   OH241223   5.343   5.825   0.956 -0.1725 -0.2678 -0.1004
 6555TIP3    H141224   5.301   5.911   0.945 -0.2124 -0.4144 -1.3369
 6555TIP3    H241225   5.305   5.789   1.035  0.1107  1.0076  0.6434
 6556TIP3   OH241226   2.743   1.059   2.746 -0.2192  0.0085 -0.3837
 6556TIP3    H141227   2.839   1.052   2.748 -0.2302 -0.1706 -0.4958
 6556TIP3    H241228   2.726   1.153   2.759 -0.0715 -0.1075  0.6710
 6557TIP3   OH241229   0.372   5.193   2.087  0.0480 -0.3246 -0.2097
 6557TIP3    H141230   0.355   5.102   2.110 -1.1323  0.1458  0.9358
 6557TIP3    H241231   0.456   5.213   2.129  0.9542 -1.1932 -1.5070
 6558TIP3   OH241232   3.717   5.640   7.147 -0.1145 -0.4466  0.2176
 6558TIP3    H141233   3.804   5.665   7.116 -1.1647  0.7963 -1.9983
 6558TIP3    H241234   3.706   5.549   7.119 -0.1248 -0.0911 -0.9638
 6559TIP3   OH241235   0.071   1.731   7.059 -0.7640  0.2980  0.0740
 6559TIP3    H141236   0.136   1.796   7.035  0.0004  0.5321  2.5659
 6559TIP3    H241237   0.019   1.772   7.128 -0.7179 -1.4361  1.2072
 6560TIP3   OH241238   3.861   0.149   8.108 -0.7464 -0.2269 -0.4119
 6560TIP3    H141239   3.853   0.139   8.203 -4.5008 -1.3900 -0.6987
 6560TIP3    H241240   3.874   0.060   8.075  0.4829  0.1592 -1.0342
 6561TIP3   OH241241   1.617   0.200   1.511 -0.1250 -0.3817 -0.0082
 6561TIP3    H141242   1.565   0.213   1.590  2.2617 -0.2667  1.6511
 6561TIP3    H241243   1.684   0.269   1.515 -0.5072  0.2185 -2.6493
 6562TIP3   OH241244   2.082   4.848   1.475 -0.1539  0.0481  0.2754
 6562TIP3    H141245   2.099   4.942   1.481  1.1649 -0.2378  1.8145
 6562TIP3    H241246   2.163   4.810   1.442 -0.3195 -0.6334  0.6176
 6563TIP3   OH241247   5.995   4.977   1.952  0.1961  0.0788 -0.2596
 6563TIP3    H141248   6.036   5.024   2.024 -0.2968  0.3487 -0.1484
 6563TIP3    H241249   5.998   4.885   1.979  0.2959  0.1458 -0.0376
 6564TIP3   OH241250   3.245   3.870   6.071 -0.6049  0.1809 -0.3076
 6564TIP3    H141251   3.232   3.957   6.110 -0.7343  0.3705 -0.7627
 6564TIP3    H241252   3.224   3.809   6.141  0.1671  0.5171  0.2303
 6565TIP3   OH241253   0.918   1.454   8.514 -0.2734  0.4330  0.2121
 6565TIP3    H141254   0.968   1.380   8.480  0.8658  1.1579  0.2540
 6565TIP3    H241255   0.827   1.434   8.491  0.2361 -0.0121 -1.5772
 6566TIP3   OH241256   4.791   3.319   1.753  0.5335  0.1974  0.0278
 6566TIP3    H141257   4.747   3.262   1.816  0.1491  0.8856  0.3786
 6566TIP3    H241258   4.804   3.263   1.676 -2.1809  0.3466 -0.6143
 6567TIP3   OH241259   3.663   4.346   8.639  0.2095  0.1728 -0.0376
 6567TIP3    H141260   3.580   4.303   8.617  0.5292 -0.6940  0.4129
 6567TIP3    H241261   3.639   4.438   8.649 -0.2343  0.4035 -2.4617
 6568TIP3   OH241262   1.274   0.349   1.581 -0.3008  0.1641 -0.4737
 6568TIP3    H141263   1.268   0.253   1.582  1.0901  0.0467 -0.9390
 6568TIP3    H241264   1.203   0.378   1.638 -0.6838 -1.1441 -0.2413
 6569TIP3   OH241265   6.157   4.646   7.438  0.1254 -0.4257 -0.4159
 6569TIP3    H141266   6.064   4.658   7.419  0.5452 -0.1796 -2.5675
 6569TIP3    H241267   6.164   4.656   7.533 -1.7705  1.5734 -0.4116
 6570TIP3   OH241268   1.506   6.793   0.635 -0.0683  0.5484 -0.1459
 6570TIP3    H141269   1.542   6.882   0.641 -0.8805  0.8349  0.5736
 6570TIP3    H241270   1.434   6.791   0.698 -0.6133 -0.3570 -0.7662
 6571TIP3   OH241271   5.959   1.294   6.437  0.6558 -0.2389  0.0926
 6571TIP3    H141272   5.962   1.389   6.454  1.2535  0.0997 -1.7312
 6571TIP3    H241273   5.866   1.273   6.437  0.4568  0.5748 -0.5275
 6572TIP3   OH241274   0.565   4.223   7.510  0.1544 -0.0588 -0.3633
 6572TIP3    H141275   0.587   4.142   7.464  3.9268 -0.9862  2.5780
 6572TIP3    H241276   0.533   4.195   7.595 -0.5052  1.5769 -0.0276
 6573TIP3   OH241277   5.829   4.583   7.818  0.1454  0.5183 -0.4043
 6573TIP3    H141278   5.794   4.623   7.897  0.9433  0.2720  0.0883
 6573TIP3    H241279   5.902   4.640   7.793  0.6742 -0.0752 -0.2482
 6574TIP3   OH241280   6.527   2.124   0.034 -0.0875 -0.2465  0.0625
 6574TIP3    H141281   6.432   2.116   0.029 -0.4924  2.7164  1.3432
 6574TIP3    H241282   6.549   2.093   0.121  0.0311 -0.1716  0.0590
 6575TIP3   OH241283   5.944   0.361   0.336 -0.4681 -0.1935  0.3881
 6575TIP3    H141284   5.959   0.446   0.379 -0.8315  0.6369 -1.0561
 6575TIP3    H241285   6.013   0.304   0.369  1.0414  1.2526 -0.1529
 6576TIP3   OH241286   0.433   5.161   7.854 -0.2963 -0.1555  0.0705
 6576TIP3    H141287   0.391   5.084   7.815  0.1242 -1.3914  1.8928
 6576TIP3    H241288   0.361   5.223   7.868 -0.4572  0.3166 -2.4911
 6577TIP3   OH241289   0.824   3.677   6.297 -0.6918  0.1759  0.0606
 6577TIP3    H141290   0.799   3.756   6.248  0.6176 -0.0127 -0.9493
 6577TIP3    H241291   0.740   3.637   6.321 -1.4073  2.2487  1.2647
 6578TIP3   OH241292   6.569   4.634   1.525  0.1200  0.0955  0.5061
 6578TIP3    H141293   6.649   4.619   1.475  0.2482  0.7241  0.5164
 6578TIP3    H241294   6.591   4.705   1.585 -0.9345  1.4888 -0.6700
 6579TIP3   OH241295   5.243   3.847   1.694  0.0757 -0.7505  0.9021
 6579TIP3    H141296   5.292   3.766   1.680 -0.5787 -1.2054  1.1619
 6579TIP3    H241297   5.190   3.829   1.772 -0.5341 -0.2988  0.5997
 6580TIP3   OH241298   3.285   3.794   7.024  0.2083  0.2036 -0.3098
 6580TIP3    H141299   3.223   3.769   6.955 -0.9567 -0.7762  1.0323
 6580TIP3    H241300   3.254   3.880   7.054  0.1012  0.1661 -0.3130
 6581TIP3   OH241301   0.518   5.892   2.228 -0.0364 -0.0148 -0.4116
 6581TIP3    H141302   0.575   5.815   2.235  1.4702  1.0690 -0.5551
 6581TIP3    H241303   0.560   5.959   2.282  0.6313  1.8492 -3.0764
 6582TIP3   OH241304   0.277   1.838   6.459  0.2704  0.0193 -0.2956
 6582TIP3    H141305   0.366   1.829   6.492  0.4798  1.2895 -0.4640
 6582TIP3    H241306   0.278   1.919   6.408 -1.3171  0.8537  0.8916
 6583TIP3   OH241307   5.947   3.987   7.766 -0.7751  0.7385  0.7049
 6583TIP3    H141308   6.009   4.058   7.781 -0.7336  0.5304  1.5771
 6583TIP3    H241309   5.992   3.929   7.704 -0.1180  0.6266  1.2718
 6584TIP3   OH241310   5.900   2.051   6.829 -0.4177  0.5625 -0.0782
 6584TIP3    H141311   5.811   2.086   6.829 -0.3387  0.9006  2.1575
 6584TIP3    H241312   5.890   1.962   6.794 -1.3531  1.1070 -1.2868
 6585TIP3   OH241313   0.906   0.532   1.530  0.0593 -0.4331  0.2436
 6585TIP3    H141314   0.861   0.611   1.503  0.7401  0.2270  1.0088
 6585TIP3    H241315   0.874   0.514   1.618  1.5479  0.2712  0.9620
 6586TIP3   OH241316   2.906   6.536   0.801 -0.0166 -0.2225 -0.1507
 6586TIP3    H141317   2.823   6.545   0.755  0.4221  0.3329 -0.8629
 6586TIP3    H241318   2.883   6.542   0.894 -0.7826 -0.2681 -0.3279
 6587TIP3   OH241319   3.821   6.257   0.934 -0.1028  0.0700  0.1704
 6587TIP3    H141320   3.832   6.307   0.854 -0.4138  1.5289  0.9994
 6587TIP3    H241321   3.903   6.271   0.982 -0.5192  0.4953  0.7770
 6588TIP3   OH241322   4.925   2.922   8.020 -0.0819  0.7474 -0.3939
 6588TIP3    H141323   4.976   2.867   7.960  0.6338 -0.6786  1.3943
 6588TIP3    H241324   4.838   2.928   7.980  0.0107 -1.2079 -0.9926
 6589TIP3   OH241325   0.315   6.478   0.567 -0.1989 -0.6059  0.1713
 6589TIP3    H141326   0.322   6.476   0.662 -0.6451  2.3237  0.3697
 6589TIP3    H241327   0.405   6.488   0.536 -0.1201 -0.8521  0.3214
 6590TIP3   OH241328   3.811   2.983   8.155  0.9794 -0.3451  0.9284
 6590TIP3    H141329   3.760   2.987   8.074  1.9274  0.4620  0.3406
 6590TIP3    H241330   3.755   3.026   8.220  0.5639 -0.2031  0.4855
 6591TIP3   OH241331   3.432   2.860   0.147 -0.4258 -0.5669 -0.3434
 6591TIP3    H141332   3.362   2.814   0.192 -0.5275 -0.3388 -0.2660
 6591TIP3    H241333   3.388   2.929   0.097 -0.1682  0.2814  0.5770
 6592TIP3   OH241334   6.806   3.966   8.001 -0.1984 -0.8568 -0.7040
 6592TIP3    H141335   6.851   3.885   8.024  1.2138  0.2269  0.5241
 6592TIP3    H241336   6.860   4.005   7.932  0.6088  0.2838  0.5360
 6593TIP3   OH241337   3.049   1.805   7.372  0.3759 -0.1538 -0.3043
 6593TIP3    H141338   2.974   1.827   7.428  2.4426 -2.0956  3.6925
 6593TIP3    H241339   3.024   1.722   7.331 -0.6556  0.5949 -1.2390
 6594TIP3   OH241340   0.914   3.627   0.484 -0.4269  0.1091 -0.1973
 6594TIP3    H141341   0.868   3.543   0.479 -1.8773  0.7040  1.7618
 6594TIP3    H241342   0.846   3.693   0.470  0.5232  0.9770 -0.8061
 6595TIP3   OH241343   4.554   2.514   2.391 -0.6453 -0.2773  0.1100
 6595TIP3    H141344   4.641   2.514   2.431 -0.7634  0.8367  0.3992
 6595TIP3    H241345   4.540   2.423   2.364  1.3784 -0.1820 -1.6051
 6596TIP3   OH241346   1.567   6.244   7.849  0.1523 -0.0248  0.0614
 6596TIP3    H141347   1.619   6.171   7.883 -0.6040 -0.2851  0.6998
 6596TIP3    H241348   1.598   6.321   7.896  0.7553  0.0269 -0.4081
 6597TIP3   OH241349   4.788   5.937   7.506  0.5585 -0.5838 -0.2104
 6597TIP3    H141350   4.712   5.945   7.564 -1.2902  0.6301 -2.6013
 6597TIP3    H241351   4.858   5.984   7.551 -1.0023  0.9595  0.7208
 6598TIP3   OH241352   0.284   3.846   7.085 -0.7737 -0.5553 -0.4302
 6598TIP3    H141353   0.314   3.869   6.997 -1.2849  1.4852 -0.1072
 6598TIP3    H241354   0.189   3.848   7.080 -0.8270  1.1128  0.4955
 6599TIP3   OH241355   6.325   1.391   7.768  0.1870 -0.1134  0.6451
 6599TIP3    H141356   6.307   1.471   7.720 -4.0250 -0.8791  0.5457
 6599TIP3    H241357   6.308   1.321   7.704  0.0136 -1.0883  1.7305
 6600TIP3   OH241358   4.065   1.094   8.662 -0.2239 -0.1127 -0.3206
 6600TIP3    H141359   4.087   1.182   8.692 -0.4875  0.0549 -0.6170
 6600TIP3    H241360   4.123   1.078   8.588  0.3347 -0.4759  0.1831
 6601TIP3   OH241361   5.175   5.066   2.060  0.1629 -0.3494  0.3098
 6601TIP3    H141362   5.242   5.133   2.047 -0.7302  0.2045 -2.0479
 6601TIP3    H241363   5.124   5.097   2.135  2.0667 -0.4341  1.6965
 6602TIP3   OH241364   6.806   5.252   0.524  0.6249  0.4740 -0.2975
 6602TIP3    H141365   6.859   5.229   0.600 -1.7688 -1.0367  1.0364
 6602TIP3    H241366   6.807   5.348   0.523  2.4950  0.4992  0.2559
 6603TIP3   OH241367   4.187   4.705   1.054  0.1630  0.4776 -0.0531
 6603TIP3    H141368   4.235   4.787   1.066  1.0852 -0.3694  2.8986
 6603TIP3    H241369   4.255   4.638   1.048 -0.5992 -0.3670  0.5477
 6604TIP3   OH241370   3.387   3.017   0.843 -0.0781  0.1494 -0.5489
 6604TIP3    H141371   3.429   3.030   0.928 -1.7447  0.6471  0.2317
 6604TIP3    H241372   3.305   3.067   0.848 -0.1318  0.3490 -2.5186
 6605TIP3   OH241373   5.676   4.335   0.457 -0.4243  0.8782 -0.4286
 6605TIP3    H141374   5.629   4.261   0.494  0.7910 -0.9197 -2.2189
 6605TIP3    H241375   5.736   4.363   0.526  1.1721 -1.7894 -0.5764
 6606TIP3   OH241376   2.235   4.564   0.029  0.1421  0.2409 -0.4730
 6606TIP3    H141377   2.148   4.606   0.031  0.7414  1.5575  1.3175
 6606TIP3    H241378   2.232   4.500   0.100 -0.4864 -2.3573 -2.6725
 6607TIP3   OH241379   3.717   0.800   0.457  0.2003 -0.2427 -0.6898
 6607TIP3    H141380   3.798   0.850   0.452  0.5364 -0.8648 -1.7874
 6607TIP3    H241381   3.648   0.865   0.449  0.5343  0.4301  1.3802
 6608TIP3   OH241382   6.593   0.977   6.606  0.1847 -0.3065  0.2139
 6608TIP3    H141383   6.556   0.960   6.693 -1.3389  1.5555 -0.0113
 6608TIP3    H241384   6.674   1.024   6.623  0.0143 -0.1596  0.6299
 6609TIP3   OH241385   6.678   5.815   0.497  0.3214  0.0756  0.0377
 6609TIP3    H141386   6.611   5.865   0.451  0.7198  0.9743  0.4057
 6609TIP3    H241387   6.638   5.795   0.582  1.5380  3.4113  1.6159
 6610TIP3   OH241388   2.451   5.464   6.066 -0.0844 -0.3110 -0.3388
 6610TIP3    H141389   2.441   5.376   6.103 -1.3069  0.1808  0.5949
 6610TIP3    H241390   2.362   5.501   6.069  0.6287  1.4494  0.6181
 6611TIP3   OH241391   6.886   2.370   7.789  0.4777  0.1006 -0.2302
 6611TIP3    H141392   6.800   2.334   7.806  1.2362 -2.2289 -0.9509
 6611TIP3    H241393   6.942   2.332   7.857  0.6761  3.1495  1.4918
 6612TIP3   OH241394   2.727   5.522   6.732 -0.4578 -0.8915 -0.0308
 6612TIP3    H141395   2.708   5.561   6.818 -1.0160 -1.6108  0.1843
 6612TIP3    H241396   2.791   5.454   6.750  0.0405 -0.4976 -0.3112
 6613TIP3   OH241397   6.315   4.245   6.428 -0.7365 -0.8385  0.3257
 6613TIP3    H141398   6.377   4.237   6.356  1.1054  0.8778  1.6194
 6613TIP3    H241399   6.314   4.158   6.469 -1.0073 -1.5271 -1.0711
 6614TIP3   OH241400   0.603   0.364   0.194  0.6397  0.0887 -0.1408
 6614TIP3    H141401   0.662   0.438   0.203 -0.6936  1.2254 -0.5201
 6614TIP3    H241402   0.646   0.293   0.242  1.4301  1.4001  1.1476
 6615TIP3   OH241403   3.098   2.558   0.851  0.0284 -0.6379 -0.1376
 6615TIP3    H141404   3.034   2.586   0.917  0.4083  1.1656 -0.4740
 6615TIP3    H241405   3.058   2.482   0.809 -1.3420 -0.2771  0.4743
 6616TIP3   OH241406   2.314   1.188   0.630  0.4888  1.1012 -0.2324
 6616TIP3    H141407   2.365   1.110   0.655  0.2705  1.3351  1.0285
 6616TIP3    H241408   2.333   1.252   0.699  0.8571  2.2671 -1.3765
 6617TIP3   OH241409   1.716   5.622   1.482  0.4554  0.5498 -0.5105
 6617TIP3    H141410   1.723   5.527   1.475 -0.7909  0.3203  0.9594
 6617TIP3    H241411   1.788   5.647   1.541  0.9096  0.5643 -1.0585
 6618TIP3   OH241412   1.468   2.124   7.813 -0.0411 -0.0537 -0.3249
 6618TIP3    H141413   1.471   2.150   7.721 -0.4791  0.4182 -0.2141
 6618TIP3    H241414   1.448   2.030   7.811  0.5185 -0.1665 -0.7164
 6619TIP3   OH241415   4.578   4.666   2.358 -0.6817 -0.3464 -0.4520
 6619TIP3    H141416   4.574   4.740   2.298  0.2114 -1.1663 -1.5606
 6619TIP3    H241417   4.661   4.677   2.404 -0.7778 -0.3964 -0.2670
 6620TIP3   OH241418   3.817   2.397   8.235  0.4910  0.5009  0.3611
 6620TIP3    H141419   3.911   2.380   8.244  0.5179  0.5763  0.2105
 6620TIP3    H241420   3.790   2.345   8.159  0.6975  1.6345 -0.5033
 6621TIP3   OH241421   6.707   0.692   8.471 -0.2453 -0.2087 -0.2160
 6621TIP3    H141422   6.698   0.642   8.390 -2.1639 -1.6711  0.7962
 6621TIP3    H241423   6.684   0.630   8.540  3.1531  0.4273  1.7058
 6622TIP3   OH241424   6.647   6.748   1.051  0.5385  0.2356  0.1595
 6622TIP3    H141425   6.738   6.751   1.022  0.2015  0.3469 -0.9284
 6622TIP3    H241426   6.627   6.838   1.077  0.7291  0.2173  0.3735
 6623TIP3   OH241427   2.866   0.837   0.633 -0.0541 -0.1025  0.2542
 6623TIP3    H141428   2.957   0.847   0.604  0.5042  0.1447  1.9512
 6623TIP3    H241429   2.867   0.758   0.687 -0.8013 -0.0008  0.4213
 6624TIP3   OH241430   3.599   0.843   1.750 -0.0412  0.9158  0.4078
 6624TIP3    H141431   3.575   0.760   1.791  2.3368  0.8252  1.8154
 6624TIP3    H241432   3.589   0.907   1.821 -0.7189  1.6594 -0.3378
 6625TIP3   OH241433   5.804   2.880   1.262 -0.0639 -0.7775 -0.4054
 6625TIP3    H141434   5.751   2.915   1.333  0.8522  1.1131 -0.5845
 6625TIP3    H241435   5.782   2.935   1.187  1.5869 -0.4032 -0.6506
 6626TIP3   OH241436   6.606   1.945   8.491 -0.5147  0.1039  0.3517
 6626TIP3    H141437   6.596   2.019   8.550 -0.8703  0.3617 -0.0231
 6626TIP3    H241438   6.554   1.875   8.531 -1.7777  0.6531 -0.2610
 6627TIP3   OH241439   0.837   3.071   1.082 -0.6472  0.1988  0.6253
 6627TIP3    H141440   0.763   3.122   1.113 -1.1648  0.6037 -1.1429
 6627TIP3    H241441   0.884   3.131   1.023  1.4771  0.1690  2.1477
 6628TIP3   OH241442   4.320   0.519   2.279  0.1215  0.6565  0.0016
 6628TIP3    H141443   4.385   0.550   2.342  0.7204 -0.3556 -0.0992
 6628TIP3    H241444   4.355   0.437   2.247 -0.6451  0.6865 -0.9517
 6629TIP3   OH241445   4.349   2.585   8.003  0.1980 -0.3578  0.4169
 6629TIP3    H141446   4.357   2.680   8.014  0.5338 -0.1314 -1.4328
 6629TIP3    H241447   4.418   2.549   8.059  0.5274  0.5299  0.6024
 6630TIP3   OH241448   3.166   2.096   0.422  0.2753  0.3832  0.4302
 6630TIP3    H141449   3.233   2.137   0.367 -0.4934  1.7980  0.4891
 6630TIP3    H241450   3.207   2.087   0.508  1.4894 -1.8489 -0.3166
 6631TIP3   OH241451   4.279   6.021   2.675 -0.9206  0.4273 -0.2517
 6631TIP3    H141452   4.354   6.061   2.630  0.1346 -0.3975  0.7458
 6631TIP3    H241453   4.216   6.092   2.682 -0.2673  1.1285 -1.1544
 6632TIP3   OH241454   1.565   6.106   0.534  0.2119 -0.1927  0.4866
 6632TIP3    H141455   1.476   6.070   0.526 -0.2185  0.5765  1.6342
 6632TIP3    H241456   1.603   6.094   0.447 -1.1072 -0.3032 -0.0987
 6633TIP3   OH241457   1.412   3.907   1.254 -0.2359 -0.4034  0.0791
 6633TIP3    H141458   1.426   3.898   1.348  0.7638 -0.9862 -0.1106
 6633TIP3    H241459   1.409   3.817   1.221 -3.4841 -0.3331 -0.0912
 6634TIP3   OH241460   3.890   2.370   0.644 -0.2369  0.5701 -0.5708
 6634TIP3    H141461   3.909   2.388   0.552 -1.0341 -1.8450 -1.2991
 6634TIP3    H241462   3.827   2.437   0.670  1.3482  2.3782 -1.2014
 6635TIP3   OH241463   0.944   1.437   0.392 -0.2661  0.2626 -0.1870
 6635TIP3    H141464   0.929   1.529   0.371  0.6851  0.4755  0.0566
 6635TIP3    H241465   0.872   1.414   0.450 -0.7515  0.7259 -0.5888
 6636TIP3   OH241466   4.231   5.866   1.122  0.0768 -0.1194 -0.0466
 6636TIP3    H141467   4.310   5.880   1.173  0.3481 -0.4076 -0.3878
 6636TIP3    H241468   4.161   5.858   1.188  0.5874 -1.6714  0.3644
 6637TIP3   OH241469   0.044   3.520   1.011  0.2356 -0.1721  0.1105
 6637TIP3    H141470  -0.006   3.575   1.073 -1.1066 -1.1428 -0.0578
 6637TIP3    H241471   0.135   3.532   1.037 -0.2073  0.3422  1.5435
 6638TIP3   OH241472   5.902   1.985   0.147  0.1211  0.2243  0.4668
 6638TIP3    H141473   5.852   1.921   0.198 -0.5207  1.1812  1.0620
 6638TIP3    H241474   5.989   1.946   0.138  0.3535  0.1254  2.5356
 6639TIP3   OH241475   3.912   1.975   7.744 -0.6496  0.2496  0.3204
 6639TIP3    H141476   3.924   1.977   7.649 -1.6659  1.1939  0.1890
 6639TIP3    H241477   3.991   1.932   7.777 -0.2100  0.0404 -0.9335
 6640TIP3   OH241478   5.204   0.173   0.862  0.4497  0.1142  0.1467
 6640TIP3    H141479   5.167   0.168   0.950 -1.2723 -3.5873 -0.5941
 6640TIP3    H241480   5.281   0.115   0.865  1.1850  1.0167 -0.5075
 6641TIP3   OH241481   1.421   6.320   6.983  0.4243  0.2889  0.9090
 6641TIP3    H141482   1.459   6.304   6.897  0.2983  0.3941  0.8332
 6641TIP3    H241483   1.330   6.293   6.975 -0.3334  2.7534  0.2061
 6642TIP3   OH241484   0.700   6.232   8.658 -0.0822  0.2939  0.2083
 6642TIP3    H141485   0.690   6.137   8.666 -1.6596  0.4484  0.3517
 6642TIP3    H241486   0.688   6.249   8.564 -0.6999  0.4342  0.3094
 6643TIP3   OH241487   1.017   4.957   0.744 -0.1347  0.2839 -0.8854
 6643TIP3    H141488   1.025   5.012   0.666 -1.2816 -0.1153 -1.3077
 6643TIP3    H241489   1.020   5.019   0.817  0.4416  0.7117 -1.2595
 6644TIP3   OH241490   6.568   0.653   0.174  0.2475 -0.1394  0.0889
 6644TIP3    H141491   6.508   0.703   0.120  0.4362 -1.6585 -1.6053
 6644TIP3    H241492   6.625   0.719   0.214  0.5903  1.0164 -2.1763
 6645TIP3   OH241493   6.631   0.140   0.982 -0.8907 -0.2368 -0.1687
 6645TIP3    H141494   6.637   0.123   0.888 -0.6566  0.6050 -0.3073
 6645TIP3    H241495   6.566   0.209   0.991 -1.4985 -0.8592  0.3628
 6646TIP3   OH241496   6.123   4.321   7.613 -0.0235 -0.5385  0.7149
 6646TIP3    H141497   6.071   4.273   7.549  1.3455  0.1762 -0.9945
 6646TIP3    H241498   6.075   4.403   7.627  0.8690  0.4102 -1.3515
 6647TIP3   OH241499   3.224   6.832   6.650  0.5411 -0.3339  0.6423
 6647TIP3    H141500   3.160   6.769   6.681 -1.1024  0.4227 -1.0586
 6647TIP3    H241501   3.305   6.782   6.643 -0.5955 -2.1520 -0.1971
 6648TIP3   OH241502   5.144   0.682   7.921  0.5303 -0.4395  0.0972
 6648TIP3    H141503   5.179   0.724   7.843  1.4122 -1.0294  0.1537
 6648TIP3    H241504   5.188   0.726   7.994  0.2892 -0.4130  0.2294
 6649TIP3   OH241505   0.829   3.362   1.745 -0.1429 -0.4854 -0.5262
 6649TIP3    H141506   0.879   3.294   1.790  1.9288 -0.4688 -2.6544
 6649TIP3    H241507   0.891   3.402   1.684 -2.5968 -0.0800 -2.9451
 6650TIP3   OH241508   0.481   4.694   0.547 -0.3531 -0.0698 -0.4888
 6650TIP3    H141509   0.561   4.739   0.518  0.3457 -1.6050 -1.0242
 6650TIP3    H241510   0.426   4.690   0.469 -1.1808  1.3702 -0.0183
 6651TIP3   OH241511   4.769   6.466   7.482  0.7919 -0.1514  0.0569
 6651TIP3    H141512   4.758   6.387   7.429  1.4154  1.1974 -2.2301
 6651TIP3    H241513   4.833   6.518   7.434  1.4572  1.1638  2.2329
 6652TIP3   OH241514   4.706   3.148   0.444 -0.0307 -0.4774 -0.1678
 6652TIP3    H141515   4.704   3.235   0.484 -1.1517 -1.4617  2.1352
 6652TIP3    H241516   4.771   3.101   0.495  1.5785 -0.6669 -2.2833
 6653TIP3   OH241517   2.797   4.970   1.611 -0.1712 -0.1644 -0.0197
 6653TIP3    H141518   2.832   5.041   1.664 -1.9121 -0.4592  1.6719
 6653TIP3    H241519   2.854   4.965   1.535  2.3598  0.4476  1.7111
 6654TIP3   OH241520   3.648   6.575   1.033  0.1232 -0.1890  0.3261
 6654TIP3    H141521   3.608   6.625   0.962 -0.4074 -0.2325  0.5866
 6654TIP3    H241522   3.691   6.501   0.990 -2.6729 -1.8962  0.2284
 6655TIP3   OH241523   4.847   0.367   8.342 -0.1755 -0.6884  0.4161
 6655TIP3    H141524   4.892   0.315   8.409 -1.5969 -1.5489  0.7510
 6655TIP3    H241525   4.758   0.378   8.377 -0.7466 -0.5705 -1.0196
 6656TIP3   OH241526   0.555   1.209   1.286  0.2333 -0.1002  0.0329
 6656TIP3    H141527   0.648   1.232   1.289  0.4931 -1.1025  0.1043
 6656TIP3    H241528   0.518   1.246   1.366  0.7715 -0.4947  0.4723
 6657TIP3   OH241529   1.325   5.401   0.545 -0.5989  0.3156 -0.0279
 6657TIP3    H141530   1.279   5.474   0.588 -0.5361  0.5431 -0.3449
 6657TIP3    H241531   1.273   5.324   0.566  0.0400  0.2391  1.4285
 6658TIP3   OH241532   2.600   5.249   6.914  0.1013  0.2346  0.6108
 6658TIP3    H141533   2.528   5.312   6.916  0.3692  0.5305  1.3456
 6658TIP3    H241534   2.679   5.303   6.921  0.2799 -0.2462  3.3528
 6659TIP3   OH241535   0.230   4.475   0.277  0.2927 -0.2176  0.1969
 6659TIP3    H141536   0.173   4.516   0.213  0.0658  1.9166  1.6483
 6659TIP3    H241537   0.317   4.475   0.236 -0.4399 -2.2567 -1.4869
 6660TIP3   OH241538   1.897   4.313   8.513 -0.4189  0.1791 -0.4118
 6660TIP3    H141539   1.866   4.395   8.475 -0.0137  0.4565 -0.1486
 6660TIP3    H241540   1.914   4.333   8.604  0.5378  0.0385 -0.5437
 6661TIP3   OH241541   1.086   2.840   2.072  0.3657  0.1607 -0.0787
 6661TIP3    H141542   1.079   2.769   2.007 -1.6765 -0.1732  0.4585
 6661TIP3    H241543   1.056   2.918   2.025  0.6446  0.2832 -0.0566
 6662TIP3   OH241544   5.010   0.200   7.766  0.8017 -0.2237  0.0452
 6662TIP3    H141545   4.914   0.204   7.767  0.7749  0.5964 -1.6244
 6662TIP3    H241546   5.038   0.272   7.823  0.4479 -0.7493  0.9017
 6663TIP3   OH241547   1.097   0.870   7.554 -0.4086 -0.0950  0.3293
 6663TIP3    H141548   1.166   0.805   7.560  0.3441  0.6123 -0.3981
 6663TIP3    H241549   1.094   0.910   7.641  0.9533  0.7001  0.0425
 6664TIP3   OH241550   5.208   6.058   7.251 -0.2007  0.1132 -0.0003
 6664TIP3    H141551   5.256   6.058   7.168  1.5661  0.9141  0.9536
 6664TIP3    H241552   5.220   5.970   7.285 -2.3058 -0.7341 -1.2835
 6665TIP3   OH241553   1.569   1.083   7.279  0.5139  0.1976 -0.5498
 6665TIP3    H141554   1.604   1.000   7.311  1.5780  1.2511  1.2216
 6665TIP3    H241555   1.518   1.118   7.353 -0.1710  0.9832 -1.3647
 6666TIP3   OH241556   3.087   5.231   7.712 -0.7379  0.1557 -0.5006
 6666TIP3    H141557   3.068   5.139   7.730 -1.3289  0.1921 -0.9205
 6666TIP3    H241558   3.161   5.251   7.769 -1.8126 -0.0523  1.0252
 6667TIP3   OH241559   3.352   6.365   0.797 -0.0385  0.6268 -0.3969
 6667TIP3    H141560   3.374   6.310   0.722 -2.1900 -0.0582 -0.5846
 6667TIP3    H241561   3.264   6.337   0.823  0.7778  0.5836  2.6360
 6668TIP3   OH241562   5.594   2.967   0.386 -0.2579  0.4269  0.4057
 6668TIP3    H141563   5.638   2.882   0.386 -0.9363  0.0509 -0.6302
 6668TIP3    H241564   5.503   2.946   0.366 -0.3277  1.4446 -0.3969
 6669TIP3   OH241565   3.213   3.687   6.288  0.0131 -0.3955 -0.1775
 6669TIP3    H141566   3.151   3.614   6.290 -1.5587  0.8671 -0.1351
 6669TIP3    H241567   3.298   3.648   6.305 -1.1133 -1.8672  2.5523
 6670TIP3   OH241568   0.615   0.442   0.680 -0.5285 -0.0633  0.1945
 6670TIP3    H141569   0.578   0.462   0.594  2.0743  0.7086 -0.8572
 6670TIP3    H241570   0.588   0.352   0.698  0.4907 -0.9842 -2.4172
 6671TIP3   OH241571   3.546   3.290   6.440 -0.0225 -0.0427  0.1107
 6671TIP3    H141572   3.507   3.242   6.368  0.0888 -0.6541  0.4545
 6671TIP3    H241573   3.639   3.294   6.420 -0.3707  2.7730 -1.5131
 6672TIP3   OH241574   5.261   0.649   7.668  0.0227 -0.4431  0.0611
 6672TIP3    H141575   5.312   0.729   7.655  0.5162 -0.7335  0.1634
 6672TIP3    H241576   5.327   0.579   7.671 -0.4276 -0.9001 -0.4183
 6673TIP3   OH241577   5.820   2.008   1.006 -0.5174 -0.2702 -0.0892
 6673TIP3    H141578   5.741   2.016   0.953 -0.4121  2.3873  0.0146
 6673TIP3    H241579   5.890   2.038   0.949 -0.1944  1.2192  1.0356
 6674TIP3   OH241580   1.792   6.745   1.024 -0.0946  0.0990  0.2851
 6674TIP3    H141581   1.858   6.688   0.985 -0.4638 -0.6652  0.7479
 6674TIP3    H241582   1.729   6.760   0.953 -0.3537 -0.6407  0.3501
 6675TIP3   OH241583   1.974   4.916   7.708  0.7735 -0.5182  0.1140
 6675TIP3    H141584   1.947   4.975   7.779  2.7480 -0.0042  0.5279
 6675TIP3    H241585   2.067   4.900   7.726  0.4812 -3.2182 -0.3995
 6676TIP3   OH241586   4.847   4.440   1.548 -0.4526  0.0210  0.9098
 6676TIP3    H141587   4.847   4.364   1.606  2.7627 -0.3820  0.5478
 6676TIP3    H241588   4.895   4.412   1.471  2.8423  2.9282  1.6599
 6677TIP3   OH241589   0.537   5.400   1.821  0.0164 -0.5087 -0.9787
 6677TIP3    H141590   0.443   5.384   1.830 -0.0794  0.1483 -0.7391
 6677TIP3    H241591   0.545   5.450   1.740  0.0943 -0.0663 -0.7016
 6678TIP3   OH241592   2.961   2.262   0.445 -0.3655  0.1032  1.1607
 6678TIP3    H141593   2.969   2.324   0.372  0.7821  0.7403  1.8015
 6678TIP3    H241594   3.028   2.196   0.428 -2.0742 -1.4503  0.0803
 6679TIP3   OH241595   1.977   1.230   0.128  0.7526  0.5242 -0.1935
 6679TIP3    H141596   2.072   1.240   0.128  0.9138 -0.5309  1.2248
 6679TIP3    H241597   1.950   1.257   0.216  0.0148 -1.0672  0.1174
 6680TIP3   OH241598   0.325   5.596   6.906 -0.6340  0.2354  0.2716
 6680TIP3    H141599   0.291   5.627   6.822 -0.1416 -0.0964 -0.0533
 6680TIP3    H241600   0.420   5.591   6.893 -0.3034  2.1500  1.4800
 6681TIP3   OH241601   3.753   6.483   2.238 -0.2117 -0.2007 -0.0687
 6681TIP3    H141602   3.666   6.523   2.236 -0.0729  0.0852 -0.3599
 6681TIP3    H241603   3.799   6.529   2.308  0.7202  1.7777 -1.8684
 6682TIP3   OH241604   4.118   4.791   1.884 -0.2928  0.2094 -0.3034
 6682TIP3    H141605   4.090   4.733   1.813 -1.5557 -1.3677  1.3816
 6682TIP3    H241606   4.214   4.791   1.878 -0.3610  0.0416 -1.9003
 6683TIP3   OH241607   3.650   3.870   0.303  0.0849 -0.2245  0.2557
 6683TIP3    H141608   3.733   3.851   0.347 -0.5403 -0.5563  1.3049
 6683TIP3    H241609   3.592   3.901   0.372 -0.8861 -0.6441 -0.3427
 6684TIP3   OH241610   1.374   6.335   0.376  0.1588  0.0699  0.8079
 6684TIP3    H141611   1.351   6.353   0.467  1.0129  0.3273  0.9785
 6684TIP3    H241612   1.300   6.285   0.342 -0.1328 -0.0909  1.6667
 6685TIP3   OH241613   3.397   1.437   1.505  0.1341 -0.1579 -0.3154
 6685TIP3    H141614   3.401   1.457   1.411 -0.0595  3.0271  0.2480
 6685TIP3    H241615   3.304   1.441   1.527  0.3569  1.5749  0.4227
 6686TIP3   OH241616   2.797   5.115   8.319  0.1814  0.1364  0.5237
 6686TIP3    H141617   2.865   5.125   8.253  0.0514  0.9895  0.5032
 6686TIP3    H241618   2.716   5.140   8.273  0.1202  0.9679  1.0473
 6687TIP3   OH241619   3.615   1.705   1.809  0.1836 -0.3559 -0.1601
 6687TIP3    H141620   3.667   1.637   1.766  0.3526 -0.2261 -0.1598
 6687TIP3    H241621   3.643   1.703   1.901  1.5794  0.9986 -0.5114
 6688TIP3   OH241622   0.908   5.228   7.257  0.5611  0.3130  0.4939
 6688TIP3    H141623   0.836   5.258   7.311  0.3477  2.5426 -0.8908
 6688TIP3    H241624   0.987   5.257   7.303  0.6411 -1.8637  1.8561
 6689TIP3   OH241625   6.294   6.207   8.477 -0.3141 -0.1154  0.5368
 6689TIP3    H141626   6.230   6.279   8.480 -0.7311 -0.4690  0.2596
 6689TIP3    H241627   6.376   6.249   8.452 -0.6191  0.2210  0.0789
 6690TIP3   OH241628   4.658   2.998   7.907 -0.1999 -0.0366  0.3375
 6690TIP3    H141629   4.576   3.006   7.860  0.3014  0.1648 -0.5208
 6690TIP3    H241630   4.682   3.088   7.930 -0.2380 -0.0977  0.6232
 6691TIP3   OH241631   1.058   2.392   8.362  0.3060  0.3716 -0.1494
 6691TIP3    H141632   1.015   2.323   8.413 -0.3905  1.5757  0.9649
 6691TIP3    H241633   1.141   2.353   8.334  0.2130 -0.7175  0.9868
 6692TIP3   OH241634   1.907   0.825   2.218 -0.2572 -0.1817  0.4705
 6692TIP3    H141635   1.894   0.731   2.204 -0.3088 -0.2102  0.7062
 6692TIP3    H241636   1.829   0.865   2.181  0.7153 -0.0563 -1.6106
 6693TIP3   OH241637   3.868   2.612   1.638  0.0925  0.3546 -0.6702
 6693TIP3    H141638   3.906   2.601   1.725  0.3644  0.7114 -0.7450
 6693TIP3    H241639   3.906   2.692   1.604 -1.0863  0.9929 -0.5559
 6694TIP3   OH241640   2.603   1.260   8.525 -0.4111 -0.3922 -0.6293
 6694TIP3    H141641   2.605   1.276   8.619  0.9054  0.1004 -0.7145
 6694TIP3    H241642   2.694   1.268   8.497 -0.8701  0.2831 -2.0710
 6695TIP3   OH241643   1.339   1.489   1.084  0.0400 -0.4869 -0.0281
 6695TIP3    H141644   1.422   1.534   1.072  0.5530 -1.4812 -0.3043
 6695TIP3    H241645   1.361   1.396   1.078 -0.7347 -0.8637  1.9498
 6696TIP3   OH241646   4.272   0.601   1.000 -0.3429  0.0656  0.1152
 6696TIP3    H141647   4.220   0.561   0.931 -0.1132  1.1217 -0.6908
 6696TIP3    H241648   4.213   0.604   1.076 -0.2260 -2.1871  0.3697
 6697TIP3   OH241649   5.652   5.635   7.086  0.1017  0.0227  0.1962
 6697TIP3    H141650   5.712   5.562   7.073  1.3004  1.1015 -0.5916
 6697TIP3    H241651   5.640   5.672   6.999  0.4911  1.4813  0.7208
 6698TIP3   OH241652   6.356   5.994   8.173  0.4624 -0.0375 -0.0241
 6698TIP3    H141653   6.428   5.984   8.235  1.3963  1.0892 -0.8849
 6698TIP3    H241654   6.301   5.917   8.188  1.3594 -0.4600  1.2741
 6699TIP3   OH241655   6.123   2.366   1.017 -0.0505  0.2255  0.0432
 6699TIP3    H141656   6.139   2.425   1.091 -0.8039 -2.2072  2.3089
 6699TIP3    H241657   6.028   2.355   1.015 -0.1270  0.8359 -1.8708
 6700TIP3   OH241658   5.780   6.193   0.355 -0.0981 -0.3983 -0.0183
 6700TIP3    H141659   5.825   6.269   0.392  1.2980 -1.0892 -0.2431
 6700TIP3    H241660   5.760   6.138   0.430 -1.3405  0.2858  0.1740
 6701TIP3   OH241661   4.845   6.663   8.251  0.2224  0.6319 -0.3397
 6701TIP3    H141662   4.897   6.618   8.184  1.3638  0.0399  0.9079
 6701TIP3    H241663   4.754   6.649   8.224  0.5121 -2.2739 -0.1515
 6702TIP3   OH241664   0.913   3.534   1.359  0.7513  0.5810  0.0014
 6702TIP3    H141665   0.898   3.588   1.281 -1.9105  1.4312  0.9904
 6702TIP3    H241666   0.825   3.516   1.393  1.7187 -1.7462  1.5143
 6703TIP3   OH241667   3.731   1.122   8.431  0.1132 -0.0750 -0.4681
 6703TIP3    H141668   3.729   1.034   8.395  0.2398 -0.0917 -0.4340
 6703TIP3    H241669   3.642   1.137   8.464  0.4559 -0.7313  0.8288
 6704TIP3   OH241670   3.503   0.527   0.900 -0.2411  0.0797 -0.4881
 6704TIP3    H141671   3.497   0.484   0.985  2.1593 -2.5830 -1.4507
 6704TIP3    H241672   3.456   0.468   0.840 -0.2455  0.8617 -1.2762
 6705TIP3   OH241673   2.843   0.486   7.817  0.0752 -0.2136  0.1169
 6705TIP3    H141674   2.814   0.474   7.726 -1.5127  1.4778  0.3407
 6705TIP3    H241675   2.917   0.546   7.810  0.7771 -1.0926 -0.1368
 6706TIP3   OH241676   5.206   4.822   8.237 -0.0601 -0.9585 -0.6784
 6706TIP3    H141677   5.228   4.730   8.253 -0.6024 -1.1300 -0.9247
 6706TIP3    H241678   5.206   4.862   8.324  3.1284 -0.4988 -0.7541
 6707TIP3   OH241679   2.774   4.352   1.820  0.3541 -0.8407 -0.0302
 6707TIP3    H141680   2.851   4.300   1.845 -1.4340 -2.2610  3.1184
 6707TIP3    H241681   2.779   4.358   1.725  3.7337 -1.7986 -0.0338
 6708TIP3   OH241682   3.028   3.318   0.599 -0.3583  0.2003 -0.2036
 6708TIP3    H141683   3.036   3.413   0.607  0.6763  0.0094  1.5710
 6708TIP3    H241684   2.934   3.303   0.588 -0.6320  1.3910  0.2964
 6709TIP3   OH241685   4.536   3.861   0.825  0.0107  0.1576  0.1881
 6709TIP3    H141686   4.556   3.949   0.793 -1.1706  0.9386  1.5183
 6709TIP3    H241687   4.507   3.813   0.747  0.4432  0.9922 -0.5028
 6710TIP3   OH241688   5.022   5.261   0.252  0.2370  0.6103  0.1886
 6710TIP3    H141689   5.039   5.234   0.161  2.2537 -2.3362  1.2728
 6710TIP3    H241690   5.048   5.353   0.255 -0.1491  0.8657 -2.2505
 6711TIP3   OH241691   1.749   5.876   7.448  0.3771  0.3856 -0.1384
 6711TIP3    H141692   1.761   5.782   7.447  0.0480  0.3286  0.5721
 6711TIP3    H241693   1.717   5.896   7.536 -0.0202  1.0976 -0.4274
 6712TIP3   OH241694   0.211   5.733   8.360  0.1418 -1.0656  0.3382
 6712TIP3    H141695   0.195   5.774   8.445 -0.4566 -1.0155  0.2073
 6712TIP3    H241696   0.289   5.777   8.326  0.6509 -1.3976  1.0537
 6713TIP3   OH241697   5.258   1.630   1.780  0.1284 -0.1950 -0.0855
 6713TIP3    H141698   5.170   1.628   1.817 -0.4622  0.7112 -1.3603
 6713TIP3    H241699   5.316   1.625   1.856 -1.0187 -0.0672  0.8327
 6714TIP3   OH241700   1.160   3.788   1.503 -0.1879 -0.4263  0.2398
 6714TIP3    H141701   1.154   3.782   1.407 -3.3237 -2.7336  0.4378
 6714TIP3    H241702   1.182   3.699   1.531 -1.4358 -0.3139  1.7079
 6715TIP3   OH241703   1.439   5.754   1.357  0.0465 -0.0540  0.3594
 6715TIP3    H141704   1.422   5.685   1.293 -0.0232  0.2679  0.0316
 6715TIP3    H241705   1.355   5.766   1.402 -0.0411  0.0830  0.1585
 6716TIP3   OH241706   5.087   5.088   0.650  0.0283  0.3815 -0.3015
 6716TIP3    H141707   5.047   5.002   0.638 -3.2373  1.6228  0.6989
 6716TIP3    H241708   5.079   5.130   0.564  0.8863  0.0079 -0.5746
 6717TIP3   OH241709   4.191   0.699   1.275 -0.2253  0.1443  0.3383
 6717TIP3    H141710   4.157   0.614   1.301  0.4006  0.1293  1.1331
 6717TIP3    H241711   4.120   0.760   1.294  0.0371  0.0696  1.6512
 6718TIP3   OH241712   3.254   4.666   7.409 -0.4889  0.0620  0.8114
 6718TIP3    H141713   3.238   4.601   7.341  0.8783 -0.5488  1.0435
 6718TIP3    H241714   3.260   4.616   7.490  1.0167  0.3956  0.9372
 6719TIP3   OH241715   4.419   3.881   0.567 -0.0944 -0.0495  0.3384
 6719TIP3    H141716   4.336   3.851   0.604 -0.8060  1.5173  0.1132
 6719TIP3    H241717   4.413   3.976   0.570  1.0559  0.1014 -1.1188
 6720TIP3   OH241718   2.536   2.848   0.294 -0.4301  0.0304 -0.6595
 6720TIP3    H141719   2.524   2.796   0.215 -2.0285 -0.6992  0.0183
 6720TIP3    H241720   2.539   2.785   0.366  2.8966  0.5182 -0.1982
 6721TIP3   OH241721   0.894   3.277   0.933  0.1511  0.6570  0.1282
 6721TIP3    H141722   0.815   3.328   0.948  0.4866  1.4850 -0.8273
 6721TIP3    H241723   0.961   3.342   0.910  0.2426 -0.2882 -2.5479
 6722TIP3   OH241724   3.970   2.481   0.074 -0.1722  0.1860  0.4135
 6722TIP3    H141725   3.889   2.446   0.111 -1.4432 -0.9485 -3.0553
 6722TIP3    H241726   3.949   2.572   0.054 -1.2213 -0.4952 -1.8548
 6723TIP3   OH241727   5.083   4.684   0.121  0.4827  0.5210  0.3730
 6723TIP3    H141728   5.125   4.762   0.086  1.3049  1.1614  2.5809
 6723TIP3    H241729   5.043   4.713   0.203 -0.4932 -1.0583  0.4962
 6724TIP3   OH241730   4.380   4.570   6.638  0.2941 -0.9006 -0.3365
 6724TIP3    H141731   4.429   4.627   6.580  0.2909  1.0030  1.4112
 6724TIP3    H241732   4.434   4.491   6.647  1.5900 -0.0738 -0.7435
 6725TIP3   OH241733   3.929   5.276   6.879  0.7198  0.2359  0.2531
 6725TIP3    H141734   3.958   5.192   6.915  1.5863 -0.6204 -2.1812
 6725TIP3    H241735   3.858   5.252   6.819  0.2590  1.3985  0.3161
 6726TIP3   OH241736   3.465   6.637   0.819 -0.2832 -0.1448 -0.9506
 6726TIP3    H141737   3.418   6.554   0.812  0.7170 -0.7194 -1.1376
 6726TIP3    H241738   3.504   6.649   0.732  1.3461 -0.5915 -0.3246
 6727TIP3   OH241739   6.314   0.097   0.939  0.2008  0.9587  0.6982
 6727TIP3    H141740   6.381   0.030   0.933 -1.0173 -0.2907  0.5739
 6727TIP3    H241741   6.262   0.088   0.859 -1.3916  0.4489  1.7337
 6728TIP3   OH241742   0.074   6.105   1.578 -0.2993  0.3412 -0.3431
 6728TIP3    H141743   0.081   6.195   1.548 -0.5262  0.0322 -1.3642
 6728TIP3    H241744   0.107   6.052   1.505 -1.9493 -0.4922 -0.5573
 6729TIP3   OH241745   3.890   2.739   0.500 -0.5225 -0.3303 -0.6349
 6729TIP3    H141746   3.878   2.725   0.594 -0.2185  1.6423 -0.2645
 6729TIP3    H241747   3.812   2.788   0.474  0.0450  0.3381 -1.1105
 6730TIP3   OH241748   4.097   6.125   0.426 -0.0312 -0.4934 -0.1438
 6730TIP3    H141749   4.036   6.053   0.442 -0.7365  0.2427  0.6532
 6730TIP3    H241750   4.040   6.200   0.406  0.7177 -0.5546 -2.9287
 6731TIP3   OH241751   5.999   4.631   6.895 -0.0040  0.5528 -0.1769
 6731TIP3    H141752   5.964   4.720   6.899 -0.5255  0.3401  0.0243
 6731TIP3    H241753   6.085   4.642   6.855 -0.3843  1.0596 -0.8912
 6732TIP3   OH241754   3.681   1.700   2.076  0.2052 -0.2429  0.0539
 6732TIP3    H141755   3.639   1.656   2.150 -1.5092 -0.3268 -0.9359
 6732TIP3    H241756   3.672   1.793   2.096  0.2131 -0.2707  0.1910
 6733TIP3   OH241757   5.223   2.907   7.175  0.2298 -0.4132 -0.0962
 6733TIP3    H141758   5.295   2.844   7.188  0.9378  0.0388 -1.6857
 6733TIP3    H241759   5.157   2.880   7.239  0.5339 -2.7609 -0.6839
 6734TIP3   OH241760   4.043   6.299   1.095 -0.1327 -0.4531 -0.1991
 6734TIP3    H141761   4.009   6.283   1.183 -1.2228 -0.0192 -0.5222
 6734TIP3    H241762   4.135   6.274   1.099 -0.5717 -1.9938  0.6226
 6735TIP3   OH241763   1.658   5.381   8.577  0.5044 -0.0188  0.0370
 6735TIP3    H141764   1.637   5.416   8.664  3.9885  2.0470  0.2092
 6735TIP3    H241765   1.660   5.458   8.520 -0.8711 -1.2362 -1.8020
 6736TIP3   OH241766   2.215   0.164   8.558  0.5105  0.4597 -0.0609
 6736TIP3    H141767   2.300   0.177   8.601  0.3651  0.4361  0.2311
 6736TIP3    H241768   2.151   0.174   8.628  0.2599  0.6794 -0.3212
 6737TIP3   OH241769   0.939   0.377   1.301  0.0022  0.1579  0.1018
 6737TIP3    H141770   0.967   0.304   1.355 -2.2943 -1.4802 -0.7653
 6737TIP3    H241771   0.951   0.454   1.357 -1.2060 -1.3152  2.5469
 6738TIP3   OH241772   6.659   1.652   1.383  0.2898 -0.2118 -0.4144
 6738TIP3    H141773   6.719   1.609   1.321 -1.6393 -0.7724 -2.0023
 6738TIP3    H241774   6.600   1.703   1.327 -2.4883 -1.9124  0.7852
 6739TIP3   OH241775   2.288   5.759   1.202  0.1456 -0.6656  0.4155
 6739TIP3    H141776   2.195   5.740   1.187  0.5602 -2.6421  0.0356
 6739TIP3    H241777   2.325   5.675   1.230  1.7409  0.2016  1.0234
 6740TIP3   OH241778   2.105   5.044   8.342 -0.3230 -0.1547 -0.5720
 6740TIP3    H141779   2.066   5.128   8.367  1.0599  0.5650 -0.7815
 6740TIP3    H241780   2.182   5.067   8.290  1.1979 -1.4918  0.9546
 6741TIP3   OH241781   3.041   4.527   6.810 -0.4142 -0.2304 -0.1572
 6741TIP3    H141782   3.078   4.596   6.866  1.9363 -2.1933  0.9167
 6741TIP3    H241783   3.086   4.538   6.726 -2.0989  1.1621 -0.9479
 6742TIP3   OH241784   3.978   0.743   8.449 -0.5205 -0.0822 -0.0433
 6742TIP3    H141785   3.921   0.706   8.516 -1.5674 -0.1582 -0.9625
 6742TIP3    H241786   3.937   0.720   8.366  0.0323  1.1567 -0.6951
 6743TIP3   OH241787   6.294   1.038   0.587  0.1658  0.0048  0.0157
 6743TIP3    H141788   6.334   1.125   0.590  0.6648 -0.2154 -0.1143
 6743TIP3    H241789   6.293   1.016   0.494  0.5842 -0.3736  0.0973
 6744TIP3   OH241790   6.004   2.234   7.391  0.3924 -0.6008 -0.6130
 6744TIP3    H141791   5.929   2.191   7.431  1.3706  1.0863  3.4572
 6744TIP3    H241792   6.080   2.186   7.424  1.2878  1.3352  0.3069
 6745TIP3   OH241793   1.543   3.087   1.481  0.0120  0.4283 -0.0138
 6745TIP3    H141794   1.453   3.114   1.462 -0.0529 -0.1063 -0.4904
 6745TIP3    H241795   1.535   3.030   1.557 -0.3352 -1.2991 -1.2732
 6746TIP3   OH241796   5.748   0.679   8.507 -0.2897  0.1852 -0.0040
 6746TIP3    H141797   5.702   0.667   8.590 -0.6328 -0.0113 -0.2208
 6746TIP3    H241798   5.700   0.748   8.463 -0.4573 -0.1141 -0.2904
 6747TIP3   OH241799   6.096   2.484   1.468  0.1827 -0.0638  1.0287
 6747TIP3    H141800   6.023   2.481   1.530 -1.3276 -0.3655 -0.6962
 6747TIP3    H241801   6.099   2.396   1.430 -1.0794  0.9387 -1.6412
 6748TIP3   OH241802   5.356   5.772   0.406 -0.2370 -0.4308 -0.0357
 6748TIP3    H141803   5.264   5.779   0.384  0.2235  1.0809 -1.6649
 6748TIP3    H241804   5.371   5.843   0.469 -0.1556 -0.6248  0.1663
 6749TIP3   OH241805   4.040   1.864   1.099 -0.0128  0.1149 -0.2282
 6749TIP3    H141806   4.011   1.945   1.141 -1.0763  0.4160 -1.4489
 6749TIP3    H241807   4.134   1.875   1.085  0.1132  0.5336  0.8685
 6750TIP3   OH241808   2.551   5.940   2.481 -0.1309  0.3951 -0.4519
 6750TIP3    H141809   2.604   5.971   2.555 -1.3565 -0.1776  0.7039
 6750TIP3    H241810   2.466   5.984   2.492 -0.4986 -0.0940 -1.2312
 6751TIP3   OH241811   3.436   6.548   7.817 -0.2638 -0.7853  0.0494
 6751TIP3    H141812   3.422   6.610   7.746  0.6916 -0.8391 -0.2018
 6751TIP3    H241813   3.524   6.567   7.849  0.1856 -2.2119 -0.2578
 6752TIP3   OH241814   2.677   4.339   0.667 -0.1343  0.3108  0.2312
 6752TIP3    H141815   2.704   4.310   0.580 -0.0160 -1.4967  0.8396
 6752TIP3    H241816   2.757   4.333   0.720 -0.6082 -0.3179  0.8840
 6753TIP3   OH241817   3.197   2.183   0.901 -0.3991  0.3813 -0.5213
 6753TIP3    H141818   3.117   2.196   0.953 -0.1766 -0.2568 -0.0020
 6753TIP3    H241819   3.258   2.248   0.934  0.1509 -0.7874  0.9004
 6754TIP3   OH241820   1.217   5.851   1.506  0.0914  0.2350 -0.4268
 6754TIP3    H141821   1.136   5.869   1.457 -2.2254 -1.5578  2.3888
 6754TIP3    H241822   1.192   5.863   1.598  3.4205  0.7068  0.5425
 6755TIP3   OH241823   0.756   0.639   2.819 -0.4755  0.1593  0.1060
 6755TIP3    H141824   0.736   0.546   2.824  0.6888 -0.1537 -0.7330
 6755TIP3    H241825   0.847   0.643   2.788 -0.5649  1.5765 -0.0524
 6756TIP3   OH241826   1.485   1.556   1.575 -0.0157  0.3841 -0.0921
 6756TIP3    H141827   1.505   1.597   1.491 -0.6288  1.2408  0.1655
 6756TIP3    H241828   1.518   1.466   1.566 -1.4683 -0.0510 -1.8387
 6757TIP3   OH241829   0.074   4.319   7.731  0.0274  0.1249 -0.0620
 6757TIP3    H141830   0.099   4.302   7.640 -0.0594  0.6767 -0.1924
 6757TIP3    H241831   0.106   4.242   7.779  3.2107  1.3312 -0.0020
 6758TIP3   OH241832   6.772   6.345   6.789  0.4871 -0.1304  0.0086
 6758TIP3    H141833   6.797   6.395   6.711 -1.6552 -0.1265 -0.7491
 6758TIP3    H241834   6.838   6.367   6.854  2.5262 -0.3649 -1.8704
 6759TIP3   OH241835   6.692   1.890   6.679  0.5824 -0.0702 -0.2700
 6759TIP3    H141836   6.603   1.860   6.662  0.4858 -0.2974  0.5955
 6759TIP3    H241837   6.699   1.972   6.630 -0.1409  0.0094 -0.2539
 6760TIP3   OH241838   1.136   5.851   1.780  0.3860  0.2826  0.6897
 6760TIP3    H141839   1.102   5.906   1.851 -0.8682  0.9144 -0.3480
 6760TIP3    H241840   1.063   5.795   1.755  0.9832 -0.3243  0.2582
 6761TIP3   OH241841   5.099   1.770   1.200  0.1314 -0.0079  0.8124
 6761TIP3    H141842   5.046   1.848   1.211 -1.8877 -1.2421  0.4708
 6761TIP3    H241843   5.105   1.757   1.106  0.1209 -0.4850  0.8730
 6762TIP3   OH241844   4.813   6.179   8.243 -0.1386 -0.1764 -0.7042
 6762TIP3    H141845   4.729   6.135   8.229 -1.1471  0.4071  2.5218
 6762TIP3    H241846   4.868   6.113   8.285 -0.7033  0.7093  1.5716
 6763TIP3   OH241847   3.385   0.491   1.616  0.0110  0.1157  0.1532
 6763TIP3    H141848   3.398   0.571   1.566  1.3627 -0.7293 -0.9249
 6763TIP3    H241849   3.422   0.509   1.702 -0.9792  1.0863  0.4002
 6764TIP3   OH241850   4.565   1.055   0.805 -0.0910  0.4609 -0.2765
 6764TIP3    H141851   4.593   1.146   0.798 -0.3893  0.6295  0.5638
 6764TIP3    H241852   4.477   1.059   0.842  0.9016 -0.1945  2.4503
 6765TIP3   OH241853   4.061   5.923   7.956  0.4292  0.2068 -0.7662
 6765TIP3    H141854   4.138   5.868   7.937 -0.2401 -1.5184  1.1296
 6765TIP3    H241855   4.034   5.955   7.870  3.1370  0.7545 -1.5291
 6766TIP3   OH241856   2.748   2.990   7.749  0.0495  0.0428 -0.4091
 6766TIP3    H141857   2.783   3.071   7.784  0.1511 -0.4371  0.6451
 6766TIP3    H241858   2.690   2.957   7.819 -1.6684  0.2729 -1.6533
 6767TIP3   OH241859   3.488   1.663   1.175 -0.0140 -0.2291  0.3581
 6767TIP3    H141860   3.580   1.635   1.181  0.1141 -0.2573 -1.2839
 6767TIP3    H241861   3.465   1.651   1.083 -1.3635  0.7525  0.5311
 6768TIP3   OH241862   0.538   3.486   8.119  0.1105 -0.0056 -0.0103
 6768TIP3    H141863   0.453   3.517   8.152  0.6875 -0.6813  2.3347
 6768TIP3    H241864   0.598   3.558   8.138  0.1108  0.4258 -1.5655
 6769TIP3   OH241865   6.283   0.003   8.083  0.8534 -0.3393 -0.2678
 6769TIP3    H141866   6.317  -0.034   8.164  1.8052 -1.6416 -1.2142
 6769TIP3    H241867   6.226  -0.066   8.048  1.0341 -0.0967 -1.0651
 6770TIP3   OH241868   0.547   3.027   7.277 -0.3721 -0.4755 -0.4446
 6770TIP3    H141869   0.531   2.991   7.190 -0.4136  0.1137 -0.6800
 6770TIP3    H241870   0.538   2.951   7.336 -0.2699 -0.8870 -0.9533
 6771TIP3   OH241871   3.249   0.416   1.379 -0.8463 -0.4837  0.2966
 6771TIP3    H141872   3.298   0.440   1.458 -0.6932  0.5675 -0.1039
 6771TIP3    H241873   3.158   0.412   1.409 -1.1431  2.4466  0.0475
 6772TIP3   OH241874   6.726   6.223   7.346  0.0221 -0.3082 -0.3371
 6772TIP3    H141875   6.669   6.259   7.278  0.9103 -1.1017 -1.5393
 6772TIP3    H241876   6.783   6.295   7.371 -1.8808  0.6963  1.3633
 6773TIP3   OH241877   2.825   3.894   0.234  0.4386 -0.5087  0.1425
 6773TIP3    H141878   2.883   3.937   0.171 -0.3516  1.2993  0.5774
 6773TIP3    H241879   2.810   3.961   0.301 -2.7559 -0.6167 -0.3346
 6774TIP3   OH241880   2.586   1.455   7.626 -0.9151 -0.3717  0.1013
 6774TIP3    H141881   2.519   1.431   7.690 -0.9522  0.6224  0.4488
 6774TIP3    H241882   2.666   1.462   7.678 -0.5398 -1.4575 -0.2958
 6775TIP3   OH241883   0.031   6.054   8.301 -0.0126  0.5598 -0.4006
 6775TIP3    H141884  -0.006   6.128   8.254 -1.0614 -0.5011 -1.2989
 6775TIP3    H241885   0.122   6.050   8.273 -0.3439  0.6047 -1.5058
 6776TIP3   OH241886   6.027   2.663   7.265  0.1090  0.2256 -0.1471
 6776TIP3    H141887   5.975   2.601   7.316 -0.5728  0.6460 -0.3325
 6776TIP3    H241888   6.047   2.734   7.327 -1.2063  1.0190 -0.6002
 6777TIP3   OH241889   3.626   0.398   7.719 -0.4254  0.2097 -0.4296
 6777TIP3    H141890   3.535   0.423   7.736 -0.1339  0.9374  0.1216
 6777TIP3    H241891   3.639   0.317   7.768 -0.7314  0.1925 -0.3787
 6778TIP3   OH241892   3.046   0.335   7.332  0.8120  0.2243  0.2797
 6778TIP3    H141893   3.113   0.269   7.316 -1.4920 -1.6717 -2.6937
 6778TIP3    H241894   3.089   0.419   7.312  2.6465 -0.7671 -0.1478
 6779TIP3   OH241895   4.079   4.591   0.788  0.4706 -0.3414  1.1035
 6779TIP3    H141896   4.153   4.649   0.803  0.2076 -0.0683  1.3473
 6779TIP3    H241897   4.018   4.611   0.858  0.4103 -0.9716  1.2394
 6780TIP3   OH241898   4.271   1.850   7.182 -0.0284 -0.8745 -0.2128
 6780TIP3    H141899   4.223   1.926   7.148 -0.8147 -0.9257  0.7359
 6780TIP3    H241900   4.304   1.879   7.267  0.9222 -1.1230 -0.4860
 6781TIP3   OH241901   3.757   6.780   2.233 -0.1801  0.2149  0.1600
 6781TIP3    H141902   3.817   6.744   2.298  0.5303 -2.0164 -1.6009
 6781TIP3    H241903   3.672   6.742   2.255 -0.1690  0.3230  0.3931
 6782TIP3   OH241904   1.040   4.626   7.252  0.5410  0.2932  0.0060
 6782TIP3    H141905   1.067   4.707   7.295  3.0232 -0.6667  0.4270
 6782TIP3    H241906   1.108   4.610   7.185  2.0267 -2.9759  2.0096
 6783TIP3   OH241907   1.755   3.182   7.771  0.2599  0.1528 -0.1358
 6783TIP3    H141908   1.847   3.200   7.751  0.9007 -1.1615  1.4300
 6783TIP3    H241909   1.736   3.235   7.848 -0.6712  1.2877 -1.1012
 6784TIP3   OH241910   6.102   0.651   1.888 -0.3661 -0.8851  0.6201
 6784TIP3    H141911   6.057   0.735   1.883 -1.4548 -1.4443  0.7370
 6784TIP3    H241912   6.147   0.642   1.803 -0.2618 -0.2071  0.6011
 6785TIP3   OH241913   2.842   4.469   2.067  0.0890  0.4253  0.1845
 6785TIP3    H141914   2.786   4.430   2.135  2.3651  0.0054  1.9323
 6785TIP3    H241915   2.813   4.427   1.986 -1.7424 -0.1692  1.0874
 6786TIP3   OH241916   5.560   2.673   2.263  0.6375  0.1586  0.4023
 6786TIP3    H141917   5.643   2.717   2.243  1.0518 -0.7085  0.1884
 6786TIP3    H241918   5.526   2.721   2.339  0.4089  1.6993 -0.6195
 6787TIP3   OH241919   3.338   6.050   8.506 -0.2402 -0.0772  0.1679
 6787TIP3    H141920   3.345   6.141   8.476 -1.9031  0.6250  1.7248
 6787TIP3    H241921   3.347   6.056   8.601  0.5781 -1.6972  0.2242
 6788TIP3   OH241922   3.521   2.735   7.975 -0.3944  0.2381  0.1787
 6788TIP3    H141923   3.467   2.800   8.021  0.0526  0.8775 -0.1748
 6788TIP3    H241924   3.542   2.670   8.042 -1.1340  0.2787  0.4546
 6789TIP3   OH241925   1.124   1.980   7.597  0.2913  0.0402 -0.0211
 6789TIP3    H141926   1.081   2.023   7.524  0.7818 -2.4999 -1.9286
 6789TIP3    H241927   1.217   2.002   7.587  0.1435  1.1718  0.9487
 6790TIP3   OH241928   6.605   3.105   2.548 -0.1696 -0.1717  0.0838
 6790TIP3    H141929   6.589   3.018   2.583 -1.2691 -0.5444 -1.2304
 6790TIP3    H241930   6.520   3.150   2.554  0.2475  0.6234  0.2493
 6791TIP3   OH241931   6.104   4.724   7.755  0.7323  0.3134 -0.4525
 6791TIP3    H141932   6.135   4.683   7.836 -1.4625  0.8308  0.7177
 6791TIP3    H241933   6.068   4.808   7.783  0.9121  0.9795 -2.1446
 6792TIP3   OH241934   1.863   0.333   7.428 -0.4295  0.2564 -0.1929
 6792TIP3    H141935   1.878   0.386   7.507  0.4495 -0.1363 -0.0875
 6792TIP3    H241936   1.917   0.375   7.361 -0.0432 -0.2702 -0.2117
 6793TIP3   OH241937   2.367   6.326   8.245  0.6647  0.1870 -0.2418
 6793TIP3    H141938   2.292   6.371   8.204 -0.3862 -1.0641  0.2270
 6793TIP3    H241939   2.348   6.233   8.234  2.1173 -0.1563 -0.0053
 6794TIP3   OH241940   1.761   3.125   8.143  0.0763  0.5035  0.5385
 6794TIP3    H141941   1.800   3.044   8.178  0.8064  0.9684  0.8229
 6794TIP3    H241942   1.672   3.100   8.120  1.2908 -1.3260 -2.7339
 6795TIP3   OH241943   3.970   1.747   1.531 -0.1691  0.1875  0.2979
 6795TIP3    H141944   3.933   1.825   1.572 -0.7566  0.9829 -1.6705
 6795TIP3    H241945   3.911   1.726   1.460  1.7304 -0.0709 -1.2949
 6796TIP3   OH241946   6.309   5.162   1.024 -0.2572  0.0028  0.4463
 6796TIP3    H141947   6.361   5.187   0.948 -0.6623  1.6900  0.6828
 6796TIP3    H241948   6.224   5.203   1.009 -0.5969 -0.3259  1.4103
 6797TIP3   OH241949   3.179   4.278   0.534 -0.2444  0.1459 -0.1549
 6797TIP3    H141950   3.169   4.183   0.541  0.3789  0.1516  1.1422
 6797TIP3    H241951   3.094   4.313   0.561 -0.7070 -0.0454 -1.3255
 6798TIP3   OH241952   1.551   1.822   7.383 -0.3241  0.0059 -0.2758
 6798TIP3    H141953   1.533   1.841   7.291  2.3741  1.5628 -0.5745
 6798TIP3    H241954   1.558   1.908   7.425  0.4080 -0.6284  0.9588
 6799TIP3   OH241955   5.431   5.315   0.202  0.4639 -0.4058 -0.1676
 6799TIP3    H141956   5.511   5.298   0.152  1.5104  1.7698  0.6583
 6799TIP3    H241957   5.462   5.353   0.284 -1.4303  0.9494 -0.0264
 6800TIP3   OH241958   0.870   1.062   1.129 -0.1814  0.4895 -0.4696
 6800TIP3    H141959   0.902   0.975   1.106 -1.7117 -0.1856 -0.1595
 6800TIP3    H241960   0.948   1.109   1.160  0.9995 -0.1861 -2.2505
 6801TIP3   OH241961   0.509   0.022   6.936 -0.3344 -0.0226 -0.2390
 6801TIP3    H141962   0.497  -0.068   6.902 -0.1391  0.1470 -0.7717
 6801TIP3    H241963   0.444   0.073   6.888  0.5714  0.3916 -1.0622
 6802TIP3   OH241964   6.422   1.999   0.761  0.9430  0.0115 -0.1532
 6802TIP3    H141965   6.398   2.067   0.824  0.8486  0.0870 -0.2693
 6802TIP3    H241966   6.485   1.945   0.807  0.1323 -0.5202  0.3624
 6803TIP3   OH241967   0.900   3.367   8.374  0.2010  0.5033  0.3991
 6803TIP3    H141968   0.913   3.456   8.344 -1.6131  0.5378 -0.4354
 6803TIP3    H241969   0.961   3.357   8.447 -1.4803  3.3634  2.3665
 6804TIP3   OH241970   1.179   4.395   0.737 -0.5708  0.1299  0.0719
 6804TIP3    H141971   1.191   4.409   0.831 -1.9710 -1.7099  0.5678
 6804TIP3    H241972   1.247   4.332   0.714  1.1320  2.1156 -0.6599
 6805TIP3   OH241973   4.061   6.182   2.760  0.0568  0.3184  0.0920
 6805TIP3    H141974   3.970   6.212   2.772  0.3373  1.2905 -0.1435
 6805TIP3    H241975   4.109   6.260   2.735  1.0089 -0.1562  0.3877
 6806TIP3   OH241976   6.288   5.768   6.997 -0.2264  0.0067 -0.2010
 6806TIP3    H141977   6.225   5.836   6.974  0.6475  0.3753 -1.6837
 6806TIP3    H241978   6.358   5.815   7.043 -0.6125 -0.2575  0.6732
 6807TIP3   OH241979   2.883   2.739   1.759 -0.3639 -0.4769  0.0812
 6807TIP3    H141980   2.962   2.746   1.813 -0.1511  1.2842 -0.4129
 6807TIP3    H241981   2.916   2.737   1.670 -0.8856  0.7358 -0.1492
 6808TIP3   OH241982   5.988   3.906   0.241  0.8080  0.2657 -0.1022
 6808TIP3    H141983   6.044   3.885   0.166 -0.4259  1.3586 -1.3744
 6808TIP3    H241984   5.967   3.821   0.280  2.1427 -0.2585 -0.4799
 6809TIP3   OH241985   1.298   1.174   1.819 -0.0263 -0.4860 -0.3295
 6809TIP3    H141986   1.361   1.244   1.836  0.7457 -1.3512  0.4434
 6809TIP3    H241987   1.294   1.168   1.724 -0.0253  0.5369 -0.4017
 6810TIP3   OH241988   5.414   0.515   0.689 -0.0045 -0.1158 -0.0260
 6810TIP3    H141989   5.361   0.486   0.615  1.4757 -1.2638 -0.6993
 6810TIP3    H241990   5.493   0.552   0.648  0.5808 -0.2432  0.9538
 6811TIP3   OH241991   2.361   0.570   6.853 -0.1123  0.1644 -0.2251
 6811TIP3    H141992   2.319   0.552   6.769  0.9791 -0.9063 -0.5684
 6811TIP3    H241993   2.441   0.617   6.830 -1.1012  2.3082  0.4343
 6812TIP3   OH241994   3.213   5.992   2.555 -0.5294 -0.0928  0.2218
 6812TIP3    H141995   3.146   5.935   2.516 -0.1620 -1.6724  1.7558
 6812TIP3    H241996   3.295   5.945   2.540 -0.0487  0.6878  0.3912
 6813TIP3   OH241997   6.740   6.789   6.498  0.1839 -0.0942  0.3124
 6813TIP3    H141998   6.752   6.850   6.571 -1.0772 -0.5583  0.9447
 6813TIP3    H241999   6.653   6.810   6.464 -0.1778 -1.3663  0.3903
 6814TIP3   OH242000   6.012   1.300   7.748 -0.0383  0.2838 -0.4296
 6814TIP3    H142001   6.092   1.283   7.697  1.4994  1.9599  1.2568
 6814TIP3    H242002   6.027   1.386   7.787 -2.2542  0.1811  0.7897
 6815TIP3   OH242003   0.885   4.129   6.816 -0.5299  0.3496 -0.3049
 6815TIP3    H142004   0.827   4.117   6.741 -2.0927 -0.9028  1.0108
 6815TIP3    H242005   0.839   4.191   6.873 -0.4834 -0.4187  0.6118
 6816TIP3   OH242006   5.918   4.526   7.573 -0.0262  0.3408  0.3579
 6816TIP3    H142007   5.889   4.596   7.515 -1.4666  0.5023  1.2047
 6816TIP3    H242008   5.874   4.545   7.657 -1.3464 -2.1200  0.3222
 6817TIP3   OH242009   3.978   1.260   1.156 -0.2885 -0.2932 -0.6615
 6817TIP3    H142010   4.038   1.225   1.222  0.7013  0.3241 -1.2002
 6817TIP3    H242011   4.024   1.336   1.120 -1.0751 -0.2503 -1.6214
 6818TIP3   OH242012   4.590   4.656   8.157  0.0953  0.0666 -0.3263
 6818TIP3    H142013   4.644   4.646   8.079 -0.8553 -0.2088 -0.9732
 6818TIP3    H242014   4.597   4.571   8.202  1.4721  0.5750  0.4523
 6819TIP3   OH242015   0.080   1.370   1.314  0.1375 -0.8336 -0.1796
 6819TIP3    H142016   0.165   1.408   1.289 -0.1762 -1.5310 -2.5342
 6819TIP3    H242017   0.086   1.278   1.289 -1.1147 -1.0342  0.1888
 6820TIP3   OH242018   1.362   4.301   0.124 -0.6747 -0.0655 -0.2716
 6820TIP3    H142019   1.436   4.353   0.155 -0.1619 -0.4743 -0.7956
 6820TIP3    H242020   1.399   4.242   0.059 -1.1634 -1.4222  0.6468
 6821TIP3   OH242021   4.914   1.435   8.015  0.3045  0.2079 -0.2556
 6821TIP3    H142022   4.970   1.359   8.024 -0.7467 -0.8231 -1.8216
 6821TIP3    H242023   4.883   1.453   8.104  1.2987 -0.6045  0.2717
 6822TIP3   OH242024   2.328   6.797   0.768  0.3252  0.4040 -0.4880
 6822TIP3    H142025   2.342   6.733   0.838  1.9794  1.2753  0.0408
 6822TIP3    H242026   2.320   6.744   0.689  1.7820 -0.4956 -0.0753
 6823TIP3   OH242027   0.667   4.665   8.401 -0.9383 -0.2013  0.4389
 6823TIP3    H142028   0.747   4.629   8.363 -1.5031 -2.4551  1.2273
 6823TIP3    H242029   0.616   4.693   8.325  0.8628  2.0665 -0.0424
 6824TIP3   OH242030   5.307   6.576   8.149  0.6976  0.6222  0.1587
 6824TIP3    H142031   5.260   6.642   8.098 -0.3926  2.3826  3.1783
 6824TIP3    H242032   5.239   6.531   8.198  1.7783 -0.0305  1.1074
 6825TIP3   OH242033   2.528   4.365   8.089 -0.6613  0.1217  0.4467
 6825TIP3    H142034   2.573   4.284   8.113 -0.9691 -0.5931 -1.2386
 6825TIP3    H242035   2.578   4.434   8.132  0.0263 -0.9058  1.3469
 6826TIP3   OH242036   6.489   3.441   0.279 -0.3347  0.0924 -0.4041
 6826TIP3    H142037   6.488   3.360   0.331 -0.3516  1.1887  1.3793
 6826TIP3    H242038   6.580   3.469   0.281  0.0336 -0.7943 -2.5717
 6827TIP3   OH242039   1.417   0.580   0.402  0.8060 -0.2961 -0.1924
 6827TIP3    H142040   1.324   0.576   0.425  0.5443  0.6001 -1.0330
 6827TIP3    H242041   1.462   0.568   0.485  0.0197 -2.9913 -0.0293
 6828TIP3   OH242042   2.826   6.515   7.146  0.3518 -0.4861 -0.3934
 6828TIP3    H142043   2.860   6.522   7.235  1.2377  2.5458 -0.8351
 6828TIP3    H242044   2.891   6.559   7.092 -1.2596 -0.1564 -2.2036
 6829TIP3   OH242045   0.425   6.517   7.124 -0.2012 -0.3281 -0.1182
 6829TIP3    H142046   0.417   6.422   7.138 -2.1215 -0.3041 -0.7425
 6829TIP3    H242047   0.370   6.556   7.192  0.8973  0.3795  0.3841
 6830TIP3   OH242048   1.470   2.776   2.388 -0.4531 -0.4289 -0.1283
 6830TIP3    H142049   1.397   2.831   2.360 -0.7695 -1.0213 -0.4770
 6830TIP3    H242050   1.430   2.695   2.419  0.0803 -1.1778 -1.2891
 6831TIP3   OH242051   4.201   5.034   1.122 -0.3560 -0.2979 -0.4863
 6831TIP3    H142052   4.133   4.995   1.177 -0.2112  0.3433  0.1644
 6831TIP3    H242053   4.153   5.089   1.060 -0.5548 -1.4324 -1.3615
 6832TIP3   OH242054   0.012   3.181   8.463 -0.3953 -0.0732 -0.1819
 6832TIP3    H142055  -0.052   3.239   8.504  1.2135  0.4630  1.7449
 6832TIP3    H242056   0.083   3.239   8.436 -0.2521 -0.7760 -1.3831
 6833TIP3   OH242057   1.947   2.645   1.978  0.4412 -0.1254 -0.4831
 6833TIP3    H142058   2.036   2.633   2.009 -0.0008 -0.7564  0.5658
 6833TIP3    H242059   1.900   2.567   2.006 -1.1584  1.4538  1.5881
 6834TIP3   OH242060   0.791   0.318   2.073 -0.1210 -0.3907 -0.0033
 6834TIP3    H142061   0.732   0.243   2.084 -0.1961 -0.3850 -0.3731
 6834TIP3    H242062   0.838   0.300   1.992 -0.8160  0.4286 -0.6027
 6835TIP3   OH242063   3.482   5.102   7.454 -0.0691  0.1784  0.2421
 6835TIP3    H142064   3.508   5.021   7.409 -0.4464 -0.1664  0.6282
 6835TIP3    H242065   3.415   5.141   7.397  0.9919  0.8730 -0.5645
 6836TIP3   OH242066   5.243   2.169   1.469  0.0682 -0.1709 -0.3569
 6836TIP3    H142067   5.295   2.090   1.450  1.1800  0.3639  0.3449
 6836TIP3    H242068   5.278   2.201   1.552 -0.4649  0.9894 -0.5619
 6837TIP3   OH242069   5.057   1.634   7.076  0.1004  0.1402  0.0779
 6837TIP3    H142070   5.109   1.714   7.082  1.3886  0.0077 -4.7354
 6837TIP3    H242071   5.118   1.564   7.100  1.0600  0.2702 -1.7953
 6838TIP3   OH242072   6.209   1.870   0.077 -0.3023 -0.5525 -0.7509
 6838TIP3    H142073   6.238   1.961   0.073 -2.4665  0.2308 -0.3415
 6838TIP3    H242074   6.227   1.843   0.167  0.7685 -0.6937 -1.0039
 6839TIP3   OH242075   1.120   2.983   8.102  0.4783 -0.2784 -0.1022
 6839TIP3    H142076   1.190   3.007   8.040  0.1639 -1.5457 -0.9774
 6839TIP3    H242077   1.041   3.024   8.065  0.5922  0.4896  0.4651
 6840TIP3   OH242078   1.529   5.225   8.174 -0.2628  0.2848  0.0578
 6840TIP3    H142079   1.538   5.284   8.099 -0.2738  1.1939  0.7499
 6840TIP3    H242080   1.440   5.241   8.207 -0.1003  0.2311  0.5370
 6841TIP3   OH242081   3.383   6.316   7.988 -0.2262  0.1082  0.5029
 6841TIP3    H142082   3.431   6.372   7.925  0.6072 -0.3733  0.6967
 6841TIP3    H242083   3.405   6.353   8.073 -1.9983  1.2612  0.5189
 6842TIP3   OH242084   3.350   0.156   7.513  0.6933  0.6605  0.5588
 6842TIP3    H142085   3.396   0.210   7.578 -0.0731  0.2417  1.4688
 6842TIP3    H242086   3.262   0.193   7.510  0.4592  0.0981  0.4435
 6843TIP3   OH242087   4.633   4.505   1.692  0.0080 -0.0311 -0.1448
 6843TIP3    H142088   4.581   4.427   1.669 -0.1479  0.1463 -0.4040
 6843TIP3    H242089   4.707   4.502   1.631  0.2267 -0.2072  0.1303
 6844TIP3   OH242090   5.247   2.875   1.899 -0.2081  0.1722  0.8238
 6844TIP3    H142091   5.275   2.964   1.918 -2.0412  1.0445 -0.2895
 6844TIP3    H242092   5.267   2.826   1.978  1.5931  1.3551  1.1669
 6845TIP3   OH242093   0.008   4.635   2.130  0.2606  0.0771 -0.3391
 6845TIP3    H142094  -0.073   4.600   2.094  0.6083 -0.0595 -1.0037
 6845TIP3    H242095   0.068   4.639   2.056  0.7957  0.3858  0.0973
 6846TIP3   OH242096   0.186   3.191   8.000  0.5417 -0.4569  0.4473
 6846TIP3    H142097   0.214   3.282   8.005  2.1332 -0.9469  1.1811
 6846TIP3    H242098   0.099   3.194   7.961  0.2748  1.4182  1.1337
 6847TIP3   OH242099   4.436   4.957   0.488 -0.3328 -0.1977 -0.6474
 6847TIP3    H142100   4.483   5.017   0.430  1.4713 -0.7840  0.1365
 6847TIP3    H242101   4.378   5.014   0.540  1.4608  0.9538  0.2065
 6848TIP3   OH242102   1.663   2.517   7.473  0.2243  0.5362 -0.3691
 6848TIP3    H142103   1.751   2.554   7.471  0.6680 -0.5160 -0.4560
 6848TIP3    H242104   1.676   2.423   7.469 -0.8438  0.3033  1.0166
 6849TIP3   OH242105   3.283   4.761   8.045  0.4508 -0.3890  0.6116
 6849TIP3    H142106   3.285   4.749   8.140 -0.8052  0.3126  0.7412
 6849TIP3    H242107   3.273   4.673   8.010  2.7641 -0.8855  1.0118
 6850TIP3   OH242108   5.455   6.565   8.413 -0.4698  0.3018  0.7876
 6850TIP3    H142109   5.536   6.605   8.383 -2.0478  2.3247 -1.0726
 6850TIP3    H242110   5.402   6.554   8.334 -1.1502 -3.3131  1.5560
 6851TIP3   OH242111   0.294   5.357   0.651  0.0392  0.6337  0.3041
 6851TIP3    H142112   0.354   5.402   0.711  1.1855 -0.5427  0.0915
 6851TIP3    H242113   0.301   5.405   0.569 -0.5347  1.4590  0.7270
 6852TIP3   OH242114   5.015   5.081   7.153  0.2294  0.0885  0.5039
 6852TIP3    H142115   5.025   5.036   7.070  0.1429 -1.5918  1.3576
 6852TIP3    H242116   4.943   5.142   7.140  0.9011  0.6061 -0.9335
 6853TIP3   OH242117   3.416   1.673   7.780 -0.2803 -0.5475 -0.3723
 6853TIP3    H142118   3.338   1.702   7.827 -0.1581 -0.5404 -0.1718
 6853TIP3    H242119   3.407   1.578   7.776 -0.0984 -0.5838  0.0136
 6854TIP3   OH242120   0.595   5.581   6.842  0.4056  0.1305  0.6321
 6854TIP3    H142121   0.667   5.523   6.817  0.0320  0.5676 -1.6865
 6854TIP3    H242122   0.623   5.668   6.817 -1.2475  0.1958 -1.2534
 6855TIP3   OH242123   6.708   5.007   7.835 -0.6673 -0.0203  0.1574
 6855TIP3    H142124   6.730   5.083   7.888  0.2222  1.2883 -1.9580
 6855TIP3    H242125   6.727   5.034   7.745 -3.6562 -1.5227 -1.0617
 6856TIP3   OH242126   1.546   0.162   1.003 -0.2582 -0.5763 -0.0752
 6856TIP3    H142127   1.624   0.142   0.952  0.3043 -0.7775  0.8223
 6856TIP3    H242128   1.568   0.133   1.092 -0.6245  1.1351  0.6035
 6857TIP3   OH242129   0.323   2.034   1.322  0.0120 -0.4799  0.0128
 6857TIP3    H142130   0.320   1.973   1.248  0.7690 -1.8643  1.0801
 6857TIP3    H242131   0.415   2.057   1.331 -0.2107  0.5449 -0.1182
 6858TIP3   OH242132   2.032   0.002   0.573 -0.4289 -0.7167  0.3740
 6858TIP3    H142133   1.948  -0.030   0.605 -0.1229 -0.9758  0.9192
 6858TIP3    H242134   2.084  -0.077   0.556  0.8636 -0.5628  3.1313
 6859TIP3   OH242135   4.161   4.299   0.997 -1.0633  0.7337  0.4341
 6859TIP3    H142136   4.250   4.262   1.000 -0.9798  0.9622  0.7669
 6859TIP3    H242137   4.170   4.387   1.032 -1.1699  1.2795 -0.8347
 6860TIP3   OH242138   5.767   1.268   7.430  0.4587  0.7722 -0.9157
 6860TIP3    H142139   5.731   1.265   7.341  1.8553 -0.0115 -1.4678
 6860TIP3    H242140   5.832   1.339   7.427  0.7381  0.5291 -0.6064
 6861TIP3   OH242141   2.239   5.507   1.534  0.2689  0.6229  0.2882
 6861TIP3    H142142   2.301   5.571   1.571  0.7739 -0.6107  1.6615
 6861TIP3    H242143   2.155   5.532   1.571  0.1639  1.4618 -0.4790
 6862TIP3   OH242144   3.813   0.347   1.316  0.2062  0.5171 -0.1319
 6862TIP3    H142145   3.790   0.395   1.236 -1.0081 -0.0023 -0.1254
 6862TIP3    H242146   3.908   0.334   1.311  1.1976  5.3476  1.2202
 6863TIP3   OH242147   4.039   6.168   7.430 -0.2969  0.2528  0.0571
 6863TIP3    H142148   4.022   6.087   7.382 -0.2366 -0.9608  1.9743
 6863TIP3    H242149   4.101   6.216   7.374  0.2868 -1.3809 -0.7790
 6864TIP3   OH242150   3.173   3.895   1.982  0.6034  0.1744 -0.5199
 6864TIP3    H142151   3.104   3.868   2.043 -0.1262  1.4308 -0.7534
 6864TIP3    H242152   3.255   3.881   2.030  0.1717 -0.9077 -0.0730
 6865TIP3   OH242153   0.053   3.500   0.742 -0.3989 -0.4663  0.0575
 6865TIP3    H142154   0.023   3.585   0.708  1.1673  0.5082  0.9925
 6865TIP3    H242155   0.039   3.506   0.836 -0.0942 -1.1873  0.1500
 6866TIP3   OH242156   1.699   5.937   7.174  0.0379 -0.2110 -0.5476
 6866TIP3    H142157   1.786   5.926   7.137  0.6094 -0.9880  0.9310
 6866TIP3    H242158   1.708   5.908   7.265 -2.3692 -2.8760 -1.0087
 6867TIP3   OH242159   4.760   4.317   7.067 -0.0755  0.6903  0.5379
 6867TIP3    H142160   4.772   4.222   7.074  0.2114  0.8150  2.0990
 6867TIP3    H242161   4.841   4.354   7.101 -1.0672  1.4977  2.1062
 6868TIP3   OH242162   3.692   5.781   2.490 -0.2552  0.5363  0.2221
 6868TIP3    H142163   3.733   5.834   2.558 -0.7512  0.5733  0.4957
 6868TIP3    H242164   3.765   5.750   2.437  0.3078 -0.9379  1.7739
 6869TIP3   OH242165   5.275   4.550   7.055 -0.0152 -0.5276  0.1579
 6869TIP3    H142166   5.298   4.506   7.137  1.2923  1.4055  0.8999
 6869TIP3    H242167   5.265   4.643   7.080 -1.6290 -0.1879 -1.5131
 6870TIP3   OH242168   4.130   2.758   0.793  0.6586 -0.0391 -0.3388
 6870TIP3    H142169   4.221   2.735   0.811  0.1276 -2.2473 -0.2181
 6870TIP3    H242170   4.079   2.691   0.839 -0.9873  0.1309 -1.8295
 6871TIP3   OH242171   4.665   0.015   6.627  0.3775  0.0772  0.1882
 6871TIP3    H142172   4.679   0.109   6.618 -1.3409  0.3157 -0.4937
 6871TIP3    H242173   4.665  -0.019   6.538 -2.0440 -0.0182  0.1519
 6872TIP3   OH242174   6.055   5.324   0.998 -0.7213 -0.3230 -0.3825
 6872TIP3    H142175   6.058   5.382   1.074 -1.5956  0.9242 -1.2839
 6872TIP3    H242176   6.046   5.382   0.923 -2.6992 -1.6315 -1.2378
 6873TIP3   OH242177   4.100   5.147   1.932  0.0540  0.4164 -0.5714
 6873TIP3    H142178   4.186   5.115   1.905 -0.2973 -0.1488 -1.0637
 6873TIP3    H242179   4.069   5.082   1.995  0.5360  1.3181  0.6363
 6874TIP3   OH242180   2.259   4.203   6.919 -0.1887  0.8705  0.1944
 6874TIP3    H142181   2.321   4.142   6.878 -0.5446  0.3119  0.4790
 6874TIP3    H242182   2.257   4.278   6.860 -1.2487 -0.2147 -1.2268
 6875TIP3   OH242183   6.654   1.954   6.928 -0.1455 -0.1534  0.0861
 6875TIP3    H142184   6.659   2.049   6.918 -1.7836 -0.1952 -1.6149
 6875TIP3    H242185   6.667   1.920   6.840  2.3127 -1.6832  0.9156
 6876TIP3   OH242186   0.261   6.446   7.535  0.4329 -0.1915 -0.0214
 6876TIP3    H142187   0.250   6.398   7.453  0.3024  0.8603 -0.6388
 6876TIP3    H242188   0.323   6.516   7.514 -1.3599  1.5099  0.1327
 6877TIP3   OH242189   2.043   3.267   7.723  0.3591  0.1197  0.6254
 6877TIP3    H142190   2.061   3.361   7.725  2.3694 -0.2026 -0.3915
 6877TIP3    H242191   2.097   3.231   7.794 -0.6934 -0.2539  1.2637
 6878TIP3   OH242192   1.812   3.839   8.383  0.4857 -0.0497 -0.2457
 6878TIP3    H142193   1.887   3.803   8.336  0.0916 -1.9152  0.4712
 6878TIP3    H242194   1.759   3.762   8.406 -1.4429  1.1803 -0.3795
 6879TIP3   OH242195   0.923   6.618   8.244  0.0512 -0.1636 -0.6809
 6879TIP3    H142196   0.845   6.669   8.266 -0.0834 -1.0923  1.1880
 6879TIP3    H242197   0.888   6.537   8.207  0.0755 -0.7709  0.5763
 6880TIP3   OH242198   0.987   1.116   7.094  0.4454 -0.0221  0.2101
 6880TIP3    H142199   1.022   1.169   7.022  1.1491 -2.1020 -1.0611
 6880TIP3    H242200   1.055   1.120   7.162  0.5270  0.5987  0.1002
 6881TIP3   OH242201   4.345   2.877   6.556 -0.4114 -0.5896 -0.4343
 6881TIP3    H142202   4.435   2.868   6.527 -0.6085 -0.7597 -1.0218
 6881TIP3    H242203   4.293   2.835   6.487 -0.9250 -0.6744 -0.0093
 6882TIP3   OH242204   4.441   6.310   7.704 -0.4783  0.2298  0.1568
 6882TIP3    H142205   4.532   6.333   7.723  0.3047 -2.4029 -0.0397
 6882TIP3    H242206   4.406   6.279   7.788 -1.0307  0.6183  0.0828
 6883TIP3   OH242207   4.275   2.072   7.421  0.9194  0.0224  0.1013
 6883TIP3    H142208   4.303   2.099   7.508 -0.1335 -0.6454  0.6663
 6883TIP3    H242209   4.356   2.070   7.369  1.6083  0.1050  1.1419
 6884TIP3   OH242210   0.885   1.140   0.608 -0.5555 -0.1270 -0.2386
 6884TIP3    H142211   0.828   1.102   0.675 -2.5185  0.6359 -1.4147
 6884TIP3    H242212   0.916   1.065   0.557  3.1424 -1.0944  2.9116
 6885TIP3   OH242213   3.754   3.484   6.834  0.0957 -0.1615  0.2019
 6885TIP3    H142214   3.732   3.453   6.921 -0.7616  3.1976  1.3290
 6885TIP3    H242215   3.831   3.539   6.846 -0.3430  0.7828 -1.0422
 6886TIP3   OH242216   1.046   5.991   8.232 -0.3390  0.1369 -0.2831
 6886TIP3    H142217   1.013   6.006   8.143  0.4593  0.6463 -0.5067
 6886TIP3    H242218   1.081   6.076   8.259 -0.8888  0.0774  0.6676
 6887TIP3   OH242219   3.423   3.808   6.553  0.1357  0.4483  0.3009
 6887TIP3    H142220   3.509   3.843   6.577  0.4739  0.0061 -0.2521
 6887TIP3    H242221   3.440   3.748   6.481 -0.8706  1.8236 -1.1536
 6888TIP3   OH242222   3.886   4.470   7.028  0.2942 -0.4145 -0.3321
 6888TIP3    H142223   3.808   4.418   7.007  0.6809 -0.6964 -1.1179
 6888TIP3    H242224   3.886   4.476   7.123 -0.9012 -0.0775 -0.3334
 6889TIP3   OH242225   4.719   3.276   7.912  0.2288  0.4458  0.2182
 6889TIP3    H142226   4.770   3.326   7.975 -0.1383  0.7190  0.3049
 6889TIP3    H242227   4.628   3.298   7.932 -0.0091 -0.9798  0.8923
 6890TIP3   OH242228   2.263   5.985   1.830 -0.3504  0.3923  0.2550
 6890TIP3    H142229   2.267   6.068   1.879  0.4741  1.3063 -1.2848
 6890TIP3    H242230   2.256   6.012   1.738 -0.6027 -1.2672 -0.2402
 6891TIP3   OH242231   6.791   6.021   0.618 -0.4098 -0.3198 -0.4518
 6891TIP3    H142232   6.759   6.098   0.569  2.5189  0.1634 -1.7748
 6891TIP3    H242233   6.768   5.947   0.563 -1.6274 -0.2612 -0.0523
 6892TIP3   OH242234   4.264   5.127   0.602 -0.0956  0.0483 -0.3487
 6892TIP3    H142235   4.212   5.189   0.551 -3.1208 -0.4178  1.9240
 6892TIP3    H242236   4.299   5.179   0.674 -2.5323 -0.6887  1.4899
 6893TIP3   OH242237   2.611   4.352   7.235 -0.8563 -0.3288  0.0155
 6893TIP3    H142238   2.560   4.273   7.257 -1.1969  0.1420  0.9492
 6893TIP3    H242239   2.700   4.331   7.261 -0.7721 -0.7472 -0.5967
 6894TIP3   OH242240   3.530   5.107   1.711 -0.6133 -0.2353 -0.1746
 6894TIP3    H142241   3.502   5.099   1.620 -0.2481 -3.5198 -0.1244
 6894TIP3    H242242   3.453   5.079   1.762  0.5479 -3.0374  0.2265
 6895TIP3   OH242243   2.230   1.698   1.604 -0.0647 -0.3714 -0.2114
 6895TIP3    H142244   2.235   1.667   1.514  0.5691 -0.4687 -0.1445
 6895TIP3    H242245   2.312   1.670   1.644 -0.6010 -0.8916  0.5718
 6896TIP3   OH242246   5.150   1.719   8.072  0.0085  0.3904  0.0385
 6896TIP3    H142247   5.241   1.737   8.047  0.4780  1.5979  2.3777
 6896TIP3    H242248   5.123   1.650   8.011  2.5746 -0.2383 -0.5454
 6897TIP3   OH242249   4.045   1.859   7.980 -0.2448 -0.5215  0.8988
 6897TIP3    H142250   3.954   1.877   8.004 -0.4189  0.5053 -0.3944
 6897TIP3    H242251   4.076   1.797   8.046 -1.0851  1.0986  2.8997
 6898TIP3   OH242252   0.032   1.566   1.534  0.0961  0.1666  0.2167
 6898TIP3    H142253   0.083   1.495   1.495  0.1324 -0.4759  1.3780
 6898TIP3    H242254   0.016   1.627   1.462  0.8253 -0.5838 -0.6031
 6899TIP3   OH242255   4.987   5.572   0.135 -0.6748  0.6481  0.3246
 6899TIP3    H142256   5.074   5.552   0.100 -0.4202 -0.2923  1.4360
 6899TIP3    H242257   4.968   5.660   0.101 -0.8060 -0.4740 -2.7369
 6900TIP3   OH242258   1.247   3.316   7.762 -0.1850 -0.5660  0.0883
 6900TIP3    H142259   1.325   3.329   7.708 -0.1892  0.4745  0.3024
 6900TIP3    H242260   1.193   3.255   7.712  0.5573 -0.9325 -0.2845
 6901TIP3   OH242261   4.679   5.015   0.866  0.4459  0.0810 -0.0233
 6901TIP3    H142262   4.685   5.017   0.771 -0.7707  1.8984 -0.1183
 6901TIP3    H242263   4.747   5.076   0.896  0.8917 -0.5599  0.2971
 6902TIP3   OH242264   0.576   3.837   7.855  0.1731 -0.5889 -0.0813
 6902TIP3    H142265   0.609   3.879   7.775  1.6056  0.2405  0.8842
 6902TIP3    H242266   0.637   3.765   7.870  0.4404 -0.2136  0.7004
 6903TIP3   OH242267   4.856   1.064   1.486  0.4016  0.1720 -0.1587
 6903TIP3    H142268   4.809   1.146   1.498  0.0881 -0.0768  0.3378
 6903TIP3    H242269   4.796   0.997   1.519  1.9388  0.0195  2.6108
 6904TIP3   OH242270   1.219   5.437   0.196 -0.9323 -0.1836  0.2867
 6904TIP3    H142271   1.151   5.477   0.142 -1.8851 -0.5804  1.1692
 6904TIP3    H242272   1.294   5.496   0.188 -1.3912  0.2983 -0.6346
 6905TIP3   OH242273   4.976   3.667   7.635 -0.2705  0.2024 -0.2802
 6905TIP3    H142274   4.913   3.666   7.706  0.7111  3.2298  0.7714
 6905TIP3    H242275   5.062   3.664   7.678  0.3382  0.4446 -1.4225
 6906TIP3   OH242276   6.456   6.200   0.080 -0.2635 -0.0153  0.1153
 6906TIP3    H142277   6.545   6.165   0.074  0.0346  0.8522 -0.7735
 6906TIP3    H242278   6.417   6.182  -0.006 -0.8616 -0.1636  0.4128
 6907TIP3   OH242279   1.165   6.268   6.892 -0.0352 -0.5007 -0.0124
 6907TIP3    H142280   1.125   6.186   6.922 -1.2434 -0.0659 -0.4079
 6907TIP3    H242281   1.118   6.337   6.938 -0.3836  0.0673 -1.1790
 6908TIP3   OH242282   4.795   0.615   0.017  0.1973  0.0490  0.2869
 6908TIP3    H142283   4.720   0.569  -0.021 -0.2294  0.7697  0.2460
 6908TIP3    H242284   4.802   0.580   0.106  0.0156 -0.2551  0.1820
 6909TIP3   OH242285   5.680   5.427   6.798  0.3160 -0.4473  0.1693
 6909TIP3    H142286   5.682   5.361   6.868  0.3626  0.0319  0.6273
 6909TIP3    H242287   5.590   5.459   6.799  0.0383 -1.1546 -0.6814
 6910TIP3   OH242288   5.512   4.092   0.529 -0.0848 -0.5482  0.4256
 6910TIP3    H142289   5.431   4.095   0.581  1.5506 -0.3658  3.1730
 6910TIP3    H242290   5.533   3.998   0.524  0.9498 -0.4457  2.1967
 6911TIP3   OH242291   1.704   4.711   1.145 -0.2481 -0.4388 -0.4878
 6911TIP3    H142292   1.795   4.723   1.172 -0.4563 -0.2880  0.1694
 6911TIP3    H242293   1.659   4.788   1.180 -0.5003 -0.1552 -1.4246
 6912TIP3   OH242294   5.593   1.975   2.026  0.4730 -0.0343  0.5026
 6912TIP3    H142295   5.571   1.914   2.097 -1.2897 -1.6333 -1.3040
 6912TIP3    H242296   5.604   2.059   2.070  0.1123 -1.0765  2.7506
 6913TIP3   OH242297   0.341   1.452   1.260  0.2959 -0.4016  0.0187
 6913TIP3    H142298   0.420   1.453   1.205  0.7647 -0.8937  0.6618
 6913TIP3    H242299   0.373   1.424   1.346 -0.1899  1.6424  0.9250
 6914TIP3   OH242300   4.857   6.201   1.269 -0.3807 -0.3745  0.0875
 6914TIP3    H142301   4.950   6.195   1.290 -0.9349 -2.0770  2.4191
 6914TIP3    H242302   4.832   6.112   1.243 -1.2654  0.1919 -1.1002
 6915TIP3   OH242303   3.901   6.552   2.003 -0.3063 -0.9521 -0.6134
 6915TIP3    H142304   3.846   6.549   2.081  0.7705  0.8973  0.3062
 6915TIP3    H242305   3.859   6.616   1.946 -0.5523 -1.5586 -1.1216
 6916TIP3   OH242306   3.119   3.177   7.792  0.4579  0.4492 -0.0032
 6916TIP3    H142307   3.033   3.206   7.822  0.2770  0.5254 -0.5678
 6916TIP3    H242308   3.101   3.130   7.710  1.1139  2.1716 -1.2099
 6917TIP3   OH242309   4.208   2.687   6.721  0.2824 -0.2559  0.2737
 6917TIP3    H142310   4.145   2.665   6.653 -0.3596  1.1318  0.3730
 6917TIP3    H242311   4.268   2.748   6.678  0.2197  0.1646  0.7707
 6918TIP3   OH242312   1.380   3.592   1.671 -0.1735  0.1838  0.3448
 6918TIP3    H142313   1.357   3.585   1.764  1.0381 -1.1568  0.5944
 6918TIP3    H242314   1.421   3.678   1.662 -0.1951  0.2737  1.0788
 6919TIP3   OH242315   4.245   0.594   8.235  0.0390  0.5117  0.4640
 6919TIP3    H142316   4.332   0.575   8.201 -0.1611 -0.9967  0.7456
 6919TIP3    H242317   4.260   0.644   8.315  0.5887  1.4491 -0.2014
 6920TIP3   OH242318   5.815   0.849   7.642  0.2010  0.9057  0.2616
 6920TIP3    H142319   5.870   0.845   7.563  1.6257  0.8822  1.2228
 6920TIP3    H242320   5.822   0.940   7.671 -0.1408  0.8584  0.4951
 6921TIP3   OH242321   3.202   6.123   7.351 -0.4779 -0.6014 -0.3983
 6921TIP3    H142322   3.253   6.204   7.357 -1.3463 -0.0979  0.4042
 6921TIP3    H242323   3.252   6.068   7.290  0.7745  0.0417  0.0043
 6922TIP3   OH242324   1.598   1.140   7.935 -0.2450  0.5826 -0.1305
 6922TIP3    H142325   1.548   1.214   7.902  0.6896  1.3728  0.1662
 6922TIP3    H242326   1.550   1.063   7.905 -0.3010  1.2751 -1.9475
 6923TIP3   OH242327   1.819   4.019   1.526  0.1111 -0.4909 -0.2193
 6923TIP3    H142328   1.806   4.042   1.619  0.7164  0.7093 -0.3999
 6923TIP3    H242329   1.871   4.092   1.492  0.7216 -1.4075 -1.2752
 6924TIP3   OH242330   2.130   1.540   8.661  0.3367  0.2559  0.5806
 6924TIP3    H142331   2.208   1.568   8.612  0.5402 -0.0622  0.7237
 6924TIP3    H242332   2.152   1.453   8.693 -1.3013 -1.2990 -2.1721
 6925TIP3   OH242333   0.506   6.263   7.264 -0.6105  0.5766  0.5201
 6925TIP3    H142334   0.424   6.233   7.303 -1.1553  1.3727  0.0412
 6925TIP3    H242335   0.527   6.344   7.311 -0.0356  0.3174  0.7152
 6926TIP3   OH242336   3.677   1.485   1.505  0.3051 -0.4359 -0.0474
 6926TIP3    H142337   3.701   1.417   1.442 -1.8351 -0.5903 -0.7894
 6926TIP3    H242338   3.594   1.454   1.542 -0.8510  1.8330 -0.5807
 6927TIP3   OH242339   3.367   4.684   8.303  0.1524 -0.2066 -0.1293
 6927TIP3    H142340   3.463   4.686   8.305  0.2155  0.9417 -2.0493
 6927TIP3    H242341   3.340   4.751   8.365  0.6020 -0.1805  0.0408
 6928TIP3   OH242342   2.683   3.517   6.729  0.4428  0.0684  0.5325
 6928TIP3    H142343   2.722   3.600   6.757  2.1174 -0.7288  0.6649
 6928TIP3    H242344   2.747   3.479   6.669 -0.3347 -1.0951  0.4072
 6929TIP3   OH242345   3.180   3.880   6.668  0.6152  0.1359  0.3839
 6929TIP3    H142346   3.272   3.858   6.653  0.5186  0.1076 -0.2018
 6929TIP3    H242347   3.134   3.797   6.658  0.3989  0.3544 -0.4817
 6930TIP3   OH242348   0.393   1.453   7.125  0.6705 -0.1828 -0.4045
 6930TIP3    H142349   0.306   1.486   7.107  1.0644  0.4921 -1.1044
 6930TIP3    H242350   0.380   1.384   7.191 -0.2336  0.8048  0.4655
 6931TIP3   OH242351   6.373   6.267   1.489 -0.6381 -0.4025 -0.4973
 6931TIP3    H142352   6.391   6.241   1.580  0.3070 -0.2782 -0.6422
 6931TIP3    H242353   6.281   6.244   1.476 -0.3632 -1.8977 -0.0047
 6932TIP3   OH242354   0.147   6.353   7.281  0.0720 -1.1121 -0.3366
 6932TIP3    H142355   0.080   6.409   7.319 -1.5008 -2.6144 -0.8130
 6932TIP3    H242356   0.124   6.346   7.189  0.4944 -2.1882 -0.3755
 6933TIP3   OH242357   6.487   0.370   1.047 -0.0821  0.0020  0.2215
 6933TIP3    H142358   6.413   0.312   1.067 -0.3253 -0.4292 -1.6647
 6933TIP3    H242359   6.463   0.409   0.962  0.3935  2.3606  1.0909
 6934TIP3   OH242360   3.613   5.860   6.969 -0.7741 -0.0583 -0.0380
 6934TIP3    H142361   3.700   5.843   6.933 -0.0947  1.5440  0.7520
 6934TIP3    H242362   3.596   5.785   7.026 -0.5355 -1.0731 -1.2706
 6935TIP3   OH242363   0.085   1.931   8.072 -0.4851  0.4700 -0.3733
 6935TIP3    H142364   0.049   1.843   8.083 -0.8838  0.3761 -2.0774
 6935TIP3    H242365   0.151   1.939   8.141  1.9055 -2.4418 -2.0686
 6936TIP3   OH242366   2.465   6.105   0.393 -0.0009  0.0728 -0.0347
 6936TIP3    H142367   2.518   6.162   0.338 -0.5076 -0.9783 -1.6872
 6936TIP3    H242368   2.378   6.105   0.352 -0.1157 -1.5285  0.1477
 6937TIP3   OH242369   5.613   0.651   1.719  0.0219  0.1210 -0.5787
 6937TIP3    H142370   5.575   0.706   1.786 -1.3290 -0.7648 -0.5799
 6937TIP3    H242371   5.630   0.710   1.645 -1.3751  0.5531 -0.5787
 6938TIP3   OH242372   1.389   2.786   7.862 -0.2540 -0.3822  0.3322
 6938TIP3    H142373   1.324   2.730   7.819  0.1336  0.5222 -1.5219
 6938TIP3    H242374   1.399   2.861   7.803  2.0662 -0.2353  0.8290
 6939TIP3   OH242375   1.420   2.956   0.131  0.3246  0.2829  0.4205
 6939TIP3    H142376   1.455   2.869   0.151 -1.5127 -0.4882  0.4678
 6939TIP3    H242377   1.326   2.947   0.142  0.0525  2.1738 -0.0446
 6940TIP3   OH242378   6.875   6.814   2.278 -0.2902 -0.1782 -0.4696
 6940TIP3    H142379   6.780   6.825   2.282 -0.3406 -0.3828 -1.0303
 6940TIP3    H242380   6.889   6.747   2.212  0.2607  0.0739 -0.6157
 6941TIP3   OH242381   0.841   1.034   0.245 -0.0804 -0.4006 -0.2940
 6941TIP3    H142382   0.750   1.004   0.242  0.3062 -1.5575 -1.2620
 6941TIP3    H242383   0.888   0.962   0.286  0.5129 -0.1209 -0.4798
 6942TIP3   OH242384   3.443   5.692   0.532  0.8055  0.2189  0.5616
 6942TIP3    H142385   3.531   5.686   0.495  0.2726  0.5129 -0.7980
 6942TIP3    H242386   3.449   5.762   0.597  1.7685 -0.3496  1.1160
 6943TIP3   OH242387   1.858   0.669   1.265  0.5609  0.9509  0.1983
 6943TIP3    H142388   1.884   0.751   1.307  1.2745  0.3764  0.9231
 6943TIP3    H242389   1.771   0.650   1.300  1.2978  0.2778  1.7988
 6944TIP3   OH242390   6.687   1.491   6.903  0.8860  0.0731 -0.0527
 6944TIP3    H142391   6.740   1.556   6.857 -0.9702  1.9396  0.2664
 6944TIP3    H242392   6.654   1.434   6.834 -0.3260  1.6962 -0.8980
 6945TIP3   OH242393   4.418   5.952   1.303  0.3444 -0.0715 -0.3458
 6945TIP3    H142394   4.502   5.906   1.306  0.2551 -0.4595 -2.5664
 6945TIP3    H242395   4.437   6.038   1.342  1.2079 -0.9125  1.1830
 6946TIP3   OH242396   6.868   2.998   1.723  0.1126  0.0708  0.7868
 6946TIP3    H142397   6.934   2.967   1.784  1.8109 -0.7986 -1.3643
 6946TIP3    H242398   6.846   2.921   1.670  0.0258  1.1562 -0.8307
 6947TIP3   OH242399   0.232   2.278   1.418  0.2119 -0.1453 -0.1673
 6947TIP3    H142400   0.307   2.287   1.477 -0.2943  1.2490  0.3013
 6947TIP3    H242401   0.224   2.184   1.404  1.2548 -0.4029  0.8041
 6948TIP3   OH242402   3.184   4.823   2.187 -0.7459 -0.1904  0.4211
 6948TIP3    H142403   3.155   4.733   2.171  0.4047 -0.4450 -0.3328
 6948TIP3    H242404   3.104   4.875   2.176 -1.6311 -1.1843  1.8127
 6949TIP3   OH242405   5.332   1.775   7.675 -0.0409 -0.0111  0.2555
 6949TIP3    H142406   5.387   1.842   7.634 -0.1789  0.0934  0.2424
 6949TIP3    H242407   5.377   1.753   7.756  0.7042 -0.8547 -0.3647
 6950TIP3   OH242408   0.945   4.322   6.233 -0.0399 -0.4698 -0.3590
 6950TIP3    H142409   0.891   4.391   6.193  0.3551  0.7088  1.0248
 6950TIP3    H242410   1.034   4.342   6.206  0.1432 -0.0777  0.4786
 6951TIP3   OH242411   2.929   1.122   8.178 -0.1894 -0.1998  0.6676
 6951TIP3    H142412   3.018   1.088   8.188 -0.0978 -0.7865 -1.5902
 6951TIP3    H242413   2.940   1.206   8.133 -0.7513  0.0721  1.0242
 6952TIP3   OH242414   3.478   2.540   1.313 -0.2051  0.0050  0.4115
 6952TIP3    H142415   3.492   2.553   1.407  0.5095 -0.8876  0.4317
 6952TIP3    H242416   3.565   2.541   1.274 -0.1853 -2.8487  0.1936
 6953TIP3   OH242417   6.882   5.797   2.595  0.6891 -0.1536 -0.3544
 6953TIP3    H142418   6.867   5.758   2.509 -0.9613 -0.5162  0.0629
 6953TIP3    H242419   6.941   5.737   2.639 -0.0718 -1.0525 -0.5182
 6954TIP3   OH242420   2.840   6.254   0.626 -0.1655  0.0676 -0.0309
 6954TIP3    H142421   2.780   6.314   0.670  0.2676  1.0731 -0.7610
 6954TIP3    H242422   2.784   6.184   0.591 -1.1878  1.7624 -2.0378
 6955TIP3   OH242423   2.968   1.540   7.279 -0.3175 -0.6631  0.1381
 6955TIP3    H142424   2.966   1.530   7.184 -1.2022 -1.0104  0.1794
 6955TIP3    H242425   2.879   1.518   7.307  0.5678 -3.0604  1.2865
 6956TIP3   OH242426   5.034   2.559   7.388 -0.0933  0.2744  0.0729
 6956TIP3    H142427   5.073   2.472   7.378  0.9932  0.5209  1.7599
 6956TIP3    H242428   5.093   2.604   7.448 -1.4466  1.6807  0.3823
 6957TIP3   OH242429   4.651   4.934   7.546 -0.0142  0.0903  0.4688
 6957TIP3    H142430   4.621   5.024   7.562 -0.6449  0.0928 -0.6505
 6957TIP3    H242431   4.726   4.924   7.606 -0.6123  0.9699  1.4136
 6958TIP3   OH242432   1.709   0.609   7.484  0.8465 -0.2944  0.2805
 6958TIP3    H142433   1.770   0.610   7.410  1.1262 -1.2279  0.4894
 6958TIP3    H242434   1.749   0.549   7.547  0.6783  0.5840  1.2563
 6959TIP3   OH242435   4.879   4.046   6.503  0.3980 -0.1519 -0.5312
 6959TIP3    H142436   4.944   3.993   6.457  0.5560 -1.2952  0.9336
 6959TIP3    H242437   4.916   4.134   6.506  1.5181 -0.6134 -0.4139
 6960TIP3   OH242438   4.586   6.472   6.543 -0.4096 -0.2391 -0.1932
 6960TIP3    H142439   4.552   6.393   6.586 -0.7165 -1.3339 -2.2866
 6960TIP3    H242440   4.681   6.466   6.553 -0.4027 -1.1164 -0.6811
 6961TIP3   OH242441   6.602   2.086   8.074  0.2816 -0.4665 -0.3186
 6961TIP3    H142442   6.659   2.136   8.132 -0.0165  0.0744 -0.4859
 6961TIP3    H242443   6.603   2.134   7.991  1.0182 -1.4400 -0.9025
 6962TIP3   OH242444   1.596   2.966   7.748  0.2676  0.4151 -0.0824
 6962TIP3    H142445   1.648   3.045   7.743  0.4266  0.2377 -1.7090
 6962TIP3    H242446   1.516   2.986   7.700 -0.6669  0.2880  1.3558
 6963TIP3   OH242447   3.396   6.789   7.596 -0.5798  0.0821  0.1267
 6963TIP3    H142448   3.370   6.881   7.586  0.9363  0.7669  2.0239
 6963TIP3    H242449   3.481   6.792   7.639  0.1593 -2.2086 -1.0357
 6964TIP3   OH242450   5.402   5.989   0.559  0.1043 -0.3737 -0.1266
 6964TIP3    H142451   5.359   6.040   0.627 -0.7105 -1.6361  0.3503
 6964TIP3    H242452   5.454   6.052   0.510 -1.5940  1.0543 -0.1580
 6965TIP3   OH242453   5.035   3.712   8.012 -0.2982  0.0026 -0.2573
 6965TIP3    H142454   4.975   3.716   7.938 -1.0290  0.4269  0.3482
 6965TIP3    H242455   5.009   3.635   8.061 -1.1409  0.8490  0.6567
 6966TIP3   OH242456   6.153   6.636   0.791 -0.9835  0.2571 -0.2734
 6966TIP3    H142457   6.168   6.683   0.873  0.8488 -0.8903  0.1188
 6966TIP3    H242458   6.075   6.583   0.808  0.2594 -1.1878  1.3701
 6967TIP3   OH242459   6.836   4.240   7.476  0.0321 -0.1938 -0.1469
 6967TIP3    H142460   6.776   4.314   7.467 -0.1450 -0.1440  1.2315
 6967TIP3    H242461   6.822   4.188   7.397  0.9591  1.7831 -1.6960
 6968TIP3   OH242462   0.703   6.662   1.723 -0.1257 -0.5176  0.0343
 6968TIP3    H142463   0.626   6.709   1.691 -0.7595 -0.5662  1.3986
 6968TIP3    H242464   0.753   6.728   1.772  1.5899 -0.0750 -2.1874
 6969TIP3   OH242465   6.871   1.297   7.521 -1.0968 -0.0919 -0.2989
 6969TIP3    H142466   6.895   1.389   7.516 -0.0046 -0.1307  2.7082
 6969TIP3    H242467   6.781   1.297   7.553 -0.4417 -0.0141  1.6669
 6970TIP3   OH242468   3.464   4.985   1.449 -0.0133 -0.0027 -0.0873
 6970TIP3    H142469   3.378   4.956   1.477  0.8851 -1.2086  1.5289
 6970TIP3    H242470   3.511   4.905   1.428  0.0850  0.7234 -3.0979
 6971TIP3   OH242471   6.783   0.823   0.245 -0.5833  0.4622 -0.6145
 6971TIP3    H142472   6.845   0.825   0.173 -0.3997 -0.2596 -0.4896
 6971TIP3    H242473   6.828   0.866   0.318  0.0573 -0.6875 -0.3158
 6972TIP3   OH242474   6.804   6.206   7.806 -0.0322 -0.0991  0.2479
 6972TIP3    H142475   6.774   6.155   7.881 -1.0548 -0.0641 -0.1207
 6972TIP3    H242476   6.742   6.185   7.737 -0.1277  1.2046 -0.0839
 6973TIP3   OH242477   4.482   0.655   7.887 -0.6257 -0.4313  0.0566
 6973TIP3    H142478   4.452   0.743   7.909  1.1285  0.2862 -0.2226
 6973TIP3    H242479   4.529   0.625   7.965 -1.9349 -1.5006  0.4728
 6974TIP3   OH242480   6.545   3.400   7.100 -0.5827 -0.3808 -0.0390
 6974TIP3    H142481   6.612   3.331   7.099 -1.0728 -0.8707 -1.3807
 6974TIP3    H242482   6.577   3.464   7.036 -0.3952  0.4072  0.8182
 6975TIP3   OH242483   1.481   4.746   7.091 -0.8400 -0.5494 -0.0372
 6975TIP3    H142484   1.482   4.833   7.132 -1.4620 -0.4836 -0.1492
 6975TIP3    H242485   1.571   4.732   7.062 -1.2108  1.2345 -2.4308
 6976TIP3   OH242486   1.832   4.400   7.259  0.3312 -0.4546 -0.2481
 6976TIP3    H142487   1.743   4.421   7.230  0.9209 -0.4515 -2.1940
 6976TIP3    H242488   1.830   4.305   7.271 -0.1886 -0.3345  0.7376
 6977TIP3   OH242489   1.531   1.810   0.499 -0.7343 -0.0059 -0.1077
 6977TIP3    H142490   1.514   1.892   0.453  0.7414  0.8577  0.7789
 6977TIP3    H242491   1.609   1.774   0.457 -2.6355 -2.1960 -1.9956
 6978TIP3   OH242492   0.530   6.470   7.682  0.2288  0.5843  0.0719
 6978TIP3    H142493   0.565   6.454   7.769  1.3474  0.6071 -0.3566
 6978TIP3    H242494   0.450   6.417   7.678  0.5409  0.0439  0.8562
 6979TIP3   OH242495   2.551   2.975   7.532 -0.2074 -0.1508 -0.9085
 6979TIP3    H142496   2.607   3.009   7.462  0.0783  1.0621 -0.1145
 6979TIP3    H242497   2.607   2.974   7.609 -1.4000  1.6119  0.0371
 6980TIP3   OH242498   4.467   6.229   1.366 -0.3402  0.1865  0.0906
 6980TIP3    H142499   4.403   6.289   1.404  0.8709  1.9365 -0.5210
 6980TIP3    H242500   4.552   6.266   1.390  0.4634 -1.5759  0.1077
 6981TIP3   OH242501   3.598   4.244   0.502 -0.4243  0.3845 -0.1575
 6981TIP3    H142502   3.657   4.313   0.533  2.1203 -0.6226 -2.4022
 6981TIP3    H242503   3.566   4.276   0.417  3.1268 -2.1713 -2.7273
 6982TIP3   OH242504   1.908   1.445   1.634 -0.0712  0.3516  0.0792
 6982TIP3    H142505   1.855   1.525   1.623  0.2835  0.5775 -0.0192
 6982TIP3    H242506   1.870   1.383   1.571  1.8342  1.5846 -2.4668
 6983TIP3   OH242507   2.040   2.353   1.955 -0.2381 -0.0786 -0.2659
 6983TIP3    H142508   1.986   2.278   1.981  1.1297 -0.8845  0.3331
 6983TIP3    H242509   2.006   2.378   1.869  0.4269 -2.5614 -1.3381
 6984TIP3   OH242510   4.414   5.070   7.217 -0.3642  0.1659 -0.3872
 6984TIP3    H142511   4.429   5.130   7.144  2.2023 -0.8832 -0.7900
 6984TIP3    H242512   4.446   5.118   7.294 -2.2275  0.9037 -0.0030
 6985TIP3   OH242513   1.756   2.770   0.143  0.0084 -0.0665  0.3181
 6985TIP3    H142514   1.849   2.747   0.141 -0.1478 -1.0344  1.8271
 6985TIP3    H242515   1.715   2.709   0.082  0.4286  0.8517 -0.9161
 6986TIP3   OH242516   0.276   3.155   7.017 -0.4006 -0.1506 -0.1014
 6986TIP3    H142517   0.257   3.192   6.931 -2.2136  0.8356  0.6593
 6986TIP3    H242518   0.285   3.061   7.001 -3.2641 -0.3620 -1.0708
 6987TIP3   OH242519   2.888   3.589   7.787 -0.8743  0.1705 -0.4280
 6987TIP3    H142520   2.872   3.495   7.789  0.5585 -0.0998  1.1440
 6987TIP3    H242521   2.984   3.597   7.789 -0.9746  1.6442 -0.0575
 6988TIP3   OH242522   4.748   5.687   6.658 -0.2635  0.0207  0.1713
 6988TIP3    H142523   4.684   5.618   6.640 -1.0809  0.6034  0.7973
 6988TIP3    H242524   4.781   5.712   6.572 -0.7883 -0.3648 -0.1470
 6989TIP3   OH242525   6.483   6.200   6.715 -0.1563  0.2639  0.2216
 6989TIP3    H142526   6.548   6.197   6.644 -1.4644  0.9345 -1.0634
 6989TIP3    H242527   6.470   6.294   6.731 -1.2636  0.1624 -0.0078
 6990TIP3   OH242528   3.508   2.778   7.699  0.1815  0.2629 -0.5169
 6990TIP3    H142529   3.538   2.868   7.686 -0.9580  0.8087  0.4015
 6990TIP3    H242530   3.510   2.766   7.794 -0.5150 -0.3755 -0.5786
 6991TIP3   OH242531   0.537   1.487   2.364  0.7343  0.2183  0.2370
 6991TIP3    H142532   0.445   1.471   2.388  0.5836 -2.6543 -1.6991
 6991TIP3    H242533   0.532   1.560   2.302 -0.3614 -0.2185 -0.2361
 6992TIP3   OH242534   1.645   5.988   1.676 -0.0752 -0.0391  0.3710
 6992TIP3    H142535   1.638   5.989   1.581  0.4587  0.4944  0.3372
 6992TIP3    H242536   1.604   6.070   1.704 -1.3017 -0.7318  0.6843
 6993TIP3   OH242537   3.493   0.189   8.363 -0.2788 -0.3410 -0.1724
 6993TIP3    H142538   3.466   0.219   8.276  0.9117  0.0853 -0.4075
 6993TIP3    H242539   3.571   0.241   8.383  0.9264 -2.1804  0.0764
 6994TIP3   OH242540   1.827   4.892   0.885  0.0966 -0.4147  0.2297
 6994TIP3    H142541   1.793   4.823   0.828  1.5801 -1.3797  0.4464
 6994TIP3    H242542   1.749   4.938   0.917 -0.8452 -0.9544 -1.1893
 6995TIP3   OH242543   0.237   3.509   1.290  0.0021 -0.5521 -0.1946
 6995TIP3    H142544   0.147   3.529   1.316 -0.3058  1.0562 -2.2126
 6995TIP3    H242545   0.283   3.593   1.294  0.9967 -1.0532 -0.6985
 6996TIP3   OH242546   0.591   0.131   2.074 -0.0824 -0.3831  0.1214
 6996TIP3    H142547   0.648   0.058   2.097  2.6252  0.5906 -2.8720
 6996TIP3    H242548   0.559   0.110   1.986 -0.2920  1.3955 -0.2651
 6997TIP3   OH242549   1.720   2.330   1.870 -0.1109  0.0069  0.4887
 6997TIP3    H142550   1.790   2.279   1.912 -0.4907  0.0931  1.2443
 6997TIP3    H242551   1.759   2.416   1.854 -0.0344  0.0527  0.9045
 6998TIP3   OH242552   5.434   6.632   0.860 -0.4335 -0.7086  0.3017
 6998TIP3    H142553   5.528   6.617   0.845 -0.4022 -0.9014  0.6788
 6998TIP3    H242554   5.419   6.601   0.949 -0.6996  0.0288  0.5269
 6999TIP3   OH242555   4.798   4.845   1.186 -0.0835  0.1652  0.1003
 6999TIP3    H142556   4.841   4.929   1.172  0.2611 -0.0997 -0.4482
 6999TIP3    H242557   4.782   4.842   1.280 -0.4930  1.0340  0.0634
 7000TIP3   OH242558   2.368   5.751   6.770 -0.1401  0.0087  0.2388
 7000TIP3    H142559   2.300   5.709   6.822  0.2589 -1.9336 -0.7254
 7000TIP3    H242560   2.350   5.725   6.680  0.6449  1.2357 -0.3070
 7001TIP3   OH242561   6.564   3.182   0.361 -0.1448 -0.4684  0.4487
 7001TIP3    H142562   6.499   3.178   0.291 -1.4338  3.4323  1.2041
 7001TIP3    H242563   6.646   3.204   0.316 -0.2987 -0.9159 -0.0704
 7002TIP3   OH242564   5.099   3.793   1.932 -0.0276  0.4587  0.2113
 7002TIP3    H142565   5.108   3.847   2.011 -1.8086  0.4321  0.4629
 7002TIP3    H242566   5.135   3.708   1.956  0.3237  0.7284  0.6642
 7003TIP3   OH242567   2.742   2.945   2.297 -0.7136 -0.0665 -0.0386
 7003TIP3    H142568   2.813   2.911   2.351 -2.0649 -0.3422  1.6630
 7003TIP3    H242569   2.784   2.971   2.215  1.0206 -2.0279  0.1435
 7004TIP3   OH242570   2.337   3.076   6.766  0.0519 -0.1342  0.4713
 7004TIP3    H142571   2.430   3.096   6.760 -0.3789  1.4833 -2.0545
 7004TIP3    H242572   2.293   3.150   6.724 -2.1785 -2.3955 -1.4672
 7005TIP3   OH242573   2.068   6.705   1.231 -0.6237  0.0930  0.3224
 7005TIP3    H142574   2.065   6.651   1.153 -0.9725  0.9817 -0.2928
 7005TIP3    H242575   2.103   6.789   1.201 -1.8358  0.8187  0.8869
 7006TIP3   OH242576   3.786   6.493   0.242  0.7505 -0.3974 -0.1423
 7006TIP3    H142577   3.744   6.509   0.157 -0.3977  0.0405  0.4934
 7006TIP3    H242578   3.812   6.401   0.239 -1.4873 -1.0941 -0.0500
 7007TIP3   OH242579   6.870   5.235   0.093  0.1985  0.0217 -0.6951
 7007TIP3    H142580   6.892   5.204   0.005 -0.5208 -1.7862 -0.2886
 7007TIP3    H242581   6.894   5.162   0.150 -1.4625  0.2449  0.3557
 7008TIP3   OH242582   2.188   5.315   0.195  0.3198 -0.0613 -0.0220
 7008TIP3    H142583   2.165   5.329   0.103 -0.0818 -3.3978 -0.5558
 7008TIP3    H242584   2.277   5.281   0.193 -0.0196 -1.0646  0.6594
 7009TIP3   OH242585   0.124   4.447   0.861 -0.0708  0.1900 -0.0887
 7009TIP3    H142586   0.042   4.497   0.865  0.1433  0.5447 -0.1288
 7009TIP3    H242587   0.169   4.481   0.784  0.1590  0.0593 -0.0126
 7010TIP3   OH242588   1.222   0.468   7.373  0.4144 -0.4646  0.3432
 7010TIP3    H142589   1.211   0.408   7.447 -0.0109 -0.8222  0.0023
 7010TIP3    H242590   1.161   0.435   7.307 -1.2498  1.4498  0.8260
 7011TIP3   OH242591   4.007   4.127   0.851  0.5949  0.0865  0.0752
 7011TIP3    H142592   4.071   4.196   0.870  1.4690 -0.8833  0.7637
 7011TIP3    H242593   3.922   4.172   0.850  1.0792  1.0699  1.1426
 7012TIP3   OH242594   4.780   5.938   8.542  0.1248 -0.0172  0.0779
 7012TIP3    H142595   4.698   5.912   8.499 -0.0662 -0.2725  0.5917
 7012TIP3    H242596   4.849   5.912   8.480 -0.2378  1.5532 -1.0597
 7013TIP3   OH242597   1.153   4.805   1.630  0.2547 -0.8428  0.1584
 7013TIP3    H142598   1.213   4.787   1.702  1.2244 -2.2474 -0.9326
 7013TIP3    H242599   1.076   4.843   1.671  1.4352 -0.0609  1.7305
 7014TIP3   OH242600   0.772   5.099   7.762 -0.4617  0.0099 -0.0279
 7014TIP3    H142601   0.719   5.164   7.716 -1.3867  0.2700  1.3230
 7014TIP3    H242602   0.851   5.146   7.788  0.5796 -0.4267 -2.2141
 7015TIP3   OH242603   3.816   6.355   6.324 -0.4630  0.3737 -0.2016
 7015TIP3    H142604   3.827   6.450   6.320 -1.6484  0.5063 -1.9360
 7015TIP3    H242605   3.889   6.324   6.376  0.1771  2.2085  0.0694
 7016TIP3   OH242606   3.897   3.816   0.165 -0.2830 -0.1137 -0.2054
 7016TIP3    H142607   3.947   3.839   0.087 -1.5720 -1.1930 -1.4018
 7016TIP3    H242608   3.937   3.735   0.196  0.0008  0.1258  0.0691
 7017TIP3   OH242609   0.293   3.908   0.218 -0.0554 -0.0708  0.5422
 7017TIP3    H142610   0.247   3.992   0.224  0.8824  0.4689  0.1957
 7017TIP3    H242611   0.227   3.844   0.246 -0.0083  1.0124  3.6203
 7018TIP3   OH242612   3.386   3.754   1.116 -0.0417  0.4766  0.5237
 7018TIP3    H142613   3.365   3.662   1.101 -0.1299  1.0003 -3.7806
 7018TIP3    H242614   3.307   3.790   1.156 -0.2734 -1.1297  1.5945
 7019TIP3   OH242615   4.470   0.201   6.327  0.0445 -0.5498  0.1647
 7019TIP3    H142616   4.530   0.127   6.316 -0.0333 -0.5045 -0.6961
 7019TIP3    H242617   4.504   0.249   6.402  0.2736 -1.2894  0.5443
 7020TIP3   OH242618   2.920   0.449   1.708  0.2152  0.2736 -0.3497
 7020TIP3    H142619   2.963   0.449   1.793 -0.7218 -1.1667  0.1654
 7020TIP3    H242620   2.967   0.514   1.656  1.7186  0.1410  0.8078
 7021TIP3   OH242621   5.974   6.866   2.167  0.0595  0.1265  0.4699
 7021TIP3    H142622   5.963   6.773   2.185 -0.2809  0.3253  1.3290
 7021TIP3    H242623   5.885   6.902   2.175 -0.0218  0.3354 -1.0389
 7022TIP3   OH242624   4.172   5.334   0.447 -0.0686  0.0344 -0.0304
 7022TIP3    H142625   4.099   5.396   0.449  0.9149  1.3109 -1.6080
 7022TIP3    H242626   4.250   5.389   0.434  0.9701 -1.4368 -0.2205
 7023TIP3   OH242627   1.191   5.156   8.423  0.4310  0.3744  0.0882
 7023TIP3    H142628   1.254   5.106   8.475 -0.6315  0.5204  1.5812
 7023TIP3    H242629   1.225   5.246   8.426  0.1971  0.4426  0.8308
 7024TIP3   OH242630   0.389   2.627   1.105  0.4501 -0.1050  0.5722
 7024TIP3    H142631   0.376   2.710   1.058  1.6169  0.0090  0.4367
 7024TIP3    H242632   0.471   2.639   1.153 -0.8337 -0.0997  2.9192
 7025TIP3   OH242633   3.646   5.286   0.347 -0.5471 -0.5421  0.1034
 7025TIP3    H142634   3.609   5.310   0.262 -2.1380  0.5879  1.0600
 7025TIP3    H242635   3.621   5.195   0.360 -3.8688  0.3484  1.0260
 7026TIP3   OH242636   5.640   3.679   0.206 -0.1041 -0.9009 -0.0245
 7026TIP3    H142637   5.677   3.591   0.197  0.6696 -0.4835 -1.3733
 7026TIP3    H242638   5.559   3.676   0.155  0.1808 -0.7102 -0.4975
 7027TIP3   OH242639   4.220   0.950   0.516  0.3695 -0.5111 -0.3913
 7027TIP3    H142640   4.169   0.949   0.597 -0.4826  1.0889 -0.8775
 7027TIP3    H242641   4.261   0.863   0.512 -0.0615 -0.8230  1.4278
 7028TIP3   OH242642   6.136   0.166   0.716 -0.9648 -0.6177  0.2108
 7028TIP3    H142643   6.164   0.131   0.631  0.7618  0.3907  0.2944
 7028TIP3    H242644   6.119   0.259   0.698  0.1745 -0.2156  1.0867
 7029TIP3   OH242645   2.618   3.644   0.557  0.0975 -0.3676 -0.4656
 7029TIP3    H142646   2.564   3.589   0.500  0.7966 -2.2925  0.6090
 7029TIP3    H242647   2.704   3.646   0.515  0.5374 -1.5599  0.3216
 7030TIP3   OH242648   6.712   3.311   1.268  0.2056 -0.0918  0.3401
 7030TIP3    H142649   6.635   3.319   1.323  1.1607  0.1304  1.6939
 7030TIP3    H242650   6.744   3.222   1.284  0.8506  0.1895  0.6604
 7031TIP3   OH242651   2.765   2.767   0.042  0.6053 -0.1902 -0.2371
 7031TIP3    H142652   2.721   2.846   0.011  0.8066  0.0642  0.1166
 7031TIP3    H242653   2.787   2.786   0.133 -0.6543 -1.2246  0.3142
 7032TIP3   OH242654   0.602   2.405   8.293  0.0697  0.0708 -0.1404
 7032TIP3    H142655   0.584   2.311   8.293 -4.1212  0.6263  2.5243
 7032TIP3    H242656   0.664   2.418   8.365 -0.0901 -0.5249  0.1079
 7033TIP3   OH242657   5.273   2.048   7.905 -0.0270  0.2007  0.4463
 7033TIP3    H142658   5.189   2.041   7.861  0.2948 -3.4989  0.1223
 7033TIP3    H242659   5.318   2.121   7.861 -2.4587  1.3405 -0.2879
 7034TIP3   OH242660   1.544   3.730   0.210  0.0751 -0.2777  0.2191
 7034TIP3    H142661   1.619   3.704   0.157  0.1931  0.4662  0.0195
 7034TIP3    H242662   1.562   3.820   0.235 -0.3176 -0.3875  0.9397
 7035TIP3   OH242663   2.917   6.394   6.544  0.0748 -0.5669 -0.3329
 7035TIP3    H142664   2.920   6.484   6.512  0.6492 -0.2609  0.5388
 7035TIP3    H242665   2.923   6.340   6.466 -0.9919  0.1507 -0.9227
 7036TIP3   OH242666   0.618   2.024   1.868 -0.3020  0.1588  0.4398
 7036TIP3    H142667   0.566   2.047   1.791 -0.3721  0.5330  0.5957
 7036TIP3    H242668   0.582   1.941   1.897 -0.0185 -0.1767 -0.1591
 7037TIP3   OH242669   3.213   3.317   2.316 -0.2419 -0.2262 -0.5204
 7037TIP3    H142670   3.119   3.298   2.312 -0.2616 -0.0096 -2.6874
 7037TIP3    H242671   3.249   3.271   2.240  1.2963  0.2832 -0.1264
 7038TIP3   OH242672   6.210   1.483   7.065 -0.4492  0.4542  0.4067
 7038TIP3    H142673   6.160   1.561   7.039 -0.3582 -0.2002 -1.9497
 7038TIP3    H242674   6.293   1.518   7.098  0.2321  1.3828 -2.0773
 7039TIP3   OH242675   2.908   2.148   2.818 -0.0480  0.1464 -0.0593
 7039TIP3    H142676   2.874   2.142   2.729  1.7646 -2.9559 -0.6635
 7039TIP3    H242677   2.993   2.105   2.815 -0.1046 -0.4729  3.2474
 7040TIP3   OH242678   0.155   6.098   0.695  0.2724  0.2230  0.3711
 7040TIP3    H142679   0.069   6.076   0.658 -0.0861  0.9449  0.7404
 7040TIP3    H242680   0.175   6.184   0.658  1.6267 -0.6601 -1.0373
 7041TIP3   OH242681   0.582   5.641   8.513 -0.2355  0.1938  0.1570
 7041TIP3    H142682   0.569   5.550   8.490 -0.6811 -0.1389  1.5941
 7041TIP3    H242683   0.531   5.691   8.449 -1.1367 -0.6412  0.2116
 7042TIP3   OH242684   2.554   5.696   1.447 -0.1168 -0.1341  0.4396
 7042TIP3    H142685   2.460   5.714   1.449 -0.6339 -2.4822  0.4915
 7042TIP3    H242686   2.582   5.724   1.360 -1.6982 -2.7409 -1.0287
 7043TIP3   OH242687   5.946   5.540   0.039 -0.0601 -0.4272  0.1583
 7043TIP3    H142688   6.028   5.584   0.017  0.3423 -0.2528  1.8617
 7043TIP3    H242689   5.914   5.505  -0.044  1.1479  0.4939 -0.7216
 7044TIP3   OH242690   0.786   2.089   8.197 -0.4916 -0.0819 -0.2416
 7044TIP3    H142691   0.875   2.106   8.167 -0.6425 -1.4967 -1.6184
 7044TIP3    H242692   0.739   2.060   8.119 -3.1358  3.7795 -0.3546
 7045TIP3   OH242693   6.503   6.440   0.223 -0.1843 -0.2567 -0.3119
 7045TIP3    H142694   6.448   6.371   0.187 -0.2104 -0.4876  0.1629
 7045TIP3    H242695   6.464   6.462   0.307 -0.1002  0.2482 -0.3982
 7046TIP3   OH242696   2.649   1.886   8.297  0.3166 -0.0727 -0.0817
 7046TIP3    H142697   2.642   1.869   8.391  0.6672  1.3728  0.2327
 7046TIP3    H242698   2.606   1.970   8.285  2.7712  1.2031 -0.7086
 7047TIP3   OH242699   4.414   3.064   7.816  0.7225  0.6930  0.9412
 7047TIP3    H142700   4.389   3.121   7.743  0.2059  0.0056  0.5691
 7047TIP3    H242701   4.356   3.089   7.888 -0.2382 -0.0608  0.4533
 7048TIP3   OH242702   1.428   4.060   6.735  0.2358 -0.3968 -0.3751
 7048TIP3    H142703   1.510   4.023   6.767  1.3160  0.0941 -2.3949
 7048TIP3    H242704   1.453   4.113   6.659 -2.0437 -1.0442 -1.6846
 7049TIP3   OH242705   1.342   6.753   1.617 -0.0952 -0.0277  0.0214
 7049TIP3    H142706   1.311   6.702   1.692 -1.5345  1.8208  0.7740
 7049TIP3    H242707   1.435   6.768   1.633 -0.0126 -1.0894  0.5525
 7050TIP3   OH242708   4.126   1.475   8.490  0.4108  0.6247 -0.1409
 7050TIP3    H142709   4.174   1.395   8.510 -1.4201 -0.0316  2.1348
 7050TIP3    H242710   4.193   1.538   8.465  2.1268 -1.0170  0.1209
 7051TIP3   OH242711   2.291   4.460   8.247 -0.7000 -0.5955 -0.1078
 7051TIP3    H142712   2.355   4.407   8.200  0.3254  2.4150 -2.4524
 7051TIP3    H242713   2.312   4.446   8.339  1.7388 -1.6206 -0.7205
 7052TIP3   OH242714   3.695   1.584   8.502  0.1862 -0.3735  0.3186
 7052TIP3    H142715   3.722   1.500   8.538 -2.4386 -1.7179 -0.5314
 7052TIP3    H242716   3.684   1.567   8.408 -0.7257  0.7882  0.1926
 7053TIP3   OH242717   4.246   3.375   0.850  0.2086  0.6943  0.5265
 7053TIP3    H142718   4.207   3.455   0.886  0.5087 -0.0763  2.6488
 7053TIP3    H242719   4.180   3.307   0.863  0.7963  0.1531  0.7170
 7054TIP3   OH242720   2.458   1.966   2.386  0.0260 -0.4351  0.0077
 7054TIP3    H142721   2.530   2.005   2.337 -0.3619 -1.2495 -1.2702
 7054TIP3    H242722   2.436   2.031   2.452  0.1983  0.9823 -1.2651
 7055TIP3   OH242723   3.285   4.932   1.902 -0.1817 -0.5505  0.0431
 7055TIP3    H142724   3.199   4.901   1.873 -1.3560  0.4533  2.2285
 7055TIP3    H242725   3.273   5.026   1.915  1.4627 -0.2682 -0.2465
 7056TIP3   OH242726   4.562   0.681   0.271  0.6782 -0.1258 -0.3527
 7056TIP3    H142727   4.532   0.722   0.190  2.6453  0.5271 -0.8104
 7056TIP3    H242728   4.492   0.621   0.295 -0.5708  0.7028 -1.7678
 7057TIP3   OH242729   3.400   0.305   8.121 -0.1069 -0.1213 -0.6222
 7057TIP3    H142730   3.426   0.383   8.072  1.3353  0.0127  0.2909
 7057TIP3    H242731   3.354   0.251   8.057 -1.0606  1.4205 -1.2971
 7058TIP3   OH242732   2.778   3.702   7.532  0.1302 -0.3232 -0.4602
 7058TIP3    H142733   2.775   3.752   7.614  0.7210 -1.2871  0.1725
 7058TIP3    H242734   2.744   3.616   7.555  1.2380 -0.9226 -0.9769
 7059TIP3   OH242735   0.488   0.257   7.750  0.1451  0.2061 -0.4149
 7059TIP3    H142736   0.526   0.173   7.775 -1.3543 -1.4132 -3.1208
 7059TIP3    H242737   0.562   0.311   7.724  1.0779 -0.4608  0.7528
 7060TIP3   OH242738   1.766   2.412   6.861 -0.3542  0.4974 -1.2484
 7060TIP3    H142739   1.859   2.419   6.882 -0.5404 -0.1894 -0.1667
 7060TIP3    H242740   1.760   2.336   6.803 -0.6424 -1.6421  1.4267
 7061TIP3   OH242741   2.702   4.235   2.148  0.8060 -0.1049 -0.4828
 7061TIP3    H142742   2.639   4.191   2.205  0.3968  1.0684  0.0117
 7061TIP3    H242743   2.755   4.165   2.111 -1.5380 -1.2838 -1.8636
 7062TIP3   OH242744   6.367   2.023   7.330 -0.7229  0.0695 -0.0597
 7062TIP3    H142745   6.288   1.981   7.365  0.3341 -1.0578  1.0931
 7062TIP3    H242746   6.365   2.112   7.365 -1.2005 -0.1226  0.4076
 7063TIP3   OH242747   3.924   3.534   2.251  0.1640 -0.1531  0.2560
 7063TIP3    H142748   3.875   3.567   2.326 -0.9413  0.7956 -0.8490
 7063TIP3    H242749   3.893   3.445   2.240 -1.0964  0.3231 -0.2169
 7064TIP3   OH242750   1.256   1.168   7.892 -0.3253 -0.1052 -0.2608
 7064TIP3    H142751   1.195   1.097   7.874 -0.5525 -0.1596  0.6802
 7064TIP3    H242752   1.267   1.213   7.807 -0.5551 -0.9526 -0.7499
 7065TIP3   OH242753   2.547   2.670   7.009  0.5402  0.6248 -0.3958
 7065TIP3    H142754   2.467   2.723   7.000 -0.8202 -0.9734  1.4554
 7065TIP3    H242755   2.524   2.585   6.971  0.3199 -0.7315  2.4725
 7066TIP3   OH242756   1.243   4.485   7.819 -0.4903  0.1061  0.1095
 7066TIP3    H142757   1.185   4.562   7.822 -0.4540  0.1125  1.5545
 7066TIP3    H242758   1.325   4.519   7.784 -0.2328  0.9414  1.4152
 7067TIP3   OH242759   2.983   1.871   0.385 -0.4299  0.2343 -0.6822
 7067TIP3    H142760   3.044   1.944   0.395 -1.1078  0.5794  1.3791
 7067TIP3    H242761   2.938   1.889   0.302  0.0161  1.6886 -0.6358
 7068TIP3   OH242762   4.832   5.577   7.007 -0.2756 -0.2923 -0.4646
 7068TIP3    H142763   4.925   5.599   7.001 -0.8283  2.3948 -0.2635
 7068TIP3    H242764   4.812   5.585   7.100 -0.8816 -0.1383 -0.6070
 7069TIP3   OH242765   4.205   3.915   8.002 -0.2297 -0.2166 -0.1948
 7069TIP3    H142766   4.215   3.833   8.051 -3.1949  0.8823  2.6407
 7069TIP3    H242767   4.136   3.896   7.939 -0.4337 -0.1013 -0.0078
 7070TIP3   OH242768   5.639   3.881   8.108  0.4412 -0.0550  0.5706
 7070TIP3    H142769   5.561   3.925   8.075  1.1220  1.1240  0.4875
 7070TIP3    H242770   5.666   3.933   8.184  1.3110 -0.2787  0.4294
 7071TIP3   OH242771   4.252   2.274   0.452 -0.4793  0.5941  0.1402
 7071TIP3    H142772   4.174   2.239   0.408 -0.6473 -1.0137  1.5861
 7071TIP3    H242773   4.325   2.248   0.396 -0.8798  0.9039 -0.5275
 7072LIG      O42774   3.257   5.012   3.313 -0.0530 -0.0144 -0.1060
 7072LIG     C142775   3.263   4.870   3.295  0.1606 -0.1723  0.1905
 7072LIG     C242776   3.280   4.844   3.149  0.1339 -0.7595 -0.2912
 7072LIG     C342777   3.379   4.832   3.394  1.0651 -0.4206 -0.0924
 7072LIG     H142778   3.163   4.837   3.331  0.8947 -0.0311  2.5391
 7072LIG     H242779   3.362   4.895   3.094 -0.9826  3.2929  1.3932
 7072LIG     H342780   3.185   4.878   3.101 -0.3668 -1.0246  0.4961
 7072LIG     H442781   3.299   4.739   3.119  2.4116 -1.0785  1.8876
 7072LIG     H542782   3.346   4.864   3.495 -0.2677 -2.3465  0.1279
 7072LIG     H642783   3.467   4.896   3.369  0.4228  0.6395  0.3298
 7072LIG     H742784   3.394   4.722   3.401 -0.3838 -0.5705  1.0505
 7072LIG     H842785   3.348   5.038   3.331 -0.8828  1.5917  2.1636
   6.89551   6.89551   8.66245
